                         Program Version 4.2.1 -  RELEASE  -
|  1> ! wB97X-D3 SP def2-SVP
|  2> %pal
|  3> nprocs 24
|  4> end
|  5>
|  6> * xyz 0 1
|  7> S 	 -103.745 	 35.6858 	 -21.932
|  8> C 	 -102.447 	 35.1096 	 -20.8881
|  9> C 	 -102.728 	 33.7652 	 -20.6063
| 10> C 	 -104.033 	 33.2764 	 -20.9567
| 11> C 	 -104.729 	 34.2046 	 -21.7121
| 12> H 	 -104.575 	 32.3538 	 -20.704
| 13> C 	 -101.674 	 32.8341 	 -19.9407
| 14> H 	 -100.769 	 33.3199 	 -19.9362
| 15> H 	 -101.506 	 32.0358 	 -20.6137
| 16> C 	 -102.048 	 32.3671 	 -18.5554
| 17> H 	 -101.41 	 32.9158 	 -17.8684
| 18> H 	 -103.066 	 32.6256 	 -18.3658
| 19> C 	 -101.939 	 30.8042 	 -18.352
| 20> H 	 -102.169 	 30.5815 	 -17.3744
| 21> H 	 -102.616 	 30.1674 	 -18.9117
| 22> H 	 -100.905 	 30.4381 	 -18.5324
| 23> S 	 -107.435 	 34.0605 	 -21.3221
| 24> C 	 -108.527 	 34.1264 	 -22.6467
| 25> C 	 -107.834 	 34.001 	 -23.8597
| 26> C 	 -106.386 	 33.9708 	 -23.7081
| 27> C 	 -106.017 	 33.9904 	 -22.3836
| 28> H 	 -108.38 	 33.8855 	 -24.8233
| 29> C 	 -105.41 	 33.9744 	 -24.9318
| 30> H 	 -105.873 	 33.4069 	 -25.7852
| 31> H 	 -104.676 	 33.3515 	 -24.5619
| 32> C 	 -104.89 	 35.3175 	 -25.3291
| 33> H 	 -104.668 	 35.8744 	 -24.3936
| 34> H 	 -105.746 	 35.7313 	 -25.8545
| 35> C 	 -103.659 	 35.2116 	 -26.2287
| 36> H 	 -102.802 	 34.8233 	 -25.6813
| 37> H 	 -103.488 	 36.1771 	 -26.73
| 38> H 	 -103.927 	 34.5565 	 -26.9994
| 39> H 	 -101.51 	 35.5856 	 -20.6683
| 40> H 	 -109.618 	 34.1496 	 -22.6715
| 41> *
| 42>
| 43>                          ****END OF INPUT****

CARTESIAN COORDINATES (ANGSTROEM)
---------------------------------
  S    -103.745000   35.685800  -21.932000
  C    -102.447000   35.109600  -20.888100
  C    -102.728000   33.765200  -20.606300
  C    -104.033000   33.276400  -20.956700
  C    -104.729000   34.204600  -21.712100
  H    -104.575000   32.353800  -20.704000
  C    -101.674000   32.834100  -19.940700
  H    -100.769000   33.319900  -19.936200
  H    -101.506000   32.035800  -20.613700
  C    -102.048000   32.367100  -18.555400
  H    -101.410000   32.915800  -17.868400
  H    -103.066000   32.625600  -18.365800
  C    -101.939000   30.804200  -18.352000
  H    -102.169000   30.581500  -17.374400
  H    -102.616000   30.167400  -18.911700
  H    -100.905000   30.438100  -18.532400
  S    -107.435000   34.060500  -21.322100
  C    -108.527000   34.126400  -22.646700
  C    -107.834000   34.001000  -23.859700
  C    -106.386000   33.970800  -23.708100
  C    -106.017000   33.990400  -22.383600
  H    -108.380000   33.885500  -24.823300
  C    -105.410000   33.974400  -24.931800
  H    -105.873000   33.406900  -25.785200
  H    -104.676000   33.351500  -24.561900
  C    -104.890000   35.317500  -25.329100
  H    -104.668000   35.874400  -24.393600
  H    -105.746000   35.731300  -25.854500
  C    -103.659000   35.211600  -26.228700
  H    -102.802000   34.823300  -25.681300
  H    -103.488000   36.177100  -26.730000
  H    -103.927000   34.556500  -26.999400
  H    -101.510000   35.585600  -20.668300
  H    -109.618000   34.149600  -22.671500

 Total Charge           Charge          ....    0
 Multiplicity           Mult            ....    1
 Number of Electrons    NEL             ....  134
 Basis Dimension        Dim             ....  322

ORBITAL ENERGIES
----------------

  NO   OCC          E(Eh)            E(eV)
   0   2.0000     -88.967593     -2420.9313
   1   2.0000     -88.966561     -2420.9032
   2   2.0000     -10.335208      -281.2353
   3   2.0000     -10.326931      -281.0101
   4   2.0000     -10.319330      -280.8032
   5   2.0000     -10.318667      -280.7852
   6   2.0000     -10.307454      -280.4801
   7   2.0000     -10.307238      -280.4742
   8   2.0000     -10.300627      -280.2943
   9   2.0000     -10.298322      -280.2316
  10   2.0000     -10.285680      -279.8876
  11   2.0000     -10.283229      -279.8209
  12   2.0000     -10.278610      -279.6952
  13   2.0000     -10.277943      -279.6770
  14   2.0000     -10.274994      -279.5968
  15   2.0000     -10.270977      -279.4875
  16   2.0000      -8.081308      -219.9036
  17   2.0000      -8.080677      -219.8864
  18   2.0000      -6.039907      -164.3542
  19   2.0000      -6.039312      -164.3380
  20   2.0000      -6.035693      -164.2396
  21   2.0000      -6.035367      -164.2307
  22   2.0000      -6.032089      -164.1415
  23   2.0000      -6.031423      -164.1234
  24   2.0000      -1.002278       -27.2734
  25   2.0000      -0.979818       -26.6622
  26   2.0000      -0.912625       -24.8338
  27   2.0000      -0.908053       -24.7094
  28   2.0000      -0.867690       -23.6110
  29   2.0000      -0.847835       -23.0708
  30   2.0000      -0.841080       -22.8869
  31   2.0000      -0.814120       -22.1533
  32   2.0000      -0.784038       -21.3348
  33   2.0000      -0.772965       -21.0335
  34   2.0000      -0.708202       -19.2712
  35   2.0000      -0.698835       -19.0163
  36   2.0000      -0.692331       -18.8393
  37   2.0000      -0.662616       -18.0307
  38   2.0000      -0.640935       -17.4407
  39   2.0000      -0.615800       -16.7568
  40   2.0000      -0.589258       -16.0345
  41   2.0000      -0.573357       -15.6018
  42   2.0000      -0.565977       -15.4010
  43   2.0000      -0.554206       -15.0807
  44   2.0000      -0.528309       -14.3760
  45   2.0000      -0.520297       -14.1580
  46   2.0000      -0.519289       -14.1306
  47   2.0000      -0.512839       -13.9551
  48   2.0000      -0.508996       -13.8505
  49   2.0000      -0.501184       -13.6379
  50   2.0000      -0.490429       -13.3452
  51   2.0000      -0.479287       -13.0421
  52   2.0000      -0.478158       -13.0113
  53   2.0000      -0.466553       -12.6956
  54   2.0000      -0.459249       -12.4968
  55   2.0000      -0.443957       -12.0807
  56   2.0000      -0.440262       -11.9801
  57   2.0000      -0.437693       -11.9102
  58   2.0000      -0.430364       -11.7108
  59   2.0000      -0.427424       -11.6308
  60   2.0000      -0.421281       -11.4636
  61   2.0000      -0.412996       -11.2382
  62   2.0000      -0.402073       -10.9410
  63   2.0000      -0.340486        -9.2651
  64   2.0000      -0.330939        -9.0053
  65   2.0000      -0.325590        -8.8598
  66   2.0000      -0.301920        -8.2157
  67   0.0000       0.037227         1.0130
  68   0.0000       0.055837         1.5194
  69   0.0000       0.105278         2.8648
  70   0.0000       0.121734         3.3125
  71   0.0000       0.127025         3.4565

MULLIKEN ATOMIC CHARGES
-----------------------
   0 S :    0.093835
   1 C :   -0.095617
   2 C :   -0.141531
   3 C :    0.036992
   4 C :   -0.136843
   5 H :    0.031915
   6 C :    0.138957
   7 H :   -0.017206
   8 H :    0.021036
   9 C :   -0.057525
  10 H :    0.030387
  11 H :    0.030776
  12 C :   -0.047463
  13 H :    0.011109
  14 H :    0.029674
  15 H :    0.032469
  16 S :    0.117429
  17 C :   -0.085643
  18 C :   -0.067031
  19 C :   -0.056199
  20 C :   -0.198643
  21 H :    0.032058
  22 C :    0.082690
  23 H :    0.025638
  24 H :    0.004402
  25 C :   -0.070182
  26 H :    0.036659
  27 H :    0.022549
  28 C :   -0.003513
  29 H :    0.041364
  30 H :    0.035789
  31 H :    0.009196
  32 H :    0.050886
  33 H :    0.061587
Sum of atomic charges:   -0.0000000

LOEWDIN ATOMIC CHARGES
----------------------
   0 S :    0.396400
   1 C :   -0.199212
   2 C :   -0.053601
   3 C :   -0.064830
   4 C :   -0.181335
   5 H :    0.041589
   6 C :   -0.024490
   7 H :    0.015684
   8 H :    0.027543
   9 C :   -0.031760
  10 H :    0.027699
  11 H :    0.021597
  12 C :   -0.061640
  13 H :    0.013903
  14 H :    0.024278
  15 H :    0.026795
  16 S :    0.416091
  17 C :   -0.199931
  18 C :   -0.081341
  19 C :   -0.047195
  20 C :   -0.204368
  21 H :    0.035198
  22 C :   -0.027777
  23 H :    0.033243
  24 H :    0.017048
  25 C :   -0.044364
  26 H :    0.013575
  27 H :    0.024556
  28 C :   -0.056073
  29 H :    0.028950
  30 H :    0.030685
  31 H :    0.016160
  32 H :    0.030761
  33 H :    0.036160

  Mayer bond orders larger than 0.100000
B(  0-S ,  1-C ) :   1.1220 B(  0-S ,  4-C ) :   1.1380 B(  1-C ,  2-C ) :   1.6238
B(  1-C , 32-H ) :   0.9709 B(  2-C ,  3-C ) :   1.2098 B(  2-C ,  6-C ) :   1.0317
B(  3-C ,  4-C ) :   1.5982 B(  3-C ,  5-H ) :   0.9880 B(  4-C , 20-C ) :   1.0110
B(  6-C ,  7-H ) :   0.9327 B(  6-C ,  8-H ) :   0.9450 B(  6-C ,  9-C ) :   1.0381
B(  9-C , 10-H ) :   0.9584 B(  9-C , 11-H ) :   0.9703 B(  9-C , 12-C ) :   1.0753
B( 12-C , 13-H ) :   0.9733 B( 12-C , 14-H ) :   0.9775 B( 12-C , 15-H ) :   0.9778
B( 16-S , 17-C ) :   1.1630 B( 16-S , 20-C ) :   1.1352 B( 17-C , 18-C ) :   1.6110
B( 17-C , 33-H ) :   0.9638 B( 18-C , 19-C ) :   1.2390 B( 18-C , 21-H ) :   0.9805
B( 19-C , 20-C ) :   1.6238 B( 19-C , 22-C ) :   1.0200 B( 22-C , 23-H ) :   0.9348
B( 22-C , 24-H ) :   0.9283 B( 22-C , 25-C ) :   1.0641 B( 25-C , 26-H ) :   0.9484
B( 25-C , 27-H ) :   0.9503 B( 25-C , 28-C ) :   1.0848 B( 28-C , 29-H ) :   0.9747
B( 28-C , 30-H ) :   0.9728 B( 28-C , 31-H ) :   0.9700

Dispersion correction           -0.014474581
FINAL SINGLE POINT ENERGY     -1339.862468064483

DIPOLE MOMENT
-------------
                                X             Y             Z
Electronic contribution:    -15.53870       9.71106       3.64625
Nuclear contribution   :     15.78531     -10.07592      -3.83011
                        -----------------------------------------
Total Dipole Moment    :      0.24660      -0.36485      -0.18386
                        -----------------------------------------
Magnitude (a.u.)       :      0.47722
Magnitude (Debye)      :      1.21299

Rotational constants in cm-1:     0.018641     0.008475     0.006748
Rotational constants in MHz :   558.829122   254.064518   202.294158

                             ****ORCA TERMINATED NORMALLY****
TOTAL RUN TIME: 0 days 0 hours 0 minutes 20 seconds 278 msec
