                         Program Version 4.2.1 -  RELEASE  -
|  1> ! wB97X-D3 SP def2-SVP
|  2> %pal
|  3> nprocs 24
|  4> end
|  5>
|  6> * xyz 0 1
|  7> S 	 -132.712 	 25.6831 	 -27.7744
|  8> C 	 -133.169 	 23.9822 	 -27.5836
|  9> C 	 -132.442 	 23.3817 	 -26.61
| 10> C 	 -131.658 	 24.3105 	 -25.9084
| 11> C 	 -131.637 	 25.5929 	 -26.3951
| 12> H 	 -131.04 	 24.0279 	 -25.0189
| 13> C 	 -132.586 	 21.9087 	 -26.2585
| 14> H 	 -131.723 	 21.5962 	 -25.6569
| 15> H 	 -132.556 	 21.3918 	 -27.1948
| 16> C 	 -133.833 	 21.5003 	 -25.5042
| 17> H 	 -133.621 	 21.9799 	 -24.5438
| 18> H 	 -134.747 	 21.9816 	 -25.9163
| 19> C 	 -134.143 	 20.0303 	 -25.2594
| 20> H 	 -134.528 	 19.6264 	 -26.2182
| 21> H 	 -133.323 	 19.4187 	 -24.9169
| 22> H 	 -135.013 	 19.9714 	 -24.6205
| 23> S 	 -129.856 	 27.8001 	 -27.2169
| 24> C 	 -128.916 	 28.5569 	 -25.8981
| 25> C 	 -129.394 	 28.2558 	 -24.6509
| 26> C 	 -130.362 	 27.1734 	 -24.7319
| 27> C 	 -130.755 	 26.7306 	 -26.0131
| 28> H 	 -128.947 	 28.6555 	 -23.7388
| 29> C 	 -130.827 	 26.5702 	 -23.4186
| 30> H 	 -131.823 	 26.0678 	 -23.5918
| 31> H 	 -131.08 	 27.357 	 -22.7318
| 32> C 	 -129.81 	 25.6622 	 -22.6739
| 33> H 	 -128.925 	 26.2874 	 -22.5425
| 34> H 	 -129.541 	 24.7787 	 -23.2726
| 35> C 	 -130.261 	 25.2546 	 -21.2748
| 36> H 	 -130.673 	 26.0395 	 -20.583
| 37> H 	 -129.433 	 24.6569 	 -20.8104
| 38> H 	 -131.046 	 24.5241 	 -21.4826
| 39> H 	 -133.971 	 23.4708 	 -28.1638
| 40> H 	 -128.305 	 29.4321 	 -26.1082
| 41> *
| 42>
| 43>                          ****END OF INPUT****

CARTESIAN COORDINATES (ANGSTROEM)
---------------------------------
  S    -132.712000   25.683100  -27.774400
  C    -133.169000   23.982200  -27.583600
  C    -132.442000   23.381700  -26.610000
  C    -131.658000   24.310500  -25.908400
  C    -131.637000   25.592900  -26.395100
  H    -131.040000   24.027900  -25.018900
  C    -132.586000   21.908700  -26.258500
  H    -131.723000   21.596200  -25.656900
  H    -132.556000   21.391800  -27.194800
  C    -133.833000   21.500300  -25.504200
  H    -133.621000   21.979900  -24.543800
  H    -134.747000   21.981600  -25.916300
  C    -134.143000   20.030300  -25.259400
  H    -134.528000   19.626400  -26.218200
  H    -133.323000   19.418700  -24.916900
  H    -135.013000   19.971400  -24.620500
  S    -129.856000   27.800100  -27.216900
  C    -128.916000   28.556900  -25.898100
  C    -129.394000   28.255800  -24.650900
  C    -130.362000   27.173400  -24.731900
  C    -130.755000   26.730600  -26.013100
  H    -128.947000   28.655500  -23.738800
  C    -130.827000   26.570200  -23.418600
  H    -131.823000   26.067800  -23.591800
  H    -131.080000   27.357000  -22.731800
  C    -129.810000   25.662200  -22.673900
  H    -128.925000   26.287400  -22.542500
  H    -129.541000   24.778700  -23.272600
  C    -130.261000   25.254600  -21.274800
  H    -130.673000   26.039500  -20.583000
  H    -129.433000   24.656900  -20.810400
  H    -131.046000   24.524100  -21.482600
  H    -133.971000   23.470800  -28.163800
  H    -128.305000   29.432100  -26.108200

 Total Charge           Charge          ....    0
 Multiplicity           Mult            ....    1
 Number of Electrons    NEL             ....  134
 Basis Dimension        Dim             ....  322

ORBITAL ENERGIES
----------------

  NO   OCC          E(Eh)            E(eV)
   0   2.0000     -88.967515     -2420.9292
   1   2.0000     -88.965693     -2420.8796
   2   2.0000     -10.341430      -281.4046
   3   2.0000     -10.335672      -281.2479
   4   2.0000     -10.323319      -280.9118
   5   2.0000     -10.317759      -280.7605
   6   2.0000     -10.309639      -280.5395
   7   2.0000     -10.300049      -280.2786
   8   2.0000     -10.298718      -280.2424
   9   2.0000     -10.297253      -280.2025
  10   2.0000     -10.291473      -280.0452
  11   2.0000     -10.291074      -280.0344
  12   2.0000     -10.290536      -280.0197
  13   2.0000     -10.287436      -279.9354
  14   2.0000     -10.286306      -279.9046
  15   2.0000     -10.281649      -279.7779
  16   2.0000      -8.081959      -219.9213
  17   2.0000      -8.078566      -219.8290
  18   2.0000      -6.040513      -164.3707
  19   2.0000      -6.037376      -164.2854
  20   2.0000      -6.036488      -164.2612
  21   2.0000      -6.033460      -164.1788
  22   2.0000      -6.032701      -164.1581
  23   2.0000      -6.028974      -164.0567
  24   2.0000      -1.004390       -27.3308
  25   2.0000      -0.977365       -26.5955
  26   2.0000      -0.916055       -24.9271
  27   2.0000      -0.905487       -24.6396
  28   2.0000      -0.869791       -23.6682
  29   2.0000      -0.850707       -23.1489
  30   2.0000      -0.843530       -22.9536
  31   2.0000      -0.817390       -22.2423
  32   2.0000      -0.787317       -21.4240
  33   2.0000      -0.768811       -20.9204
  34   2.0000      -0.703593       -19.1457
  35   2.0000      -0.697896       -18.9907
  36   2.0000      -0.691812       -18.8252
  37   2.0000      -0.658760       -17.9258
  38   2.0000      -0.638824       -17.3833
  39   2.0000      -0.619887       -16.8680
  40   2.0000      -0.592484       -16.1223
  41   2.0000      -0.579073       -15.7574
  42   2.0000      -0.567482       -15.4420
  43   2.0000      -0.560963       -15.2646
  44   2.0000      -0.526960       -14.3393
  45   2.0000      -0.522698       -14.2233
  46   2.0000      -0.520636       -14.1672
  47   2.0000      -0.513578       -13.9752
  48   2.0000      -0.506047       -13.7702
  49   2.0000      -0.496623       -13.5138
  50   2.0000      -0.494319       -13.4511
  51   2.0000      -0.479270       -13.0416
  52   2.0000      -0.470301       -12.7976
  53   2.0000      -0.465412       -12.6645
  54   2.0000      -0.455065       -12.3829
  55   2.0000      -0.452721       -12.3192
  56   2.0000      -0.445374       -12.1193
  57   2.0000      -0.439211       -11.9515
  58   2.0000      -0.433482       -11.7956
  59   2.0000      -0.423202       -11.5159
  60   2.0000      -0.415829       -11.3153
  61   2.0000      -0.412453       -11.2234
  62   2.0000      -0.411081       -11.1861
  63   2.0000      -0.353663        -9.6237
  64   2.0000      -0.335792        -9.1374
  65   2.0000      -0.328936        -8.9508
  66   2.0000      -0.291245        -7.9252
  67   0.0000       0.023575         0.6415
  68   0.0000       0.064631         1.7587
  69   0.0000       0.107443         2.9237
  70   0.0000       0.118790         3.2324
  71   0.0000       0.124350         3.3837

MULLIKEN ATOMIC CHARGES
-----------------------
   0 S :    0.104755
   1 C :   -0.143546
   2 C :   -0.080121
   3 C :    0.009310
   4 C :   -0.152219
   5 H :    0.012850
   6 C :    0.096969
   7 H :    0.019301
   8 H :    0.016447
   9 C :   -0.104244
  10 H :    0.019974
  11 H :    0.029625
  12 C :   -0.016370
  13 H :    0.023681
  14 H :    0.037190
  15 H :    0.034803
  16 S :    0.076958
  17 C :   -0.091888
  18 C :   -0.012107
  19 C :   -0.062340
  20 C :   -0.099646
  21 H :    0.036656
  22 C :    0.023019
  23 H :    0.033277
  24 H :    0.013826
  25 C :   -0.071968
  26 H :    0.020881
  27 H :    0.037300
  28 C :   -0.064555
  29 H :    0.050765
  30 H :    0.045008
  31 H :    0.024953
  32 H :    0.063038
  33 H :    0.068414
Sum of atomic charges:   -0.0000000

LOEWDIN ATOMIC CHARGES
----------------------
   0 S :    0.398588
   1 C :   -0.186029
   2 C :   -0.068854
   3 C :   -0.067528
   4 C :   -0.189228
   5 H :    0.036480
   6 C :   -0.028536
   7 H :    0.030830
   8 H :    0.024895
   9 C :   -0.048542
  10 H :    0.022726
  11 H :    0.026257
  12 C :   -0.062538
  13 H :    0.027296
  14 H :    0.023844
  15 H :    0.030195
  16 S :    0.346121
  17 C :   -0.163716
  18 C :   -0.070114
  19 C :   -0.050724
  20 C :   -0.173635
  21 H :    0.037946
  22 C :   -0.042576
  23 H :    0.031477
  24 H :    0.026531
  25 C :   -0.040493
  26 H :    0.020057
  27 H :    0.024540
  28 C :   -0.074024
  29 H :    0.032275
  30 H :    0.033751
  31 H :    0.024082
  32 H :    0.037872
  33 H :    0.030775

  Mayer bond orders larger than 0.100000
B(  0-S ,  1-C ) :   1.1376 B(  0-S ,  4-C ) :   1.1466 B(  1-C ,  2-C ) :   1.6112
B(  1-C , 32-H ) :   0.9633 B(  2-C ,  3-C ) :   1.2693 B(  2-C ,  6-C ) :   1.0195
B(  3-C ,  4-C ) :   1.5614 B(  3-C ,  5-H ) :   0.9843 B(  4-C , 20-C ) :   1.0545
B(  6-C ,  7-H ) :   0.9379 B(  6-C ,  8-H ) :   0.9326 B(  6-C ,  9-C ) :   1.0654
B(  9-C , 10-H ) :   0.9544 B(  9-C , 11-H ) :   0.9564 B(  9-C , 12-C ) :   1.0869
B( 12-C , 13-H ) :   0.9714 B( 12-C , 14-H ) :   0.9748 B( 12-C , 15-H ) :   0.9709
B( 16-S , 17-C ) :   1.1443 B( 16-S , 20-C ) :   1.0913 B( 17-C , 18-C ) :   1.6382
B( 17-C , 33-H ) :   0.9574 B( 18-C , 19-C ) :   1.2137 B( 18-C , 21-H ) :   0.9846
B( 19-C , 20-C ) :   1.6191 B( 19-C , 22-C ) :   1.0588 B( 22-C , 23-H ) :   0.9347
B( 22-C , 24-H ) :   0.9326 B( 22-C , 25-C ) :   1.0568 B( 25-C , 26-H ) :   0.9531
B( 25-C , 27-H ) :   0.9521 B( 25-C , 28-C ) :   1.0794 B( 28-C , 29-H ) :   0.9731
B( 28-C , 30-H ) :   0.9723 B( 28-C , 31-H ) :   0.9754

Dispersion correction           -0.013751451
FINAL SINGLE POINT ENERGY     -1339.880471227981

DIPOLE MOMENT
-------------
                                X             Y             Z
Electronic contribution:      4.76451      22.59230     -23.21423
Nuclear contribution   :     -4.78565     -23.03479      23.87709
                        -----------------------------------------
Total Dipole Moment    :     -0.02114      -0.44250       0.66286
                        -----------------------------------------
Magnitude (a.u.)       :      0.79727
Magnitude (Debye)      :      2.02649

Rotational constants in cm-1:     0.017929     0.008338     0.005959
Rotational constants in MHz :   537.502225   249.967736   178.636864

                             ****ORCA TERMINATED NORMALLY****
TOTAL RUN TIME: 0 days 0 hours 0 minutes 21 seconds 184 msec
