                         Program Version 4.2.1 -  RELEASE  -
|  1> ! wB97X-D3 SP def2-SVP
|  2> %pal
|  3> nprocs 24
|  4> end
|  5>
|  6> * xyz 0 1
|  7> S 	 -39.2114 	 -46.9529 	 -74.0974
|  8> C 	 -40.3865 	 -45.828 	 -73.3885
|  9> C 	 -39.8968 	 -45.3148 	 -72.2177
| 10> C 	 -38.5325 	 -45.6452 	 -71.9705
| 11> C 	 -37.966 	 -46.4575 	 -72.9783
| 12> H 	 -37.8046 	 -45.3621 	 -71.1523
| 13> C 	 -40.5161 	 -44.2064 	 -71.3069
| 14> H 	 -40.761 	 -43.3675 	 -72.0175
| 15> H 	 -39.7137 	 -43.8717 	 -70.6532
| 16> C 	 -41.7028 	 -44.7221 	 -70.4635
| 17> H 	 -41.5089 	 -45.7325 	 -70.2566
| 18> H 	 -41.6582 	 -44.2988 	 -69.4351
| 19> C 	 -43.1035 	 -44.641 	 -71.1775
| 20> H 	 -43.4937 	 -43.6411 	 -71.2928
| 21> H 	 -43.0266 	 -44.9846 	 -72.2306
| 22> H 	 -43.8724 	 -45.2323 	 -70.7069
| 23> S 	 -36.1617 	 -48.4132 	 -72.1929
| 24> C 	 -34.4579 	 -48.1984 	 -72.8055
| 25> C 	 -34.3326 	 -47.0559 	 -73.5257
| 26> C 	 -35.5141 	 -46.3441 	 -73.655
| 27> C 	 -36.6473 	 -46.9161 	 -73.0374
| 28> H 	 -33.3672 	 -46.7706 	 -74.0401
| 29> C 	 -35.6178 	 -45.0191 	 -74.3864
| 30> H 	 -34.9575 	 -44.3692 	 -73.8779
| 31> H 	 -36.5374 	 -44.3793 	 -74.2373
| 32> C 	 -35.4108 	 -45.0072 	 -75.8644
| 33> H 	 -34.4735 	 -45.3768 	 -76.3033
| 34> H 	 -35.3625 	 -43.9787 	 -76.2908
| 35> C 	 -36.6552 	 -45.7451 	 -76.5214
| 36> H 	 -36.6018 	 -45.5785 	 -77.6068
| 37> H 	 -37.6593 	 -45.3561 	 -76.2545
| 38> H 	 -36.5548 	 -46.8328 	 -76.3669
| 39> H 	 -41.2602 	 -45.3035 	 -73.8568
| 40> H 	 -33.6601 	 -48.9017 	 -72.6016
| 41> *
| 42>
| 43>                          ****END OF INPUT****

CARTESIAN COORDINATES (ANGSTROEM)
---------------------------------
  S    -39.211400  -46.952900  -74.097400
  C    -40.386500  -45.828000  -73.388500
  C    -39.896800  -45.314800  -72.217700
  C    -38.532500  -45.645200  -71.970500
  C    -37.966000  -46.457500  -72.978300
  H    -37.804600  -45.362100  -71.152300
  C    -40.516100  -44.206400  -71.306900
  H    -40.761000  -43.367500  -72.017500
  H    -39.713700  -43.871700  -70.653200
  C    -41.702800  -44.722100  -70.463500
  H    -41.508900  -45.732500  -70.256600
  H    -41.658200  -44.298800  -69.435100
  C    -43.103500  -44.641000  -71.177500
  H    -43.493700  -43.641100  -71.292800
  H    -43.026600  -44.984600  -72.230600
  H    -43.872400  -45.232300  -70.706900
  S    -36.161700  -48.413200  -72.192900
  C    -34.457900  -48.198400  -72.805500
  C    -34.332600  -47.055900  -73.525700
  C    -35.514100  -46.344100  -73.655000
  C    -36.647300  -46.916100  -73.037400
  H    -33.367200  -46.770600  -74.040100
  C    -35.617800  -45.019100  -74.386400
  H    -34.957500  -44.369200  -73.877900
  H    -36.537400  -44.379300  -74.237300
  C    -35.410800  -45.007200  -75.864400
  H    -34.473500  -45.376800  -76.303300
  H    -35.362500  -43.978700  -76.290800
  C    -36.655200  -45.745100  -76.521400
  H    -36.601800  -45.578500  -77.606800
  H    -37.659300  -45.356100  -76.254500
  H    -36.554800  -46.832800  -76.366900
  H    -41.260200  -45.303500  -73.856800
  H    -33.660100  -48.901700  -72.601600

 Total Charge           Charge          ....    0
 Multiplicity           Mult            ....    1
 Number of Electrons    NEL             ....  134
 Basis Dimension        Dim             ....  322

ORBITAL ENERGIES
----------------

  NO   OCC          E(Eh)            E(eV)
   0   2.0000     -88.967800     -2420.9369
   1   2.0000     -88.965868     -2420.8843
   2   2.0000     -10.325137      -280.9613
   3   2.0000     -10.324682      -280.9489
   4   2.0000     -10.323573      -280.9187
   5   2.0000     -10.317233      -280.7462
   6   2.0000     -10.304416      -280.3974
   7   2.0000     -10.302113      -280.3348
   8   2.0000     -10.299928      -280.2753
   9   2.0000     -10.298948      -280.2486
  10   2.0000     -10.297099      -280.1983
  11   2.0000     -10.287882      -279.9475
  12   2.0000     -10.287865      -279.9470
  13   2.0000     -10.285779      -279.8903
  14   2.0000     -10.281022      -279.7608
  15   2.0000     -10.274269      -279.5771
  16   2.0000      -8.081621      -219.9121
  17   2.0000      -8.079053      -219.8422
  18   2.0000      -6.040266      -164.3640
  19   2.0000      -6.037614      -164.2918
  20   2.0000      -6.036130      -164.2515
  21   2.0000      -6.033825      -164.1887
  22   2.0000      -6.032373      -164.1492
  23   2.0000      -6.029798      -164.0791
  24   2.0000      -1.004028       -27.3210
  25   2.0000      -0.980064       -26.6689
  26   2.0000      -0.905904       -24.6509
  27   2.0000      -0.904550       -24.6140
  28   2.0000      -0.872907       -23.7530
  29   2.0000      -0.842654       -22.9298
  30   2.0000      -0.839135       -22.8340
  31   2.0000      -0.807317       -21.9682
  32   2.0000      -0.782872       -21.3030
  33   2.0000      -0.769548       -20.9405
  34   2.0000      -0.712338       -19.3837
  35   2.0000      -0.704445       -19.1689
  36   2.0000      -0.693755       -18.8780
  37   2.0000      -0.655537       -17.8381
  38   2.0000      -0.635640       -17.2967
  39   2.0000      -0.608314       -16.5531
  40   2.0000      -0.598907       -16.2971
  41   2.0000      -0.567073       -15.4308
  42   2.0000      -0.556077       -15.1316
  43   2.0000      -0.544691       -14.8218
  44   2.0000      -0.532676       -14.4949
  45   2.0000      -0.524909       -14.2835
  46   2.0000      -0.518155       -14.0997
  47   2.0000      -0.510874       -13.9016
  48   2.0000      -0.505523       -13.7560
  49   2.0000      -0.491868       -13.3844
  50   2.0000      -0.479994       -13.0613
  51   2.0000      -0.478942       -13.0327
  52   2.0000      -0.470618       -12.8062
  53   2.0000      -0.464659       -12.6440
  54   2.0000      -0.453061       -12.3284
  55   2.0000      -0.444572       -12.0974
  56   2.0000      -0.442183       -12.0324
  57   2.0000      -0.435369       -11.8470
  58   2.0000      -0.430008       -11.7011
  59   2.0000      -0.426674       -11.6104
  60   2.0000      -0.413312       -11.2468
  61   2.0000      -0.407251       -11.0819
  62   2.0000      -0.404958       -11.0195
  63   2.0000      -0.340806        -9.2738
  64   2.0000      -0.330402        -8.9907
  65   2.0000      -0.314668        -8.5625
  66   2.0000      -0.308704        -8.4003
  67   0.0000       0.033880         0.9219
  68   0.0000       0.043590         1.1861
  69   0.0000       0.110172         2.9979
  70   0.0000       0.118974         3.2374
  71   0.0000       0.125252         3.4083

MULLIKEN ATOMIC CHARGES
-----------------------
   0 S :    0.126724
   1 C :   -0.138209
   2 C :   -0.091268
   3 C :    0.017101
   4 C :   -0.194855
   5 H :    0.040437
   6 C :    0.032381
   7 H :    0.048256
   8 H :    0.023941
   9 C :   -0.034724
  10 H :    0.019305
  11 H :    0.031875
  12 C :   -0.052065
  13 H :    0.028761
  14 H :    0.019164
  15 H :    0.037589
  16 S :    0.098056
  17 C :   -0.101923
  18 C :   -0.030667
  19 C :    0.006342
  20 C :   -0.184172
  21 H :    0.043450
  22 C :    0.077666
  23 H :    0.010161
  24 H :    0.036002
  25 C :   -0.083614
  26 H :    0.023012
  27 H :    0.024711
  28 C :   -0.081553
  29 H :    0.023657
  30 H :    0.039034
  31 H :    0.050241
  32 H :    0.074859
  33 H :    0.060325
Sum of atomic charges:   -0.0000000

LOEWDIN ATOMIC CHARGES
----------------------
   0 S :    0.416141
   1 C :   -0.211565
   2 C :   -0.066625
   3 C :   -0.065909
   4 C :   -0.204265
   5 H :    0.044600
   6 C :   -0.027271
   7 H :    0.036502
   8 H :    0.029822
   9 C :   -0.040762
  10 H :    0.020372
  11 H :    0.028710
  12 C :   -0.065913
  13 H :    0.021753
  14 H :    0.026030
  15 H :    0.025774
  16 S :    0.364503
  17 C :   -0.154836
  18 C :   -0.077841
  19 C :   -0.045956
  20 C :   -0.200440
  21 H :    0.047752
  22 C :   -0.042157
  23 H :    0.024161
  24 H :    0.044237
  25 C :   -0.046772
  26 H :    0.020311
  27 H :    0.027299
  28 C :   -0.073184
  29 H :    0.022365
  30 H :    0.022133
  31 H :    0.027064
  32 H :    0.043755
  33 H :    0.030211

  Mayer bond orders larger than 0.100000
B(  0-S ,  1-C ) :   1.1319 B(  0-S ,  4-C ) :   1.1462 B(  1-C ,  2-C ) :   1.6239
B(  1-C ,  4-C ) :   0.1059 B(  1-C , 32-H ) :   0.9514 B(  2-C ,  3-C ) :   1.2369
B(  2-C ,  6-C ) :   1.0095 B(  3-C ,  4-C ) :   1.5775 B(  3-C ,  5-H ) :   0.9811
B(  4-C , 20-C ) :   1.0818 B(  6-C ,  7-H ) :   0.9534 B(  6-C ,  8-H ) :   0.9452
B(  6-C ,  9-C ) :   1.0508 B(  9-C , 10-H ) :   0.9579 B(  9-C , 11-H ) :   0.9588
B(  9-C , 12-C ) :   1.0639 B( 12-C , 13-H ) :   0.9783 B( 12-C , 14-H ) :   0.9741
B( 12-C , 15-H ) :   0.9765 B( 16-S , 17-C ) :   1.1451 B( 16-S , 20-C ) :   1.1207
B( 17-C , 18-C ) :   1.6089 B( 17-C , 20-C ) :   0.1098 B( 17-C , 33-H ) :   0.9671
B( 18-C , 19-C ) :   1.2637 B( 18-C , 21-H ) :   0.9762 B( 19-C , 20-C ) :   1.5795
B( 19-C , 22-C ) :   1.0291 B( 22-C , 23-H ) :   0.9276 B( 22-C , 24-H ) :   0.9342
B( 22-C , 25-C ) :   1.0791 B( 25-C , 26-H ) :   0.9574 B( 25-C , 27-H ) :   0.9528
B( 25-C , 28-C ) :   1.0616 B( 28-C , 29-H ) :   0.9743 B( 28-C , 30-H ) :   0.9733
B( 28-C , 31-H ) :   0.9785

Dispersion correction           -0.015543914
FINAL SINGLE POINT ENERGY     -1339.856678951942

DIPOLE MOMENT
-------------
                                X             Y             Z
Electronic contribution:      9.79423     -17.14612       2.86928
Nuclear contribution   :     -9.58745      17.77233      -2.82753
                        -----------------------------------------
Total Dipole Moment    :      0.20678       0.62621       0.04175
                        -----------------------------------------
Magnitude (a.u.)       :      0.66079
Magnitude (Debye)      :      1.67958

Rotational constants in cm-1:     0.023506     0.007792     0.006831
Rotational constants in MHz :   704.681733   233.583537   204.793974

                             ****ORCA TERMINATED NORMALLY****
TOTAL RUN TIME: 0 days 0 hours 0 minutes 20 seconds 889 msec
