                         Program Version 4.2.1 -  RELEASE  -
|  1> ! wB97X-D3 SP def2-SVP
|  2> %pal
|  3> nprocs 24
|  4> end
|  5>
|  6> * xyz 0 1
|  7> S 	 -104.764 	 26.9013 	 -119.082
|  8> C 	 -104.607 	 28.3874 	 -118.176
|  9> C 	 -105.871 	 28.9566 	 -118.067
| 10> C 	 -106.942 	 27.9952 	 -118.435
| 11> C 	 -106.422 	 26.7339 	 -118.735
| 12> H 	 -108.004 	 28.1016 	 -118.286
| 13> C 	 -106.15 	 30.4107 	 -117.706
| 14> H 	 -106.922 	 30.8084 	 -118.395
| 15> H 	 -105.31 	 31.0066 	 -117.916
| 16> C 	 -106.505 	 30.5894 	 -116.241
| 17> H 	 -105.832 	 30.0771 	 -115.558
| 18> H 	 -106.246 	 31.6238 	 -115.983
| 19> C 	 -107.948 	 30.3609 	 -115.944
| 20> H 	 -108.22 	 29.3356 	 -116.002
| 21> H 	 -108.269 	 30.699 	 -114.941
| 22> H 	 -108.54 	 30.9853 	 -116.642
| 23> S 	 -106.518 	 24.6038 	 -120.462
| 24> C 	 -107.773 	 23.3867 	 -120.309
| 25> C 	 -108.471 	 23.5239 	 -119.122
| 26> C 	 -108.141 	 24.7831 	 -118.447
| 27> C 	 -107.087 	 25.5118 	 -119.063
| 28> H 	 -109.215 	 22.8301 	 -118.753
| 29> C 	 -108.836 	 25.0791 	 -117.094
| 30> H 	 -109.881 	 25.0225 	 -117.308
| 31> H 	 -108.589 	 26.0611 	 -116.674
| 32> C 	 -108.564 	 23.9842 	 -116.021
| 33> H 	 -108.784 	 22.9441 	 -116.49
| 34> H 	 -109.277 	 24.0348 	 -115.122
| 35> C 	 -107.132 	 23.9912 	 -115.493
| 36> H 	 -106.857 	 24.9052 	 -114.971
| 37> H 	 -106.596 	 24.009 	 -116.466
| 38> H 	 -106.982 	 23.1961 	 -114.717
| 39> H 	 -103.744 	 28.9619 	 -118.117
| 40> H 	 -107.962 	 22.5691 	 -121.061
| 41> *
| 42>
| 43>                          ****END OF INPUT****

CARTESIAN COORDINATES (ANGSTROEM)
---------------------------------
  S    -104.764000   26.901300  -119.082000
  C    -104.607000   28.387400  -118.176000
  C    -105.871000   28.956600  -118.067000
  C    -106.942000   27.995200  -118.435000
  C    -106.422000   26.733900  -118.735000
  H    -108.004000   28.101600  -118.286000
  C    -106.150000   30.410700  -117.706000
  H    -106.922000   30.808400  -118.395000
  H    -105.310000   31.006600  -117.916000
  C    -106.505000   30.589400  -116.241000
  H    -105.832000   30.077100  -115.558000
  H    -106.246000   31.623800  -115.983000
  C    -107.948000   30.360900  -115.944000
  H    -108.220000   29.335600  -116.002000
  H    -108.269000   30.699000  -114.941000
  H    -108.540000   30.985300  -116.642000
  S    -106.518000   24.603800  -120.462000
  C    -107.773000   23.386700  -120.309000
  C    -108.471000   23.523900  -119.122000
  C    -108.141000   24.783100  -118.447000
  C    -107.087000   25.511800  -119.063000
  H    -109.215000   22.830100  -118.753000
  C    -108.836000   25.079100  -117.094000
  H    -109.881000   25.022500  -117.308000
  H    -108.589000   26.061100  -116.674000
  C    -108.564000   23.984200  -116.021000
  H    -108.784000   22.944100  -116.490000
  H    -109.277000   24.034800  -115.122000
  C    -107.132000   23.991200  -115.493000
  H    -106.857000   24.905200  -114.971000
  H    -106.596000   24.009000  -116.466000
  H    -106.982000   23.196100  -114.717000
  H    -103.744000   28.961900  -118.117000
  H    -107.962000   22.569100  -121.061000

 Total Charge           Charge          ....    0
 Multiplicity           Mult            ....    1
 Number of Electrons    NEL             ....  134
 Basis Dimension        Dim             ....  322

ORBITAL ENERGIES
----------------

  NO   OCC          E(Eh)            E(eV)
   0   2.0000     -88.967755     -2420.9357
   1   2.0000     -88.961116     -2420.7550
   2   2.0000     -10.334284      -281.2102
   3   2.0000     -10.329928      -281.0916
   4   2.0000     -10.328434      -281.0510
   5   2.0000     -10.316099      -280.7153
   6   2.0000     -10.309340      -280.5314
   7   2.0000     -10.308782      -280.5162
   8   2.0000     -10.302339      -280.3409
   9   2.0000     -10.299045      -280.2513
  10   2.0000     -10.297666      -280.2137
  11   2.0000     -10.296172      -280.1731
  12   2.0000     -10.290563      -280.0204
  13   2.0000     -10.282385      -279.7979
  14   2.0000     -10.275971      -279.6234
  15   2.0000     -10.274973      -279.5962
  16   2.0000      -8.082385      -219.9329
  17   2.0000      -8.077225      -219.7925
  18   2.0000      -6.041082      -164.3862
  19   2.0000      -6.036866      -164.2715
  20   2.0000      -6.035780      -164.2419
  21   2.0000      -6.032982      -164.1658
  22   2.0000      -6.031813      -164.1340
  23   2.0000      -6.027561      -164.0183
  24   2.0000      -1.010356       -27.4932
  25   2.0000      -0.982333       -26.7306
  26   2.0000      -0.919042       -25.0084
  27   2.0000      -0.904835       -24.6218
  28   2.0000      -0.875518       -23.8241
  29   2.0000      -0.844743       -22.9866
  30   2.0000      -0.838784       -22.8245
  31   2.0000      -0.816407       -22.2156
  32   2.0000      -0.785068       -21.3628
  33   2.0000      -0.773000       -21.0344
  34   2.0000      -0.705215       -19.1899
  35   2.0000      -0.702511       -19.1163
  36   2.0000      -0.684381       -18.6230
  37   2.0000      -0.658198       -17.9105
  38   2.0000      -0.644082       -17.5264
  39   2.0000      -0.615754       -16.7555
  40   2.0000      -0.595595       -16.2070
  41   2.0000      -0.573873       -15.6159
  42   2.0000      -0.559849       -15.2343
  43   2.0000      -0.554256       -15.0821
  44   2.0000      -0.545347       -14.8397
  45   2.0000      -0.527866       -14.3640
  46   2.0000      -0.518343       -14.1048
  47   2.0000      -0.511853       -13.9282
  48   2.0000      -0.505442       -13.7538
  49   2.0000      -0.503962       -13.7135
  50   2.0000      -0.493564       -13.4306
  51   2.0000      -0.481333       -13.0977
  52   2.0000      -0.471736       -12.8366
  53   2.0000      -0.465220       -12.6593
  54   2.0000      -0.458145       -12.4668
  55   2.0000      -0.447852       -12.1867
  56   2.0000      -0.440144       -11.9769
  57   2.0000      -0.435363       -11.8468
  58   2.0000      -0.435084       -11.8392
  59   2.0000      -0.425340       -11.5741
  60   2.0000      -0.417209       -11.3528
  61   2.0000      -0.410594       -11.1728
  62   2.0000      -0.399876       -10.8812
  63   2.0000      -0.358020        -9.7422
  64   2.0000      -0.330914        -9.0046
  65   2.0000      -0.319865        -8.7040
  66   2.0000      -0.287593        -7.8258
  67   0.0000       0.020105         0.5471
  68   0.0000       0.065158         1.7730
  69   0.0000       0.096953         2.6382
  70   0.0000       0.110659         3.0112
  71   0.0000       0.129038         3.5113

MULLIKEN ATOMIC CHARGES
-----------------------
   0 S :    0.086058
   1 C :   -0.058624
   2 C :   -0.137107
   3 C :    0.045836
   4 C :   -0.144917
   5 H :    0.015214
   6 C :    0.077609
   7 H :    0.036062
   8 H :    0.003653
   9 C :   -0.049836
  10 H :    0.023566
  11 H :    0.014674
  12 C :   -0.033410
  13 H :    0.027740
  14 H :    0.029350
  15 H :    0.023947
  16 S :    0.097663
  17 C :   -0.103399
  18 C :   -0.030631
  19 C :   -0.087076
  20 C :   -0.132635
  21 H :    0.030798
  22 C :    0.099285
  23 H :    0.027419
  24 H :    0.027681
  25 C :   -0.147464
  26 H :    0.036915
  27 H :    0.036548
  28 C :   -0.050092
  29 H :    0.025901
  30 H :    0.052186
  31 H :    0.047240
  32 H :    0.026042
  33 H :    0.083804
Sum of atomic charges:   -0.0000000

LOEWDIN ATOMIC CHARGES
----------------------
   0 S :    0.414800
   1 C :   -0.193112
   2 C :   -0.047862
   3 C :   -0.068035
   4 C :   -0.199658
   5 H :    0.026604
   6 C :   -0.029016
   7 H :    0.038213
   8 H :    0.023012
   9 C :   -0.043772
  10 H :    0.025208
  11 H :    0.023590
  12 C :   -0.063649
  13 H :    0.017688
  14 H :    0.028383
  15 H :    0.027232
  16 S :    0.396334
  17 C :   -0.185507
  18 C :   -0.071823
  19 C :   -0.053211
  20 C :   -0.200201
  21 H :    0.032678
  22 C :   -0.030167
  23 H :    0.030586
  24 H :    0.028315
  25 C :   -0.052232
  26 H :    0.027036
  27 H :    0.024597
  28 C :   -0.077024
  29 H :    0.021639
  30 H :    0.036585
  31 H :    0.033122
  32 H :    0.015085
  33 H :    0.044564

  Mayer bond orders larger than 0.100000
B(  0-S ,  1-C ) :   1.1227 B(  0-S ,  4-C ) :   1.1605 B(  1-C ,  2-C ) :   1.6238
B(  1-C , 32-H ) :   0.9771 B(  2-C ,  3-C ) :   1.2081 B(  2-C ,  6-C ) :   1.0280
B(  3-C ,  4-C ) :   1.5511 B(  3-C ,  5-H ) :   0.9941 B(  4-C , 20-C ) :   1.0858
B(  6-C ,  7-H ) :   0.9449 B(  6-C ,  8-H ) :   0.9354 B(  6-C ,  9-C ) :   1.0718
B(  9-C , 10-H ) :   0.9504 B(  9-C , 11-H ) :   0.9514 B(  9-C , 12-C ) :   1.0879
B( 12-C , 13-H ) :   0.9745 B( 12-C , 14-H ) :   0.9698 B( 12-C , 15-H ) :   0.9723
B( 16-S , 17-C ) :   1.1524 B( 16-S , 20-C ) :   1.1241 B( 17-C , 18-C ) :   1.6100
B( 17-C , 33-H ) :   0.9609 B( 18-C , 19-C ) :   1.2278 B( 18-C , 21-H ) :   0.9861
B( 19-C , 20-C ) :   1.5829 B( 19-C , 22-C ) :   1.0409 B( 22-C , 23-H ) :   0.9269
B( 22-C , 24-H ) :   0.9445 B( 22-C , 25-C ) :   1.0657 B( 25-C , 26-H ) :   0.9535
B( 25-C , 27-H ) :   0.9546 B( 25-C , 28-C ) :   1.0635 B( 28-C , 29-H ) :   0.9735
B( 28-C , 30-H ) :   0.9751 B( 28-C , 31-H ) :   0.9721

Dispersion correction           -0.014707526
FINAL SINGLE POINT ENERGY     -1339.860513638606

DIPOLE MOMENT
-------------
                                X             Y             Z
Electronic contribution:     11.53288      -9.65725     -22.79472
Nuclear contribution   :    -11.99213       9.94294      23.12740
                        -----------------------------------------
Total Dipole Moment    :     -0.45924       0.28569       0.33268
                        -----------------------------------------
Magnitude (a.u.)       :      0.63498
Magnitude (Debye)      :      1.61399

Rotational constants in cm-1:     0.019254     0.009173     0.007196
Rotational constants in MHz :   577.221324   274.986883   215.725441

                             ****ORCA TERMINATED NORMALLY****
TOTAL RUN TIME: 0 days 0 hours 0 minutes 22 seconds 101 msec
