                         Program Version 4.2.1 -  RELEASE  -
|  1> ! wB97X-D3 SP def2-SVP
|  2> %pal
|  3> nprocs 24
|  4> end
|  5>
|  6> * xyz 0 1
|  7> S 	 -101.33 	 -4.23839 	 -107.755
|  8> C 	 -102.481 	 -4.87935 	 -106.611
|  9> C 	 -102.052 	 -4.70864 	 -105.338
| 10> C 	 -100.666 	 -4.18064 	 -105.314
| 11> C 	 -100.112 	 -4.02689 	 -106.559
| 12> H 	 -100.067 	 -3.86362 	 -104.511
| 13> C 	 -102.908 	 -4.99453 	 -104.127
| 14> H 	 -102.51 	 -5.92129 	 -103.694
| 15> H 	 -103.883 	 -5.33513 	 -104.453
| 16> C 	 -102.992 	 -3.86139 	 -103.152
| 17> H 	 -102.179 	 -3.88889 	 -102.484
| 18> H 	 -103.016 	 -3.00826 	 -103.775
| 19> C 	 -104.295 	 -3.91082 	 -102.332
| 20> H 	 -104.232 	 -2.9688 	 -101.761
| 21> H 	 -105.204 	 -3.84111 	 -103.084
| 22> H 	 -104.465 	 -4.73333 	 -101.616
| 23> S 	 -97.5766 	 -4.74107 	 -107.258
| 24> C 	 -96.274 	 -3.6051 	 -107.085
| 25> C 	 -96.6788 	 -2.32871 	 -106.811
| 26> C 	 -98.1169 	 -2.25866 	 -106.581
| 27> C 	 -98.7542 	 -3.50874 	 -106.853
| 28> H 	 -95.9756 	 -1.53973 	 -106.543
| 29> C 	 -98.7372 	 -1.05544 	 -105.928
| 30> H 	 -99.7983 	 -0.908569 	 -106.083
| 31> H 	 -98.3222 	 -0.285792 	 -106.564
| 32> C 	 -98.3254 	 -0.818139 	 -104.522
| 33> H 	 -97.2625 	 -0.45907 	 -104.399
| 34> H 	 -98.3764 	 -1.70418 	 -103.899
| 35> C 	 -99.2817 	 0.195883 	 -103.796
| 36> H 	 -99.3291 	 1.01695 	 -104.488
| 37> H 	 -98.8781 	 0.617943 	 -102.809
| 38> H 	 -100.34 	 -0.16884 	 -103.709
| 39> H 	 -103.466 	 -5.38552 	 -106.898
| 40> H 	 -95.2373 	 -3.87488 	 -107.106
| 41> *
| 42>
| 43>                          ****END OF INPUT****

CARTESIAN COORDINATES (ANGSTROEM)
---------------------------------
  S    -101.330000   -4.238390  -107.755000
  C    -102.481000   -4.879350  -106.611000
  C    -102.052000   -4.708640  -105.338000
  C    -100.666000   -4.180640  -105.314000
  C    -100.112000   -4.026890  -106.559000
  H    -100.067000   -3.863620  -104.511000
  C    -102.908000   -4.994530  -104.127000
  H    -102.510000   -5.921290  -103.694000
  H    -103.883000   -5.335130  -104.453000
  C    -102.992000   -3.861390  -103.152000
  H    -102.179000   -3.888890  -102.484000
  H    -103.016000   -3.008260  -103.775000
  C    -104.295000   -3.910820  -102.332000
  H    -104.232000   -2.968800  -101.761000
  H    -105.204000   -3.841110  -103.084000
  H    -104.465000   -4.733330  -101.616000
  S    -97.576600   -4.741070  -107.258000
  C    -96.274000   -3.605100  -107.085000
  C    -96.678800   -2.328710  -106.811000
  C    -98.116900   -2.258660  -106.581000
  C    -98.754200   -3.508740  -106.853000
  H    -95.975600   -1.539730  -106.543000
  C    -98.737200   -1.055440  -105.928000
  H    -99.798300   -0.908569  -106.083000
  H    -98.322200   -0.285792  -106.564000
  C    -98.325400   -0.818139  -104.522000
  H    -97.262500   -0.459070  -104.399000
  H    -98.376400   -1.704180  -103.899000
  C    -99.281700    0.195883  -103.796000
  H    -99.329100    1.016950  -104.488000
  H    -98.878100    0.617943  -102.809000
  H    -100.340000   -0.168840  -103.709000
  H    -103.466000   -5.385520  -106.898000
  H    -95.237300   -3.874880  -107.106000

 Total Charge           Charge          ....    0
 Multiplicity           Mult            ....    1
 Number of Electrons    NEL             ....  134
 Basis Dimension        Dim             ....  322

ORBITAL ENERGIES
----------------

  NO   OCC          E(Eh)            E(eV)
   0   2.0000     -88.965518     -2420.8748
   1   2.0000     -88.957802     -2420.6648
   2   2.0000     -10.329074      -281.0684
   3   2.0000     -10.325046      -280.9588
   4   2.0000     -10.316586      -280.7286
   5   2.0000     -10.313586      -280.6469
   6   2.0000     -10.312552      -280.6188
   7   2.0000     -10.300520      -280.2914
   8   2.0000     -10.296720      -280.1880
   9   2.0000     -10.291774      -280.0534
  10   2.0000     -10.291437      -280.0442
  11   2.0000     -10.291133      -280.0360
  12   2.0000     -10.288942      -279.9763
  13   2.0000     -10.288096      -279.9533
  14   2.0000     -10.285374      -279.8792
  15   2.0000     -10.279995      -279.7329
  16   2.0000      -8.080533      -219.8825
  17   2.0000      -8.073543      -219.6923
  18   2.0000      -6.039034      -164.3305
  19   2.0000      -6.034938      -164.2190
  20   2.0000      -6.032127      -164.1425
  21   2.0000      -6.031338      -164.1211
  22   2.0000      -6.027938      -164.0285
  23   2.0000      -6.024132      -163.9250
  24   2.0000      -1.004606       -27.3367
  25   2.0000      -0.984041       -26.7771
  26   2.0000      -0.918813       -25.0022
  27   2.0000      -0.916454       -24.9380
  28   2.0000      -0.870041       -23.6750
  29   2.0000      -0.847502       -23.0617
  30   2.0000      -0.841505       -22.8985
  31   2.0000      -0.815912       -22.2021
  32   2.0000      -0.780288       -21.2327
  33   2.0000      -0.768503       -20.9120
  34   2.0000      -0.708130       -19.2692
  35   2.0000      -0.700367       -19.0580
  36   2.0000      -0.684917       -18.6375
  37   2.0000      -0.658272       -17.9125
  38   2.0000      -0.643924       -17.5221
  39   2.0000      -0.615136       -16.7387
  40   2.0000      -0.600557       -16.3420
  41   2.0000      -0.581294       -15.8178
  42   2.0000      -0.565691       -15.3932
  43   2.0000      -0.560143       -15.2423
  44   2.0000      -0.527963       -14.3666
  45   2.0000      -0.523663       -14.2496
  46   2.0000      -0.521148       -14.1811
  47   2.0000      -0.512226       -13.9384
  48   2.0000      -0.506586       -13.7849
  49   2.0000      -0.491791       -13.3823
  50   2.0000      -0.488753       -13.2996
  51   2.0000      -0.478729       -13.0269
  52   2.0000      -0.467617       -12.7245
  53   2.0000      -0.463196       -12.6042
  54   2.0000      -0.457693       -12.4545
  55   2.0000      -0.452438       -12.3115
  56   2.0000      -0.445083       -12.1113
  57   2.0000      -0.437308       -11.8998
  58   2.0000      -0.435332       -11.8460
  59   2.0000      -0.429054       -11.6752
  60   2.0000      -0.423588       -11.5264
  61   2.0000      -0.413005       -11.2384
  62   2.0000      -0.407490       -11.0884
  63   2.0000      -0.337567        -9.1857
  64   2.0000      -0.322167        -8.7666
  65   2.0000      -0.320986        -8.7345
  66   2.0000      -0.310446        -8.4477
  67   0.0000       0.046167         1.2563
  68   0.0000       0.060855         1.6559
  69   0.0000       0.115789         3.1508
  70   0.0000       0.121585         3.3085
  71   0.0000       0.123847         3.3701

MULLIKEN ATOMIC CHARGES
-----------------------
   0 S :    0.104692
   1 C :   -0.156772
   2 C :   -0.101682
   3 C :    0.058863
   4 C :   -0.157363
   5 H :   -0.012706
   6 C :    0.100744
   7 H :    0.030003
   8 H :   -0.005790
   9 C :   -0.035624
  10 H :    0.027952
  11 H :    0.029411
  12 C :   -0.103652
  13 H :    0.037887
  14 H :    0.045691
  15 H :    0.048566
  16 S :    0.117321
  17 C :   -0.084333
  18 C :   -0.033070
  19 C :   -0.045042
  20 C :   -0.179520
  21 H :    0.028724
  22 C :    0.087734
  23 H :    0.026487
  24 H :    0.022039
  25 C :   -0.079163
  26 H :    0.035170
  27 H :    0.032444
  28 C :   -0.083551
  29 H :    0.018904
  30 H :    0.050444
  31 H :    0.046481
  32 H :    0.075675
  33 H :    0.053036
Sum of atomic charges:    0.0000000

LOEWDIN ATOMIC CHARGES
----------------------
   0 S :    0.405889
   1 C :   -0.211023
   2 C :   -0.065051
   3 C :   -0.057821
   4 C :   -0.210316
   5 H :    0.021374
   6 C :   -0.033522
   7 H :    0.033129
   8 H :    0.023371
   9 C :   -0.034568
  10 H :    0.021001
  11 H :    0.024952
  12 C :   -0.071400
  13 H :    0.028507
  14 H :    0.035224
  15 H :    0.026188
  16 S :    0.418849
  17 C :   -0.179548
  18 C :   -0.076350
  19 C :   -0.039724
  20 C :   -0.211594
  21 H :    0.034870
  22 C :   -0.041600
  23 H :    0.033367
  24 H :    0.037734
  25 C :   -0.043534
  26 H :    0.029757
  27 H :    0.019955
  28 C :   -0.072825
  29 H :    0.017079
  30 H :    0.035000
  31 H :    0.029883
  32 H :    0.045943
  33 H :    0.026804

  Mayer bond orders larger than 0.100000
B(  0-S ,  1-C ) :   1.1282 B(  0-S ,  4-C ) :   1.1549 B(  1-C ,  2-C ) :   1.6498
B(  1-C , 32-H ) :   0.9565 B(  2-C ,  3-C ) :   1.1777 B(  2-C ,  6-C ) :   1.0330
B(  3-C ,  4-C ) :   1.6168 B(  3-C ,  5-H ) :   1.0095 B(  4-C , 20-C ) :   0.9902
B(  6-C ,  7-H ) :   0.9243 B(  6-C ,  8-H ) :   0.9394 B(  6-C ,  9-C ) :   1.0596
B(  9-C , 10-H ) :   0.9457 B(  9-C , 11-H ) :   0.9611 B(  9-C , 12-C ) :   1.0894
B( 12-C , 13-H ) :   0.9757 B( 12-C , 14-H ) :   0.9744 B( 12-C , 15-H ) :   0.9755
B( 16-S , 17-C ) :   1.1693 B( 16-S , 20-C ) :   1.1481 B( 17-C , 18-C ) :   1.6201
B( 17-C , 33-H ) :   0.9665 B( 18-C , 19-C ) :   1.2295 B( 18-C , 21-H ) :   0.9848
B( 19-C , 20-C ) :   1.6048 B( 19-C , 22-C ) :   1.0463 B( 22-C , 23-H ) :   0.9427
B( 22-C , 24-H ) :   0.9123 B( 22-C , 25-C ) :   1.0580 B( 25-C , 26-H ) :   0.9477
B( 25-C , 27-H ) :   0.9620 B( 25-C , 28-C ) :   1.0742 B( 28-C , 29-H ) :   0.9740
B( 28-C , 30-H ) :   0.9742 B( 28-C , 31-H ) :   0.9758

Dispersion correction           -0.014272167
FINAL SINGLE POINT ENERGY     -1339.865122892632

DIPOLE MOMENT
-------------
                                X             Y             Z
Electronic contribution:     11.97431     -14.45164     -24.80743
Nuclear contribution   :    -11.95262      14.81667      25.54244
                        -----------------------------------------
Total Dipole Moment    :      0.02170       0.36503       0.73501
                        -----------------------------------------
Magnitude (a.u.)       :      0.82095
Magnitude (Debye)      :      2.08668

Rotational constants in cm-1:     0.017448     0.008982     0.006715
Rotational constants in MHz :   523.087129   269.259553   201.306465

                             ****ORCA TERMINATED NORMALLY****
TOTAL RUN TIME: 0 days 0 hours 0 minutes 21 seconds 490 msec
