                         Program Version 4.2.1 -  RELEASE  -
|  1> ! wB97X-D3 SP def2-SVP
|  2> %pal
|  3> nprocs 24
|  4> end
|  5>
|  6> * xyz 0 1
|  7> S 	 -70.3867 	 -46.955 	 -91.2079
|  8> C 	 -69.711 	 -46.2698 	 -92.6634
|  9> C 	 -68.5808 	 -46.9374 	 -93.0421
| 10> C 	 -68.2918 	 -48.0894 	 -92.2566
| 11> C 	 -69.2277 	 -48.2896 	 -91.213
| 12> H 	 -67.444 	 -48.7822 	 -92.3598
| 13> C 	 -67.6488 	 -46.6663 	 -94.2682
| 14> H 	 -67.7723 	 -47.3915 	 -95.04
| 15> H 	 -66.6698 	 -46.9875 	 -93.9961
| 16> C 	 -67.5368 	 -45.2523 	 -94.8313
| 17> H 	 -68.5049 	 -44.9348 	 -95.1674
| 18> H 	 -67.2341 	 -44.5514 	 -94.0415
| 19> C 	 -66.7997 	 -45.1828 	 -96.1664
| 20> H 	 -65.863 	 -45.7487 	 -96.1029
| 21> H 	 -67.3382 	 -45.6037 	 -97.0208
| 22> H 	 -66.5489 	 -44.1637 	 -96.4258
| 23> S 	 -70.021 	 -49.1018 	 -88.7024
| 24> C 	 -69.6876 	 -50.6901 	 -88.1396
| 25> C 	 -68.7547 	 -51.2453 	 -88.9337
| 26> C 	 -68.5662 	 -50.5687 	 -90.2107
| 27> C 	 -69.2738 	 -49.4023 	 -90.2925
| 28> H 	 -68.3521 	 -52.1796 	 -88.6288
| 29> C 	 -67.6961 	 -51.1936 	 -91.2393
| 30> H 	 -67.1704 	 -51.9825 	 -90.8233
| 31> H 	 -66.8836 	 -50.5399 	 -91.6076
| 32> C 	 -68.438 	 -51.6971 	 -92.4893
| 33> H 	 -67.6939 	 -51.7813 	 -93.2704
| 34> H 	 -69.1885 	 -51.0155 	 -92.9246
| 35> C 	 -69.227 	 -52.9761 	 -92.0912
| 36> H 	 -68.5833 	 -53.7345 	 -91.6699
| 37> H 	 -69.8647 	 -53.377 	 -92.8489
| 38> H 	 -69.8919 	 -52.6706 	 -91.1766
| 39> H 	 -70.2755 	 -45.5903 	 -93.2352
| 40> H 	 -69.8415 	 -51.134 	 -87.135
| 41> *
| 42>
| 43>                          ****END OF INPUT****

CARTESIAN COORDINATES (ANGSTROEM)
---------------------------------
  S    -70.386700  -46.955000  -91.207900
  C    -69.711000  -46.269800  -92.663400
  C    -68.580800  -46.937400  -93.042100
  C    -68.291800  -48.089400  -92.256600
  C    -69.227700  -48.289600  -91.213000
  H    -67.444000  -48.782200  -92.359800
  C    -67.648800  -46.666300  -94.268200
  H    -67.772300  -47.391500  -95.040000
  H    -66.669800  -46.987500  -93.996100
  C    -67.536800  -45.252300  -94.831300
  H    -68.504900  -44.934800  -95.167400
  H    -67.234100  -44.551400  -94.041500
  C    -66.799700  -45.182800  -96.166400
  H    -65.863000  -45.748700  -96.102900
  H    -67.338200  -45.603700  -97.020800
  H    -66.548900  -44.163700  -96.425800
  S    -70.021000  -49.101800  -88.702400
  C    -69.687600  -50.690100  -88.139600
  C    -68.754700  -51.245300  -88.933700
  C    -68.566200  -50.568700  -90.210700
  C    -69.273800  -49.402300  -90.292500
  H    -68.352100  -52.179600  -88.628800
  C    -67.696100  -51.193600  -91.239300
  H    -67.170400  -51.982500  -90.823300
  H    -66.883600  -50.539900  -91.607600
  C    -68.438000  -51.697100  -92.489300
  H    -67.693900  -51.781300  -93.270400
  H    -69.188500  -51.015500  -92.924600
  C    -69.227000  -52.976100  -92.091200
  H    -68.583300  -53.734500  -91.669900
  H    -69.864700  -53.377000  -92.848900
  H    -69.891900  -52.670600  -91.176600
  H    -70.275500  -45.590300  -93.235200
  H    -69.841500  -51.134000  -87.135000

 Total Charge           Charge          ....    0
 Multiplicity           Mult            ....    1
 Number of Electrons    NEL             ....  134
 Basis Dimension        Dim             ....  322

ORBITAL ENERGIES
----------------

  NO   OCC          E(Eh)            E(eV)
   0   2.0000     -88.966479     -2420.9010
   1   2.0000     -88.961334     -2420.7610
   2   2.0000     -10.336042      -281.2580
   3   2.0000     -10.329481      -281.0795
   4   2.0000     -10.314684      -280.6768
   5   2.0000     -10.311725      -280.5963
   6   2.0000     -10.305776      -280.4344
   7   2.0000     -10.303785      -280.3803
   8   2.0000     -10.298245      -280.2295
   9   2.0000     -10.289831      -280.0005
  10   2.0000     -10.289808      -279.9999
  11   2.0000     -10.288485      -279.9639
  12   2.0000     -10.287772      -279.9445
  13   2.0000     -10.285335      -279.8782
  14   2.0000     -10.279832      -279.7285
  15   2.0000     -10.279384      -279.7163
  16   2.0000      -8.081032      -219.8961
  17   2.0000      -8.076593      -219.7753
  18   2.0000      -6.039625      -164.3465
  19   2.0000      -6.035511      -164.2346
  20   2.0000      -6.035331      -164.2297
  21   2.0000      -6.031774      -164.1329
  22   2.0000      -6.031158      -164.1162
  23   2.0000      -6.026938      -164.0013
  24   2.0000      -1.010027       -27.4842
  25   2.0000      -0.986976       -26.8570
  26   2.0000      -0.915154       -24.9026
  27   2.0000      -0.911265       -24.7968
  28   2.0000      -0.875995       -23.8370
  29   2.0000      -0.852293       -23.1921
  30   2.0000      -0.840975       -22.8841
  31   2.0000      -0.814536       -22.1647
  32   2.0000      -0.784113       -21.3368
  33   2.0000      -0.777344       -21.1526
  34   2.0000      -0.716881       -19.5073
  35   2.0000      -0.705573       -19.1996
  36   2.0000      -0.692052       -18.8317
  37   2.0000      -0.667690       -18.1688
  38   2.0000      -0.640736       -17.4353
  39   2.0000      -0.616292       -16.7702
  40   2.0000      -0.599183       -16.3046
  41   2.0000      -0.570798       -15.5322
  42   2.0000      -0.565501       -15.3881
  43   2.0000      -0.556687       -15.1482
  44   2.0000      -0.538794       -14.6613
  45   2.0000      -0.527085       -14.3427
  46   2.0000      -0.521091       -14.1796
  47   2.0000      -0.511540       -13.9197
  48   2.0000      -0.508218       -13.8293
  49   2.0000      -0.497024       -13.5247
  50   2.0000      -0.494960       -13.4685
  51   2.0000      -0.488058       -13.2807
  52   2.0000      -0.470593       -12.8055
  53   2.0000      -0.468142       -12.7388
  54   2.0000      -0.463013       -12.5992
  55   2.0000      -0.445426       -12.1207
  56   2.0000      -0.443363       -12.0645
  57   2.0000      -0.439474       -11.9587
  58   2.0000      -0.427258       -11.6263
  59   2.0000      -0.426663       -11.6101
  60   2.0000      -0.421019       -11.4565
  61   2.0000      -0.412962       -11.2373
  62   2.0000      -0.407982       -11.1018
  63   2.0000      -0.365952        -9.9581
  64   2.0000      -0.332561        -9.0494
  65   2.0000      -0.324935        -8.8419
  66   2.0000      -0.284724        -7.7477
  67   0.0000       0.015129         0.4117
  68   0.0000       0.085146         2.3169
  69   0.0000       0.094546         2.5727
  70   0.0000       0.121118         3.2958
  71   0.0000       0.137097         3.7306

MULLIKEN ATOMIC CHARGES
-----------------------
   0 S :    0.102367
   1 C :   -0.128498
   2 C :   -0.032528
   3 C :   -0.012929
   4 C :   -0.128342
   5 H :    0.005362
   6 C :    0.074615
   7 H :    0.016388
   8 H :    0.000818
   9 C :   -0.058612
  10 H :    0.017930
  11 H :    0.042973
  12 C :   -0.052618
  13 H :    0.020258
  14 H :    0.035800
  15 H :    0.032824
  16 S :    0.077070
  17 C :   -0.074956
  18 C :   -0.032573
  19 C :   -0.087444
  20 C :   -0.072947
  21 H :    0.004435
  22 C :    0.069514
  23 H :   -0.007022
  24 H :    0.030948
  25 C :   -0.058705
  26 H :    0.019654
  27 H :    0.046305
  28 C :   -0.070834
  29 H :    0.020711
  30 H :    0.037570
  31 H :    0.050209
  32 H :    0.042219
  33 H :    0.070038
Sum of atomic charges:   -0.0000000

LOEWDIN ATOMIC CHARGES
----------------------
   0 S :    0.399423
   1 C :   -0.192816
   2 C :   -0.056086
   3 C :   -0.065910
   4 C :   -0.181200
   5 H :    0.032163
   6 C :   -0.031768
   7 H :    0.028733
   8 H :    0.025241
   9 C :   -0.044113
  10 H :    0.020641
  11 H :    0.029858
  12 C :   -0.062282
  13 H :    0.020383
  14 H :    0.027742
  15 H :    0.026993
  16 S :    0.392253
  17 C :   -0.196065
  18 C :   -0.071203
  19 C :   -0.056953
  20 C :   -0.177670
  21 H :    0.024240
  22 C :   -0.029492
  23 H :    0.020884
  24 H :    0.029597
  25 C :   -0.036986
  26 H :    0.018686
  27 H :    0.030168
  28 C :   -0.069244
  29 H :    0.017438
  30 H :    0.019780
  31 H :    0.041733
  32 H :    0.021370
  33 H :    0.044462

  Mayer bond orders larger than 0.100000
B(  0-S ,  1-C ) :   1.1288 B(  0-S ,  4-C ) :   1.1503 B(  1-C ,  2-C ) :   1.6105
B(  1-C , 32-H ) :   0.9771 B(  2-C ,  3-C ) :   1.2546 B(  2-C ,  6-C ) :   1.0010
B(  3-C ,  4-C ) :   1.5503 B(  3-C ,  5-H ) :   0.9841 B(  4-C , 20-C ) :   1.0962
B(  6-C ,  7-H ) :   0.9371 B(  6-C ,  8-H ) :   0.9327 B(  6-C ,  9-C ) :   1.0692
B(  9-C , 10-H ) :   0.9507 B(  9-C , 11-H ) :   0.9605 B(  9-C , 12-C ) :   1.0769
B( 12-C , 13-H ) :   0.9764 B( 12-C , 14-H ) :   0.9751 B( 12-C , 15-H ) :   0.9726
B( 16-S , 17-C ) :   1.1414 B( 16-S , 20-C ) :   1.1139 B( 17-C , 18-C ) :   1.6508
B( 17-C , 33-H ) :   0.9568 B( 18-C , 19-C ) :   1.2158 B( 18-C , 21-H ) :   0.9908
B( 19-C , 20-C ) :   1.6050 B( 19-C , 22-C ) :   1.0601 B( 22-C , 23-H ) :   0.9237
B( 22-C , 24-H ) :   0.9278 B( 22-C , 25-C ) :   1.0650 B( 25-C , 26-H ) :   0.9575
B( 25-C , 27-H ) :   0.9601 B( 25-C , 28-C ) :   1.0590 B( 28-C , 29-H ) :   0.9766
B( 28-C , 30-H ) :   0.9759 B( 28-C , 31-H ) :   0.9734

Dispersion correction           -0.014262200
FINAL SINGLE POINT ENERGY     -1339.865579283191

DIPOLE MOMENT
-------------
                                X             Y             Z
Electronic contribution:    -14.11383       5.28298      23.81280
Nuclear contribution   :     14.65449      -5.63232     -24.27181
                        -----------------------------------------
Total Dipole Moment    :      0.54066      -0.34934      -0.45902
                        -----------------------------------------
Magnitude (a.u.)       :      0.79060
Magnitude (Debye)      :      2.00954

Rotational constants in cm-1:     0.022087     0.007725     0.006161
Rotational constants in MHz :   662.141266   231.604002   184.696565

                             ****ORCA TERMINATED NORMALLY****
TOTAL RUN TIME: 0 days 0 hours 0 minutes 21 seconds 630 msec
