                         Program Version 4.2.1 -  RELEASE  -
|  1> ! wB97X-D3 SP def2-SVP
|  2> %pal
|  3> nprocs 24
|  4> end
|  5>
|  6> * xyz 0 1
|  7> S 	 -104.371 	 67.3074 	 -7.32756
|  8> C 	 -104.552 	 68.3223 	 -8.73533
|  9> C 	 -104.757 	 67.5125 	 -9.80018
| 10> C 	 -104.844 	 66.0932 	 -9.54525
| 11> C 	 -104.526 	 65.7744 	 -8.24663
| 12> H 	 -105.165 	 65.3765 	 -10.2515
| 13> C 	 -104.999 	 67.9805 	 -11.2224
| 14> H 	 -105.488 	 68.9556 	 -11.1637
| 15> H 	 -105.721 	 67.3105 	 -11.6483
| 16> C 	 -103.811 	 68.0555 	 -12.1874
| 17> H 	 -103.009 	 68.6118 	 -11.6789
| 18> H 	 -103.53 	 66.9847 	 -12.3382
| 19> C 	 -104.005 	 68.6171 	 -13.6211
| 20> H 	 -104.139 	 69.6664 	 -13.538
| 21> H 	 -103.154 	 68.3439 	 -14.2266
| 22> H 	 -104.978 	 68.1202 	 -13.9641
| 23> S 	 -104.788 	 63.0785 	 -8.6437
| 24> C 	 -103.973 	 61.9532 	 -7.6208
| 25> C 	 -103.572 	 62.5841 	 -6.46655
| 26> C 	 -103.764 	 63.9885 	 -6.48531
| 27> C 	 -104.302 	 64.4349 	 -7.68363
| 28> H 	 -103.167 	 61.9655 	 -5.76567
| 29> C 	 -103.348 	 64.8182 	 -5.29329
| 30> H 	 -103.8 	 65.791 	 -5.44158
| 31> H 	 -102.264 	 64.9303 	 -5.50525
| 32> C 	 -103.641 	 64.4075 	 -3.85102
| 33> H 	 -103.46 	 65.1076 	 -3.0809
| 34> H 	 -103.026 	 63.4555 	 -3.66748
| 35> C 	 -105.114 	 63.975 	 -3.70937
| 36> H 	 -105.359 	 63.0283 	 -4.30709
| 37> H 	 -105.933 	 64.6854 	 -3.95329
| 38> H 	 -105.286 	 63.685 	 -2.67009
| 39> H 	 -104.545 	 69.3871 	 -8.71586
| 40> H 	 -103.853 	 60.8736 	 -7.93641
| 41> *
| 42>
| 43>                          ****END OF INPUT****

CARTESIAN COORDINATES (ANGSTROEM)
---------------------------------
  S    -104.371000   67.307400   -7.327560
  C    -104.552000   68.322300   -8.735330
  C    -104.757000   67.512500   -9.800180
  C    -104.844000   66.093200   -9.545250
  C    -104.526000   65.774400   -8.246630
  H    -105.165000   65.376500  -10.251500
  C    -104.999000   67.980500  -11.222400
  H    -105.488000   68.955600  -11.163700
  H    -105.721000   67.310500  -11.648300
  C    -103.811000   68.055500  -12.187400
  H    -103.009000   68.611800  -11.678900
  H    -103.530000   66.984700  -12.338200
  C    -104.005000   68.617100  -13.621100
  H    -104.139000   69.666400  -13.538000
  H    -103.154000   68.343900  -14.226600
  H    -104.978000   68.120200  -13.964100
  S    -104.788000   63.078500   -8.643700
  C    -103.973000   61.953200   -7.620800
  C    -103.572000   62.584100   -6.466550
  C    -103.764000   63.988500   -6.485310
  C    -104.302000   64.434900   -7.683630
  H    -103.167000   61.965500   -5.765670
  C    -103.348000   64.818200   -5.293290
  H    -103.800000   65.791000   -5.441580
  H    -102.264000   64.930300   -5.505250
  C    -103.641000   64.407500   -3.851020
  H    -103.460000   65.107600   -3.080900
  H    -103.026000   63.455500   -3.667480
  C    -105.114000   63.975000   -3.709370
  H    -105.359000   63.028300   -4.307090
  H    -105.933000   64.685400   -3.953290
  H    -105.286000   63.685000   -2.670090
  H    -104.545000   69.387100   -8.715860
  H    -103.853000   60.873600   -7.936410

 Total Charge           Charge          ....    0
 Multiplicity           Mult            ....    1
 Number of Electrons    NEL             ....  134
 Basis Dimension        Dim             ....  322

ORBITAL ENERGIES
----------------

  NO   OCC          E(Eh)            E(eV)
   0   2.0000     -88.963642     -2420.8238
   1   2.0000     -88.963349     -2420.8158
   2   2.0000     -10.337413      -281.2953
   3   2.0000     -10.329277      -281.0739
   4   2.0000     -10.321776      -280.8698
   5   2.0000     -10.311381      -280.5870
   6   2.0000     -10.306236      -280.4469
   7   2.0000     -10.298412      -280.2340
   8   2.0000     -10.294673      -280.1323
   9   2.0000     -10.290850      -280.0283
  10   2.0000     -10.290153      -280.0093
  11   2.0000     -10.287546      -279.9384
  12   2.0000     -10.285543      -279.8839
  13   2.0000     -10.285298      -279.8772
  14   2.0000     -10.281895      -279.7846
  15   2.0000     -10.280090      -279.7355
  16   2.0000      -8.079388      -219.8513
  17   2.0000      -8.077139      -219.7901
  18   2.0000      -6.037948      -164.3009
  19   2.0000      -6.035984      -164.2475
  20   2.0000      -6.033760      -164.1870
  21   2.0000      -6.031752      -164.1323
  22   2.0000      -6.030063      -164.0864
  23   2.0000      -6.027612      -164.0197
  24   2.0000      -1.011341       -27.5200
  25   2.0000      -0.988446       -26.8970
  26   2.0000      -0.910996       -24.7895
  27   2.0000      -0.906250       -24.6603
  28   2.0000      -0.874777       -23.8039
  29   2.0000      -0.851746       -23.1772
  30   2.0000      -0.842836       -22.9347
  31   2.0000      -0.820106       -22.3162
  32   2.0000      -0.780612       -21.2415
  33   2.0000      -0.772099       -21.0099
  34   2.0000      -0.710211       -19.3258
  35   2.0000      -0.694504       -18.8984
  36   2.0000      -0.688751       -18.7419
  37   2.0000      -0.668322       -18.1860
  38   2.0000      -0.640985       -17.4421
  39   2.0000      -0.620549       -16.8860
  40   2.0000      -0.594511       -16.1775
  41   2.0000      -0.573555       -15.6072
  42   2.0000      -0.562324       -15.3016
  43   2.0000      -0.554317       -15.0837
  44   2.0000      -0.550429       -14.9779
  45   2.0000      -0.525134       -14.2896
  46   2.0000      -0.522013       -14.2047
  47   2.0000      -0.519944       -14.1484
  48   2.0000      -0.505052       -13.7432
  49   2.0000      -0.500257       -13.6127
  50   2.0000      -0.493777       -13.4364
  51   2.0000      -0.482617       -13.1327
  52   2.0000      -0.472739       -12.8639
  53   2.0000      -0.465609       -12.6699
  54   2.0000      -0.457663       -12.4536
  55   2.0000      -0.448264       -12.1979
  56   2.0000      -0.441416       -12.0115
  57   2.0000      -0.431850       -11.7512
  58   2.0000      -0.431264       -11.7353
  59   2.0000      -0.421688       -11.4747
  60   2.0000      -0.416514       -11.3339
  61   2.0000      -0.409391       -11.1401
  62   2.0000      -0.397804       -10.8248
  63   2.0000      -0.365728        -9.9520
  64   2.0000      -0.329713        -8.9720
  65   2.0000      -0.326167        -8.8754
  66   2.0000      -0.284048        -7.7293
  67   0.0000       0.018559         0.5050
  68   0.0000       0.089646         2.4394
  69   0.0000       0.115691         3.1481
  70   0.0000       0.117384         3.1942
  71   0.0000       0.133065         3.6209

MULLIKEN ATOMIC CHARGES
-----------------------
   0 S :    0.062395
   1 C :   -0.093158
   2 C :   -0.073673
   3 C :   -0.009527
   4 C :   -0.080308
   5 H :    0.008732
   6 C :    0.063474
   7 H :    0.011078
   8 H :    0.010241
   9 C :   -0.100101
  10 H :    0.028904
  11 H :    0.026115
  12 C :   -0.033715
  13 H :    0.030530
  14 H :    0.049297
  15 H :    0.034972
  16 S :    0.087662
  17 C :   -0.117749
  18 C :   -0.007815
  19 C :   -0.073571
  20 C :   -0.119375
  21 H :   -0.018229
  22 C :    0.070263
  23 H :    0.024407
  24 H :    0.052857
  25 C :   -0.047399
  26 H :    0.038891
  27 H :    0.036866
  28 C :   -0.102387
  29 H :    0.044186
  30 H :    0.043805
  31 H :    0.027448
  32 H :    0.040676
  33 H :    0.084208
Sum of atomic charges:   -0.0000000

LOEWDIN ATOMIC CHARGES
----------------------
   0 S :    0.390633
   1 C :   -0.190491
   2 C :   -0.060281
   3 C :   -0.069744
   4 C :   -0.161964
   5 H :    0.021433
   6 C :   -0.036097
   7 H :    0.024103
   8 H :    0.023937
   9 C :   -0.046063
  10 H :    0.021003
  11 H :    0.025070
  12 C :   -0.060751
  13 H :    0.018082
  14 H :    0.029570
  15 H :    0.033386
  16 S :    0.419614
  17 C :   -0.190115
  18 C :   -0.066579
  19 C :   -0.054286
  20 C :   -0.199182
  21 H :    0.016670
  22 C :   -0.041886
  23 H :    0.012659
  24 H :    0.042747
  25 C :   -0.036460
  26 H :    0.025528
  27 H :    0.032282
  28 C :   -0.079244
  29 H :    0.033130
  30 H :    0.028097
  31 H :    0.022612
  32 H :    0.028557
  33 H :    0.044033

  Mayer bond orders larger than 0.100000
B(  0-S ,  1-C ) :   1.1067 B(  0-S ,  4-C ) :   1.1285 B(  1-C ,  2-C ) :   1.6325
B(  1-C , 32-H ) :   0.9784 B(  2-C ,  3-C ) :   1.2300 B(  2-C ,  6-C ) :   1.0288
B(  3-C ,  4-C ) :   1.5699 B(  3-C ,  5-H ) :   0.9926 B(  4-C , 20-C ) :   1.0904
B(  6-C ,  7-H ) :   0.9408 B(  6-C ,  8-H ) :   0.9347 B(  6-C ,  9-C ) :   1.0656
B(  9-C , 10-H ) :   0.9569 B(  9-C , 11-H ) :   0.9557 B(  9-C , 12-C ) :   1.0761
B( 12-C , 13-H ) :   0.9772 B( 12-C , 14-H ) :   0.9747 B( 12-C , 15-H ) :   0.9744
B( 16-S , 17-C ) :   1.1666 B( 16-S , 20-C ) :   1.1460 B( 17-C , 18-C ) :   1.5865
B( 17-C , 33-H ) :   0.9619 B( 18-C , 19-C ) :   1.2302 B( 18-C , 21-H ) :   1.0166
B( 19-C , 20-C ) :   1.5642 B( 19-C , 22-C ) :   1.0220 B( 22-C , 23-H ) :   0.9287
B( 22-C , 24-H ) :   0.9286 B( 22-C , 25-C ) :   1.0730 B( 25-C , 26-H ) :   0.9596
B( 25-C , 27-H ) :   0.9477 B( 25-C , 28-C ) :   1.0780 B( 28-C , 29-H ) :   0.9695
B( 28-C , 30-H ) :   0.9763 B( 28-C , 31-H ) :   0.9745

Dispersion correction           -0.013874368
FINAL SINGLE POINT ENERGY     -1339.869274570758

DIPOLE MOMENT
-------------
                                X             Y             Z
Electronic contribution:     -1.62342      -6.53726       3.17782
Nuclear contribution   :      1.74553       6.45227      -3.16497
                        -----------------------------------------
Total Dipole Moment    :      0.12211      -0.08498       0.01285
                        -----------------------------------------
Magnitude (a.u.)       :      0.14933
Magnitude (Debye)      :      0.37956

Rotational constants in cm-1:     0.025972     0.007131     0.005905
Rotational constants in MHz :   778.620430   213.788406   177.021871

                             ****ORCA TERMINATED NORMALLY****
TOTAL RUN TIME: 0 days 0 hours 0 minutes 21 seconds 102 msec
