                         Program Version 4.2.1 -  RELEASE  -
|  1> ! wB97X-D3 SP def2-SVP
|  2> %pal
|  3> nprocs 24
|  4> end
|  5>
|  6> * xyz 0 1
|  7> S 	 -57.0206 	 21.552 	 -99.5493
|  8> C 	 -58.4195 	 22.4167 	 -100.324
|  9> C 	 -59.3907 	 21.5773 	 -100.764
| 10> C 	 -59.1547 	 20.2633 	 -100.263
| 11> C 	 -57.9453 	 20.0794 	 -99.5635
| 12> H 	 -59.8086 	 19.4168 	 -100.423
| 13> C 	 -60.6748 	 22.1453 	 -101.357
| 14> H 	 -61.2489 	 21.3773 	 -101.869
| 15> H 	 -60.4631 	 22.9656 	 -102.001
| 16> C 	 -61.6089 	 22.7291 	 -100.336
| 17> H 	 -61.6974 	 21.9956 	 -99.5115
| 18> H 	 -61.2231 	 23.5677 	 -99.9001
| 19> C 	 -62.9982 	 23.1905 	 -100.675
| 20> H 	 -63.0368 	 24.1392 	 -101.036
| 21> H 	 -63.4317 	 22.5194 	 -101.462
| 22> H 	 -63.5866 	 23.1712 	 -99.7849
| 23> S 	 -56.4385 	 18.8994 	 -97.4457
| 24> C 	 -56.2415 	 17.1766 	 -97.4907
| 25> C 	 -57.1695 	 16.62 	 -98.2988
| 26> C 	 -57.8993 	 17.4725 	 -99.1401
| 27> C 	 -57.4522 	 18.7943 	 -98.9429
| 28> H 	 -57.354 	 15.5186 	 -98.199
| 29> C 	 -58.7032 	 16.96 	 -100.366
| 30> H 	 -58.1862 	 16.0764 	 -100.742
| 31> H 	 -58.6279 	 17.6487 	 -101.262
| 32> C 	 -60.1143 	 16.6773 	 -100.016
| 33> H 	 -60.5464 	 17.6236 	 -99.6573
| 34> H 	 -60.03 	 15.9239 	 -99.3422
| 35> C 	 -60.8851 	 16.1507 	 -101.34
| 36> H 	 -61.9707 	 16.0131 	 -101.116
| 37> H 	 -60.4942 	 15.1386 	 -101.677
| 38> H 	 -60.7294 	 16.8645 	 -102.149
| 39> H 	 -58.4013 	 23.4955 	 -100.427
| 40> H 	 -55.7953 	 16.5482 	 -96.7343
| 41> *
| 42>
| 43>                          ****END OF INPUT****

CARTESIAN COORDINATES (ANGSTROEM)
---------------------------------
  S    -57.020600   21.552000  -99.549300
  C    -58.419500   22.416700  -100.324000
  C    -59.390700   21.577300  -100.764000
  C    -59.154700   20.263300  -100.263000
  C    -57.945300   20.079400  -99.563500
  H    -59.808600   19.416800  -100.423000
  C    -60.674800   22.145300  -101.357000
  H    -61.248900   21.377300  -101.869000
  H    -60.463100   22.965600  -102.001000
  C    -61.608900   22.729100  -100.336000
  H    -61.697400   21.995600  -99.511500
  H    -61.223100   23.567700  -99.900100
  C    -62.998200   23.190500  -100.675000
  H    -63.036800   24.139200  -101.036000
  H    -63.431700   22.519400  -101.462000
  H    -63.586600   23.171200  -99.784900
  S    -56.438500   18.899400  -97.445700
  C    -56.241500   17.176600  -97.490700
  C    -57.169500   16.620000  -98.298800
  C    -57.899300   17.472500  -99.140100
  C    -57.452200   18.794300  -98.942900
  H    -57.354000   15.518600  -98.199000
  C    -58.703200   16.960000  -100.366000
  H    -58.186200   16.076400  -100.742000
  H    -58.627900   17.648700  -101.262000
  C    -60.114300   16.677300  -100.016000
  H    -60.546400   17.623600  -99.657300
  H    -60.030000   15.923900  -99.342200
  C    -60.885100   16.150700  -101.340000
  H    -61.970700   16.013100  -101.116000
  H    -60.494200   15.138600  -101.677000
  H    -60.729400   16.864500  -102.149000
  H    -58.401300   23.495500  -100.427000
  H    -55.795300   16.548200  -96.734300

 Total Charge           Charge          ....    0
 Multiplicity           Mult            ....    1
 Number of Electrons    NEL             ....  134
 Basis Dimension        Dim             ....  322

ORBITAL ENERGIES
----------------

  NO   OCC          E(Eh)            E(eV)
   0   2.0000     -88.967917     -2420.9401
   1   2.0000     -88.967461     -2420.9277
   2   2.0000     -10.339753      -281.3590
   3   2.0000     -10.337171      -281.2887
   4   2.0000     -10.316608      -280.7292
   5   2.0000     -10.311621      -280.5935
   6   2.0000     -10.305981      -280.4400
   7   2.0000     -10.303622      -280.3758
   8   2.0000     -10.298244      -280.2295
   9   2.0000     -10.295579      -280.1570
  10   2.0000     -10.293223      -280.0928
  11   2.0000     -10.292475      -280.0725
  12   2.0000     -10.291989      -280.0593
  13   2.0000     -10.285904      -279.8937
  14   2.0000     -10.272834      -279.5380
  15   2.0000     -10.269955      -279.4597
  16   2.0000      -8.081938      -219.9207
  17   2.0000      -8.081408      -219.9063
  18   2.0000      -6.040439      -164.3687
  19   2.0000      -6.039981      -164.3562
  20   2.0000      -6.036837      -164.2707
  21   2.0000      -6.036150      -164.2520
  22   2.0000      -6.032439      -164.1510
  23   2.0000      -6.032024      -164.1397
  24   2.0000      -1.002863       -27.2893
  25   2.0000      -0.984692       -26.7948
  26   2.0000      -0.921116       -25.0649
  27   2.0000      -0.915668       -24.9166
  28   2.0000      -0.870373       -23.6841
  29   2.0000      -0.848773       -23.0963
  30   2.0000      -0.842449       -22.9242
  31   2.0000      -0.813443       -22.1349
  32   2.0000      -0.788560       -21.4578
  33   2.0000      -0.774543       -21.0764
  34   2.0000      -0.706291       -19.2192
  35   2.0000      -0.699892       -19.0450
  36   2.0000      -0.696353       -18.9487
  37   2.0000      -0.657156       -17.8821
  38   2.0000      -0.639027       -17.3888
  39   2.0000      -0.620854       -16.8943
  40   2.0000      -0.598001       -16.2724
  41   2.0000      -0.583183       -15.8692
  42   2.0000      -0.574376       -15.6296
  43   2.0000      -0.564424       -15.3587
  44   2.0000      -0.526226       -14.3193
  45   2.0000      -0.522668       -14.2225
  46   2.0000      -0.514871       -14.0103
  47   2.0000      -0.512061       -13.9339
  48   2.0000      -0.507149       -13.8002
  49   2.0000      -0.498700       -13.5703
  50   2.0000      -0.487701       -13.2710
  51   2.0000      -0.482381       -13.1262
  52   2.0000      -0.473100       -12.8737
  53   2.0000      -0.467598       -12.7240
  54   2.0000      -0.460798       -12.5389
  55   2.0000      -0.453052       -12.3282
  56   2.0000      -0.444895       -12.1062
  57   2.0000      -0.442431       -12.0392
  58   2.0000      -0.433553       -11.7976
  59   2.0000      -0.427306       -11.6276
  60   2.0000      -0.418044       -11.3755
  61   2.0000      -0.417208       -11.3528
  62   2.0000      -0.411946       -11.2096
  63   2.0000      -0.354508        -9.6467
  64   2.0000      -0.334822        -9.1110
  65   2.0000      -0.333339        -9.0706
  66   2.0000      -0.286309        -7.7909
  67   0.0000       0.015400         0.4191
  68   0.0000       0.079835         2.1724
  69   0.0000       0.095396         2.5959
  70   0.0000       0.112917         3.0726
  71   0.0000       0.129100         3.5130

MULLIKEN ATOMIC CHARGES
-----------------------
   0 S :    0.099809
   1 C :   -0.151876
   2 C :   -0.032152
   3 C :    0.001455
   4 C :   -0.120747
   5 H :   -0.018393
   6 C :    0.111654
   7 H :    0.015622
   8 H :    0.017545
   9 C :   -0.086937
  10 H :    0.022870
  11 H :   -0.003903
  12 C :    0.007917
  13 H :    0.007882
  14 H :    0.021674
  15 H :    0.030398
  16 S :    0.092581
  17 C :   -0.059554
  18 C :   -0.072619
  19 C :   -0.003213
  20 C :   -0.134621
  21 H :    0.031575
  22 C :   -0.017900
  23 H :    0.024420
  24 H :    0.039881
  25 C :   -0.028548
  26 H :    0.044864
  27 H :    0.007267
  28 C :   -0.075280
  29 H :    0.049107
  30 H :    0.040129
  31 H :    0.035214
  32 H :    0.050411
  33 H :    0.053467
Sum of atomic charges:    0.0000000

LOEWDIN ATOMIC CHARGES
----------------------
   0 S :    0.380650
   1 C :   -0.164511
   2 C :   -0.058887
   3 C :   -0.067295
   4 C :   -0.190016
   5 H :    0.024945
   6 C :   -0.021844
   7 H :    0.028305
   8 H :    0.028355
   9 C :   -0.042735
  10 H :    0.026353
  11 H :    0.010458
  12 C :   -0.051234
  13 H :    0.009136
  14 H :    0.027025
  15 H :    0.030367
  16 S :    0.383790
  17 C :   -0.194380
  18 C :   -0.077199
  19 C :   -0.058699
  20 C :   -0.165107
  21 H :    0.036954
  22 C :   -0.033967
  23 H :    0.028331
  24 H :    0.032168
  25 C :   -0.029242
  26 H :    0.026062
  27 H :    0.011322
  28 C :   -0.069115
  29 H :    0.029484
  30 H :    0.031212
  31 H :    0.022123
  32 H :    0.024634
  33 H :    0.032558

  Mayer bond orders larger than 0.100000
B(  0-S ,  1-C ) :   1.1254 B(  0-S ,  4-C ) :   1.1499 B(  1-C ,  2-C ) :   1.6033
B(  1-C , 32-H ) :   0.9711 B(  2-C ,  3-C ) :   1.2386 B(  2-C ,  6-C ) :   1.0470
B(  3-C ,  4-C ) :   1.5696 B(  3-C ,  5-H ) :   0.9860 B(  4-C , 20-C ) :   1.0523
B(  6-C ,  7-H ) :   0.9319 B(  6-C ,  8-H ) :   0.9338 B(  6-C ,  9-C ) :   1.0746
B(  9-C , 10-H ) :   0.9573 B(  9-C , 11-H ) :   0.9488 B(  9-C , 12-C ) :   1.0881
B( 12-C , 13-H ) :   0.9742 B( 12-C , 14-H ) :   0.9731 B( 12-C , 15-H ) :   0.9705
B( 16-S , 17-C ) :   1.1285 B( 16-S , 20-C ) :   1.1452 B( 17-C , 18-C ) :   1.6448
B( 17-C , 33-H ) :   0.9608 B( 18-C , 19-C ) :   1.2563 B( 18-C , 21-H ) :   0.9721
B( 19-C , 20-C ) :   1.5801 B( 19-C , 22-C ) :   1.0079 B( 22-C , 23-H ) :   0.9487
B( 22-C , 24-H ) :   0.9499 B( 22-C , 25-C ) :   1.0448 B( 25-C , 26-H ) :   0.9537
B( 25-C , 27-H ) :   0.9539 B( 25-C , 28-C ) :   1.0713 B( 28-C , 29-H ) :   0.9778
B( 28-C , 30-H ) :   0.9751 B( 28-C , 31-H ) :   0.9766

Dispersion correction           -0.013778789
FINAL SINGLE POINT ENERGY     -1339.847425958661

DIPOLE MOMENT
-------------
                                X             Y             Z
Electronic contribution:     28.54545       3.21754      13.62606
Nuclear contribution   :    -29.21051      -3.43324     -13.81634
                        -----------------------------------------
Total Dipole Moment    :     -0.66505      -0.21570      -0.19028
                        -----------------------------------------
Magnitude (a.u.)       :      0.72459
Magnitude (Debye)      :      1.84176

Rotational constants in cm-1:     0.017200     0.008780     0.006326
Rotational constants in MHz :   515.635438   263.208623   189.654631

                             ****ORCA TERMINATED NORMALLY****
TOTAL RUN TIME: 0 days 0 hours 0 minutes 21 seconds 406 msec
