                         Program Version 4.2.1 -  RELEASE  -
|  1> ! wB97X-D3 SP def2-SVP
|  2> %pal
|  3> nprocs 24
|  4> end
|  5>
|  6> * xyz 0 1
|  7> S 	 -46.335 	 2.59173 	 -16.9475
|  8> C 	 -46.7439 	 1.39602 	 -18.2104
|  9> C 	 -48.1125 	 1.58242 	 -18.5481
| 10> C 	 -48.7285 	 2.68308 	 -17.8729
| 11> C 	 -47.8489 	 3.36624 	 -17.0251
| 12> H 	 -49.7199 	 3.04761 	 -18.0143
| 13> C 	 -48.7765 	 0.703006 	 -19.5318
| 14> H 	 -48.0452 	 -0.107654 	 -19.7581
| 15> H 	 -48.9453 	 1.24364 	 -20.447
| 16> C 	 -50.1394 	 0.108056 	 -19.1594
| 17> H 	 -49.9349 	 -0.600181 	 -18.3973
| 18> H 	 -50.787 	 0.875076 	 -18.7376
| 19> C 	 -50.7756 	 -0.646033 	 -20.4149
| 20> H 	 -50.0154 	 -1.22425 	 -20.9345
| 21> H 	 -51.6336 	 -1.26134 	 -20.1401
| 22> H 	 -51.16 	 0.0903472 	 -21.1144
| 23> S 	 -47.9326 	 6.0564 	 -16.5972
| 24> C 	 -48.2455 	 6.65005 	 -14.9509
| 25> C 	 -48.4831 	 5.61578 	 -14.0618
| 26> C 	 -48.4351 	 4.29895 	 -14.6425
| 27> C 	 -48.1614 	 4.40054 	 -16.0062
| 28> H 	 -48.7666 	 5.89463 	 -13.1044
| 29> C 	 -48.5945 	 2.96597 	 -13.8573
| 30> H 	 -47.571 	 2.7045 	 -13.4503
| 31> H 	 -48.828 	 2.13446 	 -14.5409
| 32> C 	 -49.642 	 2.98173 	 -12.7551
| 33> H 	 -49.4549 	 3.62478 	 -11.9452
| 34> H 	 -49.4905 	 2.08718 	 -12.2361
| 35> C 	 -51.0735 	 3.2836 	 -13.2974
| 36> H 	 -51.0784 	 4.29171 	 -13.6747
| 37> H 	 -51.6859 	 3.38486 	 -12.4431
| 38> H 	 -51.5804 	 2.5068 	 -13.9269
| 39> H 	 -46.1128 	 0.616706 	 -18.5892
| 40> H 	 -48.2771 	 7.68176 	 -14.6652
| 41> *
| 42>
| 43>                          ****END OF INPUT****

CARTESIAN COORDINATES (ANGSTROEM)
---------------------------------
  S    -46.335000    2.591730  -16.947500
  C    -46.743900    1.396020  -18.210400
  C    -48.112500    1.582420  -18.548100
  C    -48.728500    2.683080  -17.872900
  C    -47.848900    3.366240  -17.025100
  H    -49.719900    3.047610  -18.014300
  C    -48.776500    0.703006  -19.531800
  H    -48.045200   -0.107654  -19.758100
  H    -48.945300    1.243640  -20.447000
  C    -50.139400    0.108056  -19.159400
  H    -49.934900   -0.600181  -18.397300
  H    -50.787000    0.875076  -18.737600
  C    -50.775600   -0.646033  -20.414900
  H    -50.015400   -1.224250  -20.934500
  H    -51.633600   -1.261340  -20.140100
  H    -51.160000    0.090347  -21.114400
  S    -47.932600    6.056400  -16.597200
  C    -48.245500    6.650050  -14.950900
  C    -48.483100    5.615780  -14.061800
  C    -48.435100    4.298950  -14.642500
  C    -48.161400    4.400540  -16.006200
  H    -48.766600    5.894630  -13.104400
  C    -48.594500    2.965970  -13.857300
  H    -47.571000    2.704500  -13.450300
  H    -48.828000    2.134460  -14.540900
  C    -49.642000    2.981730  -12.755100
  H    -49.454900    3.624780  -11.945200
  H    -49.490500    2.087180  -12.236100
  C    -51.073500    3.283600  -13.297400
  H    -51.078400    4.291710  -13.674700
  H    -51.685900    3.384860  -12.443100
  H    -51.580400    2.506800  -13.926900
  H    -46.112800    0.616706  -18.589200
  H    -48.277100    7.681760  -14.665200

 Total Charge           Charge          ....    0
 Multiplicity           Mult            ....    1
 Number of Electrons    NEL             ....  134
 Basis Dimension        Dim             ....  322

ORBITAL ENERGIES
----------------

  NO   OCC          E(Eh)            E(eV)
   0   2.0000     -88.964678     -2420.8520
   1   2.0000     -88.964584     -2420.8494
   2   2.0000     -10.327251      -281.0188
   3   2.0000     -10.326558      -280.9999
   4   2.0000     -10.317521      -280.7540
   5   2.0000     -10.316978      -280.7392
   6   2.0000     -10.309376      -280.5324
   7   2.0000     -10.302427      -280.3433
   8   2.0000     -10.298053      -280.2243
   9   2.0000     -10.293014      -280.0871
  10   2.0000     -10.291297      -280.0404
  11   2.0000     -10.287143      -279.9274
  12   2.0000     -10.286759      -279.9169
  13   2.0000     -10.282603      -279.8038
  14   2.0000     -10.279925      -279.7310
  15   2.0000     -10.276038      -279.6252
  16   2.0000      -8.079266      -219.8480
  17   2.0000      -8.078637      -219.8309
  18   2.0000      -6.037636      -164.2924
  19   2.0000      -6.037172      -164.2798
  20   2.0000      -6.033606      -164.1828
  21   2.0000      -6.033310      -164.1747
  22   2.0000      -6.030328      -164.0936
  23   2.0000      -6.029375      -164.0676
  24   2.0000      -1.000658       -27.2293
  25   2.0000      -0.976666       -26.5764
  26   2.0000      -0.911849       -24.8127
  27   2.0000      -0.906394       -24.6642
  28   2.0000      -0.862522       -23.4704
  29   2.0000      -0.843989       -22.9661
  30   2.0000      -0.840871       -22.8813
  31   2.0000      -0.813887       -22.1470
  32   2.0000      -0.783927       -21.3317
  33   2.0000      -0.770589       -20.9688
  34   2.0000      -0.713212       -19.4075
  35   2.0000      -0.704165       -19.1613
  36   2.0000      -0.689752       -18.7691
  37   2.0000      -0.658409       -17.9162
  38   2.0000      -0.641072       -17.4445
  39   2.0000      -0.617751       -16.8099
  40   2.0000      -0.596025       -16.2187
  41   2.0000      -0.571266       -15.5449
  42   2.0000      -0.561600       -15.2819
  43   2.0000      -0.551846       -15.0165
  44   2.0000      -0.537358       -14.6223
  45   2.0000      -0.523435       -14.2434
  46   2.0000      -0.520995       -14.1770
  47   2.0000      -0.505589       -13.7578
  48   2.0000      -0.502071       -13.6620
  49   2.0000      -0.491208       -13.3665
  50   2.0000      -0.484278       -13.1779
  51   2.0000      -0.480738       -13.0815
  52   2.0000      -0.470041       -12.7905
  53   2.0000      -0.464961       -12.6522
  54   2.0000      -0.453802       -12.3486
  55   2.0000      -0.449194       -12.2232
  56   2.0000      -0.446330       -12.1453
  57   2.0000      -0.435193       -11.8422
  58   2.0000      -0.431929       -11.7534
  59   2.0000      -0.429477       -11.6867
  60   2.0000      -0.425482       -11.5779
  61   2.0000      -0.415842       -11.3156
  62   2.0000      -0.414855       -11.2888
  63   2.0000      -0.333964        -9.0876
  64   2.0000      -0.328472        -8.9382
  65   2.0000      -0.315613        -8.5883
  66   2.0000      -0.309097        -8.4110
  67   0.0000       0.044842         1.2202
  68   0.0000       0.053173         1.4469
  69   0.0000       0.114857         3.1254
  70   0.0000       0.121036         3.2935
  71   0.0000       0.128134         3.4867

MULLIKEN ATOMIC CHARGES
-----------------------
   0 S :    0.118234
   1 C :   -0.124827
   2 C :   -0.085298
   3 C :    0.055520
   4 C :   -0.158708
   5 H :    0.004043
   6 C :    0.053697
   7 H :    0.017084
   8 H :    0.030715
   9 C :   -0.081305
  10 H :    0.024273
  11 H :    0.035338
  12 C :   -0.053340
  13 H :    0.034103
  14 H :    0.040227
  15 H :    0.031330
  16 S :    0.104948
  17 C :   -0.084723
  18 C :   -0.023951
  19 C :   -0.004848
  20 C :   -0.208787
  21 H :   -0.007931
  22 C :    0.066720
  23 H :    0.047190
  24 H :    0.036374
  25 C :   -0.041968
  26 H :    0.007814
  27 H :    0.005821
  28 C :   -0.032512
  29 H :    0.037125
  30 H :    0.012055
  31 H :    0.049490
  32 H :    0.046795
  33 H :    0.049298
Sum of atomic charges:    0.0000000

LOEWDIN ATOMIC CHARGES
----------------------
   0 S :    0.424695
   1 C :   -0.197198
   2 C :   -0.058443
   3 C :   -0.063921
   4 C :   -0.215388
   5 H :    0.027736
   6 C :   -0.038657
   7 H :    0.032046
   8 H :    0.029204
   9 C :   -0.032719
  10 H :    0.018533
  11 H :    0.022579
  12 C :   -0.062841
  13 H :    0.025246
  14 H :    0.027281
  15 H :    0.024428
  16 S :    0.387578
  17 C :   -0.170003
  18 C :   -0.065379
  19 C :   -0.049883
  20 C :   -0.198394
  21 H :    0.018633
  22 C :   -0.029828
  23 H :    0.040406
  24 H :    0.035518
  25 C :   -0.041509
  26 H :    0.018194
  27 H :    0.021109
  28 C :   -0.062991
  29 H :    0.028450
  30 H :    0.020798
  31 H :    0.033682
  32 H :    0.025851
  33 H :    0.025186

  Mayer bond orders larger than 0.100000
B(  0-S ,  1-C ) :   1.1413 B(  0-S ,  4-C ) :   1.1913 B(  1-C ,  2-C ) :   1.5675
B(  1-C ,  4-C ) :   0.1037 B(  1-C , 32-H ) :   0.9738 B(  2-C ,  3-C ) :   1.2532
B(  2-C ,  6-C ) :   1.0432 B(  3-C ,  4-C ) :   1.5538 B(  3-C ,  5-H ) :   1.0000
B(  4-C , 20-C ) :   0.9685 B(  6-C ,  7-H ) :   0.9374 B(  6-C ,  8-H ) :   0.9359
B(  6-C ,  9-C ) :   1.0552 B(  9-C , 10-H ) :   0.9586 B(  9-C , 11-H ) :   0.9595
B(  9-C , 12-C ) :   1.0718 B( 12-C , 13-H ) :   0.9762 B( 12-C , 14-H ) :   0.9772
B( 12-C , 15-H ) :   0.9771 B( 16-S , 17-C ) :   1.1397 B( 16-S , 20-C ) :   1.1504
B( 17-C , 18-C ) :   1.6419 B( 17-C , 33-H ) :   0.9686 B( 18-C , 19-C ) :   1.1979
B( 18-C , 21-H ) :   0.9975 B( 19-C , 20-C ) :   1.6292 B( 19-C , 22-C ) :   1.0241
B( 22-C , 23-H ) :   0.9340 B( 22-C , 24-H ) :   0.9372 B( 22-C , 25-C ) :   1.0815
B( 25-C , 26-H ) :   0.9475 B( 25-C , 27-H ) :   0.9471 B( 25-C , 28-C ) :   1.0729
B( 28-C , 29-H ) :   0.9695 B( 28-C , 30-H ) :   0.9705 B( 28-C , 31-H ) :   0.9770

Dispersion correction           -0.014239853
FINAL SINGLE POINT ENERGY     -1339.875521144411

DIPOLE MOMENT
-------------
                                X             Y             Z
Electronic contribution:     19.15913      18.11671      -1.13150
Nuclear contribution   :    -19.60803     -18.48055       1.41821
                        -----------------------------------------
Total Dipole Moment    :     -0.44890      -0.36384       0.28670
                        -----------------------------------------
Magnitude (a.u.)       :      0.64505
Magnitude (Debye)      :      1.63958

Rotational constants in cm-1:     0.018867     0.007902     0.006773
Rotational constants in MHz :   565.610014   236.892805   203.063747

                             ****ORCA TERMINATED NORMALLY****
TOTAL RUN TIME: 0 days 0 hours 0 minutes 21 seconds 171 msec
