                         Program Version 4.2.1 -  RELEASE  -
|  1> ! wB97X-D3 SP def2-SVP
|  2> %pal
|  3> nprocs 24
|  4> end
|  5>
|  6> * xyz 0 1
|  7> S 	 2.78463 	 -22.5064 	 -110.787
|  8> C 	 1.61276 	 -21.2496 	 -110.428
|  9> C 	 0.758634 	 -21.0988 	 -111.477
| 10> C 	 1.05762 	 -21.9837 	 -112.568
| 11> C 	 2.11472 	 -22.8637 	 -112.352
| 12> H 	 0.49235 	 -22.0624 	 -113.526
| 13> C 	 -0.300486 	 -20.0758 	 -111.63
| 14> H 	 0.107314 	 -19.0483 	 -111.637
| 15> H 	 -0.893688 	 -20.0352 	 -110.712
| 16> C 	 -1.35407 	 -20.3239 	 -112.723
| 17> H 	 -1.61807 	 -21.4052 	 -112.808
| 18> H 	 -2.3056 	 -19.8627 	 -112.41
| 19> C 	 -0.926034 	 -19.8084 	 -114.126
| 20> H 	 -1.50365 	 -20.3524 	 -114.853
| 21> H 	 -1.1012 	 -18.736 	 -114.274
| 22> H 	 0.172061 	 -19.9744 	 -114.316
| 23> S 	 2.33146 	 -25.5699 	 -112.647
| 24> C 	 3.27913 	 -26.1907 	 -114.048
| 25> C 	 3.65877 	 -25.205 	 -114.927
| 26> C 	 3.23987 	 -23.902 	 -114.413
| 27> C 	 2.60236 	 -23.965 	 -113.21
| 28> H 	 4.28 	 -25.4579 	 -115.824
| 29> C 	 3.51716 	 -22.6781 	 -115.255
| 30> H 	 2.95751 	 -21.8042 	 -114.89
| 31> H 	 3.17721 	 -22.7305 	 -116.288
| 32> C 	 4.99894 	 -22.2272 	 -115.311
| 33> H 	 5.03986 	 -21.3691 	 -116.027
| 34> H 	 5.73473 	 -22.8347 	 -115.813
| 35> C 	 5.57062 	 -21.7731 	 -113.984
| 36> H 	 6.61129 	 -21.8882 	 -113.801
| 37> H 	 5.22939 	 -22.3425 	 -113.139
| 38> H 	 5.20956 	 -20.7751 	 -113.769
| 39> H 	 1.49434 	 -20.8818 	 -109.461
| 40> H 	 3.45598 	 -27.2193 	 -114.246
| 41> *
| 42>
| 43>                          ****END OF INPUT****

CARTESIAN COORDINATES (ANGSTROEM)
---------------------------------
  S      2.784630  -22.506400  -110.787000
  C      1.612760  -21.249600  -110.428000
  C      0.758634  -21.098800  -111.477000
  C      1.057620  -21.983700  -112.568000
  C      2.114720  -22.863700  -112.352000
  H      0.492350  -22.062400  -113.526000
  C     -0.300486  -20.075800  -111.630000
  H      0.107314  -19.048300  -111.637000
  H     -0.893688  -20.035200  -110.712000
  C     -1.354070  -20.323900  -112.723000
  H     -1.618070  -21.405200  -112.808000
  H     -2.305600  -19.862700  -112.410000
  C     -0.926034  -19.808400  -114.126000
  H     -1.503650  -20.352400  -114.853000
  H     -1.101200  -18.736000  -114.274000
  H      0.172061  -19.974400  -114.316000
  S      2.331460  -25.569900  -112.647000
  C      3.279130  -26.190700  -114.048000
  C      3.658770  -25.205000  -114.927000
  C      3.239870  -23.902000  -114.413000
  C      2.602360  -23.965000  -113.210000
  H      4.280000  -25.457900  -115.824000
  C      3.517160  -22.678100  -115.255000
  H      2.957510  -21.804200  -114.890000
  H      3.177210  -22.730500  -116.288000
  C      4.998940  -22.227200  -115.311000
  H      5.039860  -21.369100  -116.027000
  H      5.734730  -22.834700  -115.813000
  C      5.570620  -21.773100  -113.984000
  H      6.611290  -21.888200  -113.801000
  H      5.229390  -22.342500  -113.139000
  H      5.209560  -20.775100  -113.769000
  H      1.494340  -20.881800  -109.461000
  H      3.455980  -27.219300  -114.246000

 Total Charge           Charge          ....    0
 Multiplicity           Mult            ....    1
 Number of Electrons    NEL             ....  134
 Basis Dimension        Dim             ....  322

ORBITAL ENERGIES
----------------

  NO   OCC          E(Eh)            E(eV)
   0   2.0000     -88.966506     -2420.9017
   1   2.0000     -88.962724     -2420.7988
   2   2.0000     -10.329748      -281.0867
   3   2.0000     -10.325925      -280.9827
   4   2.0000     -10.318748      -280.7874
   5   2.0000     -10.308423      -280.5065
   6   2.0000     -10.305134      -280.4170
   7   2.0000     -10.301145      -280.3084
   8   2.0000     -10.299086      -280.2524
   9   2.0000     -10.294923      -280.1391
  10   2.0000     -10.293096      -280.0894
  11   2.0000     -10.292296      -280.0676
  12   2.0000     -10.290918      -280.0301
  13   2.0000     -10.283601      -279.8310
  14   2.0000     -10.281597      -279.7765
  15   2.0000     -10.260431      -279.2005
  16   2.0000      -8.081092      -219.8977
  17   2.0000      -8.077503      -219.8000
  18   2.0000      -6.039718      -164.3491
  19   2.0000      -6.035984      -164.2475
  20   2.0000      -6.035757      -164.2413
  21   2.0000      -6.031828      -164.1344
  22   2.0000      -6.031591      -164.1279
  23   2.0000      -6.028454      -164.0426
  24   2.0000      -1.006454       -27.3870
  25   2.0000      -0.984771       -26.7970
  26   2.0000      -0.911996       -24.8167
  27   2.0000      -0.904305       -24.6074
  28   2.0000      -0.870233       -23.6802
  29   2.0000      -0.845268       -23.0009
  30   2.0000      -0.839916       -22.8553
  31   2.0000      -0.817913       -22.2565
  32   2.0000      -0.784574       -21.3493
  33   2.0000      -0.774759       -21.0823
  34   2.0000      -0.708394       -19.2764
  35   2.0000      -0.697515       -18.9803
  36   2.0000      -0.692818       -18.8525
  37   2.0000      -0.659717       -17.9518
  38   2.0000      -0.643185       -17.5020
  39   2.0000      -0.624455       -16.9923
  40   2.0000      -0.598415       -16.2837
  41   2.0000      -0.570370       -15.5206
  42   2.0000      -0.551795       -15.0151
  43   2.0000      -0.544749       -14.8234
  44   2.0000      -0.533253       -14.5106
  45   2.0000      -0.524974       -14.2853
  46   2.0000      -0.521446       -14.1893
  47   2.0000      -0.513521       -13.9736
  48   2.0000      -0.507115       -13.7993
  49   2.0000      -0.500032       -13.6066
  50   2.0000      -0.490182       -13.3385
  51   2.0000      -0.484783       -13.1916
  52   2.0000      -0.466585       -12.6964
  53   2.0000      -0.460709       -12.5365
  54   2.0000      -0.456379       -12.4187
  55   2.0000      -0.447555       -12.1786
  56   2.0000      -0.439459       -11.9583
  57   2.0000      -0.433457       -11.7950
  58   2.0000      -0.432982       -11.7820
  59   2.0000      -0.425021       -11.5654
  60   2.0000      -0.418131       -11.3779
  61   2.0000      -0.414219       -11.2715
  62   2.0000      -0.401178       -10.9166
  63   2.0000      -0.341077        -9.2812
  64   2.0000      -0.328062        -8.9270
  65   2.0000      -0.325208        -8.8494
  66   2.0000      -0.306249        -8.3335
  67   0.0000       0.038182         1.0390
  68   0.0000       0.065033         1.7696
  69   0.0000       0.109078         2.9682
  70   0.0000       0.121025         3.2933
  71   0.0000       0.126543         3.4434

MULLIKEN ATOMIC CHARGES
-----------------------
   0 S :    0.104946
   1 C :   -0.114271
   2 C :   -0.057274
   3 C :    0.018872
   4 C :   -0.169200
   5 H :    0.028886
   6 C :    0.064763
   7 H :    0.046001
   8 H :    0.018611
   9 C :   -0.111434
  10 H :    0.040280
  11 H :    0.032574
  12 C :   -0.065292
  13 H :    0.031397
  14 H :    0.038039
  15 H :    0.044827
  16 S :    0.113307
  17 C :   -0.085459
  18 C :   -0.038560
  19 C :   -0.010433
  20 C :   -0.170161
  21 H :    0.047669
  22 C :    0.076699
  23 H :    0.018631
  24 H :    0.030077
  25 C :   -0.086429
  26 H :    0.021859
  27 H :    0.016885
  28 C :   -0.016477
  29 H :    0.021065
  30 H :    0.010380
  31 H :    0.023766
  32 H :    0.031343
  33 H :    0.044113
Sum of atomic charges:    0.0000000

LOEWDIN ATOMIC CHARGES
----------------------
   0 S :    0.410765
   1 C :   -0.185525
   2 C :   -0.064848
   3 C :   -0.072207
   4 C :   -0.200020
   5 H :    0.038373
   6 C :   -0.041125
   7 H :    0.039492
   8 H :    0.034282
   9 C :   -0.046561
  10 H :    0.029563
  11 H :    0.027664
  12 C :   -0.072892
  13 H :    0.023404
  14 H :    0.026125
  15 H :    0.029179
  16 S :    0.396520
  17 C :   -0.160861
  18 C :   -0.066338
  19 C :   -0.052891
  20 C :   -0.211242
  21 H :    0.045915
  22 C :   -0.032168
  23 H :    0.031891
  24 H :    0.033964
  25 C :   -0.046508
  26 H :    0.027696
  27 H :    0.017913
  28 C :   -0.070351
  29 H :    0.023604
  30 H :    0.022127
  31 H :    0.025870
  32 H :    0.018001
  33 H :    0.021190

  Mayer bond orders larger than 0.100000
B(  0-S ,  1-C ) :   1.1399 B(  0-S ,  4-C ) :   1.1673 B(  1-C ,  2-C ) :   1.5994
B(  1-C , 32-H ) :   0.9832 B(  2-C ,  3-C ) :   1.2528 B(  2-C ,  6-C ) :   1.0230
B(  3-C ,  4-C ) :   1.5741 B(  3-C ,  5-H ) :   0.9785 B(  4-C , 20-C ) :   0.9977
B(  6-C ,  7-H ) :   0.9358 B(  6-C ,  8-H ) :   0.9313 B(  6-C ,  9-C ) :   1.0741
B(  9-C , 10-H ) :   0.9603 B(  9-C , 11-H ) :   0.9580 B(  9-C , 12-C ) :   1.0596
B( 12-C , 13-H ) :   0.9762 B( 12-C , 14-H ) :   0.9742 B( 12-C , 15-H ) :   0.9774
B( 16-S , 17-C ) :   1.1294 B( 16-S , 20-C ) :   1.1358 B( 17-C , 18-C ) :   1.6645
B( 17-C , 33-H ) :   0.9692 B( 18-C , 19-C ) :   1.1827 B( 18-C , 21-H ) :   0.9825
B( 19-C , 20-C ) :   1.6526 B( 19-C , 22-C ) :   1.0539 B( 22-C , 23-H ) :   0.9307
B( 22-C , 24-H ) :   0.9362 B( 22-C , 25-C ) :   1.0683 B( 25-C , 26-H ) :   0.9550
B( 25-C , 27-H ) :   0.9614 B( 25-C , 28-C ) :   1.0661 B( 28-C , 29-H ) :   0.9734
B( 28-C , 30-H ) :   0.9722 B( 28-C , 31-H ) :   0.9743

Dispersion correction           -0.015319540
FINAL SINGLE POINT ENERGY     -1339.879726098193

DIPOLE MOMENT
-------------
                                X             Y             Z
Electronic contribution:      3.18812     -19.18854      13.61633
Nuclear contribution   :     -3.44468      19.49982     -14.01608
                        -----------------------------------------
Total Dipole Moment    :     -0.25656       0.31128      -0.39975
                        -----------------------------------------
Magnitude (a.u.)       :      0.56791
Magnitude (Debye)      :      1.44351

Rotational constants in cm-1:     0.018308     0.009050     0.008325
Rotational constants in MHz :   548.851980   271.304877   249.566627

                             ****ORCA TERMINATED NORMALLY****
TOTAL RUN TIME: 0 days 0 hours 0 minutes 22 seconds 443 msec
