                         Program Version 4.2.1 -  RELEASE  -
|  1> ! wB97X-D3 SP def2-SVP
|  2> %pal
|  3> nprocs 24
|  4> end
|  5>
|  6> * xyz 0 1
|  7> S 	 -44.2603 	 -11.8586 	 14.3174
|  8> C 	 -45.1381 	 -12.1931 	 15.7847
|  9> C 	 -44.7949 	 -11.309 	 16.7666
| 10> C 	 -43.8406 	 -10.3148 	 16.2836
| 11> C 	 -43.4922 	 -10.4044 	 14.9792
| 12> H 	 -43.393 	 -9.61337 	 16.8926
| 13> C 	 -45.1921 	 -11.2501 	 18.227
| 14> H 	 -46.0084 	 -11.9471 	 18.4368
| 15> H 	 -45.4418 	 -10.1666 	 18.3181
| 16> C 	 -44.125 	 -11.5344 	 19.3181
| 17> H 	 -43.6532 	 -12.4468 	 19.0772
| 18> H 	 -43.356 	 -10.7377 	 19.1546
| 19> C 	 -44.5897 	 -11.5315 	 20.7639
| 20> H 	 -43.7378 	 -11.5688 	 21.3955
| 21> H 	 -45.0483 	 -10.5716 	 20.9135
| 22> H 	 -45.288 	 -12.3554 	 21.0501
| 23> S 	 -40.9174 	 -10.5552 	 13.9692
| 24> C 	 -40.4306 	 -9.17465 	 13.1159
| 25> C 	 -41.1709 	 -8.01094 	 13.3184
| 26> C 	 -42.3425 	 -8.29701 	 14.0695
| 27> C 	 -42.4613 	 -9.66307 	 14.2997
| 28> H 	 -41.0909 	 -7.11373 	 12.7586
| 29> C 	 -43.2101 	 -7.21603 	 14.6572
| 30> H 	 -44.1081 	 -7.68784 	 15.0924
| 31> H 	 -43.6616 	 -6.64983 	 13.8281
| 32> C 	 -42.6167 	 -6.22113 	 15.6343
| 33> H 	 -43.346 	 -5.39354 	 15.7041
| 34> H 	 -41.8065 	 -5.67022 	 15.2274
| 35> C 	 -42.1715 	 -6.86723 	 16.9263
| 36> H 	 -41.6585 	 -7.82487 	 16.7923
| 37> H 	 -43.0341 	 -7.1574 	 17.5596
| 38> H 	 -41.5135 	 -6.33128 	 17.5848
| 39> H 	 -45.6519 	 -13.0731 	 16.0506
| 40> H 	 -39.5531 	 -9.03716 	 12.4908
| 41> *
| 42>
| 43>                          ****END OF INPUT****

CARTESIAN COORDINATES (ANGSTROEM)
---------------------------------
  S    -44.260300  -11.858600   14.317400
  C    -45.138100  -12.193100   15.784700
  C    -44.794900  -11.309000   16.766600
  C    -43.840600  -10.314800   16.283600
  C    -43.492200  -10.404400   14.979200
  H    -43.393000   -9.613370   16.892600
  C    -45.192100  -11.250100   18.227000
  H    -46.008400  -11.947100   18.436800
  H    -45.441800  -10.166600   18.318100
  C    -44.125000  -11.534400   19.318100
  H    -43.653200  -12.446800   19.077200
  H    -43.356000  -10.737700   19.154600
  C    -44.589700  -11.531500   20.763900
  H    -43.737800  -11.568800   21.395500
  H    -45.048300  -10.571600   20.913500
  H    -45.288000  -12.355400   21.050100
  S    -40.917400  -10.555200   13.969200
  C    -40.430600   -9.174650   13.115900
  C    -41.170900   -8.010940   13.318400
  C    -42.342500   -8.297010   14.069500
  C    -42.461300   -9.663070   14.299700
  H    -41.090900   -7.113730   12.758600
  C    -43.210100   -7.216030   14.657200
  H    -44.108100   -7.687840   15.092400
  H    -43.661600   -6.649830   13.828100
  C    -42.616700   -6.221130   15.634300
  H    -43.346000   -5.393540   15.704100
  H    -41.806500   -5.670220   15.227400
  C    -42.171500   -6.867230   16.926300
  H    -41.658500   -7.824870   16.792300
  H    -43.034100   -7.157400   17.559600
  H    -41.513500   -6.331280   17.584800
  H    -45.651900  -13.073100   16.050600
  H    -39.553100   -9.037160   12.490800

 Total Charge           Charge          ....    0
 Multiplicity           Mult            ....    1
 Number of Electrons    NEL             ....  134
 Basis Dimension        Dim             ....  322

ORBITAL ENERGIES
----------------

  NO   OCC          E(Eh)            E(eV)
   0   2.0000     -88.970629     -2421.0139
   1   2.0000     -88.960181     -2420.7296
   2   2.0000     -10.325884      -280.9816
   3   2.0000     -10.323165      -280.9076
   4   2.0000     -10.315308      -280.6938
   5   2.0000     -10.308765      -280.5158
   6   2.0000     -10.303165      -280.3634
   7   2.0000     -10.298858      -280.2462
   8   2.0000     -10.294886      -280.1381
   9   2.0000     -10.292380      -280.0699
  10   2.0000     -10.288651      -279.9684
  11   2.0000     -10.288211      -279.9565
  12   2.0000     -10.285913      -279.8939
  13   2.0000     -10.284578      -279.8576
  14   2.0000     -10.279189      -279.7110
  15   2.0000     -10.277911      -279.6762
  16   2.0000      -8.085403      -220.0150
  17   2.0000      -8.074893      -219.7290
  18   2.0000      -6.043762      -164.4591
  19   2.0000      -6.040292      -164.3647
  20   2.0000      -6.035925      -164.2459
  21   2.0000      -6.033608      -164.1828
  22   2.0000      -6.029378      -164.0677
  23   2.0000      -6.025434      -163.9604
  24   2.0000      -1.006176       -27.3794
  25   2.0000      -0.984382       -26.7864
  26   2.0000      -0.915678       -24.9169
  27   2.0000      -0.910263       -24.7695
  28   2.0000      -0.872740       -23.7484
  29   2.0000      -0.856059       -23.2945
  30   2.0000      -0.846857       -23.0442
  31   2.0000      -0.812593       -22.1118
  32   2.0000      -0.787650       -21.4330
  33   2.0000      -0.774943       -21.0873
  34   2.0000      -0.715478       -19.4692
  35   2.0000      -0.698321       -19.0023
  36   2.0000      -0.696671       -18.9574
  37   2.0000      -0.660318       -17.9682
  38   2.0000      -0.643232       -17.5032
  39   2.0000      -0.622128       -16.9290
  40   2.0000      -0.596730       -16.2379
  41   2.0000      -0.572008       -15.5651
  42   2.0000      -0.562611       -15.3094
  43   2.0000      -0.558903       -15.2085
  44   2.0000      -0.542728       -14.7684
  45   2.0000      -0.524324       -14.2676
  46   2.0000      -0.512460       -13.9447
  47   2.0000      -0.510463       -13.8904
  48   2.0000      -0.507622       -13.8131
  49   2.0000      -0.498529       -13.5657
  50   2.0000      -0.493768       -13.4361
  51   2.0000      -0.484330       -13.1793
  52   2.0000      -0.471328       -12.8255
  53   2.0000      -0.462929       -12.5969
  54   2.0000      -0.458969       -12.4892
  55   2.0000      -0.453617       -12.3436
  56   2.0000      -0.450566       -12.2605
  57   2.0000      -0.441461       -12.0128
  58   2.0000      -0.434687       -11.8284
  59   2.0000      -0.424851       -11.5608
  60   2.0000      -0.418562       -11.3896
  61   2.0000      -0.415255       -11.2997
  62   2.0000      -0.411470       -11.1967
  63   2.0000      -0.339406        -9.2357
  64   2.0000      -0.333369        -9.0714
  65   2.0000      -0.318984        -8.6800
  66   2.0000      -0.298439        -8.1209
  67   0.0000       0.030887         0.8405
  68   0.0000       0.063646         1.7319
  69   0.0000       0.098352         2.6763
  70   0.0000       0.118830         3.2335
  71   0.0000       0.128341         3.4923

MULLIKEN ATOMIC CHARGES
-----------------------
   0 S :    0.093980
   1 C :   -0.088021
   2 C :   -0.086012
   3 C :    0.061959
   4 C :   -0.148123
   5 H :   -0.047161
   6 C :    0.047741
   7 H :    0.018201
   8 H :    0.036936
   9 C :   -0.084342
  10 H :    0.018762
  11 H :    0.024087
  12 C :   -0.016450
  13 H :    0.030735
  14 H :    0.020976
  15 H :    0.043658
  16 S :    0.132085
  17 C :   -0.064289
  18 C :   -0.042137
  19 C :   -0.032326
  20 C :   -0.180987
  21 H :    0.016521
  22 C :    0.044817
  23 H :    0.025332
  24 H :    0.024787
  25 C :   -0.013487
  26 H :    0.028711
  27 H :    0.012646
  28 C :   -0.062040
  29 H :    0.046270
  30 H :    0.028619
  31 H :    0.028309
  32 H :    0.029005
  33 H :    0.051239
Sum of atomic charges:   -0.0000000

LOEWDIN ATOMIC CHARGES
----------------------
   0 S :    0.389641
   1 C :   -0.193116
   2 C :   -0.063563
   3 C :   -0.049918
   4 C :   -0.192591
   5 H :    0.011603
   6 C :   -0.035413
   7 H :    0.026396
   8 H :    0.037753
   9 C :   -0.040626
  10 H :    0.014933
  11 H :    0.024979
  12 C :   -0.060237
  13 H :    0.025982
  14 H :    0.023782
  15 H :    0.031396
  16 S :    0.409472
  17 C :   -0.192390
  18 C :   -0.074216
  19 C :   -0.044048
  20 C :   -0.185207
  21 H :    0.027810
  22 C :   -0.035565
  23 H :    0.033284
  24 H :    0.034826
  25 C :   -0.038462
  26 H :    0.032611
  27 H :    0.019423
  28 C :   -0.071560
  29 H :    0.029900
  30 H :    0.025821
  31 H :    0.024189
  32 H :    0.024008
  33 H :    0.029101

  Mayer bond orders larger than 0.100000
B(  0-S ,  1-C ) :   1.1250 B(  0-S ,  4-C ) :   1.1200 B(  1-C ,  2-C ) :   1.6488
B(  1-C , 32-H ) :   0.9653 B(  2-C ,  3-C ) :   1.2056 B(  2-C ,  6-C ) :   1.0281
B(  3-C ,  4-C ) :   1.6061 B(  3-C ,  5-H ) :   1.0028 B(  4-C , 20-C ) :   1.0475
B(  6-C ,  7-H ) :   0.9436 B(  6-C ,  8-H ) :   0.9351 B(  6-C ,  9-C ) :   1.0640
B(  9-C , 10-H ) :   0.9550 B(  9-C , 11-H ) :   0.9515 B(  9-C , 12-C ) :   1.0899
B( 12-C , 13-H ) :   0.9709 B( 12-C , 14-H ) :   0.9721 B( 12-C , 15-H ) :   0.9739
B( 16-S , 17-C ) :   1.1623 B( 16-S , 20-C ) :   1.1225 B( 17-C , 18-C ) :   1.6247
B( 17-C , 33-H ) :   0.9593 B( 18-C , 19-C ) :   1.2257 B( 18-C , 21-H ) :   0.9879
B( 19-C , 20-C ) :   1.6179 B( 19-C , 22-C ) :   1.0592 B( 22-C , 23-H ) :   0.9299
B( 22-C , 24-H ) :   0.9210 B( 22-C , 25-C ) :   1.0819 B( 25-C , 26-H ) :   0.9495
B( 25-C , 27-H ) :   0.9506 B( 25-C , 28-C ) :   1.0656 B( 28-C , 29-H ) :   0.9712
B( 28-C , 30-H ) :   0.9697 B( 28-C , 31-H ) :   0.9711

Dispersion correction           -0.015022337
FINAL SINGLE POINT ENERGY     -1339.863178969717

DIPOLE MOMENT
-------------
                                X             Y             Z
Electronic contribution:      5.40376     -12.71166     -25.12742
Nuclear contribution   :     -5.30712      13.17228      25.68517
                        -----------------------------------------
Total Dipole Moment    :      0.09663       0.46062       0.55775
                        -----------------------------------------
Magnitude (a.u.)       :      0.72979
Magnitude (Debye)      :      1.85498

Rotational constants in cm-1:     0.018175     0.009004     0.007144
Rotational constants in MHz :   544.885947   269.934519   214.177541

                             ****ORCA TERMINATED NORMALLY****
TOTAL RUN TIME: 0 days 0 hours 0 minutes 22 seconds 142 msec
