                         Program Version 4.2.1 -  RELEASE  -
|  1> ! wB97X-D3 SP def2-SVP
|  2> %pal
|  3> nprocs 24
|  4> end
|  5>
|  6> * xyz 0 1
|  7> S 	 -82.1194 	 -43.4464 	 -87.0878
|  8> C 	 -80.5635 	 -43.1819 	 -86.3693
|  9> C 	 -79.7223 	 -44.297 	 -86.52
| 10> C 	 -80.4201 	 -45.3378 	 -87.1622
| 11> C 	 -81.7383 	 -45.0898 	 -87.4178
| 12> H 	 -79.985 	 -46.3031 	 -87.4559
| 13> C 	 -78.2121 	 -44.2994 	 -86.1965
| 14> H 	 -77.6484 	 -43.5238 	 -86.6901
| 15> H 	 -77.7707 	 -45.2642 	 -86.6456
| 16> C 	 -77.847 	 -44.3082 	 -84.709
| 17> H 	 -78.3003 	 -43.4618 	 -84.1967
| 18> H 	 -78.2081 	 -45.1944 	 -84.2924
| 19> C 	 -76.4141 	 -44.114 	 -84.5239
| 20> H 	 -75.8714 	 -44.9937 	 -84.9265
| 21> H 	 -76.0817 	 -43.2488 	 -85.0772
| 22> H 	 -76.1678 	 -43.9313 	 -83.4766
| 23> S 	 -84.1053 	 -45.4357 	 -88.8258
| 24> C 	 -84.7625 	 -46.9601 	 -89.0995
| 25> C 	 -83.9576 	 -47.9384 	 -88.5035
| 26> C 	 -82.8621 	 -47.4072 	 -87.7998
| 27> C 	 -82.7077 	 -46.0111 	 -87.9762
| 28> H 	 -84.3292 	 -48.9197 	 -88.6389
| 29> C 	 -82.0205 	 -48.3037 	 -86.9479
| 30> H 	 -82.7404 	 -49.0462 	 -86.5183
| 31> H 	 -81.5955 	 -47.7566 	 -86.0954
| 32> C 	 -80.8122 	 -48.9538 	 -87.7158
| 33> H 	 -79.9902 	 -48.9203 	 -87.0607
| 34> H 	 -80.478 	 -48.2442 	 -88.4735
| 35> C 	 -81.1775 	 -50.2637 	 -88.3792
| 36> H 	 -80.4034 	 -50.7458 	 -88.9192
| 37> H 	 -82.0082 	 -50.133 	 -89.0767
| 38> H 	 -81.3725 	 -51.0258 	 -87.6215
| 39> H 	 -80.1668 	 -42.2731 	 -85.8933
| 40> H 	 -85.5733 	 -47.3803 	 -89.6428
| 41> *
| 42>
| 43>                          ****END OF INPUT****

CARTESIAN COORDINATES (ANGSTROEM)
---------------------------------
  S    -82.119400  -43.446400  -87.087800
  C    -80.563500  -43.181900  -86.369300
  C    -79.722300  -44.297000  -86.520000
  C    -80.420100  -45.337800  -87.162200
  C    -81.738300  -45.089800  -87.417800
  H    -79.985000  -46.303100  -87.455900
  C    -78.212100  -44.299400  -86.196500
  H    -77.648400  -43.523800  -86.690100
  H    -77.770700  -45.264200  -86.645600
  C    -77.847000  -44.308200  -84.709000
  H    -78.300300  -43.461800  -84.196700
  H    -78.208100  -45.194400  -84.292400
  C    -76.414100  -44.114000  -84.523900
  H    -75.871400  -44.993700  -84.926500
  H    -76.081700  -43.248800  -85.077200
  H    -76.167800  -43.931300  -83.476600
  S    -84.105300  -45.435700  -88.825800
  C    -84.762500  -46.960100  -89.099500
  C    -83.957600  -47.938400  -88.503500
  C    -82.862100  -47.407200  -87.799800
  C    -82.707700  -46.011100  -87.976200
  H    -84.329200  -48.919700  -88.638900
  C    -82.020500  -48.303700  -86.947900
  H    -82.740400  -49.046200  -86.518300
  H    -81.595500  -47.756600  -86.095400
  C    -80.812200  -48.953800  -87.715800
  H    -79.990200  -48.920300  -87.060700
  H    -80.478000  -48.244200  -88.473500
  C    -81.177500  -50.263700  -88.379200
  H    -80.403400  -50.745800  -88.919200
  H    -82.008200  -50.133000  -89.076700
  H    -81.372500  -51.025800  -87.621500
  H    -80.166800  -42.273100  -85.893300
  H    -85.573300  -47.380300  -89.642800

 Total Charge           Charge          ....    0
 Multiplicity           Mult            ....    1
 Number of Electrons    NEL             ....  134
 Basis Dimension        Dim             ....  322

ORBITAL ENERGIES
----------------

  NO   OCC          E(Eh)            E(eV)
   0   2.0000     -88.970045     -2420.9980
   1   2.0000     -88.969246     -2420.9763
   2   2.0000     -10.327082      -281.0142
   3   2.0000     -10.326741      -281.0049
   4   2.0000     -10.315353      -280.6950
   5   2.0000     -10.310138      -280.5531
   6   2.0000     -10.302371      -280.3418
   7   2.0000     -10.301400      -280.3154
   8   2.0000     -10.298883      -280.2469
   9   2.0000     -10.291280      -280.0400
  10   2.0000     -10.291253      -280.0392
  11   2.0000     -10.286099      -279.8990
  12   2.0000     -10.284093      -279.8444
  13   2.0000     -10.275650      -279.6147
  14   2.0000     -10.275386      -279.6075
  15   2.0000     -10.274344      -279.5791
  16   2.0000      -8.085326      -220.0129
  17   2.0000      -8.084779      -219.9980
  18   2.0000      -6.043762      -164.4591
  19   2.0000      -6.043197      -164.4437
  20   2.0000      -6.039793      -164.3511
  21   2.0000      -6.038936      -164.3278
  22   2.0000      -6.036101      -164.2507
  23   2.0000      -6.035842      -164.2436
  24   2.0000      -1.015619       -27.6364
  25   2.0000      -0.992695       -27.0126
  26   2.0000      -0.921153       -25.0659
  27   2.0000      -0.910551       -24.7773
  28   2.0000      -0.875143       -23.8139
  29   2.0000      -0.857172       -23.3248
  30   2.0000      -0.849908       -23.1272
  31   2.0000      -0.816886       -22.2286
  32   2.0000      -0.783858       -21.3299
  33   2.0000      -0.771636       -20.9973
  34   2.0000      -0.713779       -19.4229
  35   2.0000      -0.700238       -19.0545
  36   2.0000      -0.696697       -18.9581
  37   2.0000      -0.663311       -18.0496
  38   2.0000      -0.638274       -17.3683
  39   2.0000      -0.624273       -16.9873
  40   2.0000      -0.593916       -16.1613
  41   2.0000      -0.578230       -15.7345
  42   2.0000      -0.573206       -15.5977
  43   2.0000      -0.552052       -15.0221
  44   2.0000      -0.537541       -14.6272
  45   2.0000      -0.529020       -14.3954
  46   2.0000      -0.520583       -14.1658
  47   2.0000      -0.513962       -13.9856
  48   2.0000      -0.510337       -13.8870
  49   2.0000      -0.499628       -13.5956
  50   2.0000      -0.495405       -13.4806
  51   2.0000      -0.481601       -13.1050
  52   2.0000      -0.475695       -12.9443
  53   2.0000      -0.468298       -12.7430
  54   2.0000      -0.459003       -12.4901
  55   2.0000      -0.451584       -12.2882
  56   2.0000      -0.445511       -12.1230
  57   2.0000      -0.437934       -11.9168
  58   2.0000      -0.432090       -11.7578
  59   2.0000      -0.429825       -11.6961
  60   2.0000      -0.419167       -11.4061
  61   2.0000      -0.416423       -11.3315
  62   2.0000      -0.410796       -11.1783
  63   2.0000      -0.358419        -9.7531
  64   2.0000      -0.336792        -9.1646
  65   2.0000      -0.329626        -8.9696
  66   2.0000      -0.280248        -7.6259
  67   0.0000       0.023112         0.6289
  68   0.0000       0.080347         2.1863
  69   0.0000       0.107280         2.9192
  70   0.0000       0.122836         3.3425
  71   0.0000       0.140600         3.8259

MULLIKEN ATOMIC CHARGES
-----------------------
   0 S :    0.125000
   1 C :   -0.121039
   2 C :   -0.054134
   3 C :   -0.013873
   4 C :   -0.115110
   5 H :   -0.005246
   6 C :    0.010806
   7 H :    0.028694
   8 H :    0.025362
   9 C :   -0.039026
  10 H :    0.020582
  11 H :    0.016928
  12 C :   -0.028098
  13 H :    0.026627
  14 H :    0.018281
  15 H :    0.035425
  16 S :    0.122329
  17 C :   -0.062146
  18 C :   -0.066574
  19 C :   -0.044915
  20 C :   -0.128061
  21 H :    0.004223
  22 C :    0.023424
  23 H :    0.036577
  24 H :    0.030835
  25 C :   -0.060447
  26 H :    0.013141
  27 H :    0.038972
  28 C :   -0.006382
  29 H :    0.018299
  30 H :    0.035872
  31 H :    0.024009
  32 H :    0.050665
  33 H :    0.039001
Sum of atomic charges:    0.0000000

LOEWDIN ATOMIC CHARGES
----------------------
   0 S :    0.429637
   1 C :   -0.206400
   2 C :   -0.064225
   3 C :   -0.072058
   4 C :   -0.199675
   5 H :    0.032022
   6 C :   -0.029767
   7 H :    0.025898
   8 H :    0.035261
   9 C :   -0.039865
  10 H :    0.023235
  11 H :    0.017386
  12 C :   -0.061621
  13 H :    0.025958
  14 H :    0.022011
  15 H :    0.027867
  16 S :    0.447072
  17 C :   -0.210972
  18 C :   -0.075829
  19 C :   -0.056965
  20 C :   -0.208444
  21 H :    0.024417
  22 C :   -0.033697
  23 H :    0.036403
  24 H :    0.031260
  25 C :   -0.038328
  26 H :    0.014977
  27 H :    0.024768
  28 C :   -0.062806
  29 H :    0.021298
  30 H :    0.029098
  31 H :    0.026729
  32 H :    0.032765
  33 H :    0.032588

  Mayer bond orders larger than 0.100000
B(  0-S ,  1-C ) :   1.1532 B(  0-S ,  4-C ) :   1.1526 B(  1-C ,  2-C ) :   1.5825
B(  1-C , 32-H ) :   0.9649 B(  2-C ,  3-C ) :   1.2814 B(  2-C ,  6-C ) :   1.0029
B(  3-C ,  4-C ) :   1.5388 B(  3-C ,  5-H ) :   0.9927 B(  4-C , 20-C ) :   1.0849
B(  6-C ,  7-H ) :   0.9492 B(  6-C ,  8-H ) :   0.9457 B(  6-C ,  9-C ) :   1.0639
B(  9-C , 10-H ) :   0.9541 B(  9-C , 11-H ) :   0.9513 B(  9-C , 12-C ) :   1.0974
B( 12-C , 13-H ) :   0.9699 B( 12-C , 14-H ) :   0.9694 B( 12-C , 15-H ) :   0.9710
B( 16-S , 17-C ) :   1.1848 B( 16-S , 20-C ) :   1.1486 B( 17-C , 18-C ) :   1.5757
B( 17-C , 20-C ) :   0.1040 B( 17-C , 33-H ) :   0.9673 B( 18-C , 19-C ) :   1.2840
B( 18-C , 21-H ) :   0.9963 B( 19-C , 20-C ) :   1.5152 B( 19-C , 22-C ) :   1.0576
B( 22-C , 23-H ) :   0.9415 B( 22-C , 24-H ) :   0.9313 B( 22-C , 25-C ) :   1.0470
B( 25-C , 26-H ) :   0.9585 B( 25-C , 27-H ) :   0.9503 B( 25-C , 28-C ) :   1.0777
B( 28-C , 29-H ) :   0.9695 B( 28-C , 30-H ) :   0.9709 B( 28-C , 31-H ) :   0.9728

Dispersion correction           -0.014084834
FINAL SINGLE POINT ENERGY     -1339.874224710542

DIPOLE MOMENT
-------------
                                X             Y             Z
Electronic contribution:    -24.94257      15.13590      -9.69006
Nuclear contribution   :     25.40044     -15.58129       9.85656
                        -----------------------------------------
Total Dipole Moment    :      0.45787      -0.44539       0.16650
                        -----------------------------------------
Magnitude (a.u.)       :      0.66011
Magnitude (Debye)      :      1.67786

Rotational constants in cm-1:     0.019853     0.008358     0.006078
Rotational constants in MHz :   595.168135   250.569415   182.222576

                             ****ORCA TERMINATED NORMALLY****
TOTAL RUN TIME: 0 days 0 hours 0 minutes 21 seconds 697 msec
