                         Program Version 4.2.1 -  RELEASE  -
|  1> ! wB97X-D3 SP def2-SVP
|  2> %pal
|  3> nprocs 24
|  4> end
|  5>
|  6> * xyz 0 1
|  7> S 	 -89.8514 	 -11.3389 	 -117.605
|  8> C 	 -88.1911 	 -11.9022 	 -117.143
|  9> C 	 -87.7731 	 -11.3106 	 -115.992
| 10> C 	 -88.689 	 -10.3082 	 -115.491
| 11> C 	 -89.8639 	 -10.1527 	 -116.274
| 12> H 	 -88.4353 	 -9.7005 	 -114.63
| 13> C 	 -86.4293 	 -11.6557 	 -115.325
| 14> H 	 -86.0428 	 -12.6437 	 -115.754
| 15> H 	 -86.5068 	 -11.8413 	 -114.295
| 16> C 	 -85.3149 	 -10.594 	 -115.535
| 17> H 	 -85.5976 	 -9.62624 	 -115.086
| 18> H 	 -84.3688 	 -10.9682 	 -115.064
| 19> C 	 -84.9265 	 -10.3485 	 -116.992
| 20> H 	 -84.2341 	 -11.1185 	 -117.363
| 21> H 	 -85.7815 	 -10.184 	 -117.605
| 22> H 	 -84.4705 	 -9.36585 	 -116.972
| 23> S 	 -91.3005 	 -8.70833 	 -114.313
| 24> C 	 -92.2598 	 -7.37782 	 -114.799
| 25> C 	 -92.3439 	 -7.2935 	 -116.176
| 26> C 	 -91.62 	 -8.30469 	 -116.863
| 27> C 	 -90.9355 	 -9.16186 	 -116.004
| 28> H 	 -92.9663 	 -6.50058 	 -116.529
| 29> C 	 -91.6426 	 -8.33583 	 -118.409
| 30> H 	 -92.6526 	 -8.26213 	 -118.865
| 31> H 	 -91.3824 	 -9.34107 	 -118.584
| 32> C 	 -90.6299 	 -7.32092 	 -119.035
| 33> H 	 -90.8384 	 -6.30777 	 -118.994
| 34> H 	 -90.772 	 -7.57625 	 -120.074
| 35> C 	 -89.1804 	 -7.37026 	 -118.638
| 36> H 	 -89.0689 	 -7.18257 	 -117.631
| 37> H 	 -88.5346 	 -6.57686 	 -119.097
| 38> H 	 -88.7207 	 -8.27983 	 -118.825
| 39> H 	 -87.6694 	 -12.7696 	 -117.625
| 40> H 	 -92.8919 	 -6.80299 	 -114.028
| 41> *
| 42>
| 43>                          ****END OF INPUT****

CARTESIAN COORDINATES (ANGSTROEM)
---------------------------------
  S    -89.851400  -11.338900  -117.605000
  C    -88.191100  -11.902200  -117.143000
  C    -87.773100  -11.310600  -115.992000
  C    -88.689000  -10.308200  -115.491000
  C    -89.863900  -10.152700  -116.274000
  H    -88.435300   -9.700500  -114.630000
  C    -86.429300  -11.655700  -115.325000
  H    -86.042800  -12.643700  -115.754000
  H    -86.506800  -11.841300  -114.295000
  C    -85.314900  -10.594000  -115.535000
  H    -85.597600   -9.626240  -115.086000
  H    -84.368800  -10.968200  -115.064000
  C    -84.926500  -10.348500  -116.992000
  H    -84.234100  -11.118500  -117.363000
  H    -85.781500  -10.184000  -117.605000
  H    -84.470500   -9.365850  -116.972000
  S    -91.300500   -8.708330  -114.313000
  C    -92.259800   -7.377820  -114.799000
  C    -92.343900   -7.293500  -116.176000
  C    -91.620000   -8.304690  -116.863000
  C    -90.935500   -9.161860  -116.004000
  H    -92.966300   -6.500580  -116.529000
  C    -91.642600   -8.335830  -118.409000
  H    -92.652600   -8.262130  -118.865000
  H    -91.382400   -9.341070  -118.584000
  C    -90.629900   -7.320920  -119.035000
  H    -90.838400   -6.307770  -118.994000
  H    -90.772000   -7.576250  -120.074000
  C    -89.180400   -7.370260  -118.638000
  H    -89.068900   -7.182570  -117.631000
  H    -88.534600   -6.576860  -119.097000
  H    -88.720700   -8.279830  -118.825000
  H    -87.669400  -12.769600  -117.625000
  H    -92.891900   -6.802990  -114.028000

 Total Charge           Charge          ....    0
 Multiplicity           Mult            ....    1
 Number of Electrons    NEL             ....  134
 Basis Dimension        Dim             ....  322

ORBITAL ENERGIES
----------------

  NO   OCC          E(Eh)            E(eV)
   0   2.0000     -88.971008     -2421.0242
   1   2.0000     -88.966549     -2420.9029
   2   2.0000     -10.344264      -281.4817
   3   2.0000     -10.334303      -281.2107
   4   2.0000     -10.322106      -280.8788
   5   2.0000     -10.321063      -280.8504
   6   2.0000     -10.306643      -280.4580
   7   2.0000     -10.304205      -280.3917
   8   2.0000     -10.300491      -280.2906
   9   2.0000     -10.296383      -280.1788
  10   2.0000     -10.294556      -280.1291
  11   2.0000     -10.291045      -280.0336
  12   2.0000     -10.289978      -280.0045
  13   2.0000     -10.276652      -279.6419
  14   2.0000     -10.269466      -279.4464
  15   2.0000     -10.258727      -279.1542
  16   2.0000      -8.083562      -219.9649
  17   2.0000      -8.081292      -219.9031
  18   2.0000      -6.042350      -164.4207
  19   2.0000      -6.039753      -164.3500
  20   2.0000      -6.038385      -164.3128
  21   2.0000      -6.035734      -164.2407
  22   2.0000      -6.034147      -164.1975
  23   2.0000      -6.032162      -164.1435
  24   2.0000      -1.001163       -27.2430
  25   2.0000      -0.978291       -26.6207
  26   2.0000      -0.908100       -24.7107
  27   2.0000      -0.905059       -24.6279
  28   2.0000      -0.865378       -23.5481
  29   2.0000      -0.851324       -23.1657
  30   2.0000      -0.840877       -22.8814
  31   2.0000      -0.809284       -22.0217
  32   2.0000      -0.787901       -21.4399
  33   2.0000      -0.777667       -21.1614
  34   2.0000      -0.709996       -19.3200
  35   2.0000      -0.697288       -18.9742
  36   2.0000      -0.684433       -18.6244
  37   2.0000      -0.658388       -17.9157
  38   2.0000      -0.628531       -17.1032
  39   2.0000      -0.618432       -16.8284
  40   2.0000      -0.595642       -16.2083
  41   2.0000      -0.568841       -15.4790
  42   2.0000      -0.553039       -15.0490
  43   2.0000      -0.548824       -14.9343
  44   2.0000      -0.541262       -14.7285
  45   2.0000      -0.538051       -14.6411
  46   2.0000      -0.524678       -14.2772
  47   2.0000      -0.509968       -13.8769
  48   2.0000      -0.500172       -13.6104
  49   2.0000      -0.496647       -13.5144
  50   2.0000      -0.485679       -13.2160
  51   2.0000      -0.473928       -12.8962
  52   2.0000      -0.467221       -12.7137
  53   2.0000      -0.459997       -12.5171
  54   2.0000      -0.458879       -12.4867
  55   2.0000      -0.451055       -12.2738
  56   2.0000      -0.443149       -12.0587
  57   2.0000      -0.435380       -11.8473
  58   2.0000      -0.428501       -11.6601
  59   2.0000      -0.423425       -11.5220
  60   2.0000      -0.422437       -11.4951
  61   2.0000      -0.413301       -11.2465
  62   2.0000      -0.402544       -10.9538
  63   2.0000      -0.354859        -9.6562
  64   2.0000      -0.332599        -9.0505
  65   2.0000      -0.332083        -9.0364
  66   2.0000      -0.288567        -7.8523
  67   0.0000       0.022191         0.6038
  68   0.0000       0.076089         2.0705
  69   0.0000       0.104116         2.8331
  70   0.0000       0.113204         3.0804
  71   0.0000       0.125028         3.4022

MULLIKEN ATOMIC CHARGES
-----------------------
   0 S :    0.086542
   1 C :   -0.146579
   2 C :   -0.078881
   3 C :    0.005367
   4 C :   -0.120820
   5 H :    0.018129
   6 C :    0.079849
   7 H :    0.021231
   8 H :    0.023243
   9 C :   -0.114592
  10 H :    0.034830
  11 H :    0.036910
  12 C :   -0.040011
  13 H :    0.040045
  14 H :    0.033527
  15 H :    0.024668
  16 S :    0.104095
  17 C :   -0.134384
  18 C :   -0.026832
  19 C :   -0.069891
  20 C :   -0.138991
  21 H :    0.012904
  22 C :    0.115409
  23 H :    0.040425
  24 H :   -0.009580
  25 C :   -0.039478
  26 H :    0.012899
  27 H :    0.020241
  28 C :   -0.010973
  29 H :    0.016854
  30 H :    0.028146
  31 H :    0.014446
  32 H :    0.069493
  33 H :    0.091759
Sum of atomic charges:   -0.0000000

LOEWDIN ATOMIC CHARGES
----------------------
   0 S :    0.371643
   1 C :   -0.187222
   2 C :   -0.063737
   3 C :   -0.069533
   4 C :   -0.171611
   5 H :    0.028100
   6 C :   -0.028901
   7 H :    0.034648
   8 H :    0.023002
   9 C :   -0.043475
  10 H :    0.022439
  11 H :    0.029748
  12 C :   -0.067284
  13 H :    0.026994
  14 H :    0.020593
  15 H :    0.028922
  16 S :    0.410450
  17 C :   -0.206037
  18 C :   -0.077286
  19 C :   -0.052927
  20 C :   -0.193376
  21 H :    0.029981
  22 C :   -0.023043
  23 H :    0.040066
  24 H :    0.010122
  25 C :   -0.032280
  26 H :    0.016226
  27 H :    0.025062
  28 C :   -0.056037
  29 H :    0.017109
  30 H :    0.034713
  31 H :    0.013742
  32 H :    0.040760
  33 H :    0.048430

  Mayer bond orders larger than 0.100000
B(  0-S ,  1-C ) :   1.1060 B(  0-S ,  4-C ) :   1.1364 B(  1-C ,  2-C ) :   1.6471
B(  1-C , 32-H ) :   0.9570 B(  2-C ,  3-C ) :   1.2293 B(  2-C ,  6-C ) :   1.0200
B(  3-C ,  4-C ) :   1.5683 B(  3-C ,  5-H ) :   0.9875 B(  4-C , 20-C ) :   1.0598
B(  6-C ,  7-H ) :   0.9450 B(  6-C ,  8-H ) :   0.9418 B(  6-C ,  9-C ) :   1.0658
B(  9-C , 10-H ) :   0.9630 B(  9-C , 11-H ) :   0.9570 B(  9-C , 12-C ) :   1.0754
B( 12-C , 13-H ) :   0.9774 B( 12-C , 14-H ) :   0.9736 B( 12-C , 15-H ) :   0.9721
B( 16-S , 17-C ) :   1.1754 B( 16-S , 20-C ) :   1.1380 B( 17-C , 18-C ) :   1.5897
B( 17-C , 33-H ) :   0.9536 B( 18-C , 19-C ) :   1.2461 B( 18-C , 21-H ) :   1.0024
B( 19-C , 20-C ) :   1.5603 B( 19-C , 22-C ) :   1.0249 B( 22-C , 23-H ) :   0.9424
B( 22-C , 24-H ) :   0.9248 B( 22-C , 25-C ) :   1.0527 B( 25-C , 26-H ) :   0.9623
B( 25-C , 27-H ) :   0.9540 B( 25-C , 28-C ) :   1.0852 B( 28-C , 29-H ) :   0.9676
B( 28-C , 30-H ) :   0.9695 B( 28-C , 31-H ) :   0.9732

Dispersion correction           -0.015682705
FINAL SINGLE POINT ENERGY     -1339.869546270446

DIPOLE MOMENT
-------------
                                X             Y             Z
Electronic contribution:    -19.34820      -5.94241       9.71022
Nuclear contribution   :     19.58124       6.20571      -9.73234
                        -----------------------------------------
Total Dipole Moment    :      0.23305       0.26330      -0.02212
                        -----------------------------------------
Magnitude (a.u.)       :      0.35232
Magnitude (Debye)      :      0.89552

Rotational constants in cm-1:     0.020289     0.008776     0.007796
Rotational constants in MHz :   608.238829   263.087418   233.707590

                             ****ORCA TERMINATED NORMALLY****
TOTAL RUN TIME: 0 days 0 hours 0 minutes 22 seconds 278 msec
