                         Program Version 4.2.1 -  RELEASE  -
|  1> ! wB97X-D3 SP def2-SVP
|  2> %pal
|  3> nprocs 24
|  4> end
|  5>
|  6> * xyz 0 1
|  7> S 	 -93.0493 	 -34.846 	 -59.3779
|  8> C 	 -92.3532 	 -36.2923 	 -58.7547
|  9> C 	 -91.51 	 -36.0798 	 -57.7272
| 10> C 	 -91.3984 	 -34.6772 	 -57.4578
| 11> C 	 -92.2538 	 -33.8458 	 -58.1804
| 12> H 	 -90.6982 	 -34.1471 	 -56.7478
| 13> C 	 -90.6623 	 -37.0437 	 -56.9841
| 14> H 	 -89.6381 	 -36.8308 	 -57.1286
| 15> H 	 -90.6696 	 -38.0339 	 -57.459
| 16> C 	 -91.0845 	 -37.054 	 -55.518
| 17> H 	 -90.9388 	 -36.0058 	 -55.0422
| 18> H 	 -92.0726 	 -37.3746 	 -55.4803
| 19> C 	 -90.1451 	 -38.0476 	 -54.7776
| 20> H 	 -89.0425 	 -37.8334 	 -55.0162
| 21> H 	 -90.1576 	 -37.9518 	 -53.6773
| 22> H 	 -90.3493 	 -39.0983 	 -54.9082
| 23> S 	 -91.4181 	 -31.5557 	 -59.4156
| 24> C 	 -91.7191 	 -30.0507 	 -58.6616
| 25> C 	 -92.542 	 -30.2174 	 -57.5637
| 26> C 	 -92.9226 	 -31.5796 	 -57.2829
| 27> C 	 -92.3227 	 -32.4168 	 -58.1504
| 28> H 	 -92.8894 	 -29.3008 	 -57.0641
| 29> C 	 -93.7996 	 -31.946 	 -56.1687
| 30> H 	 -94.4245 	 -32.7117 	 -56.6305
| 31> H 	 -94.5415 	 -31.1516 	 -55.9136
| 32> C 	 -93.0273 	 -32.4077 	 -54.9043
| 33> H 	 -92.6017 	 -31.5434 	 -54.4071
| 34> H 	 -92.1495 	 -33.0274 	 -55.1582
| 35> C 	 -93.9344 	 -33.2479 	 -53.9983
| 36> H 	 -93.5441 	 -33.1022 	 -53.0012
| 37> H 	 -93.8827 	 -34.3176 	 -54.2475
| 38> H 	 -94.943 	 -32.886 	 -54.0451
| 39> H 	 -92.6741 	 -37.2518 	 -58.9391
| 40> H 	 -91.4764 	 -29.0788 	 -59.0556
| 41> *
| 42>
| 43>                          ****END OF INPUT****

CARTESIAN COORDINATES (ANGSTROEM)
---------------------------------
  S    -93.049300  -34.846000  -59.377900
  C    -92.353200  -36.292300  -58.754700
  C    -91.510000  -36.079800  -57.727200
  C    -91.398400  -34.677200  -57.457800
  C    -92.253800  -33.845800  -58.180400
  H    -90.698200  -34.147100  -56.747800
  C    -90.662300  -37.043700  -56.984100
  H    -89.638100  -36.830800  -57.128600
  H    -90.669600  -38.033900  -57.459000
  C    -91.084500  -37.054000  -55.518000
  H    -90.938800  -36.005800  -55.042200
  H    -92.072600  -37.374600  -55.480300
  C    -90.145100  -38.047600  -54.777600
  H    -89.042500  -37.833400  -55.016200
  H    -90.157600  -37.951800  -53.677300
  H    -90.349300  -39.098300  -54.908200
  S    -91.418100  -31.555700  -59.415600
  C    -91.719100  -30.050700  -58.661600
  C    -92.542000  -30.217400  -57.563700
  C    -92.922600  -31.579600  -57.282900
  C    -92.322700  -32.416800  -58.150400
  H    -92.889400  -29.300800  -57.064100
  C    -93.799600  -31.946000  -56.168700
  H    -94.424500  -32.711700  -56.630500
  H    -94.541500  -31.151600  -55.913600
  C    -93.027300  -32.407700  -54.904300
  H    -92.601700  -31.543400  -54.407100
  H    -92.149500  -33.027400  -55.158200
  C    -93.934400  -33.247900  -53.998300
  H    -93.544100  -33.102200  -53.001200
  H    -93.882700  -34.317600  -54.247500
  H    -94.943000  -32.886000  -54.045100
  H    -92.674100  -37.251800  -58.939100
  H    -91.476400  -29.078800  -59.055600

 Total Charge           Charge          ....    0
 Multiplicity           Mult            ....    1
 Number of Electrons    NEL             ....  134
 Basis Dimension        Dim             ....  322

ORBITAL ENERGIES
----------------

  NO   OCC          E(Eh)            E(eV)
   0   2.0000     -88.962380     -2420.7894
   1   2.0000     -88.960570     -2420.7402
   2   2.0000     -10.324782      -280.9516
   3   2.0000     -10.318244      -280.7737
   4   2.0000     -10.312022      -280.6044
   5   2.0000     -10.302988      -280.3586
   6   2.0000     -10.297167      -280.2002
   7   2.0000     -10.296595      -280.1846
   8   2.0000     -10.293911      -280.1115
   9   2.0000     -10.293822      -280.1091
  10   2.0000     -10.290480      -280.0182
  11   2.0000     -10.289335      -279.9870
  12   2.0000     -10.287381      -279.9339
  13   2.0000     -10.285490      -279.8824
  14   2.0000     -10.284996      -279.8690
  15   2.0000     -10.273278      -279.5501
  16   2.0000      -8.077711      -219.8057
  17   2.0000      -8.075912      -219.7567
  18   2.0000      -6.036224      -164.2540
  19   2.0000      -6.034412      -164.2047
  20   2.0000      -6.032050      -164.1404
  21   2.0000      -6.030346      -164.0941
  22   2.0000      -6.028508      -164.0440
  23   2.0000      -6.026628      -163.9929
  24   2.0000      -1.010939       -27.5091
  25   2.0000      -0.989520       -26.9262
  26   2.0000      -0.918426       -24.9917
  27   2.0000      -0.911631       -24.8067
  28   2.0000      -0.873281       -23.7632
  29   2.0000      -0.853251       -23.2181
  30   2.0000      -0.843703       -22.9583
  31   2.0000      -0.811496       -22.0819
  32   2.0000      -0.781452       -21.2644
  33   2.0000      -0.773686       -21.0531
  34   2.0000      -0.711523       -19.3615
  35   2.0000      -0.704487       -19.1701
  36   2.0000      -0.697230       -18.9726
  37   2.0000      -0.660871       -17.9832
  38   2.0000      -0.646601       -17.5949
  39   2.0000      -0.616791       -16.7837
  40   2.0000      -0.595438       -16.2027
  41   2.0000      -0.576815       -15.6959
  42   2.0000      -0.562826       -15.3153
  43   2.0000      -0.558027       -15.1847
  44   2.0000      -0.530444       -14.4341
  45   2.0000      -0.525414       -14.2973
  46   2.0000      -0.516547       -14.0560
  47   2.0000      -0.513244       -13.9661
  48   2.0000      -0.504490       -13.7279
  49   2.0000      -0.500212       -13.6115
  50   2.0000      -0.494790       -13.4639
  51   2.0000      -0.479220       -13.0402
  52   2.0000      -0.471926       -12.8418
  53   2.0000      -0.463543       -12.6136
  54   2.0000      -0.459755       -12.5106
  55   2.0000      -0.446882       -12.1603
  56   2.0000      -0.444344       -12.0912
  57   2.0000      -0.435179       -11.8418
  58   2.0000      -0.431426       -11.7397
  59   2.0000      -0.426320       -11.6007
  60   2.0000      -0.419794       -11.4232
  61   2.0000      -0.417445       -11.3592
  62   2.0000      -0.416188       -11.3251
  63   2.0000      -0.332676        -9.0526
  64   2.0000      -0.329175        -8.9573
  65   2.0000      -0.324471        -8.8293
  66   2.0000      -0.306817        -8.3489
  67   0.0000       0.045030         1.2253
  68   0.0000       0.058801         1.6000
  69   0.0000       0.121494         3.3060
  70   0.0000       0.124062         3.3759
  71   0.0000       0.127458         3.4683

MULLIKEN ATOMIC CHARGES
-----------------------
   0 S :    0.111371
   1 C :   -0.070114
   2 C :   -0.085502
   3 C :    0.020236
   4 C :   -0.198628
   5 H :    0.038925
   6 C :    0.088234
   7 H :    0.019209
   8 H :    0.010027
   9 C :   -0.072761
  10 H :    0.056446
  11 H :    0.024849
  12 C :   -0.069512
  13 H :    0.034448
  14 H :    0.029147
  15 H :    0.034709
  16 S :    0.115663
  17 C :   -0.078630
  18 C :   -0.063780
  19 C :    0.001983
  20 C :   -0.200162
  21 H :    0.019530
  22 C :    0.064681
  23 H :    0.029745
  24 H :    0.029052
  25 C :   -0.069731
  26 H :    0.025491
  27 H :    0.020267
  28 C :   -0.026891
  29 H :    0.025655
  30 H :    0.047001
  31 H :    0.028183
  32 H :    0.009569
  33 H :    0.051287
Sum of atomic charges:    0.0000000

LOEWDIN ATOMIC CHARGES
----------------------
   0 S :    0.411543
   1 C :   -0.189788
   2 C :   -0.067904
   3 C :   -0.058449
   4 C :   -0.205563
   5 H :    0.036929
   6 C :   -0.032125
   7 H :    0.027814
   8 H :    0.031187
   9 C :   -0.030322
  10 H :    0.038084
  11 H :    0.018011
  12 C :   -0.077725
  13 H :    0.031976
  14 H :    0.024561
  15 H :    0.021986
  16 S :    0.407620
  17 C :   -0.194350
  18 C :   -0.078914
  19 C :   -0.051161
  20 C :   -0.199684
  21 H :    0.031548
  22 C :   -0.037301
  23 H :    0.035291
  24 H :    0.035997
  25 C :   -0.034591
  26 H :    0.022050
  27 H :    0.023884
  28 C :   -0.060381
  29 H :    0.025125
  30 H :    0.031092
  31 H :    0.020644
  32 H :    0.013823
  33 H :    0.029092

  Mayer bond orders larger than 0.100000
B(  0-S ,  1-C ) :   1.1386 B(  0-S ,  4-C ) :   1.1461 B(  1-C ,  2-C ) :   1.6371
B(  1-C , 32-H ) :   0.9665 B(  2-C ,  3-C ) :   1.2205 B(  2-C ,  6-C ) :   1.0277
B(  3-C ,  4-C ) :   1.6027 B(  3-C ,  5-H ) :   0.9730 B(  4-C , 20-C ) :   1.0308
B(  6-C ,  7-H ) :   0.9340 B(  6-C ,  8-H ) :   0.9393 B(  6-C ,  9-C ) :   1.0493
B(  9-C , 10-H ) :   0.9565 B(  9-C , 11-H ) :   0.9575 B(  9-C , 12-C ) :   1.0743
B( 12-C , 13-H ) :   0.9734 B( 12-C , 14-H ) :   0.9749 B( 12-C , 15-H ) :   0.9761
B( 16-S , 17-C ) :   1.1572 B( 16-S , 20-C ) :   1.1316 B( 17-C , 18-C ) :   1.6283
B( 17-C , 33-H ) :   0.9666 B( 18-C , 19-C ) :   1.2101 B( 18-C , 21-H ) :   0.9866
B( 19-C , 20-C ) :   1.6348 B( 19-C , 22-C ) :   1.0537 B( 22-C , 23-H ) :   0.9273
B( 22-C , 24-H ) :   0.9263 B( 22-C , 25-C ) :   1.0528 B( 25-C , 26-H ) :   0.9560
B( 25-C , 27-H ) :   0.9576 B( 25-C , 28-C ) :   1.0742 B( 28-C , 29-H ) :   0.9739
B( 28-C , 30-H ) :   0.9778 B( 28-C , 31-H ) :   0.9756

Dispersion correction           -0.014902036
FINAL SINGLE POINT ENERGY     -1339.876571467153

DIPOLE MOMENT
-------------
                                X             Y             Z
Electronic contribution:     -1.71197      12.63645     -27.53659
Nuclear contribution   :      1.76890     -12.76969      28.17486
                        -----------------------------------------
Total Dipole Moment    :      0.05693      -0.13324       0.63827
                        -----------------------------------------
Magnitude (a.u.)       :      0.65451
Magnitude (Debye)      :      1.66363

Rotational constants in cm-1:     0.018355     0.009272     0.007287
Rotational constants in MHz :   550.263304   277.973664   218.464653

                             ****ORCA TERMINATED NORMALLY****
TOTAL RUN TIME: 0 days 0 hours 0 minutes 22 seconds 298 msec
