                         Program Version 4.2.1 -  RELEASE  -
|  1> ! wB97X-D3 SP def2-SVP
|  2> %pal
|  3> nprocs 24
|  4> end
|  5>
|  6> * xyz 0 1
|  7> S 	 -110.283 	 61.031 	 -5.70465
|  8> C 	 -109.262 	 61.5755 	 -4.40323
|  9> C 	 -109.549 	 62.8582 	 -4.08321
| 10> C 	 -110.665 	 63.3566 	 -4.85553
| 11> C 	 -111.167 	 62.5545 	 -5.88888
| 12> H 	 -111.092 	 64.3072 	 -4.68694
| 13> C 	 -108.949 	 63.6676 	 -2.95336
| 14> H 	 -108.746 	 64.703 	 -3.27024
| 15> H 	 -107.945 	 63.2506 	 -2.84495
| 16> C 	 -109.618 	 63.6633 	 -1.61135
| 17> H 	 -110.651 	 63.9082 	 -1.78148
| 18> H 	 -109.64 	 62.6772 	 -1.19361
| 19> C 	 -108.885 	 64.4907 	 -0.619755
| 20> H 	 -107.796 	 64.224 	 -0.592441
| 21> H 	 -108.768 	 65.5268 	 -0.957495
| 22> H 	 -109.269 	 64.644 	 0.466695
| 23> S 	 -111.918 	 62.5949 	 -8.51817
| 24> C 	 -113.573 	 62.8861 	 -8.95626
| 25> C 	 -114.202 	 63.4651 	 -7.90447
| 26> C 	 -113.513 	 63.3713 	 -6.70705
| 27> C 	 -112.206 	 62.843 	 -6.83656
| 28> H 	 -115.261 	 63.7289 	 -8.07091
| 29> C 	 -114.161 	 63.969 	 -5.43543
| 30> H 	 -114.414 	 65.0719 	 -5.66359
| 31> H 	 -113.365 	 64.0849 	 -4.72932
| 32> C 	 -115.303 	 63.1158 	 -4.99115
| 33> H 	 -115.861 	 62.6969 	 -5.84971
| 34> H 	 -116.04 	 63.5849 	 -4.29674
| 35> C 	 -114.805 	 61.9213 	 -4.22131
| 36> H 	 -114.158 	 62.1572 	 -3.41209
| 37> H 	 -114.268 	 61.242 	 -4.90559
| 38> H 	 -115.771 	 61.4463 	 -3.88595
| 39> H 	 -108.444 	 60.9927 	 -3.94933
| 40> H 	 -113.991 	 62.9149 	 -9.96774
| 41> *
| 42>
| 43>                          ****END OF INPUT****

CARTESIAN COORDINATES (ANGSTROEM)
---------------------------------
  S    -110.283000   61.031000   -5.704650
  C    -109.262000   61.575500   -4.403230
  C    -109.549000   62.858200   -4.083210
  C    -110.665000   63.356600   -4.855530
  C    -111.167000   62.554500   -5.888880
  H    -111.092000   64.307200   -4.686940
  C    -108.949000   63.667600   -2.953360
  H    -108.746000   64.703000   -3.270240
  H    -107.945000   63.250600   -2.844950
  C    -109.618000   63.663300   -1.611350
  H    -110.651000   63.908200   -1.781480
  H    -109.640000   62.677200   -1.193610
  C    -108.885000   64.490700   -0.619755
  H    -107.796000   64.224000   -0.592441
  H    -108.768000   65.526800   -0.957495
  H    -109.269000   64.644000    0.466695
  S    -111.918000   62.594900   -8.518170
  C    -113.573000   62.886100   -8.956260
  C    -114.202000   63.465100   -7.904470
  C    -113.513000   63.371300   -6.707050
  C    -112.206000   62.843000   -6.836560
  H    -115.261000   63.728900   -8.070910
  C    -114.161000   63.969000   -5.435430
  H    -114.414000   65.071900   -5.663590
  H    -113.365000   64.084900   -4.729320
  C    -115.303000   63.115800   -4.991150
  H    -115.861000   62.696900   -5.849710
  H    -116.040000   63.584900   -4.296740
  C    -114.805000   61.921300   -4.221310
  H    -114.158000   62.157200   -3.412090
  H    -114.268000   61.242000   -4.905590
  H    -115.771000   61.446300   -3.885950
  H    -108.444000   60.992700   -3.949330
  H    -113.991000   62.914900   -9.967740

 Total Charge           Charge          ....    0
 Multiplicity           Mult            ....    1
 Number of Electrons    NEL             ....  134
 Basis Dimension        Dim             ....  322

ORBITAL ENERGIES
----------------

  NO   OCC          E(Eh)            E(eV)
   0   2.0000     -88.965416     -2420.8720
   1   2.0000     -88.965314     -2420.8693
   2   2.0000     -10.335458      -281.2421
   3   2.0000     -10.330606      -281.1101
   4   2.0000     -10.318184      -280.7721
   5   2.0000     -10.315595      -280.7016
   6   2.0000     -10.304743      -280.4063
   7   2.0000     -10.300937      -280.3028
   8   2.0000     -10.294612      -280.1306
   9   2.0000     -10.293590      -280.1028
  10   2.0000     -10.293079      -280.0889
  11   2.0000     -10.288890      -279.9749
  12   2.0000     -10.287828      -279.9460
  13   2.0000     -10.283265      -279.8219
  14   2.0000     -10.282340      -279.7967
  15   2.0000     -10.270086      -279.4632
  16   2.0000      -8.080959      -219.8941
  17   2.0000      -8.079858      -219.8641
  18   2.0000      -6.039385      -164.3400
  19   2.0000      -6.038513      -164.3163
  20   2.0000      -6.035295      -164.2287
  21   2.0000      -6.034222      -164.1995
  22   2.0000      -6.031784      -164.1332
  23   2.0000      -6.030584      -164.1005
  24   2.0000      -1.013266       -27.5724
  25   2.0000      -0.991597       -26.9827
  26   2.0000      -0.922356       -25.0986
  27   2.0000      -0.915546       -24.9133
  28   2.0000      -0.880944       -23.9717
  29   2.0000      -0.849465       -23.1151
  30   2.0000      -0.846710       -23.0402
  31   2.0000      -0.817986       -22.2585
  32   2.0000      -0.780122       -21.2282
  33   2.0000      -0.770856       -20.9760
  34   2.0000      -0.713259       -19.4088
  35   2.0000      -0.704816       -19.1790
  36   2.0000      -0.691722       -18.8227
  37   2.0000      -0.655482       -17.8366
  38   2.0000      -0.642212       -17.4755
  39   2.0000      -0.625468       -17.0198
  40   2.0000      -0.600845       -16.3498
  41   2.0000      -0.578412       -15.7394
  42   2.0000      -0.566487       -15.4149
  43   2.0000      -0.558207       -15.1896
  44   2.0000      -0.533129       -14.5072
  45   2.0000      -0.529031       -14.3957
  46   2.0000      -0.525536       -14.3006
  47   2.0000      -0.514932       -14.0120
  48   2.0000      -0.512311       -13.9407
  49   2.0000      -0.500751       -13.6261
  50   2.0000      -0.496080       -13.4990
  51   2.0000      -0.482240       -13.1224
  52   2.0000      -0.469175       -12.7669
  53   2.0000      -0.461561       -12.5597
  54   2.0000      -0.457277       -12.4431
  55   2.0000      -0.446951       -12.1622
  56   2.0000      -0.439638       -11.9632
  57   2.0000      -0.437591       -11.9075
  58   2.0000      -0.434897       -11.8341
  59   2.0000      -0.417929       -11.3724
  60   2.0000      -0.415023       -11.2934
  61   2.0000      -0.413364       -11.2482
  62   2.0000      -0.406772       -11.0688
  63   2.0000      -0.352495        -9.5919
  64   2.0000      -0.333583        -9.0773
  65   2.0000      -0.328224        -8.9314
  66   2.0000      -0.296457        -8.0670
  67   0.0000       0.023528         0.6402
  68   0.0000       0.072485         1.9724
  69   0.0000       0.110389         3.0038
  70   0.0000       0.120637         3.2827
  71   0.0000       0.129915         3.5352

MULLIKEN ATOMIC CHARGES
-----------------------
   0 S :    0.107641
   1 C :   -0.125817
   2 C :   -0.077638
   3 C :    0.035103
   4 C :   -0.139436
   5 H :   -0.003803
   6 C :    0.026249
   7 H :    0.027031
   8 H :    0.008846
   9 C :    0.016168
  10 H :    0.018169
  11 H :    0.019757
  12 C :   -0.081974
  13 H :    0.027006
  14 H :    0.014025
  15 H :    0.057533
  16 S :    0.113679
  17 C :   -0.098039
  18 C :   -0.052167
  19 C :   -0.063264
  20 C :   -0.160727
  21 H :    0.035875
  22 C :    0.092651
  23 H :    0.046288
  24 H :   -0.006141
  25 C :   -0.078371
  26 H :    0.035101
  27 H :    0.032884
  28 C :   -0.057027
  29 H :    0.028901
  30 H :    0.039960
  31 H :    0.035536
  32 H :    0.061155
  33 H :    0.064845
Sum of atomic charges:    0.0000000

LOEWDIN ATOMIC CHARGES
----------------------
   0 S :    0.402989
   1 C :   -0.192449
   2 C :   -0.072379
   3 C :   -0.055364
   4 C :   -0.195048
   5 H :    0.017435
   6 C :   -0.032328
   7 H :    0.031960
   8 H :    0.028526
   9 C :   -0.042490
  10 H :    0.022538
  11 H :    0.025417
  12 C :   -0.081436
  13 H :    0.030516
  14 H :    0.020738
  15 H :    0.039862
  16 S :    0.429813
  17 C :   -0.189902
  18 C :   -0.081191
  19 C :   -0.053240
  20 C :   -0.214379
  21 H :    0.039211
  22 C :   -0.033408
  23 H :    0.041126
  24 H :    0.018997
  25 C :   -0.050790
  26 H :    0.028449
  27 H :    0.025655
  28 C :   -0.060116
  29 H :    0.017155
  30 H :    0.026668
  31 H :    0.031696
  32 H :    0.039209
  33 H :    0.036561

  Mayer bond orders larger than 0.100000
B(  0-S ,  1-C ) :   1.1445 B(  0-S ,  4-C ) :   1.1315 B(  1-C ,  2-C ) :   1.6112
B(  1-C , 32-H ) :   0.9630 B(  2-C ,  3-C ) :   1.2506 B(  2-C ,  6-C ) :   1.0289
B(  3-C ,  4-C ) :   1.5576 B(  3-C ,  5-H ) :   0.9952 B(  4-C , 20-C ) :   1.0772
B(  6-C ,  7-H ) :   0.9407 B(  6-C ,  8-H ) :   0.9310 B(  6-C ,  9-C ) :   1.0681
B(  9-C , 10-H ) :   0.9507 B(  9-C , 11-H ) :   0.9472 B(  9-C , 12-C ) :   1.0762
B( 12-C , 13-H ) :   0.9679 B( 12-C , 14-H ) :   0.9704 B( 12-C , 15-H ) :   0.9723
B( 16-S , 17-C ) :   1.1686 B( 16-S , 20-C ) :   1.1644 B( 17-C , 18-C ) :   1.5898
B( 17-C , 20-C ) :   0.1074 B( 17-C , 33-H ) :   0.9630 B( 18-C , 19-C ) :   1.2888
B( 18-C , 21-H ) :   0.9785 B( 19-C , 20-C ) :   1.5307 B( 19-C , 22-C ) :   1.0253
B( 22-C , 23-H ) :   0.9412 B( 22-C , 24-H ) :   0.9364 B( 22-C , 25-C ) :   1.0528
B( 25-C , 26-H ) :   0.9597 B( 25-C , 27-H ) :   0.9573 B( 25-C , 28-C ) :   1.0738
B( 28-C , 29-H ) :   0.9757 B( 28-C , 30-H ) :   0.9760 B( 28-C , 31-H ) :   0.9740

Dispersion correction           -0.014363528
FINAL SINGLE POINT ENERGY     -1339.868993279728

DIPOLE MOMENT
-------------
                                X             Y             Z
Electronic contribution:      5.00980      -9.56829     -26.14713
Nuclear contribution   :     -5.20456      10.01472      26.55519
                        -----------------------------------------
Total Dipole Moment    :     -0.19477       0.44643       0.40806
                        -----------------------------------------
Magnitude (a.u.)       :      0.63541
Magnitude (Debye)      :      1.61508

Rotational constants in cm-1:     0.020482     0.008200     0.006754
Rotational constants in MHz :   614.037020   245.826027   202.475513

                             ****ORCA TERMINATED NORMALLY****
TOTAL RUN TIME: 0 days 0 hours 0 minutes 21 seconds 894 msec
