                         Program Version 4.2.1 -  RELEASE  -
|  1> ! wB97X-D3 SP def2-SVP
|  2> %pal
|  3> nprocs 24
|  4> end
|  5>
|  6> * xyz 0 1
|  7> S 	 32.026 	 1.64315 	 -117.918
|  8> C 	 30.4734 	 2.53544 	 -117.947
|  9> C 	 29.5144 	 1.97464 	 -117.129
| 10> C 	 30.1429 	 0.893579 	 -116.375
| 11> C 	 31.4311 	 0.582981 	 -116.716
| 12> H 	 29.6491 	 0.271998 	 -115.651
| 13> C 	 28.1491 	 2.49884 	 -116.935
| 14> H 	 27.8825 	 3.09107 	 -117.812
| 15> H 	 28.1443 	 3.29366 	 -116.156
| 16> C 	 27.0202 	 1.508 	 -116.589
| 17> H 	 26.891 	 0.73927 	 -117.355
| 18> H 	 27.3245 	 0.897353 	 -115.712
| 19> C 	 25.6419 	 2.31079 	 -116.224
| 20> H 	 24.9249 	 1.61313 	 -115.893
| 21> H 	 25.9085 	 3.07019 	 -115.431
| 22> H 	 25.2283 	 2.83621 	 -117.101
| 23> S 	 32.0021 	 -2.10343 	 -116.913
| 24> C 	 32.5836 	 -2.91914 	 -115.539
| 25> C 	 32.8266 	 -2.04237 	 -114.553
| 26> C 	 32.5276 	 -0.667875 	 -114.846
| 27> C 	 32.1962 	 -0.550027 	 -116.185
| 28> H 	 33.1726 	 -2.41327 	 -113.633
| 29> C 	 32.7059 	 0.504767 	 -113.825
| 30> H 	 33.3033 	 1.1469 	 -114.387
| 31> H 	 33.3022 	 0.0426949 	 -113.013
| 32> C 	 31.5301 	 1.2539 	 -113.224
| 33> H 	 30.7311 	 1.40962 	 -113.926
| 34> H 	 31.9546 	 2.27087 	 -113.026
| 35> C 	 30.9582 	 0.592876 	 -112.005
| 36> H 	 31.7365 	 0.465673 	 -111.295
| 37> H 	 30.518 	 -0.386974 	 -112.311
| 38> H 	 30.1844 	 1.25332 	 -111.677
| 39> H 	 30.2472 	 3.38103 	 -118.499
| 40> H 	 32.7561 	 -3.93299 	 -115.462
| 41> *
| 42>
| 43>                          ****END OF INPUT****

CARTESIAN COORDINATES (ANGSTROEM)
---------------------------------
  S     32.026000    1.643150  -117.918000
  C     30.473400    2.535440  -117.947000
  C     29.514400    1.974640  -117.129000
  C     30.142900    0.893579  -116.375000
  C     31.431100    0.582981  -116.716000
  H     29.649100    0.271998  -115.651000
  C     28.149100    2.498840  -116.935000
  H     27.882500    3.091070  -117.812000
  H     28.144300    3.293660  -116.156000
  C     27.020200    1.508000  -116.589000
  H     26.891000    0.739270  -117.355000
  H     27.324500    0.897353  -115.712000
  C     25.641900    2.310790  -116.224000
  H     24.924900    1.613130  -115.893000
  H     25.908500    3.070190  -115.431000
  H     25.228300    2.836210  -117.101000
  S     32.002100   -2.103430  -116.913000
  C     32.583600   -2.919140  -115.539000
  C     32.826600   -2.042370  -114.553000
  C     32.527600   -0.667875  -114.846000
  C     32.196200   -0.550027  -116.185000
  H     33.172600   -2.413270  -113.633000
  C     32.705900    0.504767  -113.825000
  H     33.303300    1.146900  -114.387000
  H     33.302200    0.042695  -113.013000
  C     31.530100    1.253900  -113.224000
  H     30.731100    1.409620  -113.926000
  H     31.954600    2.270870  -113.026000
  C     30.958200    0.592876  -112.005000
  H     31.736500    0.465673  -111.295000
  H     30.518000   -0.386974  -112.311000
  H     30.184400    1.253320  -111.677000
  H     30.247200    3.381030  -118.499000
  H     32.756100   -3.932990  -115.462000

 Total Charge           Charge          ....    0
 Multiplicity           Mult            ....    1
 Number of Electrons    NEL             ....  134
 Basis Dimension        Dim             ....  322

ORBITAL ENERGIES
----------------

  NO   OCC          E(Eh)            E(eV)
   0   2.0000     -88.964761     -2420.8542
   1   2.0000     -88.961296     -2420.7599
   2   2.0000     -10.321926      -280.8739
   3   2.0000     -10.317523      -280.7541
   4   2.0000     -10.309241      -280.5287
   5   2.0000     -10.305205      -280.4189
   6   2.0000     -10.303272      -280.3663
   7   2.0000     -10.301995      -280.3315
   8   2.0000     -10.298442      -280.2349
   9   2.0000     -10.295857      -280.1645
  10   2.0000     -10.290702      -280.0242
  11   2.0000     -10.290177      -280.0100
  12   2.0000     -10.288178      -279.9556
  13   2.0000     -10.283302      -279.8229
  14   2.0000     -10.279503      -279.7195
  15   2.0000     -10.272341      -279.5246
  16   2.0000      -8.079473      -219.8536
  17   2.0000      -8.077589      -219.8024
  18   2.0000      -6.037984      -164.3019
  19   2.0000      -6.036064      -164.2497
  20   2.0000      -6.033979      -164.1929
  21   2.0000      -6.031783      -164.1332
  22   2.0000      -6.030242      -164.0912
  23   2.0000      -6.028373      -164.0404
  24   2.0000      -1.012365       -27.5479
  25   2.0000      -0.987070       -26.8595
  26   2.0000      -0.912657       -24.8347
  27   2.0000      -0.909783       -24.7564
  28   2.0000      -0.869702       -23.6658
  29   2.0000      -0.851716       -23.1764
  30   2.0000      -0.841519       -22.8989
  31   2.0000      -0.816354       -22.2141
  32   2.0000      -0.785584       -21.3768
  33   2.0000      -0.776413       -21.1273
  34   2.0000      -0.714827       -19.4514
  35   2.0000      -0.699173       -19.0255
  36   2.0000      -0.688228       -18.7276
  37   2.0000      -0.660490       -17.9728
  38   2.0000      -0.645804       -17.5732
  39   2.0000      -0.617444       -16.8015
  40   2.0000      -0.596033       -16.2189
  41   2.0000      -0.575520       -15.6607
  42   2.0000      -0.560747       -15.2587
  43   2.0000      -0.557263       -15.1639
  44   2.0000      -0.549081       -14.9413
  45   2.0000      -0.525982       -14.3127
  46   2.0000      -0.519467       -14.1354
  47   2.0000      -0.508530       -13.8378
  48   2.0000      -0.505043       -13.7429
  49   2.0000      -0.499447       -13.5906
  50   2.0000      -0.485409       -13.2087
  51   2.0000      -0.479188       -13.0394
  52   2.0000      -0.473352       -12.8806
  53   2.0000      -0.468550       -12.7499
  54   2.0000      -0.457722       -12.4552
  55   2.0000      -0.447531       -12.1779
  56   2.0000      -0.443964       -12.0809
  57   2.0000      -0.440200       -11.9784
  58   2.0000      -0.436726       -11.8839
  59   2.0000      -0.426360       -11.6019
  60   2.0000      -0.421875       -11.4798
  61   2.0000      -0.421050       -11.4574
  62   2.0000      -0.407348       -11.0845
  63   2.0000      -0.337394        -9.1810
  64   2.0000      -0.327161        -8.9025
  65   2.0000      -0.320822        -8.7300
  66   2.0000      -0.310743        -8.4558
  67   0.0000       0.047582         1.2948
  68   0.0000       0.058758         1.5989
  69   0.0000       0.115264         3.1365
  70   0.0000       0.123169         3.3516
  71   0.0000       0.133542         3.6339

MULLIKEN ATOMIC CHARGES
-----------------------
   0 S :    0.111842
   1 C :   -0.093208
   2 C :   -0.065335
   3 C :    0.034806
   4 C :   -0.177661
   5 H :    0.008664
   6 C :    0.060608
   7 H :    0.015711
   8 H :    0.038237
   9 C :   -0.116631
  10 H :    0.038653
  11 H :    0.037431
  12 C :   -0.058967
  13 H :    0.036114
  14 H :    0.043665
  15 H :    0.042899
  16 S :    0.116033
  17 C :   -0.051102
  18 C :   -0.019684
  19 C :   -0.075361
  20 C :   -0.146952
  21 H :   -0.010352
  22 C :    0.107700
  23 H :    0.021267
  24 H :    0.015476
  25 C :   -0.070038
  26 H :    0.019351
  27 H :    0.028576
  28 C :   -0.016372
  29 H :    0.021765
  30 H :    0.036733
  31 H :    0.031387
  32 H :    0.009579
  33 H :    0.025165
Sum of atomic charges:   -0.0000000

LOEWDIN ATOMIC CHARGES
----------------------
   0 S :    0.406022
   1 C :   -0.174626
   2 C :   -0.058260
   3 C :   -0.060732
   4 C :   -0.211487
   5 H :    0.023449
   6 C :   -0.042695
   7 H :    0.031582
   8 H :    0.037866
   9 C :   -0.039503
  10 H :    0.024224
  11 H :    0.024476
  12 C :   -0.061392
  13 H :    0.019805
  14 H :    0.032326
  15 H :    0.027653
  16 S :    0.436688
  17 C :   -0.183023
  18 C :   -0.074669
  19 C :   -0.044927
  20 C :   -0.224430
  21 H :    0.019783
  22 C :   -0.022523
  23 H :    0.027185
  24 H :    0.032523
  25 C :   -0.043241
  26 H :    0.020688
  27 H :    0.030733
  28 C :   -0.056481
  29 H :    0.017340
  30 H :    0.031192
  31 H :    0.025193
  32 H :    0.011351
  33 H :    0.017909

  Mayer bond orders larger than 0.100000
B(  0-S ,  1-C ) :   1.1310 B(  0-S ,  4-C ) :   1.1422 B(  1-C ,  2-C ) :   1.6328
B(  1-C , 32-H ) :   0.9749 B(  2-C ,  3-C ) :   1.2077 B(  2-C ,  6-C ) :   1.0387
B(  3-C ,  4-C ) :   1.6243 B(  3-C ,  5-H ) :   0.9844 B(  4-C , 20-C ) :   0.9770
B(  6-C ,  7-H ) :   0.9327 B(  6-C ,  8-H ) :   0.9324 B(  6-C ,  9-C ) :   1.0534
B(  9-C , 10-H ) :   0.9619 B(  9-C , 11-H ) :   0.9547 B(  9-C , 12-C ) :   1.0663
B( 12-C , 13-H ) :   0.9778 B( 12-C , 14-H ) :   0.9764 B( 12-C , 15-H ) :   0.9791
B( 16-S , 17-C ) :   1.1702 B( 16-S , 20-C ) :   1.1622 B( 17-C , 18-C ) :   1.6033
B( 17-C , 33-H ) :   0.9748 B( 18-C , 19-C ) :   1.2534 B( 18-C , 21-H ) :   0.9992
B( 19-C , 20-C ) :   1.5921 B( 19-C , 22-C ) :   1.0050 B( 22-C , 23-H ) :   0.9327
B( 22-C , 24-H ) :   0.9402 B( 22-C , 25-C ) :   1.0712 B( 25-C , 26-H ) :   0.9508
B( 25-C , 27-H ) :   0.9480 B( 25-C , 28-C ) :   1.0820 B( 28-C , 29-H ) :   0.9752
B( 28-C , 30-H ) :   0.9750 B( 28-C , 31-H ) :   0.9716

Dispersion correction           -0.014871444
FINAL SINGLE POINT ENERGY     -1339.870140175342

DIPOLE MOMENT
-------------
                                X             Y             Z
Electronic contribution:     19.86114     -10.60537     -17.97588
Nuclear contribution   :    -20.35712      10.74447      18.52540
                        -----------------------------------------
Total Dipole Moment    :     -0.49598       0.13911       0.54952
                        -----------------------------------------
Magnitude (a.u.)       :      0.75320
Magnitude (Debye)      :      1.91449

Rotational constants in cm-1:     0.016966     0.008965     0.007705
Rotational constants in MHz :   508.623934   268.778156   230.988012

                             ****ORCA TERMINATED NORMALLY****
TOTAL RUN TIME: 0 days 0 hours 0 minutes 22 seconds 257 msec
