                         Program Version 4.2.1 -  RELEASE  -
|  1> ! wB97X-D3 SP def2-SVP
|  2> %pal
|  3> nprocs 24
|  4> end
|  5>
|  6> * xyz 0 1
|  7> S 	 -135.421 	 59.9438 	 -61.9806
|  8> C 	 -135.86 	 61.6102 	 -61.8856
|  9> C 	 -134.816 	 62.366 	 -61.2644
| 10> C 	 -133.749 	 61.6072 	 -60.9009
| 11> C 	 -133.821 	 60.2756 	 -61.1984
| 12> H 	 -132.98 	 62.0955 	 -60.3708
| 13> C 	 -134.872 	 63.8848 	 -61.0282
| 14> H 	 -135.49 	 64.432 	 -61.7423
| 15> H 	 -133.907 	 64.2448 	 -61.2013
| 16> C 	 -135.32 	 64.1967 	 -59.5791
| 17> H 	 -134.626 	 63.77 	 -58.8034
| 18> H 	 -135.409 	 65.2072 	 -59.4318
| 19> C 	 -136.73 	 63.7563 	 -59.2284
| 20> H 	 -137.454 	 63.82 	 -60.0569
| 21> H 	 -136.83 	 62.659 	 -58.9969
| 22> H 	 -137.102 	 64.1699 	 -58.3535
| 23> S 	 -133.35 	 57.6702 	 -61.1778
| 24> C 	 -131.805 	 57.0169 	 -60.6807
| 25> C 	 -130.905 	 57.9937 	 -60.2698
| 26> C 	 -131.521 	 59.3208 	 -60.282
| 27> C 	 -132.789 	 59.2919 	 -60.9194
| 28> H 	 -129.872 	 57.7626 	 -60.057
| 29> C 	 -130.839 	 60.4914 	 -59.5998
| 30> H 	 -131.386 	 60.9252 	 -58.7173
| 31> H 	 -130.801 	 61.4205 	 -60.2301
| 32> C 	 -129.367 	 60.3156 	 -59.1319
| 33> H 	 -129.27 	 59.3965 	 -58.4857
| 34> H 	 -129.141 	 61.1177 	 -58.4946
| 35> C 	 -128.343 	 60.2793 	 -60.3494
| 36> H 	 -127.428 	 59.6774 	 -60.0723
| 37> H 	 -128.08 	 61.2552 	 -60.8012
| 38> H 	 -128.765 	 59.727 	 -61.2239
| 39> H 	 -136.874 	 61.949 	 -62.172
| 40> H 	 -131.523 	 56.0551 	 -60.8146
| 41> *
| 42>
| 43>                          ****END OF INPUT****

CARTESIAN COORDINATES (ANGSTROEM)
---------------------------------
  S    -135.421000   59.943800  -61.980600
  C    -135.860000   61.610200  -61.885600
  C    -134.816000   62.366000  -61.264400
  C    -133.749000   61.607200  -60.900900
  C    -133.821000   60.275600  -61.198400
  H    -132.980000   62.095500  -60.370800
  C    -134.872000   63.884800  -61.028200
  H    -135.490000   64.432000  -61.742300
  H    -133.907000   64.244800  -61.201300
  C    -135.320000   64.196700  -59.579100
  H    -134.626000   63.770000  -58.803400
  H    -135.409000   65.207200  -59.431800
  C    -136.730000   63.756300  -59.228400
  H    -137.454000   63.820000  -60.056900
  H    -136.830000   62.659000  -58.996900
  H    -137.102000   64.169900  -58.353500
  S    -133.350000   57.670200  -61.177800
  C    -131.805000   57.016900  -60.680700
  C    -130.905000   57.993700  -60.269800
  C    -131.521000   59.320800  -60.282000
  C    -132.789000   59.291900  -60.919400
  H    -129.872000   57.762600  -60.057000
  C    -130.839000   60.491400  -59.599800
  H    -131.386000   60.925200  -58.717300
  H    -130.801000   61.420500  -60.230100
  C    -129.367000   60.315600  -59.131900
  H    -129.270000   59.396500  -58.485700
  H    -129.141000   61.117700  -58.494600
  C    -128.343000   60.279300  -60.349400
  H    -127.428000   59.677400  -60.072300
  H    -128.080000   61.255200  -60.801200
  H    -128.765000   59.727000  -61.223900
  H    -136.874000   61.949000  -62.172000
  H    -131.523000   56.055100  -60.814600

 Total Charge           Charge          ....    0
 Multiplicity           Mult            ....    1
 Number of Electrons    NEL             ....  134
 Basis Dimension        Dim             ....  322

ORBITAL ENERGIES
----------------

  NO   OCC          E(Eh)            E(eV)
   0   2.0000     -88.971313     -2421.0325
   1   2.0000     -88.965698     -2420.8797
   2   2.0000     -10.332868      -281.1716
   3   2.0000     -10.331780      -281.1420
   4   2.0000     -10.319115      -280.7974
   5   2.0000     -10.314092      -280.6607
   6   2.0000     -10.310079      -280.5515
   7   2.0000     -10.303287      -280.3667
   8   2.0000     -10.298931      -280.2481
   9   2.0000     -10.298481      -280.2359
  10   2.0000     -10.295602      -280.1576
  11   2.0000     -10.291621      -280.0493
  12   2.0000     -10.289723      -279.9976
  13   2.0000     -10.284127      -279.8453
  14   2.0000     -10.283022      -279.8153
  15   2.0000     -10.270887      -279.4850
  16   2.0000      -8.085035      -220.0050
  17   2.0000      -8.080898      -219.8924
  18   2.0000      -6.043646      -164.4560
  19   2.0000      -6.039609      -164.3461
  20   2.0000      -6.039475      -164.3425
  21   2.0000      -6.035845      -164.2437
  22   2.0000      -6.035393      -164.2314
  23   2.0000      -6.031545      -164.1267
  24   2.0000      -1.006696       -27.3936
  25   2.0000      -0.982704       -26.7407
  26   2.0000      -0.911576       -24.8052
  27   2.0000      -0.904065       -24.6009
  28   2.0000      -0.869544       -23.6615
  29   2.0000      -0.857989       -23.3471
  30   2.0000      -0.839562       -22.8456
  31   2.0000      -0.813524       -22.1371
  32   2.0000      -0.783297       -21.3146
  33   2.0000      -0.771460       -20.9925
  34   2.0000      -0.711349       -19.3568
  35   2.0000      -0.699106       -19.0236
  36   2.0000      -0.698126       -18.9970
  37   2.0000      -0.661975       -18.0132
  38   2.0000      -0.637515       -17.3477
  39   2.0000      -0.635211       -17.2850
  40   2.0000      -0.604503       -16.4494
  41   2.0000      -0.568605       -15.4725
  42   2.0000      -0.553459       -15.0604
  43   2.0000      -0.544092       -14.8055
  44   2.0000      -0.542097       -14.7512
  45   2.0000      -0.530204       -14.4276
  46   2.0000      -0.520295       -14.1580
  47   2.0000      -0.503459       -13.6998
  48   2.0000      -0.500532       -13.6202
  49   2.0000      -0.499163       -13.5829
  50   2.0000      -0.490247       -13.3403
  51   2.0000      -0.481340       -13.0979
  52   2.0000      -0.472542       -12.8585
  53   2.0000      -0.464405       -12.6371
  54   2.0000      -0.458607       -12.4793
  55   2.0000      -0.451141       -12.2762
  56   2.0000      -0.446374       -12.1465
  57   2.0000      -0.441112       -12.0033
  58   2.0000      -0.429733       -11.6936
  59   2.0000      -0.427296       -11.6273
  60   2.0000      -0.420243       -11.4354
  61   2.0000      -0.417829       -11.3697
  62   2.0000      -0.409637       -11.1468
  63   2.0000      -0.364030        -9.9058
  64   2.0000      -0.340217        -9.2578
  65   2.0000      -0.325493        -8.8571
  66   2.0000      -0.273304        -7.4370
  67   0.0000       0.013468         0.3665
  68   0.0000       0.085205         2.3185
  69   0.0000       0.090510         2.4629
  70   0.0000       0.119218         3.2441
  71   0.0000       0.136039         3.7018

MULLIKEN ATOMIC CHARGES
-----------------------
   0 S :    0.111357
   1 C :   -0.147082
   2 C :   -0.082033
   3 C :   -0.013060
   4 C :   -0.068177
   5 H :   -0.024591
   6 C :    0.104496
   7 H :    0.023978
   8 H :    0.007718
   9 C :   -0.047683
  10 H :    0.037877
  11 H :    0.013954
  12 C :   -0.060210
  13 H :    0.020474
  14 H :    0.029522
  15 H :    0.018969
  16 S :    0.086547
  17 C :   -0.028556
  18 C :   -0.043439
  19 C :   -0.039120
  20 C :   -0.109943
  21 H :    0.027447
  22 C :   -0.031013
  23 H :    0.051030
  24 H :    0.042102
  25 C :   -0.049472
  26 H :    0.040200
  27 H :    0.021370
  28 C :   -0.102838
  29 H :    0.045146
  30 H :    0.043462
  31 H :    0.042289
  32 H :    0.065554
  33 H :    0.013724
Sum of atomic charges:    0.0000000

LOEWDIN ATOMIC CHARGES
----------------------
   0 S :    0.395599
   1 C :   -0.209829
   2 C :   -0.059045
   3 C :   -0.065709
   4 C :   -0.175641
   5 H :    0.025415
   6 C :   -0.020064
   7 H :    0.031981
   8 H :    0.021959
   9 C :   -0.035986
  10 H :    0.031377
  11 H :    0.013294
  12 C :   -0.069418
  13 H :    0.023178
  14 H :    0.029788
  15 H :    0.015665
  16 S :    0.410598
  17 C :   -0.170115
  18 C :   -0.061833
  19 C :   -0.057377
  20 C :   -0.185491
  21 H :    0.033199
  22 C :   -0.048479
  23 H :    0.038796
  24 H :    0.033876
  25 C :   -0.039784
  26 H :    0.028472
  27 H :    0.019610
  28 C :   -0.082893
  29 H :    0.032328
  30 H :    0.028677
  31 H :    0.029081
  32 H :    0.033517
  33 H :    0.005253

  Mayer bond orders larger than 0.100000
B(  0-S ,  1-C ) :   1.1628 B(  0-S ,  4-C ) :   1.1328 B(  1-C ,  2-C ) :   1.5318
B(  1-C ,  4-C ) :   0.1123 B(  1-C , 32-H ) :   0.9671 B(  2-C ,  3-C ) :   1.3314
B(  2-C ,  6-C ) :   1.0188 B(  3-C ,  4-C ) :   1.5157 B(  3-C ,  5-H ) :   0.9965
B(  4-C , 20-C ) :   1.1121 B(  6-C ,  7-H ) :   0.9439 B(  6-C ,  8-H ) :   0.9374
B(  6-C ,  9-C ) :   1.0797 B(  9-C , 10-H ) :   0.9547 B(  9-C , 11-H ) :   0.9577
B(  9-C , 12-C ) :   1.0722 B( 12-C , 13-H ) :   0.9741 B( 12-C , 14-H ) :   0.9695
B( 12-C , 15-H ) :   0.9751 B( 16-S , 17-C ) :   1.1510 B( 16-S , 20-C ) :   1.1392
B( 17-C , 18-C ) :   1.6205 B( 17-C , 33-H ) :   0.9732 B( 18-C , 19-C ) :   1.2336
B( 18-C , 21-H ) :   0.9815 B( 19-C , 20-C ) :   1.5677 B( 19-C , 22-C ) :   1.0381
B( 22-C , 23-H ) :   0.9318 B( 22-C , 24-H ) :   0.9292 B( 22-C , 25-C ) :   1.0811
B( 25-C , 26-H ) :   0.9530 B( 25-C , 27-H ) :   0.9531 B( 25-C , 28-C ) :   1.0533
B( 28-C , 29-H ) :   0.9772 B( 28-C , 30-H ) :   0.9747 B( 28-C , 31-H ) :   0.9804

Dispersion correction           -0.014328589
FINAL SINGLE POINT ENERGY     -1339.858097347734

DIPOLE MOMENT
-------------
                                X             Y             Z
Electronic contribution:    -10.84532     -20.48273     -11.63770
Nuclear contribution   :     11.17809      21.03400      11.97405
                        -----------------------------------------
Total Dipole Moment    :      0.33277       0.55127       0.33635
                        -----------------------------------------
Magnitude (a.u.)       :      0.72648
Magnitude (Debye)      :      1.84656

Rotational constants in cm-1:     0.019472     0.008523     0.006404
Rotational constants in MHz :   583.747643   255.515360   191.979427

                             ****ORCA TERMINATED NORMALLY****
TOTAL RUN TIME: 0 days 0 hours 0 minutes 20 seconds 488 msec
