                         Program Version 4.2.1 -  RELEASE  -
|  1> ! wB97X-D3 SP def2-SVP
|  2> %pal
|  3> nprocs 24
|  4> end
|  5>
|  6> * xyz 0 1
|  7> S 	 -83.1778 	 -6.58699 	 5.3431
|  8> C 	 -82.9511 	 -6.52165 	 3.61118
|  9> C 	 -81.8814 	 -7.32773 	 3.22745
| 10> C 	 -81.1487 	 -7.80842 	 4.33594
| 11> C 	 -81.6307 	 -7.33803 	 5.53943
| 12> H 	 -80.3122 	 -8.39624 	 4.22366
| 13> C 	 -81.366 	 -7.56717 	 1.78736
| 14> H 	 -82.0873 	 -7.69611 	 1.00703
| 15> H 	 -80.6568 	 -8.39159 	 1.74646
| 16> C 	 -80.6038 	 -6.43458 	 1.23255
| 17> H 	 -80.2147 	 -6.65995 	 0.262649
| 18> H 	 -81.3148 	 -5.64647 	 1.11035
| 19> C 	 -79.4109 	 -5.93569 	 2.16606
| 20> H 	 -78.6518 	 -6.71888 	 2.30625
| 21> H 	 -78.8121 	 -5.11633 	 1.73707
| 22> H 	 -79.7289 	 -5.63787 	 3.15687
| 23> S 	 -82.1644 	 -8.72714 	 7.80946
| 24> C 	 -80.8436 	 -9.16645 	 8.83933
| 25> C 	 -79.6163 	 -8.62836 	 8.44744
| 26> C 	 -79.7254 	 -7.79015 	 7.29513
| 27> C 	 -81.0561 	 -7.76286 	 6.80864
| 28> H 	 -78.7651 	 -9.07189 	 8.96369
| 29> C 	 -78.501 	 -7.2102 	 6.73399
| 30> H 	 -77.9943 	 -6.82191 	 7.59203
| 31> H 	 -78.6561 	 -6.22857 	 6.24495
| 32> C 	 -77.7319 	 -8.2363 	 5.88368
| 33> H 	 -78.3881 	 -8.53196 	 4.9926
| 34> H 	 -77.5185 	 -9.14078 	 6.43986
| 35> C 	 -76.3395 	 -7.69885 	 5.39755
| 36> H 	 -75.689 	 -7.38127 	 6.24713
| 37> H 	 -76.4962 	 -6.9458 	 4.59115
| 38> H 	 -75.8313 	 -8.48235 	 4.86216
| 39> H 	 -83.5781 	 -6.03992 	 2.89547
| 40> H 	 -81.0821 	 -9.85569 	 9.61631
| 41> *
| 42>
| 43>                          ****END OF INPUT****

CARTESIAN COORDINATES (ANGSTROEM)
---------------------------------
  S    -83.177800   -6.586990    5.343100
  C    -82.951100   -6.521650    3.611180
  C    -81.881400   -7.327730    3.227450
  C    -81.148700   -7.808420    4.335940
  C    -81.630700   -7.338030    5.539430
  H    -80.312200   -8.396240    4.223660
  C    -81.366000   -7.567170    1.787360
  H    -82.087300   -7.696110    1.007030
  H    -80.656800   -8.391590    1.746460
  C    -80.603800   -6.434580    1.232550
  H    -80.214700   -6.659950    0.262649
  H    -81.314800   -5.646470    1.110350
  C    -79.410900   -5.935690    2.166060
  H    -78.651800   -6.718880    2.306250
  H    -78.812100   -5.116330    1.737070
  H    -79.728900   -5.637870    3.156870
  S    -82.164400   -8.727140    7.809460
  C    -80.843600   -9.166450    8.839330
  C    -79.616300   -8.628360    8.447440
  C    -79.725400   -7.790150    7.295130
  C    -81.056100   -7.762860    6.808640
  H    -78.765100   -9.071890    8.963690
  C    -78.501000   -7.210200    6.733990
  H    -77.994300   -6.821910    7.592030
  H    -78.656100   -6.228570    6.244950
  C    -77.731900   -8.236300    5.883680
  H    -78.388100   -8.531960    4.992600
  H    -77.518500   -9.140780    6.439860
  C    -76.339500   -7.698850    5.397550
  H    -75.689000   -7.381270    6.247130
  H    -76.496200   -6.945800    4.591150
  H    -75.831300   -8.482350    4.862160
  H    -83.578100   -6.039920    2.895470
  H    -81.082100   -9.855690    9.616310

 Total Charge           Charge          ....    0
 Multiplicity           Mult            ....    1
 Number of Electrons    NEL             ....  134
 Basis Dimension        Dim             ....  322

ORBITAL ENERGIES
----------------

  NO   OCC          E(Eh)            E(eV)
   0   2.0000     -88.969830     -2420.9921
   1   2.0000     -88.962289     -2420.7869
   2   2.0000     -10.327853      -281.0352
   3   2.0000     -10.326356      -280.9944
   4   2.0000     -10.314113      -280.6613
   5   2.0000     -10.313313      -280.6395
   6   2.0000     -10.306002      -280.4406
   7   2.0000     -10.301439      -280.3164
   8   2.0000     -10.297880      -280.2196
   9   2.0000     -10.295227      -280.1474
  10   2.0000     -10.288337      -279.9599
  11   2.0000     -10.288281      -279.9584
  12   2.0000     -10.285158      -279.8734
  13   2.0000     -10.285021      -279.8697
  14   2.0000     -10.281757      -279.7808
  15   2.0000     -10.277066      -279.6532
  16   2.0000      -8.084675      -219.9952
  17   2.0000      -8.077458      -219.7988
  18   2.0000      -6.043168      -164.4430
  19   2.0000      -6.039283      -164.3372
  20   2.0000      -6.035706      -164.2399
  21   2.0000      -6.035327      -164.2296
  22   2.0000      -6.031965      -164.1381
  23   2.0000      -6.028411      -164.0414
  24   2.0000      -1.008022       -27.4297
  25   2.0000      -0.983191       -26.7540
  26   2.0000      -0.918334       -24.9891
  27   2.0000      -0.911446       -24.8017
  28   2.0000      -0.865853       -23.5611
  29   2.0000      -0.851291       -23.1648
  30   2.0000      -0.844813       -22.9885
  31   2.0000      -0.807881       -21.9836
  32   2.0000      -0.786668       -21.4063
  33   2.0000      -0.774003       -21.0617
  34   2.0000      -0.706977       -19.2378
  35   2.0000      -0.701422       -19.0867
  36   2.0000      -0.693138       -18.8612
  37   2.0000      -0.663953       -18.0671
  38   2.0000      -0.642529       -17.4841
  39   2.0000      -0.620842       -16.8940
  40   2.0000      -0.601152       -16.3582
  41   2.0000      -0.576025       -15.6744
  42   2.0000      -0.562391       -15.3034
  43   2.0000      -0.550755       -14.9868
  44   2.0000      -0.545364       -14.8401
  45   2.0000      -0.527584       -14.3563
  46   2.0000      -0.511741       -13.9252
  47   2.0000      -0.510281       -13.8855
  48   2.0000      -0.503171       -13.6920
  49   2.0000      -0.497748       -13.5444
  50   2.0000      -0.491878       -13.3847
  51   2.0000      -0.477255       -12.9868
  52   2.0000      -0.467135       -12.7114
  53   2.0000      -0.464239       -12.6326
  54   2.0000      -0.458134       -12.4665
  55   2.0000      -0.449419       -12.2293
  56   2.0000      -0.443350       -12.0642
  57   2.0000      -0.439321       -11.9545
  58   2.0000      -0.435480       -11.8500
  59   2.0000      -0.427143       -11.6231
  60   2.0000      -0.420980       -11.4554
  61   2.0000      -0.417638       -11.3645
  62   2.0000      -0.414068       -11.2674
  63   2.0000      -0.343707        -9.3527
  64   2.0000      -0.331584        -9.0229
  65   2.0000      -0.329962        -8.9787
  66   2.0000      -0.287287        -7.8175
  67   0.0000       0.029878         0.8130
  68   0.0000       0.063667         1.7325
  69   0.0000       0.104400         2.8409
  70   0.0000       0.121350         3.3021
  71   0.0000       0.126735         3.4486

MULLIKEN ATOMIC CHARGES
-----------------------
   0 S :    0.121885
   1 C :   -0.108917
   2 C :   -0.081396
   3 C :    0.060778
   4 C :   -0.129805
   5 H :   -0.037927
   6 C :    0.093046
   7 H :    0.020378
   8 H :    0.016578
   9 C :   -0.055053
  10 H :    0.024383
  11 H :    0.014616
  12 C :   -0.084180
  13 H :    0.017311
  14 H :    0.032828
  15 H :    0.050543
  16 S :    0.093353
  17 C :   -0.104461
  18 C :   -0.042537
  19 C :   -0.038676
  20 C :   -0.148883
  21 H :    0.032308
  22 C :    0.090259
  23 H :    0.012441
  24 H :    0.024476
  25 C :   -0.097457
  26 H :    0.039866
  27 H :    0.030646
  28 C :   -0.047010
  29 H :    0.047855
  30 H :    0.038732
  31 H :    0.026319
  32 H :    0.035939
  33 H :    0.051763
Sum of atomic charges:   -0.0000000

LOEWDIN ATOMIC CHARGES
----------------------
   0 S :    0.418839
   1 C :   -0.196882
   2 C :   -0.053968
   3 C :   -0.047876
   4 C :   -0.202065
   5 H :    0.012931
   6 C :   -0.029197
   7 H :    0.029975
   8 H :    0.027386
   9 C :   -0.030712
  10 H :    0.020844
  11 H :    0.016115
  12 C :   -0.073423
  13 H :    0.019856
  14 H :    0.026697
  15 H :    0.024591
  16 S :    0.398896
  17 C :   -0.182034
  18 C :   -0.074841
  19 C :   -0.052220
  20 C :   -0.187637
  21 H :    0.037409
  22 C :   -0.043204
  23 H :    0.031660
  24 H :    0.036605
  25 C :   -0.035506
  26 H :    0.031318
  27 H :    0.022575
  28 C :   -0.071453
  29 H :    0.031592
  30 H :    0.029075
  31 H :    0.022494
  32 H :    0.023275
  33 H :    0.018885

  Mayer bond orders larger than 0.100000
B(  0-S ,  1-C ) :   1.1396 B(  0-S ,  4-C ) :   1.1606 B(  1-C ,  2-C ) :   1.5908
B(  1-C , 32-H ) :   0.9722 B(  2-C ,  3-C ) :   1.2649 B(  2-C ,  6-C ) :   1.0248
B(  3-C ,  4-C ) :   1.5283 B(  3-C ,  5-H ) :   1.0103 B(  4-C , 20-C ) :   1.0414
B(  6-C ,  7-H ) :   0.9391 B(  6-C ,  8-H ) :   0.9431 B(  6-C ,  9-C ) :   1.0801
B(  9-C , 10-H ) :   0.9566 B(  9-C , 11-H ) :   0.9563 B(  9-C , 12-C ) :   1.0682
B( 12-C , 13-H ) :   0.9753 B( 12-C , 14-H ) :   0.9760 B( 12-C , 15-H ) :   0.9732
B( 16-S , 17-C ) :   1.1729 B( 16-S , 20-C ) :   1.1472 B( 17-C , 18-C ) :   1.5989
B( 17-C , 20-C ) :   0.1003 B( 17-C , 33-H ) :   0.9726 B( 18-C , 19-C ) :   1.2239
B( 18-C , 21-H ) :   0.9910 B( 19-C , 20-C ) :   1.5928 B( 19-C , 22-C ) :   1.0590
B( 22-C , 23-H ) :   0.9233 B( 22-C , 24-H ) :   0.9287 B( 22-C , 25-C ) :   1.0474
B( 25-C , 26-H ) :   0.9499 B( 25-C , 27-H ) :   0.9577 B( 25-C , 28-C ) :   1.0825
B( 28-C , 29-H ) :   0.9740 B( 28-C , 30-H ) :   0.9744 B( 28-C , 31-H ) :   0.9736

Dispersion correction           -0.015772925
FINAL SINGLE POINT ENERGY     -1339.866820427670

DIPOLE MOMENT
-------------
                                X             Y             Z
Electronic contribution:    -25.70959      -3.19381      17.99434
Nuclear contribution   :     26.31002       2.97679     -18.38666
                        -----------------------------------------
Total Dipole Moment    :      0.60043      -0.21702      -0.39232
                        -----------------------------------------
Magnitude (a.u.)       :      0.74936
Magnitude (Debye)      :      1.90471

Rotational constants in cm-1:     0.016861     0.011115     0.007228
Rotational constants in MHz :   505.476958   333.211511   216.691433

                             ****ORCA TERMINATED NORMALLY****
TOTAL RUN TIME: 0 days 0 hours 0 minutes 23 seconds 19 msec
