                         Program Version 4.2.1 -  RELEASE  -
|  1> ! wB97X-D3 SP def2-SVP
|  2> %pal
|  3> nprocs 24
|  4> end
|  5>
|  6> * xyz 0 1
|  7> S 	 -72.9462 	 0.429105 	 -69.4085
|  8> C 	 -71.6133 	 0.940843 	 -68.4232
|  9> C 	 -71.4871 	 0.181465 	 -67.2937
| 10> C 	 -72.3784 	 -0.931181 	 -67.2972
| 11> C 	 -73.206 	 -0.9829 	 -68.404
| 12> H 	 -72.5747 	 -1.63948 	 -66.4782
| 13> C 	 -70.6218 	 0.434615 	 -66.0443
| 14> H 	 -69.6356 	 0.842675 	 -66.3636
| 15> H 	 -70.432 	 -0.549547 	 -65.5596
| 16> C 	 -71.3759 	 1.40535 	 -65.1093
| 17> H 	 -71.8715 	 2.08023 	 -65.674
| 18> H 	 -72.1352 	 0.805346 	 -64.5056
| 19> C 	 -70.611 	 2.25702 	 -64.1617
| 20> H 	 -70.3024 	 3.21934 	 -64.6291
| 21> H 	 -71.0174 	 2.48281 	 -63.2369
| 22> H 	 -69.6865 	 1.67976 	 -63.9231
| 23> S 	 -73.9926 	 -3.66692 	 -68.1104
| 24> C 	 -75.5701 	 -4.19383 	 -68.4638
| 25> C 	 -76.333 	 -3.1471 	 -68.9695
| 26> C 	 -75.6139 	 -1.92537 	 -68.9943
| 27> C 	 -74.3447 	 -1.97013 	 -68.5028
| 28> H 	 -77.3465 	 -3.31184 	 -69.2527
| 29> C 	 -76.3074 	 -0.689861 	 -69.5132
| 30> H 	 -77.0232 	 -1.02278 	 -70.1607
| 31> H 	 -75.6332 	 -0.126972 	 -70.1634
| 32> C 	 -76.9502 	 0.181432 	 -68.4181
| 33> H 	 -76.1265 	 0.524913 	 -67.7996
| 34> H 	 -77.6032 	 -0.482012 	 -67.8562
| 35> C 	 -77.7816 	 1.37793 	 -68.9327
| 36> H 	 -78.4305 	 1.92733 	 -68.2058
| 37> H 	 -78.3468 	 1.08805 	 -69.7671
| 38> H 	 -77.0212 	 2.05875 	 -69.3298
| 39> H 	 -70.8146 	 1.65993 	 -68.6007
| 40> H 	 -75.8283 	 -5.24448 	 -68.5898
| 41> *
| 42>
| 43>                          ****END OF INPUT****

CARTESIAN COORDINATES (ANGSTROEM)
---------------------------------
  S    -72.946200    0.429105  -69.408500
  C    -71.613300    0.940843  -68.423200
  C    -71.487100    0.181465  -67.293700
  C    -72.378400   -0.931181  -67.297200
  C    -73.206000   -0.982900  -68.404000
  H    -72.574700   -1.639480  -66.478200
  C    -70.621800    0.434615  -66.044300
  H    -69.635600    0.842675  -66.363600
  H    -70.432000   -0.549547  -65.559600
  C    -71.375900    1.405350  -65.109300
  H    -71.871500    2.080230  -65.674000
  H    -72.135200    0.805346  -64.505600
  C    -70.611000    2.257020  -64.161700
  H    -70.302400    3.219340  -64.629100
  H    -71.017400    2.482810  -63.236900
  H    -69.686500    1.679760  -63.923100
  S    -73.992600   -3.666920  -68.110400
  C    -75.570100   -4.193830  -68.463800
  C    -76.333000   -3.147100  -68.969500
  C    -75.613900   -1.925370  -68.994300
  C    -74.344700   -1.970130  -68.502800
  H    -77.346500   -3.311840  -69.252700
  C    -76.307400   -0.689861  -69.513200
  H    -77.023200   -1.022780  -70.160700
  H    -75.633200   -0.126972  -70.163400
  C    -76.950200    0.181432  -68.418100
  H    -76.126500    0.524913  -67.799600
  H    -77.603200   -0.482012  -67.856200
  C    -77.781600    1.377930  -68.932700
  H    -78.430500    1.927330  -68.205800
  H    -78.346800    1.088050  -69.767100
  H    -77.021200    2.058750  -69.329800
  H    -70.814600    1.659930  -68.600700
  H    -75.828300   -5.244480  -68.589800

 Total Charge           Charge          ....    0
 Multiplicity           Mult            ....    1
 Number of Electrons    NEL             ....  134
 Basis Dimension        Dim             ....  322

ORBITAL ENERGIES
----------------

  NO   OCC          E(Eh)            E(eV)
   0   2.0000     -88.974364     -2421.1155
   1   2.0000     -88.964168     -2420.8381
   2   2.0000     -10.336253      -281.2638
   3   2.0000     -10.330867      -281.1172
   4   2.0000     -10.315720      -280.7050
   5   2.0000     -10.313231      -280.6373
   6   2.0000     -10.301451      -280.3167
   7   2.0000     -10.300380      -280.2876
   8   2.0000     -10.297994      -280.2227
   9   2.0000     -10.293416      -280.0981
  10   2.0000     -10.291447      -280.0445
  11   2.0000     -10.282021      -279.7880
  12   2.0000     -10.280574      -279.7486
  13   2.0000     -10.279097      -279.7085
  14   2.0000     -10.274678      -279.5882
  15   2.0000     -10.272775      -279.5364
  16   2.0000      -8.088318      -220.0943
  17   2.0000      -8.079376      -219.8510
  18   2.0000      -6.047025      -164.5479
  19   2.0000      -6.042921      -164.4362
  20   2.0000      -6.038935      -164.3278
  21   2.0000      -6.037872      -164.2989
  22   2.0000      -6.033659      -164.1842
  23   2.0000      -6.030281      -164.0923
  24   2.0000      -1.009648       -27.4739
  25   2.0000      -0.991682       -26.9851
  26   2.0000      -0.914153       -24.8754
  27   2.0000      -0.909726       -24.7549
  28   2.0000      -0.869268       -23.6540
  29   2.0000      -0.854849       -23.2616
  30   2.0000      -0.849507       -23.1162
  31   2.0000      -0.813509       -22.1367
  32   2.0000      -0.783557       -21.3217
  33   2.0000      -0.776108       -21.1190
  34   2.0000      -0.704316       -19.1654
  35   2.0000      -0.698940       -19.0191
  36   2.0000      -0.692926       -18.8555
  37   2.0000      -0.670658       -18.2495
  38   2.0000      -0.634757       -17.2726
  39   2.0000      -0.616368       -16.7722
  40   2.0000      -0.595327       -16.1997
  41   2.0000      -0.577048       -15.7023
  42   2.0000      -0.566121       -15.4049
  43   2.0000      -0.562173       -15.2975
  44   2.0000      -0.525315       -14.2946
  45   2.0000      -0.525039       -14.2870
  46   2.0000      -0.519791       -14.1442
  47   2.0000      -0.515308       -14.0223
  48   2.0000      -0.507224       -13.8023
  49   2.0000      -0.506156       -13.7732
  50   2.0000      -0.493007       -13.4154
  51   2.0000      -0.483460       -13.1556
  52   2.0000      -0.473190       -12.8762
  53   2.0000      -0.464824       -12.6485
  54   2.0000      -0.460941       -12.5428
  55   2.0000      -0.448227       -12.1969
  56   2.0000      -0.443184       -12.0597
  57   2.0000      -0.434628       -11.8268
  58   2.0000      -0.430488       -11.7142
  59   2.0000      -0.420254       -11.4357
  60   2.0000      -0.418117       -11.3775
  61   2.0000      -0.414011       -11.2658
  62   2.0000      -0.413559       -11.2535
  63   2.0000      -0.358269        -9.7490
  64   2.0000      -0.333919        -9.0864
  65   2.0000      -0.331558        -9.0222
  66   2.0000      -0.290238        -7.8978
  67   0.0000       0.027753         0.7552
  68   0.0000       0.072201         1.9647
  69   0.0000       0.109848         2.9891
  70   0.0000       0.119291         3.2461
  71   0.0000       0.127850         3.4790

MULLIKEN ATOMIC CHARGES
-----------------------
   0 S :    0.116475
   1 C :   -0.109475
   2 C :   -0.100731
   3 C :   -0.019083
   4 C :   -0.096938
   5 H :    0.028729
   6 C :    0.046083
   7 H :    0.027762
   8 H :    0.038559
   9 C :   -0.030957
  10 H :    0.005104
  11 H :    0.034888
  12 C :   -0.034963
  13 H :    0.031990
  14 H :    0.020594
  15 H :    0.020503
  16 S :    0.094460
  17 C :   -0.087381
  18 C :   -0.039526
  19 C :   -0.087755
  20 C :   -0.135470
  21 H :    0.011482
  22 C :    0.093832
  23 H :   -0.018563
  24 H :    0.015052
  25 C :   -0.056383
  26 H :    0.033764
  27 H :    0.020979
  28 C :   -0.029395
  29 H :    0.050382
  30 H :    0.014032
  31 H :    0.025727
  32 H :    0.047215
  33 H :    0.069007
Sum of atomic charges:    0.0000000

LOEWDIN ATOMIC CHARGES
----------------------
   0 S :    0.419850
   1 C :   -0.211422
   2 C :   -0.061273
   3 C :   -0.071066
   4 C :   -0.189350
   5 H :    0.032791
   6 C :   -0.027678
   7 H :    0.029592
   8 H :    0.034605
   9 C :   -0.041052
  10 H :    0.009876
  11 H :    0.034506
  12 C :   -0.063607
  13 H :    0.028532
  14 H :    0.016721
  15 H :    0.028191
  16 S :    0.420037
  17 C :   -0.200880
  18 C :   -0.070662
  19 C :   -0.064016
  20 C :   -0.182164
  21 H :    0.028064
  22 C :   -0.026931
  23 H :    0.013998
  24 H :    0.020037
  25 C :   -0.031944
  26 H :    0.024091
  27 H :    0.020536
  28 C :   -0.066972
  29 H :    0.033522
  30 H :    0.014983
  31 H :    0.028245
  32 H :    0.036056
  33 H :    0.034780

  Mayer bond orders larger than 0.100000
B(  0-S ,  1-C ) :   1.1269 B(  0-S ,  4-C ) :   1.1489 B(  1-C ,  2-C ) :   1.6272
B(  1-C , 32-H ) :   0.9593 B(  2-C ,  3-C ) :   1.2555 B(  2-C ,  6-C ) :   1.0247
B(  3-C ,  4-C ) :   1.5572 B(  3-C ,  5-H ) :   0.9876 B(  4-C , 20-C ) :   1.0232
B(  6-C ,  7-H ) :   0.9435 B(  6-C ,  8-H ) :   0.9421 B(  6-C ,  9-C ) :   1.0555
B(  9-C , 10-H ) :   0.9626 B(  9-C , 11-H ) :   0.9513 B(  9-C , 12-C ) :   1.0855
B( 12-C , 13-H ) :   0.9772 B( 12-C , 14-H ) :   0.9733 B( 12-C , 15-H ) :   0.9732
B( 16-S , 17-C ) :   1.1827 B( 16-S , 20-C ) :   1.1357 B( 17-C , 18-C ) :   1.5745
B( 17-C , 33-H ) :   0.9627 B( 18-C , 19-C ) :   1.2642 B( 18-C , 21-H ) :   0.9981
B( 19-C , 20-C ) :   1.6020 B( 19-C , 22-C ) :   1.0457 B( 22-C , 23-H ) :   0.9155
B( 22-C , 24-H ) :   0.9332 B( 22-C , 25-C ) :   1.0601 B( 25-C , 26-H ) :   0.9611
B( 25-C , 27-H ) :   0.9544 B( 25-C , 28-C ) :   1.0745 B( 28-C , 29-H ) :   0.9760
B( 28-C , 30-H ) :   0.9744 B( 28-C , 31-H ) :   0.9743

Dispersion correction           -0.014053412
FINAL SINGLE POINT ENERGY     -1339.866720332304

DIPOLE MOMENT
-------------
                                X             Y             Z
Electronic contribution:      3.50041     -17.78673     -12.40748
Nuclear contribution   :     -3.62606      17.98573      12.61642
                        -----------------------------------------
Total Dipole Moment    :     -0.12564       0.19900       0.20895
                        -----------------------------------------
Magnitude (a.u.)       :      0.31471
Magnitude (Debye)      :      0.79994

Rotational constants in cm-1:     0.018429     0.008118     0.006763
Rotational constants in MHz :   552.492675   243.382029   202.757460

                             ****ORCA TERMINATED NORMALLY****
TOTAL RUN TIME: 0 days 0 hours 0 minutes 21 seconds 206 msec
