                         Program Version 4.2.1 -  RELEASE  -
|  1> ! wB97X-D3 SP def2-SVP
|  2> %pal
|  3> nprocs 24
|  4> end
|  5>
|  6> * xyz 0 1
|  7> S 	 -122.357 	 34.9833 	 -112.701
|  8> C 	 -123.449 	 33.7203 	 -113.328
|  9> C 	 -124.695 	 33.7028 	 -112.701
| 10> C 	 -124.787 	 34.8385 	 -111.845
| 11> C 	 -123.711 	 35.732 	 -111.792
| 12> H 	 -125.551 	 34.9695 	 -111.133
| 13> C 	 -125.809 	 32.6764 	 -112.746
| 14> H 	 -126.401 	 32.7583 	 -111.84
| 15> H 	 -125.284 	 31.709 	 -112.593
| 16> C 	 -126.744 	 32.7711 	 -113.985
| 17> H 	 -127.057 	 33.7795 	 -114.241
| 18> H 	 -126.049 	 32.4211 	 -114.829
| 19> C 	 -127.905 	 31.8399 	 -113.874
| 20> H 	 -128.658 	 31.9986 	 -113.154
| 21> H 	 -128.263 	 31.7504 	 -114.844
| 22> H 	 -127.565 	 30.8246 	 -113.582
| 23> S 	 -121.96 	 36.9495 	 -110.084
| 24> C 	 -122.537 	 38.271 	 -109.092
| 25> C 	 -123.843 	 38.5005 	 -109.221
| 26> C 	 -124.417 	 37.752 	 -110.302
| 27> C 	 -123.536 	 36.8103 	 -110.843
| 28> H 	 -124.288 	 39.2461 	 -108.576
| 29> C 	 -125.855 	 37.9562 	 -110.566
| 30> H 	 -126.239 	 38.7739 	 -109.936
| 31> H 	 -126.401 	 37.033 	 -110.296
| 32> C 	 -126.025 	 38.3171 	 -112.041
| 33> H 	 -125.611 	 37.6027 	 -112.755
| 34> H 	 -125.374 	 39.1721 	 -112.234
| 35> C 	 -127.411 	 38.8281 	 -112.299
| 36> H 	 -128.228 	 38.1734 	 -111.925
| 37> H 	 -127.544 	 39.0807 	 -113.329
| 38> H 	 -127.61 	 39.7593 	 -111.727
| 39> H 	 -123.246 	 33.0725 	 -114.169
| 40> H 	 -121.92 	 38.74 	 -108.366
| 41> *
| 42>
| 43>                          ****END OF INPUT****

CARTESIAN COORDINATES (ANGSTROEM)
---------------------------------
  S    -122.357000   34.983300  -112.701000
  C    -123.449000   33.720300  -113.328000
  C    -124.695000   33.702800  -112.701000
  C    -124.787000   34.838500  -111.845000
  C    -123.711000   35.732000  -111.792000
  H    -125.551000   34.969500  -111.133000
  C    -125.809000   32.676400  -112.746000
  H    -126.401000   32.758300  -111.840000
  H    -125.284000   31.709000  -112.593000
  C    -126.744000   32.771100  -113.985000
  H    -127.057000   33.779500  -114.241000
  H    -126.049000   32.421100  -114.829000
  C    -127.905000   31.839900  -113.874000
  H    -128.658000   31.998600  -113.154000
  H    -128.263000   31.750400  -114.844000
  H    -127.565000   30.824600  -113.582000
  S    -121.960000   36.949500  -110.084000
  C    -122.537000   38.271000  -109.092000
  C    -123.843000   38.500500  -109.221000
  C    -124.417000   37.752000  -110.302000
  C    -123.536000   36.810300  -110.843000
  H    -124.288000   39.246100  -108.576000
  C    -125.855000   37.956200  -110.566000
  H    -126.239000   38.773900  -109.936000
  H    -126.401000   37.033000  -110.296000
  C    -126.025000   38.317100  -112.041000
  H    -125.611000   37.602700  -112.755000
  H    -125.374000   39.172100  -112.234000
  C    -127.411000   38.828100  -112.299000
  H    -128.228000   38.173400  -111.925000
  H    -127.544000   39.080700  -113.329000
  H    -127.610000   39.759300  -111.727000
  H    -123.246000   33.072500  -114.169000
  H    -121.920000   38.740000  -108.366000

 Total Charge           Charge          ....    0
 Multiplicity           Mult            ....    1
 Number of Electrons    NEL             ....  134
 Basis Dimension        Dim             ....  322

ORBITAL ENERGIES
----------------

  NO   OCC          E(Eh)            E(eV)
   0   2.0000     -88.968525     -2420.9566
   1   2.0000     -88.962109     -2420.7820
   2   2.0000     -10.333157      -281.1795
   3   2.0000     -10.327399      -281.0228
   4   2.0000     -10.318316      -280.7757
   5   2.0000     -10.308012      -280.4953
   6   2.0000     -10.302380      -280.3420
   7   2.0000     -10.300040      -280.2783
   8   2.0000     -10.297202      -280.2011
   9   2.0000     -10.295255      -280.1481
  10   2.0000     -10.290069      -280.0070
  11   2.0000     -10.289339      -279.9872
  12   2.0000     -10.287343      -279.9328
  13   2.0000     -10.277599      -279.6677
  14   2.0000     -10.273549      -279.5575
  15   2.0000     -10.271239      -279.4946
  16   2.0000      -8.081777      -219.9163
  17   2.0000      -8.077202      -219.7918
  18   2.0000      -6.040493      -164.3702
  19   2.0000      -6.036606      -164.2644
  20   2.0000      -6.035758      -164.2413
  21   2.0000      -6.032296      -164.1471
  22   2.0000      -6.031778      -164.1330
  23   2.0000      -6.027780      -164.0242
  24   2.0000      -1.005178       -27.3523
  25   2.0000      -0.979795       -26.6616
  26   2.0000      -0.915445       -24.9105
  27   2.0000      -0.913555       -24.8591
  28   2.0000      -0.874801       -23.8046
  29   2.0000      -0.852104       -23.1869
  30   2.0000      -0.848505       -23.0890
  31   2.0000      -0.815363       -22.1872
  32   2.0000      -0.782898       -21.3037
  33   2.0000      -0.768720       -20.9179
  34   2.0000      -0.710545       -19.3349
  35   2.0000      -0.705184       -19.1890
  36   2.0000      -0.691992       -18.8301
  37   2.0000      -0.663744       -18.0614
  38   2.0000      -0.636759       -17.3271
  39   2.0000      -0.619140       -16.8477
  40   2.0000      -0.597486       -16.2584
  41   2.0000      -0.570728       -15.5303
  42   2.0000      -0.565092       -15.3769
  43   2.0000      -0.558264       -15.1911
  44   2.0000      -0.536328       -14.5942
  45   2.0000      -0.528875       -14.3914
  46   2.0000      -0.521334       -14.1862
  47   2.0000      -0.513078       -13.9616
  48   2.0000      -0.507567       -13.8116
  49   2.0000      -0.498383       -13.5617
  50   2.0000      -0.489985       -13.3332
  51   2.0000      -0.487086       -13.2543
  52   2.0000      -0.464376       -12.6363
  53   2.0000      -0.462119       -12.5749
  54   2.0000      -0.460648       -12.5349
  55   2.0000      -0.452923       -12.3247
  56   2.0000      -0.447762       -12.1842
  57   2.0000      -0.441177       -12.0050
  58   2.0000      -0.431928       -11.7533
  59   2.0000      -0.424799       -11.5594
  60   2.0000      -0.419211       -11.4073
  61   2.0000      -0.408413       -11.1135
  62   2.0000      -0.404413       -11.0046
  63   2.0000      -0.357072        -9.7164
  64   2.0000      -0.331963        -9.0332
  65   2.0000      -0.326631        -8.8881
  66   2.0000      -0.280640        -7.6366
  67   0.0000       0.019409         0.5281
  68   0.0000       0.072557         1.9744
  69   0.0000       0.096757         2.6329
  70   0.0000       0.129054         3.5117
  71   0.0000       0.132162         3.5963

MULLIKEN ATOMIC CHARGES
-----------------------
   0 S :    0.094769
   1 C :   -0.120456
   2 C :   -0.078265
   3 C :    0.015591
   4 C :   -0.123843
   5 H :   -0.011264
   6 C :    0.050862
   7 H :    0.015787
   8 H :    0.040599
   9 C :   -0.088747
  10 H :    0.039634
  11 H :    0.034597
  12 C :    0.013432
  13 H :    0.027391
  14 H :    0.021745
  15 H :    0.012223
  16 S :    0.087936
  17 C :   -0.071753
  18 C :   -0.027075
  19 C :   -0.063744
  20 C :   -0.128150
  21 H :    0.019758
  22 C :    0.068436
  23 H :    0.015892
  24 H :    0.041858
  25 C :   -0.097659
  26 H :    0.050120
  27 H :    0.023660
  28 C :   -0.022142
  29 H :    0.023891
  30 H :    0.028993
  31 H :    0.020058
  32 H :    0.045619
  33 H :    0.040246
Sum of atomic charges:   -0.0000000

LOEWDIN ATOMIC CHARGES
----------------------
   0 S :    0.373404
   1 C :   -0.184962
   2 C :   -0.061933
   3 C :   -0.055875
   4 C :   -0.182719
   5 H :    0.018882
   6 C :   -0.034905
   7 H :    0.026695
   8 H :    0.038440
   9 C :   -0.037191
  10 H :    0.026163
  11 H :    0.033462
  12 C :   -0.061299
  13 H :    0.020299
  14 H :    0.022011
  15 H :    0.029192
  16 S :    0.393009
  17 C :   -0.171173
  18 C :   -0.072474
  19 C :   -0.055336
  20 C :   -0.194922
  21 H :    0.035374
  22 C :   -0.030825
  23 H :    0.031736
  24 H :    0.031284
  25 C :   -0.046162
  26 H :    0.028640
  27 H :    0.028774
  28 C :   -0.068030
  29 H :    0.023852
  30 H :    0.022117
  31 H :    0.026179
  32 H :    0.026492
  33 H :    0.021799

  Mayer bond orders larger than 0.100000
B(  0-S ,  1-C ) :   1.1356 B(  0-S ,  4-C ) :   1.1252 B(  1-C ,  2-C ) :   1.6038
B(  1-C ,  4-C ) :   0.1031 B(  1-C , 32-H ) :   0.9656 B(  2-C ,  3-C ) :   1.2667
B(  2-C ,  6-C ) :   1.0091 B(  3-C ,  4-C ) :   1.5503 B(  3-C ,  5-H ) :   0.9908
B(  4-C , 20-C ) :   1.0921 B(  6-C ,  7-H ) :   0.9464 B(  6-C ,  8-H ) :   0.9387
B(  6-C ,  9-C ) :   1.0513 B(  9-C , 10-H ) :   0.9595 B(  9-C , 11-H ) :   0.9546
B(  9-C , 12-C ) :   1.0859 B( 12-C , 13-H ) :   0.9747 B( 12-C , 14-H ) :   0.9699
B( 12-C , 15-H ) :   0.9662 B( 16-S , 17-C ) :   1.1430 B( 16-S , 20-C ) :   1.1224
B( 17-C , 18-C ) :   1.6482 B( 17-C , 33-H ) :   0.9666 B( 18-C , 19-C ) :   1.2202
B( 18-C , 21-H ) :   0.9918 B( 19-C , 20-C ) :   1.5872 B( 19-C , 22-C ) :   1.0568
B( 22-C , 23-H ) :   0.9356 B( 22-C , 24-H ) :   0.9236 B( 22-C , 25-C ) :   1.0541
B( 25-C , 26-H ) :   0.9557 B( 25-C , 27-H ) :   0.9504 B( 25-C , 28-C ) :   1.0913
B( 28-C , 29-H ) :   0.9705 B( 28-C , 30-H ) :   0.9717 B( 28-C , 31-H ) :   0.9704

Dispersion correction           -0.013923556
FINAL SINGLE POINT ENERGY     -1339.866478565462

DIPOLE MOMENT
-------------
                                X             Y             Z
Electronic contribution:     29.61230       4.09635       8.56901
Nuclear contribution   :    -30.35528      -4.22060      -8.44097
                        -----------------------------------------
Total Dipole Moment    :     -0.74298      -0.12425       0.12804
                        -----------------------------------------
Magnitude (a.u.)       :      0.76410
Magnitude (Debye)      :      1.94219

Rotational constants in cm-1:     0.018471     0.008681     0.006494
Rotational constants in MHz :   553.757139   260.249309   194.691221

                             ****ORCA TERMINATED NORMALLY****
TOTAL RUN TIME: 0 days 0 hours 0 minutes 21 seconds 629 msec
