                         Program Version 4.2.1 -  RELEASE  -
|  1> ! wB97X-D3 SP def2-SVP
|  2> %pal
|  3> nprocs 24
|  4> end
|  5>
|  6> * xyz 0 1
|  7> S 	 46.6017 	 -36.0679 	 -119.022
|  8> C 	 45.2931 	 -35.7836 	 -120.158
|  9> C 	 45.7057 	 -35.5218 	 -121.435
| 10> C 	 47.0778 	 -35.2339 	 -121.412
| 11> C 	 47.7005 	 -35.4136 	 -120.207
| 12> H 	 47.5883 	 -34.808 	 -122.259
| 13> C 	 44.8016 	 -35.2341 	 -122.535
| 14> H 	 43.7972 	 -35.5259 	 -122.29
| 15> H 	 45.0596 	 -36.0163 	 -123.306
| 16> C 	 44.6952 	 -33.7153 	 -123.128
| 17> H 	 44.6252 	 -33.0311 	 -122.31
| 18> H 	 45.5598 	 -33.4825 	 -123.779
| 19> C 	 43.3377 	 -33.5388 	 -123.849
| 20> H 	 43.2571 	 -34.2541 	 -124.686
| 21> H 	 42.539 	 -33.7756 	 -123.155
| 22> H 	 43.2868 	 -32.5909 	 -124.352
| 23> S 	 50.4686 	 -36.2354 	 -120.088
| 24> C 	 51.5774 	 -34.911 	 -119.532
| 25> C 	 50.9718 	 -33.6775 	 -119.477
| 26> C 	 49.5277 	 -33.8149 	 -119.653
| 27> C 	 49.0857 	 -35.0905 	 -119.919
| 28> H 	 51.6152 	 -32.903 	 -119.164
| 29> C 	 48.6456 	 -32.5487 	 -119.533
| 30> H 	 47.9332 	 -32.693 	 -120.356
| 31> H 	 49.3298 	 -31.7526 	 -119.821
| 32> C 	 47.972 	 -32.3125 	 -118.203
| 33> H 	 48.826 	 -32.0928 	 -117.528
| 34> H 	 47.386 	 -33.1614 	 -117.884
| 35> C 	 47.0664 	 -31.0502 	 -118.269
| 36> H 	 47.6425 	 -30.1663 	 -118.645
| 37> H 	 46.5612 	 -30.6752 	 -117.342
| 38> H 	 46.3613 	 -31.3278 	 -119.025
| 39> H 	 44.2863 	 -35.9368 	 -119.818
| 40> H 	 52.5772 	 -35.0922 	 -119.251
| 41> *
| 42>
| 43>                          ****END OF INPUT****

CARTESIAN COORDINATES (ANGSTROEM)
---------------------------------
  S     46.601700  -36.067900  -119.022000
  C     45.293100  -35.783600  -120.158000
  C     45.705700  -35.521800  -121.435000
  C     47.077800  -35.233900  -121.412000
  C     47.700500  -35.413600  -120.207000
  H     47.588300  -34.808000  -122.259000
  C     44.801600  -35.234100  -122.535000
  H     43.797200  -35.525900  -122.290000
  H     45.059600  -36.016300  -123.306000
  C     44.695200  -33.715300  -123.128000
  H     44.625200  -33.031100  -122.310000
  H     45.559800  -33.482500  -123.779000
  C     43.337700  -33.538800  -123.849000
  H     43.257100  -34.254100  -124.686000
  H     42.539000  -33.775600  -123.155000
  H     43.286800  -32.590900  -124.352000
  S     50.468600  -36.235400  -120.088000
  C     51.577400  -34.911000  -119.532000
  C     50.971800  -33.677500  -119.477000
  C     49.527700  -33.814900  -119.653000
  C     49.085700  -35.090500  -119.919000
  H     51.615200  -32.903000  -119.164000
  C     48.645600  -32.548700  -119.533000
  H     47.933200  -32.693000  -120.356000
  H     49.329800  -31.752600  -119.821000
  C     47.972000  -32.312500  -118.203000
  H     48.826000  -32.092800  -117.528000
  H     47.386000  -33.161400  -117.884000
  C     47.066400  -31.050200  -118.269000
  H     47.642500  -30.166300  -118.645000
  H     46.561200  -30.675200  -117.342000
  H     46.361300  -31.327800  -119.025000
  H     44.286300  -35.936800  -119.818000
  H     52.577200  -35.092200  -119.251000

 Total Charge           Charge          ....    0
 Multiplicity           Mult            ....    1
 Number of Electrons    NEL             ....  134
 Basis Dimension        Dim             ....  322

ORBITAL ENERGIES
----------------

  NO   OCC          E(Eh)            E(eV)
   0   2.0000     -88.965927     -2420.8859
   1   2.0000     -88.962360     -2420.7889
   2   2.0000     -10.323719      -280.9227
   3   2.0000     -10.323366      -280.9131
   4   2.0000     -10.318427      -280.7787
   5   2.0000     -10.311808      -280.5986
   6   2.0000     -10.305066      -280.4151
   7   2.0000     -10.298432      -280.2346
   8   2.0000     -10.297248      -280.2024
   9   2.0000     -10.294640      -280.1314
  10   2.0000     -10.293670      -280.1050
  11   2.0000     -10.289524      -279.9922
  12   2.0000     -10.287373      -279.9336
  13   2.0000     -10.283683      -279.8332
  14   2.0000     -10.282075      -279.7895
  15   2.0000     -10.278658      -279.6965
  16   2.0000      -8.080776      -219.8891
  17   2.0000      -8.075511      -219.7458
  18   2.0000      -6.039130      -164.3331
  19   2.0000      -6.035378      -164.2310
  20   2.0000      -6.034255      -164.2004
  21   2.0000      -6.031576      -164.1275
  22   2.0000      -6.030457      -164.0971
  23   2.0000      -6.025909      -163.9733
  24   2.0000      -1.006973       -27.4011
  25   2.0000      -0.976567       -26.5737
  26   2.0000      -0.909620       -24.7520
  27   2.0000      -0.903613       -24.5886
  28   2.0000      -0.870151       -23.6780
  29   2.0000      -0.854664       -23.2566
  30   2.0000      -0.840125       -22.8610
  31   2.0000      -0.816808       -22.2265
  32   2.0000      -0.780555       -21.2400
  33   2.0000      -0.764205       -20.7951
  34   2.0000      -0.711756       -19.3679
  35   2.0000      -0.699860       -19.0442
  36   2.0000      -0.689316       -18.7572
  37   2.0000      -0.659809       -17.9543
  38   2.0000      -0.645522       -17.5655
  39   2.0000      -0.624531       -16.9944
  40   2.0000      -0.584300       -15.8996
  41   2.0000      -0.573333       -15.6012
  42   2.0000      -0.568635       -15.4733
  43   2.0000      -0.563930       -15.3453
  44   2.0000      -0.527384       -14.3509
  45   2.0000      -0.520707       -14.1692
  46   2.0000      -0.516391       -14.0517
  47   2.0000      -0.510792       -13.8994
  48   2.0000      -0.505322       -13.7505
  49   2.0000      -0.492559       -13.4032
  50   2.0000      -0.487199       -13.2574
  51   2.0000      -0.483527       -13.1574
  52   2.0000      -0.466720       -12.7001
  53   2.0000      -0.462097       -12.5743
  54   2.0000      -0.451816       -12.2945
  55   2.0000      -0.448647       -12.2083
  56   2.0000      -0.442130       -12.0310
  57   2.0000      -0.439879       -11.9697
  58   2.0000      -0.432051       -11.7567
  59   2.0000      -0.429033       -11.6746
  60   2.0000      -0.423086       -11.5127
  61   2.0000      -0.420016       -11.4292
  62   2.0000      -0.406036       -11.0488
  63   2.0000      -0.335484        -9.1290
  64   2.0000      -0.330147        -8.9837
  65   2.0000      -0.317771        -8.6470
  66   2.0000      -0.309803        -8.4302
  67   0.0000       0.044473         1.2102
  68   0.0000       0.050471         1.3734
  69   0.0000       0.106258         2.8914
  70   0.0000       0.115676         3.1477
  71   0.0000       0.131182         3.5696

MULLIKEN ATOMIC CHARGES
-----------------------
   0 S :    0.115601
   1 C :   -0.142160
   2 C :   -0.038212
   3 C :    0.043007
   4 C :   -0.202313
   5 H :    0.008460
   6 C :    0.047861
   7 H :   -0.002285
   8 H :    0.042479
   9 C :   -0.062410
  10 H :    0.034833
  11 H :    0.045132
  12 C :   -0.059735
  13 H :    0.025104
  14 H :    0.040219
  15 H :    0.037863
  16 S :    0.086943
  17 C :   -0.094492
  18 C :   -0.000824
  19 C :   -0.059174
  20 C :   -0.137372
  21 H :    0.012193
  22 C :    0.076682
  23 H :    0.018928
  24 H :    0.018157
  25 C :   -0.039432
  26 H :    0.027029
  27 H :    0.034498
  28 C :   -0.058859
  29 H :    0.026104
  30 H :    0.047540
  31 H :    0.025974
  32 H :    0.039425
  33 H :    0.043237
Sum of atomic charges:   -0.0000000

LOEWDIN ATOMIC CHARGES
----------------------
   0 S :    0.405646
   1 C :   -0.178588
   2 C :   -0.074847
   3 C :   -0.048357
   4 C :   -0.197357
   5 H :    0.031197
   6 C :   -0.037339
   7 H :    0.024168
   8 H :    0.043648
   9 C :   -0.029475
  10 H :    0.022076
  11 H :    0.026586
  12 C :   -0.065169
  13 H :    0.024816
  14 H :    0.025724
  15 H :    0.026162
  16 S :    0.344500
  17 C :   -0.144923
  18 C :   -0.068576
  19 C :   -0.041551
  20 C :   -0.196090
  21 H :    0.029812
  22 C :   -0.031437
  23 H :    0.027509
  24 H :    0.028739
  25 C :   -0.036718
  26 H :    0.025874
  27 H :    0.020923
  28 C :   -0.071710
  29 H :    0.026207
  30 H :    0.030096
  31 H :    0.021119
  32 H :    0.018841
  33 H :    0.018496

  Mayer bond orders larger than 0.100000
B(  0-S ,  1-C ) :   1.1504 B(  0-S ,  4-C ) :   1.1399 B(  1-C ,  2-C ) :   1.5879
B(  1-C , 32-H ) :   0.9714 B(  2-C ,  3-C ) :   1.2242 B(  2-C ,  6-C ) :   1.0601
B(  3-C ,  4-C ) :   1.6036 B(  3-C ,  5-H ) :   0.9991 B(  4-C , 20-C ) :   1.0333
B(  6-C ,  7-H ) :   0.9401 B(  6-C ,  8-H ) :   0.9181 B(  6-C ,  9-C ) :   1.0340
B(  9-C , 10-H ) :   0.9622 B(  9-C , 11-H ) :   0.9558 B(  9-C , 12-C ) :   1.0839
B( 12-C , 13-H ) :   0.9763 B( 12-C , 14-H ) :   0.9762 B( 12-C , 15-H ) :   0.9737
B( 16-S , 17-C ) :   1.1322 B( 16-S , 20-C ) :   1.0953 B( 17-C , 18-C ) :   1.6706
B( 17-C , 33-H ) :   0.9681 B( 18-C , 19-C ) :   1.1802 B( 18-C , 21-H ) :   0.9942
B( 19-C , 20-C ) :   1.6659 B( 19-C , 22-C ) :   1.0221 B( 22-C , 23-H ) :   0.9213
B( 22-C , 24-H ) :   0.9346 B( 22-C , 25-C ) :   1.0734 B( 25-C , 26-H ) :   0.9524
B( 25-C , 27-H ) :   0.9540 B( 25-C , 28-C ) :   1.0706 B( 28-C , 29-H ) :   0.9738
B( 28-C , 30-H ) :   0.9759 B( 28-C , 31-H ) :   0.9771

Dispersion correction           -0.014778708
FINAL SINGLE POINT ENERGY     -1339.867026057883

DIPOLE MOMENT
-------------
                                X             Y             Z
Electronic contribution:     17.57036     -21.38449       8.77179
Nuclear contribution   :    -17.87173      21.95394      -9.07401
                        -----------------------------------------
Total Dipole Moment    :     -0.30138       0.56945      -0.30221
                        -----------------------------------------
Magnitude (a.u.)       :      0.71164
Magnitude (Debye)      :      1.80885

Rotational constants in cm-1:     0.018026     0.008500     0.007293
Rotational constants in MHz :   540.419516   254.814645   218.635813

                             ****ORCA TERMINATED NORMALLY****
TOTAL RUN TIME: 0 days 0 hours 0 minutes 22 seconds 34 msec
