                         Program Version 4.2.1 -  RELEASE  -
|  1> ! wB97X-D3 SP def2-SVP
|  2> %pal
|  3> nprocs 24
|  4> end
|  5>
|  6> * xyz 0 1
|  7> S 	 -49.9487 	 0.551551 	 -23.3907
|  8> C 	 -48.5468 	 1.5798 	 -23.0144
|  9> C 	 -48.974 	 2.71581 	 -22.3805
| 10> C 	 -50.3921 	 2.71839 	 -22.1186
| 11> C 	 -51.1087 	 1.58498 	 -22.5624
| 12> H 	 -50.939 	 3.49464 	 -21.7522
| 13> C 	 -48.1095 	 3.85008 	 -21.9004
| 14> H 	 -47.1977 	 3.46146 	 -21.5907
| 15> H 	 -48.4317 	 4.41464 	 -21.0137
| 16> C 	 -47.847 	 4.88583 	 -23.0638
| 17> H 	 -47.4947 	 4.35812 	 -23.9076
| 18> H 	 -48.7732 	 5.43541 	 -23.3526
| 19> C 	 -46.9283 	 5.98796 	 -22.6025
| 20> H 	 -47.4902 	 6.41845 	 -21.7234
| 21> H 	 -46.0165 	 5.45101 	 -22.1948
| 22> H 	 -46.7252 	 6.81577 	 -23.3203
| 23> S 	 -53.2306 	 0.68144 	 -24.147
| 24> C 	 -54.8883 	 0.686396 	 -23.4251
| 25> C 	 -54.765 	 1.10299 	 -22.1123
| 26> C 	 -53.4713 	 1.54392 	 -21.6827
| 27> C 	 -52.5525 	 1.29152 	 -22.6429
| 28> H 	 -55.7636 	 1.11113 	 -21.6025
| 29> C 	 -53.326 	 2.01918 	 -20.2807
| 30> H 	 -53.4417 	 3.14669 	 -20.3913
| 31> H 	 -52.2453 	 1.9032 	 -20.0578
| 32> C 	 -54.0826 	 1.38399 	 -19.0552
| 33> H 	 -54.0282 	 0.258741 	 -19.0596
| 34> H 	 -55.2237 	 1.61994 	 -19.0731
| 35> C 	 -53.5335 	 1.96429 	 -17.7007
| 36> H 	 -52.4235 	 1.81666 	 -17.7222
| 37> H 	 -53.7754 	 1.45599 	 -16.7436
| 38> H 	 -53.739 	 3.01013 	 -17.471
| 39> H 	 -47.5332 	 1.5348 	 -23.418
| 40> H 	 -55.8267 	 0.161634 	 -23.8952
| 41> *
| 42>
| 43>                          ****END OF INPUT****

CARTESIAN COORDINATES (ANGSTROEM)
---------------------------------
  S    -49.948700    0.551551  -23.390700
  C    -48.546800    1.579800  -23.014400
  C    -48.974000    2.715810  -22.380500
  C    -50.392100    2.718390  -22.118600
  C    -51.108700    1.584980  -22.562400
  H    -50.939000    3.494640  -21.752200
  C    -48.109500    3.850080  -21.900400
  H    -47.197700    3.461460  -21.590700
  H    -48.431700    4.414640  -21.013700
  C    -47.847000    4.885830  -23.063800
  H    -47.494700    4.358120  -23.907600
  H    -48.773200    5.435410  -23.352600
  C    -46.928300    5.987960  -22.602500
  H    -47.490200    6.418450  -21.723400
  H    -46.016500    5.451010  -22.194800
  H    -46.725200    6.815770  -23.320300
  S    -53.230600    0.681440  -24.147000
  C    -54.888300    0.686396  -23.425100
  C    -54.765000    1.102990  -22.112300
  C    -53.471300    1.543920  -21.682700
  C    -52.552500    1.291520  -22.642900
  H    -55.763600    1.111130  -21.602500
  C    -53.326000    2.019180  -20.280700
  H    -53.441700    3.146690  -20.391300
  H    -52.245300    1.903200  -20.057800
  C    -54.082600    1.383990  -19.055200
  H    -54.028200    0.258741  -19.059600
  H    -55.223700    1.619940  -19.073100
  C    -53.533500    1.964290  -17.700700
  H    -52.423500    1.816660  -17.722200
  H    -53.775400    1.455990  -16.743600
  H    -53.739000    3.010130  -17.471000
  H    -47.533200    1.534800  -23.418000
  H    -55.826700    0.161634  -23.895200

 Total Charge           Charge          ....    0
 Multiplicity           Mult            ....    1
 Number of Electrons    NEL             ....  134
 Basis Dimension        Dim             ....  322

ORBITAL ENERGIES
----------------

  NO   OCC          E(Eh)            E(eV)
   0   2.0000     -88.965797     -2420.8824
   1   2.0000     -88.964790     -2420.8550
   2   2.0000     -10.336111      -281.2599
   3   2.0000     -10.331413      -281.1320
   4   2.0000     -10.329694      -281.0853
   5   2.0000     -10.317081      -280.7420
   6   2.0000     -10.312628      -280.6209
   7   2.0000     -10.304247      -280.3928
   8   2.0000     -10.303617      -280.3757
   9   2.0000     -10.303257      -280.3659
  10   2.0000     -10.298329      -280.2318
  11   2.0000     -10.291844      -280.0553
  12   2.0000     -10.291810      -280.0544
  13   2.0000     -10.288675      -279.9691
  14   2.0000     -10.287351      -279.9331
  15   2.0000     -10.285265      -279.8763
  16   2.0000      -8.079637      -219.8581
  17   2.0000      -8.078799      -219.8353
  18   2.0000      -6.038451      -164.3146
  19   2.0000      -6.037552      -164.2902
  20   2.0000      -6.034333      -164.2026
  21   2.0000      -6.033206      -164.1719
  22   2.0000      -6.030032      -164.0855
  23   2.0000      -6.029527      -164.0718
  24   2.0000      -1.004596       -27.3364
  25   2.0000      -0.981324       -26.7032
  26   2.0000      -0.913658       -24.8619
  27   2.0000      -0.901920       -24.5425
  28   2.0000      -0.869926       -23.6719
  29   2.0000      -0.850916       -23.1546
  30   2.0000      -0.841496       -22.8983
  31   2.0000      -0.815627       -22.1943
  32   2.0000      -0.778984       -21.1972
  33   2.0000      -0.771050       -20.9813
  34   2.0000      -0.707654       -19.2562
  35   2.0000      -0.698804       -19.0154
  36   2.0000      -0.695915       -18.9368
  37   2.0000      -0.655489       -17.8368
  38   2.0000      -0.641548       -17.4574
  39   2.0000      -0.620204       -16.8766
  40   2.0000      -0.592000       -16.1091
  41   2.0000      -0.575446       -15.6587
  42   2.0000      -0.560467       -15.2511
  43   2.0000      -0.558537       -15.1986
  44   2.0000      -0.529863       -14.4183
  45   2.0000      -0.521506       -14.1909
  46   2.0000      -0.512310       -13.9407
  47   2.0000      -0.510668       -13.8960
  48   2.0000      -0.507700       -13.8152
  49   2.0000      -0.499072       -13.5804
  50   2.0000      -0.496057       -13.4984
  51   2.0000      -0.472231       -12.8500
  52   2.0000      -0.470538       -12.8040
  53   2.0000      -0.458514       -12.4768
  54   2.0000      -0.455271       -12.3886
  55   2.0000      -0.446664       -12.1543
  56   2.0000      -0.443907       -12.0793
  57   2.0000      -0.434289       -11.8176
  58   2.0000      -0.430522       -11.7151
  59   2.0000      -0.426954       -11.6180
  60   2.0000      -0.418508       -11.3882
  61   2.0000      -0.415025       -11.2934
  62   2.0000      -0.414007       -11.2657
  63   2.0000      -0.352203        -9.5839
  64   2.0000      -0.330730        -8.9996
  65   2.0000      -0.327377        -8.9084
  66   2.0000      -0.294228        -8.0064
  67   0.0000       0.022824         0.6211
  68   0.0000       0.073427         1.9981
  69   0.0000       0.106412         2.8956
  70   0.0000       0.122095         3.3224
  71   0.0000       0.131800         3.5865

MULLIKEN ATOMIC CHARGES
-----------------------
   0 S :    0.088429
   1 C :   -0.104845
   2 C :   -0.083153
   3 C :    0.069584
   4 C :   -0.164855
   5 H :   -0.032973
   6 C :    0.063374
   7 H :    0.003097
   8 H :    0.023313
   9 C :   -0.076229
  10 H :    0.020331
  11 H :    0.032649
  12 C :   -0.064800
  13 H :    0.027997
  14 H :    0.033612
  15 H :    0.055778
  16 S :    0.095470
  17 C :   -0.148481
  18 C :   -0.055902
  19 C :   -0.025867
  20 C :   -0.115665
  21 H :    0.039219
  22 C :    0.022139
  23 H :    0.056280
  24 H :    0.032239
  25 C :   -0.079142
  26 H :    0.055246
  27 H :    0.047042
  28 C :   -0.080804
  29 H :    0.032358
  30 H :    0.037723
  31 H :    0.040379
  32 H :    0.054712
  33 H :    0.101747
Sum of atomic charges:    0.0000000

LOEWDIN ATOMIC CHARGES
----------------------
   0 S :    0.390723
   1 C :   -0.194718
   2 C :   -0.058422
   3 C :   -0.054644
   4 C :   -0.179998
   5 H :    0.010933
   6 C :   -0.025415
   7 H :    0.019731
   8 H :    0.032346
   9 C :   -0.038397
  10 H :    0.012791
  11 H :    0.027570
  12 C :   -0.075291
  13 H :    0.028654
  14 H :    0.027662
  15 H :    0.031243
  16 S :    0.371838
  17 C :   -0.191781
  18 C :   -0.075840
  19 C :   -0.064991
  20 C :   -0.193191
  21 H :    0.040808
  22 C :   -0.045095
  23 H :    0.046305
  24 H :    0.034541
  25 C :   -0.044458
  26 H :    0.035622
  27 H :    0.030735
  28 C :   -0.079539
  29 H :    0.028944
  30 H :    0.031192
  31 H :    0.025821
  32 H :    0.036339
  33 H :    0.057981

  Mayer bond orders larger than 0.100000
B(  0-S ,  1-C ) :   1.1256 B(  0-S ,  4-C ) :   1.1508 B(  1-C ,  2-C ) :   1.6223
B(  1-C , 32-H ) :   0.9618 B(  2-C ,  3-C ) :   1.2447 B(  2-C ,  6-C ) :   1.0250
B(  3-C ,  4-C ) :   1.5495 B(  3-C ,  5-H ) :   1.0081 B(  4-C , 20-C ) :   1.0391
B(  6-C ,  7-H ) :   0.9383 B(  6-C ,  8-H ) :   0.9485 B(  6-C ,  9-C ) :   1.0499
B(  9-C , 10-H ) :   0.9597 B(  9-C , 11-H ) :   0.9581 B(  9-C , 12-C ) :   1.0733
B( 12-C , 13-H ) :   0.9726 B( 12-C , 14-H ) :   0.9732 B( 12-C , 15-H ) :   0.9728
B( 16-S , 17-C ) :   1.1174 B( 16-S , 20-C ) :   1.1263 B( 17-C , 18-C ) :   1.6583
B( 17-C , 33-H ) :   0.9504 B( 18-C , 19-C ) :   1.1956 B( 18-C , 21-H ) :   0.9796
B( 19-C , 20-C ) :   1.6254 B( 19-C , 22-C ) :   1.0489 B( 22-C , 23-H ) :   0.9197
B( 22-C , 24-H ) :   0.9324 B( 22-C , 25-C ) :   1.0471 B( 25-C , 26-H ) :   0.9587
B( 25-C , 27-H ) :   0.9503 B( 25-C , 28-C ) :   1.0646 B( 28-C , 29-H ) :   0.9755
B( 28-C , 30-H ) :   0.9759 B( 28-C , 31-H ) :   0.9791

Dispersion correction           -0.013312886
FINAL SINGLE POINT ENERGY     -1339.854640092575

DIPOLE MOMENT
-------------
                                X             Y             Z
Electronic contribution:     -7.13122     -18.56528     -19.83256
Nuclear contribution   :      7.03890      19.04564      20.34930
                        -----------------------------------------
Total Dipole Moment    :     -0.09232       0.48036       0.51674
                        -----------------------------------------
Magnitude (a.u.)       :      0.71154
Magnitude (Debye)      :      1.80859

Rotational constants in cm-1:     0.017519     0.007712     0.006072
Rotational constants in MHz :   525.203436   231.187334   182.029021

                             ****ORCA TERMINATED NORMALLY****
TOTAL RUN TIME: 0 days 0 hours 0 minutes 20 seconds 674 msec
