                         Program Version 4.2.1 -  RELEASE  -
|  1> ! wB97X-D3 SP def2-SVP
|  2> %pal
|  3> nprocs 24
|  4> end
|  5>
|  6> * xyz 0 1
|  7> S 	 22.2358 	 -9.14899 	 -113.675
|  8> C 	 23.9178 	 -9.2739 	 -113.456
|  9> C 	 24.563 	 -8.12496 	 -113.874
| 10> C 	 23.6864 	 -7.21836 	 -114.632
| 11> C 	 22.3908 	 -7.73758 	 -114.747
| 12> H 	 23.9962 	 -6.29656 	 -115.178
| 13> C 	 26.0581 	 -7.90273 	 -113.822
| 14> H 	 26.4232 	 -6.86586 	 -113.454
| 15> H 	 26.4336 	 -7.96038 	 -114.829
| 16> C 	 26.927 	 -8.98112 	 -113.25
| 17> H 	 26.6057 	 -9.16033 	 -112.196
| 18> H 	 26.9358 	 -9.96178 	 -113.78
| 19> C 	 28.3537 	 -8.46655 	 -113.035
| 20> H 	 28.9861 	 -9.24035 	 -112.703
| 21> H 	 28.7601 	 -8.195 	 -113.99
| 22> H 	 28.2581 	 -7.71814 	 -112.25
| 23> S 	 21.0878 	 -8.31899 	 -117.067
| 24> C 	 19.6785 	 -7.41786 	 -117.568
| 25> C 	 19.4946 	 -6.33756 	 -116.746
| 26> C 	 20.4802 	 -6.28747 	 -115.694
| 27> C 	 21.3192 	 -7.37474 	 -115.597
| 28> H 	 18.6266 	 -5.67448 	 -116.931
| 29> C 	 20.4342 	 -5.09439 	 -114.626
| 30> H 	 20.9684 	 -5.25583 	 -113.706
| 31> H 	 19.3925 	 -4.99241 	 -114.338
| 32> C 	 20.9766 	 -3.74302 	 -115.109
| 33> H 	 20.261 	 -3.28708 	 -115.692
| 34> H 	 21.8511 	 -3.8047 	 -115.772
| 35> C 	 21.3389 	 -2.71532 	 -113.998
| 36> H 	 22.2661 	 -3.04373 	 -113.454
| 37> H 	 20.5978 	 -2.50059 	 -113.34
| 38> H 	 21.631 	 -1.81785 	 -114.489
| 39> H 	 24.4345 	 -9.98573 	 -112.881
| 40> H 	 18.9065 	 -7.63765 	 -118.315
| 41> *
| 42>
| 43>                          ****END OF INPUT****

CARTESIAN COORDINATES (ANGSTROEM)
---------------------------------
  S     22.235800   -9.148990  -113.675000
  C     23.917800   -9.273900  -113.456000
  C     24.563000   -8.124960  -113.874000
  C     23.686400   -7.218360  -114.632000
  C     22.390800   -7.737580  -114.747000
  H     23.996200   -6.296560  -115.178000
  C     26.058100   -7.902730  -113.822000
  H     26.423200   -6.865860  -113.454000
  H     26.433600   -7.960380  -114.829000
  C     26.927000   -8.981120  -113.250000
  H     26.605700   -9.160330  -112.196000
  H     26.935800   -9.961780  -113.780000
  C     28.353700   -8.466550  -113.035000
  H     28.986100   -9.240350  -112.703000
  H     28.760100   -8.195000  -113.990000
  H     28.258100   -7.718140  -112.250000
  S     21.087800   -8.318990  -117.067000
  C     19.678500   -7.417860  -117.568000
  C     19.494600   -6.337560  -116.746000
  C     20.480200   -6.287470  -115.694000
  C     21.319200   -7.374740  -115.597000
  H     18.626600   -5.674480  -116.931000
  C     20.434200   -5.094390  -114.626000
  H     20.968400   -5.255830  -113.706000
  H     19.392500   -4.992410  -114.338000
  C     20.976600   -3.743020  -115.109000
  H     20.261000   -3.287080  -115.692000
  H     21.851100   -3.804700  -115.772000
  C     21.338900   -2.715320  -113.998000
  H     22.266100   -3.043730  -113.454000
  H     20.597800   -2.500590  -113.340000
  H     21.631000   -1.817850  -114.489000
  H     24.434500   -9.985730  -112.881000
  H     18.906500   -7.637650  -118.315000

 Total Charge           Charge          ....    0
 Multiplicity           Mult            ....    1
 Number of Electrons    NEL             ....  134
 Basis Dimension        Dim             ....  322

ORBITAL ENERGIES
----------------

  NO   OCC          E(Eh)            E(eV)
   0   2.0000     -88.962625     -2420.7961
   1   2.0000     -88.960993     -2420.7517
   2   2.0000     -10.330452      -281.1059
   3   2.0000     -10.323643      -280.9206
   4   2.0000     -10.317732      -280.7598
   5   2.0000     -10.310421      -280.5608
   6   2.0000     -10.308900      -280.5194
   7   2.0000     -10.306513      -280.4545
   8   2.0000     -10.305025      -280.4140
   9   2.0000     -10.295733      -280.1611
  10   2.0000     -10.295002      -280.1412
  11   2.0000     -10.290268      -280.0124
  12   2.0000     -10.288230      -279.9570
  13   2.0000     -10.278182      -279.6836
  14   2.0000     -10.274776      -279.5909
  15   2.0000     -10.270755      -279.4814
  16   2.0000      -8.077999      -219.8135
  17   2.0000      -8.075828      -219.7545
  18   2.0000      -6.036478      -164.2609
  19   2.0000      -6.034483      -164.2066
  20   2.0000      -6.032482      -164.1522
  21   2.0000      -6.030267      -164.0919
  22   2.0000      -6.028656      -164.0481
  23   2.0000      -6.026430      -163.9875
  24   2.0000      -1.006548       -27.3896
  25   2.0000      -0.984055       -26.7775
  26   2.0000      -0.919374       -25.0175
  27   2.0000      -0.900642       -24.5077
  28   2.0000      -0.876969       -23.8635
  29   2.0000      -0.849157       -23.1067
  30   2.0000      -0.842202       -22.9175
  31   2.0000      -0.816431       -22.2162
  32   2.0000      -0.782393       -21.2900
  33   2.0000      -0.772147       -21.0112
  34   2.0000      -0.711588       -19.3633
  35   2.0000      -0.698285       -19.0013
  36   2.0000      -0.692966       -18.8566
  37   2.0000      -0.655591       -17.8395
  38   2.0000      -0.641786       -17.4639
  39   2.0000      -0.610477       -16.6119
  40   2.0000      -0.592406       -16.1202
  41   2.0000      -0.583270       -15.8716
  42   2.0000      -0.576021       -15.6743
  43   2.0000      -0.562297       -15.3009
  44   2.0000      -0.526635       -14.3305
  45   2.0000      -0.521041       -14.1783
  46   2.0000      -0.518448       -14.1077
  47   2.0000      -0.512487       -13.9455
  48   2.0000      -0.511326       -13.9139
  49   2.0000      -0.501613       -13.6496
  50   2.0000      -0.492592       -13.4041
  51   2.0000      -0.477663       -12.9979
  52   2.0000      -0.473100       -12.8737
  53   2.0000      -0.465745       -12.6736
  54   2.0000      -0.458120       -12.4661
  55   2.0000      -0.443922       -12.0797
  56   2.0000      -0.441045       -12.0014
  57   2.0000      -0.438699       -11.9376
  58   2.0000      -0.435082       -11.8392
  59   2.0000      -0.422873       -11.5070
  60   2.0000      -0.418828       -11.3969
  61   2.0000      -0.410307       -11.1650
  62   2.0000      -0.405198       -11.0260
  63   2.0000      -0.338770        -9.2184
  64   2.0000      -0.325266        -8.8509
  65   2.0000      -0.320364        -8.7175
  66   2.0000      -0.308208        -8.3868
  67   0.0000       0.031519         0.8577
  68   0.0000       0.063412         1.7255
  69   0.0000       0.105761         2.8779
  70   0.0000       0.126192         3.4339
  71   0.0000       0.131489         3.5780

MULLIKEN ATOMIC CHARGES
-----------------------
   0 S :    0.125653
   1 C :   -0.084182
   2 C :   -0.086107
   3 C :    0.055485
   4 C :   -0.196497
   5 H :    0.035524
   6 C :    0.030808
   7 H :    0.045811
   8 H :    0.029635
   9 C :   -0.156175
  10 H :    0.024332
  11 H :    0.047007
  12 C :   -0.003431
  13 H :    0.018983
  14 H :    0.021275
  15 H :    0.038288
  16 S :    0.107932
  17 C :   -0.085901
  18 C :   -0.056486
  19 C :   -0.011220
  20 C :   -0.158971
  21 H :    0.035085
  22 C :    0.078914
  23 H :    0.017308
  24 H :    0.024371
  25 C :   -0.069528
  26 H :    0.003461
  27 H :    0.027510
  28 C :   -0.031250
  29 H :    0.034802
  30 H :    0.016617
  31 H :    0.021601
  32 H :    0.035868
  33 H :    0.063478
Sum of atomic charges:   -0.0000000

LOEWDIN ATOMIC CHARGES
----------------------
   0 S :    0.415652
   1 C :   -0.202127
   2 C :   -0.066407
   3 C :   -0.046328
   4 C :   -0.194841
   5 H :    0.041555
   6 C :   -0.048650
   7 H :    0.042155
   8 H :    0.034877
   9 C :   -0.052701
  10 H :    0.019006
  11 H :    0.027219
  12 C :   -0.051879
  13 H :    0.020569
  14 H :    0.019787
  15 H :    0.028987
  16 S :    0.403595
  17 C :   -0.186932
  18 C :   -0.083565
  19 C :   -0.044843
  20 C :   -0.210228
  21 H :    0.039015
  22 C :   -0.026483
  23 H :    0.024863
  24 H :    0.029209
  25 C :   -0.037403
  26 H :    0.009095
  27 H :    0.026224
  28 C :   -0.053999
  29 H :    0.030423
  30 H :    0.008329
  31 H :    0.024992
  32 H :    0.021274
  33 H :    0.039561

  Mayer bond orders larger than 0.100000
B(  0-S ,  1-C ) :   1.1387 B(  0-S ,  4-C ) :   1.1425 B(  1-C ,  2-C ) :   1.6342
B(  1-C , 32-H ) :   0.9594 B(  2-C ,  3-C ) :   1.2124 B(  2-C ,  6-C ) :   1.0169
B(  3-C ,  4-C ) :   1.5931 B(  3-C ,  5-H ) :   0.9909 B(  4-C , 20-C ) :   1.0486
B(  6-C ,  7-H ) :   0.9419 B(  6-C ,  8-H ) :   0.9331 B(  6-C ,  9-C ) :   1.0709
B(  9-C , 10-H ) :   0.9525 B(  9-C , 11-H ) :   0.9498 B(  9-C , 12-C ) :   1.0848
B( 12-C , 13-H ) :   0.9695 B( 12-C , 14-H ) :   0.9731 B( 12-C , 15-H ) :   0.9785
B( 16-S , 17-C ) :   1.1545 B( 16-S , 20-C ) :   1.1203 B( 17-C , 18-C ) :   1.6322
B( 17-C , 33-H ) :   0.9615 B( 18-C , 19-C ) :   1.2192 B( 18-C , 21-H ) :   0.9854
B( 19-C , 20-C ) :   1.6237 B( 19-C , 22-C ) :   1.0283 B( 22-C , 23-H ) :   0.9511
B( 22-C , 24-H ) :   0.9406 B( 22-C , 25-C ) :   1.0524 B( 25-C , 26-H ) :   0.9539
B( 25-C , 27-H ) :   0.9584 B( 25-C , 28-C ) :   1.0952 B( 28-C , 29-H ) :   0.9745
B( 28-C , 30-H ) :   0.9774 B( 28-C , 31-H ) :   0.9728

Dispersion correction           -0.013339875
FINAL SINGLE POINT ENERGY     -1339.849632988233

DIPOLE MOMENT
-------------
                                X             Y             Z
Electronic contribution:    -17.36205     -16.99759      -9.53522
Nuclear contribution   :     17.63170      17.47218       9.57196
                        -----------------------------------------
Total Dipole Moment    :      0.26965       0.47460       0.03674
                        -----------------------------------------
Magnitude (a.u.)       :      0.54709
Magnitude (Debye)      :      1.39058

Rotational constants in cm-1:     0.019193     0.007432     0.006050
Rotational constants in MHz :   575.377341   222.816265   181.371600

                             ****ORCA TERMINATED NORMALLY****
TOTAL RUN TIME: 0 days 0 hours 0 minutes 20 seconds 633 msec
