                         Program Version 4.2.1 -  RELEASE  -
|  1> ! wB97X-D3 SP def2-SVP
|  2> %pal
|  3> nprocs 24
|  4> end
|  5>
|  6> * xyz 0 1
|  7> S 	 -65.3568 	 -50.4315 	 -81.9948
|  8> C 	 -64.9304 	 -52.0661 	 -82.2708
|  9> C 	 -65.8619 	 -52.9454 	 -81.711
| 10> C 	 -66.976 	 -52.2065 	 -81.162
| 11> C 	 -66.8628 	 -50.8292 	 -81.1984
| 12> H 	 -67.8745 	 -52.6871 	 -80.9027
| 13> C 	 -65.8685 	 -54.444 	 -81.7146
| 14> H 	 -66.0744 	 -54.6866 	 -82.7938
| 15> H 	 -66.7594 	 -54.7739 	 -81.2207
| 16> C 	 -64.5874 	 -55.1924 	 -81.3208
| 17> H 	 -63.898 	 -55.1198 	 -82.1445
| 18> H 	 -64.0756 	 -54.6771 	 -80.4399
| 19> C 	 -64.8733 	 -56.6981 	 -80.9791
| 20> H 	 -65.2799 	 -57.2478 	 -81.7763
| 21> H 	 -63.9083 	 -57.2588 	 -80.7498
| 22> H 	 -65.5798 	 -56.7424 	 -80.1537
| 23> S 	 -68.5376 	 -49.9903 	 -79.1596
| 24> C 	 -69.5604 	 -48.6319 	 -79.3465
| 25> C 	 -69.2646 	 -47.9511 	 -80.5191
| 26> C 	 -68.2854 	 -48.6357 	 -81.341
| 27> C 	 -67.8688 	 -49.8407 	 -80.7697
| 28> H 	 -69.8623 	 -47.0788 	 -80.822
| 29> C 	 -67.881 	 -48.1746 	 -82.7502
| 30> H 	 -66.811 	 -48.1606 	 -82.8349
| 31> H 	 -68.1981 	 -47.1145 	 -82.8948
| 32> C 	 -68.3158 	 -49.0005 	 -83.9292
| 33> H 	 -68.0654 	 -50.0129 	 -83.7104
| 34> H 	 -67.6578 	 -48.7632 	 -84.7347
| 35> C 	 -69.799 	 -48.7826 	 -84.3284
| 36> H 	 -70.4412 	 -49.477 	 -83.7936
| 37> H 	 -70.0601 	 -49.1054 	 -85.338
| 38> H 	 -70.0528 	 -47.7046 	 -84.1473
| 39> H 	 -64.1929 	 -52.3426 	 -82.9547
| 40> H 	 -69.9769 	 -48.0395 	 -78.6107
| 41> *
| 42>
| 43>                          ****END OF INPUT****

CARTESIAN COORDINATES (ANGSTROEM)
---------------------------------
  S    -65.356800  -50.431500  -81.994800
  C    -64.930400  -52.066100  -82.270800
  C    -65.861900  -52.945400  -81.711000
  C    -66.976000  -52.206500  -81.162000
  C    -66.862800  -50.829200  -81.198400
  H    -67.874500  -52.687100  -80.902700
  C    -65.868500  -54.444000  -81.714600
  H    -66.074400  -54.686600  -82.793800
  H    -66.759400  -54.773900  -81.220700
  C    -64.587400  -55.192400  -81.320800
  H    -63.898000  -55.119800  -82.144500
  H    -64.075600  -54.677100  -80.439900
  C    -64.873300  -56.698100  -80.979100
  H    -65.279900  -57.247800  -81.776300
  H    -63.908300  -57.258800  -80.749800
  H    -65.579800  -56.742400  -80.153700
  S    -68.537600  -49.990300  -79.159600
  C    -69.560400  -48.631900  -79.346500
  C    -69.264600  -47.951100  -80.519100
  C    -68.285400  -48.635700  -81.341000
  C    -67.868800  -49.840700  -80.769700
  H    -69.862300  -47.078800  -80.822000
  C    -67.881000  -48.174600  -82.750200
  H    -66.811000  -48.160600  -82.834900
  H    -68.198100  -47.114500  -82.894800
  C    -68.315800  -49.000500  -83.929200
  H    -68.065400  -50.012900  -83.710400
  H    -67.657800  -48.763200  -84.734700
  C    -69.799000  -48.782600  -84.328400
  H    -70.441200  -49.477000  -83.793600
  H    -70.060100  -49.105400  -85.338000
  H    -70.052800  -47.704600  -84.147300
  H    -64.192900  -52.342600  -82.954700
  H    -69.976900  -48.039500  -78.610700

 Total Charge           Charge          ....    0
 Multiplicity           Mult            ....    1
 Number of Electrons    NEL             ....  134
 Basis Dimension        Dim             ....  322

ORBITAL ENERGIES
----------------

  NO   OCC          E(Eh)            E(eV)
   0   2.0000     -88.967594     -2420.9313
   1   2.0000     -88.967408     -2420.9263
   2   2.0000     -10.332573      -281.1636
   3   2.0000     -10.330264      -281.1008
   4   2.0000     -10.310360      -280.5592
   5   2.0000     -10.308217      -280.5008
   6   2.0000     -10.306517      -280.4546
   7   2.0000     -10.304041      -280.3872
   8   2.0000     -10.297215      -280.2015
   9   2.0000     -10.295826      -280.1637
  10   2.0000     -10.294126      -280.1174
  11   2.0000     -10.291417      -280.0437
  12   2.0000     -10.287768      -279.9444
  13   2.0000     -10.283729      -279.8345
  14   2.0000     -10.276357      -279.6339
  15   2.0000     -10.274781      -279.5910
  16   2.0000      -8.082652      -219.9401
  17   2.0000      -8.082354      -219.9320
  18   2.0000      -6.041042      -164.3851
  19   2.0000      -6.040875      -164.3806
  20   2.0000      -6.036995      -164.2750
  21   2.0000      -6.036667      -164.2661
  22   2.0000      -6.033620      -164.1832
  23   2.0000      -6.033270      -164.1736
  24   2.0000      -1.008147       -27.4331
  25   2.0000      -0.987884       -26.8817
  26   2.0000      -0.911880       -24.8135
  27   2.0000      -0.907729       -24.7006
  28   2.0000      -0.869836       -23.6694
  29   2.0000      -0.851448       -23.1691
  30   2.0000      -0.842501       -22.9256
  31   2.0000      -0.815584       -22.1932
  32   2.0000      -0.781919       -21.2771
  33   2.0000      -0.774261       -21.0687
  34   2.0000      -0.712142       -19.3784
  35   2.0000      -0.706137       -19.2150
  36   2.0000      -0.688138       -18.7252
  37   2.0000      -0.664284       -18.0761
  38   2.0000      -0.646115       -17.5817
  39   2.0000      -0.613936       -16.7061
  40   2.0000      -0.590726       -16.0745
  41   2.0000      -0.573919       -15.6171
  42   2.0000      -0.563643       -15.3375
  43   2.0000      -0.555149       -15.1064
  44   2.0000      -0.540838       -14.7169
  45   2.0000      -0.523440       -14.2435
  46   2.0000      -0.517918       -14.0933
  47   2.0000      -0.512121       -13.9355
  48   2.0000      -0.508851       -13.8465
  49   2.0000      -0.499758       -13.5991
  50   2.0000      -0.483364       -13.1530
  51   2.0000      -0.473276       -12.8785
  52   2.0000      -0.471500       -12.8302
  53   2.0000      -0.469016       -12.7626
  54   2.0000      -0.464130       -12.6296
  55   2.0000      -0.449312       -12.2264
  56   2.0000      -0.439947       -11.9716
  57   2.0000      -0.437212       -11.8971
  58   2.0000      -0.434124       -11.8131
  59   2.0000      -0.426551       -11.6070
  60   2.0000      -0.422253       -11.4901
  61   2.0000      -0.416792       -11.3415
  62   2.0000      -0.408633       -11.1195
  63   2.0000      -0.351250        -9.5580
  64   2.0000      -0.330286        -8.9875
  65   2.0000      -0.326497        -8.8844
  66   2.0000      -0.291946        -7.9443
  67   0.0000       0.023320         0.6346
  68   0.0000       0.073483         1.9996
  69   0.0000       0.113692         3.0937
  70   0.0000       0.119409         3.2493
  71   0.0000       0.127763         3.4766

MULLIKEN ATOMIC CHARGES
-----------------------
   0 S :    0.109008
   1 C :   -0.108406
   2 C :   -0.092911
   3 C :    0.017592
   4 C :   -0.137206
   5 H :   -0.001583
   6 C :    0.070920
   7 H :    0.040714
   8 H :    0.007711
   9 C :   -0.081141
  10 H :    0.026295
  11 H :    0.049783
  12 C :   -0.054256
  13 H :    0.020976
  14 H :    0.045193
  15 H :    0.037328
  16 S :    0.119383
  17 C :   -0.048428
  18 C :   -0.082132
  19 C :   -0.037579
  20 C :   -0.152510
  21 H :    0.033713
  22 C :    0.043855
  23 H :    0.021804
  24 H :    0.018578
  25 C :   -0.027644
  26 H :    0.020941
  27 H :    0.016415
  28 C :   -0.046856
  29 H :    0.031689
  30 H :    0.025910
  31 H :    0.034613
  32 H :    0.034027
  33 H :    0.044207
Sum of atomic charges:   -0.0000000

LOEWDIN ATOMIC CHARGES
----------------------
   0 S :    0.430470
   1 C :   -0.204923
   2 C :   -0.056683
   3 C :   -0.062794
   4 C :   -0.197851
   5 H :    0.021843
   6 C :   -0.039182
   7 H :    0.043679
   8 H :    0.024232
   9 C :   -0.039999
  10 H :    0.019476
  11 H :    0.033200
  12 C :   -0.064402
  13 H :    0.016181
  14 H :    0.036253
  15 H :    0.025295
  16 S :    0.435228
  17 C :   -0.202310
  18 C :   -0.068889
  19 C :   -0.056455
  20 C :   -0.198753
  21 H :    0.035429
  22 C :   -0.036443
  23 H :    0.022016
  24 H :    0.029668
  25 C :   -0.037189
  26 H :    0.021035
  27 H :    0.021999
  28 C :   -0.069893
  29 H :    0.027444
  30 H :    0.025269
  31 H :    0.028303
  32 H :    0.017212
  33 H :    0.021537

  Mayer bond orders larger than 0.100000
B(  0-S ,  1-C ) :   1.1546 B(  0-S ,  4-C ) :   1.1520 B(  1-C ,  2-C ) :   1.5740
B(  1-C , 32-H ) :   0.9786 B(  2-C ,  3-C ) :   1.2710 B(  2-C ,  6-C ) :   1.0288
B(  3-C ,  4-C ) :   1.5476 B(  3-C ,  5-H ) :   0.9985 B(  4-C , 20-C ) :   1.0411
B(  6-C ,  7-H ) :   0.9245 B(  6-C ,  8-H ) :   0.9463 B(  6-C ,  9-C ) :   1.0478
B(  9-C , 10-H ) :   0.9511 B(  9-C , 11-H ) :   0.9658 B(  9-C , 12-C ) :   1.0782
B( 12-C , 13-H ) :   0.9757 B( 12-C , 14-H ) :   0.9754 B( 12-C , 15-H ) :   0.9787
B( 16-S , 17-C ) :   1.1711 B( 16-S , 20-C ) :   1.1587 B( 17-C , 18-C ) :   1.5967
B( 17-C , 33-H ) :   0.9630 B( 18-C , 19-C ) :   1.2733 B( 18-C , 21-H ) :   0.9818
B( 19-C , 20-C ) :   1.5539 B( 19-C , 22-C ) :   1.0412 B( 22-C , 23-H ) :   0.9271
B( 22-C , 24-H ) :   0.9358 B( 22-C , 25-C ) :   1.0890 B( 25-C , 26-H ) :   0.9500
B( 25-C , 27-H ) :   0.9519 B( 25-C , 28-C ) :   1.0632 B( 28-C , 29-H ) :   0.9758
B( 28-C , 30-H ) :   0.9745 B( 28-C , 31-H ) :   0.9779

Dispersion correction           -0.014392060
FINAL SINGLE POINT ENERGY     -1339.875511635788

DIPOLE MOMENT
-------------
                                X             Y             Z
Electronic contribution:      0.23172      13.35118      13.06915
Nuclear contribution   :     -0.27093     -13.62615     -13.47567
                        -----------------------------------------
Total Dipole Moment    :     -0.03921      -0.27497      -0.40652
                        -----------------------------------------
Magnitude (a.u.)       :      0.49235
Magnitude (Debye)      :      1.25144

Rotational constants in cm-1:     0.022606     0.007345     0.006366
Rotational constants in MHz :   677.699165   220.192434   190.837402

                             ****ORCA TERMINATED NORMALLY****
TOTAL RUN TIME: 0 days 0 hours 0 minutes 21 seconds 333 msec
