                         Program Version 4.2.1 -  RELEASE  -
|  1> ! wB97X-D3 SP def2-SVP
|  2> %pal
|  3> nprocs 24
|  4> end
|  5>
|  6> * xyz 0 1
|  7> S 	 -136.863 	 8.01413 	 -14.661
|  8> C 	 -137.683 	 9.27394 	 -13.8101
|  9> C 	 -136.788 	 10.1021 	 -13.2265
| 10> C 	 -135.452 	 9.79077 	 -13.5762
| 11> C 	 -135.276 	 8.59388 	 -14.2568
| 12> H 	 -134.548 	 10.3518 	 -13.3467
| 13> C 	 -137.16 	 11.2334 	 -12.3081
| 14> H 	 -138.157 	 11.6462 	 -12.5953
| 15> H 	 -136.446 	 12.1095 	 -12.4599
| 16> C 	 -137.185 	 10.7785 	 -10.8503
| 17> H 	 -138.281 	 10.5014 	 -10.7136
| 18> H 	 -136.586 	 9.82059 	 -10.7964
| 19> C 	 -136.576 	 11.889 	 -9.94671
| 20> H 	 -136.406 	 11.4771 	 -8.98037
| 21> H 	 -135.745 	 12.3222 	 -10.3891
| 22> H 	 -137.352 	 12.647 	 -9.89442
| 23> S 	 -133.692 	 7.89282 	 -16.4658
| 24> C 	 -132.075 	 7.4016 	 -16.2061
| 25> C 	 -131.98 	 6.95422 	 -14.9259
| 26> C 	 -132.958 	 7.51081 	 -13.9977
| 27> C 	 -134.063 	 7.93888 	 -14.7016
| 28> H 	 -131.075 	 6.37535 	 -14.5051
| 29> C 	 -132.825 	 7.27477 	 -12.5023
| 30> H 	 -132.63 	 6.24652 	 -12.2939
| 31> H 	 -133.724 	 7.5183 	 -12.1177
| 32> C 	 -131.882 	 8.24993 	 -11.9862
| 33> H 	 -132.193 	 9.28566 	 -12.2475
| 34> H 	 -130.865 	 8.06556 	 -12.3729
| 35> C 	 -131.669 	 8.17153 	 -10.4682
| 36> H 	 -130.896 	 7.4154 	 -10.23
| 37> H 	 -132.665 	 7.9446 	 -9.96399
| 38> H 	 -131.236 	 9.03907 	 -10.1308
| 39> H 	 -138.684 	 9.20818 	 -13.4815
| 40> H 	 -131.415 	 7.20369 	 -17.0486
| 41> *
| 42>
| 43>                          ****END OF INPUT****

CARTESIAN COORDINATES (ANGSTROEM)
---------------------------------
  S    -136.863000    8.014130  -14.661000
  C    -137.683000    9.273940  -13.810100
  C    -136.788000   10.102100  -13.226500
  C    -135.452000    9.790770  -13.576200
  C    -135.276000    8.593880  -14.256800
  H    -134.548000   10.351800  -13.346700
  C    -137.160000   11.233400  -12.308100
  H    -138.157000   11.646200  -12.595300
  H    -136.446000   12.109500  -12.459900
  C    -137.185000   10.778500  -10.850300
  H    -138.281000   10.501400  -10.713600
  H    -136.586000    9.820590  -10.796400
  C    -136.576000   11.889000   -9.946710
  H    -136.406000   11.477100   -8.980370
  H    -135.745000   12.322200  -10.389100
  H    -137.352000   12.647000   -9.894420
  S    -133.692000    7.892820  -16.465800
  C    -132.075000    7.401600  -16.206100
  C    -131.980000    6.954220  -14.925900
  C    -132.958000    7.510810  -13.997700
  C    -134.063000    7.938880  -14.701600
  H    -131.075000    6.375350  -14.505100
  C    -132.825000    7.274770  -12.502300
  H    -132.630000    6.246520  -12.293900
  H    -133.724000    7.518300  -12.117700
  C    -131.882000    8.249930  -11.986200
  H    -132.193000    9.285660  -12.247500
  H    -130.865000    8.065560  -12.372900
  C    -131.669000    8.171530  -10.468200
  H    -130.896000    7.415400  -10.230000
  H    -132.665000    7.944600   -9.963990
  H    -131.236000    9.039070  -10.130800
  H    -138.684000    9.208180  -13.481500
  H    -131.415000    7.203690  -17.048600

 Total Charge           Charge          ....    0
 Multiplicity           Mult            ....    1
 Number of Electrons    NEL             ....  134
 Basis Dimension        Dim             ....  322

ORBITAL ENERGIES
----------------

  NO   OCC          E(Eh)            E(eV)
   0   2.0000     -88.960706     -2420.7439
   1   2.0000     -88.959263     -2420.7046
   2   2.0000     -10.329684      -281.0850
   3   2.0000     -10.328582      -281.0550
   4   2.0000     -10.317887      -280.7640
   5   2.0000     -10.306225      -280.4466
   6   2.0000     -10.304170      -280.3907
   7   2.0000     -10.300119      -280.2805
   8   2.0000     -10.295169      -280.1458
   9   2.0000     -10.294177      -280.1188
  10   2.0000     -10.293935      -280.1122
  11   2.0000     -10.292776      -280.0807
  12   2.0000     -10.283422      -279.8261
  13   2.0000     -10.278494      -279.6920
  14   2.0000     -10.276249      -279.6309
  15   2.0000     -10.275061      -279.5986
  16   2.0000      -8.076308      -219.7675
  17   2.0000      -8.074650      -219.7224
  18   2.0000      -6.034758      -164.2141
  19   2.0000      -6.033311      -164.1747
  20   2.0000      -6.030535      -164.0992
  21   2.0000      -6.029156      -164.0617
  22   2.0000      -6.027226      -164.0091
  23   2.0000      -6.025081      -163.9508
  24   2.0000      -1.010860       -27.5069
  25   2.0000      -0.991292       -26.9744
  26   2.0000      -0.927211       -25.2307
  27   2.0000      -0.914113       -24.8743
  28   2.0000      -0.874205       -23.7883
  29   2.0000      -0.850527       -23.1440
  30   2.0000      -0.843286       -22.9470
  31   2.0000      -0.813826       -22.1453
  32   2.0000      -0.789184       -21.4748
  33   2.0000      -0.775607       -21.1053
  34   2.0000      -0.704342       -19.1661
  35   2.0000      -0.696093       -18.9417
  36   2.0000      -0.695007       -18.9121
  37   2.0000      -0.657338       -17.8871
  38   2.0000      -0.645071       -17.5533
  39   2.0000      -0.618272       -16.8240
  40   2.0000      -0.605353       -16.4725
  41   2.0000      -0.576884       -15.6978
  42   2.0000      -0.568888       -15.4802
  43   2.0000      -0.559368       -15.2212
  44   2.0000      -0.534936       -14.5563
  45   2.0000      -0.527884       -14.3645
  46   2.0000      -0.526255       -14.3201
  47   2.0000      -0.515445       -14.0260
  48   2.0000      -0.511834       -13.9277
  49   2.0000      -0.503535       -13.7019
  50   2.0000      -0.495912       -13.4944
  51   2.0000      -0.482437       -13.1278
  52   2.0000      -0.472157       -12.8480
  53   2.0000      -0.466725       -12.7002
  54   2.0000      -0.459838       -12.5128
  55   2.0000      -0.450386       -12.2556
  56   2.0000      -0.439997       -11.9729
  57   2.0000      -0.436615       -11.8809
  58   2.0000      -0.433742       -11.8027
  59   2.0000      -0.420187       -11.4339
  60   2.0000      -0.415267       -11.3000
  61   2.0000      -0.411309       -11.1923
  62   2.0000      -0.409882       -11.1535
  63   2.0000      -0.345715        -9.4074
  64   2.0000      -0.329366        -8.9625
  65   2.0000      -0.324238        -8.8230
  66   2.0000      -0.299149        -8.1403
  67   0.0000       0.038104         1.0368
  68   0.0000       0.058276         1.5858
  69   0.0000       0.111799         3.0422
  70   0.0000       0.125669         3.4196
  71   0.0000       0.129669         3.5285

MULLIKEN ATOMIC CHARGES
-----------------------
   0 S :    0.100486
   1 C :   -0.087989
   2 C :   -0.098328
   3 C :    0.031125
   4 C :   -0.176125
   5 H :    0.008398
   6 C :    0.010332
   7 H :    0.033065
   8 H :    0.035613
   9 C :   -0.114240
  10 H :    0.042163
  11 H :    0.049768
  12 C :    0.000914
  13 H :    0.034420
  14 H :    0.023795
  15 H :    0.028125
  16 S :    0.092852
  17 C :   -0.092565
  18 C :   -0.033191
  19 C :   -0.109231
  20 C :   -0.129295
  21 H :    0.043777
  22 C :    0.204360
  23 H :    0.028120
  24 H :   -0.023297
  25 C :   -0.147502
  26 H :    0.034984
  27 H :    0.025571
  28 C :   -0.004558
  29 H :    0.029023
  30 H :    0.035654
  31 H :    0.012824
  32 H :    0.038741
  33 H :    0.072211
Sum of atomic charges:    0.0000000

LOEWDIN ATOMIC CHARGES
----------------------
   0 S :    0.416854
   1 C :   -0.200825
   2 C :   -0.068619
   3 C :   -0.066862
   4 C :   -0.198374
   5 H :    0.029966
   6 C :   -0.039930
   7 H :    0.030765
   8 H :    0.032352
   9 C :   -0.047523
  10 H :    0.032030
  11 H :    0.026844
  12 C :   -0.050150
  13 H :    0.023732
  14 H :    0.015482
  15 H :    0.028811
  16 S :    0.391617
  17 C :   -0.190195
  18 C :   -0.080630
  19 C :   -0.039486
  20 C :   -0.190679
  21 H :    0.038296
  22 C :   -0.017670
  23 H :    0.033320
  24 H :    0.015450
  25 C :   -0.042773
  26 H :    0.027435
  27 H :    0.023754
  28 C :   -0.062254
  29 H :    0.028003
  30 H :    0.030186
  31 H :    0.013026
  32 H :    0.023589
  33 H :    0.034460

  Mayer bond orders larger than 0.100000
B(  0-S ,  1-C ) :   1.1416 B(  0-S ,  4-C ) :   1.1663 B(  1-C ,  2-C ) :   1.6169
B(  1-C , 32-H ) :   0.9657 B(  2-C ,  3-C ) :   1.2393 B(  2-C ,  6-C ) :   1.0317
B(  3-C ,  4-C ) :   1.5680 B(  3-C ,  5-H ) :   0.9989 B(  4-C , 20-C ) :   1.0224
B(  6-C ,  7-H ) :   0.9464 B(  6-C ,  8-H ) :   0.9528 B(  6-C ,  9-C ) :   1.0166
B(  9-C , 10-H ) :   0.9566 B(  9-C , 11-H ) :   0.9688 B(  9-C , 12-C ) :   1.0642
B( 12-C , 13-H ) :   0.9763 B( 12-C , 14-H ) :   0.9802 B( 12-C , 15-H ) :   0.9743
B( 16-S , 17-C ) :   1.1609 B( 16-S , 20-C ) :   1.1172 B( 17-C , 18-C ) :   1.6170
B( 17-C , 33-H ) :   0.9665 B( 18-C , 19-C ) :   1.2077 B( 18-C , 21-H ) :   0.9679
B( 19-C , 20-C ) :   1.6346 B( 19-C , 22-C ) :   1.0447 B( 22-C , 23-H ) :   0.9385
B( 22-C , 24-H ) :   0.9024 B( 22-C , 25-C ) :   1.0658 B( 25-C , 26-H ) :   0.9527
B( 25-C , 27-H ) :   0.9575 B( 25-C , 28-C ) :   1.0851 B( 28-C , 29-H ) :   0.9739
B( 28-C , 30-H ) :   0.9717 B( 28-C , 31-H ) :   0.9716

Dispersion correction           -0.014158763
FINAL SINGLE POINT ENERGY     -1339.849734946166

DIPOLE MOMENT
-------------
                                X             Y             Z
Electronic contribution:     -5.34281     -11.32697     -28.91208
Nuclear contribution   :      5.68154      11.49368      29.59509
                        -----------------------------------------
Total Dipole Moment    :      0.33873       0.16671       0.68301
                        -----------------------------------------
Magnitude (a.u.)       :      0.78041
Magnitude (Debye)      :      1.98363

Rotational constants in cm-1:     0.017119     0.009479     0.006656
Rotational constants in MHz :   513.215159   284.175687   199.554715

                             ****ORCA TERMINATED NORMALLY****
TOTAL RUN TIME: 0 days 0 hours 0 minutes 21 seconds 942 msec
