                         Program Version 4.2.1 -  RELEASE  -
|  1> ! wB97X-D3 SP def2-SVP
|  2> %pal
|  3> nprocs 24
|  4> end
|  5>
|  6> * xyz 0 1
|  7> S 	 -123.778 	 61.8447 	 -34.8981
|  8> C 	 -124.268 	 63.5421 	 -35.1589
|  9> C 	 -123.341 	 64.1995 	 -35.9163
| 10> C 	 -122.19 	 63.3976 	 -36.2777
| 11> C 	 -122.348 	 62.0531 	 -35.868
| 12> H 	 -121.213 	 63.5849 	 -36.7973
| 13> C 	 -123.454 	 65.6738 	 -36.2088
| 14> H 	 -123.192 	 66.3033 	 -35.3906
| 15> H 	 -124.495 	 65.8559 	 -36.4834
| 16> C 	 -122.704 	 66.1269 	 -37.4612
| 17> H 	 -122.869 	 67.1857 	 -37.5504
| 18> H 	 -121.607 	 65.9898 	 -37.4091
| 19> C 	 -123.184 	 65.4326 	 -38.717
| 20> H 	 -122.955 	 64.4128 	 -38.8363
| 21> H 	 -124.215 	 65.5009 	 -38.6691
| 22> H 	 -122.845 	 65.9019 	 -39.6524
| 23> S 	 -121.831 	 59.913 	 -37.6925
| 24> C 	 -120.517 	 58.7494 	 -37.2775
| 25> C 	 -120.072 	 59.0385 	 -35.9987
| 26> C 	 -120.521 	 60.2645 	 -35.4049
| 27> C 	 -121.527 	 60.9088 	 -36.1171
| 28> H 	 -119.36 	 58.3683 	 -35.4862
| 29> C 	 -119.96 	 60.5957 	 -34.0342
| 30> H 	 -119.66 	 59.7109 	 -33.4169
| 31> H 	 -120.771 	 61.0812 	 -33.4846
| 32> C 	 -118.835 	 61.684 	 -34.103
| 33> H 	 -119.173 	 62.5225 	 -34.7795
| 34> H 	 -117.898 	 61.2515 	 -34.4828
| 35> C 	 -118.517 	 62.3757 	 -32.7833
| 36> H 	 -119.405 	 62.7603 	 -32.385
| 37> H 	 -117.683 	 63.1068 	 -32.8086
| 38> H 	 -118.126 	 61.6298 	 -32.0854
| 39> H 	 -125.062 	 64.1114 	 -34.7452
| 40> H 	 -120.127 	 57.8414 	 -37.7904
| 41> *
| 42>
| 43>                          ****END OF INPUT****

CARTESIAN COORDINATES (ANGSTROEM)
---------------------------------
  S    -123.778000   61.844700  -34.898100
  C    -124.268000   63.542100  -35.158900
  C    -123.341000   64.199500  -35.916300
  C    -122.190000   63.397600  -36.277700
  C    -122.348000   62.053100  -35.868000
  H    -121.213000   63.584900  -36.797300
  C    -123.454000   65.673800  -36.208800
  H    -123.192000   66.303300  -35.390600
  H    -124.495000   65.855900  -36.483400
  C    -122.704000   66.126900  -37.461200
  H    -122.869000   67.185700  -37.550400
  H    -121.607000   65.989800  -37.409100
  C    -123.184000   65.432600  -38.717000
  H    -122.955000   64.412800  -38.836300
  H    -124.215000   65.500900  -38.669100
  H    -122.845000   65.901900  -39.652400
  S    -121.831000   59.913000  -37.692500
  C    -120.517000   58.749400  -37.277500
  C    -120.072000   59.038500  -35.998700
  C    -120.521000   60.264500  -35.404900
  C    -121.527000   60.908800  -36.117100
  H    -119.360000   58.368300  -35.486200
  C    -119.960000   60.595700  -34.034200
  H    -119.660000   59.710900  -33.416900
  H    -120.771000   61.081200  -33.484600
  C    -118.835000   61.684000  -34.103000
  H    -119.173000   62.522500  -34.779500
  H    -117.898000   61.251500  -34.482800
  C    -118.517000   62.375700  -32.783300
  H    -119.405000   62.760300  -32.385000
  H    -117.683000   63.106800  -32.808600
  H    -118.126000   61.629800  -32.085400
  H    -125.062000   64.111400  -34.745200
  H    -120.127000   57.841400  -37.790400

 Total Charge           Charge          ....    0
 Multiplicity           Mult            ....    1
 Number of Electrons    NEL             ....  134
 Basis Dimension        Dim             ....  322

ORBITAL ENERGIES
----------------

  NO   OCC          E(Eh)            E(eV)
   0   2.0000     -88.969283     -2420.9773
   1   2.0000     -88.963686     -2420.8250
   2   2.0000     -10.336405      -281.2679
   3   2.0000     -10.331634      -281.1380
   4   2.0000     -10.327444      -281.0240
   5   2.0000     -10.314621      -280.6751
   6   2.0000     -10.309817      -280.5444
   7   2.0000     -10.307148      -280.4718
   8   2.0000     -10.304561      -280.4013
   9   2.0000     -10.298346      -280.2322
  10   2.0000     -10.294388      -280.1245
  11   2.0000     -10.290421      -280.0166
  12   2.0000     -10.289924      -280.0031
  13   2.0000     -10.283521      -279.8288
  14   2.0000     -10.273208      -279.5482
  15   2.0000     -10.262909      -279.2680
  16   2.0000      -8.083266      -219.9569
  17   2.0000      -8.075730      -219.7518
  18   2.0000      -6.041857      -164.4073
  19   2.0000      -6.037757      -164.2957
  20   2.0000      -6.034601      -164.2099
  21   2.0000      -6.034073      -164.1955
  22   2.0000      -6.030718      -164.1042
  23   2.0000      -6.026119      -163.9790
  24   2.0000      -0.999280       -27.1918
  25   2.0000      -0.972065       -26.4512
  26   2.0000      -0.919058       -25.0089
  27   2.0000      -0.902361       -24.5545
  28   2.0000      -0.872389       -23.7389
  29   2.0000      -0.846031       -23.0217
  30   2.0000      -0.840804       -22.8794
  31   2.0000      -0.812840       -22.1185
  32   2.0000      -0.785737       -21.3810
  33   2.0000      -0.771700       -20.9990
  34   2.0000      -0.714847       -19.4520
  35   2.0000      -0.696062       -18.9408
  36   2.0000      -0.687769       -18.7151
  37   2.0000      -0.659074       -17.9343
  38   2.0000      -0.640712       -17.4347
  39   2.0000      -0.614008       -16.7080
  40   2.0000      -0.589633       -16.0447
  41   2.0000      -0.569258       -15.4903
  42   2.0000      -0.566670       -15.4199
  43   2.0000      -0.563465       -15.3327
  44   2.0000      -0.534208       -14.5365
  45   2.0000      -0.520561       -14.1652
  46   2.0000      -0.516459       -14.0536
  47   2.0000      -0.514479       -13.9997
  48   2.0000      -0.509621       -13.8675
  49   2.0000      -0.498551       -13.5663
  50   2.0000      -0.489393       -13.3171
  51   2.0000      -0.480636       -13.0788
  52   2.0000      -0.472706       -12.8630
  53   2.0000      -0.460983       -12.5440
  54   2.0000      -0.455089       -12.3836
  55   2.0000      -0.445117       -12.1122
  56   2.0000      -0.440952       -11.9989
  57   2.0000      -0.437690       -11.9102
  58   2.0000      -0.423809       -11.5324
  59   2.0000      -0.421684       -11.4746
  60   2.0000      -0.418756       -11.3949
  61   2.0000      -0.416106       -11.3228
  62   2.0000      -0.413371       -11.2484
  63   2.0000      -0.334253        -9.0955
  64   2.0000      -0.326397        -8.8817
  65   2.0000      -0.318040        -8.6543
  66   2.0000      -0.315661        -8.5896
  67   0.0000       0.033640         0.9154
  68   0.0000       0.041526         1.1300
  69   0.0000       0.103107         2.8057
  70   0.0000       0.114764         3.1229
  71   0.0000       0.123490         3.3603

MULLIKEN ATOMIC CHARGES
-----------------------
   0 S :    0.125769
   1 C :   -0.088013
   2 C :   -0.102881
   3 C :    0.047934
   4 C :   -0.221309
   5 H :    0.043823
   6 C :    0.076998
   7 H :    0.043636
   8 H :    0.022857
   9 C :   -0.091017
  10 H :    0.025126
  11 H :    0.029991
  12 C :   -0.016220
  13 H :    0.029929
  14 H :    0.001419
  15 H :    0.030594
  16 S :    0.080112
  17 C :   -0.091970
  18 C :   -0.055549
  19 C :    0.011930
  20 C :   -0.171915
  21 H :    0.026717
  22 C :    0.055606
  23 H :    0.041667
  24 H :    0.017240
  25 C :   -0.099584
  26 H :    0.039097
  27 H :    0.029914
  28 C :   -0.028321
  29 H :    0.023791
  30 H :    0.040141
  31 H :    0.016623
  32 H :    0.030084
  33 H :    0.075779
Sum of atomic charges:   -0.0000000

LOEWDIN ATOMIC CHARGES
----------------------
   0 S :    0.408563
   1 C :   -0.181833
   2 C :   -0.063999
   3 C :   -0.058689
   4 C :   -0.207563
   5 H :    0.046489
   6 C :   -0.029264
   7 H :    0.030832
   8 H :    0.032358
   9 C :   -0.041562
  10 H :    0.024657
  11 H :    0.021139
  12 C :   -0.058620
  13 H :    0.020864
  14 H :    0.014485
  15 H :    0.030184
  16 S :    0.329632
  17 C :   -0.173159
  18 C :   -0.080201
  19 C :   -0.044611
  20 C :   -0.172117
  21 H :    0.032249
  22 C :   -0.032732
  23 H :    0.036415
  24 H :    0.028800
  25 C :   -0.040864
  26 H :    0.029847
  27 H :    0.021578
  28 C :   -0.066084
  29 H :    0.016038
  30 H :    0.031624
  31 H :    0.022498
  32 H :    0.026787
  33 H :    0.046261

  Mayer bond orders larger than 0.100000
B(  0-S ,  1-C ) :   1.1223 B(  0-S ,  4-C ) :   1.1558 B(  1-C ,  2-C ) :   1.6496
B(  1-C , 32-H ) :   0.9713 B(  2-C ,  3-C ) :   1.2028 B(  2-C ,  6-C ) :   1.0084
B(  3-C ,  4-C ) :   1.5800 B(  3-C ,  5-H ) :   0.9814 B(  4-C , 20-C ) :   1.0585
B(  6-C ,  7-H ) :   0.9372 B(  6-C ,  8-H ) :   0.9410 B(  6-C ,  9-C ) :   1.0931
B(  9-C , 10-H ) :   0.9535 B(  9-C , 11-H ) :   0.9468 B(  9-C , 12-C ) :   1.0802
B( 12-C , 13-H ) :   0.9713 B( 12-C , 14-H ) :   0.9726 B( 12-C , 15-H ) :   0.9718
B( 16-S , 17-C ) :   1.1316 B( 16-S , 20-C ) :   1.0811 B( 17-C , 18-C ) :   1.6472
B( 17-C , 20-C ) :   0.1020 B( 17-C , 33-H ) :   0.9581 B( 18-C , 19-C ) :   1.2209
B( 18-C , 21-H ) :   0.9773 B( 19-C , 20-C ) :   1.6256 B( 19-C , 22-C ) :   1.0422
B( 22-C , 23-H ) :   0.9442 B( 22-C , 24-H ) :   0.9274 B( 22-C , 25-C ) :   1.0506
B( 25-C , 26-H ) :   0.9590 B( 25-C , 27-H ) :   0.9563 B( 25-C , 28-C ) :   1.0862
B( 28-C , 29-H ) :   0.9752 B( 28-C , 30-H ) :   0.9735 B( 28-C , 31-H ) :   0.9707

Dispersion correction           -0.014514836
FINAL SINGLE POINT ENERGY     -1339.863243617624

DIPOLE MOMENT
-------------
                                X             Y             Z
Electronic contribution:    -11.22025     -18.02582      -3.83085
Nuclear contribution   :     11.57242      18.40185       4.13385
                        -----------------------------------------
Total Dipole Moment    :      0.35217       0.37603       0.30300
                        -----------------------------------------
Magnitude (a.u.)       :      0.59769
Magnitude (Debye)      :      1.51920

Rotational constants in cm-1:     0.017148     0.008859     0.007522
Rotational constants in MHz :   514.082001   265.598217   225.518189

                             ****ORCA TERMINATED NORMALLY****
TOTAL RUN TIME: 0 days 0 hours 0 minutes 21 seconds 413 msec
