                         Program Version 4.2.1 -  RELEASE  -
|  1> ! wB97X-D3 SP def2-SVP
|  2> %pal
|  3> nprocs 24
|  4> end
|  5>
|  6> * xyz 0 1
|  7> S 	 -87.6377 	 -31.7086 	 -65.4974
|  8> C 	 -86.7955 	 -32.5696 	 -66.7881
|  9> C 	 -86.5616 	 -33.8826 	 -66.4557
| 10> C 	 -87.2426 	 -34.2591 	 -65.2875
| 11> C 	 -87.9746 	 -33.2399 	 -64.7564
| 12> H 	 -87.2757 	 -35.2392 	 -64.8314
| 13> C 	 -85.7171 	 -34.8151 	 -67.3318
| 14> H 	 -85.1934 	 -35.4708 	 -66.6364
| 15> H 	 -84.9361 	 -34.2045 	 -67.787
| 16> C 	 -86.3216 	 -35.6446 	 -68.452
| 17> H 	 -86.8674 	 -34.9535 	 -69.173
| 18> H 	 -85.577 	 -36.0355 	 -69.132
| 19> C 	 -87.3756 	 -36.7492 	 -67.9107
| 20> H 	 -87.0317 	 -37.4741 	 -67.2917
| 21> H 	 -88.2165 	 -36.2247 	 -67.5102
| 22> H 	 -87.8133 	 -37.3499 	 -68.761
| 23> S 	 -88.0323 	 -32.9517 	 -62.0321
| 24> C 	 -89.518 	 -33.394 	 -61.2039
| 25> C 	 -90.4443 	 -33.9851 	 -62.0475
| 26> C 	 -90.0067 	 -33.9332 	 -63.3917
| 27> C 	 -88.7532 	 -33.3702 	 -63.5961
| 28> H 	 -91.3157 	 -34.4321 	 -61.6378
| 29> C 	 -90.8585 	 -34.5062 	 -64.4292
| 30> H 	 -91.1743 	 -35.5283 	 -64.2192
| 31> H 	 -90.4133 	 -34.6331 	 -65.3673
| 32> C 	 -92.1416 	 -33.7726 	 -64.7994
| 33> H 	 -92.7768 	 -33.7558 	 -63.9094
| 34> H 	 -92.6281 	 -34.406 	 -65.5456
| 35> C 	 -91.8517 	 -32.3854 	 -65.3514
| 36> H 	 -92.7161 	 -31.8167 	 -65.5366
| 37> H 	 -91.3394 	 -32.4814 	 -66.2446
| 38> H 	 -91.1858 	 -31.8795 	 -64.6225
| 39> H 	 -86.2548 	 -32.043 	 -67.5727
| 40> H 	 -89.6745 	 -33.2404 	 -60.0808
| 41> *
| 42>
| 43>                          ****END OF INPUT****

CARTESIAN COORDINATES (ANGSTROEM)
---------------------------------
  S    -87.637700  -31.708600  -65.497400
  C    -86.795500  -32.569600  -66.788100
  C    -86.561600  -33.882600  -66.455700
  C    -87.242600  -34.259100  -65.287500
  C    -87.974600  -33.239900  -64.756400
  H    -87.275700  -35.239200  -64.831400
  C    -85.717100  -34.815100  -67.331800
  H    -85.193400  -35.470800  -66.636400
  H    -84.936100  -34.204500  -67.787000
  C    -86.321600  -35.644600  -68.452000
  H    -86.867400  -34.953500  -69.173000
  H    -85.577000  -36.035500  -69.132000
  C    -87.375600  -36.749200  -67.910700
  H    -87.031700  -37.474100  -67.291700
  H    -88.216500  -36.224700  -67.510200
  H    -87.813300  -37.349900  -68.761000
  S    -88.032300  -32.951700  -62.032100
  C    -89.518000  -33.394000  -61.203900
  C    -90.444300  -33.985100  -62.047500
  C    -90.006700  -33.933200  -63.391700
  C    -88.753200  -33.370200  -63.596100
  H    -91.315700  -34.432100  -61.637800
  C    -90.858500  -34.506200  -64.429200
  H    -91.174300  -35.528300  -64.219200
  H    -90.413300  -34.633100  -65.367300
  C    -92.141600  -33.772600  -64.799400
  H    -92.776800  -33.755800  -63.909400
  H    -92.628100  -34.406000  -65.545600
  C    -91.851700  -32.385400  -65.351400
  H    -92.716100  -31.816700  -65.536600
  H    -91.339400  -32.481400  -66.244600
  H    -91.185800  -31.879500  -64.622500
  H    -86.254800  -32.043000  -67.572700
  H    -89.674500  -33.240400  -60.080800

 Total Charge           Charge          ....    0
 Multiplicity           Mult            ....    1
 Number of Electrons    NEL             ....  134
 Basis Dimension        Dim             ....  322

ORBITAL ENERGIES
----------------

  NO   OCC          E(Eh)            E(eV)
   0   2.0000     -88.967419     -2420.9265
   1   2.0000     -88.963688     -2420.8250
   2   2.0000     -10.323866      -280.9267
   3   2.0000     -10.319592      -280.8104
   4   2.0000     -10.319203      -280.7998
   5   2.0000     -10.313922      -280.6561
   6   2.0000     -10.300278      -280.2848
   7   2.0000     -10.298626      -280.2399
   8   2.0000     -10.297739      -280.2157
   9   2.0000     -10.293199      -280.0922
  10   2.0000     -10.290698      -280.0241
  11   2.0000     -10.290684      -280.0238
  12   2.0000     -10.278193      -279.6838
  13   2.0000     -10.276612      -279.6408
  14   2.0000     -10.274002      -279.5698
  15   2.0000     -10.259332      -279.1706
  16   2.0000      -8.082273      -219.9298
  17   2.0000      -8.078188      -219.8187
  18   2.0000      -6.040597      -164.3730
  19   2.0000      -6.036938      -164.2734
  20   2.0000      -6.036693      -164.2668
  21   2.0000      -6.033041      -164.1674
  22   2.0000      -6.032754      -164.1596
  23   2.0000      -6.028952      -164.0561
  24   2.0000      -1.012197       -27.5433
  25   2.0000      -0.985431       -26.8149
  26   2.0000      -0.914395       -24.8820
  27   2.0000      -0.907305       -24.6890
  28   2.0000      -0.871772       -23.7221
  29   2.0000      -0.848663       -23.0933
  30   2.0000      -0.845838       -23.0164
  31   2.0000      -0.813093       -22.1254
  32   2.0000      -0.788512       -21.4565
  33   2.0000      -0.774095       -21.0642
  34   2.0000      -0.710315       -19.3287
  35   2.0000      -0.705837       -19.2068
  36   2.0000      -0.688620       -18.7383
  37   2.0000      -0.658512       -17.9190
  38   2.0000      -0.644811       -17.5462
  39   2.0000      -0.617482       -16.8025
  40   2.0000      -0.602990       -16.4082
  41   2.0000      -0.569260       -15.4903
  42   2.0000      -0.552407       -15.0318
  43   2.0000      -0.549203       -14.9446
  44   2.0000      -0.543284       -14.7835
  45   2.0000      -0.535034       -14.5590
  46   2.0000      -0.516647       -14.0587
  47   2.0000      -0.509999       -13.8778
  48   2.0000      -0.501562       -13.6482
  49   2.0000      -0.495965       -13.4959
  50   2.0000      -0.490146       -13.3376
  51   2.0000      -0.482178       -13.1207
  52   2.0000      -0.468491       -12.7483
  53   2.0000      -0.464539       -12.6408
  54   2.0000      -0.462221       -12.5777
  55   2.0000      -0.448192       -12.1959
  56   2.0000      -0.442617       -12.0442
  57   2.0000      -0.440536       -11.9876
  58   2.0000      -0.431319       -11.7368
  59   2.0000      -0.422588       -11.4992
  60   2.0000      -0.418091       -11.3768
  61   2.0000      -0.414077       -11.2676
  62   2.0000      -0.413447       -11.2505
  63   2.0000      -0.339340        -9.2339
  64   2.0000      -0.329661        -8.9705
  65   2.0000      -0.321389        -8.7454
  66   2.0000      -0.306465        -8.3393
  67   0.0000       0.037991         1.0338
  68   0.0000       0.053300         1.4504
  69   0.0000       0.108359         2.9486
  70   0.0000       0.113478         3.0879
  71   0.0000       0.135972         3.7000

MULLIKEN ATOMIC CHARGES
-----------------------
   0 S :    0.121622
   1 C :   -0.118864
   2 C :   -0.085149
   3 C :    0.049670
   4 C :   -0.185126
   5 H :    0.014317
   6 C :    0.078890
   7 H :    0.022065
   8 H :    0.018468
   9 C :   -0.060375
  10 H :    0.026204
  11 H :    0.031381
  12 C :   -0.050490
  13 H :    0.017499
  14 H :    0.039597
  15 H :    0.030277
  16 S :    0.107448
  17 C :   -0.121824
  18 C :   -0.024239
  19 C :    0.009141
  20 C :   -0.175890
  21 H :    0.012313
  22 C :    0.071330
  23 H :    0.018614
  24 H :   -0.005090
  25 C :   -0.086776
  26 H :    0.018981
  27 H :    0.023498
  28 C :    0.001841
  29 H :    0.023225
  30 H :    0.007912
  31 H :    0.038211
  32 H :    0.048505
  33 H :    0.082816
Sum of atomic charges:    0.0000000

LOEWDIN ATOMIC CHARGES
----------------------
   0 S :    0.411398
   1 C :   -0.188078
   2 C :   -0.064527
   3 C :   -0.049886
   4 C :   -0.206969
   5 H :    0.035655
   6 C :   -0.034471
   7 H :    0.029868
   8 H :    0.031530
   9 C :   -0.037813
  10 H :    0.029616
  11 H :    0.023040
  12 C :   -0.063009
  13 H :    0.007398
  14 H :    0.024997
  15 H :    0.033882
  16 S :    0.392641
  17 C :   -0.185428
  18 C :   -0.068771
  19 C :   -0.051919
  20 C :   -0.201550
  21 H :    0.030145
  22 C :   -0.037378
  23 H :    0.033511
  24 H :    0.020107
  25 C :   -0.032513
  26 H :    0.015187
  27 H :    0.022565
  28 C :   -0.055694
  29 H :    0.019243
  30 H :    0.015565
  31 H :    0.031368
  32 H :    0.026802
  33 H :    0.043488

  Mayer bond orders larger than 0.100000
B(  0-S ,  1-C ) :   1.1387 B(  0-S ,  4-C ) :   1.1491 B(  1-C ,  2-C ) :   1.6166
B(  1-C ,  4-C ) :   0.1003 B(  1-C , 32-H ) :   0.9665 B(  2-C ,  3-C ) :   1.2327
B(  2-C ,  6-C ) :   1.0157 B(  3-C ,  4-C ) :   1.5803 B(  3-C ,  5-H ) :   1.0025
B(  4-C , 20-C ) :   1.0553 B(  6-C ,  7-H ) :   0.9403 B(  6-C ,  8-H ) :   0.9345
B(  6-C ,  9-C ) :   1.0784 B(  9-C , 10-H ) :   0.9542 B(  9-C , 11-H ) :   0.9577
B(  9-C , 12-C ) :   1.0590 B( 12-C , 13-H ) :   0.9823 B( 12-C , 14-H ) :   0.9781
B( 12-C , 15-H ) :   0.9748 B( 16-S , 17-C ) :   1.1623 B( 16-S , 20-C ) :   1.1297
B( 17-C , 18-C ) :   1.6036 B( 17-C , 20-C ) :   0.1021 B( 17-C , 33-H ) :   0.9556
B( 18-C , 19-C ) :   1.2205 B( 18-C , 21-H ) :   1.0021 B( 19-C , 20-C ) :   1.5907
B( 19-C , 22-C ) :   1.0759 B( 22-C , 23-H ) :   0.9255 B( 22-C , 24-H ) :   0.9231
B( 22-C , 25-C ) :   1.0758 B( 25-C , 26-H ) :   0.9569 B( 25-C , 27-H ) :   0.9538
B( 25-C , 28-C ) :   1.0762 B( 28-C , 29-H ) :   0.9726 B( 28-C , 30-H ) :   0.9704
B( 28-C , 31-H ) :   0.9735

Dispersion correction           -0.015544559
FINAL SINGLE POINT ENERGY     -1339.869721996080

DIPOLE MOMENT
-------------
                                X             Y             Z
Electronic contribution:      8.96333      14.34137      17.48675
Nuclear contribution   :     -9.00887     -14.86383     -17.74472
                        -----------------------------------------
Total Dipole Moment    :     -0.04554      -0.52246      -0.25797
                        -----------------------------------------
Magnitude (a.u.)       :      0.58446
Magnitude (Debye)      :      1.48557

Rotational constants in cm-1:     0.019211     0.008978     0.008017
Rotational constants in MHz :   575.940768   269.146273   240.341016

                             ****ORCA TERMINATED NORMALLY****
TOTAL RUN TIME: 0 days 0 hours 0 minutes 22 seconds 440 msec
