                         Program Version 4.2.1 -  RELEASE  -
|  1> ! wB97X-D3 SP def2-SVP
|  2> %pal
|  3> nprocs 24
|  4> end
|  5>
|  6> * xyz 0 1
|  7> S 	 -26.8069 	 16.7 	 10.4103
|  8> C 	 -27.7302 	 15.6374 	 9.41697
|  9> C 	 -28.6715 	 16.2912 	 8.68332
| 10> C 	 -28.673 	 17.6523 	 8.92257
| 11> C 	 -27.7893 	 18.072 	 9.90951
| 12> H 	 -29.2801 	 18.3673 	 8.52423
| 13> C 	 -29.6126 	 15.7062 	 7.64326
| 14> H 	 -28.9253 	 15.3203 	 6.84809
| 15> H 	 -30.1165 	 16.5754 	 7.13116
| 16> C 	 -30.4109 	 14.4829 	 8.05949
| 17> H 	 -29.8359 	 13.7511 	 8.56587
| 18> H 	 -31.1653 	 14.6323 	 8.82061
| 19> C 	 -31.2945 	 13.8747 	 6.93615
| 20> H 	 -32.0857 	 14.6141 	 6.68531
| 21> H 	 -30.8399 	 13.581 	 6.02278
| 22> H 	 -31.8197 	 12.9774 	 7.35337
| 23> S 	 -26.7314 	 19.6356 	 11.8538
| 24> C 	 -26.8653 	 21.3995 	 11.7421
| 25> C 	 -27.4436 	 21.8225 	 10.5684
| 26> C 	 -27.894 	 20.7093 	 9.72868
| 27> C 	 -27.5104 	 19.4718 	 10.3058
| 28> H 	 -27.5994 	 22.8768 	 10.5056
| 29> C 	 -28.5875 	 21.0136 	 8.41706
| 30> H 	 -29.0276 	 21.9815 	 8.56658
| 31> H 	 -29.4054 	 20.3446 	 8.38588
| 32> C 	 -27.6195 	 21.1253 	 7.25837
| 33> H 	 -27.0903 	 20.1288 	 7.1244
| 34> H 	 -26.8838 	 21.8881 	 7.46867
| 35> C 	 -28.3813 	 21.5258 	 5.9899
| 36> H 	 -29.0483 	 20.7184 	 5.68274
| 37> H 	 -27.7996 	 21.6095 	 5.10166
| 38> H 	 -28.9473 	 22.4724 	 6.07107
| 39> H 	 -27.5765 	 14.5435 	 9.38748
| 40> H 	 -26.5495 	 22.1323 	 12.5008
| 41> *
| 42>
| 43>                          ****END OF INPUT****

CARTESIAN COORDINATES (ANGSTROEM)
---------------------------------
  S    -26.806900   16.700000   10.410300
  C    -27.730200   15.637400    9.416970
  C    -28.671500   16.291200    8.683320
  C    -28.673000   17.652300    8.922570
  C    -27.789300   18.072000    9.909510
  H    -29.280100   18.367300    8.524230
  C    -29.612600   15.706200    7.643260
  H    -28.925300   15.320300    6.848090
  H    -30.116500   16.575400    7.131160
  C    -30.410900   14.482900    8.059490
  H    -29.835900   13.751100    8.565870
  H    -31.165300   14.632300    8.820610
  C    -31.294500   13.874700    6.936150
  H    -32.085700   14.614100    6.685310
  H    -30.839900   13.581000    6.022780
  H    -31.819700   12.977400    7.353370
  S    -26.731400   19.635600   11.853800
  C    -26.865300   21.399500   11.742100
  C    -27.443600   21.822500   10.568400
  C    -27.894000   20.709300    9.728680
  C    -27.510400   19.471800   10.305800
  H    -27.599400   22.876800   10.505600
  C    -28.587500   21.013600    8.417060
  H    -29.027600   21.981500    8.566580
  H    -29.405400   20.344600    8.385880
  C    -27.619500   21.125300    7.258370
  H    -27.090300   20.128800    7.124400
  H    -26.883800   21.888100    7.468670
  C    -28.381300   21.525800    5.989900
  H    -29.048300   20.718400    5.682740
  H    -27.799600   21.609500    5.101660
  H    -28.947300   22.472400    6.071070
  H    -27.576500   14.543500    9.387480
  H    -26.549500   22.132300   12.500800

 Total Charge           Charge          ....    0
 Multiplicity           Mult            ....    1
 Number of Electrons    NEL             ....  134
 Basis Dimension        Dim             ....  322

ORBITAL ENERGIES
----------------

  NO   OCC          E(Eh)            E(eV)
   0   2.0000     -88.967342     -2420.9245
   1   2.0000     -88.966322     -2420.8967
   2   2.0000     -10.332340      -281.1573
   3   2.0000     -10.329377      -281.0766
   4   2.0000     -10.317713      -280.7592
   5   2.0000     -10.310031      -280.5502
   6   2.0000     -10.309705      -280.5413
   7   2.0000     -10.299396      -280.2608
   8   2.0000     -10.294323      -280.1228
   9   2.0000     -10.293498      -280.1003
  10   2.0000     -10.291714      -280.0518
  11   2.0000     -10.288692      -279.9695
  12   2.0000     -10.286186      -279.9014
  13   2.0000     -10.281785      -279.7816
  14   2.0000     -10.280295      -279.7410
  15   2.0000     -10.276927      -279.6494
  16   2.0000      -8.082223      -219.9285
  17   2.0000      -8.080910      -219.8927
  18   2.0000      -6.040766      -164.3776
  19   2.0000      -6.039507      -164.3434
  20   2.0000      -6.036638      -164.2653
  21   2.0000      -6.035532      -164.2352
  22   2.0000      -6.033033      -164.1672
  23   2.0000      -6.031505      -164.1256
  24   2.0000      -1.008089       -27.4315
  25   2.0000      -0.983396       -26.7596
  26   2.0000      -0.915908       -24.9231
  27   2.0000      -0.910082       -24.7646
  28   2.0000      -0.868224       -23.6256
  29   2.0000      -0.856858       -23.3163
  30   2.0000      -0.847370       -23.0581
  31   2.0000      -0.815768       -22.1982
  32   2.0000      -0.782163       -21.2837
  33   2.0000      -0.770370       -20.9628
  34   2.0000      -0.711535       -19.3618
  35   2.0000      -0.707777       -19.2596
  36   2.0000      -0.691711       -18.8224
  37   2.0000      -0.667015       -18.1504
  38   2.0000      -0.640285       -17.4230
  39   2.0000      -0.622478       -16.9385
  40   2.0000      -0.590332       -16.0637
  41   2.0000      -0.572362       -15.5748
  42   2.0000      -0.568777       -15.4772
  43   2.0000      -0.553318       -15.0565
  44   2.0000      -0.529374       -14.4050
  45   2.0000      -0.523458       -14.2440
  46   2.0000      -0.518346       -14.1049
  47   2.0000      -0.514636       -14.0039
  48   2.0000      -0.505659       -13.7597
  49   2.0000      -0.494924       -13.4676
  50   2.0000      -0.490286       -13.3414
  51   2.0000      -0.486629       -13.2419
  52   2.0000      -0.475595       -12.9416
  53   2.0000      -0.464011       -12.6264
  54   2.0000      -0.458183       -12.4678
  55   2.0000      -0.450296       -12.2532
  56   2.0000      -0.447239       -12.1700
  57   2.0000      -0.438690       -11.9374
  58   2.0000      -0.436125       -11.8676
  59   2.0000      -0.427446       -11.6314
  60   2.0000      -0.421742       -11.4762
  61   2.0000      -0.418295       -11.3824
  62   2.0000      -0.410798       -11.1784
  63   2.0000      -0.358846        -9.7647
  64   2.0000      -0.336805        -9.1649
  65   2.0000      -0.328229        -8.9316
  66   2.0000      -0.279819        -7.6143
  67   0.0000       0.022264         0.6058
  68   0.0000       0.083716         2.2780
  69   0.0000       0.099376         2.7041
  70   0.0000       0.119493         3.2516
  71   0.0000       0.140573         3.8252

MULLIKEN ATOMIC CHARGES
-----------------------
   0 S :    0.109382
   1 C :   -0.145948
   2 C :   -0.029598
   3 C :    0.008131
   4 C :   -0.096256
   5 H :   -0.063477
   6 C :    0.067450
   7 H :    0.038988
   8 H :    0.031184
   9 C :   -0.051594
  10 H :    0.014918
  11 H :    0.021666
  12 C :   -0.069815
  13 H :    0.035347
  14 H :    0.026291
  15 H :    0.037061
  16 S :    0.094509
  17 C :   -0.098536
  18 C :   -0.028021
  19 C :   -0.096895
  20 C :   -0.121275
  21 H :    0.013855
  22 C :    0.093689
  23 H :    0.002505
  24 H :    0.019498
  25 C :   -0.050647
  26 H :    0.047940
  27 H :    0.030206
  28 C :   -0.034434
  29 H :    0.021441
  30 H :    0.022236
  31 H :    0.034506
  32 H :    0.054659
  33 H :    0.061034
Sum of atomic charges:   -0.0000000

LOEWDIN ATOMIC CHARGES
----------------------
   0 S :    0.412111
   1 C :   -0.210661
   2 C :   -0.067212
   3 C :   -0.062771
   4 C :   -0.184433
   5 H :    0.010323
   6 C :   -0.034938
   7 H :    0.041186
   8 H :    0.036085
   9 C :   -0.043283
  10 H :    0.019047
  11 H :    0.027055
  12 C :   -0.065151
  13 H :    0.028863
  14 H :    0.013710
  15 H :    0.032464
  16 S :    0.395375
  17 C :   -0.183905
  18 C :   -0.070030
  19 C :   -0.051028
  20 C :   -0.195305
  21 H :    0.030423
  22 C :   -0.029017
  23 H :    0.029840
  24 H :    0.021638
  25 C :   -0.033751
  26 H :    0.036108
  27 H :    0.026152
  28 C :   -0.071011
  29 H :    0.025541
  30 H :    0.021295
  31 H :    0.027687
  32 H :    0.033019
  33 H :    0.034572

  Mayer bond orders larger than 0.100000
B(  0-S ,  1-C ) :   1.1447 B(  0-S ,  4-C ) :   1.1591 B(  1-C ,  2-C ) :   1.5894
B(  1-C ,  4-C ) :   0.1003 B(  1-C , 32-H ) :   0.9620 B(  2-C ,  3-C ) :   1.2786
B(  2-C ,  6-C ) :   1.0081 B(  3-C ,  4-C ) :   1.5490 B(  3-C ,  5-H ) :   1.0152
B(  4-C , 20-C ) :   1.0549 B(  6-C ,  7-H ) :   0.9315 B(  6-C ,  8-H ) :   0.9486
B(  6-C ,  9-C ) :   1.0511 B(  9-C , 10-H ) :   0.9547 B(  9-C , 11-H ) :   0.9534
B(  9-C , 12-C ) :   1.0783 B( 12-C , 13-H ) :   0.9775 B( 12-C , 14-H ) :   0.9795
B( 12-C , 15-H ) :   0.9751 B( 16-S , 17-C ) :   1.1338 B( 16-S , 20-C ) :   1.1374
B( 17-C , 18-C ) :   1.6612 B( 17-C , 33-H ) :   0.9605 B( 18-C , 19-C ) :   1.2151
B( 18-C , 21-H ) :   0.9872 B( 19-C , 20-C ) :   1.5939 B( 19-C , 22-C ) :   1.0340
B( 22-C , 23-H ) :   0.9180 B( 22-C , 24-H ) :   0.9338 B( 22-C , 25-C ) :   1.0657
B( 25-C , 26-H ) :   0.9546 B( 25-C , 27-H ) :   0.9517 B( 25-C , 28-C ) :   1.0831
B( 28-C , 29-H ) :   0.9725 B( 28-C , 30-H ) :   0.9725 B( 28-C , 31-H ) :   0.9732

Dispersion correction           -0.013584064
FINAL SINGLE POINT ENERGY     -1339.873485901069

DIPOLE MOMENT
-------------
                                X             Y             Z
Electronic contribution:     17.13986       2.48400      25.32562
Nuclear contribution   :    -17.54695      -2.27938     -25.85861
                        -----------------------------------------
Total Dipole Moment    :     -0.40710       0.20462      -0.53299
                        -----------------------------------------
Magnitude (a.u.)       :      0.70120
Magnitude (Debye)      :      1.78230

Rotational constants in cm-1:     0.018409     0.008208     0.006097
Rotational constants in MHz :   551.876821   246.079530   182.789998

                             ****ORCA TERMINATED NORMALLY****
TOTAL RUN TIME: 0 days 0 hours 0 minutes 21 seconds 204 msec
