                         Program Version 4.2.1 -  RELEASE  -
|  1> ! wB97X-D3 SP def2-SVP
|  2> %pal
|  3> nprocs 24
|  4> end
|  5>
|  6> * xyz 0 1
|  7> S 	 -0.797604 	 -29.1278 	 -115.532
|  8> C 	 -0.162439 	 -27.5335 	 -115.233
|  9> C 	 -0.360792 	 -27.191 	 -113.873
| 10> C 	 -1.16759 	 -28.1334 	 -113.229
| 11> C 	 -1.64851 	 -29.1733 	 -114.009
| 12> H 	 -1.41661 	 -27.9697 	 -112.158
| 13> C 	 -0.0490758 	 -25.8958 	 -113.242
| 14> H 	 0.853054 	 -25.4134 	 -113.467
| 15> H 	 -0.00889523 	 -26.0733 	 -112.183
| 16> C 	 -1.12749 	 -24.766 	 -113.4
| 17> H 	 -0.682462 	 -23.8616 	 -113.03
| 18> H 	 -1.16946 	 -24.5446 	 -114.442
| 19> C 	 -2.52437 	 -25.0247 	 -112.781
| 20> H 	 -2.89719 	 -25.9273 	 -113.162
| 21> H 	 -2.26617 	 -24.9576 	 -111.712
| 22> H 	 -3.22532 	 -24.199 	 -112.896
| 23> S 	 -2.69121 	 -31.7318 	 -114.581
| 24> C 	 -4.25026 	 -32.2068 	 -113.962
| 25> C 	 -4.60847 	 -31.3093 	 -112.932
| 26> C 	 -3.85191 	 -30.0657 	 -112.951
| 27> C 	 -2.7159 	 -30.1521 	 -113.744
| 28> H 	 -5.58387 	 -31.3945 	 -112.437
| 29> C 	 -4.365 	 -28.9903 	 -112.109
| 30> H 	 -3.59862 	 -28.2572 	 -111.845
| 31> H 	 -4.55291 	 -29.4633 	 -111.133
| 32> C 	 -5.6169 	 -28.2854 	 -112.682
| 33> H 	 -5.93704 	 -27.4639 	 -112.036
| 34> H 	 -6.49353 	 -28.9355 	 -112.728
| 35> C 	 -5.47546 	 -27.8074 	 -114.14
| 36> H 	 -5.45688 	 -28.5766 	 -114.899
| 37> H 	 -4.62808 	 -27.2473 	 -114.294
| 38> H 	 -6.30954 	 -27.1822 	 -114.334
| 39> H 	 0.167963 	 -26.8435 	 -115.944
| 40> H 	 -4.78045 	 -33.1436 	 -114.115
| 41> *
| 42>
| 43>                          ****END OF INPUT****

CARTESIAN COORDINATES (ANGSTROEM)
---------------------------------
  S     -0.797604  -29.127800  -115.532000
  C     -0.162439  -27.533500  -115.233000
  C     -0.360792  -27.191000  -113.873000
  C     -1.167590  -28.133400  -113.229000
  C     -1.648510  -29.173300  -114.009000
  H     -1.416610  -27.969700  -112.158000
  C     -0.049076  -25.895800  -113.242000
  H      0.853054  -25.413400  -113.467000
  H     -0.008895  -26.073300  -112.183000
  C     -1.127490  -24.766000  -113.400000
  H     -0.682462  -23.861600  -113.030000
  H     -1.169460  -24.544600  -114.442000
  C     -2.524370  -25.024700  -112.781000
  H     -2.897190  -25.927300  -113.162000
  H     -2.266170  -24.957600  -111.712000
  H     -3.225320  -24.199000  -112.896000
  S     -2.691210  -31.731800  -114.581000
  C     -4.250260  -32.206800  -113.962000
  C     -4.608470  -31.309300  -112.932000
  C     -3.851910  -30.065700  -112.951000
  C     -2.715900  -30.152100  -113.744000
  H     -5.583870  -31.394500  -112.437000
  C     -4.365000  -28.990300  -112.109000
  H     -3.598620  -28.257200  -111.845000
  H     -4.552910  -29.463300  -111.133000
  C     -5.616900  -28.285400  -112.682000
  H     -5.937040  -27.463900  -112.036000
  H     -6.493530  -28.935500  -112.728000
  C     -5.475460  -27.807400  -114.140000
  H     -5.456880  -28.576600  -114.899000
  H     -4.628080  -27.247300  -114.294000
  H     -6.309540  -27.182200  -114.334000
  H      0.167963  -26.843500  -115.944000
  H     -4.780450  -33.143600  -114.115000

 Total Charge           Charge          ....    0
 Multiplicity           Mult            ....    1
 Number of Electrons    NEL             ....  134
 Basis Dimension        Dim             ....  322

ORBITAL ENERGIES
----------------

  NO   OCC          E(Eh)            E(eV)
   0   2.0000     -88.967713     -2420.9345
   1   2.0000     -88.966091     -2420.8904
   2   2.0000     -10.334702      -281.2215
   3   2.0000     -10.334496      -281.2159
   4   2.0000     -10.323856      -280.9264
   5   2.0000     -10.312845      -280.6268
   6   2.0000     -10.303347      -280.3683
   7   2.0000     -10.299460      -280.2626
   8   2.0000     -10.297664      -280.2137
   9   2.0000     -10.295440      -280.1532
  10   2.0000     -10.290405      -280.0162
  11   2.0000     -10.288364      -279.9606
  12   2.0000     -10.286290      -279.9042
  13   2.0000     -10.283747      -279.8350
  14   2.0000     -10.277993      -279.6784
  15   2.0000     -10.262343      -279.2526
  16   2.0000      -8.082567      -219.9378
  17   2.0000      -8.080297      -219.8761
  18   2.0000      -6.041071      -164.3859
  19   2.0000      -6.039002      -164.3296
  20   2.0000      -6.036976      -164.2745
  21   2.0000      -6.034865      -164.2170
  22   2.0000      -6.033396      -164.1771
  23   2.0000      -6.030890      -164.1089
  24   2.0000      -1.006752       -27.3951
  25   2.0000      -0.984196       -26.7813
  26   2.0000      -0.915418       -24.9098
  27   2.0000      -0.911241       -24.7961
  28   2.0000      -0.865732       -23.5578
  29   2.0000      -0.852989       -23.2110
  30   2.0000      -0.845000       -22.9936
  31   2.0000      -0.814073       -22.1521
  32   2.0000      -0.787112       -21.4184
  33   2.0000      -0.778336       -21.1796
  34   2.0000      -0.709997       -19.3200
  35   2.0000      -0.707923       -19.2636
  36   2.0000      -0.695802       -18.9337
  37   2.0000      -0.661119       -17.9900
  38   2.0000      -0.639185       -17.3931
  39   2.0000      -0.623504       -16.9664
  40   2.0000      -0.596883       -16.2420
  41   2.0000      -0.576361       -15.6836
  42   2.0000      -0.556218       -15.1354
  43   2.0000      -0.552292       -15.0286
  44   2.0000      -0.549128       -14.9425
  45   2.0000      -0.534995       -14.5579
  46   2.0000      -0.519395       -14.1334
  47   2.0000      -0.509071       -13.8525
  48   2.0000      -0.504181       -13.7195
  49   2.0000      -0.503435       -13.6992
  50   2.0000      -0.499526       -13.5928
  51   2.0000      -0.480166       -13.0660
  52   2.0000      -0.472369       -12.8538
  53   2.0000      -0.462223       -12.5777
  54   2.0000      -0.454081       -12.3562
  55   2.0000      -0.447342       -12.1728
  56   2.0000      -0.443552       -12.0697
  57   2.0000      -0.440961       -11.9992
  58   2.0000      -0.438521       -11.9328
  59   2.0000      -0.431281       -11.7358
  60   2.0000      -0.418839       -11.3972
  61   2.0000      -0.411258       -11.1909
  62   2.0000      -0.408101       -11.1050
  63   2.0000      -0.355613        -9.6767
  64   2.0000      -0.333197        -9.0668
  65   2.0000      -0.325710        -8.8630
  66   2.0000      -0.280835        -7.6419
  67   0.0000       0.016089         0.4378
  68   0.0000       0.071087         1.9344
  69   0.0000       0.094669         2.5761
  70   0.0000       0.116444         3.1686
  71   0.0000       0.131383         3.5751

MULLIKEN ATOMIC CHARGES
-----------------------
   0 S :    0.116085
   1 C :   -0.100197
   2 C :   -0.081079
   3 C :   -0.021297
   4 C :   -0.120751
   5 H :    0.031086
   6 C :    0.079026
   7 H :    0.013468
   8 H :    0.007489
   9 C :   -0.070904
  10 H :    0.014189
  11 H :    0.007136
  12 C :   -0.040950
  13 H :    0.053824
  14 H :    0.027018
  15 H :    0.035494
  16 S :    0.092073
  17 C :   -0.095372
  18 C :   -0.038204
  19 C :   -0.093493
  20 C :   -0.100680
  21 H :    0.033504
  22 C :    0.076830
  23 H :    0.004327
  24 H :    0.033869
  25 C :   -0.077635
  26 H :    0.031788
  27 H :    0.021792
  28 C :   -0.004890
  29 H :    0.039211
  30 H :    0.004686
  31 H :    0.020003
  32 H :    0.032374
  33 H :    0.070183
Sum of atomic charges:    0.0000000

LOEWDIN ATOMIC CHARGES
----------------------
   0 S :    0.417414
   1 C :   -0.190932
   2 C :   -0.063717
   3 C :   -0.072038
   4 C :   -0.190222
   5 H :    0.035044
   6 C :   -0.028591
   7 H :    0.025997
   8 H :    0.027655
   9 C :   -0.030743
  10 H :    0.018859
  11 H :    0.012250
  12 C :   -0.061306
  13 H :    0.016982
  14 H :    0.030570
  15 H :    0.029615
  16 S :    0.386184
  17 C :   -0.186580
  18 C :   -0.070956
  19 C :   -0.057836
  20 C :   -0.185329
  21 H :    0.031484
  22 C :   -0.039777
  23 H :    0.026472
  24 H :    0.039999
  25 C :   -0.033823
  26 H :    0.025853
  27 H :    0.022343
  28 C :   -0.054147
  29 H :    0.029111
  30 H :    0.011002
  31 H :    0.024814
  32 H :    0.018606
  33 H :    0.035744

  Mayer bond orders larger than 0.100000
B(  0-S ,  1-C ) :   1.1576 B(  0-S ,  4-C ) :   1.1600 B(  1-C ,  2-C ) :   1.5512
B(  1-C ,  4-C ) :   0.1121 B(  1-C , 32-H ) :   0.9786 B(  2-C ,  3-C ) :   1.2892
B(  2-C ,  6-C ) :   1.0508 B(  3-C ,  4-C ) :   1.5235 B(  3-C ,  5-H ) :   0.9836
B(  4-C , 20-C ) :   1.0671 B(  6-C ,  7-H ) :   0.9356 B(  6-C ,  8-H ) :   0.9335
B(  6-C ,  9-C ) :   1.0687 B(  9-C , 10-H ) :   0.9567 B(  9-C , 11-H ) :   0.9536
B(  9-C , 12-C ) :   1.0695 B( 12-C , 13-H ) :   0.9722 B( 12-C , 14-H ) :   0.9745
B( 12-C , 15-H ) :   0.9709 B( 16-S , 17-C ) :   1.1527 B( 16-S , 20-C ) :   1.1148
B( 17-C , 18-C ) :   1.6116 B( 17-C , 33-H ) :   0.9654 B( 18-C , 19-C ) :   1.2351
B( 18-C , 21-H ) :   0.9741 B( 19-C , 20-C ) :   1.5982 B( 19-C , 22-C ) :   1.0559
B( 22-C , 23-H ) :   0.9331 B( 22-C , 24-H ) :   0.9274 B( 22-C , 25-C ) :   1.0652
B( 25-C , 26-H ) :   0.9581 B( 25-C , 27-H ) :   0.9556 B( 25-C , 28-C ) :   1.0755
B( 28-C , 29-H ) :   0.9672 B( 28-C , 30-H ) :   0.9782 B( 28-C , 31-H ) :   0.9683

Dispersion correction           -0.016533575
FINAL SINGLE POINT ENERGY     -1339.861661851455

DIPOLE MOMENT
-------------
                                X             Y             Z
Electronic contribution:     11.81655     -24.54024     -11.20625
Nuclear contribution   :    -12.24281      25.19187      11.60544
                        -----------------------------------------
Total Dipole Moment    :     -0.42626       0.65163       0.39919
                        -----------------------------------------
Magnitude (a.u.)       :      0.87503
Magnitude (Debye)      :      2.22415

Rotational constants in cm-1:     0.019638     0.010673     0.007705
Rotational constants in MHz :   588.737152   319.983240   231.004335

                             ****ORCA TERMINATED NORMALLY****
TOTAL RUN TIME: 0 days 0 hours 0 minutes 23 seconds 762 msec
