                         Program Version 4.2.1 -  RELEASE  -
|  1> ! wB97X-D3 SP def2-SVP
|  2> %pal
|  3> nprocs 24
|  4> end
|  5>
|  6> * xyz 0 1
|  7> S 	 -83.2292 	 -43.0538 	 -86.3548
|  8> C 	 -82.2824 	 -41.7539 	 -86.8564
|  9> C 	 -81.2462 	 -42.1014 	 -87.7388
| 10> C 	 -81.454 	 -43.4842 	 -88.1368
| 11> C 	 -82.662 	 -44.0074 	 -87.7266
| 12> H 	 -80.8709 	 -44.1051 	 -88.7598
| 13> C 	 -80.0106 	 -41.3947 	 -88.1951
| 14> H 	 -79.2724 	 -42.0363 	 -87.7818
| 15> H 	 -80.0577 	 -40.4098 	 -87.7643
| 16> C 	 -79.8178 	 -41.3843 	 -89.683
| 17> H 	 -79.7594 	 -42.4589 	 -90.0771
| 18> H 	 -80.7283 	 -40.9794 	 -90.1299
| 19> C 	 -78.6369 	 -40.5019 	 -90.2311
| 20> H 	 -78.6859 	 -40.3065 	 -91.248
| 21> H 	 -78.6855 	 -39.5853 	 -89.7642
| 22> H 	 -77.7412 	 -40.9419 	 -89.8722
| 23> S 	 -82.8401 	 -46.5847 	 -86.7944
| 24> C 	 -83.0498 	 -47.8557 	 -87.9494
| 25> C 	 -83.292 	 -47.2823 	 -89.1722
| 26> C 	 -83.4252 	 -45.8795 	 -89.2499
| 27> C 	 -83.0456 	 -45.3403 	 -88.0389
| 28> H 	 -83.3329 	 -47.9564 	 -90.0338
| 29> C 	 -83.7918 	 -45.0664 	 -90.3907
| 30> H 	 -83.9387 	 -45.6276 	 -91.2585
| 31> H 	 -83.1544 	 -44.274 	 -90.5863
| 32> C 	 -85.1672 	 -44.3908 	 -90.2608
| 33> H 	 -85.3857 	 -43.827 	 -91.2422
| 34> H 	 -85.1604 	 -43.665 	 -89.3911
| 35> C 	 -86.4378 	 -45.2181 	 -89.9769
| 36> H 	 -86.5772 	 -45.9951 	 -90.7204
| 37> H 	 -87.3801 	 -44.6989 	 -89.9521
| 38> H 	 -86.4152 	 -45.747 	 -89.0825
| 39> H 	 -82.2908 	 -40.7473 	 -86.4895
| 40> H 	 -82.6833 	 -48.8472 	 -87.8126
| 41> *
| 42>
| 43>                          ****END OF INPUT****

CARTESIAN COORDINATES (ANGSTROEM)
---------------------------------
  S    -83.229200  -43.053800  -86.354800
  C    -82.282400  -41.753900  -86.856400
  C    -81.246200  -42.101400  -87.738800
  C    -81.454000  -43.484200  -88.136800
  C    -82.662000  -44.007400  -87.726600
  H    -80.870900  -44.105100  -88.759800
  C    -80.010600  -41.394700  -88.195100
  H    -79.272400  -42.036300  -87.781800
  H    -80.057700  -40.409800  -87.764300
  C    -79.817800  -41.384300  -89.683000
  H    -79.759400  -42.458900  -90.077100
  H    -80.728300  -40.979400  -90.129900
  C    -78.636900  -40.501900  -90.231100
  H    -78.685900  -40.306500  -91.248000
  H    -78.685500  -39.585300  -89.764200
  H    -77.741200  -40.941900  -89.872200
  S    -82.840100  -46.584700  -86.794400
  C    -83.049800  -47.855700  -87.949400
  C    -83.292000  -47.282300  -89.172200
  C    -83.425200  -45.879500  -89.249900
  C    -83.045600  -45.340300  -88.038900
  H    -83.332900  -47.956400  -90.033800
  C    -83.791800  -45.066400  -90.390700
  H    -83.938700  -45.627600  -91.258500
  H    -83.154400  -44.274000  -90.586300
  C    -85.167200  -44.390800  -90.260800
  H    -85.385700  -43.827000  -91.242200
  H    -85.160400  -43.665000  -89.391100
  C    -86.437800  -45.218100  -89.976900
  H    -86.577200  -45.995100  -90.720400
  H    -87.380100  -44.698900  -89.952100
  H    -86.415200  -45.747000  -89.082500
  H    -82.290800  -40.747300  -86.489500
  H    -82.683300  -48.847200  -87.812600

 Total Charge           Charge          ....    0
 Multiplicity           Mult            ....    1
 Number of Electrons    NEL             ....  134
 Basis Dimension        Dim             ....  322

ORBITAL ENERGIES
----------------

  NO   OCC          E(Eh)            E(eV)
   0   2.0000     -88.966098     -2420.8906
   1   2.0000     -88.960468     -2420.7374
   2   2.0000     -10.321932      -280.8740
   3   2.0000     -10.321271      -280.8561
   4   2.0000     -10.310837      -280.5721
   5   2.0000     -10.310667      -280.5675
   6   2.0000     -10.302485      -280.3449
   7   2.0000     -10.297684      -280.2142
   8   2.0000     -10.291929      -280.0576
   9   2.0000     -10.291686      -280.0510
  10   2.0000     -10.291620      -280.0492
  11   2.0000     -10.290748      -280.0255
  12   2.0000     -10.289900      -280.0024
  13   2.0000     -10.278617      -279.6954
  14   2.0000     -10.268644      -279.4240
  15   2.0000     -10.262806      -279.2651
  16   2.0000      -8.081754      -219.9157
  17   2.0000      -8.075684      -219.7505
  18   2.0000      -6.040224      -164.3628
  19   2.0000      -6.036486      -164.2611
  20   2.0000      -6.034170      -164.1981
  21   2.0000      -6.032137      -164.1428
  22   2.0000      -6.030058      -164.0862
  23   2.0000      -6.026500      -163.9894
  24   2.0000      -1.013147       -27.5691
  25   2.0000      -0.989571       -26.9276
  26   2.0000      -0.919503       -25.0209
  27   2.0000      -0.914793       -24.8928
  28   2.0000      -0.875445       -23.8221
  29   2.0000      -0.852702       -23.2032
  30   2.0000      -0.846333       -23.0299
  31   2.0000      -0.814261       -22.1572
  32   2.0000      -0.792535       -21.5660
  33   2.0000      -0.779860       -21.2211
  34   2.0000      -0.712881       -19.3985
  35   2.0000      -0.700190       -19.0531
  36   2.0000      -0.687179       -18.6991
  37   2.0000      -0.662151       -18.0181
  38   2.0000      -0.645739       -17.5714
  39   2.0000      -0.619260       -16.8509
  40   2.0000      -0.599754       -16.3201
  41   2.0000      -0.578291       -15.7361
  42   2.0000      -0.565264       -15.3816
  43   2.0000      -0.556169       -15.1341
  44   2.0000      -0.546175       -14.8622
  45   2.0000      -0.532437       -14.4883
  46   2.0000      -0.519937       -14.1482
  47   2.0000      -0.511017       -13.9055
  48   2.0000      -0.505888       -13.7659
  49   2.0000      -0.500809       -13.6277
  50   2.0000      -0.490865       -13.3571
  51   2.0000      -0.488978       -13.3058
  52   2.0000      -0.471095       -12.8191
  53   2.0000      -0.469491       -12.7755
  54   2.0000      -0.464445       -12.6382
  55   2.0000      -0.450242       -12.2517
  56   2.0000      -0.445808       -12.1310
  57   2.0000      -0.439227       -11.9520
  58   2.0000      -0.428871       -11.6702
  59   2.0000      -0.427320       -11.6280
  60   2.0000      -0.418588       -11.3903
  61   2.0000      -0.415478       -11.3057
  62   2.0000      -0.405091       -11.0231
  63   2.0000      -0.342089        -9.3087
  64   2.0000      -0.329536        -8.9671
  65   2.0000      -0.320568        -8.7231
  66   2.0000      -0.291534        -7.9330
  67   0.0000       0.033023         0.8986
  68   0.0000       0.052485         1.4282
  69   0.0000       0.103815         2.8250
  70   0.0000       0.128627         3.5001
  71   0.0000       0.131224         3.5708

MULLIKEN ATOMIC CHARGES
-----------------------
   0 S :    0.126149
   1 C :   -0.090706
   2 C :   -0.124393
   3 C :    0.035930
   4 C :   -0.177515
   5 H :    0.004907
   6 C :    0.153131
   7 H :    0.033422
   8 H :    0.010562
   9 C :   -0.161126
  10 H :    0.041514
  11 H :    0.025790
  12 C :    0.048030
  13 H :    0.028980
  14 H :   -0.000603
  15 H :    0.018119
  16 S :    0.099177
  17 C :   -0.076129
  18 C :   -0.066549
  19 C :   -0.027796
  20 C :   -0.185919
  21 H :    0.016836
  22 C :    0.215111
  23 H :   -0.008078
  24 H :    0.013648
  25 C :   -0.162917
  26 H :    0.041143
  27 H :    0.043733
  28 C :   -0.021199
  29 H :    0.007442
  30 H :    0.029514
  31 H :    0.020086
  32 H :    0.032007
  33 H :    0.057697
Sum of atomic charges:    0.0000000

LOEWDIN ATOMIC CHARGES
----------------------
   0 S :    0.420465
   1 C :   -0.215731
   2 C :   -0.057646
   3 C :   -0.042050
   4 C :   -0.200477
   5 H :    0.022165
   6 C :   -0.029334
   7 H :    0.037061
   8 H :    0.028303
   9 C :   -0.043959
  10 H :    0.028476
  11 H :    0.021523
  12 C :   -0.047297
  13 H :    0.021281
  14 H :    0.016194
  15 H :    0.022488
  16 S :    0.397339
  17 C :   -0.197110
  18 C :   -0.068840
  19 C :   -0.057138
  20 C :   -0.184039
  21 H :    0.029915
  22 C :   -0.024003
  23 H :    0.025096
  24 H :    0.030074
  25 C :   -0.038274
  26 H :    0.031048
  27 H :    0.026776
  28 C :   -0.069260
  29 H :    0.018521
  30 H :    0.028160
  31 H :    0.017071
  32 H :    0.024186
  33 H :    0.029016

  Mayer bond orders larger than 0.100000
B(  0-S ,  1-C ) :   1.1527 B(  0-S ,  4-C ) :   1.1201 B(  1-C ,  2-C ) :   1.6073
B(  1-C , 32-H ) :   0.9659 B(  2-C ,  3-C ) :   1.2088 B(  2-C ,  6-C ) :   1.0291
B(  3-C ,  4-C ) :   1.5967 B(  3-C ,  5-H ) :   0.9939 B(  4-C , 20-C ) :   1.0656
B(  6-C ,  7-H ) :   0.9254 B(  6-C ,  8-H ) :   0.9299 B(  6-C ,  9-C ) :   1.0666
B(  9-C , 10-H ) :   0.9523 B(  9-C , 11-H ) :   0.9593 B(  9-C , 12-C ) :   1.0809
B( 12-C , 13-H ) :   0.9755 B( 12-C , 14-H ) :   0.9687 B( 12-C , 15-H ) :   0.9736
B( 16-S , 17-C ) :   1.1421 B( 16-S , 20-C ) :   1.1521 B( 17-C , 18-C ) :   1.6208
B( 17-C , 33-H ) :   0.9663 B( 18-C , 19-C ) :   1.2354 B( 18-C , 21-H ) :   0.9836
B( 19-C , 20-C ) :   1.5634 B( 19-C , 22-C ) :   1.0811 B( 22-C , 23-H ) :   0.9125
B( 22-C , 24-H ) :   0.9071 B( 22-C , 25-C ) :   1.0596 B( 25-C , 26-H ) :   0.9589
B( 25-C , 27-H ) :   0.9576 B( 25-C , 28-C ) :   1.0735 B( 28-C , 29-H ) :   0.9719
B( 28-C , 30-H ) :   0.9738 B( 28-C , 31-H ) :   0.9713

Dispersion correction           -0.014760806
FINAL SINGLE POINT ENERGY     -1339.840168271785

DIPOLE MOMENT
-------------
                                X             Y             Z
Electronic contribution:     -3.78783     -11.60835      20.66298
Nuclear contribution   :      4.29224      11.82668     -21.19883
                        -----------------------------------------
Total Dipole Moment    :      0.50441       0.21833      -0.53585
                        -----------------------------------------
Magnitude (a.u.)       :      0.76762
Magnitude (Debye)      :      1.95113

Rotational constants in cm-1:     0.019116     0.008239     0.007637
Rotational constants in MHz :   573.089529   247.011501   228.938654

                             ****ORCA TERMINATED NORMALLY****
TOTAL RUN TIME: 0 days 0 hours 0 minutes 22 seconds 19 msec
