                         Program Version 4.2.1 -  RELEASE  -
|  1> ! wB97X-D3 SP def2-SVP
|  2> %pal
|  3> nprocs 24
|  4> end
|  5>
|  6> * xyz 0 1
|  7> S 	 -109.334 	 22.362 	 -119.252
|  8> C 	 -109.108 	 21.0052 	 -118.208
|  9> C 	 -108.215 	 21.2209 	 -117.195
| 10> C 	 -107.77 	 22.5701 	 -117.231
| 11> C 	 -108.345 	 23.3448 	 -118.184
| 12> H 	 -106.922 	 22.8956 	 -116.764
| 13> C 	 -107.685 	 20.1061 	 -116.25
| 14> H 	 -106.621 	 20.1553 	 -116.105
| 15> H 	 -108.01 	 19.0852 	 -116.649
| 16> C 	 -108.168 	 20.1572 	 -114.77
| 17> H 	 -108.071 	 21.1294 	 -114.226
| 18> H 	 -109.23 	 20.0157 	 -114.678
| 19> C 	 -107.537 	 19.1071 	 -113.899
| 20> H 	 -108.056 	 19.0554 	 -112.935
| 21> H 	 -107.653 	 18.134 	 -114.367
| 22> H 	 -106.547 	 19.4118 	 -113.672
| 23> S 	 -109.665 	 25.6386 	 -118.662
| 24> C 	 -108.93 	 27.2132 	 -118.724
| 25> C 	 -107.57 	 27.0812 	 -118.613
| 26> C 	 -107.156 	 25.7374 	 -118.357
| 27> C 	 -108.177 	 24.7711 	 -118.475
| 28> H 	 -106.892 	 27.8891 	 -118.614
| 29> C 	 -105.693 	 25.3891 	 -117.97
| 30> H 	 -105.387 	 24.427 	 -118.458
| 31> H 	 -105.645 	 25.1976 	 -116.865
| 32> C 	 -104.584 	 26.4414 	 -118.321
| 33> H 	 -104.794 	 27.3106 	 -117.735
| 34> H 	 -104.772 	 26.8211 	 -119.36
| 35> C 	 -103.167 	 25.9539 	 -118.08
| 36> H 	 -103.079 	 25.4975 	 -117.106
| 37> H 	 -102.356 	 26.7258 	 -118.113
| 38> H 	 -102.946 	 25.2598 	 -118.893
| 39> H 	 -109.558 	 20.0307 	 -118.378
| 40> H 	 -109.455 	 28.066 	 -118.97
| 41> *
| 42>
| 43>                          ****END OF INPUT****

CARTESIAN COORDINATES (ANGSTROEM)
---------------------------------
  S    -109.334000   22.362000  -119.252000
  C    -109.108000   21.005200  -118.208000
  C    -108.215000   21.220900  -117.195000
  C    -107.770000   22.570100  -117.231000
  C    -108.345000   23.344800  -118.184000
  H    -106.922000   22.895600  -116.764000
  C    -107.685000   20.106100  -116.250000
  H    -106.621000   20.155300  -116.105000
  H    -108.010000   19.085200  -116.649000
  C    -108.168000   20.157200  -114.770000
  H    -108.071000   21.129400  -114.226000
  H    -109.230000   20.015700  -114.678000
  C    -107.537000   19.107100  -113.899000
  H    -108.056000   19.055400  -112.935000
  H    -107.653000   18.134000  -114.367000
  H    -106.547000   19.411800  -113.672000
  S    -109.665000   25.638600  -118.662000
  C    -108.930000   27.213200  -118.724000
  C    -107.570000   27.081200  -118.613000
  C    -107.156000   25.737400  -118.357000
  C    -108.177000   24.771100  -118.475000
  H    -106.892000   27.889100  -118.614000
  C    -105.693000   25.389100  -117.970000
  H    -105.387000   24.427000  -118.458000
  H    -105.645000   25.197600  -116.865000
  C    -104.584000   26.441400  -118.321000
  H    -104.794000   27.310600  -117.735000
  H    -104.772000   26.821100  -119.360000
  C    -103.167000   25.953900  -118.080000
  H    -103.079000   25.497500  -117.106000
  H    -102.356000   26.725800  -118.113000
  H    -102.946000   25.259800  -118.893000
  H    -109.558000   20.030700  -118.378000
  H    -109.455000   28.066000  -118.970000

 Total Charge           Charge          ....    0
 Multiplicity           Mult            ....    1
 Number of Electrons    NEL             ....  134
 Basis Dimension        Dim             ....  322

ORBITAL ENERGIES
----------------

  NO   OCC          E(Eh)            E(eV)
   0   2.0000     -88.966598     -2420.9042
   1   2.0000     -88.961683     -2420.7705
   2   2.0000     -10.329764      -281.0872
   3   2.0000     -10.328196      -281.0445
   4   2.0000     -10.312591      -280.6199
   5   2.0000     -10.311395      -280.5873
   6   2.0000     -10.308937      -280.5204
   7   2.0000     -10.305081      -280.4155
   8   2.0000     -10.302255      -280.3386
   9   2.0000     -10.301664      -280.3225
  10   2.0000     -10.292136      -280.0633
  11   2.0000     -10.289973      -280.0044
  12   2.0000     -10.285636      -279.8864
  13   2.0000     -10.283423      -279.8262
  14   2.0000     -10.282750      -279.8078
  15   2.0000     -10.273357      -279.5522
  16   2.0000      -8.081817      -219.9174
  17   2.0000      -8.077137      -219.7901
  18   2.0000      -6.040297      -164.3648
  19   2.0000      -6.036376      -164.2581
  20   2.0000      -6.035652      -164.2384
  21   2.0000      -6.032451      -164.1513
  22   2.0000      -6.031288      -164.1197
  23   2.0000      -6.028067      -164.0320
  24   2.0000      -1.011701       -27.5298
  25   2.0000      -0.989167       -26.9166
  26   2.0000      -0.910230       -24.7686
  27   2.0000      -0.904041       -24.6002
  28   2.0000      -0.875314       -23.8185
  29   2.0000      -0.854966       -23.2648
  30   2.0000      -0.846107       -23.0237
  31   2.0000      -0.820924       -22.3385
  32   2.0000      -0.780822       -21.2472
  33   2.0000      -0.770439       -20.9647
  34   2.0000      -0.707710       -19.2578
  35   2.0000      -0.701892       -19.0995
  36   2.0000      -0.692091       -18.8328
  37   2.0000      -0.659672       -17.9506
  38   2.0000      -0.645692       -17.5702
  39   2.0000      -0.626514       -17.0483
  40   2.0000      -0.601906       -16.3787
  41   2.0000      -0.577188       -15.7061
  42   2.0000      -0.567096       -15.4315
  43   2.0000      -0.565431       -15.3862
  44   2.0000      -0.527071       -14.3423
  45   2.0000      -0.523581       -14.2474
  46   2.0000      -0.520371       -14.1600
  47   2.0000      -0.508943       -13.8490
  48   2.0000      -0.505211       -13.7475
  49   2.0000      -0.502917       -13.6851
  50   2.0000      -0.494163       -13.4469
  51   2.0000      -0.475358       -12.9352
  52   2.0000      -0.473236       -12.8774
  53   2.0000      -0.468688       -12.7536
  54   2.0000      -0.461311       -12.5529
  55   2.0000      -0.455524       -12.3954
  56   2.0000      -0.452697       -12.3185
  57   2.0000      -0.432566       -11.7707
  58   2.0000      -0.428373       -11.6566
  59   2.0000      -0.426084       -11.5943
  60   2.0000      -0.419275       -11.4091
  61   2.0000      -0.415903       -11.3173
  62   2.0000      -0.413139       -11.2421
  63   2.0000      -0.353354        -9.6153
  64   2.0000      -0.331914        -9.0318
  65   2.0000      -0.326988        -8.8978
  66   2.0000      -0.293070        -7.9748
  67   0.0000       0.029651         0.8068
  68   0.0000       0.073578         2.0022
  69   0.0000       0.107961         2.9378
  70   0.0000       0.125158         3.4057
  71   0.0000       0.136524         3.7150

MULLIKEN ATOMIC CHARGES
-----------------------
   0 S :    0.118718
   1 C :   -0.123493
   2 C :   -0.060265
   3 C :    0.062378
   4 C :   -0.146302
   5 H :   -0.029322
   6 C :    0.066926
   7 H :    0.025307
   8 H :    0.033415
   9 C :   -0.108461
  10 H :    0.029886
  11 H :    0.016495
  12 C :   -0.029465
  13 H :    0.030867
  14 H :    0.029282
  15 H :    0.026047
  16 S :    0.092309
  17 C :   -0.048869
  18 C :   -0.013017
  19 C :   -0.061682
  20 C :   -0.116271
  21 H :    0.001609
  22 C :   -0.001629
  23 H :    0.040352
  24 H :    0.051667
  25 C :   -0.101896
  26 H :    0.024007
  27 H :    0.037012
  28 C :   -0.030925
  29 H :    0.030559
  30 H :    0.039158
  31 H :    0.037954
  32 H :    0.043365
  33 H :    0.034281
Sum of atomic charges:    0.0000000

LOEWDIN ATOMIC CHARGES
----------------------
   0 S :    0.411956
   1 C :   -0.196707
   2 C :   -0.062959
   3 C :   -0.052063
   4 C :   -0.188124
   5 H :    0.015677
   6 C :   -0.025067
   7 H :    0.028725
   8 H :    0.038268
   9 C :   -0.052558
  10 H :    0.026951
  11 H :    0.017308
  12 C :   -0.061397
  13 H :    0.030921
  14 H :    0.023850
  15 H :    0.018435
  16 S :    0.425552
  17 C :   -0.173499
  18 C :   -0.067958
  19 C :   -0.058163
  20 C :   -0.207092
  21 H :    0.024053
  22 C :   -0.038463
  23 H :    0.032501
  24 H :    0.034106
  25 C :   -0.050567
  26 H :    0.015079
  27 H :    0.027576
  28 C :   -0.065044
  29 H :    0.024561
  30 H :    0.032762
  31 H :    0.028824
  32 H :    0.027138
  33 H :    0.015419

  Mayer bond orders larger than 0.100000
B(  0-S ,  1-C ) :   1.1446 B(  0-S ,  4-C ) :   1.1473 B(  1-C ,  2-C ) :   1.6299
B(  1-C , 32-H ) :   0.9624 B(  2-C ,  3-C ) :   1.2368 B(  2-C ,  6-C ) :   1.0211
B(  3-C ,  4-C ) :   1.6017 B(  3-C ,  5-H ) :   1.0053 B(  4-C , 20-C ) :   1.0094
B(  6-C ,  7-H ) :   0.9447 B(  6-C ,  8-H ) :   0.9426 B(  6-C ,  9-C ) :   1.0490
B(  9-C , 10-H ) :   0.9561 B(  9-C , 11-H ) :   0.9548 B(  9-C , 12-C ) :   1.0933
B( 12-C , 13-H ) :   0.9708 B( 12-C , 14-H ) :   0.9725 B( 12-C , 15-H ) :   0.9753
B( 16-S , 17-C ) :   1.1759 B( 16-S , 20-C ) :   1.1595 B( 17-C , 18-C ) :   1.5508
B( 17-C , 20-C ) :   0.1070 B( 17-C , 33-H ) :   0.9769 B( 18-C , 19-C ) :   1.2886
B( 18-C , 21-H ) :   0.9952 B( 19-C , 20-C ) :   1.5702 B( 19-C , 22-C ) :   1.0228
B( 22-C , 23-H ) :   0.9489 B( 22-C , 24-H ) :   0.9281 B( 22-C , 25-C ) :   1.0662
B( 25-C , 26-H ) :   0.9457 B( 25-C , 27-H ) :   0.9589 B( 25-C , 28-C ) :   1.0802
B( 28-C , 29-H ) :   0.9726 B( 28-C , 30-H ) :   0.9729 B( 28-C , 31-H ) :   0.9756

Dispersion correction           -0.012950949
FINAL SINGLE POINT ENERGY     -1339.876122654008

DIPOLE MOMENT
-------------
                                X             Y             Z
Electronic contribution:    -22.36263       8.14718     -16.80553
Nuclear contribution   :     22.93859      -8.20066      17.19234
                        -----------------------------------------
Total Dipole Moment    :      0.57596      -0.05348       0.38682
                        -----------------------------------------
Magnitude (a.u.)       :      0.69585
Magnitude (Debye)      :      1.76872

Rotational constants in cm-1:     0.016884     0.007720     0.005962
Rotational constants in MHz :   506.159756   231.450381   178.732692

                             ****ORCA TERMINATED NORMALLY****
TOTAL RUN TIME: 0 days 0 hours 0 minutes 20 seconds 667 msec
