                         Program Version 4.2.1 -  RELEASE  -
|  1> ! wB97X-D3 SP def2-SVP
|  2> %pal
|  3> nprocs 24
|  4> end
|  5>
|  6> * xyz 0 1
|  7> S 	 29.4476 	 -4.89988 	 -119.759
|  8> C 	 28.1147 	 -5.69981 	 -120.379
|  9> C 	 28.4241 	 -6.92951 	 -120.974
| 10> C 	 29.8132 	 -7.19187 	 -120.959
| 11> C 	 30.5087 	 -6.07499 	 -120.514
| 12> H 	 30.3536 	 -8.02551 	 -121.403
| 13> C 	 27.4462 	 -7.88396 	 -121.647
| 14> H 	 26.5484 	 -8.06834 	 -121.034
| 15> H 	 27.9607 	 -8.7971 	 -121.773
| 16> C 	 26.9825 	 -7.35656 	 -123.007
| 17> H 	 26.873 	 -6.29351 	 -122.932
| 18> H 	 27.6572 	 -7.49811 	 -123.842
| 19> C 	 25.6247 	 -7.80131 	 -123.522
| 20> H 	 25.6194 	 -8.87311 	 -123.46
| 21> H 	 24.8422 	 -7.24543 	 -122.988
| 22> H 	 25.514 	 -7.46817 	 -124.512
| 23> S 	 32.9535 	 -5.50839 	 -121.866
| 24> C 	 34.3103 	 -5.38492 	 -120.711
| 25> C 	 34.0352 	 -6.05881 	 -119.48
| 26> C 	 32.6865 	 -6.37775 	 -119.302
| 27> C 	 31.9552 	 -5.9433 	 -120.427
| 28> H 	 34.8301 	 -6.2026 	 -118.8
| 29> C 	 32.1495 	 -7.13852 	 -118.072
| 30> H 	 32.9681 	 -7.53266 	 -117.421
| 31> H 	 31.6558 	 -8.04806 	 -118.535
| 32> C 	 31.1298 	 -6.41179 	 -117.199
| 33> H 	 30.1387 	 -6.3428 	 -117.704
| 34> H 	 31.5011 	 -5.40568 	 -117.071
| 35> C 	 30.8783 	 -7.0282 	 -115.886
| 36> H 	 30.6357 	 -6.29235 	 -115.094
| 37> H 	 31.7851 	 -7.60941 	 -115.551
| 38> H 	 30.0268 	 -7.59893 	 -115.874
| 39> H 	 27.1745 	 -5.20182 	 -120.478
| 40> H 	 35.2708 	 -4.9775 	 -121.006
| 41> *
| 42>
| 43>                          ****END OF INPUT****

CARTESIAN COORDINATES (ANGSTROEM)
---------------------------------
  S     29.447600   -4.899880  -119.759000
  C     28.114700   -5.699810  -120.379000
  C     28.424100   -6.929510  -120.974000
  C     29.813200   -7.191870  -120.959000
  C     30.508700   -6.074990  -120.514000
  H     30.353600   -8.025510  -121.403000
  C     27.446200   -7.883960  -121.647000
  H     26.548400   -8.068340  -121.034000
  H     27.960700   -8.797100  -121.773000
  C     26.982500   -7.356560  -123.007000
  H     26.873000   -6.293510  -122.932000
  H     27.657200   -7.498110  -123.842000
  C     25.624700   -7.801310  -123.522000
  H     25.619400   -8.873110  -123.460000
  H     24.842200   -7.245430  -122.988000
  H     25.514000   -7.468170  -124.512000
  S     32.953500   -5.508390  -121.866000
  C     34.310300   -5.384920  -120.711000
  C     34.035200   -6.058810  -119.480000
  C     32.686500   -6.377750  -119.302000
  C     31.955200   -5.943300  -120.427000
  H     34.830100   -6.202600  -118.800000
  C     32.149500   -7.138520  -118.072000
  H     32.968100   -7.532660  -117.421000
  H     31.655800   -8.048060  -118.535000
  C     31.129800   -6.411790  -117.199000
  H     30.138700   -6.342800  -117.704000
  H     31.501100   -5.405680  -117.071000
  C     30.878300   -7.028200  -115.886000
  H     30.635700   -6.292350  -115.094000
  H     31.785100   -7.609410  -115.551000
  H     30.026800   -7.598930  -115.874000
  H     27.174500   -5.201820  -120.478000
  H     35.270800   -4.977500  -121.006000

 Total Charge           Charge          ....    0
 Multiplicity           Mult            ....    1
 Number of Electrons    NEL             ....  134
 Basis Dimension        Dim             ....  322

ORBITAL ENERGIES
----------------

  NO   OCC          E(Eh)            E(eV)
   0   2.0000     -88.970707     -2421.0160
   1   2.0000     -88.965908     -2420.8854
   2   2.0000     -10.323843      -280.9261
   3   2.0000     -10.322269      -280.8832
   4   2.0000     -10.320513      -280.8354
   5   2.0000     -10.305075      -280.4153
   6   2.0000     -10.304475      -280.3990
   7   2.0000     -10.299662      -280.2681
   8   2.0000     -10.298764      -280.2436
   9   2.0000     -10.293518      -280.1009
  10   2.0000     -10.292760      -280.0802
  11   2.0000     -10.288673      -279.9690
  12   2.0000     -10.275795      -279.6186
  13   2.0000     -10.274851      -279.5929
  14   2.0000     -10.270106      -279.4638
  15   2.0000     -10.268190      -279.4117
  16   2.0000      -8.083774      -219.9707
  17   2.0000      -8.081411      -219.9064
  18   2.0000      -6.042128      -164.4147
  19   2.0000      -6.039597      -164.3458
  20   2.0000      -6.038965      -164.3286
  21   2.0000      -6.035764      -164.2415
  22   2.0000      -6.034374      -164.2037
  23   2.0000      -6.032487      -164.1523
  24   2.0000      -1.006070       -27.3765
  25   2.0000      -0.977795       -26.6071
  26   2.0000      -0.912452       -24.8291
  27   2.0000      -0.908392       -24.7186
  28   2.0000      -0.862679       -23.4747
  29   2.0000      -0.857514       -23.3341
  30   2.0000      -0.854620       -23.2554
  31   2.0000      -0.807063       -21.9613
  32   2.0000      -0.784704       -21.3529
  33   2.0000      -0.765276       -20.8242
  34   2.0000      -0.699018       -19.0213
  35   2.0000      -0.695932       -18.9373
  36   2.0000      -0.684354       -18.6222
  37   2.0000      -0.657809       -17.8999
  38   2.0000      -0.648921       -17.6580
  39   2.0000      -0.612874       -16.6772
  40   2.0000      -0.594706       -16.1828
  41   2.0000      -0.574243       -15.6260
  42   2.0000      -0.572152       -15.5691
  43   2.0000      -0.551836       -15.0162
  44   2.0000      -0.531452       -14.4616
  45   2.0000      -0.521026       -14.1778
  46   2.0000      -0.519502       -14.1364
  47   2.0000      -0.513962       -13.9856
  48   2.0000      -0.506209       -13.7746
  49   2.0000      -0.496038       -13.4979
  50   2.0000      -0.485523       -13.2117
  51   2.0000      -0.478968       -13.0334
  52   2.0000      -0.470945       -12.8151
  53   2.0000      -0.465336       -12.6624
  54   2.0000      -0.458492       -12.4762
  55   2.0000      -0.448317       -12.1993
  56   2.0000      -0.440029       -11.9738
  57   2.0000      -0.438014       -11.9190
  58   2.0000      -0.435387       -11.8475
  59   2.0000      -0.421346       -11.4654
  60   2.0000      -0.418716       -11.3938
  61   2.0000      -0.414007       -11.2657
  62   2.0000      -0.406554       -11.0629
  63   2.0000      -0.337697        -9.1892
  64   2.0000      -0.333684        -9.0800
  65   2.0000      -0.311090        -8.4652
  66   2.0000      -0.293218        -7.9789
  67   0.0000       0.033236         0.9044
  68   0.0000       0.044986         1.2241
  69   0.0000       0.093271         2.5380
  70   0.0000       0.115542         3.1441
  71   0.0000       0.136464         3.7134

MULLIKEN ATOMIC CHARGES
-----------------------
   0 S :    0.126385
   1 C :   -0.114819
   2 C :   -0.102965
   3 C :    0.044331
   4 C :   -0.207507
   5 H :    0.021208
   6 C :    0.123807
   7 H :    0.029310
   8 H :    0.007747
   9 C :   -0.097698
  10 H :    0.011198
  11 H :    0.023939
  12 C :   -0.017749
  13 H :    0.031730
  14 H :    0.028695
  15 H :    0.017295
  16 S :    0.116279
  17 C :   -0.105373
  18 C :   -0.028133
  19 C :    0.000315
  20 C :   -0.188048
  21 H :    0.004052
  22 C :    0.073028
  23 H :    0.024567
  24 H :    0.039052
  25 C :   -0.093140
  26 H :    0.055500
  27 H :    0.025451
  28 C :   -0.013315
  29 H :    0.027223
  30 H :    0.025957
  31 H :    0.012402
  32 H :    0.043653
  33 H :    0.055623
Sum of atomic charges:   -0.0000000

LOEWDIN ATOMIC CHARGES
----------------------
   0 S :    0.461713
   1 C :   -0.224027
   2 C :   -0.061056
   3 C :   -0.060416
   4 C :   -0.196372
   5 H :    0.036271
   6 C :   -0.026160
   7 H :    0.034123
   8 H :    0.023733
   9 C :   -0.043888
  10 H :    0.018166
  11 H :    0.022474
  12 C :   -0.057351
  13 H :    0.021533
  14 H :    0.025787
  15 H :    0.020882
  16 S :    0.376478
  17 C :   -0.173346
  18 C :   -0.061493
  19 C :   -0.048339
  20 C :   -0.195946
  21 H :    0.023787
  22 C :   -0.030823
  23 H :    0.031181
  24 H :    0.040517
  25 C :   -0.056672
  26 H :    0.023355
  27 H :    0.021052
  28 C :   -0.064085
  29 H :    0.032862
  30 H :    0.027608
  31 H :    0.013627
  32 H :    0.021498
  33 H :    0.023329

  Mayer bond orders larger than 0.100000
B(  0-S ,  1-C ) :   1.1719 B(  0-S ,  4-C ) :   1.1796 B(  1-C ,  2-C ) :   1.5660
B(  1-C , 32-H ) :   0.9699 B(  2-C ,  3-C ) :   1.2684 B(  2-C ,  6-C ) :   1.0340
B(  3-C ,  4-C ) :   1.5648 B(  3-C ,  5-H ) :   0.9897 B(  4-C , 20-C ) :   1.0359
B(  6-C ,  7-H ) :   0.9420 B(  6-C ,  8-H ) :   0.9316 B(  6-C ,  9-C ) :   1.0517
B(  9-C , 10-H ) :   0.9635 B(  9-C , 11-H ) :   0.9560 B(  9-C , 12-C ) :   1.0919
B( 12-C , 13-H ) :   0.9760 B( 12-C , 14-H ) :   0.9764 B( 12-C , 15-H ) :   0.9705
B( 16-S , 17-C ) :   1.1495 B( 16-S , 20-C ) :   1.1388 B( 17-C , 18-C ) :   1.5831
B( 17-C , 20-C ) :   0.1172 B( 17-C , 33-H ) :   0.9708 B( 18-C , 19-C ) :   1.2577
B( 18-C , 21-H ) :   0.9965 B( 19-C , 20-C ) :   1.5700 B( 19-C , 22-C ) :   1.0272
B( 22-C , 23-H ) :   0.9401 B( 22-C , 24-H ) :   0.9243 B( 22-C , 25-C ) :   1.0673
B( 25-C , 26-H ) :   0.9422 B( 25-C , 27-H ) :   0.9595 B( 25-C , 28-C ) :   1.0954
B( 28-C , 29-H ) :   0.9692 B( 28-C , 30-H ) :   0.9713 B( 28-C , 31-H ) :   0.9742

Dispersion correction           -0.014795126
FINAL SINGLE POINT ENERGY     -1339.847305791751

DIPOLE MOMENT
-------------
                                X             Y             Z
Electronic contribution:     15.90408      12.61997      -5.60833
Nuclear contribution   :    -16.04394     -12.94077       5.68077
                        -----------------------------------------
Total Dipole Moment    :     -0.13986      -0.32080       0.07244
                        -----------------------------------------
Magnitude (a.u.)       :      0.35738
Magnitude (Debye)      :      0.90839

Rotational constants in cm-1:     0.019530     0.008412     0.006680
Rotational constants in MHz :   585.503230   252.195774   200.275302

                             ****ORCA TERMINATED NORMALLY****
TOTAL RUN TIME: 0 days 0 hours 0 minutes 21 seconds 746 msec
