                         Program Version 4.2.1 -  RELEASE  -
|  1> ! wB97X-D3 SP def2-SVP
|  2> %pal
|  3> nprocs 24
|  4> end
|  5>
|  6> * xyz 0 1
|  7> S 	 29.8814 	 1.42306 	 -111.819
|  8> C 	 28.4578 	 2.49309 	 -112.066
|  9> C 	 27.3046 	 1.78402 	 -111.846
| 10> C 	 27.5479 	 0.37348 	 -111.534
| 11> C 	 28.8729 	 -0.0040436 	 -111.506
| 12> H 	 26.661 	 -0.333416 	 -111.331
| 13> C 	 26.0023 	 2.52833 	 -111.715
| 14> H 	 25.129 	 1.93449 	 -112.064
| 15> H 	 26.1087 	 3.33059 	 -112.356
| 16> C 	 25.7125 	 2.98025 	 -110.285
| 17> H 	 25.5213 	 2.1846 	 -109.588
| 18> H 	 26.5826 	 3.51522 	 -110.01
| 19> C 	 24.5266 	 3.95914 	 -110.28
| 20> H 	 24.3845 	 4.39555 	 -109.297
| 21> H 	 24.5941 	 4.63785 	 -111.152
| 22> H 	 23.6717 	 3.3085 	 -110.497
| 23> S 	 30.558 	 -2.07416 	 -112.149
| 24> C 	 30.5374 	 -3.46034 	 -111.1
| 25> C 	 29.7616 	 -3.26236 	 -109.955
| 26> C 	 29.2049 	 -1.95969 	 -109.855
| 27> C 	 29.4773 	 -1.23419 	 -110.99
| 28> H 	 29.7103 	 -4.11065 	 -109.302
| 29> C 	 28.188 	 -1.60049 	 -108.766
| 30> H 	 28.3005 	 -2.34578 	 -107.983
| 31> H 	 27.2398 	 -1.72717 	 -109.229
| 32> C 	 28.3003 	 -0.176844 	 -108.248
| 33> H 	 28.6601 	 0.655429 	 -108.959
| 34> H 	 29.1068 	 -0.200066 	 -107.545
| 35> C 	 27.0874 	 0.430744 	 -107.554
| 36> H 	 27.266 	 1.50409 	 -107.38
| 37> H 	 26.8894 	 -0.0212646 	 -106.456
| 38> H 	 26.1647 	 0.39292 	 -108.151
| 39> H 	 28.5125 	 3.63211 	 -112.278
| 40> H 	 31.0433 	 -4.31859 	 -111.469
| 41> *
| 42>
| 43>                          ****END OF INPUT****

CARTESIAN COORDINATES (ANGSTROEM)
---------------------------------
  S     29.881400    1.423060  -111.819000
  C     28.457800    2.493090  -112.066000
  C     27.304600    1.784020  -111.846000
  C     27.547900    0.373480  -111.534000
  C     28.872900   -0.004044  -111.506000
  H     26.661000   -0.333416  -111.331000
  C     26.002300    2.528330  -111.715000
  H     25.129000    1.934490  -112.064000
  H     26.108700    3.330590  -112.356000
  C     25.712500    2.980250  -110.285000
  H     25.521300    2.184600  -109.588000
  H     26.582600    3.515220  -110.010000
  C     24.526600    3.959140  -110.280000
  H     24.384500    4.395550  -109.297000
  H     24.594100    4.637850  -111.152000
  H     23.671700    3.308500  -110.497000
  S     30.558000   -2.074160  -112.149000
  C     30.537400   -3.460340  -111.100000
  C     29.761600   -3.262360  -109.955000
  C     29.204900   -1.959690  -109.855000
  C     29.477300   -1.234190  -110.990000
  H     29.710300   -4.110650  -109.302000
  C     28.188000   -1.600490  -108.766000
  H     28.300500   -2.345780  -107.983000
  H     27.239800   -1.727170  -109.229000
  C     28.300300   -0.176844  -108.248000
  H     28.660100    0.655429  -108.959000
  H     29.106800   -0.200066  -107.545000
  C     27.087400    0.430744  -107.554000
  H     27.266000    1.504090  -107.380000
  H     26.889400   -0.021265  -106.456000
  H     26.164700    0.392920  -108.151000
  H     28.512500    3.632110  -112.278000
  H     31.043300   -4.318590  -111.469000

 Total Charge           Charge          ....    0
 Multiplicity           Mult            ....    1
 Number of Electrons    NEL             ....  134
 Basis Dimension        Dim             ....  322

ORBITAL ENERGIES
----------------

  NO   OCC          E(Eh)            E(eV)
   0   2.0000     -88.964524     -2420.8478
   1   2.0000     -88.962507     -2420.7929
   2   2.0000     -10.332619      -281.1649
   3   2.0000     -10.327548      -281.0269
   4   2.0000     -10.323758      -280.9237
   5   2.0000     -10.318298      -280.7752
   6   2.0000     -10.308443      -280.5070
   7   2.0000     -10.304850      -280.4092
   8   2.0000     -10.302671      -280.3499
   9   2.0000     -10.296843      -280.1913
  10   2.0000     -10.294245      -280.1206
  11   2.0000     -10.289363      -279.9878
  12   2.0000     -10.288175      -279.9555
  13   2.0000     -10.284500      -279.8555
  14   2.0000     -10.280803      -279.7549
  15   2.0000     -10.280727      -279.7528
  16   2.0000      -8.079346      -219.8502
  17   2.0000      -8.076151      -219.7632
  18   2.0000      -6.037602      -164.2915
  19   2.0000      -6.034913      -164.2183
  20   2.0000      -6.033922      -164.1914
  21   2.0000      -6.030791      -164.1062
  22   2.0000      -6.030286      -164.0924
  23   2.0000      -6.026700      -163.9948
  24   2.0000      -1.002293       -27.2738
  25   2.0000      -0.978986       -26.6396
  26   2.0000      -0.918156       -24.9843
  27   2.0000      -0.909805       -24.7571
  28   2.0000      -0.867564       -23.6076
  29   2.0000      -0.853479       -23.2243
  30   2.0000      -0.838483       -22.8163
  31   2.0000      -0.812231       -22.1019
  32   2.0000      -0.785458       -21.3734
  33   2.0000      -0.768857       -20.9217
  34   2.0000      -0.707690       -19.2572
  35   2.0000      -0.698310       -19.0020
  36   2.0000      -0.687136       -18.6979
  37   2.0000      -0.666609       -18.1394
  38   2.0000      -0.634431       -17.2637
  39   2.0000      -0.616254       -16.7691
  40   2.0000      -0.596433       -16.2298
  41   2.0000      -0.575617       -15.6633
  42   2.0000      -0.565847       -15.3975
  43   2.0000      -0.559207       -15.2168
  44   2.0000      -0.530418       -14.4334
  45   2.0000      -0.524560       -14.2740
  46   2.0000      -0.516094       -14.0436
  47   2.0000      -0.511762       -13.9258
  48   2.0000      -0.503642       -13.7048
  49   2.0000      -0.495113       -13.4727
  50   2.0000      -0.492746       -13.4083
  51   2.0000      -0.486276       -13.2322
  52   2.0000      -0.468677       -12.7533
  53   2.0000      -0.463114       -12.6020
  54   2.0000      -0.453506       -12.3405
  55   2.0000      -0.447118       -12.1667
  56   2.0000      -0.442958       -12.0535
  57   2.0000      -0.438086       -11.9209
  58   2.0000      -0.432025       -11.7560
  59   2.0000      -0.428232       -11.6528
  60   2.0000      -0.422651       -11.5009
  61   2.0000      -0.413436       -11.2502
  62   2.0000      -0.404975       -11.0199
  63   2.0000      -0.339910        -9.2494
  64   2.0000      -0.334732        -9.1085
  65   2.0000      -0.326907        -8.8956
  66   2.0000      -0.297251        -8.0886
  67   0.0000       0.030714         0.8358
  68   0.0000       0.061719         1.6794
  69   0.0000       0.107054         2.9131
  70   0.0000       0.115314         3.1379
  71   0.0000       0.125415         3.4127

MULLIKEN ATOMIC CHARGES
-----------------------
   0 S :    0.083957
   1 C :   -0.157972
   2 C :   -0.105679
   3 C :    0.006993
   4 C :   -0.132584
   5 H :    0.041243
   6 C :    0.066895
   7 H :    0.022806
   8 H :    0.000320
   9 C :   -0.052785
  10 H :    0.025738
  11 H :    0.012190
  12 C :   -0.033735
  13 H :    0.044214
  14 H :    0.031867
  15 H :    0.019087
  16 S :    0.103079
  17 C :   -0.093054
  18 C :   -0.043328
  19 C :   -0.014677
  20 C :   -0.173074
  21 H :    0.016547
  22 C :    0.141418
  23 H :    0.022764
  24 H :    0.023444
  25 C :   -0.106456
  26 H :    0.065533
  27 H :    0.019304
  28 C :   -0.092903
  29 H :    0.037999
  30 H :    0.041714
  31 H :    0.040199
  32 H :    0.086408
  33 H :    0.052530
Sum of atomic charges:   -0.0000000

LOEWDIN ATOMIC CHARGES
----------------------
   0 S :    0.367744
   1 C :   -0.198512
   2 C :   -0.066483
   3 C :   -0.073533
   4 C :   -0.188755
   5 H :    0.043203
   6 C :   -0.026311
   7 H :    0.029973
   8 H :    0.019062
   9 C :   -0.032269
  10 H :    0.021405
  11 H :    0.015302
  12 C :   -0.062241
  13 H :    0.026899
  14 H :    0.026904
  15 H :    0.024385
  16 S :    0.396427
  17 C :   -0.172522
  18 C :   -0.072209
  19 C :   -0.044531
  20 C :   -0.190014
  21 H :    0.030322
  22 C :   -0.018526
  23 H :    0.032999
  24 H :    0.027268
  25 C :   -0.055935
  26 H :    0.042862
  27 H :    0.022484
  28 C :   -0.076653
  29 H :    0.028776
  30 H :    0.033750
  31 H :    0.018140
  32 H :    0.050873
  33 H :    0.019716

  Mayer bond orders larger than 0.100000
B(  0-S ,  1-C ) :   1.1118 B(  0-S ,  4-C ) :   1.1368 B(  1-C ,  2-C ) :   1.6387
B(  1-C , 32-H ) :   0.9537 B(  2-C ,  3-C ) :   1.2164 B(  2-C ,  6-C ) :   1.0398
B(  3-C ,  4-C ) :   1.5995 B(  3-C ,  5-H ) :   0.9853 B(  4-C , 20-C ) :   1.0049
B(  6-C ,  7-H ) :   0.9364 B(  6-C ,  8-H ) :   0.9330 B(  6-C ,  9-C ) :   1.0674
B(  9-C , 10-H ) :   0.9508 B(  9-C , 11-H ) :   0.9528 B(  9-C , 12-C ) :   1.0816
B( 12-C , 13-H ) :   0.9737 B( 12-C , 14-H ) :   0.9749 B( 12-C , 15-H ) :   0.9741
B( 16-S , 17-C ) :   1.1707 B( 16-S , 20-C ) :   1.1430 B( 17-C , 18-C ) :   1.5979
B( 17-C , 20-C ) :   0.1049 B( 17-C , 33-H ) :   0.9744 B( 18-C , 19-C ) :   1.2164
B( 18-C , 21-H ) :   0.9983 B( 19-C , 20-C ) :   1.6077 B( 19-C , 22-C ) :   1.0333
B( 22-C , 23-H ) :   0.9306 B( 22-C , 24-H ) :   0.9372 B( 22-C , 25-C ) :   1.0403
B( 25-C , 26-H ) :   0.9584 B( 25-C , 27-H ) :   0.9497 B( 25-C , 28-C ) :   1.0884
B( 28-C , 29-H ) :   0.9732 B( 28-C , 30-H ) :   0.9687 B( 28-C , 31-H ) :   0.9682

Dispersion correction           -0.016012989
FINAL SINGLE POINT ENERGY     -1339.868353216471

DIPOLE MOMENT
-------------
                                X             Y             Z
Electronic contribution:     24.34106     -13.45975     -17.15162
Nuclear contribution   :    -24.93418      13.42538      17.57654
                        -----------------------------------------
Total Dipole Moment    :     -0.59311      -0.03438       0.42491
                        -----------------------------------------
Magnitude (a.u.)       :      0.73042
Magnitude (Debye)      :      1.85659

Rotational constants in cm-1:     0.022557     0.008929     0.007074
Rotational constants in MHz :   676.237311   267.692910   212.079034

                             ****ORCA TERMINATED NORMALLY****
TOTAL RUN TIME: 0 days 0 hours 0 minutes 22 seconds 995 msec
