                         Program Version 4.2.1 -  RELEASE  -
|  1> ! wB97X-D3 SP def2-SVP
|  2> %pal
|  3> nprocs 24
|  4> end
|  5>
|  6> * xyz 0 1
|  7> S 	 -111.805 	 59.2656 	 -75.1037
|  8> C 	 -110.772 	 60.6798 	 -75.3135
|  9> C 	 -111.097 	 61.6725 	 -74.4018
| 10> C 	 -112.232 	 61.3315 	 -73.5746
| 11> C 	 -112.815 	 60.13 	 -73.8776
| 12> H 	 -112.609 	 61.9606 	 -72.7948
| 13> C 	 -110.353 	 62.9979 	 -74.2873
| 14> H 	 -109.407 	 62.8445 	 -74.7966
| 15> H 	 -110.177 	 63.0836 	 -73.1641
| 16> C 	 -110.942 	 64.2857 	 -74.9348
| 17> H 	 -110.304 	 65.1632 	 -75.1731
| 18> H 	 -111.352 	 64.0805 	 -75.9546
| 19> C 	 -112.109 	 64.845 	 -74.0946
| 20> H 	 -112.442 	 65.81 	 -74.5015
| 21> H 	 -113.024 	 64.2559 	 -74.1429
| 22> H 	 -111.961 	 65.0435 	 -73.0404
| 23> S 	 -113.994 	 59.4894 	 -71.5629
| 24> C 	 -115.681 	 59.0249 	 -71.5847
| 25> C 	 -116.128 	 58.7435 	 -72.8299
| 26> C 	 -115.133 	 58.9134 	 -73.7834
| 27> C 	 -113.97 	 59.4571 	 -73.3167
| 28> H 	 -117.13 	 58.411 	 -72.8881
| 29> C 	 -115.352 	 58.6801 	 -75.2206
| 30> H 	 -115.798 	 57.7439 	 -75.3869
| 31> H 	 -114.474 	 58.6509 	 -75.8624
| 32> C 	 -116.397 	 59.7443 	 -75.7512
| 33> H 	 -116.107 	 60.768 	 -75.4698
| 34> H 	 -117.296 	 59.7385 	 -75.1327
| 35> C 	 -116.613 	 59.6122 	 -77.2843
| 36> H 	 -117.385 	 60.3221 	 -77.6412
| 37> H 	 -116.884 	 58.6271 	 -77.5914
| 38> H 	 -115.65 	 59.8517 	 -77.7544
| 39> H 	 -109.852 	 60.8693 	 -75.8928
| 40> H 	 -116.196 	 58.9962 	 -70.6519
| 41> *
| 42>
| 43>                          ****END OF INPUT****

CARTESIAN COORDINATES (ANGSTROEM)
---------------------------------
  S    -111.805000   59.265600  -75.103700
  C    -110.772000   60.679800  -75.313500
  C    -111.097000   61.672500  -74.401800
  C    -112.232000   61.331500  -73.574600
  C    -112.815000   60.130000  -73.877600
  H    -112.609000   61.960600  -72.794800
  C    -110.353000   62.997900  -74.287300
  H    -109.407000   62.844500  -74.796600
  H    -110.177000   63.083600  -73.164100
  C    -110.942000   64.285700  -74.934800
  H    -110.304000   65.163200  -75.173100
  H    -111.352000   64.080500  -75.954600
  C    -112.109000   64.845000  -74.094600
  H    -112.442000   65.810000  -74.501500
  H    -113.024000   64.255900  -74.142900
  H    -111.961000   65.043500  -73.040400
  S    -113.994000   59.489400  -71.562900
  C    -115.681000   59.024900  -71.584700
  C    -116.128000   58.743500  -72.829900
  C    -115.133000   58.913400  -73.783400
  C    -113.970000   59.457100  -73.316700
  H    -117.130000   58.411000  -72.888100
  C    -115.352000   58.680100  -75.220600
  H    -115.798000   57.743900  -75.386900
  H    -114.474000   58.650900  -75.862400
  C    -116.397000   59.744300  -75.751200
  H    -116.107000   60.768000  -75.469800
  H    -117.296000   59.738500  -75.132700
  C    -116.613000   59.612200  -77.284300
  H    -117.385000   60.322100  -77.641200
  H    -116.884000   58.627100  -77.591400
  H    -115.650000   59.851700  -77.754400
  H    -109.852000   60.869300  -75.892800
  H    -116.196000   58.996200  -70.651900

 Total Charge           Charge          ....    0
 Multiplicity           Mult            ....    1
 Number of Electrons    NEL             ....  134
 Basis Dimension        Dim             ....  322

ORBITAL ENERGIES
----------------

  NO   OCC          E(Eh)            E(eV)
   0   2.0000     -88.966363     -2420.8978
   1   2.0000     -88.960291     -2420.7326
   2   2.0000     -10.335297      -281.2377
   3   2.0000     -10.322466      -280.8886
   4   2.0000     -10.316754      -280.7331
   5   2.0000     -10.313963      -280.6572
   6   2.0000     -10.302111      -280.3347
   7   2.0000     -10.300860      -280.3007
   8   2.0000     -10.299074      -280.2520
   9   2.0000     -10.296705      -280.1876
  10   2.0000     -10.295540      -280.1559
  11   2.0000     -10.289161      -279.9823
  12   2.0000     -10.286245      -279.9029
  13   2.0000     -10.282706      -279.8066
  14   2.0000     -10.277856      -279.6747
  15   2.0000     -10.273895      -279.5669
  16   2.0000      -8.079584      -219.8567
  17   2.0000      -8.075629      -219.7490
  18   2.0000      -6.038335      -164.3114
  19   2.0000      -6.034294      -164.2015
  20   2.0000      -6.033967      -164.1926
  21   2.0000      -6.030169      -164.0892
  22   2.0000      -6.030153      -164.0888
  23   2.0000      -6.026440      -163.9878
  24   2.0000      -1.011598       -27.5270
  25   2.0000      -0.982770       -26.7425
  26   2.0000      -0.907081       -24.6829
  27   2.0000      -0.904842       -24.6220
  28   2.0000      -0.873524       -23.7698
  29   2.0000      -0.849207       -23.1081
  30   2.0000      -0.841303       -22.8930
  31   2.0000      -0.820475       -22.3263
  32   2.0000      -0.781265       -21.2593
  33   2.0000      -0.768550       -20.9133
  34   2.0000      -0.708970       -19.2920
  35   2.0000      -0.704967       -19.1831
  36   2.0000      -0.699637       -19.0381
  37   2.0000      -0.670350       -18.2412
  38   2.0000      -0.632492       -17.2110
  39   2.0000      -0.620958       -16.8971
  40   2.0000      -0.605489       -16.4762
  41   2.0000      -0.567892       -15.4531
  42   2.0000      -0.554303       -15.0834
  43   2.0000      -0.545064       -14.8320
  44   2.0000      -0.539264       -14.6741
  45   2.0000      -0.527465       -14.3530
  46   2.0000      -0.515713       -14.0333
  47   2.0000      -0.513534       -13.9740
  48   2.0000      -0.510527       -13.8921
  49   2.0000      -0.492344       -13.3974
  50   2.0000      -0.486878       -13.2486
  51   2.0000      -0.479966       -13.0605
  52   2.0000      -0.470642       -12.8068
  53   2.0000      -0.465003       -12.6534
  54   2.0000      -0.457478       -12.4486
  55   2.0000      -0.451725       -12.2921
  56   2.0000      -0.443924       -12.0798
  57   2.0000      -0.437724       -11.9111
  58   2.0000      -0.436029       -11.8649
  59   2.0000      -0.421990       -11.4829
  60   2.0000      -0.417366       -11.3571
  61   2.0000      -0.411398       -11.1947
  62   2.0000      -0.408350       -11.1118
  63   2.0000      -0.346263        -9.4223
  64   2.0000      -0.334977        -9.1152
  65   2.0000      -0.326673        -8.8892
  66   2.0000      -0.292488        -7.9590
  67   0.0000       0.027900         0.7592
  68   0.0000       0.073430         1.9981
  69   0.0000       0.102942         2.8012
  70   0.0000       0.120399         3.2762
  71   0.0000       0.124481         3.3873

MULLIKEN ATOMIC CHARGES
-----------------------
   0 S :    0.098581
   1 C :   -0.101019
   2 C :   -0.133135
   3 C :    0.045788
   4 C :   -0.128174
   5 H :    0.008200
   6 C :    0.057766
   7 H :    0.015163
   8 H :    0.049414
   9 C :   -0.055609
  10 H :    0.041574
  11 H :    0.032846
  12 C :   -0.079075
  13 H :    0.019762
  14 H :    0.033282
  15 H :    0.027634
  16 S :    0.090029
  17 C :   -0.092154
  18 C :   -0.024165
  19 C :    0.004829
  20 C :   -0.156493
  21 H :    0.010784
  22 C :    0.106501
  23 H :    0.007873
  24 H :    0.015088
  25 C :   -0.115677
  26 H :    0.023725
  27 H :    0.016232
  28 C :   -0.018044
  29 H :    0.039622
  30 H :    0.022587
  31 H :    0.036882
  32 H :    0.050612
  33 H :    0.048768
Sum of atomic charges:    0.0000000

LOEWDIN ATOMIC CHARGES
----------------------
   0 S :    0.379107
   1 C :   -0.201722
   2 C :   -0.066205
   3 C :   -0.060847
   4 C :   -0.169394
   5 H :    0.027816
   6 C :   -0.034857
   7 H :    0.027900
   8 H :    0.041943
   9 C :   -0.046348
  10 H :    0.031360
  11 H :    0.032771
  12 C :   -0.077668
  13 H :    0.025371
  14 H :    0.023780
  15 H :    0.020599
  16 S :    0.400910
  17 C :   -0.163783
  18 C :   -0.069175
  19 C :   -0.052725
  20 C :   -0.197364
  21 H :    0.033063
  22 C :   -0.026654
  23 H :    0.024754
  24 H :    0.020619
  25 C :   -0.040397
  26 H :    0.024891
  27 H :    0.018317
  28 C :   -0.063654
  29 H :    0.030265
  30 H :    0.018119
  31 H :    0.029852
  32 H :    0.038263
  33 H :    0.021094

  Mayer bond orders larger than 0.100000
B(  0-S ,  1-C ) :   1.1206 B(  0-S ,  4-C ) :   1.1203 B(  1-C ,  2-C ) :   1.6539
B(  1-C , 32-H ) :   0.9547 B(  2-C ,  3-C ) :   1.2113 B(  2-C ,  6-C ) :   1.0259
B(  3-C ,  4-C ) :   1.6055 B(  3-C ,  5-H ) :   0.9936 B(  4-C , 20-C ) :   1.0304
B(  6-C ,  7-H ) :   0.9349 B(  6-C ,  8-H ) :   0.9460 B(  6-C ,  9-C ) :   1.0502
B(  9-C , 10-H ) :   0.9637 B(  9-C , 11-H ) :   0.9511 B(  9-C , 12-C ) :   1.0754
B( 12-C , 13-H ) :   0.9719 B( 12-C , 14-H ) :   0.9750 B( 12-C , 15-H ) :   0.9784
B( 16-S , 17-C ) :   1.1665 B( 16-S , 20-C ) :   1.1333 B( 17-C , 18-C ) :   1.5997
B( 17-C , 33-H ) :   0.9725 B( 18-C , 19-C ) :   1.2137 B( 18-C , 21-H ) :   1.0096
B( 19-C , 20-C ) :   1.5939 B( 19-C , 22-C ) :   1.0657 B( 22-C , 23-H ) :   0.9176
B( 22-C , 24-H ) :   0.9387 B( 22-C , 25-C ) :   1.0366 B( 25-C , 26-H ) :   0.9564
B( 25-C , 27-H ) :   0.9578 B( 25-C , 28-C ) :   1.0725 B( 28-C , 29-H ) :   0.9742
B( 28-C , 30-H ) :   0.9759 B( 28-C , 31-H ) :   0.9748

Dispersion correction           -0.014340489
FINAL SINGLE POINT ENERGY     -1339.872315343524

DIPOLE MOMENT
-------------
                                X             Y             Z
Electronic contribution:      6.25021     -17.00168      13.17086
Nuclear contribution   :     -6.53690      17.37458     -13.26423
                        -----------------------------------------
Total Dipole Moment    :     -0.28669       0.37291      -0.09337
                        -----------------------------------------
Magnitude (a.u.)       :      0.47955
Magnitude (Debye)      :      1.21892

Rotational constants in cm-1:     0.017398     0.008595     0.007629
Rotational constants in MHz :   521.581408   257.675066   228.709230

                             ****ORCA TERMINATED NORMALLY****
TOTAL RUN TIME: 0 days 0 hours 0 minutes 21 seconds 595 msec
