                         Program Version 4.2.1 -  RELEASE  -
|  1> ! wB97X-D3 SP def2-SVP
|  2> %pal
|  3> nprocs 24
|  4> end
|  5>
|  6> * xyz 0 1
|  7> S 	 -96.3235 	 48.8399 	 -89.8918
|  8> C 	 -96.364 	 47.5802 	 -88.7126
|  9> C 	 -96.5416 	 46.3178 	 -89.2548
| 10> C 	 -96.8569 	 46.4667 	 -90.6518
| 11> C 	 -96.7387 	 47.7568 	 -91.162
| 12> H 	 -96.9658 	 45.6304 	 -91.3285
| 13> C 	 -96.3707 	 45.0529 	 -88.4585
| 14> H 	 -97.0466 	 44.2776 	 -88.8262
| 15> H 	 -96.8137 	 45.2239 	 -87.5025
| 16> C 	 -94.8679 	 44.6619 	 -88.3707
| 17> H 	 -94.2083 	 45.3787 	 -87.9013
| 18> H 	 -94.844 	 43.7438 	 -87.7732
| 19> C 	 -94.207 	 44.3232 	 -89.7066
| 20> H 	 -93.1229 	 44.0531 	 -89.5834
| 21> H 	 -94.6692 	 43.4789 	 -90.235
| 22> H 	 -94.1989 	 45.1544 	 -90.3657
| 23> S 	 -98.0739 	 49.5292 	 -92.7212
| 24> C 	 -97.8423 	 49.5801 	 -94.4193
| 25> C 	 -96.9428 	 48.6267 	 -94.793
| 26> C 	 -96.4522 	 47.8337 	 -93.7047
| 27> C 	 -96.9495 	 48.2334 	 -92.5007
| 28> H 	 -96.6873 	 48.5668 	 -95.8161
| 29> C 	 -95.4075 	 46.7232 	 -93.854
| 30> H 	 -94.8275 	 46.7251 	 -92.8983
| 31> H 	 -94.7454 	 46.8724 	 -94.6489
| 32> C 	 -96.0362 	 45.2747 	 -94.0491
| 33> H 	 -96.6405 	 45.23 	 -95.0161
| 34> H 	 -96.8071 	 45.1144 	 -93.3257
| 35> C 	 -94.9628 	 44.1181 	 -94.4064
| 36> H 	 -94.2743 	 44.5577 	 -95.0942
| 37> H 	 -95.4476 	 43.3556 	 -94.9063
| 38> H 	 -94.4259 	 43.8171 	 -93.4736
| 39> H 	 -96.0286 	 47.8012 	 -87.7284
| 40> H 	 -98.3711 	 50.0874 	 -95.1776
| 41> *
| 42>
| 43>                          ****END OF INPUT****

CARTESIAN COORDINATES (ANGSTROEM)
---------------------------------
  S    -96.323500   48.839900  -89.891800
  C    -96.364000   47.580200  -88.712600
  C    -96.541600   46.317800  -89.254800
  C    -96.856900   46.466700  -90.651800
  C    -96.738700   47.756800  -91.162000
  H    -96.965800   45.630400  -91.328500
  C    -96.370700   45.052900  -88.458500
  H    -97.046600   44.277600  -88.826200
  H    -96.813700   45.223900  -87.502500
  C    -94.867900   44.661900  -88.370700
  H    -94.208300   45.378700  -87.901300
  H    -94.844000   43.743800  -87.773200
  C    -94.207000   44.323200  -89.706600
  H    -93.122900   44.053100  -89.583400
  H    -94.669200   43.478900  -90.235000
  H    -94.198900   45.154400  -90.365700
  S    -98.073900   49.529200  -92.721200
  C    -97.842300   49.580100  -94.419300
  C    -96.942800   48.626700  -94.793000
  C    -96.452200   47.833700  -93.704700
  C    -96.949500   48.233400  -92.500700
  H    -96.687300   48.566800  -95.816100
  C    -95.407500   46.723200  -93.854000
  H    -94.827500   46.725100  -92.898300
  H    -94.745400   46.872400  -94.648900
  C    -96.036200   45.274700  -94.049100
  H    -96.640500   45.230000  -95.016100
  H    -96.807100   45.114400  -93.325700
  C    -94.962800   44.118100  -94.406400
  H    -94.274300   44.557700  -95.094200
  H    -95.447600   43.355600  -94.906300
  H    -94.425900   43.817100  -93.473600
  H    -96.028600   47.801200  -87.728400
  H    -98.371100   50.087400  -95.177600

 Total Charge           Charge          ....    0
 Multiplicity           Mult            ....    1
 Number of Electrons    NEL             ....  134
 Basis Dimension        Dim             ....  322

ORBITAL ENERGIES
----------------

  NO   OCC          E(Eh)            E(eV)
   0   2.0000     -88.964592     -2420.8496
   1   2.0000     -88.962386     -2420.7896
   2   2.0000     -10.325798      -280.9793
   3   2.0000     -10.320097      -280.8241
   4   2.0000     -10.308405      -280.5060
   5   2.0000     -10.308297      -280.5030
   6   2.0000     -10.301866      -280.3280
   7   2.0000     -10.300484      -280.2904
   8   2.0000     -10.295018      -280.1417
   9   2.0000     -10.294907      -280.1387
  10   2.0000     -10.294497      -280.1275
  11   2.0000     -10.293032      -280.0876
  12   2.0000     -10.291000      -280.0323
  13   2.0000     -10.286682      -279.9149
  14   2.0000     -10.281411      -279.7714
  15   2.0000     -10.276793      -279.6458
  16   2.0000      -8.080411      -219.8792
  17   2.0000      -8.078181      -219.8185
  18   2.0000      -6.038776      -164.3234
  19   2.0000      -6.036651      -164.2656
  20   2.0000      -6.034645      -164.2110
  21   2.0000      -6.032428      -164.1507
  22   2.0000      -6.031391      -164.1225
  23   2.0000      -6.029007      -164.0576
  24   2.0000      -1.014954       -27.6183
  25   2.0000      -0.990573       -26.9549
  26   2.0000      -0.914391       -24.8818
  27   2.0000      -0.897721       -24.4282
  28   2.0000      -0.872921       -23.7534
  29   2.0000      -0.848557       -23.0904
  30   2.0000      -0.843775       -22.9603
  31   2.0000      -0.819109       -22.2891
  32   2.0000      -0.786706       -21.4074
  33   2.0000      -0.774557       -21.0768
  34   2.0000      -0.706702       -19.2303
  35   2.0000      -0.703981       -19.1563
  36   2.0000      -0.697472       -18.9792
  37   2.0000      -0.666558       -18.1380
  38   2.0000      -0.644747       -17.5444
  39   2.0000      -0.618051       -16.8180
  40   2.0000      -0.593590       -16.1524
  41   2.0000      -0.579687       -15.7741
  42   2.0000      -0.558041       -15.1851
  43   2.0000      -0.548729       -14.9317
  44   2.0000      -0.543974       -14.8023
  45   2.0000      -0.527125       -14.3438
  46   2.0000      -0.515774       -14.0349
  47   2.0000      -0.513576       -13.9751
  48   2.0000      -0.510513       -13.8918
  49   2.0000      -0.499972       -13.6049
  50   2.0000      -0.491795       -13.3824
  51   2.0000      -0.477212       -12.9856
  52   2.0000      -0.470412       -12.8006
  53   2.0000      -0.467862       -12.7312
  54   2.0000      -0.461972       -12.5709
  55   2.0000      -0.450116       -12.2483
  56   2.0000      -0.443575       -12.0703
  57   2.0000      -0.440028       -11.9738
  58   2.0000      -0.437755       -11.9119
  59   2.0000      -0.428425       -11.6580
  60   2.0000      -0.421914       -11.4809
  61   2.0000      -0.418483       -11.3875
  62   2.0000      -0.402207       -10.9446
  63   2.0000      -0.347846        -9.4654
  64   2.0000      -0.332449        -9.0464
  65   2.0000      -0.327392        -8.9088
  66   2.0000      -0.294985        -8.0270
  67   0.0000       0.035590         0.9684
  68   0.0000       0.072582         1.9751
  69   0.0000       0.119592         3.2543
  70   0.0000       0.125922         3.4265
  71   0.0000       0.127986         3.4827

MULLIKEN ATOMIC CHARGES
-----------------------
   0 S :    0.121846
   1 C :   -0.113536
   2 C :   -0.122163
   3 C :    0.051474
   4 C :   -0.170978
   5 H :   -0.010340
   6 C :    0.100560
   7 H :    0.025092
   8 H :    0.020055
   9 C :   -0.050060
  10 H :    0.032985
  11 H :    0.030261
  12 C :   -0.075221
  13 H :    0.035957
  14 H :    0.030445
  15 H :    0.035677
  16 S :    0.116886
  17 C :   -0.061509
  18 C :   -0.043729
  19 C :   -0.021098
  20 C :   -0.157214
  21 H :    0.000152
  22 C :    0.096226
  23 H :    0.043403
  24 H :    0.001716
  25 C :   -0.130373
  26 H :    0.024026
  27 H :    0.025387
  28 C :   -0.009635
  29 H :    0.022154
  30 H :    0.027627
  31 H :    0.046515
  32 H :    0.037796
  33 H :    0.039615
Sum of atomic charges:    0.0000000

LOEWDIN ATOMIC CHARGES
----------------------
   0 S :    0.432358
   1 C :   -0.197433
   2 C :   -0.061063
   3 C :   -0.062146
   4 C :   -0.209015
   5 H :    0.024591
   6 C :   -0.030990
   7 H :    0.034175
   8 H :    0.031579
   9 C :   -0.033793
  10 H :    0.025991
  11 H :    0.025716
  12 C :   -0.068916
  13 H :    0.032895
  14 H :    0.023279
  15 H :    0.017475
  16 S :    0.428543
  17 C :   -0.192095
  18 C :   -0.067654
  19 C :   -0.055856
  20 C :   -0.208892
  21 H :    0.024416
  22 C :   -0.024772
  23 H :    0.036191
  24 H :    0.018144
  25 C :   -0.042275
  26 H :    0.028038
  27 H :    0.011367
  28 C :   -0.053164
  29 H :    0.023001
  30 H :    0.016236
  31 H :    0.029599
  32 H :    0.017264
  33 H :    0.027205

  Mayer bond orders larger than 0.100000
B(  0-S ,  1-C ) :   1.1629 B(  0-S ,  4-C ) :   1.1720 B(  1-C ,  2-C ) :   1.5834
B(  1-C , 32-H ) :   0.9694 B(  2-C ,  3-C ) :   1.2636 B(  2-C ,  6-C ) :   1.0244
B(  3-C ,  4-C ) :   1.5485 B(  3-C ,  5-H ) :   0.9936 B(  4-C , 20-C ) :   1.0286
B(  6-C ,  7-H ) :   0.9396 B(  6-C ,  8-H ) :   0.9347 B(  6-C ,  9-C ) :   1.0596
B(  9-C , 10-H ) :   0.9593 B(  9-C , 11-H ) :   0.9555 B(  9-C , 12-C ) :   1.0807
B( 12-C , 13-H ) :   0.9707 B( 12-C , 14-H ) :   0.9753 B( 12-C , 15-H ) :   0.9740
B( 16-S , 17-C ) :   1.1539 B( 16-S , 20-C ) :   1.1477 B( 17-C , 18-C ) :   1.6201
B( 17-C , 33-H ) :   0.9687 B( 18-C , 19-C ) :   1.2347 B( 18-C , 21-H ) :   0.9987
B( 19-C , 20-C ) :   1.6026 B( 19-C , 22-C ) :   1.0489 B( 22-C , 23-H ) :   0.9343
B( 22-C , 24-H ) :   0.9334 B( 22-C , 25-C ) :   1.0487 B( 25-C , 26-H ) :   0.9573
B( 25-C , 27-H ) :   0.9614 B( 25-C , 28-C ) :   1.0544 B( 28-C , 29-H ) :   0.9732
B( 28-C , 30-H ) :   0.9807 B( 28-C , 31-H ) :   0.9786

Dispersion correction           -0.015527005
FINAL SINGLE POINT ENERGY     -1339.879962369956

DIPOLE MOMENT
-------------
                                X             Y             Z
Electronic contribution:    -13.82903      27.96767       2.23453
Nuclear contribution   :     14.14009     -28.58247      -2.39263
                        -----------------------------------------
Total Dipole Moment    :      0.31106      -0.61480      -0.15809
                        -----------------------------------------
Magnitude (a.u.)       :      0.70692
Magnitude (Debye)      :      1.79684

Rotational constants in cm-1:     0.017818     0.010547     0.007092
Rotational constants in MHz :   534.181393   316.191729   212.605958

                             ****ORCA TERMINATED NORMALLY****
TOTAL RUN TIME: 0 days 0 hours 0 minutes 22 seconds 678 msec
