                         Program Version 4.2.1 -  RELEASE  -
|  1> ! wB97X-D3 SP def2-SVP
|  2> %pal
|  3> nprocs 24
|  4> end
|  5>
|  6> * xyz 0 1
|  7> S 	 -137.939 	 7.72184 	 -8.05625
|  8> C 	 -138.002 	 9.38794 	 -8.73623
|  9> C 	 -138.479 	 10.3033 	 -7.8187
| 10> C 	 -138.792 	 9.70015 	 -6.54211
| 11> C 	 -138.594 	 8.33815 	 -6.50368
| 12> H 	 -139.186 	 10.1587 	 -5.68913
| 13> C 	 -138.635 	 11.8843 	 -8.03024
| 14> H 	 -138.141 	 12.15 	 -9.00003
| 15> H 	 -137.971 	 12.3574 	 -7.32978
| 16> C 	 -140.021 	 12.454 	 -7.88723
| 17> H 	 -140.672 	 11.7756 	 -8.39755
| 18> H 	 -140.37 	 12.4843 	 -6.87213
| 19> C 	 -140.062 	 13.9229 	 -8.36966
| 20> H 	 -141.11 	 14.3663 	 -8.25312
| 21> H 	 -139.402 	 14.5985 	 -7.75593
| 22> H 	 -139.739 	 14.1536 	 -9.41281
| 23> S 	 -140.632 	 6.82653 	 -5.40612
| 24> C 	 -140.374 	 5.93477 	 -3.93723
| 25> C 	 -139.067 	 6.13511 	 -3.49278
| 26> C 	 -138.287 	 6.97854 	 -4.31033
| 27> C 	 -138.998 	 7.41586 	 -5.45256
| 28> H 	 -138.701 	 5.5978 	 -2.59141
| 29> C 	 -136.796 	 7.19523 	 -4.00723
| 30> H 	 -136.255 	 7.3478 	 -4.95571
| 31> H 	 -136.314 	 6.37484 	 -3.4946
| 32> C 	 -136.428 	 8.43122 	 -3.08815
| 33> H 	 -137.166 	 8.53909 	 -2.29349
| 34> H 	 -136.439 	 9.29287 	 -3.75119
| 35> C 	 -135.047 	 8.38815 	 -2.5012
| 36> H 	 -134.168 	 8.24385 	 -3.12885
| 37> H 	 -135.018 	 7.59793 	 -1.80265
| 38> H 	 -134.827 	 9.33003 	 -1.9284
| 39> H 	 -137.736 	 9.75259 	 -9.76429
| 40> H 	 -141.079 	 5.35483 	 -3.40832
| 41> *
| 42>
| 43>                          ****END OF INPUT****

CARTESIAN COORDINATES (ANGSTROEM)
---------------------------------
  S    -137.939000    7.721840   -8.056250
  C    -138.002000    9.387940   -8.736230
  C    -138.479000   10.303300   -7.818700
  C    -138.792000    9.700150   -6.542110
  C    -138.594000    8.338150   -6.503680
  H    -139.186000   10.158700   -5.689130
  C    -138.635000   11.884300   -8.030240
  H    -138.141000   12.150000   -9.000030
  H    -137.971000   12.357400   -7.329780
  C    -140.021000   12.454000   -7.887230
  H    -140.672000   11.775600   -8.397550
  H    -140.370000   12.484300   -6.872130
  C    -140.062000   13.922900   -8.369660
  H    -141.110000   14.366300   -8.253120
  H    -139.402000   14.598500   -7.755930
  H    -139.739000   14.153600   -9.412810
  S    -140.632000    6.826530   -5.406120
  C    -140.374000    5.934770   -3.937230
  C    -139.067000    6.135110   -3.492780
  C    -138.287000    6.978540   -4.310330
  C    -138.998000    7.415860   -5.452560
  H    -138.701000    5.597800   -2.591410
  C    -136.796000    7.195230   -4.007230
  H    -136.255000    7.347800   -4.955710
  H    -136.314000    6.374840   -3.494600
  C    -136.428000    8.431220   -3.088150
  H    -137.166000    8.539090   -2.293490
  H    -136.439000    9.292870   -3.751190
  C    -135.047000    8.388150   -2.501200
  H    -134.168000    8.243850   -3.128850
  H    -135.018000    7.597930   -1.802650
  H    -134.827000    9.330030   -1.928400
  H    -137.736000    9.752590   -9.764290
  H    -141.079000    5.354830   -3.408320

 Total Charge           Charge          ....    0
 Multiplicity           Mult            ....    1
 Number of Electrons    NEL             ....  134
 Basis Dimension        Dim             ....  322

ORBITAL ENERGIES
----------------

  NO   OCC          E(Eh)            E(eV)
   0   2.0000     -88.969325     -2420.9784
   1   2.0000     -88.967880     -2420.9391
   2   2.0000     -10.331764      -281.1416
   3   2.0000     -10.327098      -281.0146
   4   2.0000     -10.323468      -280.9159
   5   2.0000     -10.316340      -280.7219
   6   2.0000     -10.308071      -280.4969
   7   2.0000     -10.306567      -280.4559
   8   2.0000     -10.298925      -280.2480
   9   2.0000     -10.294938      -280.1395
  10   2.0000     -10.294087      -280.1164
  11   2.0000     -10.292727      -280.0793
  12   2.0000     -10.292304      -280.0678
  13   2.0000     -10.286903      -279.9209
  14   2.0000     -10.283298      -279.8228
  15   2.0000     -10.274062      -279.5714
  16   2.0000      -8.084069      -219.9787
  17   2.0000      -8.080973      -219.8945
  18   2.0000      -6.042435      -164.4230
  19   2.0000      -6.039704      -164.3487
  20   2.0000      -6.038409      -164.3135
  21   2.0000      -6.035796      -164.2424
  22   2.0000      -6.035139      -164.2245
  23   2.0000      -6.031484      -164.1250
  24   2.0000      -1.002754       -27.2863
  25   2.0000      -0.976930       -26.5836
  26   2.0000      -0.908494       -24.7214
  27   2.0000      -0.903452       -24.5842
  28   2.0000      -0.867768       -23.6132
  29   2.0000      -0.852546       -23.1989
  30   2.0000      -0.841117       -22.8880
  31   2.0000      -0.811254       -22.0753
  32   2.0000      -0.779481       -21.2107
  33   2.0000      -0.769578       -20.9413
  34   2.0000      -0.708777       -19.2868
  35   2.0000      -0.698837       -19.0163
  36   2.0000      -0.690806       -18.7978
  37   2.0000      -0.658688       -17.9238
  38   2.0000      -0.640574       -17.4309
  39   2.0000      -0.616874       -16.7860
  40   2.0000      -0.596005       -16.2181
  41   2.0000      -0.570201       -15.5160
  42   2.0000      -0.565693       -15.3933
  43   2.0000      -0.558988       -15.2108
  44   2.0000      -0.519968       -14.1490
  45   2.0000      -0.519445       -14.1348
  46   2.0000      -0.512756       -13.9528
  47   2.0000      -0.508496       -13.8369
  48   2.0000      -0.506625       -13.7860
  49   2.0000      -0.494683       -13.4610
  50   2.0000      -0.491709       -13.3801
  51   2.0000      -0.475429       -12.9371
  52   2.0000      -0.471381       -12.8269
  53   2.0000      -0.468610       -12.7515
  54   2.0000      -0.455044       -12.3824
  55   2.0000      -0.446739       -12.1564
  56   2.0000      -0.445365       -12.1190
  57   2.0000      -0.442369       -12.0375
  58   2.0000      -0.428812       -11.6686
  59   2.0000      -0.422073       -11.4852
  60   2.0000      -0.419963       -11.4278
  61   2.0000      -0.416638       -11.3373
  62   2.0000      -0.413579       -11.2541
  63   2.0000      -0.338444        -9.2095
  64   2.0000      -0.329512        -8.9665
  65   2.0000      -0.319260        -8.6875
  66   2.0000      -0.313468        -8.5299
  67   0.0000       0.044605         1.2138
  68   0.0000       0.046677         1.2702
  69   0.0000       0.110194         2.9985
  70   0.0000       0.123840         3.3699
  71   0.0000       0.126023         3.4293

MULLIKEN ATOMIC CHARGES
-----------------------
   0 S :    0.105188
   1 C :   -0.131280
   2 C :   -0.089167
   3 C :    0.078002
   4 C :   -0.182346
   5 H :   -0.004935
   6 C :    0.049553
   7 H :    0.018840
   8 H :    0.026489
   9 C :   -0.024426
  10 H :    0.032383
  11 H :    0.030840
  12 C :   -0.107976
  13 H :    0.046430
  14 H :    0.033673
  15 H :    0.039494
  16 S :    0.134141
  17 C :   -0.084070
  18 C :   -0.054554
  19 C :    0.016193
  20 C :   -0.191166
  21 H :    0.030979
  22 C :    0.052488
  23 H :    0.031884
  24 H :    0.015211
  25 C :   -0.065713
  26 H :    0.031186
  27 H :    0.028171
  28 C :   -0.053957
  29 H :    0.031861
  30 H :    0.013311
  31 H :    0.037968
  32 H :    0.061052
  33 H :    0.044252
Sum of atomic charges:    0.0000000

LOEWDIN ATOMIC CHARGES
----------------------
   0 S :    0.367666
   1 C :   -0.191769
   2 C :   -0.062831
   3 C :   -0.047555
   4 C :   -0.182398
   5 H :    0.024594
   6 C :   -0.028854
   7 H :    0.030667
   8 H :    0.027249
   9 C :   -0.041561
  10 H :    0.024785
  11 H :    0.026480
  12 C :   -0.077024
  13 H :    0.033847
  14 H :    0.028494
  15 H :    0.025717
  16 S :    0.434198
  17 C :   -0.188028
  18 C :   -0.076188
  19 C :   -0.052049
  20 C :   -0.218987
  21 H :    0.036924
  22 C :   -0.029581
  23 H :    0.033420
  24 H :    0.025078
  25 C :   -0.037735
  26 H :    0.023994
  27 H :    0.022243
  28 C :   -0.070641
  29 H :    0.025584
  30 H :    0.014761
  31 H :    0.034966
  32 H :    0.041070
  33 H :    0.023463

  Mayer bond orders larger than 0.100000
B(  0-S ,  1-C ) :   1.1156 B(  0-S ,  4-C ) :   1.1204 B(  1-C ,  2-C ) :   1.6758
B(  1-C , 32-H ) :   0.9547 B(  2-C ,  3-C ) :   1.1894 B(  2-C ,  6-C ) :   1.0082
B(  3-C ,  4-C ) :   1.6378 B(  3-C ,  5-H ) :   1.0007 B(  4-C , 20-C ) :   1.0171
B(  6-C ,  7-H ) :   0.9493 B(  6-C ,  8-H ) :   0.9409 B(  6-C ,  9-C ) :   1.0572
B(  9-C , 10-H ) :   0.9596 B(  9-C , 11-H ) :   0.9483 B(  9-C , 12-C ) :   1.0756
B( 12-C , 13-H ) :   0.9755 B( 12-C , 14-H ) :   0.9734 B( 12-C , 15-H ) :   0.9775
B( 16-S , 17-C ) :   1.1735 B( 16-S , 20-C ) :   1.1683 B( 17-C , 18-C ) :   1.5714
B( 17-C , 20-C ) :   0.1089 B( 17-C , 33-H ) :   0.9743 B( 18-C , 19-C ) :   1.2874
B( 18-C , 21-H ) :   0.9831 B( 19-C , 20-C ) :   1.5498 B( 19-C , 22-C ) :   1.0421
B( 22-C , 23-H ) :   0.9328 B( 22-C , 24-H ) :   0.9503 B( 22-C , 25-C ) :   1.0528
B( 25-C , 26-H ) :   0.9585 B( 25-C , 27-H ) :   0.9568 B( 25-C , 28-C ) :   1.0885
B( 28-C , 29-H ) :   0.9740 B( 28-C , 30-H ) :   0.9725 B( 28-C , 31-H ) :   0.9714

Dispersion correction           -0.013653481
FINAL SINGLE POINT ENERGY     -1339.880151154036

DIPOLE MOMENT
-------------
                                X             Y             Z
Electronic contribution:     -9.76477     -21.91737      -7.27185
Nuclear contribution   :      9.86373      22.36940       7.62306
                        -----------------------------------------
Total Dipole Moment    :      0.09895       0.45204       0.35122
                        -----------------------------------------
Magnitude (a.u.)       :      0.58093
Magnitude (Debye)      :      1.47661

Rotational constants in cm-1:     0.017047     0.007581     0.006663
Rotational constants in MHz :   511.068847   227.274765   199.743601

                             ****ORCA TERMINATED NORMALLY****
TOTAL RUN TIME: 0 days 0 hours 0 minutes 20 seconds 609 msec
