                         Program Version 4.2.1 -  RELEASE  -
|  1> ! wB97X-D3 SP def2-SVP
|  2> %pal
|  3> nprocs 24
|  4> end
|  5>
|  6> * xyz 0 1
|  7> S 	 42.9272 	 -17.2595 	 -112.498
|  8> C 	 43.1604 	 -16.9005 	 -110.774
|  9> C 	 42.6913 	 -17.9019 	 -109.99
| 10> C 	 41.9676 	 -18.8131 	 -110.769
| 11> C 	 42.033 	 -18.689 	 -112.139
| 12> H 	 41.3892 	 -19.5947 	 -110.361
| 13> C 	 42.6237 	 -17.8977 	 -108.441
| 14> H 	 43.5558 	 -17.4991 	 -108.065
| 15> H 	 42.6872 	 -18.9521 	 -108.183
| 16> C 	 41.416 	 -17.1958 	 -107.773
| 17> H 	 41.4632 	 -16.1118 	 -107.912
| 18> H 	 40.442 	 -17.4292 	 -108.235
| 19> C 	 41.3827 	 -17.3116 	 -106.253
| 20> H 	 42.3527 	 -16.9865 	 -105.848
| 21> H 	 40.5433 	 -16.6859 	 -105.813
| 22> H 	 41.1773 	 -18.3808 	 -105.93
| 23> S 	 42.4712 	 -19.6398 	 -114.58
| 24> C 	 41.4892 	 -20.8283 	 -115.34
| 25> C 	 40.4267 	 -21.1992 	 -114.479
| 26> C 	 40.3993 	 -20.464 	 -113.247
| 27> C 	 41.5036 	 -19.5958 	 -113.154
| 28> H 	 39.7858 	 -22.0309 	 -114.701
| 29> C 	 39.177 	 -20.6493 	 -112.287
| 30> H 	 38.2165 	 -20.6507 	 -112.699
| 31> H 	 39.136 	 -19.8221 	 -111.621
| 32> C 	 39.1669 	 -21.9199 	 -111.433
| 33> H 	 40.1325 	 -22.0952 	 -110.925
| 34> H 	 38.9094 	 -22.7993 	 -111.983
| 35> C 	 38.1688 	 -21.8694 	 -110.342
| 36> H 	 38.4452 	 -22.6559 	 -109.595
| 37> H 	 37.1625 	 -22.0389 	 -110.827
| 38> H 	 38.1268 	 -20.8696 	 -109.932
| 39> H 	 43.5563 	 -16.0122 	 -110.352
| 40> H 	 41.5142 	 -21.1401 	 -116.411
| 41> *
| 42>
| 43>                          ****END OF INPUT****

CARTESIAN COORDINATES (ANGSTROEM)
---------------------------------
  S     42.927200  -17.259500  -112.498000
  C     43.160400  -16.900500  -110.774000
  C     42.691300  -17.901900  -109.990000
  C     41.967600  -18.813100  -110.769000
  C     42.033000  -18.689000  -112.139000
  H     41.389200  -19.594700  -110.361000
  C     42.623700  -17.897700  -108.441000
  H     43.555800  -17.499100  -108.065000
  H     42.687200  -18.952100  -108.183000
  C     41.416000  -17.195800  -107.773000
  H     41.463200  -16.111800  -107.912000
  H     40.442000  -17.429200  -108.235000
  C     41.382700  -17.311600  -106.253000
  H     42.352700  -16.986500  -105.848000
  H     40.543300  -16.685900  -105.813000
  H     41.177300  -18.380800  -105.930000
  S     42.471200  -19.639800  -114.580000
  C     41.489200  -20.828300  -115.340000
  C     40.426700  -21.199200  -114.479000
  C     40.399300  -20.464000  -113.247000
  C     41.503600  -19.595800  -113.154000
  H     39.785800  -22.030900  -114.701000
  C     39.177000  -20.649300  -112.287000
  H     38.216500  -20.650700  -112.699000
  H     39.136000  -19.822100  -111.621000
  C     39.166900  -21.919900  -111.433000
  H     40.132500  -22.095200  -110.925000
  H     38.909400  -22.799300  -111.983000
  C     38.168800  -21.869400  -110.342000
  H     38.445200  -22.655900  -109.595000
  H     37.162500  -22.038900  -110.827000
  H     38.126800  -20.869600  -109.932000
  H     43.556300  -16.012200  -110.352000
  H     41.514200  -21.140100  -116.411000

 Total Charge           Charge          ....    0
 Multiplicity           Mult            ....    1
 Number of Electrons    NEL             ....  134
 Basis Dimension        Dim             ....  322

ORBITAL ENERGIES
----------------

  NO   OCC          E(Eh)            E(eV)
   0   2.0000     -88.968213     -2420.9482
   1   2.0000     -88.967358     -2420.9249
   2   2.0000     -10.332058      -281.1496
   3   2.0000     -10.328074      -281.0412
   4   2.0000     -10.319980      -280.8209
   5   2.0000     -10.311515      -280.5906
   6   2.0000     -10.311239      -280.5831
   7   2.0000     -10.298537      -280.2374
   8   2.0000     -10.297553      -280.2107
   9   2.0000     -10.295779      -280.1624
  10   2.0000     -10.292149      -280.0636
  11   2.0000     -10.290899      -280.0296
  12   2.0000     -10.290137      -280.0089
  13   2.0000     -10.284917      -279.8668
  14   2.0000     -10.280759      -279.7537
  15   2.0000     -10.278858      -279.7019
  16   2.0000      -8.083795      -219.9713
  17   2.0000      -8.082025      -219.9231
  18   2.0000      -6.042217      -164.4171
  19   2.0000      -6.040600      -164.3731
  20   2.0000      -6.038001      -164.3023
  21   2.0000      -6.036554      -164.2630
  22   2.0000      -6.034773      -164.2145
  23   2.0000      -6.032690      -164.1578
  24   2.0000      -1.012689       -27.5567
  25   2.0000      -0.987887       -26.8818
  26   2.0000      -0.918953       -25.0060
  27   2.0000      -0.910011       -24.7626
  28   2.0000      -0.872044       -23.7295
  29   2.0000      -0.856508       -23.3068
  30   2.0000      -0.845853       -23.0168
  31   2.0000      -0.812719       -22.1152
  32   2.0000      -0.783849       -21.3296
  33   2.0000      -0.775992       -21.1158
  34   2.0000      -0.702065       -19.1042
  35   2.0000      -0.700530       -19.0624
  36   2.0000      -0.691596       -18.8193
  37   2.0000      -0.666296       -18.1308
  38   2.0000      -0.639904       -17.4127
  39   2.0000      -0.624567       -16.9953
  40   2.0000      -0.600595       -16.3430
  41   2.0000      -0.576636       -15.6911
  42   2.0000      -0.566023       -15.4023
  43   2.0000      -0.558334       -15.1930
  44   2.0000      -0.533423       -14.5152
  45   2.0000      -0.528219       -14.3736
  46   2.0000      -0.520246       -14.1566
  47   2.0000      -0.510451       -13.8901
  48   2.0000      -0.501703       -13.6520
  49   2.0000      -0.498080       -13.5534
  50   2.0000      -0.496737       -13.5169
  51   2.0000      -0.487492       -13.2653
  52   2.0000      -0.473262       -12.8781
  53   2.0000      -0.464026       -12.6268
  54   2.0000      -0.463055       -12.6004
  55   2.0000      -0.447475       -12.1764
  56   2.0000      -0.442669       -12.0456
  57   2.0000      -0.438831       -11.9412
  58   2.0000      -0.435783       -11.8583
  59   2.0000      -0.425633       -11.5821
  60   2.0000      -0.421013       -11.4564
  61   2.0000      -0.417210       -11.3529
  62   2.0000      -0.412256       -11.2181
  63   2.0000      -0.355500        -9.6736
  64   2.0000      -0.335596        -9.1320
  65   2.0000      -0.331450        -9.0192
  66   2.0000      -0.284734        -7.7480
  67   0.0000       0.024592         0.6692
  68   0.0000       0.078398         2.1333
  69   0.0000       0.106043         2.8856
  70   0.0000       0.118581         3.2267
  71   0.0000       0.127598         3.4721

MULLIKEN ATOMIC CHARGES
-----------------------
   0 S :    0.106761
   1 C :   -0.110354
   2 C :   -0.067350
   3 C :    0.007272
   4 C :   -0.109380
   5 H :   -0.023074
   6 C :    0.080798
   7 H :    0.015611
   8 H :    0.022086
   9 C :   -0.056657
  10 H :    0.022342
  11 H :    0.030341
  12 C :   -0.083424
  13 H :    0.036362
  14 H :    0.049264
  15 H :    0.038761
  16 S :    0.110486
  17 C :   -0.109657
  18 C :   -0.042536
  19 C :   -0.017937
  20 C :   -0.142486
  21 H :    0.018680
  22 C :    0.096298
  23 H :    0.008144
  24 H :    0.001495
  25 C :   -0.086793
  26 H :    0.028056
  27 H :    0.022604
  28 C :   -0.059981
  29 H :    0.052089
  30 H :    0.029869
  31 H :    0.022458
  32 H :    0.029932
  33 H :    0.079920
Sum of atomic charges:   -0.0000000

LOEWDIN ATOMIC CHARGES
----------------------
   0 S :    0.402477
   1 C :   -0.176192
   2 C :   -0.065634
   3 C :   -0.064292
   4 C :   -0.203081
   5 H :    0.019279
   6 C :   -0.025658
   7 H :    0.028299
   8 H :    0.030506
   9 C :   -0.047573
  10 H :    0.025758
  11 H :    0.025834
  12 C :   -0.071849
  13 H :    0.024924
  14 H :    0.035117
  15 H :    0.026626
  16 S :    0.438615
  17 C :   -0.214511
  18 C :   -0.065540
  19 C :   -0.054401
  20 C :   -0.198162
  21 H :    0.027806
  22 C :   -0.022625
  23 H :    0.025540
  24 H :    0.022390
  25 C :   -0.046664
  26 H :    0.022212
  27 H :    0.019451
  28 C :   -0.065906
  29 H :    0.036195
  30 H :    0.027670
  31 H :    0.018478
  32 H :    0.022693
  33 H :    0.042220

  Mayer bond orders larger than 0.100000
B(  0-S ,  1-C ) :   1.1329 B(  0-S ,  4-C ) :   1.1421 B(  1-C ,  2-C ) :   1.6126
B(  1-C , 32-H ) :   0.9733 B(  2-C ,  3-C ) :   1.2551 B(  2-C ,  6-C ) :   1.0240
B(  3-C ,  4-C ) :   1.5659 B(  3-C ,  5-H ) :   1.0058 B(  4-C , 20-C ) :   1.0490
B(  6-C ,  7-H ) :   0.9359 B(  6-C ,  8-H ) :   0.9403 B(  6-C ,  9-C ) :   1.0564
B(  9-C , 10-H ) :   0.9529 B(  9-C , 11-H ) :   0.9576 B(  9-C , 12-C ) :   1.0782
B( 12-C , 13-H ) :   0.9736 B( 12-C , 14-H ) :   0.9736 B( 12-C , 15-H ) :   0.9765
B( 16-S , 17-C ) :   1.1688 B( 16-S , 20-C ) :   1.1662 B( 17-C , 18-C ) :   1.5725
B( 17-C , 20-C ) :   0.1050 B( 17-C , 33-H ) :   0.9629 B( 18-C , 19-C ) :   1.2755
B( 18-C , 21-H ) :   0.9896 B( 19-C , 20-C ) :   1.5583 B( 19-C , 22-C ) :   1.0327
B( 22-C , 23-H ) :   0.9395 B( 22-C , 24-H ) :   0.9362 B( 22-C , 25-C ) :   1.0647
B( 25-C , 26-H ) :   0.9564 B( 25-C , 27-H ) :   0.9523 B( 25-C , 28-C ) :   1.0880
B( 28-C , 29-H ) :   0.9739 B( 28-C , 30-H ) :   0.9735 B( 28-C , 31-H ) :   0.9734

Dispersion correction           -0.013452997
FINAL SINGLE POINT ENERGY     -1339.871828474443

DIPOLE MOMENT
-------------
                                X             Y             Z
Electronic contribution:     16.45413       6.49385     -28.72148
Nuclear contribution   :    -16.90269      -6.66842      29.23837
                        -----------------------------------------
Total Dipole Moment    :     -0.44856      -0.17457       0.51689
                        -----------------------------------------
Magnitude (a.u.)       :      0.70630
Magnitude (Debye)      :      1.79527

Rotational constants in cm-1:     0.016939     0.009046     0.006101
Rotational constants in MHz :   507.827206   271.194105   182.888618

                             ****ORCA TERMINATED NORMALLY****
TOTAL RUN TIME: 0 days 0 hours 0 minutes 21 seconds 161 msec
