                         Program Version 4.2.1 -  RELEASE  -
|  1> ! wB97X-D3 SP def2-SVP
|  2> %pal
|  3> nprocs 24
|  4> end
|  5>
|  6> * xyz 0 1
|  7> S 	 -100.668 	 41.6484 	 -92.8939
|  8> C 	 -99.9664 	 40.4799 	 -91.8812
|  9> C 	 -98.5575 	 40.5059 	 -91.8735
| 10> C 	 -98.0956 	 41.5088 	 -92.7368
| 11> C 	 -99.0861 	 42.1187 	 -93.4712
| 12> H 	 -97.0985 	 41.7897 	 -92.9111
| 13> C 	 -97.4921 	 39.7135 	 -91.0671
| 14> H 	 -97.2588 	 40.3001 	 -90.1722
| 15> H 	 -96.5261 	 39.7707 	 -91.63
| 16> C 	 -97.8691 	 38.2562 	 -90.7034
| 17> H 	 -98.827 	 38.371 	 -90.152
| 18> H 	 -97.8787 	 37.5897 	 -91.5604
| 19> C 	 -96.7776 	 37.6394 	 -89.718
| 20> H 	 -96.5417 	 38.1869 	 -88.762
| 21> H 	 -97.0095 	 36.6262 	 -89.3683
| 22> H 	 -95.8747 	 37.6348 	 -90.2637
| 23> S 	 -99.5154 	 44.7302 	 -94.3247
| 24> C 	 -98.557 	 45.3356 	 -95.716
| 25> C 	 -97.9041 	 44.295 	 -96.3434
| 26> C 	 -98.1005 	 43.005 	 -95.6543
| 27> C 	 -98.9016 	 43.0806 	 -94.5759
| 28> H 	 -97.2769 	 44.5387 	 -97.2074
| 29> C 	 -97.3404 	 41.7324 	 -96.0182
| 30> H 	 -96.8109 	 41.3657 	 -95.1021
| 31> H 	 -96.4865 	 42.0338 	 -96.6531
| 32> C 	 -98.0823 	 40.6416 	 -96.8062
| 33> H 	 -98.9336 	 40.2815 	 -96.1928
| 34> H 	 -97.4869 	 39.8139 	 -96.9167
| 35> C 	 -98.4597 	 41.2949 	 -98.1417
| 36> H 	 -98.8787 	 40.5506 	 -98.7533
| 37> H 	 -97.6861 	 41.7582 	 -98.7249
| 38> H 	 -99.2507 	 42.087 	 -97.9347
| 39> H 	 -100.482 	 39.7871 	 -91.2275
| 40> H 	 -98.6565 	 46.3154 	 -96.1738
| 41> *
| 42>
| 43>                          ****END OF INPUT****

CARTESIAN COORDINATES (ANGSTROEM)
---------------------------------
  S    -100.668000   41.648400  -92.893900
  C    -99.966400   40.479900  -91.881200
  C    -98.557500   40.505900  -91.873500
  C    -98.095600   41.508800  -92.736800
  C    -99.086100   42.118700  -93.471200
  H    -97.098500   41.789700  -92.911100
  C    -97.492100   39.713500  -91.067100
  H    -97.258800   40.300100  -90.172200
  H    -96.526100   39.770700  -91.630000
  C    -97.869100   38.256200  -90.703400
  H    -98.827000   38.371000  -90.152000
  H    -97.878700   37.589700  -91.560400
  C    -96.777600   37.639400  -89.718000
  H    -96.541700   38.186900  -88.762000
  H    -97.009500   36.626200  -89.368300
  H    -95.874700   37.634800  -90.263700
  S    -99.515400   44.730200  -94.324700
  C    -98.557000   45.335600  -95.716000
  C    -97.904100   44.295000  -96.343400
  C    -98.100500   43.005000  -95.654300
  C    -98.901600   43.080600  -94.575900
  H    -97.276900   44.538700  -97.207400
  C    -97.340400   41.732400  -96.018200
  H    -96.810900   41.365700  -95.102100
  H    -96.486500   42.033800  -96.653100
  C    -98.082300   40.641600  -96.806200
  H    -98.933600   40.281500  -96.192800
  H    -97.486900   39.813900  -96.916700
  C    -98.459700   41.294900  -98.141700
  H    -98.878700   40.550600  -98.753300
  H    -97.686100   41.758200  -98.724900
  H    -99.250700   42.087000  -97.934700
  H    -100.482000   39.787100  -91.227500
  H    -98.656500   46.315400  -96.173800

 Total Charge           Charge          ....    0
 Multiplicity           Mult            ....    1
 Number of Electrons    NEL             ....  134
 Basis Dimension        Dim             ....  322

ORBITAL ENERGIES
----------------

  NO   OCC          E(Eh)            E(eV)
   0   2.0000     -88.970640     -2421.0142
   1   2.0000     -88.960601     -2420.7410
   2   2.0000     -10.326306      -280.9931
   3   2.0000     -10.324426      -280.9419
   4   2.0000     -10.321120      -280.8519
   5   2.0000     -10.313769      -280.6519
   6   2.0000     -10.304149      -280.3902
   7   2.0000     -10.302284      -280.3394
   8   2.0000     -10.301706      -280.3237
   9   2.0000     -10.300922      -280.3023
  10   2.0000     -10.299119      -280.2533
  11   2.0000     -10.290120      -280.0084
  12   2.0000     -10.286671      -279.9145
  13   2.0000     -10.283438      -279.8266
  14   2.0000     -10.279448      -279.7180
  15   2.0000     -10.271878      -279.5120
  16   2.0000      -8.085966      -220.0303
  17   2.0000      -8.074626      -219.7218
  18   2.0000      -6.044296      -164.4737
  19   2.0000      -6.040360      -164.3666
  20   2.0000      -6.036934      -164.2733
  21   2.0000      -6.033397      -164.1771
  22   2.0000      -6.029279      -164.0650
  23   2.0000      -6.025103      -163.9514
  24   2.0000      -1.008086       -27.4314
  25   2.0000      -0.981357       -26.7041
  26   2.0000      -0.906442       -24.6655
  27   2.0000      -0.904837       -24.6219
  28   2.0000      -0.867053       -23.5937
  29   2.0000      -0.855196       -23.2711
  30   2.0000      -0.839155       -22.8346
  31   2.0000      -0.811570       -22.0840
  32   2.0000      -0.778459       -21.1829
  33   2.0000      -0.769390       -20.9362
  34   2.0000      -0.711672       -19.3656
  35   2.0000      -0.705096       -19.1866
  36   2.0000      -0.686286       -18.6748
  37   2.0000      -0.662616       -18.0307
  38   2.0000      -0.645623       -17.5683
  39   2.0000      -0.614135       -16.7115
  40   2.0000      -0.585291       -15.9266
  41   2.0000      -0.573232       -15.5984
  42   2.0000      -0.562005       -15.2929
  43   2.0000      -0.552634       -15.0379
  44   2.0000      -0.543596       -14.7920
  45   2.0000      -0.518229       -14.1017
  46   2.0000      -0.516049       -14.0424
  47   2.0000      -0.505676       -13.7602
  48   2.0000      -0.502750       -13.6805
  49   2.0000      -0.498045       -13.5525
  50   2.0000      -0.485577       -13.2132
  51   2.0000      -0.480570       -13.0770
  52   2.0000      -0.473304       -12.8793
  53   2.0000      -0.467190       -12.7129
  54   2.0000      -0.456417       -12.4197
  55   2.0000      -0.446752       -12.1567
  56   2.0000      -0.439938       -11.9713
  57   2.0000      -0.437683       -11.9099
  58   2.0000      -0.430075       -11.7029
  59   2.0000      -0.424948       -11.5634
  60   2.0000      -0.422037       -11.4842
  61   2.0000      -0.417494       -11.3606
  62   2.0000      -0.412908       -11.2358
  63   2.0000      -0.345390        -9.3985
  64   2.0000      -0.332433        -9.0460
  65   2.0000      -0.326520        -8.8851
  66   2.0000      -0.296818        -8.0768
  67   0.0000       0.034793         0.9468
  68   0.0000       0.065673         1.7871
  69   0.0000       0.110695         3.0122
  70   0.0000       0.121025         3.2933
  71   0.0000       0.129252         3.5171

MULLIKEN ATOMIC CHARGES
-----------------------
   0 S :    0.137703
   1 C :   -0.118138
   2 C :   -0.075053
   3 C :    0.040979
   4 C :   -0.171098
   5 H :   -0.000140
   6 C :    0.030364
   7 H :    0.044012
   8 H :    0.026018
   9 C :   -0.077070
  10 H :    0.044086
  11 H :    0.049470
  12 C :   -0.067966
  13 H :    0.034932
  14 H :    0.037495
  15 H :    0.021521
  16 S :    0.079398
  17 C :   -0.098312
  18 C :   -0.038118
  19 C :   -0.062252
  20 C :   -0.123418
  21 H :    0.031808
  22 C :    0.029320
  23 H :    0.023104
  24 H :    0.011409
  25 C :   -0.003267
  26 H :    0.039358
  27 H :    0.007906
  28 C :   -0.056878
  29 H :    0.019456
  30 H :    0.023941
  31 H :    0.054757
  32 H :    0.040490
  33 H :    0.064182
Sum of atomic charges:   -0.0000000

LOEWDIN ATOMIC CHARGES
----------------------
   0 S :    0.437253
   1 C :   -0.218225
   2 C :   -0.064712
   3 C :   -0.052012
   4 C :   -0.197008
   5 H :    0.023654
   6 C :   -0.034332
   7 H :    0.036084
   8 H :    0.030633
   9 C :   -0.034692
  10 H :    0.027770
  11 H :    0.029431
  12 C :   -0.071321
  13 H :    0.029247
  14 H :    0.025915
  15 H :    0.016868
  16 S :    0.362028
  17 C :   -0.171044
  18 C :   -0.070411
  19 C :   -0.059079
  20 C :   -0.187543
  21 H :    0.036111
  22 C :   -0.036877
  23 H :    0.028995
  24 H :    0.026690
  25 C :   -0.028720
  26 H :    0.032295
  27 H :    0.011491
  28 C :   -0.063226
  29 H :    0.016986
  30 H :    0.020766
  31 H :    0.038969
  32 H :    0.025287
  33 H :    0.032727

  Mayer bond orders larger than 0.100000
B(  0-S ,  1-C ) :   1.1627 B(  0-S ,  4-C ) :   1.1605 B(  1-C ,  2-C ) :   1.5865
B(  1-C ,  4-C ) :   0.1033 B(  1-C , 32-H ) :   0.9662 B(  2-C ,  3-C ) :   1.2740
B(  2-C ,  6-C ) :   1.0012 B(  3-C ,  4-C ) :   1.5678 B(  3-C ,  5-H ) :   0.9979
B(  4-C , 20-C ) :   1.0003 B(  6-C ,  7-H ) :   0.9403 B(  6-C ,  8-H ) :   0.9472
B(  6-C ,  9-C ) :   1.0568 B(  9-C , 10-H ) :   0.9551 B(  9-C , 11-H ) :   0.9614
B(  9-C , 12-C ) :   1.0706 B( 12-C , 13-H ) :   0.9779 B( 12-C , 14-H ) :   0.9770
B( 12-C , 15-H ) :   0.9769 B( 16-S , 17-C ) :   1.1288 B( 16-S , 20-C ) :   1.1138
B( 17-C , 18-C ) :   1.6681 B( 17-C , 33-H ) :   0.9623 B( 18-C , 19-C ) :   1.1806
B( 18-C , 21-H ) :   0.9862 B( 19-C , 20-C ) :   1.6771 B( 19-C , 22-C ) :   1.0343
B( 22-C , 23-H ) :   0.9324 B( 22-C , 24-H ) :   0.9376 B( 22-C , 25-C ) :   1.0762
B( 25-C , 26-H ) :   0.9542 B( 25-C , 27-H ) :   0.9533 B( 25-C , 28-C ) :   1.0691
B( 28-C , 29-H ) :   0.9725 B( 28-C , 30-H ) :   0.9765 B( 28-C , 31-H ) :   0.9724

Dispersion correction           -0.014469363
FINAL SINGLE POINT ENERGY     -1339.872152584640

DIPOLE MOMENT
-------------
                                X             Y             Z
Electronic contribution:    -15.47763      21.66397       0.68259
Nuclear contribution   :     16.09323     -22.09429      -0.75322
                        -----------------------------------------
Total Dipole Moment    :      0.61560      -0.43033      -0.07063
                        -----------------------------------------
Magnitude (a.u.)       :      0.75441
Magnitude (Debye)      :      1.91755

Rotational constants in cm-1:     0.021322     0.007620     0.006548
Rotational constants in MHz :   639.210947   228.441843   196.301164

                             ****ORCA TERMINATED NORMALLY****
TOTAL RUN TIME: 0 days 0 hours 0 minutes 21 seconds 599 msec
