                         Program Version 4.2.1 -  RELEASE  -
|  1> ! wB97X-D3 SP def2-SVP
|  2> %pal
|  3> nprocs 24
|  4> end
|  5>
|  6> * xyz 0 1
|  7> S 	 -100.566 	 -0.451484 	 -106.497
|  8> C 	 -98.8072 	 -0.607947 	 -106.601
|  9> C 	 -98.2307 	 -0.989011 	 -105.331
| 10> C 	 -99.2076 	 -1.21174 	 -104.322
| 11> C 	 -100.522 	 -0.982729 	 -104.801
| 12> H 	 -98.9172 	 -1.38437 	 -103.278
| 13> C 	 -96.808 	 -1.15114 	 -105.094
| 14> H 	 -96.5463 	 -0.780324 	 -104.122
| 15> H 	 -96.381 	 -0.50166 	 -105.808
| 16> C 	 -96.2291 	 -2.59276 	 -105.281
| 17> H 	 -96.8124 	 -3.30955 	 -104.684
| 18> H 	 -96.3322 	 -2.93207 	 -106.341
| 19> C 	 -94.7981 	 -2.70161 	 -104.767
| 20> H 	 -94.4904 	 -3.75537 	 -104.754
| 21> H 	 -94.0136 	 -2.13888 	 -105.281
| 22> H 	 -94.6194 	 -2.25585 	 -103.804
| 23> S 	 -102.302 	 0.912458 	 -104.097
| 24> C 	 -103.561 	 0.603417 	 -102.879
| 25> C 	 -103.411 	 -0.691139 	 -102.403
| 26> C 	 -102.381 	 -1.43514 	 -103.093
| 27> C 	 -101.607 	 -0.662129 	 -103.928
| 28> H 	 -104.074 	 -1.11216 	 -101.699
| 29> C 	 -102.139 	 -2.9248 	 -102.904
| 30> H 	 -102.04 	 -3.34345 	 -103.918
| 31> H 	 -103.095 	 -3.38398 	 -102.549
| 32> C 	 -100.96 	 -3.2951 	 -102.001
| 33> H 	 -100.428 	 -2.39754 	 -101.825
| 34> H 	 -100.228 	 -3.89568 	 -102.589
| 35> C 	 -101.365 	 -4.05935 	 -100.762
| 36> H 	 -100.423 	 -4.40873 	 -100.294
| 37> H 	 -101.901 	 -4.94582 	 -101.007
| 38> H 	 -101.98 	 -3.49036 	 -100.038
| 39> H 	 -98.1142 	 -0.591342 	 -107.417
| 40> H 	 -104.213 	 1.30706 	 -102.46
| 41> *
| 42>
| 43>                          ****END OF INPUT****

CARTESIAN COORDINATES (ANGSTROEM)
---------------------------------
  S    -100.566000   -0.451484  -106.497000
  C    -98.807200   -0.607947  -106.601000
  C    -98.230700   -0.989011  -105.331000
  C    -99.207600   -1.211740  -104.322000
  C    -100.522000   -0.982729  -104.801000
  H    -98.917200   -1.384370  -103.278000
  C    -96.808000   -1.151140  -105.094000
  H    -96.546300   -0.780324  -104.122000
  H    -96.381000   -0.501660  -105.808000
  C    -96.229100   -2.592760  -105.281000
  H    -96.812400   -3.309550  -104.684000
  H    -96.332200   -2.932070  -106.341000
  C    -94.798100   -2.701610  -104.767000
  H    -94.490400   -3.755370  -104.754000
  H    -94.013600   -2.138880  -105.281000
  H    -94.619400   -2.255850  -103.804000
  S    -102.302000    0.912458  -104.097000
  C    -103.561000    0.603417  -102.879000
  C    -103.411000   -0.691139  -102.403000
  C    -102.381000   -1.435140  -103.093000
  C    -101.607000   -0.662129  -103.928000
  H    -104.074000   -1.112160  -101.699000
  C    -102.139000   -2.924800  -102.904000
  H    -102.040000   -3.343450  -103.918000
  H    -103.095000   -3.383980  -102.549000
  C    -100.960000   -3.295100  -102.001000
  H    -100.428000   -2.397540  -101.825000
  H    -100.228000   -3.895680  -102.589000
  C    -101.365000   -4.059350  -100.762000
  H    -100.423000   -4.408730  -100.294000
  H    -101.901000   -4.945820  -101.007000
  H    -101.980000   -3.490360  -100.038000
  H    -98.114200   -0.591342  -107.417000
  H    -104.213000    1.307060  -102.460000

 Total Charge           Charge          ....    0
 Multiplicity           Mult            ....    1
 Number of Electrons    NEL             ....  134
 Basis Dimension        Dim             ....  322

ORBITAL ENERGIES
----------------

  NO   OCC          E(Eh)            E(eV)
   0   2.0000     -88.978256     -2421.2214
   1   2.0000     -88.960309     -2420.7331
   2   2.0000     -10.333520      -281.1894
   3   2.0000     -10.320887      -280.8456
   4   2.0000     -10.317965      -280.7661
   5   2.0000     -10.314287      -280.6660
   6   2.0000     -10.301757      -280.3251
   7   2.0000     -10.301457      -280.3169
   8   2.0000     -10.296647      -280.1860
   9   2.0000     -10.295858      -280.1645
  10   2.0000     -10.291721      -280.0520
  11   2.0000     -10.287635      -279.9408
  12   2.0000     -10.285244      -279.8757
  13   2.0000     -10.281208      -279.7659
  14   2.0000     -10.278858      -279.7019
  15   2.0000     -10.277780      -279.6726
  16   2.0000      -8.091227      -220.1735
  17   2.0000      -8.075113      -219.7350
  18   2.0000      -6.049827      -164.6242
  19   2.0000      -6.045912      -164.5176
  20   2.0000      -6.042044      -164.4124
  21   2.0000      -6.033720      -164.1859
  22   2.0000      -6.029520      -164.0716
  23   2.0000      -6.025815      -163.9708
  24   2.0000      -1.005097       -27.3501
  25   2.0000      -0.976799       -26.5801
  26   2.0000      -0.916405       -24.9366
  27   2.0000      -0.906988       -24.6804
  28   2.0000      -0.869361       -23.6565
  29   2.0000      -0.854739       -23.2586
  30   2.0000      -0.845149       -22.9977
  31   2.0000      -0.816265       -22.2117
  32   2.0000      -0.779345       -21.2071
  33   2.0000      -0.767157       -20.8754
  34   2.0000      -0.711242       -19.3539
  35   2.0000      -0.708306       -19.2740
  36   2.0000      -0.695917       -18.9369
  37   2.0000      -0.666507       -18.1366
  38   2.0000      -0.635911       -17.3040
  39   2.0000      -0.619331       -16.8528
  40   2.0000      -0.592275       -16.1166
  41   2.0000      -0.572754       -15.5854
  42   2.0000      -0.556638       -15.1469
  43   2.0000      -0.554397       -15.0859
  44   2.0000      -0.533515       -14.5177
  45   2.0000      -0.531454       -14.4616
  46   2.0000      -0.524362       -14.2686
  47   2.0000      -0.509707       -13.8698
  48   2.0000      -0.503334       -13.6964
  49   2.0000      -0.501915       -13.6578
  50   2.0000      -0.495486       -13.4829
  51   2.0000      -0.475218       -12.9313
  52   2.0000      -0.469130       -12.7657
  53   2.0000      -0.466430       -12.6922
  54   2.0000      -0.460611       -12.5339
  55   2.0000      -0.447463       -12.1761
  56   2.0000      -0.444846       -12.1049
  57   2.0000      -0.437169       -11.8960
  58   2.0000      -0.431994       -11.7552
  59   2.0000      -0.431672       -11.7464
  60   2.0000      -0.418687       -11.3930
  61   2.0000      -0.414271       -11.2729
  62   2.0000      -0.408851       -11.1254
  63   2.0000      -0.349369        -9.5068
  64   2.0000      -0.328306        -8.9337
  65   2.0000      -0.325033        -8.8446
  66   2.0000      -0.287211        -7.8154
  67   0.0000       0.024068         0.6549
  68   0.0000       0.060335         1.6418
  69   0.0000       0.106899         2.9089
  70   0.0000       0.120868         3.2890
  71   0.0000       0.130001         3.5375

MULLIKEN ATOMIC CHARGES
-----------------------
   0 S :    0.134788
   1 C :   -0.086827
   2 C :   -0.140347
   3 C :    0.037528
   4 C :   -0.148660
   5 H :    0.028151
   6 C :    0.089349
   7 H :    0.014041
   8 H :    0.008860
   9 C :   -0.063200
  10 H :    0.029044
  11 H :    0.036750
  12 C :   -0.043691
  13 H :    0.040184
  14 H :    0.020805
  15 H :    0.016665
  16 S :    0.092932
  17 C :   -0.077174
  18 C :   -0.002786
  19 C :   -0.097602
  20 C :   -0.136693
  21 H :    0.002349
  22 C :    0.053239
  23 H :    0.038110
  24 H :    0.018342
  25 C :   -0.051257
  26 H :    0.025903
  27 H :    0.025995
  28 C :   -0.039874
  29 H :    0.031230
  30 H :    0.026179
  31 H :    0.040276
  32 H :    0.035032
  33 H :    0.042360
Sum of atomic charges:   -0.0000000

LOEWDIN ATOMIC CHARGES
----------------------
   0 S :    0.411934
   1 C :   -0.201840
   2 C :   -0.057143
   3 C :   -0.049049
   4 C :   -0.191934
   5 H :    0.036443
   6 C :   -0.035064
   7 H :    0.029044
   8 H :    0.027486
   9 C :   -0.034218
  10 H :    0.025543
  11 H :    0.029708
  12 C :   -0.074658
  13 H :    0.030219
  14 H :    0.024682
  15 H :    0.022677
  16 S :    0.399150
  17 C :   -0.172736
  18 C :   -0.062751
  19 C :   -0.063967
  20 C :   -0.208778
  21 H :    0.022968
  22 C :   -0.036029
  23 H :    0.036976
  24 H :    0.030136
  25 C :   -0.044361
  26 H :    0.015452
  27 H :    0.029155
  28 C :   -0.062347
  29 H :    0.030112
  30 H :    0.020435
  31 H :    0.027454
  32 H :    0.024943
  33 H :    0.020360

  Mayer bond orders larger than 0.100000
B(  0-S ,  1-C ) :   1.1352 B(  0-S ,  4-C ) :   1.1570 B(  1-C ,  2-C ) :   1.5699
B(  1-C ,  4-C ) :   0.1081 B(  1-C , 32-H ) :   0.9627 B(  2-C ,  3-C ) :   1.2887
B(  2-C ,  6-C ) :   1.0536 B(  3-C ,  4-C ) :   1.5136 B(  3-C ,  5-H ) :   0.9802
B(  4-C , 20-C ) :   1.0500 B(  6-C ,  7-H ) :   0.9357 B(  6-C ,  8-H ) :   0.9265
B(  6-C ,  9-C ) :   1.0551 B(  9-C , 10-H ) :   0.9584 B(  9-C , 11-H ) :   0.9540
B(  9-C , 12-C ) :   1.0777 B( 12-C , 13-H ) :   0.9750 B( 12-C , 14-H ) :   0.9725
B( 12-C , 15-H ) :   0.9712 B( 16-S , 17-C ) :   1.1431 B( 16-S , 20-C ) :   1.1348
B( 17-C , 18-C ) :   1.6043 B( 17-C , 33-H ) :   0.9753 B( 18-C , 19-C ) :   1.2515
B( 18-C , 21-H ) :   0.9932 B( 19-C , 20-C ) :   1.5952 B( 19-C , 22-C ) :   1.0551
B( 22-C , 23-H ) :   0.9280 B( 22-C , 24-H ) :   0.9441 B( 22-C , 25-C ) :   1.0373
B( 25-C , 26-H ) :   0.9582 B( 25-C , 27-H ) :   0.9506 B( 25-C , 28-C ) :   1.0879
B( 28-C , 29-H ) :   0.9710 B( 28-C , 30-H ) :   0.9749 B( 28-C , 31-H ) :   0.9747

Dispersion correction           -0.014248184
FINAL SINGLE POINT ENERGY     -1339.867756601879

DIPOLE MOMENT
-------------
                                X             Y             Z
Electronic contribution:    -19.22150      20.01627     -12.67700
Nuclear contribution   :     19.68104     -20.38952      13.00373
                        -----------------------------------------
Total Dipole Moment    :      0.45953      -0.37325       0.32673
                        -----------------------------------------
Magnitude (a.u.)       :      0.67620
Magnitude (Debye)      :      1.71876

Rotational constants in cm-1:     0.018069     0.008881     0.006496
Rotational constants in MHz :   541.681533   266.243653   194.759327

                             ****ORCA TERMINATED NORMALLY****
TOTAL RUN TIME: 0 days 0 hours 0 minutes 21 seconds 549 msec
