                         Program Version 4.2.1 -  RELEASE  -
|  1> ! wB97X-D3 SP def2-SVP
|  2> %pal
|  3> nprocs 24
|  4> end
|  5>
|  6> * xyz 0 1
|  7> S 	 -59.8323 	 -53.6961 	 -86.3083
|  8> C 	 -61.2199 	 -52.8589 	 -85.5504
|  9> C 	 -62.3432 	 -53.6191 	 -85.5964
| 10> C 	 -62.1365 	 -54.891 	 -86.2295
| 11> C 	 -60.889 	 -55.0286 	 -86.7669
| 12> H 	 -62.848 	 -55.6814 	 -86.2366
| 13> C 	 -63.7277 	 -53.2848 	 -85.0384
| 14> H 	 -64.4783 	 -53.8604 	 -85.4913
| 15> H 	 -64.0264 	 -52.1949 	 -84.9907
| 16> C 	 -63.8636 	 -53.8032 	 -83.5805
| 17> H 	 -63.6084 	 -54.855 	 -83.5786
| 18> H 	 -63.028 	 -53.3605 	 -82.9604
| 19> C 	 -65.3206 	 -53.5764 	 -82.96
| 20> H 	 -65.2492 	 -54.0136 	 -82.0142
| 21> H 	 -65.8022 	 -52.5946 	 -82.8429
| 22> H 	 -65.9145 	 -54.2578 	 -83.6261
| 23> S 	 -58.4982 	 -56.4125 	 -86.9841
| 24> C 	 -58.5622 	 -58.0977 	 -87.4514
| 25> C 	 -59.8716 	 -58.5429 	 -87.6776
| 26> C 	 -60.8286 	 -57.5235 	 -87.5473
| 27> C 	 -60.2904 	 -56.2792 	 -87.2258
| 28> H 	 -60.0213 	 -59.519 	 -88.028
| 29> C 	 -62.2921 	 -57.8674 	 -87.7513
| 30> H 	 -62.6909 	 -56.8687 	 -87.9642
| 31> H 	 -62.8267 	 -58.0491 	 -86.8518
| 32> C 	 -62.5627 	 -58.893 	 -88.8488
| 33> H 	 -63.6294 	 -59.0621 	 -88.8496
| 34> H 	 -62.1909 	 -59.8603 	 -88.602
| 35> C 	 -61.9254 	 -58.5026 	 -90.2259
| 36> H 	 -62.3524 	 -59.059 	 -90.9791
| 37> H 	 -60.8359 	 -58.4504 	 -90.3545
| 38> H 	 -62.2258 	 -57.4438 	 -90.3805
| 39> H 	 -61.2039 	 -51.987 	 -84.9491
| 40> H 	 -57.6782 	 -58.7327 	 -87.6966
| 41> *
| 42>
| 43>                          ****END OF INPUT****

CARTESIAN COORDINATES (ANGSTROEM)
---------------------------------
  S    -59.832300  -53.696100  -86.308300
  C    -61.219900  -52.858900  -85.550400
  C    -62.343200  -53.619100  -85.596400
  C    -62.136500  -54.891000  -86.229500
  C    -60.889000  -55.028600  -86.766900
  H    -62.848000  -55.681400  -86.236600
  C    -63.727700  -53.284800  -85.038400
  H    -64.478300  -53.860400  -85.491300
  H    -64.026400  -52.194900  -84.990700
  C    -63.863600  -53.803200  -83.580500
  H    -63.608400  -54.855000  -83.578600
  H    -63.028000  -53.360500  -82.960400
  C    -65.320600  -53.576400  -82.960000
  H    -65.249200  -54.013600  -82.014200
  H    -65.802200  -52.594600  -82.842900
  H    -65.914500  -54.257800  -83.626100
  S    -58.498200  -56.412500  -86.984100
  C    -58.562200  -58.097700  -87.451400
  C    -59.871600  -58.542900  -87.677600
  C    -60.828600  -57.523500  -87.547300
  C    -60.290400  -56.279200  -87.225800
  H    -60.021300  -59.519000  -88.028000
  C    -62.292100  -57.867400  -87.751300
  H    -62.690900  -56.868700  -87.964200
  H    -62.826700  -58.049100  -86.851800
  C    -62.562700  -58.893000  -88.848800
  H    -63.629400  -59.062100  -88.849600
  H    -62.190900  -59.860300  -88.602000
  C    -61.925400  -58.502600  -90.225900
  H    -62.352400  -59.059000  -90.979100
  H    -60.835900  -58.450400  -90.354500
  H    -62.225800  -57.443800  -90.380500
  H    -61.203900  -51.987000  -84.949100
  H    -57.678200  -58.732700  -87.696600

 Total Charge           Charge          ....    0
 Multiplicity           Mult            ....    1
 Number of Electrons    NEL             ....  134
 Basis Dimension        Dim             ....  322

ORBITAL ENERGIES
----------------

  NO   OCC          E(Eh)            E(eV)
   0   2.0000     -88.967552     -2420.9302
   1   2.0000     -88.967056     -2420.9167
   2   2.0000     -10.331772      -281.1418
   3   2.0000     -10.331633      -281.1380
   4   2.0000     -10.321209      -280.8544
   5   2.0000     -10.312543      -280.6186
   6   2.0000     -10.303080      -280.3611
   7   2.0000     -10.302048      -280.3330
   8   2.0000     -10.294661      -280.1320
   9   2.0000     -10.294268      -280.1213
  10   2.0000     -10.292454      -280.0719
  11   2.0000     -10.291480      -280.0454
  12   2.0000     -10.290116      -280.0083
  13   2.0000     -10.288517      -279.9648
  14   2.0000     -10.285785      -279.8904
  15   2.0000     -10.275227      -279.6031
  16   2.0000      -8.081636      -219.9125
  17   2.0000      -8.080779      -219.8892
  18   2.0000      -6.040466      -164.3694
  19   2.0000      -6.039387      -164.3401
  20   2.0000      -6.036432      -164.2597
  21   2.0000      -6.035535      -164.2352
  22   2.0000      -6.031893      -164.1361
  23   2.0000      -6.031398      -164.1227
  24   2.0000      -1.005795       -27.3691
  25   2.0000      -0.980633       -26.6844
  26   2.0000      -0.913401       -24.8549
  27   2.0000      -0.907974       -24.7072
  28   2.0000      -0.868155       -23.6237
  29   2.0000      -0.851922       -23.1820
  30   2.0000      -0.839672       -22.8486
  31   2.0000      -0.813147       -22.1269
  32   2.0000      -0.788108       -21.4455
  33   2.0000      -0.777602       -21.1596
  34   2.0000      -0.716645       -19.5009
  35   2.0000      -0.701323       -19.0840
  36   2.0000      -0.695510       -18.9258
  37   2.0000      -0.662422       -18.0254
  38   2.0000      -0.640394       -17.4260
  39   2.0000      -0.626709       -17.0536
  40   2.0000      -0.597115       -16.2483
  41   2.0000      -0.572900       -15.5894
  42   2.0000      -0.560406       -15.2494
  43   2.0000      -0.557816       -15.1789
  44   2.0000      -0.532963       -14.5027
  45   2.0000      -0.521634       -14.1944
  46   2.0000      -0.514355       -13.9963
  47   2.0000      -0.510118       -13.8810
  48   2.0000      -0.505079       -13.7439
  49   2.0000      -0.501834       -13.6556
  50   2.0000      -0.497379       -13.5344
  51   2.0000      -0.479445       -13.0464
  52   2.0000      -0.473454       -12.8833
  53   2.0000      -0.468451       -12.7472
  54   2.0000      -0.458234       -12.4692
  55   2.0000      -0.448230       -12.1969
  56   2.0000      -0.446195       -12.1416
  57   2.0000      -0.445071       -12.1110
  58   2.0000      -0.435295       -11.8450
  59   2.0000      -0.425441       -11.5768
  60   2.0000      -0.421038       -11.4570
  61   2.0000      -0.413836       -11.2611
  62   2.0000      -0.409771       -11.1504
  63   2.0000      -0.358768        -9.7626
  64   2.0000      -0.337046        -9.1715
  65   2.0000      -0.327264        -8.9053
  66   2.0000      -0.281739        -7.6665
  67   0.0000       0.016614         0.4521
  68   0.0000       0.077128         2.0987
  69   0.0000       0.089731         2.4417
  70   0.0000       0.119775         3.2592
  71   0.0000       0.136033         3.7017

MULLIKEN ATOMIC CHARGES
-----------------------
   0 S :    0.077853
   1 C :   -0.090317
   2 C :   -0.069068
   3 C :   -0.021327
   4 C :   -0.064810
   5 H :   -0.005302
   6 C :    0.085913
   7 H :    0.001032
   8 H :    0.044535
   9 C :   -0.139486
  10 H :    0.025115
  11 H :    0.029799
  12 C :   -0.034884
  13 H :    0.029774
  14 H :    0.052694
  15 H :    0.032559
  16 S :    0.083859
  17 C :   -0.102994
  18 C :   -0.021543
  19 C :   -0.077276
  20 C :   -0.119129
  21 H :   -0.000016
  22 C :    0.062386
  23 H :    0.019701
  24 H :    0.036840
  25 C :   -0.045734
  26 H :    0.024480
  27 H :    0.019784
  28 C :   -0.036262
  29 H :    0.021193
  30 H :    0.050671
  31 H :    0.026538
  32 H :    0.031180
  33 H :    0.072243
Sum of atomic charges:    0.0000000

LOEWDIN ATOMIC CHARGES
----------------------
   0 S :    0.376109
   1 C :   -0.177113
   2 C :   -0.055544
   3 C :   -0.062761
   4 C :   -0.176482
   5 H :    0.023637
   6 C :   -0.031305
   7 H :    0.019329
   8 H :    0.038299
   9 C :   -0.040114
  10 H :    0.020191
  11 H :    0.020872
  12 C :   -0.067815
  13 H :    0.020886
  14 H :    0.030250
  15 H :    0.030998
  16 S :    0.376651
  17 C :   -0.187256
  18 C :   -0.067170
  19 C :   -0.055072
  20 C :   -0.174378
  21 H :    0.023197
  22 C :   -0.035558
  23 H :    0.030377
  24 H :    0.027601
  25 C :   -0.034036
  26 H :    0.028811
  27 H :    0.016534
  28 C :   -0.061537
  29 H :    0.014516
  30 H :    0.032958
  31 H :    0.031743
  32 H :    0.024802
  33 H :    0.038378

  Mayer bond orders larger than 0.100000
B(  0-S ,  1-C ) :   1.1034 B(  0-S ,  4-C ) :   1.1277 B(  1-C ,  2-C ) :   1.6663
B(  1-C , 32-H ) :   0.9663 B(  2-C ,  3-C ) :   1.2148 B(  2-C ,  6-C ) :   1.0305
B(  3-C ,  4-C ) :   1.5859 B(  3-C ,  5-H ) :   0.9874 B(  4-C , 20-C ) :   1.0769
B(  6-C ,  7-H ) :   0.9364 B(  6-C ,  8-H ) :   0.9498 B(  6-C ,  9-C ) :   1.0475
B(  9-C , 10-H ) :   0.9585 B(  9-C , 11-H ) :   0.9588 B(  9-C , 12-C ) :   1.0568
B( 12-C , 13-H ) :   0.9747 B( 12-C , 14-H ) :   0.9790 B( 12-C , 15-H ) :   0.9742
B( 16-S , 17-C ) :   1.1595 B( 16-S , 20-C ) :   1.1171 B( 17-C , 18-C ) :   1.5987
B( 17-C , 33-H ) :   0.9578 B( 18-C , 19-C ) :   1.2553 B( 18-C , 21-H ) :   0.9960
B( 19-C , 20-C ) :   1.5998 B( 19-C , 22-C ) :   1.0223 B( 22-C , 23-H ) :   0.9249
B( 22-C , 24-H ) :   0.9283 B( 22-C , 25-C ) :   1.0769 B( 25-C , 26-H ) :   0.9494
B( 25-C , 27-H ) :   0.9476 B( 25-C , 28-C ) :   1.0685 B( 28-C , 29-H ) :   0.9748
B( 28-C , 30-H ) :   0.9720 B( 28-C , 31-H ) :   0.9753

Dispersion correction           -0.014017508
FINAL SINGLE POINT ENERGY     -1339.854713818520

DIPOLE MOMENT
-------------
                                X             Y             Z
Electronic contribution:     26.13828       6.30323      -2.14624
Nuclear contribution   :    -26.84572      -6.73472       2.33463
                        -----------------------------------------
Total Dipole Moment    :     -0.70744      -0.43150       0.18839
                        -----------------------------------------
Magnitude (a.u.)       :      0.84980
Magnitude (Debye)      :      2.16001

Rotational constants in cm-1:     0.019374     0.008129     0.006358
Rotational constants in MHz :   580.809385   243.713768   190.614376

                             ****ORCA TERMINATED NORMALLY****
TOTAL RUN TIME: 0 days 0 hours 0 minutes 20 seconds 349 msec
