                         Program Version 4.2.1 -  RELEASE  -
|  1> ! wB97X-D3 SP def2-SVP
|  2> %pal
|  3> nprocs 24
|  4> end
|  5>
|  6> * xyz 0 1
|  7> S 	 -134.577 	 14.2222 	 -14.6317
|  8> C 	 -135.336 	 13.2021 	 -13.5225
|  9> C 	 -135.249 	 11.8841 	 -13.9283
| 10> C 	 -134.579 	 11.6773 	 -15.165
| 11> C 	 -134.253 	 12.8385 	 -15.7434
| 12> H 	 -134.355 	 10.6861 	 -15.6927
| 13> C 	 -135.868 	 10.7793 	 -13.0582
| 14> H 	 -135.09 	 10.2014 	 -12.6302
| 15> H 	 -136.294 	 10.073 	 -13.7829
| 16> C 	 -137.068 	 11.0991 	 -12.0347
| 17> H 	 -137.133 	 10.1981 	 -11.3783
| 18> H 	 -136.781 	 11.947 	 -11.333
| 19> C 	 -138.301 	 11.5547 	 -12.8436
| 20> H 	 -139.201 	 11.8455 	 -12.2635
| 21> H 	 -137.894 	 12.3475 	 -13.5204
| 22> H 	 -138.711 	 10.7964 	 -13.5214
| 23> S 	 -132.345 	 14.3701 	 -16.9889
| 24> C 	 -132.107 	 14.0388 	 -18.695
| 25> C 	 -132.893 	 13.0729 	 -19.1653
| 26> C 	 -133.758 	 12.5024 	 -18.1986
| 27> C 	 -133.555 	 13.1206 	 -16.9925
| 28> H 	 -132.964 	 12.846 	 -20.2254
| 29> C 	 -134.741 	 11.3172 	 -18.5304
| 30> H 	 -134.413 	 10.4585 	 -17.9614
| 31> H 	 -134.474 	 11.0043 	 -19.5687
| 32> C 	 -136.307 	 11.4071 	 -18.4005
| 33> H 	 -136.705 	 12.0722 	 -19.1501
| 34> H 	 -136.58 	 11.9534 	 -17.483
| 35> C 	 -136.954 	 10.0283 	 -18.5111
| 36> H 	 -136.706 	 9.42386 	 -17.6482
| 37> H 	 -136.866 	 9.40479 	 -19.4071
| 38> H 	 -138.023 	 10.1411 	 -18.3553
| 39> H 	 -135.742 	 13.499 	 -12.5558
| 40> H 	 -131.367 	 14.6165 	 -19.2862
| 41> *
| 42>
| 43>                          ****END OF INPUT****

CARTESIAN COORDINATES (ANGSTROEM)
---------------------------------
  S    -134.577000   14.222200  -14.631700
  C    -135.336000   13.202100  -13.522500
  C    -135.249000   11.884100  -13.928300
  C    -134.579000   11.677300  -15.165000
  C    -134.253000   12.838500  -15.743400
  H    -134.355000   10.686100  -15.692700
  C    -135.868000   10.779300  -13.058200
  H    -135.090000   10.201400  -12.630200
  H    -136.294000   10.073000  -13.782900
  C    -137.068000   11.099100  -12.034700
  H    -137.133000   10.198100  -11.378300
  H    -136.781000   11.947000  -11.333000
  C    -138.301000   11.554700  -12.843600
  H    -139.201000   11.845500  -12.263500
  H    -137.894000   12.347500  -13.520400
  H    -138.711000   10.796400  -13.521400
  S    -132.345000   14.370100  -16.988900
  C    -132.107000   14.038800  -18.695000
  C    -132.893000   13.072900  -19.165300
  C    -133.758000   12.502400  -18.198600
  C    -133.555000   13.120600  -16.992500
  H    -132.964000   12.846000  -20.225400
  C    -134.741000   11.317200  -18.530400
  H    -134.413000   10.458500  -17.961400
  H    -134.474000   11.004300  -19.568700
  C    -136.307000   11.407100  -18.400500
  H    -136.705000   12.072200  -19.150100
  H    -136.580000   11.953400  -17.483000
  C    -136.954000   10.028300  -18.511100
  H    -136.706000    9.423860  -17.648200
  H    -136.866000    9.404790  -19.407100
  H    -138.023000   10.141100  -18.355300
  H    -135.742000   13.499000  -12.555800
  H    -131.367000   14.616500  -19.286200

 Total Charge           Charge          ....    0
 Multiplicity           Mult            ....    1
 Number of Electrons    NEL             ....  134
 Basis Dimension        Dim             ....  322

ORBITAL ENERGIES
----------------

  NO   OCC          E(Eh)            E(eV)
   0   2.0000     -88.966822     -2420.9103
   1   2.0000     -88.960724     -2420.7444
   2   2.0000     -10.326409      -280.9959
   3   2.0000     -10.322572      -280.8915
   4   2.0000     -10.314102      -280.6610
   5   2.0000     -10.307314      -280.4763
   6   2.0000     -10.304349      -280.3956
   7   2.0000     -10.302873      -280.3554
   8   2.0000     -10.301658      -280.3224
   9   2.0000     -10.299936      -280.2755
  10   2.0000     -10.297537      -280.2102
  11   2.0000     -10.291998      -280.0595
  12   2.0000     -10.291458      -280.0448
  13   2.0000     -10.288597      -279.9670
  14   2.0000     -10.282921      -279.8125
  15   2.0000     -10.279857      -279.7291
  16   2.0000      -8.081973      -219.9217
  17   2.0000      -8.076158      -219.7634
  18   2.0000      -6.040377      -164.3670
  19   2.0000      -6.036651      -164.2656
  20   2.0000      -6.034600      -164.2098
  21   2.0000      -6.032595      -164.1553
  22   2.0000      -6.030653      -164.1024
  23   2.0000      -6.026865      -163.9993
  24   2.0000      -1.012899       -27.5624
  25   2.0000      -0.990440       -26.9512
  26   2.0000      -0.901387       -24.5280
  27   2.0000      -0.900974       -24.5168
  28   2.0000      -0.870494       -23.6874
  29   2.0000      -0.857650       -23.3378
  30   2.0000      -0.846485       -23.0340
  31   2.0000      -0.814717       -22.1696
  32   2.0000      -0.782609       -21.2959
  33   2.0000      -0.767402       -20.8821
  34   2.0000      -0.710698       -19.3391
  35   2.0000      -0.703364       -19.1395
  36   2.0000      -0.692071       -18.8322
  37   2.0000      -0.664113       -18.0714
  38   2.0000      -0.636441       -17.3185
  39   2.0000      -0.611225       -16.6323
  40   2.0000      -0.596224       -16.2241
  41   2.0000      -0.568734       -15.4760
  42   2.0000      -0.557441       -15.1687
  43   2.0000      -0.550855       -14.9895
  44   2.0000      -0.525966       -14.3123
  45   2.0000      -0.521889       -14.2013
  46   2.0000      -0.514284       -13.9944
  47   2.0000      -0.511766       -13.9259
  48   2.0000      -0.499810       -13.6005
  49   2.0000      -0.494099       -13.4451
  50   2.0000      -0.491407       -13.3719
  51   2.0000      -0.478523       -13.0213
  52   2.0000      -0.475471       -12.9382
  53   2.0000      -0.471792       -12.8381
  54   2.0000      -0.458757       -12.4834
  55   2.0000      -0.449154       -12.2221
  56   2.0000      -0.441048       -12.0015
  57   2.0000      -0.436663       -11.8822
  58   2.0000      -0.432574       -11.7709
  59   2.0000      -0.427988       -11.6461
  60   2.0000      -0.424267       -11.5449
  61   2.0000      -0.416096       -11.3225
  62   2.0000      -0.409666       -11.1476
  63   2.0000      -0.360202        -9.8016
  64   2.0000      -0.338418        -9.2088
  65   2.0000      -0.326920        -8.8960
  66   2.0000      -0.286831        -7.8051
  67   0.0000       0.030698         0.8353
  68   0.0000       0.077147         2.0993
  69   0.0000       0.105803         2.8790
  70   0.0000       0.120425         3.2769
  71   0.0000       0.137423         3.7395

MULLIKEN ATOMIC CHARGES
-----------------------
   0 S :    0.092330
   1 C :   -0.106025
   2 C :   -0.120748
   3 C :   -0.001036
   4 C :   -0.139825
   5 H :    0.043143
   6 C :    0.054810
   7 H :    0.028635
   8 H :    0.016150
   9 C :   -0.087302
  10 H :    0.041613
  11 H :    0.039476
  12 C :   -0.072773
  13 H :    0.046207
  14 H :    0.050864
  15 H :    0.027005
  16 S :    0.113399
  17 C :   -0.098191
  18 C :   -0.020271
  19 C :   -0.032434
  20 C :   -0.151919
  21 H :    0.017626
  22 C :    0.048383
  23 H :    0.020562
  24 H :    0.014555
  25 C :   -0.043009
  26 H :    0.026714
  27 H :    0.043818
  28 C :   -0.055130
  29 H :    0.020681
  30 H :    0.044113
  31 H :    0.026222
  32 H :    0.049413
  33 H :    0.062945
Sum of atomic charges:   -0.0000000

LOEWDIN ATOMIC CHARGES
----------------------
   0 S :    0.394409
   1 C :   -0.220258
   2 C :   -0.069477
   3 C :   -0.073520
   4 C :   -0.165728
   5 H :    0.050199
   6 C :   -0.034724
   7 H :    0.025302
   8 H :    0.029287
   9 C :   -0.043465
  10 H :    0.029280
  11 H :    0.025743
  12 C :   -0.079074
  13 H :    0.029045
  14 H :    0.035916
  15 H :    0.023825
  16 S :    0.401811
  17 C :   -0.183014
  18 C :   -0.072417
  19 C :   -0.058622
  20 C :   -0.197531
  21 H :    0.034567
  22 C :   -0.032091
  23 H :    0.024074
  24 H :    0.031911
  25 C :   -0.037948
  26 H :    0.023092
  27 H :    0.032519
  28 C :   -0.071287
  29 H :    0.023649
  30 H :    0.029028
  31 H :    0.030273
  32 H :    0.030715
  33 H :    0.034509

  Mayer bond orders larger than 0.100000
B(  0-S ,  1-C ) :   1.1362 B(  0-S ,  4-C ) :   1.1327 B(  1-C ,  2-C ) :   1.6243
B(  1-C , 32-H ) :   0.9626 B(  2-C ,  3-C ) :   1.2281 B(  2-C ,  6-C ) :   0.9985
B(  3-C ,  4-C ) :   1.6126 B(  3-C ,  5-H ) :   0.9800 B(  4-C , 20-C ) :   1.0410
B(  6-C ,  7-H ) :   0.9366 B(  6-C ,  8-H ) :   0.9441 B(  6-C ,  9-C ) :   1.0649
B(  9-C , 10-H ) :   0.9557 B(  9-C , 11-H ) :   0.9551 B(  9-C , 12-C ) :   1.0535
B( 12-C , 13-H ) :   0.9757 B( 12-C , 14-H ) :   0.9720 B( 12-C , 15-H ) :   0.9755
B( 16-S , 17-C ) :   1.1284 B( 16-S , 20-C ) :   1.1429 B( 17-C , 18-C ) :   1.6418
B( 17-C , 33-H ) :   0.9618 B( 18-C , 19-C ) :   1.2428 B( 18-C , 21-H ) :   0.9852
B( 19-C , 20-C ) :   1.6281 B( 19-C , 22-C ) :   1.0139 B( 22-C , 23-H ) :   0.9428
B( 22-C , 24-H ) :   0.9346 B( 22-C , 25-C ) :   1.0488 B( 25-C , 26-H ) :   0.9553
B( 25-C , 27-H ) :   0.9551 B( 25-C , 28-C ) :   1.0794 B( 28-C , 29-H ) :   0.9714
B( 28-C , 30-H ) :   0.9776 B( 28-C , 31-H ) :   0.9691

Dispersion correction           -0.014732777
FINAL SINGLE POINT ENERGY     -1339.878206612113

DIPOLE MOMENT
-------------
                                X             Y             Z
Electronic contribution:     22.42689      20.72908      -1.94326
Nuclear contribution   :    -22.73725     -21.31679       1.75516
                        -----------------------------------------
Total Dipole Moment    :     -0.31036      -0.58771      -0.18809
                        -----------------------------------------
Magnitude (a.u.)       :      0.69073
Magnitude (Debye)      :      1.75569

Rotational constants in cm-1:     0.019539     0.009276     0.006784
Rotational constants in MHz :   585.769914   278.074809   203.387622

                             ****ORCA TERMINATED NORMALLY****
TOTAL RUN TIME: 0 days 0 hours 0 minutes 22 seconds 184 msec
