                         Program Version 4.2.1 -  RELEASE  -
|  1> ! wB97X-D3 SP def2-SVP
|  2> %pal
|  3> nprocs 24
|  4> end
|  5>
|  6> * xyz 0 1
|  7> S 	 -89.1495 	 -33.8691 	 -60.289
|  8> C 	 -88.4512 	 -35.264 	 -59.5419
|  9> C 	 -88.4049 	 -35.1514 	 -58.1726
| 10> C 	 -88.8304 	 -33.8607 	 -57.7146
| 11> C 	 -89.1533 	 -33.0004 	 -58.7884
| 12> H 	 -88.8408 	 -33.4608 	 -56.7475
| 13> C 	 -87.7728 	 -36.2153 	 -57.2344
| 14> H 	 -86.8188 	 -35.7881 	 -56.9311
| 15> H 	 -87.5031 	 -37.1267 	 -57.8008
| 16> C 	 -88.5858 	 -36.659 	 -55.9266
| 17> H 	 -88.7747 	 -35.8329 	 -55.2564
| 18> H 	 -89.6136 	 -36.9546 	 -56.2443
| 19> C 	 -87.9338 	 -37.7646 	 -55.0656
| 20> H 	 -88.7034 	 -38.1841 	 -54.3451
| 21> H 	 -87.6622 	 -38.6487 	 -55.5846
| 22> H 	 -87.0518 	 -37.4379 	 -54.5182
| 23> S 	 -88.9607 	 -30.3351 	 -59.6737
| 24> C 	 -89.7671 	 -29.2313 	 -58.5606
| 25> C 	 -90.5536 	 -29.8374 	 -57.6033
| 26> C 	 -90.5421 	 -31.2374 	 -57.6995
| 27> C 	 -89.5947 	 -31.6158 	 -58.6677
| 28> H 	 -91.0928 	 -29.2806 	 -56.8816
| 29> C 	 -91.2675 	 -31.9873 	 -56.5642
| 30> H 	 -91.3263 	 -33.0378 	 -56.7998
| 31> H 	 -92.297 	 -31.6447 	 -56.603
| 32> C 	 -90.6411 	 -31.7186 	 -55.1413
| 33> H 	 -90.4137 	 -30.6436 	 -55.012
| 34> H 	 -89.6373 	 -32.0374 	 -55.1435
| 35> C 	 -91.4939 	 -32.2193 	 -53.9387
| 36> H 	 -90.9995 	 -32.0679 	 -52.967
| 37> H 	 -91.7665 	 -33.2345 	 -54.1885
| 38> H 	 -92.3993 	 -31.6867 	 -53.8197
| 39> H 	 -88.2545 	 -36.1764 	 -60.0407
| 40> H 	 -89.5931 	 -28.1642 	 -58.6618
| 41> *
| 42>
| 43>                          ****END OF INPUT****

CARTESIAN COORDINATES (ANGSTROEM)
---------------------------------
  S    -89.149500  -33.869100  -60.289000
  C    -88.451200  -35.264000  -59.541900
  C    -88.404900  -35.151400  -58.172600
  C    -88.830400  -33.860700  -57.714600
  C    -89.153300  -33.000400  -58.788400
  H    -88.840800  -33.460800  -56.747500
  C    -87.772800  -36.215300  -57.234400
  H    -86.818800  -35.788100  -56.931100
  H    -87.503100  -37.126700  -57.800800
  C    -88.585800  -36.659000  -55.926600
  H    -88.774700  -35.832900  -55.256400
  H    -89.613600  -36.954600  -56.244300
  C    -87.933800  -37.764600  -55.065600
  H    -88.703400  -38.184100  -54.345100
  H    -87.662200  -38.648700  -55.584600
  H    -87.051800  -37.437900  -54.518200
  S    -88.960700  -30.335100  -59.673700
  C    -89.767100  -29.231300  -58.560600
  C    -90.553600  -29.837400  -57.603300
  C    -90.542100  -31.237400  -57.699500
  C    -89.594700  -31.615800  -58.667700
  H    -91.092800  -29.280600  -56.881600
  C    -91.267500  -31.987300  -56.564200
  H    -91.326300  -33.037800  -56.799800
  H    -92.297000  -31.644700  -56.603000
  C    -90.641100  -31.718600  -55.141300
  H    -90.413700  -30.643600  -55.012000
  H    -89.637300  -32.037400  -55.143500
  C    -91.493900  -32.219300  -53.938700
  H    -90.999500  -32.067900  -52.967000
  H    -91.766500  -33.234500  -54.188500
  H    -92.399300  -31.686700  -53.819700
  H    -88.254500  -36.176400  -60.040700
  H    -89.593100  -28.164200  -58.661800

 Total Charge           Charge          ....    0
 Multiplicity           Mult            ....    1
 Number of Electrons    NEL             ....  134
 Basis Dimension        Dim             ....  322

ORBITAL ENERGIES
----------------

  NO   OCC          E(Eh)            E(eV)
   0   2.0000     -88.972381     -2421.0616
   1   2.0000     -88.962658     -2420.7970
   2   2.0000     -10.326974      -281.0113
   3   2.0000     -10.325240      -280.9641
   4   2.0000     -10.317260      -280.7469
   5   2.0000     -10.305035      -280.4142
   6   2.0000     -10.302488      -280.3449
   7   2.0000     -10.301768      -280.3253
   8   2.0000     -10.299521      -280.2642
   9   2.0000     -10.298010      -280.2231
  10   2.0000     -10.294846      -280.1370
  11   2.0000     -10.292072      -280.0615
  12   2.0000     -10.289602      -279.9943
  13   2.0000     -10.289100      -279.9806
  14   2.0000     -10.281979      -279.7869
  15   2.0000     -10.281477      -279.7732
  16   2.0000      -8.086940      -220.0568
  17   2.0000      -8.078122      -219.8169
  18   2.0000      -6.045304      -164.5011
  19   2.0000      -6.041744      -164.4042
  20   2.0000      -6.037608      -164.2917
  21   2.0000      -6.036478      -164.2609
  22   2.0000      -6.032590      -164.1551
  23   2.0000      -6.028956      -164.0562
  24   2.0000      -1.006041       -27.3758
  25   2.0000      -0.983688       -26.7675
  26   2.0000      -0.906115       -24.6567
  27   2.0000      -0.896725       -24.4011
  28   2.0000      -0.865854       -23.5611
  29   2.0000      -0.856086       -23.2953
  30   2.0000      -0.845554       -23.0087
  31   2.0000      -0.809092       -22.0165
  32   2.0000      -0.785407       -21.3720
  33   2.0000      -0.769699       -20.9446
  34   2.0000      -0.714539       -19.4436
  35   2.0000      -0.703740       -19.1497
  36   2.0000      -0.692609       -18.8468
  37   2.0000      -0.663687       -18.0598
  38   2.0000      -0.642609       -17.4863
  39   2.0000      -0.616001       -16.7622
  40   2.0000      -0.598257       -16.2794
  41   2.0000      -0.561568       -15.2810
  42   2.0000      -0.556284       -15.1373
  43   2.0000      -0.551166       -14.9980
  44   2.0000      -0.534197       -14.5362
  45   2.0000      -0.519679       -14.1412
  46   2.0000      -0.514084       -13.9889
  47   2.0000      -0.510959       -13.9039
  48   2.0000      -0.506398       -13.7798
  49   2.0000      -0.493687       -13.4339
  50   2.0000      -0.485956       -13.2235
  51   2.0000      -0.475976       -12.9520
  52   2.0000      -0.472960       -12.8699
  53   2.0000      -0.465857       -12.6766
  54   2.0000      -0.460472       -12.5301
  55   2.0000      -0.456051       -12.4098
  56   2.0000      -0.446678       -12.1547
  57   2.0000      -0.444560       -12.0971
  58   2.0000      -0.435834       -11.8596
  59   2.0000      -0.430592       -11.7170
  60   2.0000      -0.423843       -11.5333
  61   2.0000      -0.418050       -11.3757
  62   2.0000      -0.416269       -11.3273
  63   2.0000      -0.343906        -9.3582
  64   2.0000      -0.336319        -9.1517
  65   2.0000      -0.328017        -8.9258
  66   2.0000      -0.285176        -7.7600
  67   0.0000       0.028840         0.7848
  68   0.0000       0.073846         2.0095
  69   0.0000       0.107577         2.9273
  70   0.0000       0.123442         3.3590
  71   0.0000       0.129348         3.5197

MULLIKEN ATOMIC CHARGES
-----------------------
   0 S :    0.110203
   1 C :   -0.109583
   2 C :   -0.061048
   3 C :    0.047326
   4 C :   -0.157410
   5 H :   -0.030540
   6 C :    0.054661
   7 H :    0.039242
   8 H :    0.019364
   9 C :   -0.088606
  10 H :    0.029803
  11 H :    0.034216
  12 C :   -0.059295
  13 H :    0.039515
  14 H :    0.020145
  15 H :    0.039071
  16 S :    0.129846
  17 C :   -0.098898
  18 C :   -0.014696
  19 C :   -0.033030
  20 C :   -0.172790
  21 H :    0.009065
  22 C :    0.073643
  23 H :    0.030730
  24 H :    0.026466
  25 C :   -0.077893
  26 H :    0.018644
  27 H :    0.015472
  28 C :   -0.015434
  29 H :    0.042321
  30 H :    0.032509
  31 H :    0.021624
  32 H :    0.030581
  33 H :    0.054775
Sum of atomic charges:    0.0000000

LOEWDIN ATOMIC CHARGES
----------------------
   0 S :    0.414400
   1 C :   -0.204635
   2 C :   -0.061064
   3 C :   -0.059629
   4 C :   -0.191389
   5 H :    0.018412
   6 C :   -0.029848
   7 H :    0.031701
   8 H :    0.028961
   9 C :   -0.043642
  10 H :    0.020823
  11 H :    0.027446
  12 C :   -0.070457
  13 H :    0.037565
  14 H :    0.017326
  15 H :    0.025678
  16 S :    0.405311
  17 C :   -0.176838
  18 C :   -0.060338
  19 C :   -0.050193
  20 C :   -0.205484
  21 H :    0.026754
  22 C :   -0.025287
  23 H :    0.026704
  24 H :    0.032316
  25 C :   -0.039426
  26 H :    0.025363
  27 H :    0.015634
  28 C :   -0.060337
  29 H :    0.033280
  30 H :    0.025821
  31 H :    0.020513
  32 H :    0.020259
  33 H :    0.024301

  Mayer bond orders larger than 0.100000
B(  0-S ,  1-C ) :   1.1357 B(  0-S ,  4-C ) :   1.1717 B(  1-C ,  2-C ) :   1.6109
B(  1-C , 32-H ) :   0.9703 B(  2-C ,  3-C ) :   1.2337 B(  2-C ,  6-C ) :   1.0228
B(  3-C ,  4-C ) :   1.5520 B(  3-C ,  5-H ) :   1.0080 B(  4-C , 20-C ) :   1.0485
B(  6-C ,  7-H ) :   0.9444 B(  6-C ,  8-H ) :   0.9472 B(  6-C ,  9-C ) :   1.0425
B(  9-C , 10-H ) :   0.9564 B(  9-C , 11-H ) :   0.9611 B(  9-C , 12-C ) :   1.0837
B( 12-C , 13-H ) :   0.9732 B( 12-C , 14-H ) :   0.9761 B( 12-C , 15-H ) :   0.9764
B( 16-S , 17-C ) :   1.1401 B( 16-S , 20-C ) :   1.1495 B( 17-C , 18-C ) :   1.6119
B( 17-C , 33-H ) :   0.9685 B( 18-C , 19-C ) :   1.2279 B( 18-C , 21-H ) :   0.9965
B( 19-C , 20-C ) :   1.5719 B( 19-C , 22-C ) :   1.0516 B( 22-C , 23-H ) :   0.9304
B( 22-C , 24-H ) :   0.9314 B( 22-C , 25-C ) :   1.0468 B( 25-C , 26-H ) :   0.9506
B( 25-C , 27-H ) :   0.9533 B( 25-C , 28-C ) :   1.0707 B( 28-C , 29-H ) :   0.9735
B( 28-C , 30-H ) :   0.9767 B( 28-C , 31-H ) :   0.9752

Dispersion correction           -0.014257995
FINAL SINGLE POINT ENERGY     -1339.875181263479

DIPOLE MOMENT
-------------
                                X             Y             Z
Electronic contribution:      3.34952      15.96195     -30.42250
Nuclear contribution   :     -3.47107     -16.03628      31.19746
                        -----------------------------------------
Total Dipole Moment    :     -0.12155      -0.07433       0.77496
                        -----------------------------------------
Magnitude (a.u.)       :      0.78795
Magnitude (Debye)      :      2.00280

Rotational constants in cm-1:     0.016486     0.009407     0.006387
Rotational constants in MHz :   494.250108   282.014753   191.489319

                             ****ORCA TERMINATED NORMALLY****
TOTAL RUN TIME: 0 days 0 hours 0 minutes 21 seconds 629 msec
