                         Program Version 4.2.1 -  RELEASE  -
|  1> ! wB97X-D3 SP def2-SVP
|  2> %pal
|  3> nprocs 24
|  4> end
|  5>
|  6> * xyz 0 1
|  7> S 	 -109.042 	 45.4413 	 -4.99701
|  8> C 	 -109.436 	 47.0832 	 -4.4944
|  9> C 	 -109.09 	 47.9785 	 -5.52225
| 10> C 	 -108.46 	 47.3066 	 -6.62017
| 11> C 	 -108.268 	 45.9236 	 -6.4442
| 12> H 	 -107.922 	 47.7784 	 -7.42647
| 13> C 	 -109.137 	 49.5326 	 -5.29151
| 14> H 	 -109.883 	 49.8531 	 -4.57069
| 15> H 	 -109.498 	 50.0173 	 -6.21415
| 16> C 	 -107.813 	 50.2508 	 -5.03909
| 17> H 	 -108.067 	 51.3471 	 -5.02212
| 18> H 	 -107.324 	 49.9898 	 -4.09391
| 19> C 	 -106.812 	 50.0894 	 -6.09681
| 20> H 	 -107.279 	 50.0761 	 -7.08095
| 21> H 	 -106.075 	 50.8485 	 -6.22431
| 22> H 	 -106.346 	 49.0639 	 -5.9302
| 23> S 	 -108.328 	 43.6312 	 -7.94888
| 24> C 	 -107.183 	 43.2878 	 -9.16134
| 25> C 	 -106.16 	 44.2524 	 -9.07685
| 26> C 	 -106.342 	 45.2324 	 -8.05842
| 27> C 	 -107.521 	 45.022 	 -7.32089
| 28> H 	 -105.525 	 44.1829 	 -9.902
| 29> C 	 -105.384 	 46.4031 	 -7.94495
| 30> H 	 -104.468 	 46.1198 	 -7.4344
| 31> H 	 -105.885 	 47.1133 	 -7.30583
| 32> C 	 -105.073 	 47.1857 	 -9.25464
| 33> H 	 -104.43 	 46.4651 	 -9.79382
| 34> H 	 -104.338 	 48.0238 	 -9.12351
| 35> C 	 -106.281 	 47.665 	 -10.0939
| 36> H 	 -106.19 	 48.7285 	 -10.2783
| 37> H 	 -107.157 	 47.4185 	 -9.63033
| 38> H 	 -106.206 	 47.1672 	 -11.0687
| 39> H 	 -109.746 	 47.4251 	 -3.54797
| 40> H 	 -107.312 	 42.5384 	 -9.92289
| 41> *
| 42>
| 43>                          ****END OF INPUT****

CARTESIAN COORDINATES (ANGSTROEM)
---------------------------------
  S    -109.042000   45.441300   -4.997010
  C    -109.436000   47.083200   -4.494400
  C    -109.090000   47.978500   -5.522250
  C    -108.460000   47.306600   -6.620170
  C    -108.268000   45.923600   -6.444200
  H    -107.922000   47.778400   -7.426470
  C    -109.137000   49.532600   -5.291510
  H    -109.883000   49.853100   -4.570690
  H    -109.498000   50.017300   -6.214150
  C    -107.813000   50.250800   -5.039090
  H    -108.067000   51.347100   -5.022120
  H    -107.324000   49.989800   -4.093910
  C    -106.812000   50.089400   -6.096810
  H    -107.279000   50.076100   -7.080950
  H    -106.075000   50.848500   -6.224310
  H    -106.346000   49.063900   -5.930200
  S    -108.328000   43.631200   -7.948880
  C    -107.183000   43.287800   -9.161340
  C    -106.160000   44.252400   -9.076850
  C    -106.342000   45.232400   -8.058420
  C    -107.521000   45.022000   -7.320890
  H    -105.525000   44.182900   -9.902000
  C    -105.384000   46.403100   -7.944950
  H    -104.468000   46.119800   -7.434400
  H    -105.885000   47.113300   -7.305830
  C    -105.073000   47.185700   -9.254640
  H    -104.430000   46.465100   -9.793820
  H    -104.338000   48.023800   -9.123510
  C    -106.281000   47.665000  -10.093900
  H    -106.190000   48.728500  -10.278300
  H    -107.157000   47.418500   -9.630330
  H    -106.206000   47.167200  -11.068700
  H    -109.746000   47.425100   -3.547970
  H    -107.312000   42.538400   -9.922890

 Total Charge           Charge          ....    0
 Multiplicity           Mult            ....    1
 Number of Electrons    NEL             ....  134
 Basis Dimension        Dim             ....  322

ORBITAL ENERGIES
----------------

  NO   OCC          E(Eh)            E(eV)
   0   2.0000     -88.968594     -2420.9585
   1   2.0000     -88.965416     -2420.8720
   2   2.0000     -10.333042      -281.1764
   3   2.0000     -10.330946      -281.1193
   4   2.0000     -10.318551      -280.7820
   5   2.0000     -10.315752      -280.7059
   6   2.0000     -10.309835      -280.5449
   7   2.0000     -10.309787      -280.5436
   8   2.0000     -10.299287      -280.2578
   9   2.0000     -10.296567      -280.1838
  10   2.0000     -10.292356      -280.0693
  11   2.0000     -10.291371      -280.0425
  12   2.0000     -10.290031      -280.0060
  13   2.0000     -10.287009      -279.9237
  14   2.0000     -10.274999      -279.5969
  15   2.0000     -10.272252      -279.5222
  16   2.0000      -8.083529      -219.9640
  17   2.0000      -8.081516      -219.9092
  18   2.0000      -6.041990      -164.4109
  19   2.0000      -6.039797      -164.3512
  20   2.0000      -6.037782      -164.2964
  21   2.0000      -6.035534      -164.2352
  22   2.0000      -6.034540      -164.2082
  23   2.0000      -6.032704      -164.1582
  24   2.0000      -1.011661       -27.5287
  25   2.0000      -0.987712       -26.8770
  26   2.0000      -0.917599       -24.9691
  27   2.0000      -0.907829       -24.7033
  28   2.0000      -0.873468       -23.7683
  29   2.0000      -0.850100       -23.1324
  30   2.0000      -0.843075       -22.9412
  31   2.0000      -0.816941       -22.2301
  32   2.0000      -0.789599       -21.4861
  33   2.0000      -0.779383       -21.2081
  34   2.0000      -0.708825       -19.2881
  35   2.0000      -0.698990       -19.0205
  36   2.0000      -0.693013       -18.8578
  37   2.0000      -0.658082       -17.9073
  38   2.0000      -0.642745       -17.4900
  39   2.0000      -0.620410       -16.8822
  40   2.0000      -0.595075       -16.1928
  41   2.0000      -0.581617       -15.8266
  42   2.0000      -0.559459       -15.2237
  43   2.0000      -0.553071       -15.0498
  44   2.0000      -0.548682       -14.9304
  45   2.0000      -0.538769       -14.6606
  46   2.0000      -0.523408       -14.2427
  47   2.0000      -0.513552       -13.9745
  48   2.0000      -0.509015       -13.8510
  49   2.0000      -0.499338       -13.5877
  50   2.0000      -0.495720       -13.4892
  51   2.0000      -0.486145       -13.2287
  52   2.0000      -0.472045       -12.8450
  53   2.0000      -0.471306       -12.8249
  54   2.0000      -0.459806       -12.5120
  55   2.0000      -0.447204       -12.1690
  56   2.0000      -0.443801       -12.0764
  57   2.0000      -0.439311       -11.9542
  58   2.0000      -0.432303       -11.7636
  59   2.0000      -0.424824       -11.5600
  60   2.0000      -0.416459       -11.3324
  61   2.0000      -0.407551       -11.0900
  62   2.0000      -0.398410       -10.8413
  63   2.0000      -0.348805        -9.4915
  64   2.0000      -0.332537        -9.0488
  65   2.0000      -0.331695        -9.0259
  66   2.0000      -0.292334        -7.9548
  67   0.0000       0.028681         0.7804
  68   0.0000       0.064260         1.7486
  69   0.0000       0.112691         3.0665
  70   0.0000       0.121273         3.3000
  71   0.0000       0.130780         3.5587

MULLIKEN ATOMIC CHARGES
-----------------------
   0 S :    0.121376
   1 C :   -0.095366
   2 C :   -0.088467
   3 C :    0.042377
   4 C :   -0.169285
   5 H :   -0.010207
   6 C :    0.057510
   7 H :    0.025929
   8 H :    0.024057
   9 C :   -0.067071
  10 H :    0.031215
  11 H :    0.031076
  12 C :   -0.075748
  13 H :    0.015950
  14 H :    0.030449
  15 H :    0.065764
  16 S :    0.114324
  17 C :   -0.111448
  18 C :   -0.029355
  19 C :   -0.061565
  20 C :   -0.114514
  21 H :    0.001809
  22 C :    0.108509
  23 H :    0.041470
  24 H :   -0.001985
  25 C :   -0.142671
  26 H :    0.025369
  27 H :    0.034770
  28 C :    0.001204
  29 H :    0.034074
  30 H :    0.029019
  31 H :    0.034396
  32 H :    0.033201
  33 H :    0.063833
Sum of atomic charges:    0.0000000

LOEWDIN ATOMIC CHARGES
----------------------
   0 S :    0.426081
   1 C :   -0.190141
   2 C :   -0.058732
   3 C :   -0.069201
   4 C :   -0.207083
   5 H :    0.022586
   6 C :   -0.030555
   7 H :    0.030564
   8 H :    0.032852
   9 C :   -0.046969
  10 H :    0.030418
  11 H :    0.023618
  12 C :   -0.071792
  13 H :    0.019356
  14 H :    0.023040
  15 H :    0.035739
  16 S :    0.445442
  17 C :   -0.197015
  18 C :   -0.069843
  19 C :   -0.054995
  20 C :   -0.213221
  21 H :    0.021719
  22 C :   -0.031554
  23 H :    0.036511
  24 H :    0.020882
  25 C :   -0.047132
  26 H :    0.018435
  27 H :    0.029202
  28 C :   -0.056668
  29 H :    0.029023
  30 H :    0.011493
  31 H :    0.035244
  32 H :    0.021630
  33 H :    0.031064

  Mayer bond orders larger than 0.100000
B(  0-S ,  1-C ) :   1.1483 B(  0-S ,  4-C ) :   1.1767 B(  1-C ,  2-C ) :   1.5848
B(  1-C ,  4-C ) :   0.1053 B(  1-C , 32-H ) :   0.9765 B(  2-C ,  3-C ) :   1.2676
B(  2-C ,  6-C ) :   1.0207 B(  3-C ,  4-C ) :   1.5411 B(  3-C ,  5-H ) :   0.9852
B(  4-C , 20-C ) :   1.0173 B(  6-C ,  7-H ) :   0.9464 B(  6-C ,  8-H ) :   0.9379
B(  6-C ,  9-C ) :   1.0728 B(  9-C , 10-H ) :   0.9494 B(  9-C , 11-H ) :   0.9549
B(  9-C , 12-C ) :   1.0949 B( 12-C , 13-H ) :   0.9664 B( 12-C , 14-H ) :   0.9671
B( 12-C , 15-H ) :   0.9625 B( 16-S , 17-C ) :   1.1962 B( 16-S , 20-C ) :   1.1754
B( 17-C , 18-C ) :   1.5566 B( 17-C , 20-C ) :   0.1047 B( 17-C , 33-H ) :   0.9717
B( 18-C , 19-C ) :   1.2598 B( 18-C , 21-H ) :   1.0070 B( 19-C , 20-C ) :   1.5413
B( 19-C , 22-C ) :   1.0386 B( 22-C , 23-H ) :   0.9318 B( 22-C , 24-H ) :   0.9319
B( 22-C , 25-C ) :   1.0688 B( 25-C , 26-H ) :   0.9634 B( 25-C , 27-H ) :   0.9615
B( 25-C , 28-C ) :   1.0479 B( 28-C , 29-H ) :   0.9788 B( 28-C , 30-H ) :   0.9789
B( 28-C , 31-H ) :   0.9726

Dispersion correction           -0.016239570
FINAL SINGLE POINT ENERGY     -1339.862966400530

DIPOLE MOMENT
-------------
                                X             Y             Z
Electronic contribution:    -13.02998     -26.56366       7.48134
Nuclear contribution   :     13.40685      27.19884      -7.80884
                        -----------------------------------------
Total Dipole Moment    :      0.37687       0.63518      -0.32749
                        -----------------------------------------
Magnitude (a.u.)       :      0.80792
Magnitude (Debye)      :      2.05358

Rotational constants in cm-1:     0.018382     0.010825     0.007357
Rotational constants in MHz :   551.073666   324.514205   220.552075

                             ****ORCA TERMINATED NORMALLY****
TOTAL RUN TIME: 0 days 0 hours 0 minutes 23 seconds 480 msec
