                         Program Version 4.2.1 -  RELEASE  -
|  1> ! wB97X-D3 SP def2-SVP
|  2> %pal
|  3> nprocs 24
|  4> end
|  5>
|  6> * xyz 0 1
|  7> S 	 -119.153 	 60.1214 	 -35.8872
|  8> C 	 -118.446 	 58.5572 	 -35.2859
|  9> C 	 -117.643 	 58.7712 	 -34.1725
| 10> C 	 -117.698 	 60.1494 	 -33.7418
| 11> C 	 -118.673 	 60.8995 	 -34.3881
| 12> H 	 -117.165 	 60.4621 	 -32.8581
| 13> C 	 -116.72 	 57.6686 	 -33.6253
| 14> H 	 -115.707 	 57.7812 	 -34.039
| 15> H 	 -117.237 	 56.6665 	 -33.9591
| 16> C 	 -116.605 	 57.6074 	 -32.0778
| 17> H 	 -116.406 	 58.5935 	 -31.5789
| 18> H 	 -117.584 	 57.3198 	 -31.722
| 19> C 	 -115.505 	 56.6619 	 -31.492
| 20> H 	 -115.758 	 55.5717 	 -31.5912
| 21> H 	 -114.557 	 56.788 	 -31.936
| 22> H 	 -115.37 	 56.8724 	 -30.3951
| 23> S 	 -118.862 	 63.5125 	 -35.2232
| 24> C 	 -119.183 	 64.7764 	 -34.1313
| 25> C 	 -119.198 	 64.3043 	 -32.8009
| 26> C 	 -119.225 	 62.8457 	 -32.7445
| 27> C 	 -119.103 	 62.2437 	 -33.9971
| 28> H 	 -119.292 	 64.9687 	 -31.9977
| 29> C 	 -119.13 	 62.0029 	 -31.4372
| 30> H 	 -118.105 	 62.0161 	 -31.174
| 31> H 	 -119.288 	 60.9201 	 -31.5814
| 32> C 	 -119.948 	 62.508 	 -30.3086
| 33> H 	 -120.979 	 62.4536 	 -30.5617
| 34> H 	 -119.687 	 63.5684 	 -30.2148
| 35> C 	 -119.673 	 61.8876 	 -28.9917
| 36> H 	 -119.899 	 62.5772 	 -28.1909
| 37> H 	 -118.567 	 61.7795 	 -28.8602
| 38> H 	 -120.217 	 60.9166 	 -28.7908
| 39> H 	 -118.486 	 57.6771 	 -35.8847
| 40> H 	 -119.062 	 65.8319 	 -34.4416
| 41> *
| 42>
| 43>                          ****END OF INPUT****

CARTESIAN COORDINATES (ANGSTROEM)
---------------------------------
  S    -119.153000   60.121400  -35.887200
  C    -118.446000   58.557200  -35.285900
  C    -117.643000   58.771200  -34.172500
  C    -117.698000   60.149400  -33.741800
  C    -118.673000   60.899500  -34.388100
  H    -117.165000   60.462100  -32.858100
  C    -116.720000   57.668600  -33.625300
  H    -115.707000   57.781200  -34.039000
  H    -117.237000   56.666500  -33.959100
  C    -116.605000   57.607400  -32.077800
  H    -116.406000   58.593500  -31.578900
  H    -117.584000   57.319800  -31.722000
  C    -115.505000   56.661900  -31.492000
  H    -115.758000   55.571700  -31.591200
  H    -114.557000   56.788000  -31.936000
  H    -115.370000   56.872400  -30.395100
  S    -118.862000   63.512500  -35.223200
  C    -119.183000   64.776400  -34.131300
  C    -119.198000   64.304300  -32.800900
  C    -119.225000   62.845700  -32.744500
  C    -119.103000   62.243700  -33.997100
  H    -119.292000   64.968700  -31.997700
  C    -119.130000   62.002900  -31.437200
  H    -118.105000   62.016100  -31.174000
  H    -119.288000   60.920100  -31.581400
  C    -119.948000   62.508000  -30.308600
  H    -120.979000   62.453600  -30.561700
  H    -119.687000   63.568400  -30.214800
  C    -119.673000   61.887600  -28.991700
  H    -119.899000   62.577200  -28.190900
  H    -118.567000   61.779500  -28.860200
  H    -120.217000   60.916600  -28.790800
  H    -118.486000   57.677100  -35.884700
  H    -119.062000   65.831900  -34.441600

 Total Charge           Charge          ....    0
 Multiplicity           Mult            ....    1
 Number of Electrons    NEL             ....  134
 Basis Dimension        Dim             ....  322

ORBITAL ENERGIES
----------------

  NO   OCC          E(Eh)            E(eV)
   0   2.0000     -88.964742     -2420.8537
   1   2.0000     -88.963039     -2420.8074
   2   2.0000     -10.334320      -281.2111
   3   2.0000     -10.327651      -281.0297
   4   2.0000     -10.323534      -280.9176
   5   2.0000     -10.317516      -280.7539
   6   2.0000     -10.313352      -280.6406
   7   2.0000     -10.309156      -280.5264
   8   2.0000     -10.307335      -280.4768
   9   2.0000     -10.300083      -280.2795
  10   2.0000     -10.296622      -280.1853
  11   2.0000     -10.294813      -280.1361
  12   2.0000     -10.288179      -279.9556
  13   2.0000     -10.286036      -279.8973
  14   2.0000     -10.281094      -279.7628
  15   2.0000     -10.276316      -279.6328
  16   2.0000      -8.078628      -219.8306
  17   2.0000      -8.078588      -219.8296
  18   2.0000      -6.037297      -164.2832
  19   2.0000      -6.037041      -164.2762
  20   2.0000      -6.033490      -164.1796
  21   2.0000      -6.032895      -164.1634
  22   2.0000      -6.029434      -164.0693
  23   2.0000      -6.029027      -164.0582
  24   2.0000      -1.002341       -27.2751
  25   2.0000      -0.978137       -26.6164
  26   2.0000      -0.920080       -25.0366
  27   2.0000      -0.904322       -24.6079
  28   2.0000      -0.867505       -23.6060
  29   2.0000      -0.852570       -23.1996
  30   2.0000      -0.838813       -22.8253
  31   2.0000      -0.811197       -22.0738
  32   2.0000      -0.784846       -21.3567
  33   2.0000      -0.772339       -21.0164
  34   2.0000      -0.707235       -19.2448
  35   2.0000      -0.698870       -19.0172
  36   2.0000      -0.690551       -18.7908
  37   2.0000      -0.656790       -17.8722
  38   2.0000      -0.637003       -17.3337
  39   2.0000      -0.622223       -16.9316
  40   2.0000      -0.600077       -16.3289
  41   2.0000      -0.574865       -15.6429
  42   2.0000      -0.567885       -15.4529
  43   2.0000      -0.558526       -15.1983
  44   2.0000      -0.526654       -14.3310
  45   2.0000      -0.521053       -14.1786
  46   2.0000      -0.516610       -14.0577
  47   2.0000      -0.509420       -13.8620
  48   2.0000      -0.501683       -13.6515
  49   2.0000      -0.498791       -13.5728
  50   2.0000      -0.496478       -13.5099
  51   2.0000      -0.482233       -13.1222
  52   2.0000      -0.471521       -12.8307
  53   2.0000      -0.465086       -12.6556
  54   2.0000      -0.456252       -12.4152
  55   2.0000      -0.453623       -12.3437
  56   2.0000      -0.450181       -12.2501
  57   2.0000      -0.434351       -11.8193
  58   2.0000      -0.431712       -11.7475
  59   2.0000      -0.424571       -11.5532
  60   2.0000      -0.417970       -11.3736
  61   2.0000      -0.415532       -11.3072
  62   2.0000      -0.411889       -11.2081
  63   2.0000      -0.345622        -9.4049
  64   2.0000      -0.329540        -8.9672
  65   2.0000      -0.328638        -8.9427
  66   2.0000      -0.290831        -7.9139
  67   0.0000       0.021467         0.5842
  68   0.0000       0.065316         1.7773
  69   0.0000       0.097985         2.6663
  70   0.0000       0.115734         3.1493
  71   0.0000       0.130204         3.5430

MULLIKEN ATOMIC CHARGES
-----------------------
   0 S :    0.090996
   1 C :   -0.112869
   2 C :   -0.085737
   3 C :    0.043122
   4 C :   -0.151101
   5 H :    0.009333
   6 C :    0.039387
   7 H :    0.051716
   8 H :    0.047219
   9 C :   -0.110718
  10 H :    0.036207
  11 H :    0.029435
  12 C :   -0.061393
  13 H :    0.039725
  14 H :    0.024156
  15 H :    0.042427
  16 S :    0.091697
  17 C :   -0.096565
  18 C :   -0.033322
  19 C :   -0.053897
  20 C :   -0.112986
  21 H :    0.010696
  22 C :    0.050423
  23 H :    0.020327
  24 H :    0.037669
  25 C :   -0.062513
  26 H :    0.028970
  27 H :    0.017676
  28 C :   -0.045337
  29 H :    0.026216
  30 H :    0.019886
  31 H :    0.049477
  32 H :    0.041146
  33 H :    0.078531
Sum of atomic charges:    0.0000000

LOEWDIN ATOMIC CHARGES
----------------------
   0 S :    0.368867
   1 C :   -0.169447
   2 C :   -0.061851
   3 C :   -0.060340
   4 C :   -0.185504
   5 H :    0.026165
   6 C :   -0.034419
   7 H :    0.034165
   8 H :    0.045589
   9 C :   -0.050145
  10 H :    0.025129
  11 H :    0.022950
  12 C :   -0.069897
  13 H :    0.029009
  14 H :    0.016126
  15 H :    0.034276
  16 S :    0.414449
  17 C :   -0.196859
  18 C :   -0.070792
  19 C :   -0.041860
  20 C :   -0.196365
  21 H :    0.019943
  22 C :   -0.032211
  23 H :    0.023482
  24 H :    0.033460
  25 C :   -0.048474
  26 H :    0.024289
  27 H :    0.024956
  28 C :   -0.068836
  29 H :    0.026178
  30 H :    0.027615
  31 H :    0.032739
  32 H :    0.019900
  33 H :    0.037715

  Mayer bond orders larger than 0.100000
B(  0-S ,  1-C ) :   1.1129 B(  0-S ,  4-C ) :   1.1455 B(  1-C ,  2-C ) :   1.6293
B(  1-C , 32-H ) :   0.9741 B(  2-C ,  3-C ) :   1.2290 B(  2-C ,  6-C ) :   1.0152
B(  3-C ,  4-C ) :   1.5613 B(  3-C ,  5-H ) :   0.9885 B(  4-C , 20-C ) :   1.0421
B(  6-C ,  7-H ) :   0.9419 B(  6-C ,  8-H ) :   0.9476 B(  6-C ,  9-C ) :   1.0487
B(  9-C , 10-H ) :   0.9595 B(  9-C , 11-H ) :   0.9592 B(  9-C , 12-C ) :   1.0748
B( 12-C , 13-H ) :   0.9768 B( 12-C , 14-H ) :   0.9761 B( 12-C , 15-H ) :   0.9763
B( 16-S , 17-C ) :   1.1927 B( 16-S , 20-C ) :   1.1369 B( 17-C , 18-C ) :   1.5722
B( 17-C , 33-H ) :   0.9630 B( 18-C , 19-C ) :   1.2479 B( 18-C , 21-H ) :   0.9975
B( 19-C , 20-C ) :   1.5969 B( 19-C , 22-C ) :   1.0295 B( 22-C , 23-H ) :   0.9264
B( 22-C , 24-H ) :   0.9380 B( 22-C , 25-C ) :   1.0716 B( 25-C , 26-H ) :   0.9548
B( 25-C , 27-H ) :   0.9469 B( 25-C , 28-C ) :   1.0972 B( 28-C , 29-H ) :   0.9714
B( 28-C , 30-H ) :   0.9684 B( 28-C , 31-H ) :   0.9715

Dispersion correction           -0.013548380
FINAL SINGLE POINT ENERGY     -1339.865821353395

DIPOLE MOMENT
-------------
                                X             Y             Z
Electronic contribution:     -8.30692      14.21488     -29.25678
Nuclear contribution   :      8.78586     -14.31388      29.97865
                        -----------------------------------------
Total Dipole Moment    :      0.47893      -0.09900       0.72187
                        -----------------------------------------
Magnitude (a.u.)       :      0.87194
Magnitude (Debye)      :      2.21629

Rotational constants in cm-1:     0.015402     0.009314     0.006327
Rotational constants in MHz :   461.738487   279.223419   189.690960

                             ****ORCA TERMINATED NORMALLY****
TOTAL RUN TIME: 0 days 0 hours 0 minutes 21 seconds 258 msec
