                         Program Version 4.2.1 -  RELEASE  -
|  1> ! wB97X-D3 SP def2-SVP
|  2> %pal
|  3> nprocs 24
|  4> end
|  5>
|  6> * xyz 0 1
|  7> S 	 -49.8904 	 15.7467 	 -107.342
|  8> C 	 -51.0103 	 14.4703 	 -107.738
|  9> C 	 -51.8282 	 14.1504 	 -106.663
| 10> C 	 -51.4897 	 14.981 	 -105.494
| 11> C 	 -50.61 	 16.0069 	 -105.788
| 12> H 	 -51.848 	 14.8896 	 -104.446
| 13> C 	 -52.9344 	 13.0335 	 -106.575
| 14> H 	 -53.6509 	 13.4005 	 -107.256
| 15> H 	 -53.4499 	 13.017 	 -105.643
| 16> C 	 -52.5778 	 11.5707 	 -106.962
| 17> H 	 -51.5614 	 11.3858 	 -106.454
| 18> H 	 -53.1899 	 10.8295 	 -106.317
| 19> C 	 -52.6149 	 11.3082 	 -108.444
| 20> H 	 -52.1112 	 12.1374 	 -108.962
| 21> H 	 -52.3253 	 10.2829 	 -108.639
| 22> H 	 -53.6333 	 11.3443 	 -108.765
| 23> S 	 -48.3751 	 17.2015 	 -104.68
| 24> C 	 -48.5812 	 18.4826 	 -103.511
| 25> C 	 -49.8718 	 18.5815 	 -103.079
| 26> C 	 -50.7732 	 17.7636 	 -103.816
| 27> C 	 -50.1106 	 17.0389 	 -104.863
| 28> H 	 -50.1458 	 19.144 	 -102.227
| 29> C 	 -52.2399 	 17.6329 	 -103.392
| 30> H 	 -52.4635 	 18.3529 	 -102.576
| 31> H 	 -52.5193 	 16.6543 	 -102.981
| 32> C 	 -53.1233 	 18.1484 	 -104.543
| 33> H 	 -52.8122 	 17.7692 	 -105.492
| 34> H 	 -52.8901 	 19.2384 	 -104.48
| 35> C 	 -54.6184 	 18.0257 	 -104.331
| 36> H 	 -55.0826 	 17.3305 	 -105.056
| 37> H 	 -55.0945 	 18.9947 	 -104.38
| 38> H 	 -54.9792 	 17.5932 	 -103.342
| 39> H 	 -51.1354 	 14.0578 	 -108.823
| 40> H 	 -47.7434 	 18.9329 	 -103.011
| 41> *
| 42>
| 43>                          ****END OF INPUT****

CARTESIAN COORDINATES (ANGSTROEM)
---------------------------------
  S    -49.890400   15.746700  -107.342000
  C    -51.010300   14.470300  -107.738000
  C    -51.828200   14.150400  -106.663000
  C    -51.489700   14.981000  -105.494000
  C    -50.610000   16.006900  -105.788000
  H    -51.848000   14.889600  -104.446000
  C    -52.934400   13.033500  -106.575000
  H    -53.650900   13.400500  -107.256000
  H    -53.449900   13.017000  -105.643000
  C    -52.577800   11.570700  -106.962000
  H    -51.561400   11.385800  -106.454000
  H    -53.189900   10.829500  -106.317000
  C    -52.614900   11.308200  -108.444000
  H    -52.111200   12.137400  -108.962000
  H    -52.325300   10.282900  -108.639000
  H    -53.633300   11.344300  -108.765000
  S    -48.375100   17.201500  -104.680000
  C    -48.581200   18.482600  -103.511000
  C    -49.871800   18.581500  -103.079000
  C    -50.773200   17.763600  -103.816000
  C    -50.110600   17.038900  -104.863000
  H    -50.145800   19.144000  -102.227000
  C    -52.239900   17.632900  -103.392000
  H    -52.463500   18.352900  -102.576000
  H    -52.519300   16.654300  -102.981000
  C    -53.123300   18.148400  -104.543000
  H    -52.812200   17.769200  -105.492000
  H    -52.890100   19.238400  -104.480000
  C    -54.618400   18.025700  -104.331000
  H    -55.082600   17.330500  -105.056000
  H    -55.094500   18.994700  -104.380000
  H    -54.979200   17.593200  -103.342000
  H    -51.135400   14.057800  -108.823000
  H    -47.743400   18.932900  -103.011000

 Total Charge           Charge          ....    0
 Multiplicity           Mult            ....    1
 Number of Electrons    NEL             ....  134
 Basis Dimension        Dim             ....  322

ORBITAL ENERGIES
----------------

  NO   OCC          E(Eh)            E(eV)
   0   2.0000     -88.967480     -2420.9282
   1   2.0000     -88.966152     -2420.8921
   2   2.0000     -10.332439      -281.1600
   3   2.0000     -10.329947      -281.0921
   4   2.0000     -10.324544      -280.9451
   5   2.0000     -10.314468      -280.6709
   6   2.0000     -10.313162      -280.6354
   7   2.0000     -10.308139      -280.4987
   8   2.0000     -10.300093      -280.2798
   9   2.0000     -10.297913      -280.2204
  10   2.0000     -10.295816      -280.1634
  11   2.0000     -10.292121      -280.0629
  12   2.0000     -10.290648      -280.0228
  13   2.0000     -10.280437      -279.7449
  14   2.0000     -10.279706      -279.7250
  15   2.0000     -10.277798      -279.6731
  16   2.0000      -8.082203      -219.9279
  17   2.0000      -8.081368      -219.9052
  18   2.0000      -6.040616      -164.3735
  19   2.0000      -6.039934      -164.3550
  20   2.0000      -6.036822      -164.2703
  21   2.0000      -6.035818      -164.2430
  22   2.0000      -6.032956      -164.1651
  23   2.0000      -6.032018      -164.1396
  24   2.0000      -1.005571       -27.3630
  25   2.0000      -0.983338       -26.7580
  26   2.0000      -0.908714       -24.7274
  27   2.0000      -0.907710       -24.7000
  28   2.0000      -0.868697       -23.6384
  29   2.0000      -0.848522       -23.0895
  30   2.0000      -0.844414       -22.9777
  31   2.0000      -0.811576       -22.0841
  32   2.0000      -0.786424       -21.3997
  33   2.0000      -0.771221       -20.9860
  34   2.0000      -0.701990       -19.1021
  35   2.0000      -0.696308       -18.9475
  36   2.0000      -0.683578       -18.6011
  37   2.0000      -0.663892       -18.0654
  38   2.0000      -0.636164       -17.3109
  39   2.0000      -0.612775       -16.6744
  40   2.0000      -0.596676       -16.2364
  41   2.0000      -0.571736       -15.5577
  42   2.0000      -0.567388       -15.4394
  43   2.0000      -0.549728       -14.9589
  44   2.0000      -0.530984       -14.4488
  45   2.0000      -0.519340       -14.1320
  46   2.0000      -0.517295       -14.0763
  47   2.0000      -0.508967       -13.8497
  48   2.0000      -0.502588       -13.6761
  49   2.0000      -0.499905       -13.6031
  50   2.0000      -0.493730       -13.4351
  51   2.0000      -0.482474       -13.1288
  52   2.0000      -0.476669       -12.9708
  53   2.0000      -0.466152       -12.6846
  54   2.0000      -0.457888       -12.4598
  55   2.0000      -0.451804       -12.2942
  56   2.0000      -0.445579       -12.1248
  57   2.0000      -0.437475       -11.9043
  58   2.0000      -0.427809       -11.6413
  59   2.0000      -0.425201       -11.5703
  60   2.0000      -0.416094       -11.3225
  61   2.0000      -0.410098       -11.1593
  62   2.0000      -0.400117       -10.8877
  63   2.0000      -0.351672        -9.5695
  64   2.0000      -0.330191        -8.9849
  65   2.0000      -0.327804        -8.9200
  66   2.0000      -0.289058        -7.8657
  67   0.0000       0.022632         0.6158
  68   0.0000       0.070832         1.9274
  69   0.0000       0.101893         2.7726
  70   0.0000       0.120622         3.2823
  71   0.0000       0.133797         3.6408

MULLIKEN ATOMIC CHARGES
-----------------------
   0 S :    0.109138
   1 C :   -0.173549
   2 C :   -0.084396
   3 C :   -0.000857
   4 C :   -0.157499
   5 H :    0.028906
   6 C :    0.091481
   7 H :    0.020103
   8 H :    0.012357
   9 C :   -0.129855
  10 H :    0.040291
  11 H :    0.035278
  12 C :    0.000439
  13 H :    0.025839
  14 H :    0.039107
  15 H :    0.019754
  16 S :    0.105456
  17 C :   -0.081266
  18 C :   -0.009405
  19 C :   -0.053208
  20 C :   -0.137392
  21 H :    0.005722
  22 C :    0.047148
  23 H :    0.015818
  24 H :    0.041615
  25 C :   -0.092111
  26 H :    0.048487
  27 H :    0.033599
  28 C :   -0.053068
  29 H :    0.037679
  30 H :    0.034818
  31 H :    0.025780
  32 H :    0.099593
  33 H :    0.054201
Sum of atomic charges:    0.0000000

LOEWDIN ATOMIC CHARGES
----------------------
   0 S :    0.412698
   1 C :   -0.222955
   2 C :   -0.057332
   3 C :   -0.069044
   4 C :   -0.205087
   5 H :    0.037510
   6 C :   -0.030052
   7 H :    0.026631
   8 H :    0.028252
   9 C :   -0.054746
  10 H :    0.030101
  11 H :    0.030312
  12 C :   -0.063119
  13 H :    0.027083
  14 H :    0.030762
  15 H :    0.023644
  16 S :    0.412267
  17 C :   -0.182827
  18 C :   -0.066745
  19 C :   -0.050231
  20 C :   -0.200135
  21 H :    0.027585
  22 C :   -0.031943
  23 H :    0.030772
  24 H :    0.022782
  25 C :   -0.042934
  26 H :    0.021412
  27 H :    0.032678
  28 C :   -0.077658
  29 H :    0.030163
  30 H :    0.025806
  31 H :    0.028411
  32 H :    0.049497
  33 H :    0.026445

  Mayer bond orders larger than 0.100000
B(  0-S ,  1-C ) :   1.1339 B(  0-S ,  4-C ) :   1.1559 B(  1-C ,  2-C ) :   1.6276
B(  1-C , 32-H ) :   0.9453 B(  2-C ,  3-C ) :   1.2240 B(  2-C ,  6-C ) :   1.0078
B(  3-C ,  4-C ) :   1.5778 B(  3-C ,  5-H ) :   0.9853 B(  4-C , 20-C ) :   1.0418
B(  6-C ,  7-H ) :   0.9403 B(  6-C ,  8-H ) :   0.9436 B(  6-C ,  9-C ) :   1.0532
B(  9-C , 10-H ) :   0.9590 B(  9-C , 11-H ) :   0.9574 B(  9-C , 12-C ) :   1.0702
B( 12-C , 13-H ) :   0.9743 B( 12-C , 14-H ) :   0.9689 B( 12-C , 15-H ) :   0.9690
B( 16-S , 17-C ) :   1.1603 B( 16-S , 20-C ) :   1.1645 B( 17-C , 18-C ) :   1.5826
B( 17-C , 20-C ) :   0.1034 B( 17-C , 33-H ) :   0.9679 B( 18-C , 19-C ) :   1.2867
B( 18-C , 21-H ) :   0.9953 B( 19-C , 20-C ) :   1.5450 B( 19-C , 22-C ) :   1.0349
B( 22-C , 23-H ) :   0.9402 B( 22-C , 24-H ) :   0.9417 B( 22-C , 25-C ) :   1.0429
B( 25-C , 26-H ) :   0.9706 B( 25-C , 27-H ) :   0.9641 B( 25-C , 28-C ) :   1.0620
B( 28-C , 29-H ) :   0.9759 B( 28-C , 30-H ) :   0.9793 B( 28-C , 31-H ) :   0.9750

Dispersion correction           -0.014272134
FINAL SINGLE POINT ENERGY     -1339.859658600240

DIPOLE MOMENT
-------------
                                X             Y             Z
Electronic contribution:     25.72065      10.56377      -0.53417
Nuclear contribution   :    -26.31278     -10.81264       0.90838
                        -----------------------------------------
Total Dipole Moment    :     -0.59213      -0.24887       0.37421
                        -----------------------------------------
Magnitude (a.u.)       :      0.74336
Magnitude (Debye)      :      1.88947

Rotational constants in cm-1:     0.020102     0.008240     0.006443
Rotational constants in MHz :   602.654327   247.025477   193.163456

                             ****ORCA TERMINATED NORMALLY****
TOTAL RUN TIME: 0 days 0 hours 0 minutes 21 seconds 467 msec
