                         Program Version 4.2.1 -  RELEASE  -
|  1> ! wB97X-D3 SP def2-SVP
|  2> %pal
|  3> nprocs 24
|  4> end
|  5>
|  6> * xyz 0 1
|  7> S 	 -51.1842 	 20.9827 	 -98.9482
|  8> C 	 -51.8189 	 19.8611 	 -97.7288
|  9> C 	 -52.1226 	 18.6097 	 -98.3034
| 10> C 	 -51.9555 	 18.6203 	 -99.7218
| 11> C 	 -51.5454 	 19.8406 	 -100.251
| 12> H 	 -52.2805 	 17.7962 	 -100.386
| 13> C 	 -52.6462 	 17.2937 	 -97.6192
| 14> H 	 -52.2029 	 17.2498 	 -96.5337
| 15> H 	 -52.2785 	 16.4134 	 -98.1055
| 16> C 	 -54.183 	 17.2183 	 -97.5107
| 17> H 	 -54.5739 	 17.3109 	 -98.4719
| 18> H 	 -54.4475 	 16.2519 	 -97.1835
| 19> C 	 -54.7724 	 18.1765 	 -96.488
| 20> H 	 -54.2887 	 18.0332 	 -95.5637
| 21> H 	 -54.5915 	 19.2234 	 -96.7639
| 22> H 	 -55.8535 	 18.0641 	 -96.4553
| 23> S 	 -51.9908 	 21.7828 	 -102.104
| 24> C 	 -51.3638 	 21.5468 	 -103.735
| 25> C 	 -51.099 	 20.246 	 -104.031
| 26> C 	 -51.0584 	 19.4696 	 -102.785
| 27> C 	 -51.399 	 20.1889 	 -101.67
| 28> H 	 -50.7998 	 19.8633 	 -104.961
| 29> C 	 -50.7407 	 18.0192 	 -102.907
| 30> H 	 -50.7774 	 17.4917 	 -101.984
| 31> H 	 -49.7159 	 18.0507 	 -103.196
| 32> C 	 -51.6201 	 17.0924 	 -103.784
| 33> H 	 -51.0189 	 16.1463 	 -103.836
| 34> H 	 -51.9558 	 17.5611 	 -104.714
| 35> C 	 -52.9295 	 16.6771 	 -103.147
| 36> H 	 -53.3607 	 17.5905 	 -102.737
| 37> H 	 -52.7635 	 15.8975 	 -102.399
| 38> H 	 -53.6729 	 16.2052 	 -103.816
| 39> H 	 -51.6878 	 19.9331 	 -96.6254
| 40> H 	 -51.4201 	 22.3147 	 -104.503
| 41> *
| 42>
| 43>                          ****END OF INPUT****

CARTESIAN COORDINATES (ANGSTROEM)
---------------------------------
  S    -51.184200   20.982700  -98.948200
  C    -51.818900   19.861100  -97.728800
  C    -52.122600   18.609700  -98.303400
  C    -51.955500   18.620300  -99.721800
  C    -51.545400   19.840600  -100.251000
  H    -52.280500   17.796200  -100.386000
  C    -52.646200   17.293700  -97.619200
  H    -52.202900   17.249800  -96.533700
  H    -52.278500   16.413400  -98.105500
  C    -54.183000   17.218300  -97.510700
  H    -54.573900   17.310900  -98.471900
  H    -54.447500   16.251900  -97.183500
  C    -54.772400   18.176500  -96.488000
  H    -54.288700   18.033200  -95.563700
  H    -54.591500   19.223400  -96.763900
  H    -55.853500   18.064100  -96.455300
  S    -51.990800   21.782800  -102.104000
  C    -51.363800   21.546800  -103.735000
  C    -51.099000   20.246000  -104.031000
  C    -51.058400   19.469600  -102.785000
  C    -51.399000   20.188900  -101.670000
  H    -50.799800   19.863300  -104.961000
  C    -50.740700   18.019200  -102.907000
  H    -50.777400   17.491700  -101.984000
  H    -49.715900   18.050700  -103.196000
  C    -51.620100   17.092400  -103.784000
  H    -51.018900   16.146300  -103.836000
  H    -51.955800   17.561100  -104.714000
  C    -52.929500   16.677100  -103.147000
  H    -53.360700   17.590500  -102.737000
  H    -52.763500   15.897500  -102.399000
  H    -53.672900   16.205200  -103.816000
  H    -51.687800   19.933100  -96.625400
  H    -51.420100   22.314700  -104.503000

 Total Charge           Charge          ....    0
 Multiplicity           Mult            ....    1
 Number of Electrons    NEL             ....  134
 Basis Dimension        Dim             ....  322

ORBITAL ENERGIES
----------------

  NO   OCC          E(Eh)            E(eV)
   0   2.0000     -88.971222     -2421.0300
   1   2.0000     -88.963223     -2420.8124
   2   2.0000     -10.334218      -281.2084
   3   2.0000     -10.326866      -281.0083
   4   2.0000     -10.321948      -280.8745
   5   2.0000     -10.318418      -280.7784
   6   2.0000     -10.308270      -280.5023
   7   2.0000     -10.303220      -280.3649
   8   2.0000     -10.303210      -280.3646
   9   2.0000     -10.295853      -280.1644
  10   2.0000     -10.293857      -280.1101
  11   2.0000     -10.293672      -280.1050
  12   2.0000     -10.285347      -279.8785
  13   2.0000     -10.279569      -279.7213
  14   2.0000     -10.276522      -279.6384
  15   2.0000     -10.269967      -279.4600
  16   2.0000      -8.084750      -219.9972
  17   2.0000      -8.078124      -219.8169
  18   2.0000      -6.043446      -164.4505
  19   2.0000      -6.039364      -164.3395
  20   2.0000      -6.036757      -164.2685
  21   2.0000      -6.035426      -164.2323
  22   2.0000      -6.032883      -164.1631
  23   2.0000      -6.028458      -164.0427
  24   2.0000      -1.004526       -27.3345
  25   2.0000      -0.979596       -26.6562
  26   2.0000      -0.915476       -24.9114
  27   2.0000      -0.908687       -24.7266
  28   2.0000      -0.868386       -23.6300
  29   2.0000      -0.854254       -23.2454
  30   2.0000      -0.844189       -22.9715
  31   2.0000      -0.812144       -22.0996
  32   2.0000      -0.782963       -21.3055
  33   2.0000      -0.775464       -21.1014
  34   2.0000      -0.706119       -19.2145
  35   2.0000      -0.697655       -18.9842
  36   2.0000      -0.690541       -18.7906
  37   2.0000      -0.665837       -18.1184
  38   2.0000      -0.633439       -17.2367
  39   2.0000      -0.620000       -16.8711
  40   2.0000      -0.603967       -16.4348
  41   2.0000      -0.568987       -15.4829
  42   2.0000      -0.563120       -15.3233
  43   2.0000      -0.553383       -15.0583
  44   2.0000      -0.549696       -14.9580
  45   2.0000      -0.539835       -14.6897
  46   2.0000      -0.519209       -14.1284
  47   2.0000      -0.505836       -13.7645
  48   2.0000      -0.500585       -13.6216
  49   2.0000      -0.491334       -13.3699
  50   2.0000      -0.486428       -13.2364
  51   2.0000      -0.480162       -13.0659
  52   2.0000      -0.470939       -12.8149
  53   2.0000      -0.462203       -12.5772
  54   2.0000      -0.454488       -12.3672
  55   2.0000      -0.453378       -12.3370
  56   2.0000      -0.446658       -12.1542
  57   2.0000      -0.441323       -12.0090
  58   2.0000      -0.436335       -11.8733
  59   2.0000      -0.428976       -11.6730
  60   2.0000      -0.421613       -11.4727
  61   2.0000      -0.415207       -11.2984
  62   2.0000      -0.403387       -10.9767
  63   2.0000      -0.354260        -9.6399
  64   2.0000      -0.332640        -9.0516
  65   2.0000      -0.327342        -8.9074
  66   2.0000      -0.288906        -7.8615
  67   0.0000       0.023248         0.6326
  68   0.0000       0.074090         2.0161
  69   0.0000       0.095754         2.6056
  70   0.0000       0.106674         2.9027
  71   0.0000       0.133548         3.6340

MULLIKEN ATOMIC CHARGES
-----------------------
   0 S :    0.116844
   1 C :   -0.128109
   2 C :   -0.096121
   3 C :    0.009906
   4 C :   -0.136426
   5 H :    0.015047
   6 C :    0.012935
   7 H :    0.032009
   8 H :    0.025430
   9 C :   -0.009079
  10 H :    0.010990
  11 H :    0.012883
  12 C :   -0.035838
  13 H :    0.014010
  14 H :    0.033068
  15 H :    0.036258
  16 S :    0.091990
  17 C :   -0.075190
  18 C :   -0.002699
  19 C :   -0.086041
  20 C :   -0.121583
  21 H :    0.007365
  22 C :    0.078598
  23 H :   -0.001012
  24 H :    0.031746
  25 C :   -0.068707
  26 H :    0.039981
  27 H :    0.034756
  28 C :   -0.083198
  29 H :    0.047430
  30 H :    0.028710
  31 H :    0.041383
  32 H :    0.067149
  33 H :    0.055516
Sum of atomic charges:    0.0000000

LOEWDIN ATOMIC CHARGES
----------------------
   0 S :    0.396926
   1 C :   -0.208280
   2 C :   -0.059399
   3 C :   -0.070875
   4 C :   -0.186443
   5 H :    0.032834
   6 C :   -0.028245
   7 H :    0.034871
   8 H :    0.025319
   9 C :   -0.031205
  10 H :    0.015546
  11 H :    0.018719
  12 C :   -0.058568
  13 H :    0.016635
  14 H :    0.026537
  15 H :    0.028161
  16 S :    0.386632
  17 C :   -0.167486
  18 C :   -0.058392
  19 C :   -0.056262
  20 C :   -0.195634
  21 H :    0.024707
  22 C :   -0.036141
  23 H :    0.024114
  24 H :    0.034431
  25 C :   -0.037100
  26 H :    0.034354
  27 H :    0.022892
  28 C :   -0.073365
  29 H :    0.027145
  30 H :    0.020568
  31 H :    0.031211
  32 H :    0.038670
  33 H :    0.027122

  Mayer bond orders larger than 0.100000
B(  0-S ,  1-C ) :   1.1298 B(  0-S ,  4-C ) :   1.1501 B(  1-C ,  2-C ) :   1.6113
B(  1-C ,  4-C ) :   0.1043 B(  1-C , 32-H ) :   0.9566 B(  2-C ,  3-C ) :   1.2607
B(  2-C ,  6-C ) :   1.0131 B(  3-C ,  4-C ) :   1.5693 B(  3-C ,  5-H ) :   0.9760
B(  4-C , 20-C ) :   1.0430 B(  6-C ,  7-H ) :   0.9461 B(  6-C ,  8-H ) :   0.9470
B(  6-C ,  9-C ) :   1.0748 B(  9-C , 10-H ) :   0.9522 B(  9-C , 11-H ) :   0.9515
B(  9-C , 12-C ) :   1.0812 B( 12-C , 13-H ) :   0.9741 B( 12-C , 14-H ) :   0.9738
B( 12-C , 15-H ) :   0.9729 B( 16-S , 17-C ) :   1.1360 B( 16-S , 20-C ) :   1.1159
B( 17-C , 18-C ) :   1.6424 B( 17-C , 33-H ) :   0.9658 B( 18-C , 19-C ) :   1.1923
B( 18-C , 21-H ) :   0.9968 B( 19-C , 20-C ) :   1.6461 B( 19-C , 22-C ) :   1.0526
B( 22-C , 23-H ) :   0.9337 B( 22-C , 24-H ) :   0.9232 B( 22-C , 25-C ) :   1.0597
B( 25-C , 26-H ) :   0.9548 B( 25-C , 27-H ) :   0.9600 B( 25-C , 28-C ) :   1.0771
B( 28-C , 29-H ) :   0.9724 B( 28-C , 30-H ) :   0.9704 B( 28-C , 31-H ) :   0.9726

Dispersion correction           -0.014784683
FINAL SINGLE POINT ENERGY     -1339.866538281485

DIPOLE MOMENT
-------------
                                X             Y             Z
Electronic contribution:     10.84565      25.03805      -3.18321
Nuclear contribution   :    -10.96399     -25.80475       2.94477
                        -----------------------------------------
Total Dipole Moment    :     -0.11834      -0.76670      -0.23844
                        -----------------------------------------
Magnitude (a.u.)       :      0.81160
Magnitude (Debye)      :      2.06291

Rotational constants in cm-1:     0.019147     0.009053     0.006889
Rotational constants in MHz :   574.011255   271.410073   206.524111

                             ****ORCA TERMINATED NORMALLY****
TOTAL RUN TIME: 0 days 0 hours 0 minutes 22 seconds 145 msec
