                         Program Version 4.2.1 -  RELEASE  -
|  1> ! wB97X-D3 SP def2-SVP
|  2> %pal
|  3> nprocs 24
|  4> end
|  5>
|  6> * xyz 0 1
|  7> S 	 16.4005 	 -7.547 	 -117.555
|  8> C 	 15.7803 	 -7.65413 	 -115.915
|  9> C 	 14.9728 	 -6.62256 	 -115.535
| 10> C 	 14.8764 	 -5.65032 	 -116.57
| 11> C 	 15.6063 	 -5.91934 	 -117.645
| 12> H 	 14.4558 	 -4.67501 	 -116.473
| 13> C 	 14.4855 	 -6.32928 	 -114.095
| 14> H 	 14.2583 	 -7.16203 	 -113.5
| 15> H 	 13.5567 	 -5.90026 	 -114.324
| 16> C 	 15.364 	 -5.42973 	 -113.197
| 17> H 	 15.3305 	 -4.33112 	 -113.476
| 18> H 	 14.9172 	 -5.41723 	 -112.214
| 19> C 	 16.8258 	 -5.85923 	 -112.934
| 20> H 	 16.8366 	 -7.01585 	 -112.757
| 21> H 	 17.3533 	 -5.50808 	 -113.877
| 22> H 	 17.1649 	 -5.41072 	 -111.959
| 23> S 	 17.5835 	 -4.65931 	 -119.2
| 24> C 	 17.061 	 -3.46264 	 -120.327
| 25> C 	 15.7068 	 -3.31109 	 -120.371
| 26> C 	 15.001 	 -4.17922 	 -119.511
| 27> C 	 15.8287 	 -4.99745 	 -118.792
| 28> H 	 15.3299 	 -2.50239 	 -120.992
| 29> C 	 13.5036 	 -4.1651 	 -119.311
| 30> H 	 13.1964 	 -3.5222 	 -118.553
| 31> H 	 13.251 	 -5.15645 	 -118.969
| 32> C 	 12.5683 	 -3.79825 	 -120.443
| 33> H 	 12.6832 	 -4.66295 	 -121.073
| 34> H 	 12.8415 	 -2.77671 	 -120.852
| 35> C 	 11.0823 	 -3.83801 	 -119.928
| 36> H 	 10.8454 	 -2.97486 	 -119.238
| 37> H 	 10.8239 	 -4.80416 	 -119.507
| 38> H 	 10.4325 	 -3.86996 	 -120.745
| 39> H 	 15.7845 	 -8.52841 	 -115.314
| 40> H 	 17.7781 	 -2.82726 	 -120.829
| 41> *
| 42>
| 43>                          ****END OF INPUT****

CARTESIAN COORDINATES (ANGSTROEM)
---------------------------------
  S     16.400500   -7.547000  -117.555000
  C     15.780300   -7.654130  -115.915000
  C     14.972800   -6.622560  -115.535000
  C     14.876400   -5.650320  -116.570000
  C     15.606300   -5.919340  -117.645000
  H     14.455800   -4.675010  -116.473000
  C     14.485500   -6.329280  -114.095000
  H     14.258300   -7.162030  -113.500000
  H     13.556700   -5.900260  -114.324000
  C     15.364000   -5.429730  -113.197000
  H     15.330500   -4.331120  -113.476000
  H     14.917200   -5.417230  -112.214000
  C     16.825800   -5.859230  -112.934000
  H     16.836600   -7.015850  -112.757000
  H     17.353300   -5.508080  -113.877000
  H     17.164900   -5.410720  -111.959000
  S     17.583500   -4.659310  -119.200000
  C     17.061000   -3.462640  -120.327000
  C     15.706800   -3.311090  -120.371000
  C     15.001000   -4.179220  -119.511000
  C     15.828700   -4.997450  -118.792000
  H     15.329900   -2.502390  -120.992000
  C     13.503600   -4.165100  -119.311000
  H     13.196400   -3.522200  -118.553000
  H     13.251000   -5.156450  -118.969000
  C     12.568300   -3.798250  -120.443000
  H     12.683200   -4.662950  -121.073000
  H     12.841500   -2.776710  -120.852000
  C     11.082300   -3.838010  -119.928000
  H     10.845400   -2.974860  -119.238000
  H     10.823900   -4.804160  -119.507000
  H     10.432500   -3.869960  -120.745000
  H     15.784500   -8.528410  -115.314000
  H     17.778100   -2.827260  -120.829000

 Total Charge           Charge          ....    0
 Multiplicity           Mult            ....    1
 Number of Electrons    NEL             ....  134
 Basis Dimension        Dim             ....  322

ORBITAL ENERGIES
----------------

  NO   OCC          E(Eh)            E(eV)
   0   2.0000     -88.966301     -2420.8961
   1   2.0000     -88.961720     -2420.7715
   2   2.0000     -10.330126      -281.0970
   3   2.0000     -10.329120      -281.0696
   4   2.0000     -10.313641      -280.6484
   5   2.0000     -10.308795      -280.5166
   6   2.0000     -10.302592      -280.3478
   7   2.0000     -10.298429      -280.2345
   8   2.0000     -10.292684      -280.0782
   9   2.0000     -10.291637      -280.0497
  10   2.0000     -10.290242      -280.0117
  11   2.0000     -10.289541      -279.9926
  12   2.0000     -10.289197      -279.9833
  13   2.0000     -10.287398      -279.9343
  14   2.0000     -10.281251      -279.7671
  15   2.0000     -10.280403      -279.7440
  16   2.0000      -8.080184      -219.8730
  17   2.0000      -8.076170      -219.7638
  18   2.0000      -6.038782      -164.3236
  19   2.0000      -6.035081      -164.2229
  20   2.0000      -6.034555      -164.2086
  21   2.0000      -6.030899      -164.1091
  22   2.0000      -6.030624      -164.1016
  23   2.0000      -6.026889      -164.0000
  24   2.0000      -1.003986       -27.3198
  25   2.0000      -0.984354       -26.7856
  26   2.0000      -0.914005       -24.8713
  27   2.0000      -0.905696       -24.6452
  28   2.0000      -0.868100       -23.6222
  29   2.0000      -0.851146       -23.1609
  30   2.0000      -0.846034       -23.0217
  31   2.0000      -0.814783       -22.1714
  32   2.0000      -0.786231       -21.3944
  33   2.0000      -0.776260       -21.1231
  34   2.0000      -0.703493       -19.1430
  35   2.0000      -0.698410       -19.0047
  36   2.0000      -0.687433       -18.7060
  37   2.0000      -0.652720       -17.7614
  38   2.0000      -0.642056       -17.4712
  39   2.0000      -0.623776       -16.9738
  40   2.0000      -0.602384       -16.3917
  41   2.0000      -0.583394       -15.8749
  42   2.0000      -0.563507       -15.3338
  43   2.0000      -0.550033       -14.9671
  44   2.0000      -0.544697       -14.8220
  45   2.0000      -0.520411       -14.1611
  46   2.0000      -0.514376       -13.9969
  47   2.0000      -0.508591       -13.8395
  48   2.0000      -0.498161       -13.5557
  49   2.0000      -0.492721       -13.4076
  50   2.0000      -0.484870       -13.1940
  51   2.0000      -0.478592       -13.0232
  52   2.0000      -0.471746       -12.8368
  53   2.0000      -0.464868       -12.6497
  54   2.0000      -0.456207       -12.4140
  55   2.0000      -0.448140       -12.1945
  56   2.0000      -0.443422       -12.0661
  57   2.0000      -0.440483       -11.9862
  58   2.0000      -0.434801       -11.8315
  59   2.0000      -0.421768       -11.4769
  60   2.0000      -0.418693       -11.3932
  61   2.0000      -0.416859       -11.3433
  62   2.0000      -0.406309       -11.0562
  63   2.0000      -0.352435        -9.5902
  64   2.0000      -0.334268        -9.0959
  65   2.0000      -0.330763        -9.0005
  66   2.0000      -0.292648        -7.9634
  67   0.0000       0.032838         0.8936
  68   0.0000       0.066713         1.8154
  69   0.0000       0.106700         2.9034
  70   0.0000       0.122543         3.3346
  71   0.0000       0.132768         3.6128

MULLIKEN ATOMIC CHARGES
-----------------------
   0 S :    0.101395
   1 C :   -0.091136
   2 C :   -0.099547
   3 C :    0.018925
   4 C :   -0.139916
   5 H :    0.008360
   6 C :    0.127377
   7 H :    0.005936
   8 H :    0.010377
   9 C :   -0.100478
  10 H :    0.033665
  11 H :    0.021316
  12 C :   -0.099800
  13 H :    0.040447
  14 H :    0.072314
  15 H :    0.049098
  16 S :    0.085323
  17 C :   -0.085468
  18 C :   -0.049738
  19 C :    0.017334
  20 C :   -0.165305
  21 H :    0.018785
  22 C :    0.059978
  23 H :    0.013364
  24 H :    0.020530
  25 C :   -0.093940
  26 H :    0.031500
  27 H :    0.049510
  28 C :   -0.037945
  29 H :    0.049315
  30 H :    0.022830
  31 H :    0.017214
  32 H :    0.032567
  33 H :    0.055811
Sum of atomic charges:    0.0000000

LOEWDIN ATOMIC CHARGES
----------------------
   0 S :    0.366470
   1 C :   -0.182188
   2 C :   -0.065285
   3 C :   -0.058886
   4 C :   -0.166409
   5 H :    0.032144
   6 C :   -0.022518
   7 H :    0.023343
   8 H :    0.027090
   9 C :   -0.051182
  10 H :    0.025948
  11 H :    0.020697
  12 C :   -0.079279
  13 H :    0.032680
  14 H :    0.039906
  15 H :    0.032554
  16 S :    0.375001
  17 C :   -0.180298
  18 C :   -0.079955
  19 C :   -0.053715
  20 C :   -0.168355
  21 H :    0.033760
  22 C :   -0.034555
  23 H :    0.019276
  24 H :    0.030781
  25 C :   -0.036123
  26 H :    0.026115
  27 H :    0.030076
  28 C :   -0.064812
  29 H :    0.032533
  30 H :    0.026947
  31 H :    0.019016
  32 H :    0.021259
  33 H :    0.027963

  Mayer bond orders larger than 0.100000
B(  0-S ,  1-C ) :   1.1173 B(  0-S ,  4-C ) :   1.1129 B(  1-C ,  2-C ) :   1.6727
B(  1-C , 32-H ) :   0.9600 B(  2-C ,  3-C ) :   1.1865 B(  2-C ,  6-C ) :   1.0203
B(  3-C ,  4-C ) :   1.6477 B(  3-C ,  5-H ) :   0.9961 B(  4-C , 20-C ) :   1.0217
B(  6-C ,  7-H ) :   0.9396 B(  6-C ,  8-H ) :   0.9322 B(  6-C ,  9-C ) :   1.0740
B(  9-C , 10-H ) :   0.9569 B(  9-C , 11-H ) :   0.9558 B(  9-C , 12-C ) :   1.0644
B( 12-C , 13-H ) :   0.9725 B( 12-C , 14-H ) :   0.9748 B( 12-C , 15-H ) :   0.9734
B( 16-S , 17-C ) :   1.1576 B( 16-S , 20-C ) :   1.1200 B( 17-C , 18-C ) :   1.6291
B( 17-C , 33-H ) :   0.9630 B( 18-C , 19-C ) :   1.2071 B( 18-C , 21-H ) :   0.9945
B( 19-C , 20-C ) :   1.6386 B( 19-C , 22-C ) :   1.0294 B( 22-C , 23-H ) :   0.9295
B( 22-C , 24-H ) :   0.9332 B( 22-C , 25-C ) :   1.0655 B( 25-C , 26-H ) :   0.9587
B( 25-C , 27-H ) :   0.9490 B( 25-C , 28-C ) :   1.0920 B( 28-C , 29-H ) :   0.9736
B( 28-C , 30-H ) :   0.9698 B( 28-C , 31-H ) :   0.9717

Dispersion correction           -0.014062442
FINAL SINGLE POINT ENERGY     -1339.855775988307

DIPOLE MOMENT
-------------
                                X             Y             Z
Electronic contribution:     18.46676      -7.94024     -12.15659
Nuclear contribution   :    -19.07499       8.37095      12.49549
                        -----------------------------------------
Total Dipole Moment    :     -0.60823       0.43071       0.33889
                        -----------------------------------------
Magnitude (a.u.)       :      0.81872
Magnitude (Debye)      :      2.08101

Rotational constants in cm-1:     0.017571     0.008354     0.006824
Rotational constants in MHz :   526.763038   250.458421   204.564488

                             ****ORCA TERMINATED NORMALLY****
TOTAL RUN TIME: 0 days 0 hours 0 minutes 21 seconds 269 msec
