                         Program Version 4.2.1 -  RELEASE  -
|  1> ! wB97X-D3 SP def2-SVP
|  2> %pal
|  3> nprocs 24
|  4> end
|  5>
|  6> * xyz 0 1
|  7> S 	 -130.39 	 57.6024 	 -60.7692
|  8> C 	 -131.28 	 58.5503 	 -61.8025
|  9> C 	 -132.421 	 57.984 	 -62.2028
| 10> C 	 -132.641 	 56.7195 	 -61.5827
| 11> C 	 -131.567 	 56.3356 	 -60.7932
| 12> H 	 -133.505 	 56.0552 	 -61.7359
| 13> C 	 -133.467 	 58.4856 	 -63.1052
| 14> H 	 -134.166 	 57.7246 	 -63.3707
| 15> H 	 -132.946 	 58.6542 	 -64.0758
| 16> C 	 -134.166 	 59.791 	 -62.687
| 17> H 	 -134.491 	 59.7152 	 -61.6625
| 18> H 	 -133.465 	 60.5891 	 -62.7594
| 19> C 	 -135.329 	 60.2252 	 -63.5995
| 20> H 	 -135.548 	 61.2563 	 -63.4329
| 21> H 	 -135.261 	 60.1107 	 -64.6819
| 22> H 	 -136.156 	 59.6964 	 -63.3053
| 23> S 	 -131.743 	 55.0014 	 -58.3626
| 24> C 	 -132.069 	 53.2925 	 -58.4234
| 25> C 	 -131.666 	 52.7544 	 -59.6068
| 26> C 	 -131.247 	 53.7228 	 -60.5803
| 27> C 	 -131.359 	 55.0349 	 -60.1116
| 28> H 	 -131.842 	 51.6832 	 -59.7838
| 29> C 	 -130.729 	 53.3756 	 -62.0094
| 30> H 	 -129.692 	 53.7307 	 -62.1315
| 31> H 	 -131.393 	 53.8818 	 -62.6412
| 32> C 	 -130.724 	 51.8278 	 -62.3409
| 33> H 	 -131.749 	 51.4304 	 -62.2983
| 34> H 	 -130.244 	 51.2902 	 -61.5439
| 35> C 	 -129.927 	 51.4909 	 -63.6093
| 36> H 	 -129.466 	 50.5042 	 -63.5374
| 37> H 	 -129.253 	 52.2913 	 -63.9414
| 38> H 	 -130.617 	 51.3784 	 -64.4753
| 39> H 	 -131.066 	 59.5077 	 -62.1688
| 40> H 	 -132.597 	 52.7296 	 -57.599
| 41> *
| 42>
| 43>                          ****END OF INPUT****

CARTESIAN COORDINATES (ANGSTROEM)
---------------------------------
  S    -130.390000   57.602400  -60.769200
  C    -131.280000   58.550300  -61.802500
  C    -132.421000   57.984000  -62.202800
  C    -132.641000   56.719500  -61.582700
  C    -131.567000   56.335600  -60.793200
  H    -133.505000   56.055200  -61.735900
  C    -133.467000   58.485600  -63.105200
  H    -134.166000   57.724600  -63.370700
  H    -132.946000   58.654200  -64.075800
  C    -134.166000   59.791000  -62.687000
  H    -134.491000   59.715200  -61.662500
  H    -133.465000   60.589100  -62.759400
  C    -135.329000   60.225200  -63.599500
  H    -135.548000   61.256300  -63.432900
  H    -135.261000   60.110700  -64.681900
  H    -136.156000   59.696400  -63.305300
  S    -131.743000   55.001400  -58.362600
  C    -132.069000   53.292500  -58.423400
  C    -131.666000   52.754400  -59.606800
  C    -131.247000   53.722800  -60.580300
  C    -131.359000   55.034900  -60.111600
  H    -131.842000   51.683200  -59.783800
  C    -130.729000   53.375600  -62.009400
  H    -129.692000   53.730700  -62.131500
  H    -131.393000   53.881800  -62.641200
  C    -130.724000   51.827800  -62.340900
  H    -131.749000   51.430400  -62.298300
  H    -130.244000   51.290200  -61.543900
  C    -129.927000   51.490900  -63.609300
  H    -129.466000   50.504200  -63.537400
  H    -129.253000   52.291300  -63.941400
  H    -130.617000   51.378400  -64.475300
  H    -131.066000   59.507700  -62.168800
  H    -132.597000   52.729600  -57.599000

 Total Charge           Charge          ....    0
 Multiplicity           Mult            ....    1
 Number of Electrons    NEL             ....  134
 Basis Dimension        Dim             ....  322

ORBITAL ENERGIES
----------------

  NO   OCC          E(Eh)            E(eV)
   0   2.0000     -88.962666     -2420.7972
   1   2.0000     -88.958742     -2420.6904
   2   2.0000     -10.326641      -281.0022
   3   2.0000     -10.326129      -280.9882
   4   2.0000     -10.319233      -280.8006
   5   2.0000     -10.309748      -280.5425
   6   2.0000     -10.297059      -280.1972
   7   2.0000     -10.293930      -280.1121
   8   2.0000     -10.293101      -280.0895
   9   2.0000     -10.290997      -280.0323
  10   2.0000     -10.288325      -279.9596
  11   2.0000     -10.286644      -279.9138
  12   2.0000     -10.285232      -279.8754
  13   2.0000     -10.283103      -279.8175
  14   2.0000     -10.281617      -279.7770
  15   2.0000     -10.268201      -279.4120
  16   2.0000      -8.079550      -219.8557
  17   2.0000      -8.073574      -219.6931
  18   2.0000      -6.037844      -164.2981
  19   2.0000      -6.033600      -164.1826
  20   2.0000      -6.032069      -164.1410
  21   2.0000      -6.030585      -164.1006
  22   2.0000      -6.028105      -164.0331
  23   2.0000      -6.024298      -163.9295
  24   2.0000      -1.013585       -27.5810
  25   2.0000      -0.986472       -26.8433
  26   2.0000      -0.914330       -24.8802
  27   2.0000      -0.900393       -24.5009
  28   2.0000      -0.869038       -23.6477
  29   2.0000      -0.855764       -23.2865
  30   2.0000      -0.843869       -22.9628
  31   2.0000      -0.814996       -22.1772
  32   2.0000      -0.783491       -21.3199
  33   2.0000      -0.771054       -20.9814
  34   2.0000      -0.710783       -19.3414
  35   2.0000      -0.705613       -19.2007
  36   2.0000      -0.696208       -18.9448
  37   2.0000      -0.648121       -17.6363
  38   2.0000      -0.641209       -17.4482
  39   2.0000      -0.614604       -16.7242
  40   2.0000      -0.593459       -16.1488
  41   2.0000      -0.575640       -15.6640
  42   2.0000      -0.565578       -15.3901
  43   2.0000      -0.563685       -15.3387
  44   2.0000      -0.528814       -14.3898
  45   2.0000      -0.524122       -14.2621
  46   2.0000      -0.514542       -14.0014
  47   2.0000      -0.510726       -13.8976
  48   2.0000      -0.507476       -13.8091
  49   2.0000      -0.495777       -13.4908
  50   2.0000      -0.492565       -13.4034
  51   2.0000      -0.480579       -13.0772
  52   2.0000      -0.477892       -13.0041
  53   2.0000      -0.466932       -12.7059
  54   2.0000      -0.460724       -12.5369
  55   2.0000      -0.450080       -12.2473
  56   2.0000      -0.443344       -12.0640
  57   2.0000      -0.436861       -11.8876
  58   2.0000      -0.430678       -11.7193
  59   2.0000      -0.425586       -11.5808
  60   2.0000      -0.421382       -11.4664
  61   2.0000      -0.416458       -11.3324
  62   2.0000      -0.409979       -11.1561
  63   2.0000      -0.337729        -9.1901
  64   2.0000      -0.327497        -8.9117
  65   2.0000      -0.322947        -8.7878
  66   2.0000      -0.301874        -8.2144
  67   0.0000       0.042540         1.1576
  68   0.0000       0.057106         1.5539
  69   0.0000       0.120601         3.2817
  70   0.0000       0.131195         3.5700
  71   0.0000       0.139833         3.8051

MULLIKEN ATOMIC CHARGES
-----------------------
   0 S :    0.132489
   1 C :   -0.073255
   2 C :   -0.097442
   3 C :    0.022151
   4 C :   -0.172549
   5 H :    0.020963
   6 C :    0.079508
   7 H :    0.004828
   8 H :    0.026858
   9 C :   -0.062829
  10 H :    0.033029
  11 H :    0.016726
  12 C :   -0.013347
  13 H :    0.022111
  14 H :    0.028184
  15 H :    0.010045
  16 S :    0.093908
  17 C :   -0.114608
  18 C :   -0.048733
  19 C :   -0.055740
  20 C :   -0.165319
  21 H :    0.030578
  22 C :    0.108389
  23 H :    0.049482
  24 H :    0.025038
  25 C :   -0.117239
  26 H :    0.033228
  27 H :    0.028274
  28 C :   -0.038307
  29 H :    0.037947
  30 H :    0.039899
  31 H :    0.026594
  32 H :    0.009245
  33 H :    0.079894
Sum of atomic charges:    0.0000000

LOEWDIN ATOMIC CHARGES
----------------------
   0 S :    0.452302
   1 C :   -0.215456
   2 C :   -0.073168
   3 C :   -0.058079
   4 C :   -0.211030
   5 H :    0.036098
   6 C :   -0.034617
   7 H :    0.023321
   8 H :    0.037520
   9 C :   -0.029263
  10 H :    0.025902
  11 H :    0.016911
  12 C :   -0.059284
  13 H :    0.025300
  14 H :    0.027012
  15 H :    0.013618
  16 S :    0.386731
  17 C :   -0.189151
  18 C :   -0.090164
  19 C :   -0.044658
  20 C :   -0.198196
  21 H :    0.036329
  22 C :   -0.018561
  23 H :    0.038014
  24 H :    0.025288
  25 C :   -0.047601
  26 H :    0.024445
  27 H :    0.019539
  28 C :   -0.070533
  29 H :    0.029027
  30 H :    0.029268
  31 H :    0.028592
  32 H :    0.020541
  33 H :    0.044003

  Mayer bond orders larger than 0.100000
B(  0-S ,  1-C ) :   1.1518 B(  0-S ,  4-C ) :   1.1778 B(  1-C ,  2-C ) :   1.6151
B(  1-C , 32-H ) :   0.9688 B(  2-C ,  3-C ) :   1.2538 B(  2-C ,  6-C ) :   1.0320
B(  3-C ,  4-C ) :   1.5676 B(  3-C ,  5-H ) :   0.9972 B(  4-C , 20-C ) :   0.9882
B(  6-C ,  7-H ) :   0.9422 B(  6-C ,  8-H ) :   0.9233 B(  6-C ,  9-C ) :   1.0640
B(  9-C , 10-H ) :   0.9598 B(  9-C , 11-H ) :   0.9576 B(  9-C , 12-C ) :   1.0807
B( 12-C , 13-H ) :   0.9738 B( 12-C , 14-H ) :   0.9753 B( 12-C , 15-H ) :   0.9751
B( 16-S , 17-C ) :   1.1660 B( 16-S , 20-C ) :   1.1321 B( 17-C , 18-C ) :   1.6098
B( 17-C , 33-H ) :   0.9551 B( 18-C , 19-C ) :   1.2372 B( 18-C , 21-H ) :   0.9849
B( 19-C , 20-C ) :   1.6251 B( 19-C , 22-C ) :   1.0036 B( 22-C , 23-H ) :   0.9437
B( 22-C , 24-H ) :   0.9278 B( 22-C , 25-C ) :   1.0856 B( 25-C , 26-H ) :   0.9548
B( 25-C , 27-H ) :   0.9579 B( 25-C , 28-C ) :   1.0670 B( 28-C , 29-H ) :   0.9772
B( 28-C , 30-H ) :   0.9763 B( 28-C , 31-H ) :   0.9736

Dispersion correction           -0.013343248
FINAL SINGLE POINT ENERGY     -1339.864850023784

DIPOLE MOMENT
-------------
                                X             Y             Z
Electronic contribution:      9.65298       2.55043      22.48180
Nuclear contribution   :    -10.08962      -2.78186     -23.06622
                        -----------------------------------------
Total Dipole Moment    :     -0.43664      -0.23143      -0.58442
                        -----------------------------------------
Magnitude (a.u.)       :      0.76535
Magnitude (Debye)      :      1.94537

Rotational constants in cm-1:     0.018730     0.007047     0.006107
Rotational constants in MHz :   561.509698   211.274646   183.094723

                             ****ORCA TERMINATED NORMALLY****
TOTAL RUN TIME: 0 days 0 hours 0 minutes 20 seconds 720 msec
