                         Program Version 4.2.1 -  RELEASE  -
|  1> ! wB97X-D3 SP def2-SVP
|  2> %pal
|  3> nprocs 24
|  4> end
|  5>
|  6> * xyz 0 1
|  7> S 	 -35.2589 	 -42.8891 	 -79.7805
|  8> C 	 -36.4304 	 -41.7959 	 -79.034
|  9> C 	 -35.817 	 -40.8054 	 -78.3041
| 10> C 	 -34.3747 	 -40.8509 	 -78.4808
| 11> C 	 -33.9259 	 -41.9477 	 -79.1171
| 12> H 	 -33.7055 	 -40.1982 	 -78.0873
| 13> C 	 -36.5213 	 -39.702 	 -77.466
| 14> H 	 -35.9728 	 -39.4068 	 -76.5546
| 15> H 	 -37.4167 	 -40.1102 	 -77.0965
| 16> C 	 -36.9245 	 -38.5792 	 -78.4
| 17> H 	 -36.0185 	 -38.1884 	 -78.8516
| 18> H 	 -37.5437 	 -38.8987 	 -79.2033
| 19> C 	 -37.6831 	 -37.4734 	 -77.6886
| 20> H 	 -37.275 	 -37.1081 	 -76.7142
| 21> H 	 -37.7026 	 -36.7478 	 -78.4772
| 22> H 	 -38.699 	 -37.9692 	 -77.6576
| 23> S 	 -31.8558 	 -43.7943 	 -78.6008
| 24> C 	 -30.3699 	 -43.5667 	 -79.5145
| 25> C 	 -30.3012 	 -42.3049 	 -80.1417
| 26> C 	 -31.5019 	 -41.547 	 -79.9468
| 27> C 	 -32.5399 	 -42.3138 	 -79.3893
| 28> H 	 -29.3834 	 -41.9803 	 -80.5959
| 29> C 	 -31.5847 	 -40.1001 	 -80.4522
| 30> H 	 -30.6211 	 -39.6039 	 -80.6936
| 31> H 	 -32.0212 	 -39.4261 	 -79.6411
| 32> C 	 -32.4177 	 -39.9206 	 -81.7079
| 33> H 	 -32.3366 	 -38.891 	 -81.8897
| 34> H 	 -33.4912 	 -40.0556 	 -81.5422
| 35> C 	 -32.022 	 -40.6963 	 -82.9305
| 36> H 	 -30.9708 	 -40.8102 	 -83.0688
| 37> H 	 -32.4658 	 -40.2027 	 -83.8323
| 38> H 	 -32.3755 	 -41.7632 	 -82.792
| 39> H 	 -37.4802 	 -42.0692 	 -78.9143
| 40> H 	 -29.6199 	 -44.3611 	 -79.4329
| 41> *
| 42>
| 43>                          ****END OF INPUT****

CARTESIAN COORDINATES (ANGSTROEM)
---------------------------------
  S    -35.258900  -42.889100  -79.780500
  C    -36.430400  -41.795900  -79.034000
  C    -35.817000  -40.805400  -78.304100
  C    -34.374700  -40.850900  -78.480800
  C    -33.925900  -41.947700  -79.117100
  H    -33.705500  -40.198200  -78.087300
  C    -36.521300  -39.702000  -77.466000
  H    -35.972800  -39.406800  -76.554600
  H    -37.416700  -40.110200  -77.096500
  C    -36.924500  -38.579200  -78.400000
  H    -36.018500  -38.188400  -78.851600
  H    -37.543700  -38.898700  -79.203300
  C    -37.683100  -37.473400  -77.688600
  H    -37.275000  -37.108100  -76.714200
  H    -37.702600  -36.747800  -78.477200
  H    -38.699000  -37.969200  -77.657600
  S    -31.855800  -43.794300  -78.600800
  C    -30.369900  -43.566700  -79.514500
  C    -30.301200  -42.304900  -80.141700
  C    -31.501900  -41.547000  -79.946800
  C    -32.539900  -42.313800  -79.389300
  H    -29.383400  -41.980300  -80.595900
  C    -31.584700  -40.100100  -80.452200
  H    -30.621100  -39.603900  -80.693600
  H    -32.021200  -39.426100  -79.641100
  C    -32.417700  -39.920600  -81.707900
  H    -32.336600  -38.891000  -81.889700
  H    -33.491200  -40.055600  -81.542200
  C    -32.022000  -40.696300  -82.930500
  H    -30.970800  -40.810200  -83.068800
  H    -32.465800  -40.202700  -83.832300
  H    -32.375500  -41.763200  -82.792000
  H    -37.480200  -42.069200  -78.914300
  H    -29.619900  -44.361100  -79.432900

 Total Charge           Charge          ....    0
 Multiplicity           Mult            ....    1
 Number of Electrons    NEL             ....  134
 Basis Dimension        Dim             ....  322

ORBITAL ENERGIES
----------------

  NO   OCC          E(Eh)            E(eV)
   0   2.0000     -88.965907     -2420.8854
   1   2.0000     -88.961722     -2420.7715
   2   2.0000     -10.329862      -281.0898
   3   2.0000     -10.324217      -280.9362
   4   2.0000     -10.324189      -280.9355
   5   2.0000     -10.313554      -280.6461
   6   2.0000     -10.310838      -280.5722
   7   2.0000     -10.304445      -280.3982
   8   2.0000     -10.299876      -280.2739
   9   2.0000     -10.299029      -280.2508
  10   2.0000     -10.291411      -280.0435
  11   2.0000     -10.284531      -279.8563
  12   2.0000     -10.282167      -279.7920
  13   2.0000     -10.279687      -279.7245
  14   2.0000     -10.274041      -279.5709
  15   2.0000     -10.273250      -279.5493
  16   2.0000      -8.079753      -219.8613
  17   2.0000      -8.076256      -219.7661
  18   2.0000      -6.038189      -164.3075
  19   2.0000      -6.034940      -164.2191
  20   2.0000      -6.034589      -164.2095
  21   2.0000      -6.030820      -164.1070
  22   2.0000      -6.030435      -164.0965
  23   2.0000      -6.026820      -163.9981
  24   2.0000      -1.000401       -27.2223
  25   2.0000      -0.976671       -26.5766
  26   2.0000      -0.917267       -24.9601
  27   2.0000      -0.909430       -24.7468
  28   2.0000      -0.867161       -23.5966
  29   2.0000      -0.848614       -23.0920
  30   2.0000      -0.843846       -22.9622
  31   2.0000      -0.811304       -22.0767
  32   2.0000      -0.784716       -21.3532
  33   2.0000      -0.771159       -20.9843
  34   2.0000      -0.703436       -19.1415
  35   2.0000      -0.693483       -18.8706
  36   2.0000      -0.682261       -18.5653
  37   2.0000      -0.661807       -18.0087
  38   2.0000      -0.647514       -17.6197
  39   2.0000      -0.621291       -16.9062
  40   2.0000      -0.595020       -16.1913
  41   2.0000      -0.575432       -15.6583
  42   2.0000      -0.560832       -15.2610
  43   2.0000      -0.548226       -14.9180
  44   2.0000      -0.545412       -14.8414
  45   2.0000      -0.534372       -14.5410
  46   2.0000      -0.519225       -14.1288
  47   2.0000      -0.504002       -13.7146
  48   2.0000      -0.501167       -13.6375
  49   2.0000      -0.494031       -13.4433
  50   2.0000      -0.487074       -13.2540
  51   2.0000      -0.480408       -13.0726
  52   2.0000      -0.470124       -12.7927
  53   2.0000      -0.462675       -12.5900
  54   2.0000      -0.457127       -12.4391
  55   2.0000      -0.452985       -12.3263
  56   2.0000      -0.443030       -12.0555
  57   2.0000      -0.435810       -11.8590
  58   2.0000      -0.432734       -11.7753
  59   2.0000      -0.418602       -11.3907
  60   2.0000      -0.416316       -11.3285
  61   2.0000      -0.412738       -11.2312
  62   2.0000      -0.408041       -11.1034
  63   2.0000      -0.337860        -9.1936
  64   2.0000      -0.330636        -8.9971
  65   2.0000      -0.325903        -8.8683
  66   2.0000      -0.296770        -8.0755
  67   0.0000       0.026929         0.7328
  68   0.0000       0.064700         1.7606
  69   0.0000       0.098410         2.6779
  70   0.0000       0.120964         3.2916
  71   0.0000       0.125969         3.4278

MULLIKEN ATOMIC CHARGES
-----------------------
   0 S :    0.099292
   1 C :   -0.127577
   2 C :   -0.101028
   3 C :    0.068877
   4 C :   -0.147266
   5 H :   -0.035047
   6 C :    0.105158
   7 H :    0.034131
   8 H :   -0.006387
   9 C :   -0.098049
  10 H :    0.015574
  11 H :    0.023461
  12 C :   -0.028764
  13 H :    0.050784
  14 H :    0.030632
  15 H :    0.035697
  16 S :    0.100630
  17 C :   -0.106252
  18 C :   -0.021764
  19 C :   -0.002002
  20 C :   -0.165047
  21 H :    0.019040
  22 C :    0.025896
  23 H :    0.027056
  24 H :    0.037732
  25 C :   -0.057574
  26 H :    0.007140
  27 H :    0.038080
  28 C :   -0.055395
  29 H :    0.013961
  30 H :    0.044909
  31 H :    0.048622
  32 H :    0.056540
  33 H :    0.068939
Sum of atomic charges:   -0.0000000

LOEWDIN ATOMIC CHARGES
----------------------
   0 S :    0.386407
   1 C :   -0.197290
   2 C :   -0.050052
   3 C :   -0.050404
   4 C :   -0.188441
   5 H :    0.012511
   6 C :   -0.026355
   7 H :    0.033817
   8 H :    0.019567
   9 C :   -0.039205
  10 H :    0.015842
  11 H :    0.023331
  12 C :   -0.067030
  13 H :    0.029676
  14 H :    0.025620
  15 H :    0.034128
  16 S :    0.381690
  17 C :   -0.175088
  18 C :   -0.070986
  19 C :   -0.044975
  20 C :   -0.190357
  21 H :    0.030605
  22 C :   -0.035345
  23 H :    0.033374
  24 H :    0.038160
  25 C :   -0.046911
  26 H :    0.015412
  27 H :    0.027484
  28 C :   -0.068896
  29 H :    0.014956
  30 H :    0.034793
  31 H :    0.036272
  32 H :    0.029631
  33 H :    0.028059

  Mayer bond orders larger than 0.100000
B(  0-S ,  1-C ) :   1.1236 B(  0-S ,  4-C ) :   1.1304 B(  1-C ,  2-C ) :   1.6551
B(  1-C , 32-H ) :   0.9604 B(  2-C ,  3-C ) :   1.1964 B(  2-C ,  6-C ) :   1.0218
B(  3-C ,  4-C ) :   1.6249 B(  3-C ,  5-H ) :   1.0131 B(  4-C , 20-C ) :   1.0341
B(  6-C ,  7-H ) :   0.9463 B(  6-C ,  8-H ) :   0.9290 B(  6-C ,  9-C ) :   1.0651
B(  9-C , 10-H ) :   0.9583 B(  9-C , 11-H ) :   0.9572 B(  9-C , 12-C ) :   1.0666
B( 12-C , 13-H ) :   0.9745 B( 12-C , 14-H ) :   0.9740 B( 12-C , 15-H ) :   0.9773
B( 16-S , 17-C ) :   1.1659 B( 16-S , 20-C ) :   1.1364 B( 17-C , 18-C ) :   1.5798
B( 17-C , 20-C ) :   0.1117 B( 17-C , 33-H ) :   0.9677 B( 18-C , 19-C ) :   1.2358
B( 18-C , 21-H ) :   0.9962 B( 19-C , 20-C ) :   1.5801 B( 19-C , 22-C ) :   1.0377
B( 22-C , 23-H ) :   0.9420 B( 22-C , 24-H ) :   0.9332 B( 22-C , 25-C ) :   1.0853
B( 25-C , 26-H ) :   0.9525 B( 25-C , 27-H ) :   0.9508 B( 25-C , 28-C ) :   1.0795
B( 28-C , 29-H ) :   0.9757 B( 28-C , 30-H ) :   0.9722 B( 28-C , 31-H ) :   0.9694

Dispersion correction           -0.014992232
FINAL SINGLE POINT ENERGY     -1339.861988521883

DIPOLE MOMENT
-------------
                                X             Y             Z
Electronic contribution:      7.59810     -25.19900       5.31365
Nuclear contribution   :     -7.52544      25.88310      -5.21621
                        -----------------------------------------
Total Dipole Moment    :      0.07267       0.68410       0.09743
                        -----------------------------------------
Magnitude (a.u.)       :      0.69482
Magnitude (Debye)      :      1.76608

Rotational constants in cm-1:     0.020810     0.008128     0.006961
Rotational constants in MHz :   623.882760   243.676358   208.695266

                             ****ORCA TERMINATED NORMALLY****
TOTAL RUN TIME: 0 days 0 hours 0 minutes 21 seconds 899 msec
