                         Program Version 4.2.1 -  RELEASE  -
|  1> ! wB97X-D3 SP def2-SVP
|  2> %pal
|  3> nprocs 24
|  4> end
|  5>
|  6> * xyz 0 1
|  7> S 	 -126.289 	 65.689 	 -41.7645
|  8> C 	 -124.619 	 66.0378 	 -42.0951
|  9> C 	 -123.756 	 65.7427 	 -41.0692
| 10> C 	 -124.537 	 65.1261 	 -39.9977
| 11> C 	 -125.937 	 65.0475 	 -40.2129
| 12> H 	 -124.144 	 64.7371 	 -39.1236
| 13> C 	 -122.176 	 65.9177 	 -41.0867
| 14> H 	 -122.023 	 66.8225 	 -40.5537
| 15> H 	 -121.866 	 66.1268 	 -42.089
| 16> C 	 -121.353 	 64.7692 	 -40.4508
| 17> H 	 -120.299 	 65.0693 	 -40.4617
| 18> H 	 -121.571 	 64.6406 	 -39.3567
| 19> C 	 -121.439 	 63.4317 	 -41.1851
| 20> H 	 -122.383 	 62.9798 	 -40.9468
| 21> H 	 -121.255 	 63.5815 	 -42.2847
| 22> H 	 -120.831 	 62.567 	 -40.8666
| 23> S 	 -127.935 	 63.2367 	 -40.1002
| 24> C 	 -128.673 	 62.8663 	 -38.5722
| 25> C 	 -128.084 	 63.5469 	 -37.504
| 26> C 	 -127.086 	 64.4968 	 -37.8968
| 27> C 	 -126.915 	 64.4326 	 -39.3229
| 28> H 	 -128.564 	 63.3736 	 -36.5114
| 29> C 	 -126.336 	 65.3835 	 -36.9585
| 30> H 	 -125.984 	 66.2663 	 -37.4964
| 31> H 	 -125.422 	 64.9478 	 -36.6571
| 32> C 	 -127.056 	 65.9824 	 -35.6913
| 33> H 	 -127.082 	 65.1256 	 -34.9457
| 34> H 	 -128.085 	 66.2894 	 -35.9438
| 35> C 	 -126.462 	 67.1896 	 -35.1227
| 36> H 	 -125.455 	 66.8669 	 -34.9967
| 37> H 	 -126.888 	 67.3485 	 -34.15
| 38> H 	 -126.557 	 68.0084 	 -35.8278
| 39> H 	 -124.287 	 66.6538 	 -42.8842
| 40> H 	 -129.388 	 62.1079 	 -38.418
| 41> *
| 42>
| 43>                          ****END OF INPUT****

CARTESIAN COORDINATES (ANGSTROEM)
---------------------------------
  S    -126.289000   65.689000  -41.764500
  C    -124.619000   66.037800  -42.095100
  C    -123.756000   65.742700  -41.069200
  C    -124.537000   65.126100  -39.997700
  C    -125.937000   65.047500  -40.212900
  H    -124.144000   64.737100  -39.123600
  C    -122.176000   65.917700  -41.086700
  H    -122.023000   66.822500  -40.553700
  H    -121.866000   66.126800  -42.089000
  C    -121.353000   64.769200  -40.450800
  H    -120.299000   65.069300  -40.461700
  H    -121.571000   64.640600  -39.356700
  C    -121.439000   63.431700  -41.185100
  H    -122.383000   62.979800  -40.946800
  H    -121.255000   63.581500  -42.284700
  H    -120.831000   62.567000  -40.866600
  S    -127.935000   63.236700  -40.100200
  C    -128.673000   62.866300  -38.572200
  C    -128.084000   63.546900  -37.504000
  C    -127.086000   64.496800  -37.896800
  C    -126.915000   64.432600  -39.322900
  H    -128.564000   63.373600  -36.511400
  C    -126.336000   65.383500  -36.958500
  H    -125.984000   66.266300  -37.496400
  H    -125.422000   64.947800  -36.657100
  C    -127.056000   65.982400  -35.691300
  H    -127.082000   65.125600  -34.945700
  H    -128.085000   66.289400  -35.943800
  C    -126.462000   67.189600  -35.122700
  H    -125.455000   66.866900  -34.996700
  H    -126.888000   67.348500  -34.150000
  H    -126.557000   68.008400  -35.827800
  H    -124.287000   66.653800  -42.884200
  H    -129.388000   62.107900  -38.418000

 Total Charge           Charge          ....    0
 Multiplicity           Mult            ....    1
 Number of Electrons    NEL             ....  134
 Basis Dimension        Dim             ....  322

ORBITAL ENERGIES
----------------

  NO   OCC          E(Eh)            E(eV)
   0   2.0000     -88.968449     -2420.9546
   1   2.0000     -88.965846     -2420.8837
   2   2.0000     -10.331194      -281.1261
   3   2.0000     -10.328533      -281.0537
   4   2.0000     -10.312483      -280.6169
   5   2.0000     -10.312221      -280.6098
   6   2.0000     -10.306873      -280.4643
   7   2.0000     -10.306131      -280.4441
   8   2.0000     -10.300217      -280.2832
   9   2.0000     -10.297902      -280.2202
  10   2.0000     -10.295822      -280.1636
  11   2.0000     -10.291662      -280.0504
  12   2.0000     -10.289039      -279.9790
  13   2.0000     -10.287668      -279.9417
  14   2.0000     -10.278026      -279.6793
  15   2.0000     -10.270848      -279.4840
  16   2.0000      -8.083150      -219.9537
  17   2.0000      -8.081223      -219.9013
  18   2.0000      -6.041505      -164.3977
  19   2.0000      -6.039686      -164.3482
  20   2.0000      -6.037610      -164.2917
  21   2.0000      -6.035565      -164.2361
  22   2.0000      -6.034142      -164.1973
  23   2.0000      -6.032083      -164.1413
  24   2.0000      -1.004122       -27.3235
  25   2.0000      -0.980450       -26.6794
  26   2.0000      -0.915973       -24.9249
  27   2.0000      -0.906471       -24.6663
  28   2.0000      -0.867532       -23.6067
  29   2.0000      -0.861851       -23.4522
  30   2.0000      -0.840437       -22.8695
  31   2.0000      -0.811677       -22.0868
  32   2.0000      -0.788265       -21.4498
  33   2.0000      -0.774757       -21.0822
  34   2.0000      -0.706459       -19.2237
  35   2.0000      -0.693163       -18.8619
  36   2.0000      -0.692042       -18.8314
  37   2.0000      -0.650723       -17.7071
  38   2.0000      -0.638258       -17.3679
  39   2.0000      -0.620492       -16.8844
  40   2.0000      -0.600717       -16.3463
  41   2.0000      -0.577598       -15.7172
  42   2.0000      -0.564058       -15.3488
  43   2.0000      -0.556463       -15.1421
  44   2.0000      -0.537177       -14.6173
  45   2.0000      -0.533495       -14.5171
  46   2.0000      -0.520035       -14.1509
  47   2.0000      -0.511752       -13.9255
  48   2.0000      -0.501148       -13.6369
  49   2.0000      -0.495835       -13.4923
  50   2.0000      -0.485829       -13.2201
  51   2.0000      -0.478064       -13.0088
  52   2.0000      -0.469866       -12.7857
  53   2.0000      -0.466757       -12.7011
  54   2.0000      -0.464474       -12.6390
  55   2.0000      -0.451681       -12.2909
  56   2.0000      -0.443777       -12.0758
  57   2.0000      -0.441236       -12.0066
  58   2.0000      -0.432678       -11.7738
  59   2.0000      -0.428787       -11.6679
  60   2.0000      -0.416725       -11.3397
  61   2.0000      -0.408918       -11.1272
  62   2.0000      -0.408410       -11.1134
  63   2.0000      -0.347407        -9.4534
  64   2.0000      -0.332431        -9.0459
  65   2.0000      -0.328181        -8.9303
  66   2.0000      -0.285348        -7.7647
  67   0.0000       0.028455         0.7743
  68   0.0000       0.074361         2.0235
  69   0.0000       0.114619         3.1189
  70   0.0000       0.123490         3.3603
  71   0.0000       0.135356         3.6832

MULLIKEN ATOMIC CHARGES
-----------------------
   0 S :    0.119780
   1 C :   -0.110071
   2 C :   -0.103246
   3 C :    0.038067
   4 C :   -0.158732
   5 H :   -0.029467
   6 C :    0.119404
   7 H :    0.033172
   8 H :    0.013388
   9 C :   -0.094828
  10 H :    0.032185
  11 H :    0.038618
  12 C :   -0.059781
  13 H :    0.030435
  14 H :    0.043217
  15 H :    0.031924
  16 S :    0.116968
  17 C :   -0.078060
  18 C :   -0.069513
  19 C :   -0.005299
  20 C :   -0.162042
  21 H :    0.039828
  22 C :    0.065385
  23 H :    0.017432
  24 H :    0.027781
  25 C :   -0.129484
  26 H :    0.035240
  27 H :    0.029956
  28 C :    0.006857
  29 H :    0.012639
  30 H :    0.034602
  31 H :    0.042572
  32 H :    0.031476
  33 H :    0.039600
Sum of atomic charges:   -0.0000000

LOEWDIN ATOMIC CHARGES
----------------------
   0 S :    0.424123
   1 C :   -0.201737
   2 C :   -0.056116
   3 C :   -0.058942
   4 C :   -0.214223
   5 H :    0.010482
   6 C :   -0.016233
   7 H :    0.032030
   8 H :    0.026237
   9 C :   -0.046662
  10 H :    0.026696
  11 H :    0.028558
  12 C :   -0.077529
  13 H :    0.025075
  14 H :    0.032380
  15 H :    0.030293
  16 S :    0.419737
  17 C :   -0.189130
  18 C :   -0.074383
  19 C :   -0.048550
  20 C :   -0.197600
  21 H :    0.040760
  22 C :   -0.038741
  23 H :    0.033016
  24 H :    0.026336
  25 C :   -0.043926
  26 H :    0.024319
  27 H :    0.022532
  28 C :   -0.057158
  29 H :    0.021065
  30 H :    0.030368
  31 H :    0.028874
  32 H :    0.019094
  33 H :    0.018955

  Mayer bond orders larger than 0.100000
B(  0-S ,  1-C ) :   1.1442 B(  0-S ,  4-C ) :   1.1632 B(  1-C ,  2-C ) :   1.6317
B(  1-C , 32-H ) :   0.9626 B(  2-C ,  3-C ) :   1.2468 B(  2-C ,  6-C ) :   0.9918
B(  3-C ,  4-C ) :   1.5467 B(  3-C ,  5-H ) :   1.0040 B(  4-C , 20-C ) :   1.0488
B(  6-C ,  7-H ) :   0.9340 B(  6-C ,  8-H ) :   0.9451 B(  6-C ,  9-C ) :   1.0794
B(  9-C , 10-H ) :   0.9550 B(  9-C , 11-H ) :   0.9524 B(  9-C , 12-C ) :   1.0710
B( 12-C , 13-H ) :   0.9729 B( 12-C , 14-H ) :   0.9746 B( 12-C , 15-H ) :   0.9730
B( 16-S , 17-C ) :   1.1582 B( 16-S , 20-C ) :   1.1640 B( 17-C , 18-C ) :   1.6074
B( 17-C , 20-C ) :   0.1059 B( 17-C , 33-H ) :   0.9702 B( 18-C , 19-C ) :   1.2447
B( 18-C , 21-H ) :   0.9809 B( 19-C , 20-C ) :   1.5529 B( 19-C , 22-C ) :   1.0559
B( 22-C , 23-H ) :   0.9294 B( 22-C , 24-H ) :   0.9183 B( 22-C , 25-C ) :   1.0532
B( 25-C , 26-H ) :   0.9497 B( 25-C , 27-H ) :   0.9607 B( 25-C , 28-C ) :   1.0949
B( 28-C , 29-H ) :   0.9714 B( 28-C , 30-H ) :   0.9664 B( 28-C , 31-H ) :   0.9717

Dispersion correction           -0.013742087
FINAL SINGLE POINT ENERGY     -1339.865853147374

DIPOLE MOMENT
-------------
                                X             Y             Z
Electronic contribution:    -19.18507      -5.32489     -16.24527
Nuclear contribution   :     19.68867       5.42700      16.76640
                        -----------------------------------------
Total Dipole Moment    :      0.50360       0.10211       0.52113
                        -----------------------------------------
Magnitude (a.u.)       :      0.73186
Magnitude (Debye)      :      1.86025

Rotational constants in cm-1:     0.016388     0.008478     0.006890
Rotational constants in MHz :   491.305304   254.162680   206.568428

                             ****ORCA TERMINATED NORMALLY****
TOTAL RUN TIME: 0 days 0 hours 0 minutes 21 seconds 127 msec
