                         Program Version 4.2.1 -  RELEASE  -
|  1> ! wB97X-D3 SP def2-SVP
|  2> %pal
|  3> nprocs 24
|  4> end
|  5>
|  6> * xyz 0 1
|  7> S 	 -107.418 	 55.3394 	 -70.0202
|  8> C 	 -107.782 	 53.8345 	 -70.8353
|  9> C 	 -108.622 	 54.0377 	 -71.9193
| 10> C 	 -108.988 	 55.3951 	 -72.0647
| 11> C 	 -108.455 	 56.2209 	 -71.1024
| 12> H 	 -109.61 	 55.8282 	 -72.8165
| 13> C 	 -109.098 	 52.9823 	 -72.8906
| 14> H 	 -108.851 	 51.9529 	 -72.6388
| 15> H 	 -108.686 	 53.2041 	 -73.8619
| 16> C 	 -110.659 	 52.876 	 -73.0801
| 17> H 	 -111.109 	 52.3745 	 -72.1748
| 18> H 	 -111.103 	 53.8645 	 -73.1755
| 19> C 	 -111.142 	 52.1068 	 -74.2723
| 20> H 	 -110.733 	 52.4711 	 -75.2633
| 21> H 	 -111.045 	 51.0564 	 -74.2388
| 22> H 	 -112.239 	 52.3077 	 -74.5158
| 23> S 	 -107.24 	 58.6436 	 -70.7685
| 24> C 	 -108.084 	 60.0688 	 -71.2527
| 25> C 	 -109.461 	 59.9295 	 -71.3586
| 26> C 	 -109.778 	 58.4799 	 -71.2893
| 27> C 	 -108.66 	 57.6459 	 -70.9729
| 28> H 	 -110.048 	 60.8458 	 -71.4671
| 29> C 	 -111.163 	 58.0517 	 -71.6656
| 30> H 	 -110.925 	 57.3387 	 -72.4337
| 31> H 	 -111.683 	 59.0377 	 -72.0207
| 32> C 	 -112.061 	 57.375 	 -70.6104
| 33> H 	 -112.208 	 57.9902 	 -69.7821
| 34> H 	 -111.612 	 56.4587 	 -70.2784
| 35> C 	 -113.479 	 57.1157 	 -71.1427
| 36> H 	 -113.555 	 56.1781 	 -71.7095
| 37> H 	 -113.818 	 57.6895 	 -72.0071
| 38> H 	 -114.18 	 57.1378 	 -70.3373
| 39> H 	 -107.528 	 52.8474 	 -70.4993
| 40> H 	 -107.594 	 61.0507 	 -71.1854
| 41> *
| 42>
| 43>                          ****END OF INPUT****

CARTESIAN COORDINATES (ANGSTROEM)
---------------------------------
  S    -107.418000   55.339400  -70.020200
  C    -107.782000   53.834500  -70.835300
  C    -108.622000   54.037700  -71.919300
  C    -108.988000   55.395100  -72.064700
  C    -108.455000   56.220900  -71.102400
  H    -109.610000   55.828200  -72.816500
  C    -109.098000   52.982300  -72.890600
  H    -108.851000   51.952900  -72.638800
  H    -108.686000   53.204100  -73.861900
  C    -110.659000   52.876000  -73.080100
  H    -111.109000   52.374500  -72.174800
  H    -111.103000   53.864500  -73.175500
  C    -111.142000   52.106800  -74.272300
  H    -110.733000   52.471100  -75.263300
  H    -111.045000   51.056400  -74.238800
  H    -112.239000   52.307700  -74.515800
  S    -107.240000   58.643600  -70.768500
  C    -108.084000   60.068800  -71.252700
  C    -109.461000   59.929500  -71.358600
  C    -109.778000   58.479900  -71.289300
  C    -108.660000   57.645900  -70.972900
  H    -110.048000   60.845800  -71.467100
  C    -111.163000   58.051700  -71.665600
  H    -110.925000   57.338700  -72.433700
  H    -111.683000   59.037700  -72.020700
  C    -112.061000   57.375000  -70.610400
  H    -112.208000   57.990200  -69.782100
  H    -111.612000   56.458700  -70.278400
  C    -113.479000   57.115700  -71.142700
  H    -113.555000   56.178100  -71.709500
  H    -113.818000   57.689500  -72.007100
  H    -114.180000   57.137800  -70.337300
  H    -107.528000   52.847400  -70.499300
  H    -107.594000   61.050700  -71.185400

 Total Charge           Charge          ....    0
 Multiplicity           Mult            ....    1
 Number of Electrons    NEL             ....  134
 Basis Dimension        Dim             ....  322

ORBITAL ENERGIES
----------------

  NO   OCC          E(Eh)            E(eV)
   0   2.0000     -88.968157     -2420.9466
   1   2.0000     -88.965001     -2420.8608
   2   2.0000     -10.329834      -281.0891
   3   2.0000     -10.328481      -281.0523
   4   2.0000     -10.318212      -280.7728
   5   2.0000     -10.314306      -280.6665
   6   2.0000     -10.313385      -280.6415
   7   2.0000     -10.302576      -280.3473
   8   2.0000     -10.302514      -280.3457
   9   2.0000     -10.296719      -280.1880
  10   2.0000     -10.294681      -280.1325
  11   2.0000     -10.291942      -280.0580
  12   2.0000     -10.290676      -280.0235
  13   2.0000     -10.283416      -279.8260
  14   2.0000     -10.279071      -279.7077
  15   2.0000     -10.273545      -279.5574
  16   2.0000      -8.083063      -219.9513
  17   2.0000      -8.080411      -219.8792
  18   2.0000      -6.041545      -164.3988
  19   2.0000      -6.038896      -164.3267
  20   2.0000      -6.037573      -164.2907
  21   2.0000      -6.034823      -164.2159
  22   2.0000      -6.033827      -164.1888
  23   2.0000      -6.031158      -164.1161
  24   2.0000      -1.008981       -27.4558
  25   2.0000      -0.983504       -26.7625
  26   2.0000      -0.910881       -24.7863
  27   2.0000      -0.908913       -24.7328
  28   2.0000      -0.872424       -23.7399
  29   2.0000      -0.855116       -23.2689
  30   2.0000      -0.848820       -23.0976
  31   2.0000      -0.816855       -22.2278
  32   2.0000      -0.783565       -21.3219
  33   2.0000      -0.768296       -20.9064
  34   2.0000      -0.713688       -19.4204
  35   2.0000      -0.697412       -18.9775
  36   2.0000      -0.691024       -18.8037
  37   2.0000      -0.663227       -18.0473
  38   2.0000      -0.641113       -17.4456
  39   2.0000      -0.627700       -17.0806
  40   2.0000      -0.590609       -16.0713
  41   2.0000      -0.570589       -15.5265
  42   2.0000      -0.568569       -15.4716
  43   2.0000      -0.562894       -15.3171
  44   2.0000      -0.535637       -14.5754
  45   2.0000      -0.521559       -14.1923
  46   2.0000      -0.516669       -14.0593
  47   2.0000      -0.507602       -13.8125
  48   2.0000      -0.505081       -13.7440
  49   2.0000      -0.499570       -13.5940
  50   2.0000      -0.494269       -13.4497
  51   2.0000      -0.484423       -13.1818
  52   2.0000      -0.473404       -12.8820
  53   2.0000      -0.464021       -12.6267
  54   2.0000      -0.459910       -12.5148
  55   2.0000      -0.455705       -12.4004
  56   2.0000      -0.442867       -12.0510
  57   2.0000      -0.439968       -11.9721
  58   2.0000      -0.430201       -11.7064
  59   2.0000      -0.424940       -11.5632
  60   2.0000      -0.417563       -11.3625
  61   2.0000      -0.413371       -11.2484
  62   2.0000      -0.409785       -11.1508
  63   2.0000      -0.354432        -9.6446
  64   2.0000      -0.334806        -9.1105
  65   2.0000      -0.324540        -8.8312
  66   2.0000      -0.285398        -7.7661
  67   0.0000       0.026118         0.7107
  68   0.0000       0.070837         1.9276
  69   0.0000       0.108302         2.9470
  70   0.0000       0.112935         3.0731
  71   0.0000       0.128017         3.4835

MULLIKEN ATOMIC CHARGES
-----------------------
   0 S :    0.110789
   1 C :   -0.108466
   2 C :   -0.058131
   3 C :    0.003719
   4 C :   -0.131363
   5 H :    0.004106
   6 C :    0.090208
   7 H :    0.017433
   8 H :    0.030542
   9 C :   -0.100035
  10 H :    0.040659
  11 H :    0.026512
  12 C :   -0.076870
  13 H :    0.026032
  14 H :    0.031886
  15 H :    0.036318
  16 S :    0.103006
  17 C :   -0.107641
  18 C :   -0.038465
  19 C :   -0.078181
  20 C :   -0.108184
  21 H :    0.037737
  22 C :    0.022279
  23 H :    0.020308
  24 H :    0.040573
  25 C :   -0.007112
  26 H :    0.013505
  27 H :    0.034844
  28 C :   -0.049463
  29 H :    0.016664
  30 H :    0.017578
  31 H :    0.036553
  32 H :    0.037404
  33 H :    0.065255
Sum of atomic charges:    0.0000000

LOEWDIN ATOMIC CHARGES
----------------------
   0 S :    0.408966
   1 C :   -0.196142
   2 C :   -0.059358
   3 C :   -0.065657
   4 C :   -0.190847
   5 H :    0.025661
   6 C :   -0.026890
   7 H :    0.029005
   8 H :    0.031171
   9 C :   -0.046608
  10 H :    0.031943
  11 H :    0.020013
  12 C :   -0.077396
  13 H :    0.027877
  14 H :    0.015762
  15 H :    0.036883
  16 S :    0.415590
  17 C :   -0.190990
  18 C :   -0.077893
  19 C :   -0.044720
  20 C :   -0.214545
  21 H :    0.040642
  22 C :   -0.039460
  23 H :    0.027721
  24 H :    0.043278
  25 C :   -0.029054
  26 H :    0.017301
  27 H :    0.026622
  28 C :   -0.071981
  29 H :    0.026955
  30 H :    0.026239
  31 H :    0.023754
  32 H :    0.026230
  33 H :    0.029931

  Mayer bond orders larger than 0.100000
B(  0-S ,  1-C ) :   1.1309 B(  0-S ,  4-C ) :   1.1533 B(  1-C ,  2-C ) :   1.6161
B(  1-C , 32-H ) :   0.9691 B(  2-C ,  3-C ) :   1.2353 B(  2-C ,  6-C ) :   1.0337
B(  3-C ,  4-C ) :   1.5768 B(  3-C ,  5-H ) :   0.9932 B(  4-C , 20-C ) :   1.0430
B(  6-C ,  7-H ) :   0.9461 B(  6-C ,  8-H ) :   0.9387 B(  6-C ,  9-C ) :   1.0494
B(  9-C , 10-H ) :   0.9549 B(  9-C , 11-H ) :   0.9577 B(  9-C , 12-C ) :   1.0909
B( 12-C , 13-H ) :   0.9689 B( 12-C , 14-H ) :   0.9776 B( 12-C , 15-H ) :   0.9708
B( 16-S , 17-C ) :   1.1809 B( 16-S , 20-C ) :   1.1252 B( 17-C , 18-C ) :   1.6163
B( 17-C , 33-H ) :   0.9573 B( 18-C , 19-C ) :   1.2253 B( 18-C , 21-H ) :   0.9880
B( 19-C , 20-C ) :   1.5748 B( 19-C , 22-C ) :   1.0377 B( 22-C , 23-H ) :   0.9279
B( 22-C , 24-H ) :   0.9361 B( 22-C , 25-C ) :   1.0821 B( 25-C , 26-H ) :   0.9594
B( 25-C , 27-H ) :   0.9515 B( 25-C , 28-C ) :   1.0734 B( 28-C , 29-H ) :   0.9701
B( 28-C , 30-H ) :   0.9713 B( 28-C , 31-H ) :   0.9796

Dispersion correction           -0.014048679
FINAL SINGLE POINT ENERGY     -1339.862814328131

DIPOLE MOMENT
-------------
                                X             Y             Z
Electronic contribution:     27.52861      13.25899      13.34765
Nuclear contribution   :    -28.12298     -13.32309     -13.70709
                        -----------------------------------------
Total Dipole Moment    :     -0.59437      -0.06411      -0.35944
                        -----------------------------------------
Magnitude (a.u.)       :      0.69755
Magnitude (Debye)      :      1.77304

Rotational constants in cm-1:     0.016730     0.009459     0.006829
Rotational constants in MHz :   501.547714   283.570830   204.729722

                             ****ORCA TERMINATED NORMALLY****
TOTAL RUN TIME: 0 days 0 hours 0 minutes 21 seconds 602 msec
