                         Program Version 4.2.1 -  RELEASE  -
|  1> ! wB97X-D3 SP def2-SVP
|  2> %pal
|  3> nprocs 24
|  4> end
|  5>
|  6> * xyz 0 1
|  7> S 	 -71.2706 	 11.2684 	 -75.7832
|  8> C 	 -70.5531 	 12.623 	 -76.6252
|  9> C 	 -70.1403 	 13.6701 	 -75.7482
| 10> C 	 -70.5757 	 13.3915 	 -74.4071
| 11> C 	 -71.1293 	 12.1081 	 -74.2062
| 12> H 	 -70.4808 	 14.0039 	 -73.5522
| 13> C 	 -69.5861 	 15.0418 	 -76.1003
| 14> H 	 -69.4361 	 15.578 	 -75.1574
| 15> H 	 -70.2671 	 15.5041 	 -76.751
| 16> C 	 -68.1683 	 15.089 	 -76.7277
| 17> H 	 -68.2039 	 14.9192 	 -77.7692
| 18> H 	 -67.8454 	 16.167 	 -76.5739
| 19> C 	 -67.0979 	 14.2065 	 -76.1673
| 20> H 	 -67.3148 	 13.084 	 -76.43
| 21> H 	 -66.0861 	 14.5559 	 -76.4916
| 22> H 	 -67.1553 	 14.3481 	 -75.0988
| 23> S 	 -71.0032 	 9.68972 	 -72.9506
| 24> C 	 -71.349 	 9.57191 	 -71.2482
| 25> C 	 -71.8734 	 10.7481 	 -70.6816
| 26> C 	 -71.9042 	 11.7784 	 -71.6823
| 27> C 	 -71.3188 	 11.4165 	 -72.9143
| 28> H 	 -72.2057 	 10.9054 	 -69.6642
| 29> C 	 -72.6038 	 13.0821 	 -71.3528
| 30> H 	 -73.6477 	 12.9669 	 -71.3443
| 31> H 	 -72.3133 	 13.8118 	 -72.1128
| 32> C 	 -72.1489 	 13.6486 	 -69.9828
| 33> H 	 -71.1221 	 13.9453 	 -70.1303
| 34> H 	 -72.1918 	 12.9049 	 -69.1692
| 35> C 	 -73.1252 	 14.6613 	 -69.4643
| 36> H 	 -73.4882 	 15.364 	 -70.2772
| 37> H 	 -72.6501 	 15.2767 	 -68.6404
| 38> H 	 -74.0411 	 14.3408 	 -69.1062
| 39> H 	 -70.2044 	 12.5029 	 -77.6244
| 40> H 	 -71.4368 	 8.65014 	 -70.6866
| 41> *
| 42>
| 43>                          ****END OF INPUT****

CARTESIAN COORDINATES (ANGSTROEM)
---------------------------------
  S    -71.270600   11.268400  -75.783200
  C    -70.553100   12.623000  -76.625200
  C    -70.140300   13.670100  -75.748200
  C    -70.575700   13.391500  -74.407100
  C    -71.129300   12.108100  -74.206200
  H    -70.480800   14.003900  -73.552200
  C    -69.586100   15.041800  -76.100300
  H    -69.436100   15.578000  -75.157400
  H    -70.267100   15.504100  -76.751000
  C    -68.168300   15.089000  -76.727700
  H    -68.203900   14.919200  -77.769200
  H    -67.845400   16.167000  -76.573900
  C    -67.097900   14.206500  -76.167300
  H    -67.314800   13.084000  -76.430000
  H    -66.086100   14.555900  -76.491600
  H    -67.155300   14.348100  -75.098800
  S    -71.003200    9.689720  -72.950600
  C    -71.349000    9.571910  -71.248200
  C    -71.873400   10.748100  -70.681600
  C    -71.904200   11.778400  -71.682300
  C    -71.318800   11.416500  -72.914300
  H    -72.205700   10.905400  -69.664200
  C    -72.603800   13.082100  -71.352800
  H    -73.647700   12.966900  -71.344300
  H    -72.313300   13.811800  -72.112800
  C    -72.148900   13.648600  -69.982800
  H    -71.122100   13.945300  -70.130300
  H    -72.191800   12.904900  -69.169200
  C    -73.125200   14.661300  -69.464300
  H    -73.488200   15.364000  -70.277200
  H    -72.650100   15.276700  -68.640400
  H    -74.041100   14.340800  -69.106200
  H    -70.204400   12.502900  -77.624400
  H    -71.436800    8.650140  -70.686600

 Total Charge           Charge          ....    0
 Multiplicity           Mult            ....    1
 Number of Electrons    NEL             ....  134
 Basis Dimension        Dim             ....  322

ORBITAL ENERGIES
----------------

  NO   OCC          E(Eh)            E(eV)
   0   2.0000     -88.970505     -2421.0105
   1   2.0000     -88.969477     -2420.9826
   2   2.0000     -10.337162      -281.2885
   3   2.0000     -10.331914      -281.1457
   4   2.0000     -10.319906      -280.8189
   5   2.0000     -10.317112      -280.7429
   6   2.0000     -10.309163      -280.5266
   7   2.0000     -10.305626      -280.4303
   8   2.0000     -10.297516      -280.2097
   9   2.0000     -10.295384      -280.1516
  10   2.0000     -10.292333      -280.0686
  11   2.0000     -10.288427      -279.9623
  12   2.0000     -10.287393      -279.9342
  13   2.0000     -10.283894      -279.8390
  14   2.0000     -10.282747      -279.8078
  15   2.0000     -10.279812      -279.7279
  16   2.0000      -8.084289      -219.9847
  17   2.0000      -8.084102      -219.9796
  18   2.0000      -6.042875      -164.4350
  19   2.0000      -6.042586      -164.4271
  20   2.0000      -6.038835      -164.3250
  21   2.0000      -6.038757      -164.3229
  22   2.0000      -6.035131      -164.2243
  23   2.0000      -6.034755      -164.2140
  24   2.0000      -1.000524       -27.2256
  25   2.0000      -0.977025       -26.5862
  26   2.0000      -0.915796       -24.9201
  27   2.0000      -0.911276       -24.7971
  28   2.0000      -0.864014       -23.5110
  29   2.0000      -0.854798       -23.2602
  30   2.0000      -0.847475       -23.0610
  31   2.0000      -0.811160       -22.0728
  32   2.0000      -0.782755       -21.2999
  33   2.0000      -0.770133       -20.9564
  34   2.0000      -0.706331       -19.2203
  35   2.0000      -0.698111       -18.9966
  36   2.0000      -0.689614       -18.7653
  37   2.0000      -0.663608       -18.0577
  38   2.0000      -0.642077       -17.4718
  39   2.0000      -0.611736       -16.6462
  40   2.0000      -0.595328       -16.1997
  41   2.0000      -0.578035       -15.7291
  42   2.0000      -0.571146       -15.5417
  43   2.0000      -0.558046       -15.1852
  44   2.0000      -0.537729       -14.6324
  45   2.0000      -0.524616       -14.2755
  46   2.0000      -0.514397       -13.9974
  47   2.0000      -0.512000       -13.9322
  48   2.0000      -0.506646       -13.7865
  49   2.0000      -0.498082       -13.5535
  50   2.0000      -0.488751       -13.2996
  51   2.0000      -0.477641       -12.9973
  52   2.0000      -0.471789       -12.8380
  53   2.0000      -0.465433       -12.6651
  54   2.0000      -0.464326       -12.6349
  55   2.0000      -0.451381       -12.2827
  56   2.0000      -0.442907       -12.0521
  57   2.0000      -0.441984       -12.0270
  58   2.0000      -0.434024       -11.8104
  59   2.0000      -0.421135       -11.4597
  60   2.0000      -0.415885       -11.3168
  61   2.0000      -0.411874       -11.2077
  62   2.0000      -0.409725       -11.1492
  63   2.0000      -0.351295        -9.5592
  64   2.0000      -0.333394        -9.0721
  65   2.0000      -0.328491        -8.9387
  66   2.0000      -0.280813        -7.6413
  67   0.0000       0.017721         0.4822
  68   0.0000       0.066061         1.7976
  69   0.0000       0.099078         2.6960
  70   0.0000       0.118012         3.2113
  71   0.0000       0.124701         3.3933

MULLIKEN ATOMIC CHARGES
-----------------------
   0 S :    0.100715
   1 C :   -0.112277
   2 C :   -0.101657
   3 C :    0.026368
   4 C :   -0.141433
   5 H :   -0.001282
   6 C :    0.099215
   7 H :    0.023255
   8 H :    0.039959
   9 C :   -0.117333
  10 H :    0.020363
  11 H :    0.033741
  12 C :   -0.058584
  13 H :    0.058640
  14 H :    0.045094
  15 H :    0.020439
  16 S :    0.106024
  17 C :   -0.075117
  18 C :   -0.038443
  19 C :   -0.076063
  20 C :   -0.139398
  21 H :    0.025289
  22 C :    0.101296
  23 H :    0.027516
  24 H :    0.019032
  25 C :   -0.094687
  26 H :    0.036082
  27 H :    0.031320
  28 C :   -0.049711
  29 H :    0.023605
  30 H :    0.042367
  31 H :    0.017195
  32 H :    0.050905
  33 H :    0.057563
Sum of atomic charges:    0.0000000

LOEWDIN ATOMIC CHARGES
----------------------
   0 S :    0.392968
   1 C :   -0.202379
   2 C :   -0.056066
   3 C :   -0.061344
   4 C :   -0.181294
   5 H :    0.020785
   6 C :   -0.023774
   7 H :    0.033084
   8 H :    0.032142
   9 C :   -0.048935
  10 H :    0.011812
  11 H :    0.030725
  12 C :   -0.073258
  13 H :    0.039756
  14 H :    0.032653
  15 H :    0.020192
  16 S :    0.413886
  17 C :   -0.187046
  18 C :   -0.067531
  19 C :   -0.055229
  20 C :   -0.200369
  21 H :    0.031763
  22 C :   -0.023364
  23 H :    0.026068
  24 H :    0.030166
  25 C :   -0.040191
  26 H :    0.025838
  27 H :    0.024102
  28 C :   -0.070111
  29 H :    0.026959
  30 H :    0.035022
  31 H :    0.013697
  32 H :    0.020751
  33 H :    0.028523

  Mayer bond orders larger than 0.100000
B(  0-S ,  1-C ) :   1.1477 B(  0-S ,  4-C ) :   1.1458 B(  1-C ,  2-C ) :   1.5667
B(  1-C ,  4-C ) :   0.1023 B(  1-C , 32-H ) :   0.9695 B(  2-C ,  3-C ) :   1.2691
B(  2-C ,  6-C ) :   1.0210 B(  3-C ,  4-C ) :   1.5527 B(  3-C ,  5-H ) :   0.9887
B(  4-C , 20-C ) :   1.0706 B(  6-C ,  7-H ) :   0.9412 B(  6-C ,  8-H ) :   0.9433
B(  6-C ,  9-C ) :   1.0661 B(  9-C , 10-H ) :   0.9558 B(  9-C , 11-H ) :   0.9599
B(  9-C , 12-C ) :   1.0903 B( 12-C , 13-H ) :   0.9637 B( 12-C , 14-H ) :   0.9709
B( 12-C , 15-H ) :   0.9747 B( 16-S , 17-C ) :   1.1708 B( 16-S , 20-C ) :   1.1299
B( 17-C , 18-C ) :   1.5831 B( 17-C , 33-H ) :   0.9632 B( 18-C , 19-C ) :   1.2656
B( 18-C , 21-H ) :   0.9866 B( 19-C , 20-C ) :   1.5663 B( 19-C , 22-C ) :   1.0396
B( 22-C , 23-H ) :   0.9360 B( 22-C , 24-H ) :   0.9289 B( 22-C , 25-C ) :   1.0594
B( 25-C , 26-H ) :   0.9609 B( 25-C , 27-H ) :   0.9559 B( 25-C , 28-C ) :   1.0725
B( 28-C , 29-H ) :   0.9696 B( 28-C , 30-H ) :   0.9719 B( 28-C , 31-H ) :   0.9744

Dispersion correction           -0.013628462
FINAL SINGLE POINT ENERGY     -1339.858220064610

DIPOLE MOMENT
-------------
                                X             Y             Z
Electronic contribution:     -5.54883     -24.18376      -7.70083
Nuclear contribution   :      5.52412      24.69422       8.00872
                        -----------------------------------------
Total Dipole Moment    :     -0.02471       0.51046       0.30789
                        -----------------------------------------
Magnitude (a.u.)       :      0.59664
Magnitude (Debye)      :      1.51654

Rotational constants in cm-1:     0.018118     0.008068     0.006341
Rotational constants in MHz :   543.164202   241.868625   190.108628

                             ****ORCA TERMINATED NORMALLY****
TOTAL RUN TIME: 0 days 0 hours 0 minutes 21 seconds 147 msec
