                         Program Version 4.2.1 -  RELEASE  -
|  1> ! wB97X-D3 SP def2-SVP
|  2> %pal
|  3> nprocs 24
|  4> end
|  5>
|  6> * xyz 0 1
|  7> S 	 -119.78 	 60.3575 	 -34.2934
|  8> C 	 -120.179 	 60.3772 	 -32.5823
|  9> C 	 -119.205 	 61.0759 	 -31.9117
| 10> C 	 -118.349 	 61.7326 	 -32.7965
| 11> C 	 -118.705 	 61.6863 	 -34.1044
| 12> H 	 -117.542 	 62.4209 	 -32.5359
| 13> C 	 -119.29 	 61.569 	 -30.4686
| 14> H 	 -118.282 	 61.4314 	 -30.1132
| 15> H 	 -119.922 	 60.8305 	 -29.8859
| 16> C 	 -119.707 	 63.0669 	 -30.2642
| 17> H 	 -119.368 	 63.3938 	 -29.2989
| 18> H 	 -119.132 	 63.7432 	 -30.911
| 19> C 	 -121.206 	 63.3843 	 -30.3767
| 20> H 	 -121.597 	 63.2038 	 -31.4854
| 21> H 	 -121.874 	 62.7694 	 -29.6971
| 22> H 	 -121.524 	 64.3741 	 -30.1149
| 23> S 	 -117.408 	 61.8553 	 -36.442
| 24> C 	 -117.658 	 63.3567 	 -37.3837
| 25> C 	 -118.216 	 64.3382 	 -36.6309
| 26> C 	 -118.677 	 63.8789 	 -35.3348
| 27> C 	 -118.33 	 62.5638 	 -35.1648
| 28> H 	 -118.465 	 65.3176 	 -37.0049
| 29> C 	 -119.67 	 64.695 	 -34.5658
| 30> H 	 -119.866 	 64.3502 	 -33.4966
| 31> H 	 -120.616 	 64.5486 	 -35.1244
| 32> C 	 -119.362 	 66.2539 	 -34.5318
| 33> H 	 -120.05 	 66.669 	 -33.7764
| 34> H 	 -119.627 	 66.7112 	 -35.4997
| 35> C 	 -118.001 	 66.5983 	 -34.021
| 36> H 	 -118.004 	 67.6308 	 -33.5376
| 37> H 	 -117.197 	 66.5383 	 -34.8199
| 38> H 	 -117.757 	 65.8995 	 -33.2669
| 39> H 	 -121.036 	 59.9481 	 -32.0949
| 40> H 	 -117.347 	 63.4796 	 -38.417
| 41> *
| 42>
| 43>                          ****END OF INPUT****

CARTESIAN COORDINATES (ANGSTROEM)
---------------------------------
  S    -119.780000   60.357500  -34.293400
  C    -120.179000   60.377200  -32.582300
  C    -119.205000   61.075900  -31.911700
  C    -118.349000   61.732600  -32.796500
  C    -118.705000   61.686300  -34.104400
  H    -117.542000   62.420900  -32.535900
  C    -119.290000   61.569000  -30.468600
  H    -118.282000   61.431400  -30.113200
  H    -119.922000   60.830500  -29.885900
  C    -119.707000   63.066900  -30.264200
  H    -119.368000   63.393800  -29.298900
  H    -119.132000   63.743200  -30.911000
  C    -121.206000   63.384300  -30.376700
  H    -121.597000   63.203800  -31.485400
  H    -121.874000   62.769400  -29.697100
  H    -121.524000   64.374100  -30.114900
  S    -117.408000   61.855300  -36.442000
  C    -117.658000   63.356700  -37.383700
  C    -118.216000   64.338200  -36.630900
  C    -118.677000   63.878900  -35.334800
  C    -118.330000   62.563800  -35.164800
  H    -118.465000   65.317600  -37.004900
  C    -119.670000   64.695000  -34.565800
  H    -119.866000   64.350200  -33.496600
  H    -120.616000   64.548600  -35.124400
  C    -119.362000   66.253900  -34.531800
  H    -120.050000   66.669000  -33.776400
  H    -119.627000   66.711200  -35.499700
  C    -118.001000   66.598300  -34.021000
  H    -118.004000   67.630800  -33.537600
  H    -117.197000   66.538300  -34.819900
  H    -117.757000   65.899500  -33.266900
  H    -121.036000   59.948100  -32.094900
  H    -117.347000   63.479600  -38.417000

 Total Charge           Charge          ....    0
 Multiplicity           Mult            ....    1
 Number of Electrons    NEL             ....  134
 Basis Dimension        Dim             ....  322

ORBITAL ENERGIES
----------------

  NO   OCC          E(Eh)            E(eV)
   0   2.0000     -88.964631     -2420.8507
   1   2.0000     -88.958060     -2420.6719
   2   2.0000     -10.319303      -280.8025
   3   2.0000     -10.319243      -280.8009
   4   2.0000     -10.316567      -280.7281
   5   2.0000     -10.310043      -280.5505
   6   2.0000     -10.303294      -280.3669
   7   2.0000     -10.301491      -280.3178
   8   2.0000     -10.300110      -280.2803
   9   2.0000     -10.295046      -280.1424
  10   2.0000     -10.294320      -280.1227
  11   2.0000     -10.293777      -280.1079
  12   2.0000     -10.292060      -280.0612
  13   2.0000     -10.291814      -280.0545
  14   2.0000     -10.284549      -279.8568
  15   2.0000     -10.281908      -279.7849
  16   2.0000      -8.079541      -219.8555
  17   2.0000      -8.073780      -219.6987
  18   2.0000      -6.038115      -164.3055
  19   2.0000      -6.034223      -164.1995
  20   2.0000      -6.032215      -164.1449
  21   2.0000      -6.030031      -164.0855
  22   2.0000      -6.028330      -164.0392
  23   2.0000      -6.024341      -163.9307
  24   2.0000      -1.014964       -27.6186
  25   2.0000      -0.988616       -26.9016
  26   2.0000      -0.910328       -24.7713
  27   2.0000      -0.905933       -24.6517
  28   2.0000      -0.871919       -23.7261
  29   2.0000      -0.851860       -23.1803
  30   2.0000      -0.844394       -22.9771
  31   2.0000      -0.815753       -22.1978
  32   2.0000      -0.781714       -21.2715
  33   2.0000      -0.771844       -21.0029
  34   2.0000      -0.710230       -19.3263
  35   2.0000      -0.699447       -19.0329
  36   2.0000      -0.692028       -18.8310
  37   2.0000      -0.662181       -18.0188
  38   2.0000      -0.640478       -17.4283
  39   2.0000      -0.617654       -16.8072
  40   2.0000      -0.597417       -16.2565
  41   2.0000      -0.564720       -15.3668
  42   2.0000      -0.556505       -15.1433
  43   2.0000      -0.549260       -14.9461
  44   2.0000      -0.540402       -14.7051
  45   2.0000      -0.532678       -14.4949
  46   2.0000      -0.519216       -14.1286
  47   2.0000      -0.514233       -13.9930
  48   2.0000      -0.502923       -13.6852
  49   2.0000      -0.497098       -13.5267
  50   2.0000      -0.485886       -13.2216
  51   2.0000      -0.478327       -13.0159
  52   2.0000      -0.473322       -12.8797
  53   2.0000      -0.468836       -12.7577
  54   2.0000      -0.456851       -12.4316
  55   2.0000      -0.444447       -12.0940
  56   2.0000      -0.442178       -12.0323
  57   2.0000      -0.440764       -11.9938
  58   2.0000      -0.435068       -11.8388
  59   2.0000      -0.427994       -11.6463
  60   2.0000      -0.419728       -11.4214
  61   2.0000      -0.416893       -11.3442
  62   2.0000      -0.406833       -11.0705
  63   2.0000      -0.338054        -9.1989
  64   2.0000      -0.328127        -8.9288
  65   2.0000      -0.325464        -8.8563
  66   2.0000      -0.297588        -8.0978
  67   0.0000       0.035913         0.9773
  68   0.0000       0.058718         1.5978
  69   0.0000       0.106432         2.8962
  70   0.0000       0.116154         3.1607
  71   0.0000       0.124756         3.3948

MULLIKEN ATOMIC CHARGES
-----------------------
   0 S :    0.110546
   1 C :   -0.123052
   2 C :   -0.057575
   3 C :    0.030444
   4 C :   -0.181278
   5 H :    0.011390
   6 C :    0.042839
   7 H :    0.027235
   8 H :    0.032301
   9 C :   -0.024992
  10 H :    0.018951
  11 H :    0.023690
  12 C :   -0.097706
  13 H :    0.052307
  14 H :    0.032488
  15 H :    0.030562
  16 S :    0.106151
  17 C :   -0.087204
  18 C :   -0.017367
  19 C :   -0.014968
  20 C :   -0.177783
  21 H :    0.015037
  22 C :    0.020386
  23 H :    0.048031
  24 H :    0.054854
  25 C :   -0.103830
  26 H :    0.032460
  27 H :    0.036265
  28 C :   -0.050145
  29 H :    0.046119
  30 H :    0.045288
  31 H :    0.020859
  32 H :    0.040462
  33 H :    0.057232
Sum of atomic charges:   -0.0000000

LOEWDIN ATOMIC CHARGES
----------------------
   0 S :    0.401292
   1 C :   -0.187308
   2 C :   -0.076482
   3 C :   -0.062811
   4 C :   -0.203113
   5 H :    0.030831
   6 C :   -0.027353
   7 H :    0.031511
   8 H :    0.034292
   9 C :   -0.040584
  10 H :    0.022942
  11 H :    0.024601
  12 C :   -0.080663
  13 H :    0.036653
  14 H :    0.028428
  15 H :    0.020852
  16 S :    0.391141
  17 C :   -0.165481
  18 C :   -0.063623
  19 C :   -0.056594
  20 C :   -0.206397
  21 H :    0.029637
  22 C :   -0.036370
  23 H :    0.037478
  24 H :    0.043173
  25 C :   -0.049071
  26 H :    0.030229
  27 H :    0.020937
  28 C :   -0.072113
  29 H :    0.035743
  30 H :    0.031923
  31 H :    0.019563
  32 H :    0.027207
  33 H :    0.029531

  Mayer bond orders larger than 0.100000
B(  0-S ,  1-C ) :   1.1367 B(  0-S ,  4-C ) :   1.1336 B(  1-C ,  2-C ) :   1.6074
B(  1-C ,  4-C ) :   0.1011 B(  1-C , 32-H ) :   0.9764 B(  2-C ,  3-C ) :   1.2061
B(  2-C ,  6-C ) :   1.0342 B(  3-C ,  4-C ) :   1.6068 B(  3-C ,  5-H ) :   1.0021
B(  4-C , 20-C ) :   1.0228 B(  6-C ,  7-H ) :   0.9335 B(  6-C ,  8-H ) :   0.9481
B(  6-C ,  9-C ) :   1.0608 B(  9-C , 10-H ) :   0.9508 B(  9-C , 11-H ) :   0.9512
B(  9-C , 12-C ) :   1.0719 B( 12-C , 13-H ) :   0.9734 B( 12-C , 14-H ) :   0.9734
B( 12-C , 15-H ) :   0.9744 B( 16-S , 17-C ) :   1.1198 B( 16-S , 20-C ) :   1.1392
B( 17-C , 18-C ) :   1.6623 B( 17-C , 33-H ) :   0.9669 B( 18-C , 19-C ) :   1.1916
B( 18-C , 21-H ) :   0.9853 B( 19-C , 20-C ) :   1.6485 B( 19-C , 22-C ) :   1.0461
B( 22-C , 23-H ) :   0.9337 B( 22-C , 24-H ) :   0.9354 B( 22-C , 25-C ) :   1.0719
B( 25-C , 26-H ) :   0.9561 B( 25-C , 27-H ) :   0.9516 B( 25-C , 28-C ) :   1.0803
B( 28-C , 29-H ) :   0.9747 B( 28-C , 30-H ) :   0.9680 B( 28-C , 31-H ) :   0.9721

Dispersion correction           -0.016050408
FINAL SINGLE POINT ENERGY     -1339.860719039832

DIPOLE MOMENT
-------------
                                X             Y             Z
Electronic contribution:      7.34391     -22.20739     -19.05402
Nuclear contribution   :     -7.59738      22.95389      19.44937
                        -----------------------------------------
Total Dipole Moment    :     -0.25348       0.74650       0.39534
                        -----------------------------------------
Magnitude (a.u.)       :      0.88193
Magnitude (Debye)      :      2.24170

Rotational constants in cm-1:     0.017552     0.011080     0.007597
Rotational constants in MHz :   526.200356   332.155178   227.751311

                             ****ORCA TERMINATED NORMALLY****
TOTAL RUN TIME: 0 days 0 hours 0 minutes 23 seconds 425 msec
