                         Program Version 4.2.1 -  RELEASE  -
|  1> ! wB97X-D3 SP def2-SVP
|  2> %pal
|  3> nprocs 24
|  4> end
|  5>
|  6> * xyz 0 1
|  7> S 	 -129.115 	 63.9295 	 -36.6337
|  8> C 	 -128.565 	 63.0111 	 -37.9954
|  9> C 	 -127.4 	 63.5867 	 -38.5187
| 10> C 	 -126.944 	 64.7872 	 -37.8478
| 11> C 	 -127.813 	 65.1973 	 -36.8498
| 12> H 	 -126.022 	 65.2689 	 -38.0041
| 13> C 	 -126.489 	 62.7207 	 -39.4161
| 14> H 	 -126.63 	 61.6709 	 -39.1408
| 15> H 	 -125.429 	 62.8454 	 -39.2423
| 16> C 	 -126.75 	 62.8306 	 -40.9527
| 17> H 	 -125.905 	 62.4324 	 -41.4244
| 18> H 	 -127.557 	 62.0827 	 -41.1516
| 19> C 	 -127.162 	 64.1162 	 -41.5065
| 20> H 	 -127.198 	 64.1048 	 -42.6084
| 21> H 	 -128.102 	 64.4387 	 -41.0497
| 22> H 	 -126.468 	 64.9418 	 -41.2574
| 23> S 	 -128.437 	 66.199 	 -34.2311
| 24> C 	 -127.891 	 67.7668 	 -33.6889
| 25> C 	 -127.076 	 68.2705 	 -34.6636
| 26> C 	 -126.891 	 67.4462 	 -35.8305
| 27> C 	 -127.661 	 66.2646 	 -35.8322
| 28> H 	 -126.736 	 69.3406 	 -34.5564
| 29> C 	 -125.999 	 68.0221 	 -36.936
| 30> H 	 -126.625 	 67.7475 	 -37.7934
| 31> H 	 -125.039 	 67.53 	 -36.9765
| 32> C 	 -125.721 	 69.511 	 -37.1033
| 33> H 	 -125.15 	 69.6659 	 -36.1874
| 34> H 	 -126.668 	 70.0886 	 -36.9542
| 35> C 	 -124.855 	 69.8257 	 -38.339
| 36> H 	 -124.324 	 70.782 	 -38.3824
| 37> H 	 -125.539 	 69.702 	 -39.2071
| 38> H 	 -124.079 	 69.0982 	 -38.4446
| 39> H 	 -128.771 	 61.9798 	 -38.1192
| 40> H 	 -128.185 	 68.3156 	 -32.7633
| 41> *
| 42>
| 43>                          ****END OF INPUT****

CARTESIAN COORDINATES (ANGSTROEM)
---------------------------------
  S    -129.115000   63.929500  -36.633700
  C    -128.565000   63.011100  -37.995400
  C    -127.400000   63.586700  -38.518700
  C    -126.944000   64.787200  -37.847800
  C    -127.813000   65.197300  -36.849800
  H    -126.022000   65.268900  -38.004100
  C    -126.489000   62.720700  -39.416100
  H    -126.630000   61.670900  -39.140800
  H    -125.429000   62.845400  -39.242300
  C    -126.750000   62.830600  -40.952700
  H    -125.905000   62.432400  -41.424400
  H    -127.557000   62.082700  -41.151600
  C    -127.162000   64.116200  -41.506500
  H    -127.198000   64.104800  -42.608400
  H    -128.102000   64.438700  -41.049700
  H    -126.468000   64.941800  -41.257400
  S    -128.437000   66.199000  -34.231100
  C    -127.891000   67.766800  -33.688900
  C    -127.076000   68.270500  -34.663600
  C    -126.891000   67.446200  -35.830500
  C    -127.661000   66.264600  -35.832200
  H    -126.736000   69.340600  -34.556400
  C    -125.999000   68.022100  -36.936000
  H    -126.625000   67.747500  -37.793400
  H    -125.039000   67.530000  -36.976500
  C    -125.721000   69.511000  -37.103300
  H    -125.150000   69.665900  -36.187400
  H    -126.668000   70.088600  -36.954200
  C    -124.855000   69.825700  -38.339000
  H    -124.324000   70.782000  -38.382400
  H    -125.539000   69.702000  -39.207100
  H    -124.079000   69.098200  -38.444600
  H    -128.771000   61.979800  -38.119200
  H    -128.185000   68.315600  -32.763300

 Total Charge           Charge          ....    0
 Multiplicity           Mult            ....    1
 Number of Electrons    NEL             ....  134
 Basis Dimension        Dim             ....  322

ORBITAL ENERGIES
----------------

  NO   OCC          E(Eh)            E(eV)
   0   2.0000     -88.968078     -2420.9445
   1   2.0000     -88.966314     -2420.8965
   2   2.0000     -10.345935      -281.5272
   3   2.0000     -10.340816      -281.3879
   4   2.0000     -10.323203      -280.9086
   5   2.0000     -10.315687      -280.7041
   6   2.0000     -10.311777      -280.5977
   7   2.0000     -10.309325      -280.5310
   8   2.0000     -10.302299      -280.3398
   9   2.0000     -10.296595      -280.1846
  10   2.0000     -10.292796      -280.0812
  11   2.0000     -10.292717      -280.0791
  12   2.0000     -10.291983      -280.0591
  13   2.0000     -10.286249      -279.9031
  14   2.0000     -10.277838      -279.6742
  15   2.0000     -10.272410      -279.5265
  16   2.0000      -8.081867      -219.9188
  17   2.0000      -8.080494      -219.8814
  18   2.0000      -6.040585      -164.3727
  19   2.0000      -6.039251      -164.3364
  20   2.0000      -6.036486      -164.2611
  21   2.0000      -6.034918      -164.2185
  22   2.0000      -6.032467      -164.1518
  23   2.0000      -6.031145      -164.1158
  24   2.0000      -1.001537       -27.2532
  25   2.0000      -0.981884       -26.7184
  26   2.0000      -0.913304       -24.8523
  27   2.0000      -0.909577       -24.7509
  28   2.0000      -0.872585       -23.7442
  29   2.0000      -0.850915       -23.1546
  30   2.0000      -0.843348       -22.9487
  31   2.0000      -0.820655       -22.3312
  32   2.0000      -0.782092       -21.2818
  33   2.0000      -0.773051       -21.0358
  34   2.0000      -0.710208       -19.3257
  35   2.0000      -0.701415       -19.0865
  36   2.0000      -0.693019       -18.8580
  37   2.0000      -0.652447       -17.7540
  38   2.0000      -0.639293       -17.3961
  39   2.0000      -0.619120       -16.8471
  40   2.0000      -0.597000       -16.2452
  41   2.0000      -0.577541       -15.7157
  42   2.0000      -0.574476       -15.6323
  43   2.0000      -0.549035       -14.9400
  44   2.0000      -0.545012       -14.8305
  45   2.0000      -0.525667       -14.3041
  46   2.0000      -0.515036       -14.0148
  47   2.0000      -0.513382       -13.9698
  48   2.0000      -0.506430       -13.7806
  49   2.0000      -0.503901       -13.7118
  50   2.0000      -0.490952       -13.3595
  51   2.0000      -0.481027       -13.0894
  52   2.0000      -0.476704       -12.9718
  53   2.0000      -0.465232       -12.6596
  54   2.0000      -0.463826       -12.6213
  55   2.0000      -0.451195       -12.2776
  56   2.0000      -0.444280       -12.0895
  57   2.0000      -0.439802       -11.9676
  58   2.0000      -0.434761       -11.8304
  59   2.0000      -0.418649       -11.3920
  60   2.0000      -0.412301       -11.2193
  61   2.0000      -0.402366       -10.9489
  62   2.0000      -0.400505       -10.8983
  63   2.0000      -0.364946        -9.9307
  64   2.0000      -0.333490        -9.0747
  65   2.0000      -0.326974        -8.8974
  66   2.0000      -0.286630        -7.7996
  67   0.0000       0.011097         0.3020
  68   0.0000       0.077605         2.1117
  69   0.0000       0.099252         2.7008
  70   0.0000       0.116374         3.1667
  71   0.0000       0.132329         3.6009

MULLIKEN ATOMIC CHARGES
-----------------------
   0 S :    0.087924
   1 C :   -0.080342
   2 C :   -0.109788
   3 C :    0.033372
   4 C :   -0.128567
   5 H :    0.003829
   6 C :    0.032048
   7 H :    0.024268
   8 H :    0.022603
   9 C :   -0.061149
  10 H :    0.011000
  11 H :    0.023115
  12 C :   -0.032565
  13 H :    0.038857
  14 H :    0.041480
  15 H :    0.015647
  16 S :    0.087727
  17 C :   -0.099558
  18 C :   -0.069730
  19 C :   -0.050798
  20 C :   -0.104855
  21 H :    0.044354
  22 C :   -0.003933
  23 H :    0.032261
  24 H :    0.045035
  25 C :   -0.090058
  26 H :    0.026913
  27 H :    0.043517
  28 C :   -0.018317
  29 H :    0.045059
  30 H :    0.038902
  31 H :    0.017436
  32 H :    0.054871
  33 H :    0.079444
Sum of atomic charges:    0.0000000

LOEWDIN ATOMIC CHARGES
----------------------
   0 S :    0.382388
   1 C :   -0.197174
   2 C :   -0.058400
   3 C :   -0.053435
   4 C :   -0.156745
   5 H :    0.026899
   6 C :   -0.030367
   7 H :    0.031183
   8 H :    0.025770
   9 C :   -0.045717
  10 H :    0.014874
  11 H :    0.026188
  12 C :   -0.070610
  13 H :    0.031358
  14 H :    0.029391
  15 H :    0.023170
  16 S :    0.393846
  17 C :   -0.192376
  18 C :   -0.090694
  19 C :   -0.056781
  20 C :   -0.192053
  21 H :    0.040941
  22 C :   -0.041454
  23 H :    0.032182
  24 H :    0.028877
  25 C :   -0.048693
  26 H :    0.019435
  27 H :    0.028932
  28 C :   -0.060754
  29 H :    0.031750
  30 H :    0.032758
  31 H :    0.021984
  32 H :    0.025793
  33 H :    0.047533

  Mayer bond orders larger than 0.100000
B(  0-S ,  1-C ) :   1.1436 B(  0-S ,  4-C ) :   1.1338 B(  1-C ,  2-C ) :   1.6029
B(  1-C , 32-H ) :   0.9667 B(  2-C ,  3-C ) :   1.2382 B(  2-C ,  6-C ) :   1.0164
B(  3-C ,  4-C ) :   1.5615 B(  3-C ,  5-H ) :   0.9974 B(  4-C , 20-C ) :   1.0872
B(  6-C ,  7-H ) :   0.9548 B(  6-C ,  8-H ) :   0.9523 B(  6-C ,  9-C ) :   1.0572
B(  9-C , 10-H ) :   0.9540 B(  9-C , 11-H ) :   0.9530 B(  9-C , 12-C ) :   1.1103
B( 12-C , 13-H ) :   0.9694 B( 12-C , 14-H ) :   0.9588 B( 12-C , 15-H ) :   0.9710
B( 16-S , 17-C ) :   1.1545 B( 16-S , 20-C ) :   1.1247 B( 17-C , 18-C ) :   1.6012
B( 17-C , 33-H ) :   0.9599 B( 18-C , 19-C ) :   1.2683 B( 18-C , 21-H ) :   0.9724
B( 19-C , 20-C ) :   1.5717 B( 19-C , 22-C ) :   1.0164 B( 22-C , 23-H ) :   0.9377
B( 22-C , 24-H ) :   0.9295 B( 22-C , 25-C ) :   1.0744 B( 25-C , 26-H ) :   0.9420
B( 25-C , 27-H ) :   0.9577 B( 25-C , 28-C ) :   1.0689 B( 28-C , 29-H ) :   0.9743
B( 28-C , 30-H ) :   0.9761 B( 28-C , 31-H ) :   0.9710

Dispersion correction           -0.013523248
FINAL SINGLE POINT ENERGY     -1339.857723058194

DIPOLE MOMENT
-------------
                                X             Y             Z
Electronic contribution:    -16.51408      -7.92191      24.26038
Nuclear contribution   :     17.19741       8.11865     -24.53840
                        -----------------------------------------
Total Dipole Moment    :      0.68333       0.19674      -0.27802
                        -----------------------------------------
Magnitude (a.u.)       :      0.76350
Magnitude (Debye)      :      1.94067

Rotational constants in cm-1:     0.016835     0.008832     0.006022
Rotational constants in MHz :   504.685662   264.777906   180.540435

                             ****ORCA TERMINATED NORMALLY****
TOTAL RUN TIME: 0 days 0 hours 0 minutes 21 seconds 187 msec
