                         Program Version 4.2.1 -  RELEASE  -
|  1> ! wB97X-D3 SP def2-SVP
|  2> %pal
|  3> nprocs 24
|  4> end
|  5>
|  6> * xyz 0 1
|  7> S 	 -31.5093 	 14.8353 	 -1.25808
|  8> C 	 -32.7883 	 13.6344 	 -1.59053
|  9> C 	 -32.8594 	 12.6513 	 -0.630945
| 10> C 	 -31.8111 	 12.7688 	 0.366802
| 11> C 	 -31.0912 	 13.8856 	 0.193389
| 12> H 	 -31.5181 	 12.0824 	 1.17893
| 13> C 	 -33.9044 	 11.5747 	 -0.450953
| 14> H 	 -33.2149 	 10.8683 	 0.0669481
| 15> H 	 -34.0246 	 11.1169 	 -1.39783
| 16> C 	 -35.1817 	 11.9391 	 0.285445
| 17> H 	 -34.9061 	 12.4489 	 1.27865
| 18> H 	 -35.7363 	 12.6831 	 -0.318998
| 19> C 	 -36.1368 	 10.879 	 0.693445
| 20> H 	 -37.0361 	 11.2541 	 1.20783
| 21> H 	 -36.3523 	 10.1853 	 -0.0561084
| 22> H 	 -35.5301 	 10.273 	 1.44273
| 23> S 	 -28.364 	 13.7083 	 0.332067
| 24> C 	 -27.516 	 14.5613 	 1.52783
| 25> C 	 -28.3201 	 15.0886 	 2.49445
| 26> C 	 -29.6931 	 14.8603 	 2.29995
| 27> C 	 -29.9219 	 14.3303 	 1.01198
| 28> H 	 -27.7616 	 15.5988 	 3.3065
| 29> C 	 -30.7289 	 15.3948 	 3.28235
| 30> H 	 -31.4631 	 15.7486 	 2.66284
| 31> H 	 -30.2525 	 16.3195 	 3.68664
| 32> C 	 -31.2146 	 14.5421 	 4.4565
| 33> H 	 -30.3294 	 13.9887 	 4.80567
| 34> H 	 -31.8634 	 13.8406 	 3.92198
| 35> C 	 -31.985 	 15.264 	 5.5394
| 36> H 	 -32.8164 	 15.9414 	 5.11195
| 37> H 	 -31.3682 	 15.9128 	 6.16541
| 38> H 	 -32.5169 	 14.5062 	 6.11406
| 39> H 	 -33.4802 	 13.6045 	 -2.41224
| 40> H 	 -26.4588 	 14.6576 	 1.5105
| 41> *
| 42>
| 43>                          ****END OF INPUT****

CARTESIAN COORDINATES (ANGSTROEM)
---------------------------------
  S    -31.509300   14.835300   -1.258080
  C    -32.788300   13.634400   -1.590530
  C    -32.859400   12.651300   -0.630945
  C    -31.811100   12.768800    0.366802
  C    -31.091200   13.885600    0.193389
  H    -31.518100   12.082400    1.178930
  C    -33.904400   11.574700   -0.450953
  H    -33.214900   10.868300    0.066948
  H    -34.024600   11.116900   -1.397830
  C    -35.181700   11.939100    0.285445
  H    -34.906100   12.448900    1.278650
  H    -35.736300   12.683100   -0.318998
  C    -36.136800   10.879000    0.693445
  H    -37.036100   11.254100    1.207830
  H    -36.352300   10.185300   -0.056108
  H    -35.530100   10.273000    1.442730
  S    -28.364000   13.708300    0.332067
  C    -27.516000   14.561300    1.527830
  C    -28.320100   15.088600    2.494450
  C    -29.693100   14.860300    2.299950
  C    -29.921900   14.330300    1.011980
  H    -27.761600   15.598800    3.306500
  C    -30.728900   15.394800    3.282350
  H    -31.463100   15.748600    2.662840
  H    -30.252500   16.319500    3.686640
  C    -31.214600   14.542100    4.456500
  H    -30.329400   13.988700    4.805670
  H    -31.863400   13.840600    3.921980
  C    -31.985000   15.264000    5.539400
  H    -32.816400   15.941400    5.111950
  H    -31.368200   15.912800    6.165410
  H    -32.516900   14.506200    6.114060
  H    -33.480200   13.604500   -2.412240
  H    -26.458800   14.657600    1.510500

 Total Charge           Charge          ....    0
 Multiplicity           Mult            ....    1
 Number of Electrons    NEL             ....  134
 Basis Dimension        Dim             ....  322

ORBITAL ENERGIES
----------------

  NO   OCC          E(Eh)            E(eV)
   0   2.0000     -88.966568     -2420.9034
   1   2.0000     -88.959876     -2420.7213
   2   2.0000     -10.329857      -281.0897
   3   2.0000     -10.328217      -281.0451
   4   2.0000     -10.314510      -280.6721
   5   2.0000     -10.308538      -280.5096
   6   2.0000     -10.306421      -280.4520
   7   2.0000     -10.301310      -280.3129
   8   2.0000     -10.293696      -280.1057
   9   2.0000     -10.293119      -280.0900
  10   2.0000     -10.291404      -280.0433
  11   2.0000     -10.288142      -279.9546
  12   2.0000     -10.287863      -279.9470
  13   2.0000     -10.287298      -279.9316
  14   2.0000     -10.283457      -279.8271
  15   2.0000     -10.278279      -279.6862
  16   2.0000      -8.080247      -219.8747
  17   2.0000      -8.075206      -219.7375
  18   2.0000      -6.038920      -164.3274
  19   2.0000      -6.035105      -164.2236
  20   2.0000      -6.033489      -164.1796
  21   2.0000      -6.030686      -164.1033
  22   2.0000      -6.029725      -164.0771
  23   2.0000      -6.026062      -163.9775
  24   2.0000      -1.002231       -27.2721
  25   2.0000      -0.982678       -26.7400
  26   2.0000      -0.914557       -24.8864
  27   2.0000      -0.910465       -24.7750
  28   2.0000      -0.867036       -23.5932
  29   2.0000      -0.854477       -23.2515
  30   2.0000      -0.851355       -23.1665
  31   2.0000      -0.814454       -22.1624
  32   2.0000      -0.786069       -21.3900
  33   2.0000      -0.772896       -21.0316
  34   2.0000      -0.704834       -19.1795
  35   2.0000      -0.699718       -19.0403
  36   2.0000      -0.691817       -18.8253
  37   2.0000      -0.653866       -17.7926
  38   2.0000      -0.640850       -17.4384
  39   2.0000      -0.616238       -16.7687
  40   2.0000      -0.594746       -16.1839
  41   2.0000      -0.566772       -15.4227
  42   2.0000      -0.563080       -15.3222
  43   2.0000      -0.558148       -15.1880
  44   2.0000      -0.536871       -14.6090
  45   2.0000      -0.522939       -14.2299
  46   2.0000      -0.520155       -14.1541
  47   2.0000      -0.514229       -13.9929
  48   2.0000      -0.506569       -13.7845
  49   2.0000      -0.503406       -13.6984
  50   2.0000      -0.488597       -13.2954
  51   2.0000      -0.477602       -12.9962
  52   2.0000      -0.472293       -12.8517
  53   2.0000      -0.458831       -12.4854
  54   2.0000      -0.455689       -12.3999
  55   2.0000      -0.451009       -12.2726
  56   2.0000      -0.445408       -12.1202
  57   2.0000      -0.437290       -11.8993
  58   2.0000      -0.429071       -11.6756
  59   2.0000      -0.423183       -11.5154
  60   2.0000      -0.421185       -11.4610
  61   2.0000      -0.414205       -11.2711
  62   2.0000      -0.406217       -11.0537
  63   2.0000      -0.339111        -9.2277
  64   2.0000      -0.327179        -8.9030
  65   2.0000      -0.317251        -8.6328
  66   2.0000      -0.310722        -8.4552
  67   0.0000       0.040475         1.1014
  68   0.0000       0.057271         1.5584
  69   0.0000       0.107951         2.9375
  70   0.0000       0.112785         3.0690
  71   0.0000       0.128504         3.4968

MULLIKEN ATOMIC CHARGES
-----------------------
   0 S :    0.109855
   1 C :   -0.100100
   2 C :   -0.125511
   3 C :    0.033429
   4 C :   -0.166564
   5 H :    0.033385
   6 C :    0.092683
   7 H :    0.016977
   8 H :    0.012489
   9 C :   -0.068034
  10 H :    0.035261
  11 H :    0.028346
  12 C :   -0.026952
  13 H :    0.049368
  14 H :    0.018488
  15 H :    0.022483
  16 S :    0.101168
  17 C :   -0.071007
  18 C :   -0.062529
  19 C :   -0.000599
  20 C :   -0.202395
  21 H :    0.028486
  22 C :    0.071553
  23 H :    0.005887
  24 H :    0.013058
  25 C :   -0.049117
  26 H :    0.033526
  27 H :    0.024862
  28 C :   -0.052626
  29 H :    0.038888
  30 H :    0.039800
  31 H :    0.040728
  32 H :    0.033492
  33 H :    0.041220
Sum of atomic charges:   -0.0000000

LOEWDIN ATOMIC CHARGES
----------------------
   0 S :    0.375075
   1 C :   -0.183551
   2 C :   -0.059979
   3 C :   -0.066115
   4 C :   -0.188607
   5 H :    0.042780
   6 C :   -0.037099
   7 H :    0.035671
   8 H :    0.024356
   9 C :   -0.048188
  10 H :    0.035108
  11 H :    0.024173
  12 C :   -0.065270
  13 H :    0.033940
  14 H :    0.013762
  15 H :    0.031155
  16 S :    0.403929
  17 C :   -0.190616
  18 C :   -0.087490
  19 C :   -0.046627
  20 C :   -0.187392
  21 H :    0.039233
  22 C :   -0.028808
  23 H :    0.018321
  24 H :    0.030902
  25 C :   -0.043367
  26 H :    0.027975
  27 H :    0.026362
  28 C :   -0.068210
  29 H :    0.036263
  30 H :    0.025122
  31 H :    0.030298
  32 H :    0.025948
  33 H :    0.020947

  Mayer bond orders larger than 0.100000
B(  0-S ,  1-C ) :   1.1092 B(  0-S ,  4-C ) :   1.1269 B(  1-C ,  2-C ) :   1.6824
B(  1-C , 32-H ) :   0.9667 B(  2-C ,  3-C ) :   1.1747 B(  2-C ,  6-C ) :   1.0062
B(  3-C ,  4-C ) :   1.6759 B(  3-C ,  5-H ) :   0.9826 B(  4-C , 20-C ) :   0.9770
B(  6-C ,  7-H ) :   0.9383 B(  6-C ,  8-H ) :   0.9266 B(  6-C ,  9-C ) :   1.0582
B(  9-C , 10-H ) :   0.9555 B(  9-C , 11-H ) :   0.9503 B(  9-C , 12-C ) :   1.0879
B( 12-C , 13-H ) :   0.9714 B( 12-C , 14-H ) :   0.9728 B( 12-C , 15-H ) :   0.9736
B( 16-S , 17-C ) :   1.1686 B( 16-S , 20-C ) :   1.1519 B( 17-C , 18-C ) :   1.6229
B( 17-C , 20-C ) :   0.1046 B( 17-C , 33-H ) :   0.9671 B( 18-C , 19-C ) :   1.2229
B( 18-C , 21-H ) :   0.9873 B( 19-C , 20-C ) :   1.5905 B( 19-C , 22-C ) :   1.0284
B( 22-C , 23-H ) :   0.9318 B( 22-C , 24-H ) :   0.9420 B( 22-C , 25-C ) :   1.0501
B( 25-C , 26-H ) :   0.9560 B( 25-C , 27-H ) :   0.9513 B( 25-C , 28-C ) :   1.0857
B( 28-C , 29-H ) :   0.9716 B( 28-C , 30-H ) :   0.9740 B( 28-C , 31-H ) :   0.9727

Dispersion correction           -0.013600326
FINAL SINGLE POINT ENERGY     -1339.854726448004

DIPOLE MOMENT
-------------
                                X             Y             Z
Electronic contribution:     21.85316       6.78222     -19.14322
Nuclear contribution   :    -22.17551      -7.00117      19.61478
                        -----------------------------------------
Total Dipole Moment    :     -0.32235      -0.21896       0.47156
                        -----------------------------------------
Magnitude (a.u.)       :      0.61174
Magnitude (Debye)      :      1.55492

Rotational constants in cm-1:     0.016166     0.008650     0.006398
Rotational constants in MHz :   484.634099   259.310677   191.807331

                             ****ORCA TERMINATED NORMALLY****
TOTAL RUN TIME: 0 days 0 hours 0 minutes 20 seconds 889 msec
