                         Program Version 4.2.1 -  RELEASE  -
|  1> ! wB97X-D3 SP def2-SVP
|  2> %pal
|  3> nprocs 24
|  4> end
|  5>
|  6> * xyz 0 1
|  7> S 	 -42.5206 	 -9.94438 	 5.70237
|  8> C 	 -42.3182 	 -11.2848 	 6.84063
|  9> C 	 -41.9678 	 -10.7676 	 8.0578
| 10> C 	 -41.6939 	 -9.30897 	 8.06457
| 11> C 	 -41.9947 	 -8.65954 	 6.85456
| 12> H 	 -41.3634 	 -8.68394 	 8.95418
| 13> C 	 -41.8199 	 -11.5611 	 9.31704
| 14> H 	 -42.1515 	 -12.5904 	 9.08194
| 15> H 	 -42.564 	 -11.1385 	 9.99243
| 16> C 	 -40.4233 	 -11.6311 	 10.082
| 17> H 	 -40.5889 	 -12.1913 	 10.993
| 18> H 	 -39.6643 	 -12.1926 	 9.49397
| 19> C 	 -39.8887 	 -10.3098 	 10.5898
| 20> H 	 -40.6797 	 -9.76836 	 11.1269
| 21> H 	 -39.0369 	 -10.5434 	 11.2197
| 22> H 	 -39.5373 	 -9.74035 	 9.65678
| 23> S 	 -43.0421 	 -6.81317 	 5.17817
| 24> C 	 -42.2776 	 -5.24239 	 5.03889
| 25> C 	 -41.2777 	 -5.05945 	 5.99381
| 26> C 	 -41.0948 	 -6.19286 	 6.834
| 27> C 	 -41.9203 	 -7.25669 	 6.47553
| 28> H 	 -40.7356 	 -4.13633 	 6.00983
| 29> C 	 -40.1571 	 -6.29437 	 8.05241
| 30> H 	 -39.3268 	 -5.51492 	 7.99141
| 31> H 	 -39.642 	 -7.23766 	 8.04429
| 32> C 	 -40.9154 	 -6.03928 	 9.40191
| 33> H 	 -41.83 	 -6.65795 	 9.40538
| 34> H 	 -41.3305 	 -5.00614 	 9.48409
| 35> C 	 -40.0984 	 -6.36338 	 10.672
| 36> H 	 -39.4599 	 -7.23797 	 10.5724
| 37> H 	 -40.6687 	 -6.44958 	 11.5803
| 38> H 	 -39.4881 	 -5.4872 	 10.8199
| 39> H 	 -42.4389 	 -12.2652 	 6.612
| 40> H 	 -42.557 	 -4.47084 	 4.23028
| 41> *
| 42>
| 43>                          ****END OF INPUT****

CARTESIAN COORDINATES (ANGSTROEM)
---------------------------------
  S    -42.520600   -9.944380    5.702370
  C    -42.318200  -11.284800    6.840630
  C    -41.967800  -10.767600    8.057800
  C    -41.693900   -9.308970    8.064570
  C    -41.994700   -8.659540    6.854560
  H    -41.363400   -8.683940    8.954180
  C    -41.819900  -11.561100    9.317040
  H    -42.151500  -12.590400    9.081940
  H    -42.564000  -11.138500    9.992430
  C    -40.423300  -11.631100   10.082000
  H    -40.588900  -12.191300   10.993000
  H    -39.664300  -12.192600    9.493970
  C    -39.888700  -10.309800   10.589800
  H    -40.679700   -9.768360   11.126900
  H    -39.036900  -10.543400   11.219700
  H    -39.537300   -9.740350    9.656780
  S    -43.042100   -6.813170    5.178170
  C    -42.277600   -5.242390    5.038890
  C    -41.277700   -5.059450    5.993810
  C    -41.094800   -6.192860    6.834000
  C    -41.920300   -7.256690    6.475530
  H    -40.735600   -4.136330    6.009830
  C    -40.157100   -6.294370    8.052410
  H    -39.326800   -5.514920    7.991410
  H    -39.642000   -7.237660    8.044290
  C    -40.915400   -6.039280    9.401910
  H    -41.830000   -6.657950    9.405380
  H    -41.330500   -5.006140    9.484090
  C    -40.098400   -6.363380   10.672000
  H    -39.459900   -7.237970   10.572400
  H    -40.668700   -6.449580   11.580300
  H    -39.488100   -5.487200   10.819900
  H    -42.438900  -12.265200    6.612000
  H    -42.557000   -4.470840    4.230280

 Total Charge           Charge          ....    0
 Multiplicity           Mult            ....    1
 Number of Electrons    NEL             ....  134
 Basis Dimension        Dim             ....  322

ORBITAL ENERGIES
----------------

  NO   OCC          E(Eh)            E(eV)
   0   2.0000     -88.968254     -2420.9493
   1   2.0000     -88.961557     -2420.7670
   2   2.0000     -10.339819      -281.3608
   3   2.0000     -10.332038      -281.1491
   4   2.0000     -10.326850      -281.0079
   5   2.0000     -10.311026      -280.5773
   6   2.0000     -10.310778      -280.5705
   7   2.0000     -10.305212      -280.4191
   8   2.0000     -10.303760      -280.3796
   9   2.0000     -10.303677      -280.3773
  10   2.0000     -10.298329      -280.2318
  11   2.0000     -10.295114      -280.1443
  12   2.0000     -10.294400      -280.1249
  13   2.0000     -10.291334      -280.0414
  14   2.0000     -10.285137      -279.8728
  15   2.0000     -10.277232      -279.6577
  16   2.0000      -8.082687      -219.9411
  17   2.0000      -8.075246      -219.7386
  18   2.0000      -6.041206      -164.3896
  19   2.0000      -6.037218      -164.2810
  20   2.0000      -6.034183      -164.1985
  21   2.0000      -6.033458      -164.1787
  22   2.0000      -6.029802      -164.0793
  23   2.0000      -6.025675      -163.9669
  24   2.0000      -1.001965       -27.2649
  25   2.0000      -0.976739       -26.5784
  26   2.0000      -0.906832       -24.6762
  27   2.0000      -0.903768       -24.5928
  28   2.0000      -0.872565       -23.7437
  29   2.0000      -0.852277       -23.1916
  30   2.0000      -0.838995       -22.8302
  31   2.0000      -0.816141       -22.2083
  32   2.0000      -0.781590       -21.2681
  33   2.0000      -0.770055       -20.9543
  34   2.0000      -0.706857       -19.2346
  35   2.0000      -0.696021       -18.9397
  36   2.0000      -0.694960       -18.9108
  37   2.0000      -0.663752       -18.0616
  38   2.0000      -0.641225       -17.4486
  39   2.0000      -0.612498       -16.6669
  40   2.0000      -0.591671       -16.1002
  41   2.0000      -0.571857       -15.5610
  42   2.0000      -0.563529       -15.3344
  43   2.0000      -0.542930       -14.7739
  44   2.0000      -0.539933       -14.6923
  45   2.0000      -0.523955       -14.2575
  46   2.0000      -0.519270       -14.1300
  47   2.0000      -0.517766       -14.0891
  48   2.0000      -0.508696       -13.8423
  49   2.0000      -0.504995       -13.7416
  50   2.0000      -0.491249       -13.3676
  51   2.0000      -0.482571       -13.1314
  52   2.0000      -0.472325       -12.8526
  53   2.0000      -0.462682       -12.5902
  54   2.0000      -0.455550       -12.3961
  55   2.0000      -0.447470       -12.1763
  56   2.0000      -0.442643       -12.0449
  57   2.0000      -0.436849       -11.8873
  58   2.0000      -0.431955       -11.7541
  59   2.0000      -0.429357       -11.6834
  60   2.0000      -0.415347       -11.3022
  61   2.0000      -0.411910       -11.2086
  62   2.0000      -0.406662       -11.0658
  63   2.0000      -0.359247        -9.7756
  64   2.0000      -0.335985        -9.1426
  65   2.0000      -0.321734        -8.7548
  66   2.0000      -0.285259        -7.7623
  67   0.0000       0.018248         0.4965
  68   0.0000       0.075578         2.0566
  69   0.0000       0.104553         2.8450
  70   0.0000       0.117357         3.1934
  71   0.0000       0.128241         3.4896

MULLIKEN ATOMIC CHARGES
-----------------------
   0 S :    0.076218
   1 C :   -0.074371
   2 C :   -0.076574
   3 C :   -0.027393
   4 C :   -0.096412
   5 H :    0.028356
   6 C :    0.046811
   7 H :    0.017941
   8 H :    0.037104
   9 C :   -0.070714
  10 H :    0.024822
  11 H :    0.039018
  12 C :   -0.088138
  13 H :    0.042103
  14 H :    0.041374
  15 H :    0.055219
  16 S :    0.104054
  17 C :   -0.124434
  18 C :   -0.027088
  19 C :   -0.024075
  20 C :   -0.153335
  21 H :    0.013974
  22 C :    0.046930
  23 H :    0.029859
  24 H :    0.034302
  25 C :   -0.111787
  26 H :    0.033163
  27 H :    0.035326
  28 C :   -0.024832
  29 H :    0.034585
  30 H :    0.033232
  31 H :    0.025597
  32 H :    0.010174
  33 H :    0.088990
Sum of atomic charges:    0.0000000

LOEWDIN ATOMIC CHARGES
----------------------
   0 S :    0.363809
   1 C :   -0.171912
   2 C :   -0.061635
   3 C :   -0.082107
   4 C :   -0.171838
   5 H :    0.040269
   6 C :   -0.037023
   7 H :    0.031052
   8 H :    0.034393
   9 C :   -0.039974
  10 H :    0.022832
  11 H :    0.027387
  12 C :   -0.073742
  13 H :    0.025088
  14 H :    0.027966
  15 H :    0.031980
  16 S :    0.401808
  17 C :   -0.195254
  18 C :   -0.071245
  19 C :   -0.051448
  20 C :   -0.186534
  21 H :    0.031618
  22 C :   -0.030528
  23 H :    0.034877
  24 H :    0.027607
  25 C :   -0.046093
  26 H :    0.019176
  27 H :    0.030593
  28 C :   -0.067134
  29 H :    0.024573
  30 H :    0.026395
  31 H :    0.025536
  32 H :    0.011247
  33 H :    0.048259

  Mayer bond orders larger than 0.100000
B(  0-S ,  1-C ) :   1.1063 B(  0-S ,  4-C ) :   1.1244 B(  1-C ,  2-C ) :   1.6307
B(  1-C , 32-H ) :   0.9862 B(  2-C ,  3-C ) :   1.1920 B(  2-C ,  6-C ) :   1.0345
B(  3-C ,  4-C ) :   1.5841 B(  3-C ,  5-H ) :   0.9715 B(  4-C , 20-C ) :   1.0884
B(  6-C ,  7-H ) :   0.9406 B(  6-C ,  8-H ) :   0.9359 B(  6-C ,  9-C ) :   1.0658
B(  9-C , 10-H ) :   0.9530 B(  9-C , 11-H ) :   0.9563 B(  9-C , 12-C ) :   1.0869
B( 12-C , 13-H ) :   0.9686 B( 12-C , 14-H ) :   0.9681 B( 12-C , 15-H ) :   0.9639
B( 16-S , 17-C ) :   1.1559 B( 16-S , 20-C ) :   1.1375 B( 17-C , 18-C ) :   1.5956
B( 17-C , 20-C ) :   0.1009 B( 17-C , 33-H ) :   0.9561 B( 18-C , 19-C ) :   1.2533
B( 18-C , 21-H ) :   0.9969 B( 19-C , 20-C ) :   1.5632 B( 19-C , 22-C ) :   1.0448
B( 22-C , 23-H ) :   0.9375 B( 22-C , 24-H ) :   0.9350 B( 22-C , 25-C ) :   1.0456
B( 25-C , 26-H ) :   0.9608 B( 25-C , 27-H ) :   0.9536 B( 25-C , 28-C ) :   1.0679
B( 28-C , 29-H ) :   0.9742 B( 28-C , 30-H ) :   0.9739 B( 28-C , 31-H ) :   0.9743

Dispersion correction           -0.015662627
FINAL SINGLE POINT ENERGY     -1339.878894989148

DIPOLE MOMENT
-------------
                                X             Y             Z
Electronic contribution:    -14.80714       1.61174     -28.81642
Nuclear contribution   :     15.18210      -1.50539      29.46964
                        -----------------------------------------
Total Dipole Moment    :      0.37496       0.10634       0.65322
                        -----------------------------------------
Magnitude (a.u.)       :      0.76066
Magnitude (Debye)      :      1.93345

Rotational constants in cm-1:     0.017646     0.010795     0.006975
Rotational constants in MHz :   529.024687   323.628217   209.111799

                             ****ORCA TERMINATED NORMALLY****
TOTAL RUN TIME: 0 days 0 hours 0 minutes 21 seconds 688 msec
