                         Program Version 4.2.1 -  RELEASE  -
|  1> ! wB97X-D3 SP def2-SVP
|  2> %pal
|  3> nprocs 24
|  4> end
|  5>
|  6> * xyz 0 1
|  7> S 	 -43.5086 	 15.5473 	 28.7231
|  8> C 	 -45.1199 	 15.0803 	 28.976
|  9> C 	 -45.9939 	 16.1318 	 28.8512
| 10> C 	 -45.2828 	 17.3668 	 28.8679
| 11> C 	 -43.8811 	 17.2355 	 28.825
| 12> H 	 -45.7845 	 18.3283 	 28.8959
| 13> C 	 -47.5602 	 16.1352 	 28.8501
| 14> H 	 -47.9194 	 16.1705 	 27.8141
| 15> H 	 -48.0377 	 16.9876 	 29.3254
| 16> C 	 -48.1673 	 15.0263 	 29.6684
| 17> H 	 -47.8657 	 14.1123 	 29.1754
| 18> H 	 -47.7729 	 14.9936 	 30.6983
| 19> C 	 -49.6856 	 15.0993 	 29.7563
| 20> H 	 -50.1117 	 15.3885 	 28.7916
| 21> H 	 -50.1659 	 14.1607 	 30.0156
| 22> H 	 -50.1011 	 15.8943 	 30.4764
| 23> S 	 -41.5484 	 18.1063 	 29.9387
| 24> C 	 -40.9873 	 19.6508 	 29.5921
| 25> C 	 -41.7332 	 20.2761 	 28.6166
| 26> C 	 -42.8329 	 19.5197 	 28.1684
| 27> C 	 -42.899 	 18.3152 	 28.8686
| 28> H 	 -41.3325 	 21.1871 	 28.211
| 29> C 	 -43.6675 	 19.9914 	 27.0388
| 30> H 	 -43.5465 	 21.0231 	 26.9841
| 31> H 	 -44.7324 	 19.9814 	 27.2214
| 32> C 	 -43.3779 	 19.4335 	 25.5715
| 33> H 	 -44.0835 	 19.7666 	 24.8534
| 34> H 	 -43.514 	 18.3476 	 25.709
| 35> C 	 -41.9144 	 19.6295 	 25.1052
| 36> H 	 -41.482 	 20.6689 	 25.2274
| 37> H 	 -41.7172 	 19.1805 	 24.1515
| 38> H 	 -41.1694 	 19.1314 	 25.7304
| 39> H 	 -45.489 	 14.1053 	 29.124
| 40> H 	 -40.1739 	 20.0619 	 30.094
| 41> *
| 42>
| 43>                          ****END OF INPUT****

CARTESIAN COORDINATES (ANGSTROEM)
---------------------------------
  S    -43.508600   15.547300   28.723100
  C    -45.119900   15.080300   28.976000
  C    -45.993900   16.131800   28.851200
  C    -45.282800   17.366800   28.867900
  C    -43.881100   17.235500   28.825000
  H    -45.784500   18.328300   28.895900
  C    -47.560200   16.135200   28.850100
  H    -47.919400   16.170500   27.814100
  H    -48.037700   16.987600   29.325400
  C    -48.167300   15.026300   29.668400
  H    -47.865700   14.112300   29.175400
  H    -47.772900   14.993600   30.698300
  C    -49.685600   15.099300   29.756300
  H    -50.111700   15.388500   28.791600
  H    -50.165900   14.160700   30.015600
  H    -50.101100   15.894300   30.476400
  S    -41.548400   18.106300   29.938700
  C    -40.987300   19.650800   29.592100
  C    -41.733200   20.276100   28.616600
  C    -42.832900   19.519700   28.168400
  C    -42.899000   18.315200   28.868600
  H    -41.332500   21.187100   28.211000
  C    -43.667500   19.991400   27.038800
  H    -43.546500   21.023100   26.984100
  H    -44.732400   19.981400   27.221400
  C    -43.377900   19.433500   25.571500
  H    -44.083500   19.766600   24.853400
  H    -43.514000   18.347600   25.709000
  C    -41.914400   19.629500   25.105200
  H    -41.482000   20.668900   25.227400
  H    -41.717200   19.180500   24.151500
  H    -41.169400   19.131400   25.730400
  H    -45.489000   14.105300   29.124000
  H    -40.173900   20.061900   30.094000

 Total Charge           Charge          ....    0
 Multiplicity           Mult            ....    1
 Number of Electrons    NEL             ....  134
 Basis Dimension        Dim             ....  322

ORBITAL ENERGIES
----------------

  NO   OCC          E(Eh)            E(eV)
   0   2.0000     -88.966763     -2420.9087
   1   2.0000     -88.966095     -2420.8905
   2   2.0000     -10.327088      -281.0144
   3   2.0000     -10.325175      -280.9623
   4   2.0000     -10.306888      -280.4647
   5   2.0000     -10.305611      -280.4299
   6   2.0000     -10.302050      -280.3330
   7   2.0000     -10.299482      -280.2632
   8   2.0000     -10.294262      -280.1211
   9   2.0000     -10.290321      -280.0139
  10   2.0000     -10.289288      -279.9858
  11   2.0000     -10.288581      -279.9665
  12   2.0000     -10.285046      -279.8703
  13   2.0000     -10.285035      -279.8700
  14   2.0000     -10.284070      -279.8438
  15   2.0000     -10.276659      -279.6421
  16   2.0000      -8.082616      -219.9392
  17   2.0000      -8.082459      -219.9349
  18   2.0000      -6.040932      -164.3821
  19   2.0000      -6.040768      -164.3776
  20   2.0000      -6.036799      -164.2696
  21   2.0000      -6.036758      -164.2685
  22   2.0000      -6.033757      -164.1869
  23   2.0000      -6.033253      -164.1732
  24   2.0000      -1.014691       -27.6111
  25   2.0000      -0.994065       -27.0499
  26   2.0000      -0.914480       -24.8843
  27   2.0000      -0.906899       -24.6780
  28   2.0000      -0.870107       -23.6768
  29   2.0000      -0.852138       -23.1878
  30   2.0000      -0.846520       -23.0350
  31   2.0000      -0.810134       -22.0449
  32   2.0000      -0.786274       -21.3956
  33   2.0000      -0.775799       -21.1106
  34   2.0000      -0.712919       -19.3995
  35   2.0000      -0.702903       -19.1270
  36   2.0000      -0.689439       -18.7606
  37   2.0000      -0.668049       -18.1785
  38   2.0000      -0.639110       -17.3911
  39   2.0000      -0.616123       -16.7656
  40   2.0000      -0.600187       -16.3319
  41   2.0000      -0.578045       -15.7294
  42   2.0000      -0.566828       -15.4242
  43   2.0000      -0.550370       -14.9763
  44   2.0000      -0.541737       -14.7414
  45   2.0000      -0.521801       -14.1989
  46   2.0000      -0.515561       -14.0291
  47   2.0000      -0.510168       -13.8824
  48   2.0000      -0.505453       -13.7541
  49   2.0000      -0.492036       -13.3890
  50   2.0000      -0.488063       -13.2809
  51   2.0000      -0.482199       -13.1213
  52   2.0000      -0.478061       -13.0087
  53   2.0000      -0.471659       -12.8345
  54   2.0000      -0.460956       -12.5432
  55   2.0000      -0.448468       -12.2034
  56   2.0000      -0.440460       -11.9855
  57   2.0000      -0.435212       -11.8427
  58   2.0000      -0.434144       -11.8137
  59   2.0000      -0.431175       -11.7329
  60   2.0000      -0.425423       -11.5763
  61   2.0000      -0.408464       -11.1149
  62   2.0000      -0.407998       -11.1022
  63   2.0000      -0.347516        -9.4564
  64   2.0000      -0.334592        -9.1047
  65   2.0000      -0.329966        -8.9788
  66   2.0000      -0.287786        -7.8311
  67   0.0000       0.029051         0.7905
  68   0.0000       0.077455         2.1077
  69   0.0000       0.116142         3.1604
  70   0.0000       0.129097         3.5129
  71   0.0000       0.137932         3.7533

MULLIKEN ATOMIC CHARGES
-----------------------
   0 S :    0.130245
   1 C :   -0.112846
   2 C :   -0.072130
   3 C :    0.012966
   4 C :   -0.143778
   5 H :    0.008884
   6 C :    0.059992
   7 H :    0.043025
   8 H :    0.020468
   9 C :   -0.099579
  10 H :    0.025110
  11 H :    0.043899
  12 C :   -0.059881
  13 H :    0.018595
  14 H :    0.035467
  15 H :    0.042435
  16 S :    0.130312
  17 C :   -0.071206
  18 C :   -0.043429
  19 C :   -0.009043
  20 C :   -0.180635
  21 H :    0.011729
  22 C :    0.092457
  23 H :   -0.006827
  24 H :    0.016109
  25 C :   -0.040930
  26 H :    0.032147
  27 H :    0.039192
  28 C :   -0.072635
  29 H :    0.028668
  30 H :    0.034066
  31 H :    0.027760
  32 H :    0.026991
  33 H :    0.032402
Sum of atomic charges:   -0.0000000

LOEWDIN ATOMIC CHARGES
----------------------
   0 S :    0.435005
   1 C :   -0.211748
   2 C :   -0.061192
   3 C :   -0.062769
   4 C :   -0.208229
   5 H :    0.028022
   6 C :   -0.030098
   7 H :    0.034591
   8 H :    0.028220
   9 C :   -0.048272
  10 H :    0.018278
  11 H :    0.030822
  12 C :   -0.071872
  13 H :    0.021907
  14 H :    0.026433
  15 H :    0.033183
  16 S :    0.450893
  17 C :   -0.195952
  18 C :   -0.069639
  19 C :   -0.053446
  20 C :   -0.203736
  21 H :    0.029447
  22 C :   -0.032099
  23 H :    0.020780
  24 H :    0.031058
  25 C :   -0.026593
  26 H :    0.020381
  27 H :    0.030961
  28 C :   -0.080202
  29 H :    0.027812
  30 H :    0.024868
  31 H :    0.027778
  32 H :    0.019557
  33 H :    0.015850

  Mayer bond orders larger than 0.100000
B(  0-S ,  1-C ) :   1.1516 B(  0-S ,  4-C ) :   1.1622 B(  1-C ,  2-C ) :   1.5931
B(  1-C , 32-H ) :   0.9712 B(  2-C ,  3-C ) :   1.2815 B(  2-C ,  6-C ) :   0.9998
B(  3-C ,  4-C ) :   1.5398 B(  3-C ,  5-H ) :   0.9963 B(  4-C , 20-C ) :   1.0528
B(  6-C ,  7-H ) :   0.9307 B(  6-C ,  8-H ) :   0.9581 B(  6-C ,  9-C ) :   1.0683
B(  9-C , 10-H ) :   0.9474 B(  9-C , 11-H ) :   0.9604 B(  9-C , 12-C ) :   1.0883
B( 12-C , 13-H ) :   0.9721 B( 12-C , 14-H ) :   0.9736 B( 12-C , 15-H ) :   0.9725
B( 16-S , 17-C ) :   1.1879 B( 16-S , 20-C ) :   1.1707 B( 17-C , 18-C ) :   1.5685
B( 17-C , 20-C ) :   0.1018 B( 17-C , 33-H ) :   0.9766 B( 18-C , 19-C ) :   1.2672
B( 18-C , 21-H ) :   0.9951 B( 19-C , 20-C ) :   1.5404 B( 19-C , 22-C ) :   1.0568
B( 22-C , 23-H ) :   0.9212 B( 22-C , 24-H ) :   0.9264 B( 22-C , 25-C ) :   1.0588
B( 25-C , 26-H ) :   0.9606 B( 25-C , 27-H ) :   0.9581 B( 25-C , 28-C ) :   1.0708
B( 28-C , 29-H ) :   0.9757 B( 28-C , 30-H ) :   0.9739 B( 28-C , 31-H ) :   0.9694

Dispersion correction           -0.014239543
FINAL SINGLE POINT ENERGY     -1339.874291640651

DIPOLE MOMENT
-------------
                                X             Y             Z
Electronic contribution:     20.33400      -3.45467      10.77514
Nuclear contribution   :    -20.71200       3.70669     -10.95784
                        -----------------------------------------
Total Dipole Moment    :     -0.37800       0.25202      -0.18270
                        -----------------------------------------
Magnitude (a.u.)       :      0.48967
Magnitude (Debye)      :      1.24465

Rotational constants in cm-1:     0.023020     0.007166     0.006342
Rotational constants in MHz :   690.120913   214.838046   190.121148

                             ****ORCA TERMINATED NORMALLY****
TOTAL RUN TIME: 0 days 0 hours 0 minutes 21 seconds 477 msec
