                         Program Version 4.2.1 -  RELEASE  -
|  1> ! wB97X-D3 SP def2-SVP
|  2> %pal
|  3> nprocs 24
|  4> end
|  5>
|  6> * xyz 0 1
|  7> S 	 -46.6335 	 8.95178 	 -20.1223
|  8> C 	 -46.8988 	 7.57824 	 -19.139
|  9> C 	 -47.7384 	 7.84232 	 -18.037
| 10> C 	 -48.0791 	 9.22962 	 -17.9808
| 11> C 	 -47.6563 	 9.95379 	 -19.0599
| 12> H 	 -48.5469 	 9.8104 	 -17.1803
| 13> C 	 -48.2423 	 6.75091 	 -17.03
| 14> H 	 -47.3597 	 6.05311 	 -16.8784
| 15> H 	 -48.9629 	 6.17932 	 -17.5555
| 16> C 	 -48.9965 	 7.26501 	 -15.7677
| 17> H 	 -49.8931 	 7.82358 	 -16.0134
| 18> H 	 -49.3559 	 6.46201 	 -15.1475
| 19> C 	 -48.1013 	 8.22295 	 -14.8837
| 20> H 	 -48.5617 	 8.39235 	 -13.9164
| 21> H 	 -47.1454 	 7.78601 	 -14.6639
| 22> H 	 -47.9967 	 9.27311 	 -15.2949
| 23> S 	 -46.3764 	 12.3955 	 -19.7845
| 24> C 	 -47.2529 	 13.8338 	 -19.5922
| 25> C 	 -48.5091 	 13.7386 	 -19.059
| 26> C 	 -48.8598 	 12.3345 	 -19.0254
| 27> C 	 -47.801 	 11.4088 	 -19.33
| 28> H 	 -49.0551 	 14.6103 	 -18.7544
| 29> C 	 -50.2714 	 12.0305 	 -18.6043
| 30> H 	 -50.5265 	 12.5737 	 -17.7292
| 31> H 	 -50.1785 	 10.9708 	 -18.4123
| 32> C 	 -51.415 	 12.2527 	 -19.6409
| 33> H 	 -51.0705 	 11.7865 	 -20.6199
| 34> H 	 -51.5052 	 13.4265 	 -19.5877
| 35> C 	 -52.7929 	 11.7278 	 -19.3933
| 36> H 	 -53.2495 	 12.2837 	 -18.5384
| 37> H 	 -52.6996 	 10.6574 	 -19.0458
| 38> H 	 -53.42 	 11.6226 	 -20.2917
| 39> H 	 -46.4102 	 6.56801 	 -19.2489
| 40> H 	 -46.7754 	 14.8822 	 -19.5942
| 41> *
| 42>
| 43>                          ****END OF INPUT****

CARTESIAN COORDINATES (ANGSTROEM)
---------------------------------
  S    -46.633500    8.951780  -20.122300
  C    -46.898800    7.578240  -19.139000
  C    -47.738400    7.842320  -18.037000
  C    -48.079100    9.229620  -17.980800
  C    -47.656300    9.953790  -19.059900
  H    -48.546900    9.810400  -17.180300
  C    -48.242300    6.750910  -17.030000
  H    -47.359700    6.053110  -16.878400
  H    -48.962900    6.179320  -17.555500
  C    -48.996500    7.265010  -15.767700
  H    -49.893100    7.823580  -16.013400
  H    -49.355900    6.462010  -15.147500
  C    -48.101300    8.222950  -14.883700
  H    -48.561700    8.392350  -13.916400
  H    -47.145400    7.786010  -14.663900
  H    -47.996700    9.273110  -15.294900
  S    -46.376400   12.395500  -19.784500
  C    -47.252900   13.833800  -19.592200
  C    -48.509100   13.738600  -19.059000
  C    -48.859800   12.334500  -19.025400
  C    -47.801000   11.408800  -19.330000
  H    -49.055100   14.610300  -18.754400
  C    -50.271400   12.030500  -18.604300
  H    -50.526500   12.573700  -17.729200
  H    -50.178500   10.970800  -18.412300
  C    -51.415000   12.252700  -19.640900
  H    -51.070500   11.786500  -20.619900
  H    -51.505200   13.426500  -19.587700
  C    -52.792900   11.727800  -19.393300
  H    -53.249500   12.283700  -18.538400
  H    -52.699600   10.657400  -19.045800
  H    -53.420000   11.622600  -20.291700
  H    -46.410200    6.568010  -19.248900
  H    -46.775400   14.882200  -19.594200

 Total Charge           Charge          ....    0
 Multiplicity           Mult            ....    1
 Number of Electrons    NEL             ....  134
 Basis Dimension        Dim             ....  322

ORBITAL ENERGIES
----------------

  NO   OCC          E(Eh)            E(eV)
   0   2.0000     -88.968735     -2420.9624
   1   2.0000     -88.967708     -2420.9344
   2   2.0000     -10.337423      -281.2956
   3   2.0000     -10.333353      -281.1848
   4   2.0000     -10.318706      -280.7863
   5   2.0000     -10.317857      -280.7632
   6   2.0000     -10.311412      -280.5878
   7   2.0000     -10.308108      -280.4979
   8   2.0000     -10.301858      -280.3278
   9   2.0000     -10.296510      -280.1823
  10   2.0000     -10.295781      -280.1624
  11   2.0000     -10.294569      -280.1295
  12   2.0000     -10.292274      -280.0670
  13   2.0000     -10.284583      -279.8577
  14   2.0000     -10.283694      -279.8335
  15   2.0000     -10.279905      -279.7304
  16   2.0000      -8.083712      -219.9690
  17   2.0000      -8.082467      -219.9351
  18   2.0000      -6.042210      -164.4169
  19   2.0000      -6.040947      -164.3825
  20   2.0000      -6.038210      -164.3081
  21   2.0000      -6.036954      -164.2739
  22   2.0000      -6.034434      -164.2053
  23   2.0000      -6.033279      -164.1739
  24   2.0000      -1.003350       -27.3025
  25   2.0000      -0.984656       -26.7938
  26   2.0000      -0.907553       -24.6958
  27   2.0000      -0.902154       -24.5488
  28   2.0000      -0.866541       -23.5798
  29   2.0000      -0.854205       -23.2441
  30   2.0000      -0.842313       -22.9205
  31   2.0000      -0.816694       -22.2234
  32   2.0000      -0.784717       -21.3532
  33   2.0000      -0.766786       -20.8653
  34   2.0000      -0.707038       -19.2395
  35   2.0000      -0.689523       -18.7629
  36   2.0000      -0.679654       -18.4943
  37   2.0000      -0.655834       -17.8462
  38   2.0000      -0.638515       -17.3749
  39   2.0000      -0.622082       -16.9277
  40   2.0000      -0.588594       -16.0165
  41   2.0000      -0.573722       -15.6118
  42   2.0000      -0.561934       -15.2910
  43   2.0000      -0.551112       -14.9965
  44   2.0000      -0.529360       -14.4046
  45   2.0000      -0.521866       -14.2007
  46   2.0000      -0.517177       -14.0731
  47   2.0000      -0.507665       -13.8143
  48   2.0000      -0.501512       -13.6468
  49   2.0000      -0.495625       -13.4866
  50   2.0000      -0.492272       -13.3954
  51   2.0000      -0.483666       -13.1612
  52   2.0000      -0.476125       -12.9560
  53   2.0000      -0.469879       -12.7860
  54   2.0000      -0.458792       -12.4844
  55   2.0000      -0.445902       -12.1336
  56   2.0000      -0.439022       -11.9464
  57   2.0000      -0.431210       -11.7338
  58   2.0000      -0.428543       -11.6612
  59   2.0000      -0.426190       -11.5972
  60   2.0000      -0.421926       -11.4812
  61   2.0000      -0.418523       -11.3886
  62   2.0000      -0.394847       -10.7443
  63   2.0000      -0.353871        -9.6293
  64   2.0000      -0.332192        -9.0394
  65   2.0000      -0.327725        -8.9179
  66   2.0000      -0.284908        -7.7528
  67   0.0000       0.025429         0.6920
  68   0.0000       0.072455         1.9716
  69   0.0000       0.105285         2.8650
  70   0.0000       0.116588         3.1725
  71   0.0000       0.129964         3.5365

MULLIKEN ATOMIC CHARGES
-----------------------
   0 S :    0.114499
   1 C :   -0.135485
   2 C :   -0.108288
   3 C :    0.016409
   4 C :   -0.167657
   5 H :    0.026873
   6 C :    0.069115
   7 H :    0.042697
   8 H :    0.035426
   9 C :   -0.063347
  10 H :    0.031182
  11 H :    0.031364
  12 C :   -0.076686
  13 H :    0.024288
  14 H :    0.033565
  15 H :    0.043183
  16 S :    0.112141
  17 C :   -0.099169
  18 C :   -0.032355
  19 C :   -0.094044
  20 C :   -0.111469
  21 H :    0.023566
  22 C :    0.095254
  23 H :    0.016619
  24 H :   -0.000521
  25 C :   -0.113353
  26 H :    0.045505
  27 H :    0.034044
  28 C :   -0.051725
  29 H :    0.035715
  30 H :    0.024763
  31 H :    0.052349
  32 H :    0.067131
  33 H :    0.078412
Sum of atomic charges:   -0.0000000

LOEWDIN ATOMIC CHARGES
----------------------
   0 S :    0.408169
   1 C :   -0.222038
   2 C :   -0.062180
   3 C :   -0.069589
   4 C :   -0.184829
   5 H :    0.035927
   6 C :   -0.031219
   7 H :    0.038660
   8 H :    0.029435
   9 C :   -0.038645
  10 H :    0.026035
  11 H :    0.026871
  12 C :   -0.071396
  13 H :    0.022767
  14 H :    0.022046
  15 H :    0.030798
  16 S :    0.414966
  17 C :   -0.206697
  18 C :   -0.075978
  19 C :   -0.043144
  20 C :   -0.202252
  21 H :    0.034024
  22 C :   -0.039136
  23 H :    0.023635
  24 H :    0.022042
  25 C :   -0.050796
  26 H :    0.034198
  27 H :    0.029977
  28 C :   -0.078661
  29 H :    0.028051
  30 H :    0.027846
  31 H :    0.034220
  32 H :    0.041226
  33 H :    0.045666

  Mayer bond orders larger than 0.100000
B(  0-S ,  1-C ) :   1.1546 B(  0-S ,  4-C ) :   1.1435 B(  1-C ,  2-C ) :   1.6116
B(  1-C , 32-H ) :   0.9604 B(  2-C ,  3-C ) :   1.2470 B(  2-C ,  6-C ) :   0.9884
B(  3-C ,  4-C ) :   1.5941 B(  3-C ,  5-H ) :   0.9742 B(  4-C , 20-C ) :   1.0390
B(  6-C ,  7-H ) :   0.9451 B(  6-C ,  8-H ) :   0.9411 B(  6-C ,  9-C ) :   1.0823
B(  9-C , 10-H ) :   0.9500 B(  9-C , 11-H ) :   0.9562 B(  9-C , 12-C ) :   1.0712
B( 12-C , 13-H ) :   0.9739 B( 12-C , 14-H ) :   0.9778 B( 12-C , 15-H ) :   0.9751
B( 16-S , 17-C ) :   1.1812 B( 16-S , 20-C ) :   1.1198 B( 17-C , 18-C ) :   1.6128
B( 17-C , 33-H ) :   0.9463 B( 18-C , 19-C ) :   1.2354 B( 18-C , 21-H ) :   0.9952
B( 19-C , 20-C ) :   1.5761 B( 19-C , 22-C ) :   1.0580 B( 22-C , 23-H ) :   0.9334
B( 22-C , 24-H ) :   0.9214 B( 22-C , 25-C ) :   1.0613 B( 25-C , 26-H ) :   0.9539
B( 25-C , 27-H ) :   0.9546 B( 25-C , 28-C ) :   1.0916 B( 28-C , 29-H ) :   0.9719
B( 28-C , 30-H ) :   0.9683 B( 28-C , 31-H ) :   0.9727

Dispersion correction           -0.013883058
FINAL SINGLE POINT ENERGY     -1339.853259372563

DIPOLE MOMENT
-------------
                                X             Y             Z
Electronic contribution:     22.50457       5.21700     -16.38022
Nuclear contribution   :    -22.95336      -5.29637      17.00894
                        -----------------------------------------
Total Dipole Moment    :     -0.44878      -0.07937       0.62872
                        -----------------------------------------
Magnitude (a.u.)       :      0.77653
Magnitude (Debye)      :      1.97379

Rotational constants in cm-1:     0.015507     0.009291     0.007151
Rotational constants in MHz :   464.895934   278.537187   214.389325

                             ****ORCA TERMINATED NORMALLY****
TOTAL RUN TIME: 0 days 0 hours 0 minutes 21 seconds 488 msec
