                         Program Version 4.2.1 -  RELEASE  -
|  1> ! wB97X-D3 SP def2-SVP
|  2> %pal
|  3> nprocs 24
|  4> end
|  5>
|  6> * xyz 0 1
|  7> S 	 -118.943 	 24.2425 	 -15.9637
|  8> C 	 -118.575 	 24.9349 	 -17.5688
|  9> C 	 -117.899 	 26.1472 	 -17.3311
| 10> C 	 -117.912 	 26.6092 	 -15.9494
| 11> C 	 -118.573 	 25.7184 	 -15.0792
| 12> H 	 -117.622 	 27.5325 	 -15.5224
| 13> C 	 -117.24 	 26.9737 	 -18.3954
| 14> H 	 -116.837 	 27.962 	 -17.9185
| 15> H 	 -117.945 	 27.3094 	 -19.2309
| 16> C 	 -116.116 	 26.3055 	 -19.1699
| 17> H 	 -115.275 	 26.0656 	 -18.4817
| 18> H 	 -116.418 	 25.2776 	 -19.3882
| 19> C 	 -115.806 	 27.1255 	 -20.3949
| 20> H 	 -115.6 	 28.1834 	 -20.2334
| 21> H 	 -114.967 	 26.5449 	 -20.9113
| 22> H 	 -116.756 	 27.093 	 -20.9561
| 23> S 	 -118.705 	 24.7997 	 -12.4192
| 24> C 	 -119.711 	 25.6945 	 -11.2506
| 25> C 	 -120.349 	 26.6978 	 -11.8889
| 26> C 	 -120.077 	 26.8712 	 -13.2826
| 27> C 	 -119.167 	 25.9125 	 -13.7348
| 28> H 	 -120.975 	 27.3598 	 -11.2926
| 29> C 	 -120.82 	 27.8703 	 -14.1316
| 30> H 	 -120.253 	 28.0175 	 -15.0626
| 31> H 	 -120.885 	 28.9009 	 -13.6327
| 32> C 	 -122.272 	 27.4585 	 -14.657
| 33> H 	 -122.197 	 26.4145 	 -15.0316
| 34> H 	 -122.629 	 28.0363 	 -15.4971
| 35> C 	 -123.398 	 27.7034 	 -13.5962
| 36> H 	 -123.345 	 27.0773 	 -12.7138
| 37> H 	 -124.407 	 27.6562 	 -14.1633
| 38> H 	 -123.395 	 28.7124 	 -13.0984
| 39> H 	 -118.744 	 24.4563 	 -18.5653
| 40> H 	 -119.858 	 25.3186 	 -10.2903
| 41> *
| 42>
| 43>                          ****END OF INPUT****

CARTESIAN COORDINATES (ANGSTROEM)
---------------------------------
  S    -118.943000   24.242500  -15.963700
  C    -118.575000   24.934900  -17.568800
  C    -117.899000   26.147200  -17.331100
  C    -117.912000   26.609200  -15.949400
  C    -118.573000   25.718400  -15.079200
  H    -117.622000   27.532500  -15.522400
  C    -117.240000   26.973700  -18.395400
  H    -116.837000   27.962000  -17.918500
  H    -117.945000   27.309400  -19.230900
  C    -116.116000   26.305500  -19.169900
  H    -115.275000   26.065600  -18.481700
  H    -116.418000   25.277600  -19.388200
  C    -115.806000   27.125500  -20.394900
  H    -115.600000   28.183400  -20.233400
  H    -114.967000   26.544900  -20.911300
  H    -116.756000   27.093000  -20.956100
  S    -118.705000   24.799700  -12.419200
  C    -119.711000   25.694500  -11.250600
  C    -120.349000   26.697800  -11.888900
  C    -120.077000   26.871200  -13.282600
  C    -119.167000   25.912500  -13.734800
  H    -120.975000   27.359800  -11.292600
  C    -120.820000   27.870300  -14.131600
  H    -120.253000   28.017500  -15.062600
  H    -120.885000   28.900900  -13.632700
  C    -122.272000   27.458500  -14.657000
  H    -122.197000   26.414500  -15.031600
  H    -122.629000   28.036300  -15.497100
  C    -123.398000   27.703400  -13.596200
  H    -123.345000   27.077300  -12.713800
  H    -124.407000   27.656200  -14.163300
  H    -123.395000   28.712400  -13.098400
  H    -118.744000   24.456300  -18.565300
  H    -119.858000   25.318600  -10.290300

 Total Charge           Charge          ....    0
 Multiplicity           Mult            ....    1
 Number of Electrons    NEL             ....  134
 Basis Dimension        Dim             ....  322

ORBITAL ENERGIES
----------------

  NO   OCC          E(Eh)            E(eV)
   0   2.0000     -88.965440     -2420.8727
   1   2.0000     -88.963849     -2420.8294
   2   2.0000     -10.336976      -281.2834
   3   2.0000     -10.336834      -281.2796
   4   2.0000     -10.327859      -281.0353
   5   2.0000     -10.316731      -280.7325
   6   2.0000     -10.311426      -280.5882
   7   2.0000     -10.309256      -280.5291
   8   2.0000     -10.302195      -280.3370
   9   2.0000     -10.300516      -280.2913
  10   2.0000     -10.300210      -280.2830
  11   2.0000     -10.294740      -280.1341
  12   2.0000     -10.293538      -280.1014
  13   2.0000     -10.286878      -279.9202
  14   2.0000     -10.286366      -279.9063
  15   2.0000     -10.284939      -279.8674
  16   2.0000      -8.079447      -219.8529
  17   2.0000      -8.078019      -219.8141
  18   2.0000      -6.038120      -164.3056
  19   2.0000      -6.036685      -164.2666
  20   2.0000      -6.033892      -164.1905
  21   2.0000      -6.032558      -164.1543
  22   2.0000      -6.030211      -164.0904
  23   2.0000      -6.028691      -164.0490
  24   2.0000      -1.000343       -27.2207
  25   2.0000      -0.979219       -26.6459
  26   2.0000      -0.916125       -24.9290
  27   2.0000      -0.896307       -24.3897
  28   2.0000      -0.869128       -23.6502
  29   2.0000      -0.846203       -23.0264
  30   2.0000      -0.841182       -22.8897
  31   2.0000      -0.816627       -22.2215
  32   2.0000      -0.775876       -21.1127
  33   2.0000      -0.764995       -20.8166
  34   2.0000      -0.706588       -19.2272
  35   2.0000      -0.699776       -19.0419
  36   2.0000      -0.692022       -18.8309
  37   2.0000      -0.661178       -17.9916
  38   2.0000      -0.645506       -17.5651
  39   2.0000      -0.614750       -16.7282
  40   2.0000      -0.595853       -16.2140
  41   2.0000      -0.569749       -15.5036
  42   2.0000      -0.559374       -15.2213
  43   2.0000      -0.549545       -14.9539
  44   2.0000      -0.538257       -14.6467
  45   2.0000      -0.523356       -14.2412
  46   2.0000      -0.514372       -13.9968
  47   2.0000      -0.512144       -13.9361
  48   2.0000      -0.504139       -13.7183
  49   2.0000      -0.497696       -13.5430
  50   2.0000      -0.484886       -13.1944
  51   2.0000      -0.481604       -13.1051
  52   2.0000      -0.474240       -12.9047
  53   2.0000      -0.465651       -12.6710
  54   2.0000      -0.455696       -12.4001
  55   2.0000      -0.443024       -12.0553
  56   2.0000      -0.439560       -11.9610
  57   2.0000      -0.436897       -11.8886
  58   2.0000      -0.432541       -11.7700
  59   2.0000      -0.422798       -11.5049
  60   2.0000      -0.415658       -11.3106
  61   2.0000      -0.406476       -11.0608
  62   2.0000      -0.404849       -11.0165
  63   2.0000      -0.342863        -9.3298
  64   2.0000      -0.330617        -8.9965
  65   2.0000      -0.328473        -8.9382
  66   2.0000      -0.297622        -8.0987
  67   0.0000       0.025969         0.7066
  68   0.0000       0.053339         1.4514
  69   0.0000       0.105187         2.8623
  70   0.0000       0.119235         3.2446
  71   0.0000       0.122870         3.3435

MULLIKEN ATOMIC CHARGES
-----------------------
   0 S :    0.098070
   1 C :   -0.132120
   2 C :   -0.073609
   3 C :    0.068093
   4 C :   -0.162492
   5 H :    0.005614
   6 C :   -0.020183
   7 H :    0.038325
   8 H :    0.036339
   9 C :   -0.079852
  10 H :    0.029044
  11 H :    0.016531
  12 C :   -0.045678
  13 H :    0.041614
  14 H :    0.053442
  15 H :    0.030800
  16 S :    0.083013
  17 C :   -0.069782
  18 C :   -0.023648
  19 C :   -0.001610
  20 C :   -0.162417
  21 H :    0.020364
  22 C :    0.022514
  23 H :    0.029391
  24 H :    0.040954
  25 C :   -0.052856
  26 H :    0.045972
  27 H :    0.031890
  28 C :   -0.101415
  29 H :    0.037099
  30 H :    0.048384
  31 H :    0.027807
  32 H :    0.077405
  33 H :    0.042997
Sum of atomic charges:   -0.0000000

LOEWDIN ATOMIC CHARGES
----------------------
   0 S :    0.391419
   1 C :   -0.194821
   2 C :   -0.065686
   3 C :   -0.055920
   4 C :   -0.189028
   5 H :    0.027681
   6 C :   -0.049637
   7 H :    0.036754
   8 H :    0.034667
   9 C :   -0.053257
  10 H :    0.025318
  11 H :    0.020447
  12 C :   -0.067803
  13 H :    0.026483
  14 H :    0.039454
  15 H :    0.027855
  16 S :    0.372180
  17 C :   -0.157520
  18 C :   -0.068472
  19 C :   -0.057457
  20 C :   -0.187560
  21 H :    0.032590
  22 C :   -0.040934
  23 H :    0.033307
  24 H :    0.037187
  25 C :   -0.036348
  26 H :    0.032906
  27 H :    0.024591
  28 C :   -0.083890
  29 H :    0.019229
  30 H :    0.036518
  31 H :    0.026551
  32 H :    0.043721
  33 H :    0.019473

  Mayer bond orders larger than 0.100000
B(  0-S ,  1-C ) :   1.1311 B(  0-S ,  4-C ) :   1.1611 B(  1-C ,  2-C ) :   1.5831
B(  1-C ,  4-C ) :   0.1038 B(  1-C , 32-H ) :   0.9686 B(  2-C ,  3-C ) :   1.2207
B(  2-C ,  6-C ) :   1.0256 B(  3-C ,  4-C ) :   1.5723 B(  3-C ,  5-H ) :   1.0038
B(  4-C , 20-C ) :   1.0026 B(  6-C ,  7-H ) :   0.9455 B(  6-C ,  8-H ) :   0.9434
B(  6-C ,  9-C ) :   1.0537 B(  9-C , 10-H ) :   0.9488 B(  9-C , 11-H ) :   0.9556
B(  9-C , 12-C ) :   1.0658 B( 12-C , 13-H ) :   0.9749 B( 12-C , 14-H ) :   0.9710
B( 12-C , 15-H ) :   0.9713 B( 16-S , 17-C ) :   1.1316 B( 16-S , 20-C ) :   1.1415
B( 17-C , 18-C ) :   1.6293 B( 17-C , 33-H ) :   0.9782 B( 18-C , 19-C ) :   1.2205
B( 18-C , 21-H ) :   0.9853 B( 19-C , 20-C ) :   1.5988 B( 19-C , 22-C ) :   1.0590
B( 22-C , 23-H ) :   0.9270 B( 22-C , 24-H ) :   0.9399 B( 22-C , 25-C ) :   1.0590
B( 25-C , 26-H ) :   0.9544 B( 25-C , 27-H ) :   0.9618 B( 25-C , 28-C ) :   1.0634
B( 28-C , 29-H ) :   0.9768 B( 28-C , 30-H ) :   0.9760 B( 28-C , 31-H ) :   0.9743

Dispersion correction           -0.014086997
FINAL SINGLE POINT ENERGY     -1339.861509548714

DIPOLE MOMENT
-------------
                                X             Y             Z
Electronic contribution:      4.35327     -16.78697      17.17712
Nuclear contribution   :     -4.53943      17.32012     -17.48142
                        -----------------------------------------
Total Dipole Moment    :     -0.18616       0.53315      -0.30429
                        -----------------------------------------
Magnitude (a.u.)       :      0.64149
Magnitude (Debye)      :      1.63053

Rotational constants in cm-1:     0.022346     0.007104     0.006144
Rotational constants in MHz :   669.907073   212.966266   184.201949

                             ****ORCA TERMINATED NORMALLY****
TOTAL RUN TIME: 0 days 0 hours 0 minutes 20 seconds 947 msec
