                         Program Version 4.2.1 -  RELEASE  -
|  1> ! wB97X-D3 SP def2-SVP
|  2> %pal
|  3> nprocs 24
|  4> end
|  5>
|  6> * xyz 0 1
|  7> S 	 -131.934 	 8.46843 	 -7.40771
|  8> C 	 -130.79 	 7.18719 	 -7.23086
|  9> C 	 -129.947 	 7.01345 	 -8.32305
| 10> C 	 -130.079 	 8.14517 	 -9.15851
| 11> C 	 -131.135 	 8.99837 	 -8.87881
| 12> H 	 -129.431 	 8.47573 	 -10.0077
| 13> C 	 -128.929 	 5.87771 	 -8.56346
| 14> H 	 -128.989 	 5.53907 	 -9.63467
| 15> H 	 -129.155 	 5.04531 	 -7.92963
| 16> C 	 -127.472 	 6.31176 	 -8.39305
| 17> H 	 -126.808 	 5.58124 	 -8.89087
| 18> H 	 -127.275 	 7.30447 	 -8.74922
| 19> C 	 -127.039 	 6.35165 	 -6.88244
| 20> H 	 -127.376 	 7.17133 	 -6.23522
| 21> H 	 -127.253 	 5.40498 	 -6.3638
| 22> H 	 -125.991 	 6.53916 	 -6.8428
| 23> S 	 -132.253 	 11.384 	 -8.38499
| 24> C 	 -132.487 	 12.5168 	 -9.62456
| 25> C 	 -132.07 	 12.0238 	 -10.8336
| 26> C 	 -131.575 	 10.6902 	 -10.7969
| 27> C 	 -131.599 	 10.2078 	 -9.5197
| 28> H 	 -132.091 	 12.6382 	 -11.7273
| 29> C 	 -131.096 	 10.093 	 -12.0774
| 30> H 	 -130.091 	 9.74099 	 -11.9961
| 31> H 	 -130.974 	 10.9301 	 -12.741
| 32> C 	 -132.015 	 9.00727 	 -12.5779
| 33> H 	 -132.226 	 8.24785 	 -11.8623
| 34> H 	 -131.476 	 8.50772 	 -13.387
| 35> C 	 -133.44 	 9.41783 	 -12.952
| 36> H 	 -133.982 	 8.64535 	 -13.5128
| 37> H 	 -133.502 	 10.2945 	 -13.5256
| 38> H 	 -133.961 	 9.58623 	 -12.0372
| 39> H 	 -130.876 	 6.52654 	 -6.35362
| 40> H 	 -132.859 	 13.4771 	 -9.52366
| 41> *
| 42>
| 43>                          ****END OF INPUT****

CARTESIAN COORDINATES (ANGSTROEM)
---------------------------------
  S    -131.934000    8.468430   -7.407710
  C    -130.790000    7.187190   -7.230860
  C    -129.947000    7.013450   -8.323050
  C    -130.079000    8.145170   -9.158510
  C    -131.135000    8.998370   -8.878810
  H    -129.431000    8.475730  -10.007700
  C    -128.929000    5.877710   -8.563460
  H    -128.989000    5.539070   -9.634670
  H    -129.155000    5.045310   -7.929630
  C    -127.472000    6.311760   -8.393050
  H    -126.808000    5.581240   -8.890870
  H    -127.275000    7.304470   -8.749220
  C    -127.039000    6.351650   -6.882440
  H    -127.376000    7.171330   -6.235220
  H    -127.253000    5.404980   -6.363800
  H    -125.991000    6.539160   -6.842800
  S    -132.253000   11.384000   -8.384990
  C    -132.487000   12.516800   -9.624560
  C    -132.070000   12.023800  -10.833600
  C    -131.575000   10.690200  -10.796900
  C    -131.599000   10.207800   -9.519700
  H    -132.091000   12.638200  -11.727300
  C    -131.096000   10.093000  -12.077400
  H    -130.091000    9.740990  -11.996100
  H    -130.974000   10.930100  -12.741000
  C    -132.015000    9.007270  -12.577900
  H    -132.226000    8.247850  -11.862300
  H    -131.476000    8.507720  -13.387000
  C    -133.440000    9.417830  -12.952000
  H    -133.982000    8.645350  -13.512800
  H    -133.502000   10.294500  -13.525600
  H    -133.961000    9.586230  -12.037200
  H    -130.876000    6.526540   -6.353620
  H    -132.859000   13.477100   -9.523660

 Total Charge           Charge          ....    0
 Multiplicity           Mult            ....    1
 Number of Electrons    NEL             ....  134
 Basis Dimension        Dim             ....  322

ORBITAL ENERGIES
----------------

  NO   OCC          E(Eh)            E(eV)
   0   2.0000     -88.963412     -2420.8175
   1   2.0000     -88.963362     -2420.8162
   2   2.0000     -10.325826      -280.9800
   3   2.0000     -10.323267      -280.9104
   4   2.0000     -10.314259      -280.6653
   5   2.0000     -10.306435      -280.4524
   6   2.0000     -10.305011      -280.4136
   7   2.0000     -10.298056      -280.2244
   8   2.0000     -10.296770      -280.1894
   9   2.0000     -10.294724      -280.1337
  10   2.0000     -10.290470      -280.0179
  11   2.0000     -10.287520      -279.9377
  12   2.0000     -10.286838      -279.9191
  13   2.0000     -10.278593      -279.6947
  14   2.0000     -10.274273      -279.5772
  15   2.0000     -10.265883      -279.3489
  16   2.0000      -8.079245      -219.8474
  17   2.0000      -8.078731      -219.8334
  18   2.0000      -6.037698      -164.2941
  19   2.0000      -6.037067      -164.2769
  20   2.0000      -6.033550      -164.1813
  21   2.0000      -6.033236      -164.1727
  22   2.0000      -6.030021      -164.0852
  23   2.0000      -6.029564      -164.0728
  24   2.0000      -1.013456       -27.5775
  25   2.0000      -0.988648       -26.9025
  26   2.0000      -0.918201       -24.9855
  27   2.0000      -0.908809       -24.7299
  28   2.0000      -0.869327       -23.6556
  29   2.0000      -0.854747       -23.2588
  30   2.0000      -0.843180       -22.9441
  31   2.0000      -0.810675       -22.0596
  32   2.0000      -0.789907       -21.4945
  33   2.0000      -0.777641       -21.1607
  34   2.0000      -0.712037       -19.3755
  35   2.0000      -0.701032       -19.0761
  36   2.0000      -0.688401       -18.7323
  37   2.0000      -0.668510       -18.1911
  38   2.0000      -0.641896       -17.4669
  39   2.0000      -0.619787       -16.8653
  40   2.0000      -0.602629       -16.3984
  41   2.0000      -0.565648       -15.3921
  42   2.0000      -0.552160       -15.0250
  43   2.0000      -0.550210       -14.9720
  44   2.0000      -0.544662       -14.8210
  45   2.0000      -0.532782       -14.4977
  46   2.0000      -0.524496       -14.2723
  47   2.0000      -0.511367       -13.9150
  48   2.0000      -0.501922       -13.6580
  49   2.0000      -0.499040       -13.5796
  50   2.0000      -0.486360       -13.2345
  51   2.0000      -0.481390       -13.0993
  52   2.0000      -0.473948       -12.8968
  53   2.0000      -0.466912       -12.7053
  54   2.0000      -0.460550       -12.5322
  55   2.0000      -0.447688       -12.1822
  56   2.0000      -0.445338       -12.1183
  57   2.0000      -0.440441       -11.9850
  58   2.0000      -0.433095       -11.7851
  59   2.0000      -0.421975       -11.4825
  60   2.0000      -0.420704       -11.4479
  61   2.0000      -0.417592       -11.3633
  62   2.0000      -0.412389       -11.2217
  63   2.0000      -0.355235        -9.6664
  64   2.0000      -0.333413        -9.0726
  65   2.0000      -0.330174        -8.9845
  66   2.0000      -0.282576        -7.6893
  67   0.0000       0.026248         0.7142
  68   0.0000       0.081903         2.2287
  69   0.0000       0.101379         2.7587
  70   0.0000       0.117401         3.1946
  71   0.0000       0.139284         3.7901

MULLIKEN ATOMIC CHARGES
-----------------------
   0 S :    0.097635
   1 C :   -0.138051
   2 C :   -0.067364
   3 C :   -0.013850
   4 C :   -0.139573
   5 H :    0.020709
   6 C :    0.089863
   7 H :    0.040196
   8 H :    0.017618
   9 C :   -0.070338
  10 H :    0.037579
  11 H :    0.032580
  12 C :   -0.074978
  13 H :    0.038951
  14 H :    0.028392
  15 H :    0.019945
  16 S :    0.105477
  17 C :   -0.041516
  18 C :   -0.056526
  19 C :   -0.068057
  20 C :   -0.141743
  21 H :    0.013210
  22 C :    0.122364
  23 H :    0.016198
  24 H :    0.006585
  25 C :   -0.055093
  26 H :    0.030969
  27 H :    0.021243
  28 C :   -0.035712
  29 H :    0.034267
  30 H :    0.010735
  31 H :    0.036403
  32 H :    0.056684
  33 H :    0.025196
Sum of atomic charges:   -0.0000000

LOEWDIN ATOMIC CHARGES
----------------------
   0 S :    0.403162
   1 C :   -0.202222
   2 C :   -0.062703
   3 C :   -0.073440
   4 C :   -0.192254
   5 H :    0.036095
   6 C :   -0.026536
   7 H :    0.039724
   8 H :    0.025678
   9 C :   -0.034834
  10 H :    0.028221
  11 H :    0.023309
  12 C :   -0.074042
  13 H :    0.028247
  14 H :    0.022171
  15 H :    0.021073
  16 S :    0.422416
  17 C :   -0.189472
  18 C :   -0.071999
  19 C :   -0.057998
  20 C :   -0.193624
  21 H :    0.028504
  22 C :   -0.025230
  23 H :    0.027664
  24 H :    0.029504
  25 C :   -0.035522
  26 H :    0.026659
  27 H :    0.021740
  28 C :   -0.058778
  29 H :    0.030884
  30 H :    0.012308
  31 H :    0.025956
  32 H :    0.028307
  33 H :    0.017033

  Mayer bond orders larger than 0.100000
B(  0-S ,  1-C ) :   1.1554 B(  0-S ,  4-C ) :   1.1399 B(  1-C ,  2-C ) :   1.5964
B(  1-C ,  4-C ) :   0.1006 B(  1-C , 32-H ) :   0.9645 B(  2-C ,  3-C ) :   1.2318
B(  2-C ,  6-C ) :   1.0288 B(  3-C ,  4-C ) :   1.6052 B(  3-C ,  5-H ) :   0.9784
B(  4-C , 20-C ) :   1.0576 B(  6-C ,  7-H ) :   0.9390 B(  6-C ,  8-H ) :   0.9439
B(  6-C ,  9-C ) :   1.0688 B(  9-C , 10-H ) :   0.9571 B(  9-C , 11-H ) :   0.9592
B(  9-C , 12-C ) :   1.0703 B( 12-C , 13-H ) :   0.9768 B( 12-C , 14-H ) :   0.9776
B( 12-C , 15-H ) :   0.9737 B( 16-S , 17-C ) :   1.1590 B( 16-S , 20-C ) :   1.1418
B( 17-C , 18-C ) :   1.6026 B( 17-C , 33-H ) :   0.9750 B( 18-C , 19-C ) :   1.2468
B( 18-C , 21-H ) :   0.9871 B( 19-C , 20-C ) :   1.5982 B( 19-C , 22-C ) :   1.0374
B( 22-C , 23-H ) :   0.9250 B( 22-C , 24-H ) :   0.9273 B( 22-C , 25-C ) :   1.0733
B( 25-C , 26-H ) :   0.9607 B( 25-C , 27-H ) :   0.9564 B( 25-C , 28-C ) :   1.0685
B( 28-C , 29-H ) :   0.9732 B( 28-C , 30-H ) :   0.9775 B( 28-C , 31-H ) :   0.9750

Dispersion correction           -0.014581118
FINAL SINGLE POINT ENERGY     -1339.884343703911

DIPOLE MOMENT
-------------
                                X             Y             Z
Electronic contribution:    -12.78661      12.91170      13.26685
Nuclear contribution   :     13.19367     -13.04766     -13.71652
                        -----------------------------------------
Total Dipole Moment    :      0.40705      -0.13597      -0.44967
                        -----------------------------------------
Magnitude (a.u.)       :      0.62160
Magnitude (Debye)      :      1.57998

Rotational constants in cm-1:     0.021319     0.008256     0.006986
Rotational constants in MHz :   639.126030   247.515156   209.443785

                             ****ORCA TERMINATED NORMALLY****
TOTAL RUN TIME: 0 days 0 hours 0 minutes 21 seconds 927 msec
