                         Program Version 4.2.1 -  RELEASE  -
|  1> ! wB97X-D3 SP def2-SVP
|  2> %pal
|  3> nprocs 24
|  4> end
|  5>
|  6> * xyz 0 1
|  7> S 	 -99.1601 	 1.63877 	 -119.26
|  8> C 	 -99.8791 	 2.82923 	 -120.295
|  9> C 	 -100.796 	 3.59666 	 -119.643
| 10> C 	 -100.911 	 3.2265 	 -118.252
| 11> C 	 -100.174 	 2.08882 	 -117.972
| 12> H 	 -101.447 	 3.68092 	 -117.557
| 13> C 	 -101.741 	 4.67136 	 -120.211
| 14> H 	 -100.937 	 5.35754 	 -120.492
| 15> H 	 -102.269 	 5.12665 	 -119.376
| 16> C 	 -102.774 	 4.2873 	 -121.311
| 17> H 	 -103.086 	 3.29045 	 -121.088
| 18> H 	 -103.667 	 4.91528 	 -121.379
| 19> C 	 -101.951 	 4.33712 	 -122.68
| 20> H 	 -102.587 	 4.14107 	 -123.513
| 21> H 	 -101.475 	 5.28306 	 -122.88
| 22> H 	 -101.093 	 3.66981 	 -122.659
| 23> S 	 -98.7733 	 1.80182 	 -115.739
| 24> C 	 -99.3608 	 0.932217 	 -114.392
| 25> C 	 -100.696 	 0.644286 	 -114.581
| 26> C 	 -101.166 	 0.898881 	 -115.934
| 27> C 	 -100.163 	 1.469 	 -116.668
| 28> H 	 -101.321 	 0.259798 	 -113.787
| 29> C 	 -102.551 	 0.537987 	 -116.38
| 30> H 	 -102.681 	 -0.52447 	 -116.163
| 31> H 	 -102.578 	 0.621558 	 -117.483
| 32> C 	 -103.726 	 1.39659 	 -115.944
| 33> H 	 -103.525 	 2.4105 	 -116.241
| 34> H 	 -103.867 	 1.41351 	 -114.847
| 35> C 	 -104.963 	 0.8261 	 -116.603
| 36> H 	 -104.905 	 0.921852 	 -117.627
| 37> H 	 -105.914 	 1.38841 	 -116.35
| 38> H 	 -105 	 -0.222511 	 -116.348
| 39> H 	 -99.666 	 3.01148 	 -121.296
| 40> H 	 -98.9491 	 0.929551 	 -113.351
| 41> *
| 42>
| 43>                          ****END OF INPUT****

CARTESIAN COORDINATES (ANGSTROEM)
---------------------------------
  S    -99.160100    1.638770  -119.260000
  C    -99.879100    2.829230  -120.295000
  C    -100.796000    3.596660  -119.643000
  C    -100.911000    3.226500  -118.252000
  C    -100.174000    2.088820  -117.972000
  H    -101.447000    3.680920  -117.557000
  C    -101.741000    4.671360  -120.211000
  H    -100.937000    5.357540  -120.492000
  H    -102.269000    5.126650  -119.376000
  C    -102.774000    4.287300  -121.311000
  H    -103.086000    3.290450  -121.088000
  H    -103.667000    4.915280  -121.379000
  C    -101.951000    4.337120  -122.680000
  H    -102.587000    4.141070  -123.513000
  H    -101.475000    5.283060  -122.880000
  H    -101.093000    3.669810  -122.659000
  S    -98.773300    1.801820  -115.739000
  C    -99.360800    0.932217  -114.392000
  C    -100.696000    0.644286  -114.581000
  C    -101.166000    0.898881  -115.934000
  C    -100.163000    1.469000  -116.668000
  H    -101.321000    0.259798  -113.787000
  C    -102.551000    0.537987  -116.380000
  H    -102.681000   -0.524470  -116.163000
  H    -102.578000    0.621558  -117.483000
  C    -103.726000    1.396590  -115.944000
  H    -103.525000    2.410500  -116.241000
  H    -103.867000    1.413510  -114.847000
  C    -104.963000    0.826100  -116.603000
  H    -104.905000    0.921852  -117.627000
  H    -105.914000    1.388410  -116.350000
  H    -105.000000   -0.222511  -116.348000
  H    -99.666000    3.011480  -121.296000
  H    -98.949100    0.929551  -113.351000

 Total Charge           Charge          ....    0
 Multiplicity           Mult            ....    1
 Number of Electrons    NEL             ....  134
 Basis Dimension        Dim             ....  322

ORBITAL ENERGIES
----------------

  NO   OCC          E(Eh)            E(eV)
   0   2.0000     -88.967523     -2420.9294
   1   2.0000     -88.961106     -2420.7548
   2   2.0000     -10.321340      -280.8579
   3   2.0000     -10.316404      -280.7236
   4   2.0000     -10.313215      -280.6368
   5   2.0000     -10.304585      -280.4020
   6   2.0000     -10.299125      -280.2534
   7   2.0000     -10.299054      -280.2515
   8   2.0000     -10.295843      -280.1641
   9   2.0000     -10.293622      -280.1037
  10   2.0000     -10.290861      -280.0286
  11   2.0000     -10.289033      -279.9788
  12   2.0000     -10.284932      -279.8672
  13   2.0000     -10.282548      -279.8024
  14   2.0000     -10.278859      -279.7020
  15   2.0000     -10.273949      -279.5684
  16   2.0000      -8.083273      -219.9570
  17   2.0000      -8.077647      -219.8040
  18   2.0000      -6.041724      -164.4037
  19   2.0000      -6.037594      -164.2913
  20   2.0000      -6.036095      -164.2505
  21   2.0000      -6.034081      -164.1957
  22   2.0000      -6.031908      -164.1366
  23   2.0000      -6.028336      -164.0394
  24   2.0000      -1.017164       -27.6784
  25   2.0000      -0.991761       -26.9872
  26   2.0000      -0.917471       -24.9657
  27   2.0000      -0.908595       -24.7241
  28   2.0000      -0.871158       -23.7054
  29   2.0000      -0.854911       -23.2633
  30   2.0000      -0.849330       -23.1114
  31   2.0000      -0.811979       -22.0951
  32   2.0000      -0.782633       -21.2965
  33   2.0000      -0.773902       -21.0589
  34   2.0000      -0.714832       -19.4516
  35   2.0000      -0.706774       -19.2323
  36   2.0000      -0.696230       -18.9454
  37   2.0000      -0.662693       -18.0328
  38   2.0000      -0.651470       -17.7274
  39   2.0000      -0.613723       -16.7003
  40   2.0000      -0.595465       -16.2034
  41   2.0000      -0.575620       -15.6634
  42   2.0000      -0.571359       -15.5475
  43   2.0000      -0.547501       -14.8983
  44   2.0000      -0.541317       -14.7300
  45   2.0000      -0.527059       -14.3420
  46   2.0000      -0.520048       -14.1512
  47   2.0000      -0.514169       -13.9913
  48   2.0000      -0.507349       -13.8057
  49   2.0000      -0.497048       -13.5254
  50   2.0000      -0.488649       -13.2968
  51   2.0000      -0.481604       -13.1051
  52   2.0000      -0.477128       -12.9833
  53   2.0000      -0.466186       -12.6856
  54   2.0000      -0.463045       -12.6001
  55   2.0000      -0.454172       -12.3586
  56   2.0000      -0.447786       -12.1849
  57   2.0000      -0.443670       -12.0729
  58   2.0000      -0.441713       -12.0196
  59   2.0000      -0.423523       -11.5247
  60   2.0000      -0.418837       -11.3971
  61   2.0000      -0.417634       -11.3644
  62   2.0000      -0.409306       -11.1378
  63   2.0000      -0.337490        -9.1836
  64   2.0000      -0.328936        -8.9508
  65   2.0000      -0.322912        -8.7869
  66   2.0000      -0.306844        -8.3496
  67   0.0000       0.044132         1.2009
  68   0.0000       0.066970         1.8223
  69   0.0000       0.120148         3.2694
  70   0.0000       0.123601         3.3633
  71   0.0000       0.131329         3.5736

MULLIKEN ATOMIC CHARGES
-----------------------
   0 S :    0.137768
   1 C :   -0.104774
   2 C :   -0.098537
   3 C :    0.090830
   4 C :   -0.175390
   5 H :   -0.052259
   6 C :    0.050502
   7 H :    0.039746
   8 H :    0.016615
   9 C :   -0.021789
  10 H :    0.033921
  11 H :    0.041912
  12 C :   -0.056152
  13 H :    0.029441
  14 H :    0.023419
  15 H :    0.018708
  16 S :    0.119112
  17 C :   -0.089256
  18 C :   -0.056075
  19 C :   -0.013871
  20 C :   -0.170022
  21 H :    0.014916
  22 C :    0.018708
  23 H :    0.030926
  24 H :    0.024475
  25 C :   -0.048596
  26 H :    0.017327
  27 H :    0.028909
  28 C :   -0.014583
  29 H :    0.009758
  30 H :    0.039044
  31 H :    0.026704
  32 H :    0.014309
  33 H :    0.074253
Sum of atomic charges:    0.0000000

LOEWDIN ATOMIC CHARGES
----------------------
   0 S :    0.438921
   1 C :   -0.204188
   2 C :   -0.054110
   3 C :   -0.042025
   4 C :   -0.213426
   5 H :    0.003334
   6 C :   -0.033791
   7 H :    0.036297
   8 H :    0.026612
   9 C :   -0.025843
  10 H :    0.023823
  11 H :    0.027671
  12 C :   -0.062140
  13 H :    0.019473
  14 H :    0.022828
  15 H :    0.021481
  16 S :    0.441438
  17 C :   -0.215027
  18 C :   -0.069472
  19 C :   -0.058740
  20 C :   -0.214935
  21 H :    0.027057
  22 C :   -0.036951
  23 H :    0.032144
  24 H :    0.035067
  25 C :   -0.036103
  26 H :    0.019477
  27 H :    0.022633
  28 C :   -0.058044
  29 H :    0.012890
  30 H :    0.033338
  31 H :    0.025935
  32 H :    0.011643
  33 H :    0.042734

  Mayer bond orders larger than 0.100000
B(  0-S ,  1-C ) :   1.1309 B(  0-S ,  4-C ) :   1.1736 B(  1-C ,  2-C ) :   1.6301
B(  1-C , 32-H ) :   0.9706 B(  2-C ,  3-C ) :   1.2326 B(  2-C ,  6-C ) :   0.9989
B(  3-C ,  4-C ) :   1.5618 B(  3-C ,  5-H ) :   1.0208 B(  4-C , 20-C ) :   0.9970
B(  6-C ,  7-H ) :   0.9408 B(  6-C ,  8-H ) :   0.9446 B(  6-C ,  9-C ) :   1.0455
B(  9-C , 10-H ) :   0.9598 B(  9-C , 11-H ) :   0.9624 B(  9-C , 12-C ) :   1.0629
B( 12-C , 13-H ) :   0.9741 B( 12-C , 14-H ) :   0.9780 B( 12-C , 15-H ) :   0.9780
B( 16-S , 17-C ) :   1.1538 B( 16-S , 20-C ) :   1.1759 B( 17-C , 18-C ) :   1.6136
B( 17-C , 33-H ) :   0.9599 B( 18-C , 19-C ) :   1.2340 B( 18-C , 21-H ) :   0.9891
B( 19-C , 20-C ) :   1.6103 B( 19-C , 22-C ) :   1.0480 B( 22-C , 23-H ) :   0.9327
B( 22-C , 24-H ) :   0.9333 B( 22-C , 25-C ) :   1.0657 B( 25-C , 26-H ) :   0.9482
B( 25-C , 27-H ) :   0.9540 B( 25-C , 28-C ) :   1.0853 B( 28-C , 29-H ) :   0.9732
B( 28-C , 30-H ) :   0.9709 B( 28-C , 31-H ) :   0.9711

Dispersion correction           -0.014376895
FINAL SINGLE POINT ENERGY     -1339.861837954708

DIPOLE MOMENT
-------------
                                X             Y             Z
Electronic contribution:     26.13896      -6.30461      10.42683
Nuclear contribution   :    -26.82181       6.62190     -10.44493
                        -----------------------------------------
Total Dipole Moment    :     -0.68285       0.31729      -0.01810
                        -----------------------------------------
Magnitude (a.u.)       :      0.75318
Magnitude (Debye)      :      1.91443

Rotational constants in cm-1:     0.018806     0.008993     0.006665
Rotational constants in MHz :   563.787788   269.594060   199.812490

                             ****ORCA TERMINATED NORMALLY****
TOTAL RUN TIME: 0 days 0 hours 0 minutes 21 seconds 956 msec
