                         Program Version 4.2.1 -  RELEASE  -
|  1> ! wB97X-D3 SP def2-SVP
|  2> %pal
|  3> nprocs 24
|  4> end
|  5>
|  6> * xyz 0 1
|  7> S 	 -39.1946 	 -44.8212 	 -76.8159
|  8> C 	 -39.9432 	 -43.2704 	 -77.0948
|  9> C 	 -39.1135 	 -42.2523 	 -77.4692
| 10> C 	 -37.7818 	 -42.7009 	 -77.5096
| 11> C 	 -37.6026 	 -44.0476 	 -77.3396
| 12> H 	 -36.8946 	 -42.1463 	 -77.7975
| 13> C 	 -39.6049 	 -40.844 	 -77.6317
| 14> H 	 -40.5687 	 -40.9282 	 -78.1352
| 15> H 	 -38.9267 	 -40.2833 	 -78.3427
| 16> C 	 -39.7404 	 -40.0363 	 -76.2808
| 17> H 	 -40.203 	 -40.7005 	 -75.4869
| 18> H 	 -38.826 	 -39.6828 	 -75.8891
| 19> C 	 -40.5862 	 -38.7464 	 -76.398
| 20> H 	 -41.7045 	 -38.9219 	 -76.541
| 21> H 	 -40.5395 	 -38.2443 	 -75.4592
| 22> H 	 -40.0934 	 -38.134 	 -77.1707
| 23> S 	 -35.9346 	 -45.7017 	 -78.8543
| 24> C 	 -34.3186 	 -46.1525 	 -78.1845
| 25> C 	 -34.1842 	 -45.5618 	 -76.95
| 26> C 	 -35.3219 	 -44.8084 	 -76.4983
| 27> C 	 -36.3508 	 -44.7892 	 -77.4029
| 28> H 	 -33.3463 	 -45.7519 	 -76.3535
| 29> C 	 -35.3769 	 -44.0419 	 -75.1722
| 30> H 	 -35.1878 	 -44.8827 	 -74.5297
| 31> H 	 -36.4099 	 -43.8221 	 -74.8428
| 32> C 	 -34.4243 	 -42.8082 	 -75.1013
| 33> H 	 -34.7712 	 -42.1192 	 -75.8107
| 34> H 	 -33.3965 	 -43.0574 	 -75.493
| 35> C 	 -34.3851 	 -42.1805 	 -73.7267
| 36> H 	 -33.9526 	 -42.8622 	 -73.0364
| 37> H 	 -35.2879 	 -41.7295 	 -73.2826
| 38> H 	 -33.6632 	 -41.3416 	 -73.8425
| 39> H 	 -40.9465 	 -42.9711 	 -76.7822
| 40> H 	 -33.5348 	 -46.6261 	 -78.719
| 41> *
| 42>
| 43>                          ****END OF INPUT****

CARTESIAN COORDINATES (ANGSTROEM)
---------------------------------
  S    -39.194600  -44.821200  -76.815900
  C    -39.943200  -43.270400  -77.094800
  C    -39.113500  -42.252300  -77.469200
  C    -37.781800  -42.700900  -77.509600
  C    -37.602600  -44.047600  -77.339600
  H    -36.894600  -42.146300  -77.797500
  C    -39.604900  -40.844000  -77.631700
  H    -40.568700  -40.928200  -78.135200
  H    -38.926700  -40.283300  -78.342700
  C    -39.740400  -40.036300  -76.280800
  H    -40.203000  -40.700500  -75.486900
  H    -38.826000  -39.682800  -75.889100
  C    -40.586200  -38.746400  -76.398000
  H    -41.704500  -38.921900  -76.541000
  H    -40.539500  -38.244300  -75.459200
  H    -40.093400  -38.134000  -77.170700
  S    -35.934600  -45.701700  -78.854300
  C    -34.318600  -46.152500  -78.184500
  C    -34.184200  -45.561800  -76.950000
  C    -35.321900  -44.808400  -76.498300
  C    -36.350800  -44.789200  -77.402900
  H    -33.346300  -45.751900  -76.353500
  C    -35.376900  -44.041900  -75.172200
  H    -35.187800  -44.882700  -74.529700
  H    -36.409900  -43.822100  -74.842800
  C    -34.424300  -42.808200  -75.101300
  H    -34.771200  -42.119200  -75.810700
  H    -33.396500  -43.057400  -75.493000
  C    -34.385100  -42.180500  -73.726700
  H    -33.952600  -42.862200  -73.036400
  H    -35.287900  -41.729500  -73.282600
  H    -33.663200  -41.341600  -73.842500
  H    -40.946500  -42.971100  -76.782200
  H    -33.534800  -46.626100  -78.719000

 Total Charge           Charge          ....    0
 Multiplicity           Mult            ....    1
 Number of Electrons    NEL             ....  134
 Basis Dimension        Dim             ....  322

ORBITAL ENERGIES
----------------

  NO   OCC          E(Eh)            E(eV)
   0   2.0000     -88.966840     -2420.9108
   1   2.0000     -88.960899     -2420.7491
   2   2.0000     -10.330611      -281.1102
   3   2.0000     -10.321685      -280.8673
   4   2.0000     -10.320821      -280.8438
   5   2.0000     -10.310920      -280.5744
   6   2.0000     -10.300874      -280.3010
   7   2.0000     -10.300307      -280.2856
   8   2.0000     -10.294866      -280.1375
   9   2.0000     -10.293650      -280.1044
  10   2.0000     -10.292961      -280.0857
  11   2.0000     -10.292013      -280.0599
  12   2.0000     -10.290105      -280.0080
  13   2.0000     -10.289592      -279.9940
  14   2.0000     -10.284271      -279.8492
  15   2.0000     -10.278386      -279.6891
  16   2.0000      -8.080188      -219.8731
  17   2.0000      -8.074729      -219.7245
  18   2.0000      -6.038700      -164.3214
  19   2.0000      -6.035093      -164.2232
  20   2.0000      -6.033369      -164.1763
  21   2.0000      -6.030828      -164.1072
  22   2.0000      -6.029343      -164.0668
  23   2.0000      -6.025409      -163.9597
  24   2.0000      -0.999749       -27.2046
  25   2.0000      -0.979527       -26.6543
  26   2.0000      -0.905222       -24.6323
  27   2.0000      -0.904450       -24.6113
  28   2.0000      -0.869485       -23.6599
  29   2.0000      -0.850349       -23.1392
  30   2.0000      -0.847939       -23.0736
  31   2.0000      -0.819116       -22.2893
  32   2.0000      -0.779189       -21.2028
  33   2.0000      -0.766070       -20.8458
  34   2.0000      -0.707967       -19.2648
  35   2.0000      -0.702360       -19.1122
  36   2.0000      -0.697074       -18.9683
  37   2.0000      -0.663654       -18.0589
  38   2.0000      -0.639763       -17.4088
  39   2.0000      -0.615079       -16.7371
  40   2.0000      -0.592829       -16.1317
  41   2.0000      -0.572482       -15.5780
  42   2.0000      -0.559212       -15.2169
  43   2.0000      -0.553276       -15.0554
  44   2.0000      -0.531598       -14.4655
  45   2.0000      -0.524313       -14.2673
  46   2.0000      -0.519744       -14.1430
  47   2.0000      -0.511970       -13.9314
  48   2.0000      -0.509603       -13.8670
  49   2.0000      -0.498030       -13.5521
  50   2.0000      -0.486291       -13.2327
  51   2.0000      -0.474336       -12.9073
  52   2.0000      -0.466199       -12.6859
  53   2.0000      -0.463147       -12.6029
  54   2.0000      -0.457658       -12.4535
  55   2.0000      -0.450999       -12.2723
  56   2.0000      -0.439936       -11.9713
  57   2.0000      -0.435155       -11.8412
  58   2.0000      -0.433347       -11.7920
  59   2.0000      -0.429983       -11.7004
  60   2.0000      -0.423922       -11.5355
  61   2.0000      -0.422505       -11.4969
  62   2.0000      -0.402616       -10.9557
  63   2.0000      -0.341125        -9.2825
  64   2.0000      -0.330165        -8.9843
  65   2.0000      -0.320788        -8.7291
  66   2.0000      -0.305130        -8.3030
  67   0.0000       0.042745         1.1631
  68   0.0000       0.049386         1.3438
  69   0.0000       0.108737         2.9589
  70   0.0000       0.122301         3.3280
  71   0.0000       0.128095         3.4857

MULLIKEN ATOMIC CHARGES
-----------------------
   0 S :    0.105396
   1 C :   -0.103825
   2 C :   -0.081832
   3 C :    0.048973
   4 C :   -0.183848
   5 H :    0.015858
   6 C :    0.055362
   7 H :    0.031755
   8 H :    0.033191
   9 C :   -0.075720
  10 H :    0.032978
  11 H :    0.021346
  12 C :   -0.064127
  13 H :    0.044854
  14 H :    0.028943
  15 H :    0.039319
  16 S :    0.090724
  17 C :   -0.081996
  18 C :   -0.011903
  19 C :   -0.039913
  20 C :   -0.182523
  21 H :    0.000609
  22 C :    0.076996
  23 H :    0.017914
  24 H :    0.028343
  25 C :   -0.055205
  26 H :    0.013512
  27 H :    0.033447
  28 C :   -0.032768
  29 H :    0.025874
  30 H :    0.042831
  31 H :    0.029376
  32 H :    0.042555
  33 H :    0.053503
Sum of atomic charges:    0.0000000

LOEWDIN ATOMIC CHARGES
----------------------
   0 S :    0.366469
   1 C :   -0.189962
   2 C :   -0.075828
   3 C :   -0.048703
   4 C :   -0.165906
   5 H :    0.034567
   6 C :   -0.034196
   7 H :    0.033713
   8 H :    0.035623
   9 C :   -0.038034
  10 H :    0.027263
  11 H :    0.017973
  12 C :   -0.070197
  13 H :    0.031151
  14 H :    0.022012
  15 H :    0.027695
  16 S :    0.372737
  17 C :   -0.158205
  18 C :   -0.064932
  19 C :   -0.052589
  20 C :   -0.204575
  21 H :    0.022037
  22 C :   -0.035474
  23 H :    0.029205
  24 H :    0.033976
  25 C :   -0.035736
  26 H :    0.017345
  27 H :    0.031835
  28 C :   -0.066054
  29 H :    0.020565
  30 H :    0.029742
  31 H :    0.031646
  32 H :    0.028185
  33 H :    0.026653

  Mayer bond orders larger than 0.100000
B(  0-S ,  1-C ) :   1.1407 B(  0-S ,  4-C ) :   1.1028 B(  1-C ,  2-C ) :   1.6412
B(  1-C , 32-H ) :   0.9529 B(  2-C ,  3-C ) :   1.2227 B(  2-C ,  6-C ) :   1.0308
B(  3-C ,  4-C ) :   1.6306 B(  3-C ,  5-H ) :   0.9882 B(  4-C , 20-C ) :   1.0327
B(  6-C ,  7-H ) :   0.9421 B(  6-C ,  8-H ) :   0.9369 B(  6-C ,  9-C ) :   1.0467
B(  9-C , 10-H ) :   0.9607 B(  9-C , 11-H ) :   0.9570 B(  9-C , 12-C ) :   1.0811
B( 12-C , 13-H ) :   0.9763 B( 12-C , 14-H ) :   0.9739 B( 12-C , 15-H ) :   0.9744
B( 16-S , 17-C ) :   1.1382 B( 16-S , 20-C ) :   1.1263 B( 17-C , 18-C ) :   1.6214
B( 17-C , 33-H ) :   0.9727 B( 18-C , 19-C ) :   1.2310 B( 18-C , 21-H ) :   0.9927
B( 19-C , 20-C ) :   1.6271 B( 19-C , 22-C ) :   1.0268 B( 22-C , 23-H ) :   0.9333
B( 22-C , 24-H ) :   0.9319 B( 22-C , 25-C ) :   1.0463 B( 25-C , 26-H ) :   0.9516
B( 25-C , 27-H ) :   0.9568 B( 25-C , 28-C ) :   1.0857 B( 28-C , 29-H ) :   0.9754
B( 28-C , 30-H ) :   0.9742 B( 28-C , 31-H ) :   0.9715

Dispersion correction           -0.014285853
FINAL SINGLE POINT ENERGY     -1339.872442012549

DIPOLE MOMENT
-------------
                                X             Y             Z
Electronic contribution:     -0.77310     -26.60482     -15.05665
Nuclear contribution   :      1.09728      27.30011      15.50714
                        -----------------------------------------
Total Dipole Moment    :      0.32418       0.69529       0.45049
                        -----------------------------------------
Magnitude (a.u.)       :      0.88964
Magnitude (Debye)      :      2.26130

Rotational constants in cm-1:     0.018072     0.008320     0.006476
Rotational constants in MHz :   541.793013   249.442109   194.141986

                             ****ORCA TERMINATED NORMALLY****
TOTAL RUN TIME: 0 days 0 hours 0 minutes 21 seconds 210 msec
