                         Program Version 4.2.1 -  RELEASE  -
|  1> ! wB97X-D3 SP def2-SVP
|  2> %pal
|  3> nprocs 24
|  4> end
|  5>
|  6> * xyz 0 1
|  7> S 	 5.17775 	 -21.3852 	 -113.057
|  8> C 	 4.217 	 -20.1388 	 -113.673
|  9> C 	 2.90319 	 -20.3602 	 -113.279
| 10> C 	 2.68547 	 -21.6579 	 -112.834
| 11> C 	 3.82721 	 -22.4162 	 -112.755
| 12> H 	 1.81925 	 -22.1179 	 -112.566
| 13> C 	 1.86616 	 -19.284 	 -113.295
| 14> H 	 2.35639 	 -18.3055 	 -113.378
| 15> H 	 1.38363 	 -19.1239 	 -112.287
| 16> C 	 0.766638 	 -19.3726 	 -114.335
| 17> H 	 0.284053 	 -20.3459 	 -114.192
| 18> H 	 0.0167573 	 -18.6414 	 -114.063
| 19> C 	 1.20638 	 -19.0991 	 -115.783
| 20> H 	 1.31251 	 -18.0391 	 -115.94
| 21> H 	 2.21043 	 -19.5303 	 -115.936
| 22> H 	 0.520274 	 -19.4829 	 -116.522
| 23> S 	 3.42971 	 -23.9617 	 -110.579
| 24> C 	 4.09051 	 -25.5883 	 -110.521
| 25> C 	 4.71598 	 -25.9049 	 -111.721
| 26> C 	 4.74756 	 -24.8099 	 -112.669
| 27> C 	 4.00606 	 -23.772 	 -112.212
| 28> H 	 5.2676 	 -26.8501 	 -111.756
| 29> C 	 5.37377 	 -24.8857 	 -114.059
| 30> H 	 5.35973 	 -23.9931 	 -114.712
| 31> H 	 4.74619 	 -25.6874 	 -114.605
| 32> C 	 6.80358 	 -25.3588 	 -114.149
| 33> H 	 7.06898 	 -25.5597 	 -115.2
| 34> H 	 6.94704 	 -26.2647 	 -113.643
| 35> C 	 7.82483 	 -24.319 	 -113.653
| 36> H 	 7.42455 	 -23.3653 	 -114.016
| 37> H 	 8.82464 	 -24.4791 	 -114.087
| 38> H 	 7.93434 	 -24.2143 	 -112.638
| 39> H 	 4.60452 	 -19.1662 	 -114.023
| 40> H 	 3.88811 	 -26.2445 	 -109.712
| 41> *
| 42>
| 43>                          ****END OF INPUT****

CARTESIAN COORDINATES (ANGSTROEM)
---------------------------------
  S      5.177750  -21.385200  -113.057000
  C      4.217000  -20.138800  -113.673000
  C      2.903190  -20.360200  -113.279000
  C      2.685470  -21.657900  -112.834000
  C      3.827210  -22.416200  -112.755000
  H      1.819250  -22.117900  -112.566000
  C      1.866160  -19.284000  -113.295000
  H      2.356390  -18.305500  -113.378000
  H      1.383630  -19.123900  -112.287000
  C      0.766638  -19.372600  -114.335000
  H      0.284053  -20.345900  -114.192000
  H      0.016757  -18.641400  -114.063000
  C      1.206380  -19.099100  -115.783000
  H      1.312510  -18.039100  -115.940000
  H      2.210430  -19.530300  -115.936000
  H      0.520274  -19.482900  -116.522000
  S      3.429710  -23.961700  -110.579000
  C      4.090510  -25.588300  -110.521000
  C      4.715980  -25.904900  -111.721000
  C      4.747560  -24.809900  -112.669000
  C      4.006060  -23.772000  -112.212000
  H      5.267600  -26.850100  -111.756000
  C      5.373770  -24.885700  -114.059000
  H      5.359730  -23.993100  -114.712000
  H      4.746190  -25.687400  -114.605000
  C      6.803580  -25.358800  -114.149000
  H      7.068980  -25.559700  -115.200000
  H      6.947040  -26.264700  -113.643000
  C      7.824830  -24.319000  -113.653000
  H      7.424550  -23.365300  -114.016000
  H      8.824640  -24.479100  -114.087000
  H      7.934340  -24.214300  -112.638000
  H      4.604520  -19.166200  -114.023000
  H      3.888110  -26.244500  -109.712000

 Total Charge           Charge          ....    0
 Multiplicity           Mult            ....    1
 Number of Electrons    NEL             ....  134
 Basis Dimension        Dim             ....  322

ORBITAL ENERGIES
----------------

  NO   OCC          E(Eh)            E(eV)
   0   2.0000     -88.964782     -2420.8548
   1   2.0000     -88.963948     -2420.8321
   2   2.0000     -10.323262      -280.9102
   3   2.0000     -10.323030      -280.9039
   4   2.0000     -10.319423      -280.8058
   5   2.0000     -10.310281      -280.5570
   6   2.0000     -10.307964      -280.4940
   7   2.0000     -10.301484      -280.3176
   8   2.0000     -10.297839      -280.2184
   9   2.0000     -10.295666      -280.1593
  10   2.0000     -10.289732      -279.9978
  11   2.0000     -10.281569      -279.7757
  12   2.0000     -10.281478      -279.7732
  13   2.0000     -10.278290      -279.6865
  14   2.0000     -10.272685      -279.5340
  15   2.0000     -10.264483      -279.3108
  16   2.0000      -8.079851      -219.8639
  17   2.0000      -8.079821      -219.8631
  18   2.0000      -6.038286      -164.3101
  19   2.0000      -6.038076      -164.3044
  20   2.0000      -6.034351      -164.2030
  21   2.0000      -6.034198      -164.1989
  22   2.0000      -6.030819      -164.1069
  23   2.0000      -6.030537      -164.0993
  24   2.0000      -1.016871       -27.6705
  25   2.0000      -0.991863       -26.9900
  26   2.0000      -0.911987       -24.8164
  27   2.0000      -0.910230       -24.7686
  28   2.0000      -0.870763       -23.6947
  29   2.0000      -0.852869       -23.2078
  30   2.0000      -0.846940       -23.0464
  31   2.0000      -0.816429       -22.2162
  32   2.0000      -0.783711       -21.3259
  33   2.0000      -0.773679       -21.0529
  34   2.0000      -0.707583       -19.2543
  35   2.0000      -0.698716       -19.0130
  36   2.0000      -0.686373       -18.6772
  37   2.0000      -0.665245       -18.1022
  38   2.0000      -0.646555       -17.5937
  39   2.0000      -0.622529       -16.9399
  40   2.0000      -0.605830       -16.4855
  41   2.0000      -0.571515       -15.5517
  42   2.0000      -0.550472       -14.9791
  43   2.0000      -0.547194       -14.8899
  44   2.0000      -0.542628       -14.7657
  45   2.0000      -0.537102       -14.6153
  46   2.0000      -0.522553       -14.2194
  47   2.0000      -0.513327       -13.9683
  48   2.0000      -0.502490       -13.6734
  49   2.0000      -0.495087       -13.4720
  50   2.0000      -0.489271       -13.3137
  51   2.0000      -0.476351       -12.9622
  52   2.0000      -0.471369       -12.8266
  53   2.0000      -0.469968       -12.7885
  54   2.0000      -0.462589       -12.5877
  55   2.0000      -0.444260       -12.0889
  56   2.0000      -0.440848       -11.9961
  57   2.0000      -0.439280       -11.9534
  58   2.0000      -0.433375       -11.7927
  59   2.0000      -0.421410       -11.4671
  60   2.0000      -0.418780       -11.3956
  61   2.0000      -0.416693       -11.3388
  62   2.0000      -0.409148       -11.1335
  63   2.0000      -0.342396        -9.3171
  64   2.0000      -0.333534        -9.0759
  65   2.0000      -0.326005        -8.8711
  66   2.0000      -0.300276        -8.1709
  67   0.0000       0.033060         0.8996
  68   0.0000       0.070081         1.9070
  69   0.0000       0.104595         2.8462
  70   0.0000       0.113629         3.0920
  71   0.0000       0.128649         3.5007

MULLIKEN ATOMIC CHARGES
-----------------------
   0 S :    0.129176
   1 C :   -0.121747
   2 C :   -0.073097
   3 C :    0.051861
   4 C :   -0.145307
   5 H :   -0.036213
   6 C :    0.029454
   7 H :    0.003906
   8 H :    0.038579
   9 C :   -0.056468
  10 H :    0.026236
  11 H :    0.022513
  12 C :   -0.037940
  13 H :    0.022192
  14 H :    0.031917
  15 H :    0.037086
  16 S :    0.107339
  17 C :   -0.094108
  18 C :   -0.035933
  19 C :    0.000157
  20 C :   -0.160385
  21 H :    0.033347
  22 C :    0.007442
  23 H :    0.040146
  24 H :    0.051282
  25 C :   -0.060433
  26 H :    0.028653
  27 H :    0.008948
  28 C :   -0.028184
  29 H :    0.012991
  30 H :    0.032405
  31 H :    0.022003
  32 H :    0.059210
  33 H :    0.052971
Sum of atomic charges:   -0.0000000

LOEWDIN ATOMIC CHARGES
----------------------
   0 S :    0.453187
   1 C :   -0.220310
   2 C :   -0.067739
   3 C :   -0.056722
   4 C :   -0.197316
   5 H :    0.014376
   6 C :   -0.040592
   7 H :    0.025591
   8 H :    0.040818
   9 C :   -0.042761
  10 H :    0.022227
  11 H :    0.022589
  12 C :   -0.064946
  13 H :    0.022391
  14 H :    0.027291
  15 H :    0.026319
  16 S :    0.405386
  17 C :   -0.173524
  18 C :   -0.068703
  19 C :   -0.056411
  20 C :   -0.201832
  21 H :    0.035215
  22 C :   -0.037688
  23 H :    0.031821
  24 H :    0.046264
  25 C :   -0.040469
  26 H :    0.029827
  27 H :    0.009682
  28 C :   -0.061006
  29 H :    0.019513
  30 H :    0.028633
  31 H :    0.012053
  32 H :    0.033824
  33 H :    0.023012

  Mayer bond orders larger than 0.100000
B(  0-S ,  1-C ) :   1.1724 B(  0-S ,  4-C ) :   1.1802 B(  1-C ,  2-C ) :   1.5475
B(  1-C ,  4-C ) :   0.1016 B(  1-C , 32-H ) :   0.9669 B(  2-C ,  3-C ) :   1.2596
B(  2-C ,  6-C ) :   1.0316 B(  3-C ,  4-C ) :   1.5348 B(  3-C ,  5-H ) :   1.0286
B(  4-C , 20-C ) :   1.0228 B(  6-C ,  7-H ) :   0.9379 B(  6-C ,  8-H ) :   0.9394
B(  6-C ,  9-C ) :   1.0786 B(  9-C , 10-H ) :   0.9585 B(  9-C , 11-H ) :   0.9535
B(  9-C , 12-C ) :   1.0687 B( 12-C , 13-H ) :   0.9742 B( 12-C , 14-H ) :   0.9783
B( 12-C , 15-H ) :   0.9752 B( 16-S , 17-C ) :   1.1497 B( 16-S , 20-C ) :   1.1398
B( 17-C , 18-C ) :   1.6329 B( 17-C , 33-H ) :   0.9723 B( 18-C , 19-C ) :   1.2002
B( 18-C , 21-H ) :   0.9840 B( 19-C , 20-C ) :   1.6237 B( 19-C , 22-C ) :   1.0354
B( 22-C , 23-H ) :   0.9419 B( 22-C , 24-H ) :   0.9346 B( 22-C , 25-C ) :   1.0850
B( 25-C , 26-H ) :   0.9534 B( 25-C , 27-H ) :   0.9542 B( 25-C , 28-C ) :   1.0667
B( 28-C , 29-H ) :   0.9708 B( 28-C , 30-H ) :   0.9754 B( 28-C , 31-H ) :   0.9779

Dispersion correction           -0.014753947
FINAL SINGLE POINT ENERGY     -1339.879296517998

DIPOLE MOMENT
-------------
                                X             Y             Z
Electronic contribution:      0.50729      -5.50507      16.01119
Nuclear contribution   :     -0.57392       5.46927     -16.08708
                        -----------------------------------------
Total Dipole Moment    :     -0.06662      -0.03580      -0.07589
                        -----------------------------------------
Magnitude (a.u.)       :      0.10714
Magnitude (Debye)      :      0.27234

Rotational constants in cm-1:     0.022525     0.008114     0.006809
Rotational constants in MHz :   675.295919   243.245803   204.116875

                             ****ORCA TERMINATED NORMALLY****
TOTAL RUN TIME: 0 days 0 hours 0 minutes 20 seconds 467 msec
