                         Program Version 4.2.1 -  RELEASE  -
|  1> ! wB97X-D3 SP def2-SVP
|  2> %pal
|  3> nprocs 24
|  4> end
|  5>
|  6> * xyz 0 1
|  7> S 	 46.7238 	 -23.2673 	 -117.599
|  8> C 	 45.0043 	 -23.3108 	 -117.292
|  9> C 	 44.5939 	 -22.2223 	 -116.57
| 10> C 	 45.6693 	 -21.3995 	 -116.099
| 11> C 	 46.902 	 -21.84 	 -116.538
| 12> H 	 45.6722 	 -20.5847 	 -115.465
| 13> C 	 43.1066 	 -21.9043 	 -116.365
| 14> H 	 42.4559 	 -22.513 	 -117.078
| 15> H 	 42.8873 	 -20.9133 	 -116.58
| 16> C 	 42.6377 	 -22.1011 	 -114.911
| 17> H 	 43.2844 	 -21.4874 	 -114.244
| 18> H 	 41.6136 	 -21.7405 	 -114.81
| 19> C 	 42.6601 	 -23.4735 	 -114.3
| 20> H 	 42.0333 	 -23.2378 	 -113.395
| 21> H 	 42.224 	 -24.3022 	 -114.944
| 22> H 	 43.6479 	 -23.7642 	 -113.958
| 23> S 	 49.4082 	 -21.294 	 -117.502
| 24> C 	 50.4519 	 -20.1363 	 -116.581
| 25> C 	 49.9579 	 -19.9465 	 -115.328
| 26> C 	 48.5752 	 -20.3342 	 -115.252
| 27> C 	 48.1339 	 -21.1442 	 -116.299
| 28> H 	 50.6159 	 -19.3524 	 -114.64
| 29> C 	 47.9105 	 -20.0213 	 -113.926
| 30> H 	 46.915 	 -19.7037 	 -114.009
| 31> H 	 48.5688 	 -19.2787 	 -113.449
| 32> C 	 47.8143 	 -21.0704 	 -112.925
| 33> H 	 48.6684 	 -21.6624 	 -113.167
| 34> H 	 47.0354 	 -21.7601 	 -113.01
| 35> C 	 47.9412 	 -20.6553 	 -111.443
| 36> H 	 47.1684 	 -19.9937 	 -111.15
| 37> H 	 48.8492 	 -20.1004 	 -111.133
| 38> H 	 47.8427 	 -21.6394 	 -110.977
| 39> H 	 44.3229 	 -24.0062 	 -117.655
| 40> H 	 51.3876 	 -19.7278 	 -116.895
| 41> *
| 42>
| 43>                          ****END OF INPUT****

CARTESIAN COORDINATES (ANGSTROEM)
---------------------------------
  S     46.723800  -23.267300  -117.599000
  C     45.004300  -23.310800  -117.292000
  C     44.593900  -22.222300  -116.570000
  C     45.669300  -21.399500  -116.099000
  C     46.902000  -21.840000  -116.538000
  H     45.672200  -20.584700  -115.465000
  C     43.106600  -21.904300  -116.365000
  H     42.455900  -22.513000  -117.078000
  H     42.887300  -20.913300  -116.580000
  C     42.637700  -22.101100  -114.911000
  H     43.284400  -21.487400  -114.244000
  H     41.613600  -21.740500  -114.810000
  C     42.660100  -23.473500  -114.300000
  H     42.033300  -23.237800  -113.395000
  H     42.224000  -24.302200  -114.944000
  H     43.647900  -23.764200  -113.958000
  S     49.408200  -21.294000  -117.502000
  C     50.451900  -20.136300  -116.581000
  C     49.957900  -19.946500  -115.328000
  C     48.575200  -20.334200  -115.252000
  C     48.133900  -21.144200  -116.299000
  H     50.615900  -19.352400  -114.640000
  C     47.910500  -20.021300  -113.926000
  H     46.915000  -19.703700  -114.009000
  H     48.568800  -19.278700  -113.449000
  C     47.814300  -21.070400  -112.925000
  H     48.668400  -21.662400  -113.167000
  H     47.035400  -21.760100  -113.010000
  C     47.941200  -20.655300  -111.443000
  H     47.168400  -19.993700  -111.150000
  H     48.849200  -20.100400  -111.133000
  H     47.842700  -21.639400  -110.977000
  H     44.322900  -24.006200  -117.655000
  H     51.387600  -19.727800  -116.895000

 Total Charge           Charge          ....    0
 Multiplicity           Mult            ....    1
 Number of Electrons    NEL             ....  134
 Basis Dimension        Dim             ....  322

ORBITAL ENERGIES
----------------

  NO   OCC          E(Eh)            E(eV)
   0   2.0000     -88.969374     -2420.9797
   1   2.0000     -88.965720     -2420.8803
   2   2.0000     -10.333958      -281.2013
   3   2.0000     -10.332463      -281.1606
   4   2.0000     -10.320083      -280.8237
   5   2.0000     -10.309652      -280.5399
   6   2.0000     -10.307315      -280.4763
   7   2.0000     -10.302984      -280.3584
   8   2.0000     -10.300398      -280.2881
   9   2.0000     -10.292346      -280.0690
  10   2.0000     -10.291456      -280.0447
  11   2.0000     -10.286588      -279.9123
  12   2.0000     -10.281828      -279.7828
  13   2.0000     -10.280836      -279.7558
  14   2.0000     -10.277808      -279.6734
  15   2.0000     -10.269247      -279.4404
  16   2.0000      -8.083418      -219.9610
  17   2.0000      -8.079678      -219.8592
  18   2.0000      -6.042094      -164.4137
  19   2.0000      -6.038440      -164.3143
  20   2.0000      -6.038139      -164.3061
  21   2.0000      -6.034383      -164.2039
  22   2.0000      -6.033929      -164.1916
  23   2.0000      -6.030127      -164.0881
  24   2.0000      -1.007253       -27.4087
  25   2.0000      -0.983368       -26.7588
  26   2.0000      -0.922782       -25.1102
  27   2.0000      -0.911319       -24.7982
  28   2.0000      -0.878127       -23.8950
  29   2.0000      -0.853666       -23.2294
  30   2.0000      -0.844406       -22.9775
  31   2.0000      -0.821622       -22.3575
  32   2.0000      -0.785373       -21.3711
  33   2.0000      -0.777112       -21.1463
  34   2.0000      -0.716487       -19.4966
  35   2.0000      -0.695482       -18.9250
  36   2.0000      -0.686861       -18.6904
  37   2.0000      -0.665557       -18.1107
  38   2.0000      -0.645131       -17.5549
  39   2.0000      -0.623715       -16.9722
  40   2.0000      -0.602740       -16.4014
  41   2.0000      -0.575232       -15.6529
  42   2.0000      -0.571589       -15.5537
  43   2.0000      -0.549741       -14.9592
  44   2.0000      -0.547298       -14.8927
  45   2.0000      -0.530519       -14.4362
  46   2.0000      -0.520888       -14.1741
  47   2.0000      -0.518063       -14.0972
  48   2.0000      -0.508932       -13.8487
  49   2.0000      -0.499665       -13.5966
  50   2.0000      -0.498143       -13.5552
  51   2.0000      -0.484632       -13.1875
  52   2.0000      -0.472525       -12.8580
  53   2.0000      -0.462531       -12.5861
  54   2.0000      -0.459005       -12.4902
  55   2.0000      -0.447176       -12.1683
  56   2.0000      -0.443691       -12.0735
  57   2.0000      -0.443071       -12.0566
  58   2.0000      -0.428968       -11.6728
  59   2.0000      -0.422247       -11.4899
  60   2.0000      -0.414748       -11.2859
  61   2.0000      -0.412582       -11.2269
  62   2.0000      -0.402733       -10.9589
  63   2.0000      -0.365845        -9.9552
  64   2.0000      -0.336610        -9.1596
  65   2.0000      -0.327078        -8.9002
  66   2.0000      -0.282051        -7.6750
  67   0.0000       0.018059         0.4914
  68   0.0000       0.070637         1.9221
  69   0.0000       0.103930         2.8281
  70   0.0000       0.117428         3.1954
  71   0.0000       0.127376         3.4661

MULLIKEN ATOMIC CHARGES
-----------------------
   0 S :    0.108242
   1 C :   -0.090477
   2 C :   -0.062135
   3 C :    0.029471
   4 C :   -0.110388
   5 H :   -0.038288
   6 C :    0.107190
   7 H :    0.024736
   8 H :    0.012809
   9 C :   -0.113252
  10 H :    0.025891
  11 H :    0.029411
  12 C :   -0.066076
  13 H :    0.039107
  14 H :    0.041228
  15 H :    0.038968
  16 S :    0.082472
  17 C :   -0.084610
  18 C :   -0.045821
  19 C :   -0.078279
  20 C :   -0.102742
  21 H :    0.047164
  22 C :    0.096419
  23 H :    0.011994
  24 H :    0.009027
  25 C :   -0.046130
  26 H :    0.007849
  27 H :    0.012315
  28 C :   -0.052844
  29 H :    0.021295
  30 H :    0.034038
  31 H :    0.043146
  32 H :    0.020398
  33 H :    0.047874
Sum of atomic charges:    0.0000000

LOEWDIN ATOMIC CHARGES
----------------------
   0 S :    0.386085
   1 C :   -0.186135
   2 C :   -0.055276
   3 C :   -0.053968
   4 C :   -0.170935
   5 H :    0.017078
   6 C :   -0.027603
   7 H :    0.033764
   8 H :    0.022335
   9 C :   -0.049192
  10 H :    0.026354
  11 H :    0.022036
  12 C :   -0.073279
  13 H :    0.037439
  14 H :    0.028628
  15 H :    0.022078
  16 S :    0.370466
  17 C :   -0.156480
  18 C :   -0.073022
  19 C :   -0.057973
  20 C :   -0.186015
  21 H :    0.045704
  22 C :   -0.033289
  23 H :    0.018289
  24 H :    0.035495
  25 C :   -0.041591
  26 H :    0.022893
  27 H :    0.015885
  28 C :   -0.060095
  29 H :    0.015878
  30 H :    0.026463
  31 H :    0.034914
  32 H :    0.017494
  33 H :    0.025575

  Mayer bond orders larger than 0.100000
B(  0-S ,  1-C ) :   1.1167 B(  0-S ,  4-C ) :   1.1266 B(  1-C ,  2-C ) :   1.6349
B(  1-C , 32-H ) :   0.9743 B(  2-C ,  3-C ) :   1.2044 B(  2-C ,  6-C ) :   1.0233
B(  3-C ,  4-C ) :   1.5768 B(  3-C ,  5-H ) :   1.0108 B(  4-C , 20-C ) :   1.1107
B(  6-C ,  7-H ) :   0.9444 B(  6-C ,  8-H ) :   0.9357 B(  6-C ,  9-C ) :   1.0723
B(  9-C , 10-H ) :   0.9538 B(  9-C , 11-H ) :   0.9632 B(  9-C , 12-C ) :   1.0693
B( 12-C , 13-H ) :   0.9749 B( 12-C , 14-H ) :   0.9744 B( 12-C , 15-H ) :   0.9755
B( 16-S , 17-C ) :   1.1309 B( 16-S , 20-C ) :   1.1073 B( 17-C , 18-C ) :   1.6575
B( 17-C , 33-H ) :   0.9689 B( 18-C , 19-C ) :   1.2109 B( 18-C , 21-H ) :   0.9744
B( 19-C , 20-C ) :   1.5871 B( 19-C , 22-C ) :   1.0724 B( 22-C , 23-H ) :   0.9220
B( 22-C , 24-H ) :   0.9234 B( 22-C , 25-C ) :   1.0695 B( 25-C , 26-H ) :   0.9445
B( 25-C , 27-H ) :   0.9493 B( 25-C , 28-C ) :   1.0865 B( 28-C , 29-H ) :   0.9772
B( 28-C , 30-H ) :   0.9722 B( 28-C , 31-H ) :   0.9752

Dispersion correction           -0.014273268
FINAL SINGLE POINT ENERGY     -1339.843608368576

DIPOLE MOMENT
-------------
                                X             Y             Z
Electronic contribution:     17.13530      -2.95899     -25.37986
Nuclear contribution   :    -17.40575       3.31901      25.92846
                        -----------------------------------------
Total Dipole Moment    :     -0.27045       0.36002       0.54860
                        -----------------------------------------
Magnitude (a.u.)       :      0.70973
Magnitude (Debye)      :      1.80400

Rotational constants in cm-1:     0.017675     0.009607     0.006770
Rotational constants in MHz :   529.891217   288.000999   202.948563

                             ****ORCA TERMINATED NORMALLY****
TOTAL RUN TIME: 0 days 0 hours 0 minutes 22 seconds 112 msec
