                         Program Version 4.2.1 -  RELEASE  -
|  1> ! wB97X-D3 SP def2-SVP
|  2> %pal
|  3> nprocs 24
|  4> end
|  5>
|  6> * xyz 0 1
|  7> S 	 -30.4509 	 17.5495 	 4.30889
|  8> C 	 -31.7925 	 17.0185 	 5.28799
|  9> C 	 -31.397 	 16.4373 	 6.46141
| 10> C 	 -30.0064 	 16.6673 	 6.68136
| 11> C 	 -29.3252 	 17.2024 	 5.63305
| 12> H 	 -29.4284 	 16.2633 	 7.51481
| 13> C 	 -32.272 	 15.6434 	 7.42581
| 14> H 	 -31.8638 	 14.7026 	 7.45998
| 15> H 	 -33.2729 	 15.4565 	 7.0338
| 16> C 	 -32.2804 	 16.2312 	 8.88334
| 17> H 	 -31.1882 	 16.3217 	 9.18456
| 18> H 	 -32.805 	 17.2247 	 8.89196
| 19> C 	 -33.0393 	 15.3356 	 9.86295
| 20> H 	 -32.523 	 15.3686 	 10.8617
| 21> H 	 -34.0131 	 15.6251 	 9.97238
| 22> H 	 -33.1157 	 14.2712 	 9.60479
| 23> S 	 -27.7406 	 19.1663 	 6.63426
| 24> C 	 -25.9392 	 19.058 	 6.48534
| 25> C 	 -25.6473 	 17.9778 	 5.66013
| 26> C 	 -26.7528 	 17.1459 	 5.27121
| 27> C 	 -27.9713 	 17.6661 	 5.68933
| 28> H 	 -24.5884 	 17.8846 	 5.42232
| 29> C 	 -26.662 	 15.7683 	 4.73419
| 30> H 	 -27.4423 	 15.1731 	 5.18131
| 31> H 	 -25.7341 	 15.2701 	 4.87831
| 32> C 	 -26.8719 	 15.7427 	 3.20406
| 33> H 	 -26.0524 	 16.2553 	 2.74961
| 34> H 	 -27.7885 	 16.4012 	 2.9757
| 35> C 	 -27.1404 	 14.3594 	 2.63975
| 36> H 	 -27.4977 	 14.5338 	 1.60747
| 37> H 	 -27.9802 	 13.7339 	 3.09795
| 38> H 	 -26.2774 	 13.6693 	 2.7308
| 39> H 	 -32.8089 	 17.0289 	 4.97602
| 40> H 	 -25.1589 	 19.758 	 6.83562
| 41> *
| 42>
| 43>                          ****END OF INPUT****

CARTESIAN COORDINATES (ANGSTROEM)
---------------------------------
  S    -30.450900   17.549500    4.308890
  C    -31.792500   17.018500    5.287990
  C    -31.397000   16.437300    6.461410
  C    -30.006400   16.667300    6.681360
  C    -29.325200   17.202400    5.633050
  H    -29.428400   16.263300    7.514810
  C    -32.272000   15.643400    7.425810
  H    -31.863800   14.702600    7.459980
  H    -33.272900   15.456500    7.033800
  C    -32.280400   16.231200    8.883340
  H    -31.188200   16.321700    9.184560
  H    -32.805000   17.224700    8.891960
  C    -33.039300   15.335600    9.862950
  H    -32.523000   15.368600   10.861700
  H    -34.013100   15.625100    9.972380
  H    -33.115700   14.271200    9.604790
  S    -27.740600   19.166300    6.634260
  C    -25.939200   19.058000    6.485340
  C    -25.647300   17.977800    5.660130
  C    -26.752800   17.145900    5.271210
  C    -27.971300   17.666100    5.689330
  H    -24.588400   17.884600    5.422320
  C    -26.662000   15.768300    4.734190
  H    -27.442300   15.173100    5.181310
  H    -25.734100   15.270100    4.878310
  C    -26.871900   15.742700    3.204060
  H    -26.052400   16.255300    2.749610
  H    -27.788500   16.401200    2.975700
  C    -27.140400   14.359400    2.639750
  H    -27.497700   14.533800    1.607470
  H    -27.980200   13.733900    3.097950
  H    -26.277400   13.669300    2.730800
  H    -32.808900   17.028900    4.976020
  H    -25.158900   19.758000    6.835620

 Total Charge           Charge          ....    0
 Multiplicity           Mult            ....    1
 Number of Electrons    NEL             ....  134
 Basis Dimension        Dim             ....  322

ORBITAL ENERGIES
----------------

  NO   OCC          E(Eh)            E(eV)
   0   2.0000     -88.966090     -2420.8904
   1   2.0000     -88.962019     -2420.7796
   2   2.0000     -10.325672      -280.9758
   3   2.0000     -10.325306      -280.9659
   4   2.0000     -10.323585      -280.9190
   5   2.0000     -10.311257      -280.5836
   6   2.0000     -10.303877      -280.3827
   7   2.0000     -10.299447      -280.2622
   8   2.0000     -10.297343      -280.2049
   9   2.0000     -10.296161      -280.1728
  10   2.0000     -10.293015      -280.0872
  11   2.0000     -10.290309      -280.0135
  12   2.0000     -10.284851      -279.8650
  13   2.0000     -10.282859      -279.8108
  14   2.0000     -10.281820      -279.7825
  15   2.0000     -10.274738      -279.5898
  16   2.0000      -8.080438      -219.8799
  17   2.0000      -8.075189      -219.7371
  18   2.0000      -6.038999      -164.3295
  19   2.0000      -6.035085      -164.2230
  20   2.0000      -6.033924      -164.1914
  21   2.0000      -6.031072      -164.1138
  22   2.0000      -6.029856      -164.0807
  23   2.0000      -6.025824      -163.9710
  24   2.0000      -1.005570       -27.3630
  25   2.0000      -0.978045       -26.6140
  26   2.0000      -0.908636       -24.7253
  27   2.0000      -0.907478       -24.6937
  28   2.0000      -0.872491       -23.7417
  29   2.0000      -0.848889       -23.0994
  30   2.0000      -0.843194       -22.9445
  31   2.0000      -0.814795       -22.1717
  32   2.0000      -0.783538       -21.3212
  33   2.0000      -0.768507       -20.9121
  34   2.0000      -0.709380       -19.3032
  35   2.0000      -0.696025       -18.9398
  36   2.0000      -0.690010       -18.7761
  37   2.0000      -0.660579       -17.9753
  38   2.0000      -0.644288       -17.5320
  39   2.0000      -0.618955       -16.8426
  40   2.0000      -0.592534       -16.1237
  41   2.0000      -0.570141       -15.5143
  42   2.0000      -0.565648       -15.3921
  43   2.0000      -0.558829       -15.2065
  44   2.0000      -0.523517       -14.2456
  45   2.0000      -0.522898       -14.2288
  46   2.0000      -0.511837       -13.9278
  47   2.0000      -0.507938       -13.8217
  48   2.0000      -0.506758       -13.7896
  49   2.0000      -0.503359       -13.6971
  50   2.0000      -0.497568       -13.5395
  51   2.0000      -0.479582       -13.0501
  52   2.0000      -0.473421       -12.8824
  53   2.0000      -0.466924       -12.7057
  54   2.0000      -0.453562       -12.3421
  55   2.0000      -0.448346       -12.2001
  56   2.0000      -0.443231       -12.0609
  57   2.0000      -0.431994       -11.7551
  58   2.0000      -0.427917       -11.6442
  59   2.0000      -0.423285       -11.5182
  60   2.0000      -0.418454       -11.3867
  61   2.0000      -0.416132       -11.3235
  62   2.0000      -0.409127       -11.1329
  63   2.0000      -0.337178        -9.1751
  64   2.0000      -0.326465        -8.8836
  65   2.0000      -0.321875        -8.7587
  66   2.0000      -0.305448        -8.3117
  67   0.0000       0.040110         1.0914
  68   0.0000       0.051091         1.3903
  69   0.0000       0.104528         2.8443
  70   0.0000       0.117648         3.2014
  71   0.0000       0.129730         3.5301

MULLIKEN ATOMIC CHARGES
-----------------------
   0 S :    0.114379
   1 C :   -0.120495
   2 C :   -0.072122
   3 C :    0.016141
   4 C :   -0.163527
   5 H :    0.025389
   6 C :    0.118540
   7 H :    0.010384
   8 H :    0.013125
   9 C :   -0.133531
  10 H :    0.049962
  11 H :    0.049880
  12 C :   -0.024446
  13 H :    0.040786
  14 H :    0.016760
  15 H :    0.024131
  16 S :    0.101856
  17 C :   -0.114352
  18 C :   -0.050810
  19 C :    0.014242
  20 C :   -0.183234
  21 H :    0.021421
  22 C :    0.105098
  23 H :    0.021264
  24 H :    0.011950
  25 C :   -0.108516
  26 H :    0.025528
  27 H :    0.028693
  28 C :   -0.059587
  29 H :    0.043372
  30 H :    0.038262
  31 H :    0.034500
  32 H :    0.033676
  33 H :    0.071280
Sum of atomic charges:    0.0000000

LOEWDIN ATOMIC CHARGES
----------------------
   0 S :    0.398843
   1 C :   -0.186310
   2 C :   -0.063306
   3 C :   -0.054819
   4 C :   -0.202012
   5 H :    0.034886
   6 C :   -0.024622
   7 H :    0.021361
   8 H :    0.027970
   9 C :   -0.041508
  10 H :    0.030956
  11 H :    0.033897
  12 C :   -0.069158
  13 H :    0.036254
  14 H :    0.012810
  15 H :    0.025247
  16 S :    0.372463
  17 C :   -0.178125
  18 C :   -0.074359
  19 C :   -0.051673
  20 C :   -0.184361
  21 H :    0.032140
  22 C :   -0.028340
  23 H :    0.030156
  24 H :    0.025002
  25 C :   -0.041983
  26 H :    0.019741
  27 H :    0.024896
  28 C :   -0.078843
  29 H :    0.032702
  30 H :    0.032830
  31 H :    0.024395
  32 H :    0.022377
  33 H :    0.040493

  Mayer bond orders larger than 0.100000
B(  0-S ,  1-C ) :   1.1446 B(  0-S ,  4-C ) :   1.1212 B(  1-C ,  2-C ) :   1.6265
B(  1-C , 32-H ) :   0.9689 B(  2-C ,  3-C ) :   1.2167 B(  2-C ,  6-C ) :   1.0235
B(  3-C ,  4-C ) :   1.6141 B(  3-C ,  5-H ) :   0.9865 B(  4-C , 20-C ) :   1.0338
B(  6-C ,  7-H ) :   0.9283 B(  6-C ,  8-H ) :   0.9414 B(  6-C ,  9-C ) :   1.0560
B(  9-C , 10-H ) :   0.9614 B(  9-C , 11-H ) :   0.9606 B(  9-C , 12-C ) :   1.0675
B( 12-C , 13-H ) :   0.9754 B( 12-C , 14-H ) :   0.9769 B( 12-C , 15-H ) :   0.9748
B( 16-S , 17-C ) :   1.1300 B( 16-S , 20-C ) :   1.1294 B( 17-C , 18-C ) :   1.6484
B( 17-C , 20-C ) :   0.1032 B( 17-C , 33-H ) :   0.9617 B( 18-C , 19-C ) :   1.2066
B( 18-C , 21-H ) :   0.9860 B( 19-C , 20-C ) :   1.6042 B( 19-C , 22-C ) :   1.0590
B( 22-C , 23-H ) :   0.9297 B( 22-C , 24-H ) :   0.9351 B( 22-C , 25-C ) :   1.0517
B( 25-C , 26-H ) :   0.9547 B( 25-C , 27-H ) :   0.9580 B( 25-C , 28-C ) :   1.0782
B( 28-C , 29-H ) :   0.9726 B( 28-C , 30-H ) :   0.9732 B( 28-C , 31-H ) :   0.9715

Dispersion correction           -0.014196401
FINAL SINGLE POINT ENERGY     -1339.868640334545

DIPOLE MOMENT
-------------
                                X             Y             Z
Electronic contribution:      5.23535      19.06394      -4.71517
Nuclear contribution   :     -5.25791     -19.62150       4.96541
                        -----------------------------------------
Total Dipole Moment    :     -0.02256      -0.55756       0.25024
                        -----------------------------------------
Magnitude (a.u.)       :      0.61155
Magnitude (Debye)      :      1.55445

Rotational constants in cm-1:     0.018168     0.008187     0.006904
Rotational constants in MHz :   544.659828   245.449230   206.989695

                             ****ORCA TERMINATED NORMALLY****
TOTAL RUN TIME: 0 days 0 hours 0 minutes 20 seconds 99 msec
