                         Program Version 4.2.1 -  RELEASE  -
|  1> ! wB97X-D3 SP def2-SVP
|  2> %pal
|  3> nprocs 24
|  4> end
|  5>
|  6> * xyz 0 1
|  7> S 	 -108.787 	 51.1405 	 -7.80823
|  8> C 	 -108.8 	 52.8956 	 -8.06558
|  9> C 	 -107.51 	 53.3021 	 -7.7786
| 10> C 	 -106.627 	 52.2898 	 -7.34915
| 11> C 	 -107.129 	 51.0173 	 -7.30416
| 12> H 	 -105.556 	 52.3631 	 -7.03121
| 13> C 	 -107.026 	 54.703 	 -7.97121
| 14> H 	 -106.812 	 54.9788 	 -6.92059
| 15> H 	 -107.919 	 55.2569 	 -8.29223
| 16> C 	 -105.879 	 54.9995 	 -8.96114
| 17> H 	 -105.656 	 56.0651 	 -9.05816
| 18> H 	 -104.975 	 54.4665 	 -8.69517
| 19> C 	 -106.169 	 54.528 	 -10.3939
| 20> H 	 -106.211 	 53.4551 	 -10.5739
| 21> H 	 -107.171 	 54.7647 	 -10.659
| 22> H 	 -105.401 	 54.8528 	 -11.1028
| 23> S 	 -107.011 	 49.0357 	 -5.40802
| 24> C 	 -105.808 	 47.8154 	 -5.45549
| 25> C 	 -105.093 	 47.9188 	 -6.64945
| 26> C 	 -105.365 	 49.0717 	 -7.41904
| 27> C 	 -106.501 	 49.7557 	 -6.91776
| 28> H 	 -104.333 	 47.1918 	 -6.89968
| 29> C 	 -104.524 	 49.4988 	 -8.66125
| 30> H 	 -103.643 	 49.8199 	 -8.21807
| 31> H 	 -104.908 	 50.2923 	 -9.16881
| 32> C 	 -104.262 	 48.3426 	 -9.55442
| 33> H 	 -103.838 	 47.4769 	 -9.07138
| 34> H 	 -103.442 	 48.6177 	 -10.2108
| 35> C 	 -105.505 	 47.968 	 -10.4351
| 36> H 	 -106.245 	 47.5314 	 -9.77406
| 37> H 	 -105.268 	 47.1469 	 -11.1612
| 38> H 	 -105.995 	 48.8052 	 -11.027
| 39> H 	 -109.573 	 53.575 	 -8.42455
| 40> H 	 -105.747 	 46.9246 	 -4.80033
| 41> *
| 42>
| 43>                          ****END OF INPUT****

CARTESIAN COORDINATES (ANGSTROEM)
---------------------------------
  S    -108.787000   51.140500   -7.808230
  C    -108.800000   52.895600   -8.065580
  C    -107.510000   53.302100   -7.778600
  C    -106.627000   52.289800   -7.349150
  C    -107.129000   51.017300   -7.304160
  H    -105.556000   52.363100   -7.031210
  C    -107.026000   54.703000   -7.971210
  H    -106.812000   54.978800   -6.920590
  H    -107.919000   55.256900   -8.292230
  C    -105.879000   54.999500   -8.961140
  H    -105.656000   56.065100   -9.058160
  H    -104.975000   54.466500   -8.695170
  C    -106.169000   54.528000  -10.393900
  H    -106.211000   53.455100  -10.573900
  H    -107.171000   54.764700  -10.659000
  H    -105.401000   54.852800  -11.102800
  S    -107.011000   49.035700   -5.408020
  C    -105.808000   47.815400   -5.455490
  C    -105.093000   47.918800   -6.649450
  C    -105.365000   49.071700   -7.419040
  C    -106.501000   49.755700   -6.917760
  H    -104.333000   47.191800   -6.899680
  C    -104.524000   49.498800   -8.661250
  H    -103.643000   49.819900   -8.218070
  H    -104.908000   50.292300   -9.168810
  C    -104.262000   48.342600   -9.554420
  H    -103.838000   47.476900   -9.071380
  H    -103.442000   48.617700  -10.210800
  C    -105.505000   47.968000  -10.435100
  H    -106.245000   47.531400   -9.774060
  H    -105.268000   47.146900  -11.161200
  H    -105.995000   48.805200  -11.027000
  H    -109.573000   53.575000   -8.424550
  H    -105.747000   46.924600   -4.800330

 Total Charge           Charge          ....    0
 Multiplicity           Mult            ....    1
 Number of Electrons    NEL             ....  134
 Basis Dimension        Dim             ....  322

ORBITAL ENERGIES
----------------

  NO   OCC          E(Eh)            E(eV)
   0   2.0000     -88.967399     -2420.9260
   1   2.0000     -88.961255     -2420.7588
   2   2.0000     -10.329659      -281.0843
   3   2.0000     -10.328658      -281.0571
   4   2.0000     -10.321262      -280.8558
   5   2.0000     -10.317975      -280.7664
   6   2.0000     -10.309865      -280.5457
   7   2.0000     -10.297912      -280.2204
   8   2.0000     -10.294598      -280.1302
   9   2.0000     -10.292461      -280.0721
  10   2.0000     -10.291754      -280.0529
  11   2.0000     -10.289560      -279.9932
  12   2.0000     -10.284940      -279.8674
  13   2.0000     -10.282537      -279.8021
  14   2.0000     -10.282500      -279.8011
  15   2.0000     -10.271742      -279.5083
  16   2.0000      -8.082557      -219.9376
  17   2.0000      -8.075814      -219.7541
  18   2.0000      -6.040964      -164.3830
  19   2.0000      -6.036717      -164.2674
  20   2.0000      -6.034386      -164.2040
  21   2.0000      -6.033682      -164.1848
  22   2.0000      -6.030166      -164.0891
  23   2.0000      -6.026636      -163.9931
  24   2.0000      -1.009093       -27.4588
  25   2.0000      -0.988820       -26.9072
  26   2.0000      -0.917025       -24.9535
  27   2.0000      -0.911764       -24.8104
  28   2.0000      -0.870445       -23.6860
  29   2.0000      -0.844661       -22.9844
  30   2.0000      -0.841652       -22.9025
  31   2.0000      -0.815811       -22.1993
  32   2.0000      -0.786717       -21.4077
  33   2.0000      -0.773670       -21.0526
  34   2.0000      -0.712218       -19.3804
  35   2.0000      -0.703190       -19.1348
  36   2.0000      -0.697436       -18.9782
  37   2.0000      -0.653589       -17.7851
  38   2.0000      -0.640423       -17.4268
  39   2.0000      -0.618286       -16.8244
  40   2.0000      -0.604235       -16.4421
  41   2.0000      -0.566971       -15.4281
  42   2.0000      -0.561973       -15.2921
  43   2.0000      -0.555180       -15.1072
  44   2.0000      -0.540500       -14.7078
  45   2.0000      -0.533876       -14.5275
  46   2.0000      -0.522725       -14.2241
  47   2.0000      -0.518035       -14.0965
  48   2.0000      -0.510534       -13.8923
  49   2.0000      -0.494212       -13.4482
  50   2.0000      -0.486748       -13.2451
  51   2.0000      -0.475774       -12.9465
  52   2.0000      -0.472153       -12.8479
  53   2.0000      -0.468856       -12.7582
  54   2.0000      -0.458029       -12.4636
  55   2.0000      -0.443093       -12.0572
  56   2.0000      -0.441943       -12.0259
  57   2.0000      -0.439320       -11.9545
  58   2.0000      -0.437056       -11.8929
  59   2.0000      -0.433655       -11.8003
  60   2.0000      -0.416391       -11.3306
  61   2.0000      -0.407933       -11.1004
  62   2.0000      -0.403959       -10.9923
  63   2.0000      -0.340794        -9.2735
  64   2.0000      -0.330738        -8.9998
  65   2.0000      -0.324742        -8.8367
  66   2.0000      -0.303848        -8.2681
  67   0.0000       0.035141         0.9562
  68   0.0000       0.062624         1.7041
  69   0.0000       0.120695         3.2843
  70   0.0000       0.130830         3.5601
  71   0.0000       0.132269         3.5992

MULLIKEN ATOMIC CHARGES
-----------------------
   0 S :    0.096185
   1 C :   -0.112309
   2 C :   -0.120831
   3 C :    0.027828
   4 C :   -0.166349
   5 H :    0.023670
   6 C :    0.063615
   7 H :    0.045736
   8 H :    0.009580
   9 C :   -0.039880
  10 H :    0.040628
  11 H :    0.025628
  12 C :   -0.060827
  13 H :    0.026150
  14 H :    0.009781
  15 H :    0.038207
  16 S :    0.128150
  17 C :   -0.097881
  18 C :   -0.062677
  19 C :   -0.053006
  20 C :   -0.184046
  21 H :    0.017467
  22 C :    0.207017
  23 H :    0.012473
  24 H :   -0.004804
  25 C :   -0.083460
  26 H :    0.021694
  27 H :    0.018066
  28 C :   -0.081005
  29 H :    0.038923
  30 H :    0.037479
  31 H :    0.048925
  32 H :    0.055162
  33 H :    0.074711
Sum of atomic charges:    0.0000000

LOEWDIN ATOMIC CHARGES
----------------------
   0 S :    0.402693
   1 C :   -0.198588
   2 C :   -0.073582
   3 C :   -0.077676
   4 C :   -0.201493
   5 H :    0.039017
   6 C :   -0.035383
   7 H :    0.039767
   8 H :    0.026988
   9 C :   -0.037183
  10 H :    0.030596
  11 H :    0.022024
  12 C :   -0.069958
  13 H :    0.025149
  14 H :    0.016853
  15 H :    0.028940
  16 S :    0.437140
  17 C :   -0.203366
  18 C :   -0.080050
  19 C :   -0.041196
  20 C :   -0.215630
  21 H :    0.028059
  22 C :   -0.008350
  23 H :    0.028514
  24 H :    0.018435
  25 C :   -0.040332
  26 H :    0.021580
  27 H :    0.023179
  28 C :   -0.072428
  29 H :    0.024634
  30 H :    0.028956
  31 H :    0.033836
  32 H :    0.038392
  33 H :    0.040461

  Mayer bond orders larger than 0.100000
B(  0-S ,  1-C ) :   1.1304 B(  0-S ,  4-C ) :   1.1644 B(  1-C ,  2-C ) :   1.5907
B(  1-C ,  4-C ) :   0.1034 B(  1-C , 32-H ) :   0.9692 B(  2-C ,  3-C ) :   1.2344
B(  2-C ,  6-C ) :   1.0202 B(  3-C ,  4-C ) :   1.5820 B(  3-C ,  5-H ) :   0.9932
B(  4-C , 20-C ) :   1.0078 B(  6-C ,  7-H ) :   0.9376 B(  6-C ,  8-H ) :   0.9399
B(  6-C ,  9-C ) :   1.0716 B(  9-C , 10-H ) :   0.9577 B(  9-C , 11-H ) :   0.9543
B(  9-C , 12-C ) :   1.0703 B( 12-C , 13-H ) :   0.9711 B( 12-C , 14-H ) :   0.9757
B( 12-C , 15-H ) :   0.9750 B( 16-S , 17-C ) :   1.1849 B( 16-S , 20-C ) :   1.1713
B( 17-C , 18-C ) :   1.5681 B( 17-C , 20-C ) :   0.1134 B( 17-C , 33-H ) :   0.9612
B( 18-C , 19-C ) :   1.2819 B( 18-C , 21-H ) :   0.9860 B( 19-C , 20-C ) :   1.5488
B( 19-C , 22-C ) :   1.0164 B( 22-C , 23-H ) :   0.9166 B( 22-C , 24-H ) :   0.9323
B( 22-C , 25-C ) :   1.0940 B( 25-C , 26-H ) :   0.9520 B( 25-C , 27-H ) :   0.9489
B( 25-C , 28-C ) :   1.0649 B( 28-C , 29-H ) :   0.9768 B( 28-C , 30-H ) :   0.9753
B( 28-C , 31-H ) :   0.9755

Dispersion correction           -0.014808581
FINAL SINGLE POINT ENERGY     -1339.871838757491

DIPOLE MOMENT
-------------
                                X             Y             Z
Electronic contribution:    -14.03782      -8.62947      19.93059
Nuclear contribution   :     14.68667       8.75764     -20.21361
                        -----------------------------------------
Total Dipole Moment    :      0.64885       0.12816      -0.28302
                        -----------------------------------------
Magnitude (a.u.)       :      0.71939
Magnitude (Debye)      :      1.82856

Rotational constants in cm-1:     0.018905     0.009022     0.007305
Rotational constants in MHz :   566.766451   270.461484   219.006192

                             ****ORCA TERMINATED NORMALLY****
TOTAL RUN TIME: 0 days 0 hours 0 minutes 22 seconds 31 msec
