                         Program Version 4.2.1 -  RELEASE  -
|  1> ! wB97X-D3 SP def2-SVP
|  2> %pal
|  3> nprocs 24
|  4> end
|  5>
|  6> * xyz 0 1
|  7> S 	 -44.1595 	 21.6786 	 22.3911
|  8> C 	 -44.2699 	 20.7811 	 20.8367
|  9> C 	 -45.0493 	 19.6411 	 20.9364
| 10> C 	 -45.5251 	 19.4666 	 22.2973
| 11> C 	 -45.168 	 20.4712 	 23.1884
| 12> H 	 -46.097 	 18.5788 	 22.6835
| 13> C 	 -45.3466 	 18.6129 	 19.8729
| 14> H 	 -44.8881 	 18.7612 	 18.8653
| 15> H 	 -46.4694 	 18.6464 	 19.7075
| 16> C 	 -44.9845 	 17.0918 	 20.1519
| 17> H 	 -45.5693 	 16.7967 	 21.0118
| 18> H 	 -45.3602 	 16.5258 	 19.3155
| 19> C 	 -43.5076 	 17.007 	 20.2259
| 20> H 	 -43.1923 	 17.9199 	 20.8153
| 21> H 	 -43.2527 	 16.0142 	 20.7485
| 22> H 	 -43.0433 	 17.1437 	 19.2771
| 23> S 	 -47.2864 	 20.2198 	 25.0076
| 24> C 	 -46.895 	 20.567 	 26.6592
| 25> C 	 -45.5291 	 20.8038 	 26.8926
| 26> C 	 -44.8233 	 20.9688 	 25.667
| 27> C 	 -45.6044 	 20.5624 	 24.5667
| 28> H 	 -45.2525 	 20.9703 	 27.9922
| 29> C 	 -43.3484 	 21.3282 	 25.7115
| 30> H 	 -43.198 	 22.428 	 25.9736
| 31> H 	 -42.9317 	 21.2674 	 24.651
| 32> C 	 -42.4617 	 20.4373 	 26.6077
| 33> H 	 -42.7923 	 20.633 	 27.5912
| 34> H 	 -41.4555 	 20.7959 	 26.636
| 35> C 	 -42.4845 	 18.9793 	 26.4364
| 36> H 	 -41.7484 	 18.5017 	 27.0458
| 37> H 	 -42.3289 	 18.6662 	 25.4045
| 38> H 	 -43.4545 	 18.6117 	 26.6919
| 39> H 	 -43.9145 	 21.1671 	 19.8828
| 40> H 	 -47.7028 	 20.4167 	 27.4118
| 41> *
| 42>
| 43>                          ****END OF INPUT****

CARTESIAN COORDINATES (ANGSTROEM)
---------------------------------
  S    -44.159500   21.678600   22.391100
  C    -44.269900   20.781100   20.836700
  C    -45.049300   19.641100   20.936400
  C    -45.525100   19.466600   22.297300
  C    -45.168000   20.471200   23.188400
  H    -46.097000   18.578800   22.683500
  C    -45.346600   18.612900   19.872900
  H    -44.888100   18.761200   18.865300
  H    -46.469400   18.646400   19.707500
  C    -44.984500   17.091800   20.151900
  H    -45.569300   16.796700   21.011800
  H    -45.360200   16.525800   19.315500
  C    -43.507600   17.007000   20.225900
  H    -43.192300   17.919900   20.815300
  H    -43.252700   16.014200   20.748500
  H    -43.043300   17.143700   19.277100
  S    -47.286400   20.219800   25.007600
  C    -46.895000   20.567000   26.659200
  C    -45.529100   20.803800   26.892600
  C    -44.823300   20.968800   25.667000
  C    -45.604400   20.562400   24.566700
  H    -45.252500   20.970300   27.992200
  C    -43.348400   21.328200   25.711500
  H    -43.198000   22.428000   25.973600
  H    -42.931700   21.267400   24.651000
  C    -42.461700   20.437300   26.607700
  H    -42.792300   20.633000   27.591200
  H    -41.455500   20.795900   26.636000
  C    -42.484500   18.979300   26.436400
  H    -41.748400   18.501700   27.045800
  H    -42.328900   18.666200   25.404500
  H    -43.454500   18.611700   26.691900
  H    -43.914500   21.167100   19.882800
  H    -47.702800   20.416700   27.411800

 Total Charge           Charge          ....    0
 Multiplicity           Mult            ....    1
 Number of Electrons    NEL             ....  134
 Basis Dimension        Dim             ....  322

ORBITAL ENERGIES
----------------

  NO   OCC          E(Eh)            E(eV)
   0   2.0000     -88.972527     -2421.0655
   1   2.0000     -88.968832     -2420.9650
   2   2.0000     -10.331937      -281.1463
   3   2.0000     -10.331446      -281.1329
   4   2.0000     -10.323621      -280.9200
   5   2.0000     -10.318913      -280.7919
   6   2.0000     -10.309924      -280.5473
   7   2.0000     -10.308214      -280.5008
   8   2.0000     -10.305138      -280.4171
   9   2.0000     -10.299543      -280.2648
  10   2.0000     -10.299407      -280.2611
  11   2.0000     -10.298246      -280.2295
  12   2.0000     -10.283372      -279.8248
  13   2.0000     -10.277637      -279.6687
  14   2.0000     -10.274217      -279.5757
  15   2.0000     -10.263303      -279.2787
  16   2.0000      -8.087025      -220.0591
  17   2.0000      -8.082104      -219.9252
  18   2.0000      -6.045420      -164.5042
  19   2.0000      -6.041643      -164.4015
  20   2.0000      -6.040801      -164.3786
  21   2.0000      -6.037851      -164.2983
  22   2.0000      -6.036877      -164.2718
  23   2.0000      -6.032667      -164.1572
  24   2.0000      -1.003240       -27.2995
  25   2.0000      -0.978694       -26.6316
  26   2.0000      -0.912952       -24.8427
  27   2.0000      -0.912000       -24.8168
  28   2.0000      -0.868660       -23.6374
  29   2.0000      -0.856464       -23.3056
  30   2.0000      -0.842049       -22.9133
  31   2.0000      -0.806661       -21.9504
  32   2.0000      -0.782876       -21.3031
  33   2.0000      -0.769331       -20.9345
  34   2.0000      -0.706925       -19.2364
  35   2.0000      -0.698231       -18.9998
  36   2.0000      -0.687445       -18.7063
  37   2.0000      -0.658538       -17.9197
  38   2.0000      -0.626394       -17.0451
  39   2.0000      -0.618199       -16.8220
  40   2.0000      -0.597905       -16.2698
  41   2.0000      -0.563656       -15.3378
  42   2.0000      -0.553789       -15.0694
  43   2.0000      -0.549489       -14.9524
  44   2.0000      -0.543204       -14.7813
  45   2.0000      -0.535743       -14.5783
  46   2.0000      -0.517204       -14.0738
  47   2.0000      -0.511153       -13.9092
  48   2.0000      -0.498560       -13.5665
  49   2.0000      -0.495094       -13.4722
  50   2.0000      -0.487078       -13.2541
  51   2.0000      -0.480862       -13.0849
  52   2.0000      -0.467435       -12.7195
  53   2.0000      -0.459084       -12.4923
  54   2.0000      -0.457473       -12.4485
  55   2.0000      -0.450107       -12.2480
  56   2.0000      -0.444503       -12.0955
  57   2.0000      -0.440117       -11.9762
  58   2.0000      -0.433837       -11.8053
  59   2.0000      -0.424833       -11.5603
  60   2.0000      -0.419338       -11.4108
  61   2.0000      -0.408829       -11.1248
  62   2.0000      -0.401898       -10.9362
  63   2.0000      -0.350859        -9.5474
  64   2.0000      -0.337141        -9.1741
  65   2.0000      -0.327641        -8.9156
  66   2.0000      -0.285609        -7.7718
  67   0.0000       0.024170         0.6577
  68   0.0000       0.070418         1.9162
  69   0.0000       0.103095         2.8054
  70   0.0000       0.106524         2.8987
  71   0.0000       0.124534         3.3887

MULLIKEN ATOMIC CHARGES
-----------------------
   0 S :    0.102945
   1 C :   -0.129129
   2 C :   -0.047160
   3 C :   -0.036008
   4 C :   -0.126715
   5 H :    0.034153
   6 C :   -0.025982
   7 H :    0.024734
   8 H :    0.047541
   9 C :   -0.055304
  10 H :    0.028619
  11 H :    0.026260
  12 C :   -0.053571
  13 H :    0.047482
  14 H :    0.052677
  15 H :    0.023501
  16 S :    0.126125
  17 C :   -0.129437
  18 C :   -0.056243
  19 C :   -0.044993
  20 C :   -0.137361
  21 H :    0.059451
  22 C :    0.016614
  23 H :    0.053060
  24 H :    0.032853
  25 C :   -0.050541
  26 H :    0.001434
  27 H :    0.017012
  28 C :    0.001666
  29 H :    0.026830
  30 H :    0.023979
  31 H :    0.021353
  32 H :    0.050296
  33 H :    0.073860
Sum of atomic charges:   -0.0000000

LOEWDIN ATOMIC CHARGES
----------------------
   0 S :    0.392344
   1 C :   -0.187658
   2 C :   -0.064709
   3 C :   -0.078417
   4 C :   -0.180683
   5 H :    0.036091
   6 C :   -0.042343
   7 H :    0.029665
   8 H :    0.038700
   9 C :   -0.039780
  10 H :    0.018442
  11 H :    0.022620
  12 C :   -0.073072
  13 H :    0.036358
  14 H :    0.037401
  15 H :    0.020726
  16 S :    0.414765
  17 C :   -0.194616
  18 C :   -0.080584
  19 C :   -0.056519
  20 C :   -0.195993
  21 H :    0.050098
  22 C :   -0.043622
  23 H :    0.043525
  24 H :    0.020701
  25 C :   -0.042014
  26 H :    0.014868
  27 H :    0.023223
  28 C :   -0.056399
  29 H :    0.026320
  30 H :    0.025654
  31 H :    0.022867
  32 H :    0.029616
  33 H :    0.032424

  Mayer bond orders larger than 0.100000
B(  0-S ,  1-C ) :   1.1154 B(  0-S ,  4-C ) :   1.1272 B(  1-C ,  2-C ) :   1.6310
B(  1-C , 32-H ) :   0.9643 B(  2-C ,  3-C ) :   1.2010 B(  2-C ,  6-C ) :   1.0292
B(  3-C ,  4-C ) :   1.5901 B(  3-C ,  5-H ) :   0.9822 B(  4-C , 20-C ) :   1.0830
B(  6-C ,  7-H ) :   0.9526 B(  6-C ,  8-H ) :   0.9349 B(  6-C ,  9-C ) :   1.0702
B(  9-C , 10-H ) :   0.9559 B(  9-C , 11-H ) :   0.9522 B(  9-C , 12-C ) :   1.0693
B( 12-C , 13-H ) :   0.9756 B( 12-C , 14-H ) :   0.9709 B( 12-C , 15-H ) :   0.9695
B( 16-S , 17-C ) :   1.1694 B( 16-S , 20-C ) :   1.1410 B( 17-C , 18-C ) :   1.6016
B( 17-C , 33-H ) :   0.9601 B( 18-C , 19-C ) :   1.2352 B( 18-C , 21-H ) :   0.9769
B( 19-C , 20-C ) :   1.5502 B( 19-C , 22-C ) :   1.0404 B( 22-C , 23-H ) :   0.9346
B( 22-C , 24-H ) :   0.9283 B( 22-C , 25-C ) :   1.0713 B( 25-C , 26-H ) :   0.9449
B( 25-C , 27-H ) :   0.9510 B( 25-C , 28-C ) :   1.0928 B( 28-C , 29-H ) :   0.9680
B( 28-C , 30-H ) :   0.9737 B( 28-C , 31-H ) :   0.9664

Dispersion correction           -0.014784954
FINAL SINGLE POINT ENERGY     -1339.874957443127

DIPOLE MOMENT
-------------
                                X             Y             Z
Electronic contribution:    -14.15602      15.24511       2.96915
Nuclear contribution   :     14.21990     -15.55853      -2.84557
                        -----------------------------------------
Total Dipole Moment    :      0.06389      -0.31342       0.12358
                        -----------------------------------------
Magnitude (a.u.)       :      0.34291
Magnitude (Debye)      :      0.87160

Rotational constants in cm-1:     0.019502     0.008425     0.007684
Rotational constants in MHz :   584.645735   252.584406   230.372000

                             ****ORCA TERMINATED NORMALLY****
TOTAL RUN TIME: 0 days 0 hours 0 minutes 24 seconds 36 msec
