                         Program Version 4.2.1 -  RELEASE  -
|  1> ! wB97X-D3 SP def2-SVP
|  2> %pal
|  3> nprocs 24
|  4> end
|  5>
|  6> * xyz 0 1
|  7> S 	 14.9141 	 -13.3354 	 -117.734
|  8> C 	 14.2139 	 -11.7557 	 -117.982
|  9> C 	 13.0117 	 -11.9519 	 -118.574
| 10> C 	 12.7319 	 -13.3537 	 -118.796
| 11> C 	 13.6515 	 -14.2691 	 -118.255
| 12> H 	 11.8474 	 -13.7073 	 -119.299
| 13> C 	 12.1961 	 -10.8191 	 -119.158
| 14> H 	 11.7563 	 -11.1958 	 -120.11
| 15> H 	 12.8995 	 -10.0302 	 -119.505
| 16> C 	 11.1173 	 -10.3219 	 -118.239
| 17> H 	 10.8093 	 -9.36586 	 -118.702
| 18> H 	 10.2804 	 -11.0829 	 -118.195
| 19> C 	 11.6421 	 -9.98686 	 -116.824
| 20> H 	 12.201 	 -9.09165 	 -116.744
| 21> H 	 10.7334 	 -9.81834 	 -116.123
| 22> H 	 12.3244 	 -10.8146 	 -116.429
| 23> S 	 13.2303 	 -16.172 	 -120.161
| 24> C 	 13.5699 	 -17.8174 	 -119.789
| 25> C 	 14.0042 	 -18.0388 	 -118.5
| 26> C 	 14.0519 	 -16.8061 	 -117.768
| 27> C 	 13.6796 	 -15.6684 	 -118.501
| 28> H 	 14.3568 	 -18.9286 	 -118.102
| 29> C 	 14.4238 	 -16.6187 	 -116.298
| 30> H 	 13.6809 	 -17.042 	 -115.664
| 31> H 	 14.6096 	 -15.6094 	 -116.044
| 32> C 	 15.6798 	 -17.3372 	 -115.8
| 33> H 	 16.6365 	 -17.0623 	 -116.228
| 34> H 	 15.5894 	 -18.3665 	 -116.122
| 35> C 	 15.8437 	 -17.1396 	 -114.37
| 36> H 	 16.2432 	 -16.1786 	 -114.145
| 37> H 	 16.496 	 -17.8235 	 -113.937
| 38> H 	 14.8382 	 -17.2528 	 -113.923
| 39> H 	 14.5677 	 -10.747 	 -117.757
| 40> H 	 13.5945 	 -18.5404 	 -120.552
| 41> *
| 42>
| 43>                          ****END OF INPUT****

CARTESIAN COORDINATES (ANGSTROEM)
---------------------------------
  S     14.914100  -13.335400  -117.734000
  C     14.213900  -11.755700  -117.982000
  C     13.011700  -11.951900  -118.574000
  C     12.731900  -13.353700  -118.796000
  C     13.651500  -14.269100  -118.255000
  H     11.847400  -13.707300  -119.299000
  C     12.196100  -10.819100  -119.158000
  H     11.756300  -11.195800  -120.110000
  H     12.899500  -10.030200  -119.505000
  C     11.117300  -10.321900  -118.239000
  H     10.809300   -9.365860  -118.702000
  H     10.280400  -11.082900  -118.195000
  C     11.642100   -9.986860  -116.824000
  H     12.201000   -9.091650  -116.744000
  H     10.733400   -9.818340  -116.123000
  H     12.324400  -10.814600  -116.429000
  S     13.230300  -16.172000  -120.161000
  C     13.569900  -17.817400  -119.789000
  C     14.004200  -18.038800  -118.500000
  C     14.051900  -16.806100  -117.768000
  C     13.679600  -15.668400  -118.501000
  H     14.356800  -18.928600  -118.102000
  C     14.423800  -16.618700  -116.298000
  H     13.680900  -17.042000  -115.664000
  H     14.609600  -15.609400  -116.044000
  C     15.679800  -17.337200  -115.800000
  H     16.636500  -17.062300  -116.228000
  H     15.589400  -18.366500  -116.122000
  C     15.843700  -17.139600  -114.370000
  H     16.243200  -16.178600  -114.145000
  H     16.496000  -17.823500  -113.937000
  H     14.838200  -17.252800  -113.923000
  H     14.567700  -10.747000  -117.757000
  H     13.594500  -18.540400  -120.552000

 Total Charge           Charge          ....    0
 Multiplicity           Mult            ....    1
 Number of Electrons    NEL             ....  134
 Basis Dimension        Dim             ....  322

ORBITAL ENERGIES
----------------

  NO   OCC          E(Eh)            E(eV)
   0   2.0000     -88.966779     -2420.9091
   1   2.0000     -88.964201     -2420.8390
   2   2.0000     -10.329125      -281.0698
   3   2.0000     -10.325038      -280.9586
   4   2.0000     -10.318335      -280.7762
   5   2.0000     -10.310900      -280.5739
   6   2.0000     -10.308666      -280.5130
   7   2.0000     -10.295372      -280.1513
   8   2.0000     -10.295256      -280.1482
   9   2.0000     -10.292341      -280.0688
  10   2.0000     -10.291543      -280.0471
  11   2.0000     -10.290750      -280.0255
  12   2.0000     -10.283587      -279.8306
  13   2.0000     -10.281915      -279.7851
  14   2.0000     -10.273573      -279.5581
  15   2.0000     -10.264269      -279.3049
  16   2.0000      -8.081461      -219.9077
  17   2.0000      -8.080266      -219.8752
  18   2.0000      -6.039911      -164.3543
  19   2.0000      -6.038768      -164.3232
  20   2.0000      -6.035948      -164.2465
  21   2.0000      -6.034326      -164.2024
  22   2.0000      -6.032309      -164.1475
  23   2.0000      -6.031134      -164.1155
  24   2.0000      -1.017362       -27.6838
  25   2.0000      -0.989411       -26.9232
  26   2.0000      -0.922073       -25.0909
  27   2.0000      -0.918402       -24.9910
  28   2.0000      -0.876003       -23.8373
  29   2.0000      -0.858632       -23.3646
  30   2.0000      -0.838906       -22.8278
  31   2.0000      -0.813676       -22.1413
  32   2.0000      -0.783849       -21.3296
  33   2.0000      -0.777059       -21.1449
  34   2.0000      -0.711801       -19.3691
  35   2.0000      -0.701790       -19.0967
  36   2.0000      -0.688286       -18.7292
  37   2.0000      -0.667551       -18.1650
  38   2.0000      -0.634268       -17.2593
  39   2.0000      -0.616960       -16.7883
  40   2.0000      -0.609453       -16.5841
  41   2.0000      -0.579780       -15.7766
  42   2.0000      -0.579390       -15.7660
  43   2.0000      -0.546866       -14.8810
  44   2.0000      -0.543082       -14.7780
  45   2.0000      -0.531884       -14.4733
  46   2.0000      -0.526063       -14.3149
  47   2.0000      -0.515716       -14.0333
  48   2.0000      -0.511999       -13.9322
  49   2.0000      -0.500753       -13.6262
  50   2.0000      -0.482999       -13.1431
  51   2.0000      -0.480698       -13.0805
  52   2.0000      -0.475890       -12.9496
  53   2.0000      -0.471262       -12.8237
  54   2.0000      -0.463971       -12.6253
  55   2.0000      -0.456853       -12.4316
  56   2.0000      -0.434527       -11.8241
  57   2.0000      -0.432948       -11.7811
  58   2.0000      -0.430933       -11.7263
  59   2.0000      -0.423890       -11.5346
  60   2.0000      -0.420341       -11.4381
  61   2.0000      -0.407197       -11.0804
  62   2.0000      -0.400135       -10.8882
  63   2.0000      -0.353779        -9.6268
  64   2.0000      -0.334351        -9.0981
  65   2.0000      -0.324372        -8.8266
  66   2.0000      -0.291902        -7.9431
  67   0.0000       0.026449         0.7197
  68   0.0000       0.071769         1.9529
  69   0.0000       0.105503         2.8709
  70   0.0000       0.121449         3.3048
  71   0.0000       0.129985         3.5371

MULLIKEN ATOMIC CHARGES
-----------------------
   0 S :    0.112560
   1 C :   -0.120632
   2 C :   -0.109903
   3 C :   -0.023388
   4 C :   -0.104052
   5 H :    0.003709
   6 C :    0.036257
   7 H :    0.031652
   8 H :    0.031523
   9 C :   -0.051745
  10 H :    0.034644
  11 H :    0.046919
  12 C :   -0.105128
  13 H :    0.021097
  14 H :    0.046477
  15 H :    0.064227
  16 S :    0.105967
  17 C :   -0.057965
  18 C :    0.008851
  19 C :   -0.023331
  20 C :   -0.150566
  21 H :   -0.007152
  22 C :    0.084894
  23 H :    0.025546
  24 H :    0.010435
  25 C :   -0.100310
  26 H :    0.018600
  27 H :    0.009761
  28 C :    0.010444
  29 H :    0.026912
  30 H :    0.014669
  31 H :    0.015209
  32 H :    0.050104
  33 H :    0.043715
Sum of atomic charges:    0.0000000

LOEWDIN ATOMIC CHARGES
----------------------
   0 S :    0.459057
   1 C :   -0.208095
   2 C :   -0.070478
   3 C :   -0.079819
   4 C :   -0.231052
   5 H :    0.019505
   6 C :   -0.039044
   7 H :    0.035809
   8 H :    0.032184
   9 C :   -0.045400
  10 H :    0.029556
  11 H :    0.032892
  12 C :   -0.081375
  13 H :    0.014235
  14 H :    0.036860
  15 H :    0.035390
  16 S :    0.411397
  17 C :   -0.170439
  18 C :   -0.062936
  19 C :   -0.040709
  20 C :   -0.187039
  21 H :    0.021009
  22 C :   -0.023221
  23 H :    0.030476
  24 H :    0.016984
  25 C :   -0.044778
  26 H :    0.022171
  27 H :    0.014369
  28 C :   -0.053732
  29 H :    0.025017
  30 H :    0.019565
  31 H :    0.025642
  32 H :    0.037051
  33 H :    0.018946

  Mayer bond orders larger than 0.100000
B(  0-S ,  1-C ) :   1.1471 B(  0-S ,  4-C ) :   1.1853 B(  1-C ,  2-C ) :   1.5695
B(  1-C , 32-H ) :   0.9704 B(  2-C ,  3-C ) :   1.2842 B(  2-C ,  6-C ) :   1.0110
B(  3-C ,  4-C ) :   1.4847 B(  3-C ,  5-H ) :   1.0002 B(  4-C , 20-C ) :   1.0811
B(  6-C ,  7-H ) :   0.9437 B(  6-C ,  8-H ) :   0.9492 B(  6-C ,  9-C ) :   1.0702
B(  9-C , 10-H ) :   0.9532 B(  9-C , 11-H ) :   0.9562 B(  9-C , 12-C ) :   1.0760
B( 12-C , 13-H ) :   0.9754 B( 12-C , 14-H ) :   0.9740 B( 12-C , 15-H ) :   0.9667
B( 16-S , 17-C ) :   1.1794 B( 16-S , 20-C ) :   1.1213 B( 17-C , 18-C ) :   1.5773
B( 17-C , 33-H ) :   0.9700 B( 18-C , 19-C ) :   1.2481 B( 18-C , 21-H ) :   1.0029
B( 19-C , 20-C ) :   1.5771 B( 19-C , 22-C ) :   1.0421 B( 22-C , 23-H ) :   0.9269
B( 22-C , 24-H ) :   0.9403 B( 22-C , 25-C ) :   1.0557 B( 25-C , 26-H ) :   0.9492
B( 25-C , 27-H ) :   0.9525 B( 25-C , 28-C ) :   1.1043 B( 28-C , 29-H ) :   0.9702
B( 28-C , 30-H ) :   0.9650 B( 28-C , 31-H ) :   0.9673

Dispersion correction           -0.013863096
FINAL SINGLE POINT ENERGY     -1339.860923792627

DIPOLE MOMENT
-------------
                                X             Y             Z
Electronic contribution:      2.75895      -7.46882     -15.85532
Nuclear contribution   :     -2.75432       7.46884      15.89001
                        -----------------------------------------
Total Dipole Moment    :      0.00463       0.00002       0.03469
                        -----------------------------------------
Magnitude (a.u.)       :      0.03500
Magnitude (Debye)      :      0.08896

Rotational constants in cm-1:     0.021083     0.008046     0.006393
Rotational constants in MHz :   632.047570   241.225347   191.668311

                             ****ORCA TERMINATED NORMALLY****
TOTAL RUN TIME: 0 days 0 hours 0 minutes 21 seconds 328 msec
