                         Program Version 4.2.1 -  RELEASE  -
|  1> ! wB97X-D3 SP def2-SVP
|  2> %pal
|  3> nprocs 24
|  4> end
|  5>
|  6> * xyz 0 1
|  7> S 	 -107.449 	 43.304 	 -8.97267
|  8> C 	 -108.414 	 44.5243 	 -9.77219
|  9> C 	 -107.974 	 44.7881 	 -11.0304
| 10> C 	 -106.849 	 43.9929 	 -11.4221
| 11> C 	 -106.432 	 43.1242 	 -10.4085
| 12> H 	 -106.379 	 43.9123 	 -12.3424
| 13> C 	 -108.559 	 45.7958 	 -12.0316
| 14> H 	 -107.687 	 46.4265 	 -12.2928
| 15> H 	 -109.226 	 46.427 	 -11.4328
| 16> C 	 -109.308 	 45.2471 	 -13.2725
| 17> H 	 -109.736 	 46.0572 	 -13.8562
| 18> H 	 -108.552 	 44.8325 	 -13.9325
| 19> C 	 -110.4 	 44.1572 	 -12.9603
| 20> H 	 -110.914 	 43.7668 	 -13.8551
| 21> H 	 -109.942 	 43.3782 	 -12.3848
| 22> H 	 -111.202 	 44.4445 	 -12.2372
| 23> S 	 -103.752 	 43.0192 	 -10.9372
| 24> C 	 -102.982 	 41.5334 	 -10.7048
| 25> C 	 -103.757 	 40.5407 	 -10.2226
| 26> C 	 -105.105 	 40.9517 	 -9.94355
| 27> C 	 -105.309 	 42.2705 	 -10.4317
| 28> H 	 -103.328 	 39.608 	 -9.9961
| 29> C 	 -106.187 	 40.0031 	 -9.37874
| 30> H 	 -107.116 	 40.0505 	 -9.93788
| 31> H 	 -106.432 	 40.1572 	 -8.33432
| 32> C 	 -105.908 	 38.4761 	 -9.62922
| 33> H 	 -104.991 	 38.319 	 -9.0263
| 34> H 	 -105.712 	 38.2172 	 -10.6905
| 35> C 	 -107.019 	 37.5215 	 -9.12171
| 36> H 	 -107.939 	 37.5702 	 -9.76917
| 37> H 	 -107.34 	 37.7924 	 -8.12156
| 38> H 	 -106.668 	 36.4372 	 -9.14213
| 39> H 	 -109.358 	 44.8687 	 -9.45778
| 40> H 	 -101.968 	 41.3034 	 -10.8421
| 41> *
| 42>
| 43>                          ****END OF INPUT****

CARTESIAN COORDINATES (ANGSTROEM)
---------------------------------
  S    -107.449000   43.304000   -8.972670
  C    -108.414000   44.524300   -9.772190
  C    -107.974000   44.788100  -11.030400
  C    -106.849000   43.992900  -11.422100
  C    -106.432000   43.124200  -10.408500
  H    -106.379000   43.912300  -12.342400
  C    -108.559000   45.795800  -12.031600
  H    -107.687000   46.426500  -12.292800
  H    -109.226000   46.427000  -11.432800
  C    -109.308000   45.247100  -13.272500
  H    -109.736000   46.057200  -13.856200
  H    -108.552000   44.832500  -13.932500
  C    -110.400000   44.157200  -12.960300
  H    -110.914000   43.766800  -13.855100
  H    -109.942000   43.378200  -12.384800
  H    -111.202000   44.444500  -12.237200
  S    -103.752000   43.019200  -10.937200
  C    -102.982000   41.533400  -10.704800
  C    -103.757000   40.540700  -10.222600
  C    -105.105000   40.951700   -9.943550
  C    -105.309000   42.270500  -10.431700
  H    -103.328000   39.608000   -9.996100
  C    -106.187000   40.003100   -9.378740
  H    -107.116000   40.050500   -9.937880
  H    -106.432000   40.157200   -8.334320
  C    -105.908000   38.476100   -9.629220
  H    -104.991000   38.319000   -9.026300
  H    -105.712000   38.217200  -10.690500
  C    -107.019000   37.521500   -9.121710
  H    -107.939000   37.570200   -9.769170
  H    -107.340000   37.792400   -8.121560
  H    -106.668000   36.437200   -9.142130
  H    -109.358000   44.868700   -9.457780
  H    -101.968000   41.303400  -10.842100

 Total Charge           Charge          ....    0
 Multiplicity           Mult            ....    1
 Number of Electrons    NEL             ....  134
 Basis Dimension        Dim             ....  322

ORBITAL ENERGIES
----------------

  NO   OCC          E(Eh)            E(eV)
   0   2.0000     -88.969200     -2420.9750
   1   2.0000     -88.964701     -2420.8526
   2   2.0000     -10.327828      -281.0345
   3   2.0000     -10.326445      -280.9968
   4   2.0000     -10.313026      -280.6317
   5   2.0000     -10.306950      -280.4664
   6   2.0000     -10.306160      -280.4449
   7   2.0000     -10.298491      -280.2362
   8   2.0000     -10.296003      -280.1685
   9   2.0000     -10.295541      -280.1559
  10   2.0000     -10.293610      -280.1034
  11   2.0000     -10.291760      -280.0530
  12   2.0000     -10.289137      -279.9817
  13   2.0000     -10.287841      -279.9464
  14   2.0000     -10.286462      -279.9089
  15   2.0000     -10.279901      -279.7303
  16   2.0000      -8.084126      -219.9803
  17   2.0000      -8.078988      -219.8404
  18   2.0000      -6.042527      -164.4255
  19   2.0000      -6.038712      -164.3217
  20   2.0000      -6.037585      -164.2910
  21   2.0000      -6.034875      -164.2173
  22   2.0000      -6.033550      -164.1812
  23   2.0000      -6.029698      -164.0764
  24   2.0000      -1.006573       -27.3903
  25   2.0000      -0.984008       -26.7762
  26   2.0000      -0.905479       -24.6393
  27   2.0000      -0.903523       -24.5861
  28   2.0000      -0.873370       -23.7656
  29   2.0000      -0.850376       -23.1399
  30   2.0000      -0.841012       -22.8851
  31   2.0000      -0.813056       -22.1244
  32   2.0000      -0.783696       -21.3254
  33   2.0000      -0.772453       -21.0195
  34   2.0000      -0.713336       -19.4109
  35   2.0000      -0.701819       -19.0975
  36   2.0000      -0.694200       -18.8901
  37   2.0000      -0.656319       -17.8594
  38   2.0000      -0.638867       -17.3845
  39   2.0000      -0.613988       -16.7075
  40   2.0000      -0.603090       -16.4109
  41   2.0000      -0.569189       -15.4884
  42   2.0000      -0.562993       -15.3198
  43   2.0000      -0.546000       -14.8574
  44   2.0000      -0.540471       -14.7070
  45   2.0000      -0.519714       -14.1421
  46   2.0000      -0.516015       -14.0415
  47   2.0000      -0.508144       -13.8273
  48   2.0000      -0.505353       -13.7514
  49   2.0000      -0.495613       -13.4863
  50   2.0000      -0.485218       -13.2035
  51   2.0000      -0.475965       -12.9517
  52   2.0000      -0.473375       -12.8812
  53   2.0000      -0.466132       -12.6841
  54   2.0000      -0.459787       -12.5115
  55   2.0000      -0.452077       -12.3016
  56   2.0000      -0.449441       -12.2299
  57   2.0000      -0.442576       -12.0431
  58   2.0000      -0.436321       -11.8729
  59   2.0000      -0.427572       -11.6348
  60   2.0000      -0.422684       -11.5018
  61   2.0000      -0.411572       -11.1994
  62   2.0000      -0.400192       -10.8898
  63   2.0000      -0.347855        -9.4656
  64   2.0000      -0.336779        -9.1642
  65   2.0000      -0.329757        -8.9732
  66   2.0000      -0.288053        -7.8383
  67   0.0000       0.023554         0.6409
  68   0.0000       0.076477         2.0810
  69   0.0000       0.106548         2.8993
  70   0.0000       0.116034         3.1574
  71   0.0000       0.130055         3.5390

MULLIKEN ATOMIC CHARGES
-----------------------
   0 S :    0.107517
   1 C :   -0.096789
   2 C :   -0.101393
   3 C :    0.025401
   4 C :   -0.146579
   5 H :   -0.012810
   6 C :    0.058431
   7 H :    0.045092
   8 H :    0.013787
   9 C :   -0.045878
  10 H :    0.033894
  11 H :    0.026995
  12 C :   -0.072004
  13 H :    0.045136
  14 H :    0.037326
  15 H :    0.025898
  16 S :    0.126454
  17 C :   -0.033621
  18 C :   -0.043226
  19 C :   -0.005114
  20 C :   -0.167395
  21 H :   -0.003319
  22 C :    0.051964
  23 H :    0.033519
  24 H :    0.043304
  25 C :   -0.142056
  26 H :    0.037896
  27 H :    0.048122
  28 C :   -0.066061
  29 H :    0.040376
  30 H :    0.029659
  31 H :    0.051320
  32 H :    0.026230
  33 H :    0.027924
Sum of atomic charges:   -0.0000000

LOEWDIN ATOMIC CHARGES
----------------------
   0 S :    0.398526
   1 C :   -0.196220
   2 C :   -0.062703
   3 C :   -0.060363
   4 C :   -0.185004
   5 H :    0.018191
   6 C :   -0.031203
   7 H :    0.039118
   8 H :    0.025534
   9 C :   -0.038087
  10 H :    0.025268
  11 H :    0.023048
  12 C :   -0.073060
  13 H :    0.029990
  14 H :    0.024258
  15 H :    0.027169
  16 S :    0.421898
  17 C :   -0.193378
  18 C :   -0.070258
  19 C :   -0.041912
  20 C :   -0.188630
  21 H :    0.023451
  22 C :   -0.037682
  23 H :    0.032592
  24 H :    0.031070
  25 C :   -0.047032
  26 H :    0.020422
  27 H :    0.028624
  28 C :   -0.072758
  29 H :    0.028735
  30 H :    0.021109
  31 H :    0.037218
  32 H :    0.019848
  33 H :    0.022223

  Mayer bond orders larger than 0.100000
B(  0-S ,  1-C ) :   1.1256 B(  0-S ,  4-C ) :   1.1311 B(  1-C ,  2-C ) :   1.6417
B(  1-C , 32-H ) :   0.9639 B(  2-C ,  3-C ) :   1.2072 B(  2-C ,  6-C ) :   1.0122
B(  3-C ,  4-C ) :   1.5555 B(  3-C ,  5-H ) :   1.0116 B(  4-C , 20-C ) :   1.1155
B(  6-C ,  7-H ) :   0.9433 B(  6-C ,  8-H ) :   0.9423 B(  6-C ,  9-C ) :   1.0653
B(  9-C , 10-H ) :   0.9587 B(  9-C , 11-H ) :   0.9553 B(  9-C , 12-C ) :   1.0640
B( 12-C , 13-H ) :   0.9766 B( 12-C , 14-H ) :   0.9728 B( 12-C , 15-H ) :   0.9769
B( 16-S , 17-C ) :   1.1551 B( 16-S , 20-C ) :   1.1307 B( 17-C , 18-C ) :   1.6292
B( 17-C , 33-H ) :   0.9583 B( 18-C , 19-C ) :   1.2418 B( 18-C , 21-H ) :   0.9933
B( 19-C , 20-C ) :   1.5614 B( 19-C , 22-C ) :   1.0246 B( 22-C , 23-H ) :   0.9465
B( 22-C , 24-H ) :   0.9327 B( 22-C , 25-C ) :   1.0620 B( 25-C , 26-H ) :   0.9492
B( 25-C , 27-H ) :   0.9614 B( 25-C , 28-C ) :   1.0804 B( 28-C , 29-H ) :   0.9741
B( 28-C , 30-H ) :   0.9738 B( 28-C , 31-H ) :   0.9737

Dispersion correction           -0.014107769
FINAL SINGLE POINT ENERGY     -1339.878975368824

DIPOLE MOMENT
-------------
                                X             Y             Z
Electronic contribution:     16.44371      10.85250       7.00784
Nuclear contribution   :    -16.56662     -11.16572      -7.22313
                        -----------------------------------------
Total Dipole Moment    :     -0.12291      -0.31322      -0.21529
                        -----------------------------------------
Magnitude (a.u.)       :      0.39945
Magnitude (Debye)      :      1.01533

Rotational constants in cm-1:     0.018724     0.007980     0.006627
Rotational constants in MHz :   561.318411   239.221665   198.680108

                             ****ORCA TERMINATED NORMALLY****
TOTAL RUN TIME: 0 days 0 hours 0 minutes 21 seconds 970 msec
