                         Program Version 4.2.1 -  RELEASE  -
|  1> ! wB97X-D3 SP def2-SVP
|  2> %pal
|  3> nprocs 24
|  4> end
|  5>
|  6> * xyz 0 1
|  7> S 	 -101.224 	 -4.95403 	 -102.499
|  8> C 	 -100.628 	 -6.13794 	 -103.631
|  9> C 	 -101.378 	 -6.21629 	 -104.774
| 10> C 	 -102.463 	 -5.28069 	 -104.724
| 11> C 	 -102.608 	 -4.48344 	 -103.579
| 12> H 	 -103.091 	 -5.07328 	 -105.572
| 13> C 	 -101.096 	 -7.02789 	 -106.014
| 14> H 	 -100.194 	 -7.61475 	 -105.702
| 15> H 	 -100.705 	 -6.47673 	 -106.878
| 16> C 	 -102.236 	 -7.94988 	 -106.283
| 17> H 	 -102.719 	 -8.40125 	 -105.308
| 18> H 	 -103.018 	 -7.42752 	 -106.868
| 19> C 	 -101.916 	 -9.10139 	 -107.133
| 20> H 	 -102.826 	 -9.70215 	 -107.266
| 21> H 	 -101.521 	 -8.78837 	 -108.102
| 22> H 	 -101.192 	 -9.79485 	 -106.695
| 23> S 	 -103.023 	 -2.28696 	 -102.036
| 24> C 	 -104.438 	 -1.37639 	 -102.243
| 25> C 	 -105.301 	 -1.98319 	 -103.097
| 26> C 	 -104.809 	 -3.20279 	 -103.685
| 27> C 	 -103.546 	 -3.41358 	 -103.238
| 28> H 	 -106.217 	 -1.46995 	 -103.257
| 29> C 	 -105.542 	 -4.01523 	 -104.71
| 30> H 	 -105.107 	 -3.86844 	 -105.722
| 31> H 	 -106.532 	 -3.49296 	 -104.797
| 32> C 	 -105.811 	 -5.48521 	 -104.325
| 33> H 	 -106.291 	 -5.38099 	 -103.429
| 34> H 	 -104.895 	 -6.04209 	 -104.094
| 35> C 	 -106.613 	 -6.26597 	 -105.333
| 36> H 	 -106.936 	 -7.29836 	 -104.958
| 37> H 	 -106.01 	 -6.41788 	 -106.253
| 38> H 	 -107.541 	 -5.70311 	 -105.624
| 39> H 	 -99.6065 	 -6.53715 	 -103.634
| 40> H 	 -104.589 	 -0.368829 	 -101.907
| 41> *
| 42>
| 43>                          ****END OF INPUT****

CARTESIAN COORDINATES (ANGSTROEM)
---------------------------------
  S    -101.224000   -4.954030  -102.499000
  C    -100.628000   -6.137940  -103.631000
  C    -101.378000   -6.216290  -104.774000
  C    -102.463000   -5.280690  -104.724000
  C    -102.608000   -4.483440  -103.579000
  H    -103.091000   -5.073280  -105.572000
  C    -101.096000   -7.027890  -106.014000
  H    -100.194000   -7.614750  -105.702000
  H    -100.705000   -6.476730  -106.878000
  C    -102.236000   -7.949880  -106.283000
  H    -102.719000   -8.401250  -105.308000
  H    -103.018000   -7.427520  -106.868000
  C    -101.916000   -9.101390  -107.133000
  H    -102.826000   -9.702150  -107.266000
  H    -101.521000   -8.788370  -108.102000
  H    -101.192000   -9.794850  -106.695000
  S    -103.023000   -2.286960  -102.036000
  C    -104.438000   -1.376390  -102.243000
  C    -105.301000   -1.983190  -103.097000
  C    -104.809000   -3.202790  -103.685000
  C    -103.546000   -3.413580  -103.238000
  H    -106.217000   -1.469950  -103.257000
  C    -105.542000   -4.015230  -104.710000
  H    -105.107000   -3.868440  -105.722000
  H    -106.532000   -3.492960  -104.797000
  C    -105.811000   -5.485210  -104.325000
  H    -106.291000   -5.380990  -103.429000
  H    -104.895000   -6.042090  -104.094000
  C    -106.613000   -6.265970  -105.333000
  H    -106.936000   -7.298360  -104.958000
  H    -106.010000   -6.417880  -106.253000
  H    -107.541000   -5.703110  -105.624000
  H    -99.606500   -6.537150  -103.634000
  H    -104.589000   -0.368829  -101.907000

 Total Charge           Charge          ....    0
 Multiplicity           Mult            ....    1
 Number of Electrons    NEL             ....  134
 Basis Dimension        Dim             ....  322

ORBITAL ENERGIES
----------------

  NO   OCC          E(Eh)            E(eV)
   0   2.0000     -88.965779     -2420.8819
   1   2.0000     -88.962459     -2420.7916
   2   2.0000     -10.336276      -281.2644
   3   2.0000     -10.324998      -280.9575
   4   2.0000     -10.312045      -280.6050
   5   2.0000     -10.310201      -280.5548
   6   2.0000     -10.302841      -280.3546
   7   2.0000     -10.298907      -280.2475
   8   2.0000     -10.298891      -280.2471
   9   2.0000     -10.295522      -280.1554
  10   2.0000     -10.292529      -280.0740
  11   2.0000     -10.290941      -280.0307
  12   2.0000     -10.290594      -280.0213
  13   2.0000     -10.286945      -279.9220
  14   2.0000     -10.275620      -279.6138
  15   2.0000     -10.274982      -279.5965
  16   2.0000      -8.082264      -219.9296
  17   2.0000      -8.076364      -219.7690
  18   2.0000      -6.040628      -164.3738
  19   2.0000      -6.036650      -164.2656
  20   2.0000      -6.035122      -164.2240
  21   2.0000      -6.032939      -164.1646
  22   2.0000      -6.030992      -164.1116
  23   2.0000      -6.026909      -164.0005
  24   2.0000      -1.015318       -27.6282
  25   2.0000      -0.984034       -26.7769
  26   2.0000      -0.921730       -25.0816
  27   2.0000      -0.914532       -24.8857
  28   2.0000      -0.874588       -23.7987
  29   2.0000      -0.858110       -23.3504
  30   2.0000      -0.845712       -23.0130
  31   2.0000      -0.817539       -22.2464
  32   2.0000      -0.783150       -21.3106
  33   2.0000      -0.773313       -21.0429
  34   2.0000      -0.711062       -19.3490
  35   2.0000      -0.697435       -18.9782
  36   2.0000      -0.685097       -18.6424
  37   2.0000      -0.668206       -18.1828
  38   2.0000      -0.636243       -17.3131
  39   2.0000      -0.621804       -16.9202
  40   2.0000      -0.597989       -16.2721
  41   2.0000      -0.580537       -15.7972
  42   2.0000      -0.566236       -15.4081
  43   2.0000      -0.558912       -15.2088
  44   2.0000      -0.534043       -14.5320
  45   2.0000      -0.527149       -14.3444
  46   2.0000      -0.519211       -14.1285
  47   2.0000      -0.511896       -13.9294
  48   2.0000      -0.508559       -13.8386
  49   2.0000      -0.499625       -13.5955
  50   2.0000      -0.494006       -13.4426
  51   2.0000      -0.486741       -13.2449
  52   2.0000      -0.470964       -12.8156
  53   2.0000      -0.463224       -12.6050
  54   2.0000      -0.455485       -12.3944
  55   2.0000      -0.450270       -12.2525
  56   2.0000      -0.439108       -11.9487
  57   2.0000      -0.435488       -11.8502
  58   2.0000      -0.430610       -11.7175
  59   2.0000      -0.428539       -11.6611
  60   2.0000      -0.419353       -11.4112
  61   2.0000      -0.412447       -11.2233
  62   2.0000      -0.410306       -11.1650
  63   2.0000      -0.361580        -9.8391
  64   2.0000      -0.335823        -9.1382
  65   2.0000      -0.326403        -8.8819
  66   2.0000      -0.284969        -7.7544
  67   0.0000       0.021179         0.5763
  68   0.0000       0.083089         2.2610
  69   0.0000       0.105027         2.8579
  70   0.0000       0.122590         3.3358
  71   0.0000       0.124198         3.3796

MULLIKEN ATOMIC CHARGES
-----------------------
   0 S :    0.079066
   1 C :   -0.112506
   2 C :   -0.109308
   3 C :    0.008835
   4 C :   -0.127581
   5 H :    0.000044
   6 C :    0.089610
   7 H :    0.008081
   8 H :    0.046438
   9 C :   -0.122673
  10 H :    0.056552
  11 H :    0.035868
  12 C :   -0.036308
  13 H :    0.033560
  14 H :    0.022992
  15 H :    0.026433
  16 S :    0.115256
  17 C :   -0.075848
  18 C :   -0.033825
  19 C :   -0.051187
  20 C :   -0.117971
  21 H :    0.002016
  22 C :    0.027016
  23 H :    0.045809
  24 H :    0.015651
  25 C :   -0.040615
  26 H :    0.007356
  27 H :    0.050097
  28 C :   -0.060653
  29 H :    0.048030
  30 H :    0.030683
  31 H :    0.029567
  32 H :    0.057323
  33 H :    0.052192
Sum of atomic charges:   -0.0000000

LOEWDIN ATOMIC CHARGES
----------------------
   0 S :    0.367930
   1 C :   -0.204140
   2 C :   -0.066404
   3 C :   -0.066213
   4 C :   -0.164399
   5 H :    0.023652
   6 C :   -0.036255
   7 H :    0.032314
   8 H :    0.036632
   9 C :   -0.055238
  10 H :    0.042384
  11 H :    0.027316
  12 C :   -0.066915
  13 H :    0.029540
  14 H :    0.021906
  15 H :    0.021330
  16 S :    0.432400
  17 C :   -0.197285
  18 C :   -0.067478
  19 C :   -0.058225
  20 C :   -0.195877
  21 H :    0.026248
  22 C :   -0.034658
  23 H :    0.031450
  24 H :    0.035344
  25 C :   -0.041482
  26 H :    0.015016
  27 H :    0.029928
  28 C :   -0.070058
  29 H :    0.035421
  30 H :    0.024739
  31 H :    0.025676
  32 H :    0.034743
  33 H :    0.030662

  Mayer bond orders larger than 0.100000
B(  0-S ,  1-C ) :   1.1312 B(  0-S ,  4-C ) :   1.1214 B(  1-C ,  2-C ) :   1.6426
B(  1-C , 32-H ) :   0.9507 B(  2-C ,  3-C ) :   1.2374 B(  2-C ,  6-C ) :   1.0257
B(  3-C ,  4-C ) :   1.5810 B(  3-C ,  5-H ) :   0.9894 B(  4-C , 20-C ) :   1.0791
B(  6-C ,  7-H ) :   0.9373 B(  6-C ,  8-H ) :   0.9327 B(  6-C ,  9-C ) :   1.0563
B(  9-C , 10-H ) :   0.9547 B(  9-C , 11-H ) :   0.9438 B(  9-C , 12-C ) :   1.1060
B( 12-C , 13-H ) :   0.9716 B( 12-C , 14-H ) :   0.9659 B( 12-C , 15-H ) :   0.9723
B( 16-S , 17-C ) :   1.1550 B( 16-S , 20-C ) :   1.1423 B( 17-C , 18-C ) :   1.6338
B( 17-C , 33-H ) :   0.9649 B( 18-C , 19-C ) :   1.2202 B( 18-C , 21-H ) :   0.9959
B( 19-C , 20-C ) :   1.5967 B( 19-C , 22-C ) :   1.0462 B( 22-C , 23-H ) :   0.9320
B( 22-C , 24-H ) :   0.9253 B( 22-C , 25-C ) :   1.0481 B( 25-C , 26-H ) :   0.9456
B( 25-C , 27-H ) :   0.9515 B( 25-C , 28-C ) :   1.0934 B( 28-C , 29-H ) :   0.9721
B( 28-C , 30-H ) :   0.9720 B( 28-C , 31-H ) :   0.9707

Dispersion correction           -0.014718092
FINAL SINGLE POINT ENERGY     -1339.878524023872

DIPOLE MOMENT
-------------
                                X             Y             Z
Electronic contribution:     11.41874      21.67918      22.38900
Nuclear contribution   :    -11.72203     -21.74418     -23.04990
                        -----------------------------------------
Total Dipole Moment    :     -0.30329      -0.06500      -0.66090
                        -----------------------------------------
Magnitude (a.u.)       :      0.73006
Magnitude (Debye)      :      1.85567

Rotational constants in cm-1:     0.019646     0.009432     0.006725
Rotational constants in MHz :   588.970518   282.775591   201.620809

                             ****ORCA TERMINATED NORMALLY****
TOTAL RUN TIME: 0 days 0 hours 0 minutes 22 seconds 402 msec
