                         Program Version 4.2.1 -  RELEASE  -
|  1> ! wB97X-D3 SP def2-SVP
|  2> %pal
|  3> nprocs 24
|  4> end
|  5>
|  6> * xyz 0 1
|  7> S 	 -102.65 	 11.6396 	 -123.796
|  8> C 	 -104.05 	 12.5611 	 -124.154
|  9> C 	 -103.786 	 13.9026 	 -124.276
| 10> C 	 -102.407 	 14.146 	 -123.952
| 11> C 	 -101.68 	 13.0564 	 -123.614
| 12> H 	 -101.956 	 15.1262 	 -123.887
| 13> C 	 -104.772 	 14.9421 	 -124.718
| 14> H 	 -105.81 	 14.4962 	 -124.775
| 15> H 	 -104.396 	 15.362 	 -125.685
| 16> C 	 -104.897 	 16.108 	 -123.662
| 17> H 	 -103.954 	 16.6498 	 -123.423
| 18> H 	 -105.531 	 16.8401 	 -124.125
| 19> C 	 -105.401 	 15.5918 	 -122.254
| 20> H 	 -105.445 	 16.4172 	 -121.544
| 21> H 	 -106.364 	 15.1364 	 -122.338
| 22> H 	 -104.789 	 14.795 	 -121.789
| 23> S 	 -99.1101 	 12.6762 	 -124.669
| 24> C 	 -97.8307 	 13.0371 	 -123.617
| 25> C 	 -98.219 	 13.5028 	 -122.387
| 26> C 	 -99.5878 	 13.4088 	 -122.237
| 27> C 	 -100.267 	 12.9313 	 -123.363
| 28> H 	 -97.5122 	 13.6002 	 -121.571
| 29> C 	 -100.351 	 13.9517 	 -120.961
| 30> H 	 -101.391 	 13.6036 	 -121.186
| 31> H 	 -100.413 	 15.0184 	 -121.07
| 32> C 	 -99.9095 	 13.3694 	 -119.613
| 33> H 	 -100.404 	 13.8476 	 -118.778
| 34> H 	 -98.8468 	 13.4441 	 -119.523
| 35> C 	 -100.358 	 11.9004 	 -119.577
| 36> H 	 -99.6767 	 11.3398 	 -120.269
| 37> H 	 -101.396 	 11.7416 	 -119.991
| 38> H 	 -100.36 	 11.4839 	 -118.616
| 39> H 	 -105.028 	 12.1286 	 -124.298
| 40> H 	 -96.8367 	 12.9156 	 -123.905
| 41> *
| 42>
| 43>                          ****END OF INPUT****

CARTESIAN COORDINATES (ANGSTROEM)
---------------------------------
  S    -102.650000   11.639600  -123.796000
  C    -104.050000   12.561100  -124.154000
  C    -103.786000   13.902600  -124.276000
  C    -102.407000   14.146000  -123.952000
  C    -101.680000   13.056400  -123.614000
  H    -101.956000   15.126200  -123.887000
  C    -104.772000   14.942100  -124.718000
  H    -105.810000   14.496200  -124.775000
  H    -104.396000   15.362000  -125.685000
  C    -104.897000   16.108000  -123.662000
  H    -103.954000   16.649800  -123.423000
  H    -105.531000   16.840100  -124.125000
  C    -105.401000   15.591800  -122.254000
  H    -105.445000   16.417200  -121.544000
  H    -106.364000   15.136400  -122.338000
  H    -104.789000   14.795000  -121.789000
  S    -99.110100   12.676200  -124.669000
  C    -97.830700   13.037100  -123.617000
  C    -98.219000   13.502800  -122.387000
  C    -99.587800   13.408800  -122.237000
  C    -100.267000   12.931300  -123.363000
  H    -97.512200   13.600200  -121.571000
  C    -100.351000   13.951700  -120.961000
  H    -101.391000   13.603600  -121.186000
  H    -100.413000   15.018400  -121.070000
  C    -99.909500   13.369400  -119.613000
  H    -100.404000   13.847600  -118.778000
  H    -98.846800   13.444100  -119.523000
  C    -100.358000   11.900400  -119.577000
  H    -99.676700   11.339800  -120.269000
  H    -101.396000   11.741600  -119.991000
  H    -100.360000   11.483900  -118.616000
  H    -105.028000   12.128600  -124.298000
  H    -96.836700   12.915600  -123.905000

 Total Charge           Charge          ....    0
 Multiplicity           Mult            ....    1
 Number of Electrons    NEL             ....  134
 Basis Dimension        Dim             ....  322

ORBITAL ENERGIES
----------------

  NO   OCC          E(Eh)            E(eV)
   0   2.0000     -88.967034     -2420.9161
   1   2.0000     -88.959548     -2420.7124
   2   2.0000     -10.319451      -280.8065
   3   2.0000     -10.319202      -280.7998
   4   2.0000     -10.310773      -280.5704
   5   2.0000     -10.307691      -280.4865
   6   2.0000     -10.303690      -280.3777
   7   2.0000     -10.300274      -280.2847
   8   2.0000     -10.297299      -280.2037
   9   2.0000     -10.293742      -280.1070
  10   2.0000     -10.290043      -280.0063
  11   2.0000     -10.289871      -280.0016
  12   2.0000     -10.286145      -279.9002
  13   2.0000     -10.283602      -279.8310
  14   2.0000     -10.278106      -279.6815
  15   2.0000     -10.272586      -279.5313
  16   2.0000      -8.082632      -219.9396
  17   2.0000      -8.075696      -219.7509
  18   2.0000      -6.040905      -164.3814
  19   2.0000      -6.036994      -164.2750
  20   2.0000      -6.034044      -164.1947
  21   2.0000      -6.033610      -164.1829
  22   2.0000      -6.029973      -164.0839
  23   2.0000      -6.026574      -163.9914
  24   2.0000      -1.013826       -27.5876
  25   2.0000      -0.993015       -27.0213
  26   2.0000      -0.907869       -24.7044
  27   2.0000      -0.905739       -24.6464
  28   2.0000      -0.870467       -23.6866
  29   2.0000      -0.850543       -23.1444
  30   2.0000      -0.841776       -22.9059
  31   2.0000      -0.813336       -22.1320
  32   2.0000      -0.780661       -21.2429
  33   2.0000      -0.769056       -20.9271
  34   2.0000      -0.710069       -19.3220
  35   2.0000      -0.700112       -19.0510
  36   2.0000      -0.692635       -18.8476
  37   2.0000      -0.653538       -17.7837
  38   2.0000      -0.643805       -17.5188
  39   2.0000      -0.620768       -16.8919
  40   2.0000      -0.600376       -16.3370
  41   2.0000      -0.567714       -15.4483
  42   2.0000      -0.556898       -15.1540
  43   2.0000      -0.551963       -15.0197
  44   2.0000      -0.542555       -14.7637
  45   2.0000      -0.531939       -14.4748
  46   2.0000      -0.516021       -14.0417
  47   2.0000      -0.513680       -13.9779
  48   2.0000      -0.505434       -13.7536
  49   2.0000      -0.490321       -13.3423
  50   2.0000      -0.481205       -13.0942
  51   2.0000      -0.474784       -12.9195
  52   2.0000      -0.473504       -12.8847
  53   2.0000      -0.461000       -12.5444
  54   2.0000      -0.457577       -12.4513
  55   2.0000      -0.449542       -12.2327
  56   2.0000      -0.444718       -12.1014
  57   2.0000      -0.432922       -11.7804
  58   2.0000      -0.430092       -11.7034
  59   2.0000      -0.424638       -11.5550
  60   2.0000      -0.423344       -11.5198
  61   2.0000      -0.416936       -11.3454
  62   2.0000      -0.412052       -11.2125
  63   2.0000      -0.342441        -9.3183
  64   2.0000      -0.328755        -8.9459
  65   2.0000      -0.321927        -8.7601
  66   2.0000      -0.308093        -8.3836
  67   0.0000       0.044599         1.2136
  68   0.0000       0.060829         1.6552
  69   0.0000       0.117353         3.1933
  70   0.0000       0.130325         3.5463
  71   0.0000       0.135759         3.6942

MULLIKEN ATOMIC CHARGES
-----------------------
   0 S :    0.112616
   1 C :   -0.117507
   2 C :   -0.093869
   3 C :    0.047551
   4 C :   -0.207747
   5 H :    0.005533
   6 C :    0.056090
   7 H :    0.034171
   8 H :    0.053655
   9 C :   -0.093949
  10 H :    0.037113
  11 H :    0.029944
  12 C :   -0.065185
  13 H :    0.036326
  14 H :    0.020277
  15 H :    0.049431
  16 S :    0.130324
  17 C :   -0.073053
  18 C :   -0.023422
  19 C :   -0.073128
  20 C :   -0.143295
  21 H :    0.024807
  22 C :    0.051072
  23 H :    0.034152
  24 H :    0.035789
  25 C :   -0.026422
  26 H :    0.030178
  27 H :    0.026799
  28 C :   -0.076185
  29 H :    0.043784
  30 H :    0.035684
  31 H :    0.025321
  32 H :    0.039564
  33 H :    0.033583
Sum of atomic charges:    0.0000000

LOEWDIN ATOMIC CHARGES
----------------------
   0 S :    0.424234
   1 C :   -0.203714
   2 C :   -0.071316
   3 C :   -0.055391
   4 C :   -0.210358
   5 H :    0.029697
   6 C :   -0.031259
   7 H :    0.037282
   8 H :    0.040804
   9 C :   -0.041305
  10 H :    0.024667
  11 H :    0.020186
  12 C :   -0.068589
  13 H :    0.026038
  14 H :    0.017649
  15 H :    0.031945
  16 S :    0.433908
  17 C :   -0.176842
  18 C :   -0.083844
  19 C :   -0.045832
  20 C :   -0.220876
  21 H :    0.033447
  22 C :   -0.028056
  23 H :    0.032687
  24 H :    0.026112
  25 C :   -0.036962
  26 H :    0.025689
  27 H :    0.018505
  28 C :   -0.064402
  29 H :    0.031261
  30 H :    0.030921
  31 H :    0.013922
  32 H :    0.024710
  33 H :    0.015081

  Mayer bond orders larger than 0.100000
B(  0-S ,  1-C ) :   1.1553 B(  0-S ,  4-C ) :   1.1515 B(  1-C ,  2-C ) :   1.6082
B(  1-C , 32-H ) :   0.9683 B(  2-C ,  3-C ) :   1.2235 B(  2-C ,  6-C ) :   1.0284
B(  3-C ,  4-C ) :   1.6065 B(  3-C ,  5-H ) :   1.0009 B(  4-C , 20-C ) :   1.0015
B(  6-C ,  7-H ) :   0.9450 B(  6-C ,  8-H ) :   0.9365 B(  6-C ,  9-C ) :   1.0626
B(  9-C , 10-H ) :   0.9598 B(  9-C , 11-H ) :   0.9608 B(  9-C , 12-C ) :   1.0582
B( 12-C , 13-H ) :   0.9770 B( 12-C , 14-H ) :   0.9774 B( 12-C , 15-H ) :   0.9744
B( 16-S , 17-C ) :   1.2027 B( 16-S , 20-C ) :   1.1477 B( 17-C , 18-C ) :   1.5667
B( 17-C , 20-C ) :   0.1046 B( 17-C , 33-H ) :   0.9713 B( 18-C , 19-C ) :   1.2960
B( 18-C , 21-H ) :   0.9859 B( 19-C , 20-C ) :   1.5771 B( 19-C , 22-C ) :   1.0098
B( 22-C , 23-H ) :   0.9374 B( 22-C , 24-H ) :   0.9427 B( 22-C , 25-C ) :   1.0632
B( 25-C , 26-H ) :   0.9540 B( 25-C , 27-H ) :   0.9605 B( 25-C , 28-C ) :   1.0695
B( 28-C , 29-H ) :   0.9755 B( 28-C , 30-H ) :   0.9745 B( 28-C , 31-H ) :   0.9770

Dispersion correction           -0.015500908
FINAL SINGLE POINT ENERGY     -1339.885141740951

DIPOLE MOMENT
-------------
                                X             Y             Z
Electronic contribution:     11.97116     -12.14140     -17.23244
Nuclear contribution   :    -12.08733      12.63694      17.45936
                        -----------------------------------------
Total Dipole Moment    :     -0.11617       0.49554       0.22692
                        -----------------------------------------
Magnitude (a.u.)       :      0.55727
Magnitude (Debye)      :      1.41646

Rotational constants in cm-1:     0.019028     0.009075     0.007751
Rotational constants in MHz :   570.445355   272.065284   232.382688

                             ****ORCA TERMINATED NORMALLY****
TOTAL RUN TIME: 0 days 0 hours 0 minutes 22 seconds 565 msec
