                         Program Version 4.2.1 -  RELEASE  -
|  1> ! wB97X-D3 SP def2-SVP
|  2> %pal
|  3> nprocs 24
|  4> end
|  5>
|  6> * xyz 0 1
|  7> S 	 33.7405 	 -24.8788 	 -113.035
|  8> C 	 35.4132 	 -24.7706 	 -113.65
|  9> C 	 35.7947 	 -23.4039 	 -113.833
| 10> C 	 34.8336 	 -22.5008 	 -113.213
| 11> C 	 33.6473 	 -23.0896 	 -112.79
| 12> H 	 34.9504 	 -21.4267 	 -113.063
| 13> C 	 37.0996 	 -22.9694 	 -114.398
| 14> H 	 36.8629 	 -22.0495 	 -114.986
| 15> H 	 37.5324 	 -23.8593 	 -114.943
| 16> C 	 38.1043 	 -22.4409 	 -113.374
| 17> H 	 39.0852 	 -22.2521 	 -113.799
| 18> H 	 37.7685 	 -21.4061 	 -113.143
| 19> C 	 38.0236 	 -23.1134 	 -111.956
| 20> H 	 38.273 	 -24.1638 	 -112.182
| 21> H 	 38.7158 	 -22.7168 	 -111.285
| 22> H 	 37.1013 	 -23.039 	 -111.436
| 23> S 	 31.344 	 -21.7105 	 -113.271
| 24> C 	 30.4006 	 -21.1423 	 -111.884
| 25> C 	 31.0733 	 -21.2458 	 -110.69
| 26> C 	 32.2034 	 -22.121 	 -110.788
| 27> C 	 32.5211 	 -22.4089 	 -112.139
| 28> H 	 30.6547 	 -20.8555 	 -109.736
| 29> C 	 32.9886 	 -22.5895 	 -109.529
| 30> H 	 33.173 	 -23.5865 	 -109.85
| 31> H 	 32.3161 	 -22.5735 	 -108.626
| 32> C 	 34.3771 	 -21.9583 	 -109.357
| 33> H 	 34.9986 	 -22.2747 	 -110.169
| 34> H 	 34.9601 	 -22.3475 	 -108.535
| 35> C 	 34.4526 	 -20.4505 	 -109.299
| 36> H 	 35.2299 	 -20.1349 	 -108.61
| 37> H 	 33.4431 	 -20.0742 	 -108.909
| 38> H 	 34.6458 	 -19.9975 	 -110.296
| 39> H 	 35.8237 	 -25.6073 	 -114.103
| 40> H 	 29.3921 	 -20.6792 	 -112.026
| 41> *
| 42>
| 43>                          ****END OF INPUT****

CARTESIAN COORDINATES (ANGSTROEM)
---------------------------------
  S     33.740500  -24.878800  -113.035000
  C     35.413200  -24.770600  -113.650000
  C     35.794700  -23.403900  -113.833000
  C     34.833600  -22.500800  -113.213000
  C     33.647300  -23.089600  -112.790000
  H     34.950400  -21.426700  -113.063000
  C     37.099600  -22.969400  -114.398000
  H     36.862900  -22.049500  -114.986000
  H     37.532400  -23.859300  -114.943000
  C     38.104300  -22.440900  -113.374000
  H     39.085200  -22.252100  -113.799000
  H     37.768500  -21.406100  -113.143000
  C     38.023600  -23.113400  -111.956000
  H     38.273000  -24.163800  -112.182000
  H     38.715800  -22.716800  -111.285000
  H     37.101300  -23.039000  -111.436000
  S     31.344000  -21.710500  -113.271000
  C     30.400600  -21.142300  -111.884000
  C     31.073300  -21.245800  -110.690000
  C     32.203400  -22.121000  -110.788000
  C     32.521100  -22.408900  -112.139000
  H     30.654700  -20.855500  -109.736000
  C     32.988600  -22.589500  -109.529000
  H     33.173000  -23.586500  -109.850000
  H     32.316100  -22.573500  -108.626000
  C     34.377100  -21.958300  -109.357000
  H     34.998600  -22.274700  -110.169000
  H     34.960100  -22.347500  -108.535000
  C     34.452600  -20.450500  -109.299000
  H     35.229900  -20.134900  -108.610000
  H     33.443100  -20.074200  -108.909000
  H     34.645800  -19.997500  -110.296000
  H     35.823700  -25.607300  -114.103000
  H     29.392100  -20.679200  -112.026000

 Total Charge           Charge          ....    0
 Multiplicity           Mult            ....    1
 Number of Electrons    NEL             ....  134
 Basis Dimension        Dim             ....  322

ORBITAL ENERGIES
----------------

  NO   OCC          E(Eh)            E(eV)
   0   2.0000     -88.967628     -2420.9322
   1   2.0000     -88.965354     -2420.8704
   2   2.0000     -10.336461      -281.2694
   3   2.0000     -10.330909      -281.1183
   4   2.0000     -10.323466      -280.9158
   5   2.0000     -10.318798      -280.7888
   6   2.0000     -10.313243      -280.6376
   7   2.0000     -10.311088      -280.5790
   8   2.0000     -10.301713      -280.3239
   9   2.0000     -10.298859      -280.2462
  10   2.0000     -10.298854      -280.2461
  11   2.0000     -10.296696      -280.1874
  12   2.0000     -10.290244      -280.0118
  13   2.0000     -10.279229      -279.7120
  14   2.0000     -10.278979      -279.7052
  15   2.0000     -10.270529      -279.4753
  16   2.0000      -8.081707      -219.9144
  17   2.0000      -8.078552      -219.8286
  18   2.0000      -6.040157      -164.3610
  19   2.0000      -6.037136      -164.2788
  20   2.0000      -6.036407      -164.2590
  21   2.0000      -6.033252      -164.1731
  22   2.0000      -6.032461      -164.1516
  23   2.0000      -6.029346      -164.0669
  24   2.0000      -0.996061       -27.1042
  25   2.0000      -0.973552       -26.4917
  26   2.0000      -0.911418       -24.8009
  27   2.0000      -0.906876       -24.6773
  28   2.0000      -0.864740       -23.5308
  29   2.0000      -0.846641       -23.0383
  30   2.0000      -0.839047       -22.8316
  31   2.0000      -0.813018       -22.1233
  32   2.0000      -0.784332       -21.3427
  33   2.0000      -0.771156       -20.9842
  34   2.0000      -0.707937       -19.2639
  35   2.0000      -0.698936       -19.0190
  36   2.0000      -0.685828       -18.6623
  37   2.0000      -0.658820       -17.9274
  38   2.0000      -0.641052       -17.4439
  39   2.0000      -0.613038       -16.6816
  40   2.0000      -0.584275       -15.8989
  41   2.0000      -0.560460       -15.2509
  42   2.0000      -0.558362       -15.1938
  43   2.0000      -0.552550       -15.0357
  44   2.0000      -0.549982       -14.9658
  45   2.0000      -0.540773       -14.7152
  46   2.0000      -0.516907       -14.0658
  47   2.0000      -0.511352       -13.9146
  48   2.0000      -0.498471       -13.5641
  49   2.0000      -0.495893       -13.4939
  50   2.0000      -0.483712       -13.1625
  51   2.0000      -0.477071       -12.9818
  52   2.0000      -0.471363       -12.8264
  53   2.0000      -0.465818       -12.6755
  54   2.0000      -0.453344       -12.3361
  55   2.0000      -0.449633       -12.2351
  56   2.0000      -0.443642       -12.0721
  57   2.0000      -0.438210       -11.9243
  58   2.0000      -0.433138       -11.7863
  59   2.0000      -0.421022       -11.4566
  60   2.0000      -0.419533       -11.4161
  61   2.0000      -0.410498       -11.1702
  62   2.0000      -0.398025       -10.8308
  63   2.0000      -0.336832        -9.1657
  64   2.0000      -0.331969        -9.0333
  65   2.0000      -0.315260        -8.5787
  66   2.0000      -0.306870        -8.3504
  67   0.0000       0.040022         1.0891
  68   0.0000       0.040957         1.1145
  69   0.0000       0.104721         2.8496
  70   0.0000       0.112377         3.0579
  71   0.0000       0.114471         3.1149

MULLIKEN ATOMIC CHARGES
-----------------------
   0 S :    0.091708
   1 C :   -0.096515
   2 C :   -0.122562
   3 C :    0.038882
   4 C :   -0.164330
   5 H :    0.023568
   6 C :    0.081438
   7 H :    0.044359
   8 H :    0.039488
   9 C :   -0.116113
  10 H :    0.037793
  11 H :    0.015288
  12 C :   -0.005783
  13 H :    0.025920
  14 H :    0.018596
  15 H :    0.039007
  16 S :    0.113891
  17 C :   -0.114487
  18 C :   -0.036670
  19 C :   -0.048303
  20 C :   -0.204102
  21 H :    0.035883
  22 C :    0.105920
  23 H :    0.022665
  24 H :    0.040536
  25 C :   -0.057501
  26 H :    0.016538
  27 H :    0.022209
  28 C :   -0.068087
  29 H :    0.033892
  30 H :    0.031446
  31 H :    0.040864
  32 H :    0.038697
  33 H :    0.075863
Sum of atomic charges:    0.0000000

LOEWDIN ATOMIC CHARGES
----------------------
   0 S :    0.366974
   1 C :   -0.177445
   2 C :   -0.054861
   3 C :   -0.060237
   4 C :   -0.187106
   5 H :    0.033945
   6 C :   -0.041671
   7 H :    0.044922
   8 H :    0.037003
   9 C :   -0.045267
  10 H :    0.026145
  11 H :    0.020781
  12 C :   -0.058714
  13 H :    0.026468
  14 H :    0.017156
  15 H :    0.022949
  16 S :    0.396006
  17 C :   -0.179440
  18 C :   -0.080388
  19 C :   -0.041371
  20 C :   -0.205100
  21 H :    0.038704
  22 C :   -0.026555
  23 H :    0.033575
  24 H :    0.035601
  25 C :   -0.049964
  26 H :    0.022934
  27 H :    0.025180
  28 C :   -0.071171
  29 H :    0.025317
  30 H :    0.029747
  31 H :    0.027905
  32 H :    0.011501
  33 H :    0.036477

  Mayer bond orders larger than 0.100000
B(  0-S ,  1-C ) :   1.1399 B(  0-S ,  4-C ) :   1.1264 B(  1-C ,  2-C ) :   1.5916
B(  1-C ,  4-C ) :   0.1012 B(  1-C , 32-H ) :   0.9720 B(  2-C ,  3-C ) :   1.2054
B(  2-C ,  6-C ) :   1.0530 B(  3-C ,  4-C ) :   1.6141 B(  3-C ,  5-H ) :   0.9857
B(  4-C , 20-C ) :   1.0280 B(  6-C ,  7-H ) :   0.9358 B(  6-C ,  8-H ) :   0.9390
B(  6-C ,  9-C ) :   1.0564 B(  9-C , 10-H ) :   0.9609 B(  9-C , 11-H ) :   0.9525
B(  9-C , 12-C ) :   1.0790 B( 12-C , 13-H ) :   0.9776 B( 12-C , 14-H ) :   0.9714
B( 12-C , 15-H ) :   0.9648 B( 16-S , 17-C ) :   1.1559 B( 16-S , 20-C ) :   1.1470
B( 17-C , 18-C ) :   1.6153 B( 17-C , 20-C ) :   0.1047 B( 17-C , 33-H ) :   0.9608
B( 18-C , 19-C ) :   1.2386 B( 18-C , 21-H ) :   0.9784 B( 19-C , 20-C ) :   1.5912
B( 19-C , 22-C ) :   1.0181 B( 22-C , 23-H ) :   0.9221 B( 22-C , 24-H ) :   0.9434
B( 22-C , 25-C ) :   1.0838 B( 25-C , 26-H ) :   0.9503 B( 25-C , 27-H ) :   0.9559
B( 25-C , 28-C ) :   1.0681 B( 28-C , 29-H ) :   0.9760 B( 28-C , 30-H ) :   0.9806
B( 28-C , 31-H ) :   0.9747

Dispersion correction           -0.016574207
FINAL SINGLE POINT ENERGY     -1339.857079652283

DIPOLE MOMENT
-------------
                                X             Y             Z
Electronic contribution:    -21.94836      -7.70713     -12.84087
Nuclear contribution   :     22.34029       8.01271      13.11539
                        -----------------------------------------
Total Dipole Moment    :      0.39192       0.30557       0.27452
                        -----------------------------------------
Magnitude (a.u.)       :      0.56775
Magnitude (Debye)      :      1.44310

Rotational constants in cm-1:     0.019215     0.009759     0.007916
Rotational constants in MHz :   576.036374   292.562477   237.315516

                             ****ORCA TERMINATED NORMALLY****
TOTAL RUN TIME: 0 days 0 hours 0 minutes 22 seconds 979 msec
