                         Program Version 4.2.1 -  RELEASE  -
|  1> ! wB97X-D3 SP def2-SVP
|  2> %pal
|  3> nprocs 24
|  4> end
|  5>
|  6> * xyz 0 1
|  7> S 	 46.5656 	 -37.4525 	 -119.843
|  8> C 	 45.8458 	 -36.4521 	 -121.098
|  9> C 	 46.4915 	 -35.275 	 -121.142
| 10> C 	 47.5924 	 -35.1467 	 -120.266
| 11> C 	 47.8076 	 -36.283 	 -119.567
| 12> H 	 48.2415 	 -34.1918 	 -120.181
| 13> C 	 46.1756 	 -34.1183 	 -122.01
| 14> H 	 45.6589 	 -34.4513 	 -122.94
| 15> H 	 47.0709 	 -33.6406 	 -122.234
| 16> C 	 45.223 	 -33.0761 	 -121.248
| 17> H 	 44.5146 	 -33.7279 	 -120.719
| 18> H 	 45.7922 	 -32.5611 	 -120.479
| 19> C 	 44.66 	 -31.9537 	 -122.073
| 20> H 	 44.0692 	 -32.4284 	 -122.923
| 21> H 	 44.1519 	 -31.096 	 -121.617
| 22> H 	 45.475 	 -31.5036 	 -122.603
| 23> S 	 49.9726 	 -37.934 	 -118.805
| 24> C 	 50.967 	 -37.5196 	 -117.459
| 25> C 	 50.4441 	 -36.3789 	 -116.847
| 26> C 	 49.2802 	 -35.7803 	 -117.474
| 27> C 	 48.8846 	 -36.5297 	 -118.568
| 28> H 	 50.9608 	 -36.027 	 -115.956
| 29> C 	 48.5873 	 -34.5787 	 -116.923
| 30> H 	 48.2753 	 -33.8698 	 -117.608
| 31> H 	 49.4596 	 -34.1099 	 -116.586
| 32> C 	 47.4571 	 -34.8469 	 -115.992
| 33> H 	 47.9147 	 -35.3311 	 -115.069
| 34> H 	 46.7277 	 -35.5345 	 -116.413
| 35> C 	 46.9474 	 -33.4938 	 -115.473
| 36> H 	 47.7155 	 -32.8003 	 -115.176
| 37> H 	 46.146 	 -33.5141 	 -114.77
| 38> H 	 46.4577 	 -33.1127 	 -116.293
| 39> H 	 44.8894 	 -36.7263 	 -121.596
| 40> H 	 51.9995 	 -37.8359 	 -117.21
| 41> *
| 42>
| 43>                          ****END OF INPUT****

CARTESIAN COORDINATES (ANGSTROEM)
---------------------------------
  S     46.565600  -37.452500  -119.843000
  C     45.845800  -36.452100  -121.098000
  C     46.491500  -35.275000  -121.142000
  C     47.592400  -35.146700  -120.266000
  C     47.807600  -36.283000  -119.567000
  H     48.241500  -34.191800  -120.181000
  C     46.175600  -34.118300  -122.010000
  H     45.658900  -34.451300  -122.940000
  H     47.070900  -33.640600  -122.234000
  C     45.223000  -33.076100  -121.248000
  H     44.514600  -33.727900  -120.719000
  H     45.792200  -32.561100  -120.479000
  C     44.660000  -31.953700  -122.073000
  H     44.069200  -32.428400  -122.923000
  H     44.151900  -31.096000  -121.617000
  H     45.475000  -31.503600  -122.603000
  S     49.972600  -37.934000  -118.805000
  C     50.967000  -37.519600  -117.459000
  C     50.444100  -36.378900  -116.847000
  C     49.280200  -35.780300  -117.474000
  C     48.884600  -36.529700  -118.568000
  H     50.960800  -36.027000  -115.956000
  C     48.587300  -34.578700  -116.923000
  H     48.275300  -33.869800  -117.608000
  H     49.459600  -34.109900  -116.586000
  C     47.457100  -34.846900  -115.992000
  H     47.914700  -35.331100  -115.069000
  H     46.727700  -35.534500  -116.413000
  C     46.947400  -33.493800  -115.473000
  H     47.715500  -32.800300  -115.176000
  H     46.146000  -33.514100  -114.770000
  H     46.457700  -33.112700  -116.293000
  H     44.889400  -36.726300  -121.596000
  H     51.999500  -37.835900  -117.210000

 Total Charge           Charge          ....    0
 Multiplicity           Mult            ....    1
 Number of Electrons    NEL             ....  134
 Basis Dimension        Dim             ....  322

ORBITAL ENERGIES
----------------

  NO   OCC          E(Eh)            E(eV)
   0   2.0000     -88.965129     -2420.8642
   1   2.0000     -88.964146     -2420.8375
   2   2.0000     -10.329836      -281.0891
   3   2.0000     -10.329266      -281.0736
   4   2.0000     -10.318804      -280.7889
   5   2.0000     -10.313208      -280.6367
   6   2.0000     -10.304477      -280.3991
   7   2.0000     -10.295988      -280.1681
   8   2.0000     -10.295488      -280.1545
   9   2.0000     -10.293273      -280.0942
  10   2.0000     -10.289911      -280.0027
  11   2.0000     -10.288919      -279.9757
  12   2.0000     -10.287153      -279.9277
  13   2.0000     -10.281505      -279.7740
  14   2.0000     -10.276683      -279.6428
  15   2.0000     -10.266881      -279.3760
  16   2.0000      -8.079458      -219.8532
  17   2.0000      -8.079429      -219.8524
  18   2.0000      -6.037991      -164.3021
  19   2.0000      -6.037955      -164.3011
  20   2.0000      -6.033900      -164.1908
  21   2.0000      -6.033890      -164.1905
  22   2.0000      -6.030316      -164.0932
  23   2.0000      -6.030106      -164.0875
  24   2.0000      -1.011269       -27.5180
  25   2.0000      -0.986527       -26.8448
  26   2.0000      -0.921538       -25.0763
  27   2.0000      -0.912187       -24.8219
  28   2.0000      -0.868543       -23.6342
  29   2.0000      -0.855775       -23.2868
  30   2.0000      -0.848325       -23.0841
  31   2.0000      -0.814919       -22.1751
  32   2.0000      -0.786092       -21.3906
  33   2.0000      -0.774219       -21.0676
  34   2.0000      -0.711527       -19.3616
  35   2.0000      -0.701047       -19.0765
  36   2.0000      -0.696114       -18.9422
  37   2.0000      -0.657885       -17.9020
  38   2.0000      -0.638862       -17.3843
  39   2.0000      -0.623203       -16.9582
  40   2.0000      -0.599952       -16.3255
  41   2.0000      -0.571052       -15.5391
  42   2.0000      -0.567965       -15.4551
  43   2.0000      -0.556660       -15.1475
  44   2.0000      -0.531801       -14.4710
  45   2.0000      -0.525224       -14.2921
  46   2.0000      -0.516319       -14.0498
  47   2.0000      -0.514896       -14.0110
  48   2.0000      -0.513226       -13.9656
  49   2.0000      -0.496697       -13.5158
  50   2.0000      -0.495992       -13.4966
  51   2.0000      -0.484611       -13.1869
  52   2.0000      -0.474777       -12.9193
  53   2.0000      -0.466467       -12.6932
  54   2.0000      -0.457432       -12.4474
  55   2.0000      -0.452558       -12.3147
  56   2.0000      -0.450361       -12.2549
  57   2.0000      -0.442392       -12.0381
  58   2.0000      -0.425699       -11.5838
  59   2.0000      -0.423568       -11.5259
  60   2.0000      -0.416143       -11.3238
  61   2.0000      -0.413978       -11.2649
  62   2.0000      -0.402777       -10.9601
  63   2.0000      -0.347043        -9.4435
  64   2.0000      -0.332814        -9.0563
  65   2.0000      -0.327834        -8.9208
  66   2.0000      -0.298967        -8.1353
  67   0.0000       0.036244         0.9863
  68   0.0000       0.065749         1.7891
  69   0.0000       0.115433         3.1411
  70   0.0000       0.124548         3.3891
  71   0.0000       0.130279         3.5451

MULLIKEN ATOMIC CHARGES
-----------------------
   0 S :    0.101866
   1 C :   -0.146929
   2 C :   -0.082563
   3 C :   -0.001538
   4 C :   -0.138461
   5 H :    0.051251
   6 C :    0.081551
   7 H :    0.027652
   8 H :    0.006080
   9 C :   -0.084846
  10 H :    0.031309
  11 H :    0.017417
  12 C :   -0.032877
  13 H :    0.029596
  14 H :    0.049945
  15 H :    0.013552
  16 S :    0.109401
  17 C :   -0.098205
  18 C :   -0.071362
  19 C :   -0.022894
  20 C :   -0.169212
  21 H :    0.019339
  22 C :    0.115783
  23 H :   -0.019932
  24 H :    0.000590
  25 C :   -0.064326
  26 H :    0.028126
  27 H :    0.045828
  28 C :    0.010907
  29 H :    0.029924
  30 H :    0.022608
  31 H :    0.000359
  32 H :    0.063802
  33 H :    0.076258
Sum of atomic charges:    0.0000000

LOEWDIN ATOMIC CHARGES
----------------------
   0 S :    0.405593
   1 C :   -0.199506
   2 C :   -0.071871
   3 C :   -0.073648
   4 C :   -0.193733
   5 H :    0.049860
   6 C :   -0.020398
   7 H :    0.032382
   8 H :    0.018034
   9 C :   -0.039924
  10 H :    0.021942
  11 H :    0.020161
  12 C :   -0.075662
  13 H :    0.029922
  14 H :    0.031568
  15 H :    0.022886
  16 S :    0.401464
  17 C :   -0.208032
  18 C :   -0.075850
  19 C :   -0.050343
  20 C :   -0.186957
  21 H :    0.028798
  22 C :   -0.034553
  23 H :    0.017996
  24 H :    0.029597
  25 C :   -0.030006
  26 H :    0.028525
  27 H :    0.030560
  28 C :   -0.058383
  29 H :    0.027350
  30 H :    0.023257
  31 H :    0.015270
  32 H :    0.038815
  33 H :    0.044888

  Mayer bond orders larger than 0.100000
B(  0-S ,  1-C ) :   1.1128 B(  0-S ,  4-C ) :   1.1688 B(  1-C ,  2-C ) :   1.6267
B(  1-C , 32-H ) :   0.9681 B(  2-C ,  3-C ) :   1.2296 B(  2-C ,  6-C ) :   1.0423
B(  3-C ,  4-C ) :   1.5971 B(  3-C ,  5-H ) :   0.9797 B(  4-C , 20-C ) :   1.0007
B(  6-C ,  7-H ) :   0.9453 B(  6-C ,  8-H ) :   0.9299 B(  6-C ,  9-C ) :   1.0460
B(  9-C , 10-H ) :   0.9627 B(  9-C , 11-H ) :   0.9539 B(  9-C , 12-C ) :   1.0798
B( 12-C , 13-H ) :   0.9732 B( 12-C , 14-H ) :   0.9744 B( 12-C , 15-H ) :   0.9651
B( 16-S , 17-C ) :   1.1552 B( 16-S , 20-C ) :   1.1438 B( 17-C , 18-C ) :   1.6164
B( 17-C , 33-H ) :   0.9591 B( 18-C , 19-C ) :   1.2412 B( 18-C , 21-H ) :   0.9836
B( 19-C , 20-C ) :   1.5907 B( 19-C , 22-C ) :   1.0248 B( 22-C , 23-H ) :   0.9248
B( 22-C , 24-H ) :   0.9163 B( 22-C , 25-C ) :   1.0617 B( 25-C , 26-H ) :   0.9536
B( 25-C , 27-H ) :   0.9584 B( 25-C , 28-C ) :   1.0698 B( 28-C , 29-H ) :   0.9728
B( 28-C , 30-H ) :   0.9711 B( 28-C , 31-H ) :   0.9691

Dispersion correction           -0.014171520
FINAL SINGLE POINT ENERGY     -1339.855957083341

DIPOLE MOMENT
-------------
                                X             Y             Z
Electronic contribution:     12.68031     -27.36385      -2.85260
Nuclear contribution   :    -12.71077      28.18356       2.94413
                        -----------------------------------------
Total Dipole Moment    :     -0.03046       0.81972       0.09153
                        -----------------------------------------
Magnitude (a.u.)       :      0.82537
Magnitude (Debye)      :      2.09794

Rotational constants in cm-1:     0.018359     0.008712     0.006773
Rotational constants in MHz :   550.382290   261.167317   203.042379

                             ****ORCA TERMINATED NORMALLY****
TOTAL RUN TIME: 0 days 0 hours 0 minutes 20 seconds 293 msec
