                         Program Version 4.2.1 -  RELEASE  -
|  1> ! wB97X-D3 SP def2-SVP
|  2> %pal
|  3> nprocs 24
|  4> end
|  5>
|  6> * xyz 0 1
|  7> S 	 -46.0624 	 11.6989 	 -16.7888
|  8> C 	 -45.647 	 10.0539 	 -16.1975
|  9> C 	 -44.3523 	 9.72184 	 -16.6828
| 10> C 	 -43.8768 	 10.6838 	 -17.5429
| 11> C 	 -44.709 	 11.7055 	 -17.8541
| 12> H 	 -42.9228 	 10.6095 	 -18.1502
| 13> C 	 -43.5971 	 8.45725 	 -16.4276
| 14> H 	 -42.9115 	 8.46837 	 -15.5598
| 15> H 	 -42.8605 	 8.32409 	 -17.248
| 16> C 	 -44.4124 	 7.09109 	 -16.5842
| 17> H 	 -45.1808 	 7.07027 	 -15.8141
| 18> H 	 -44.9231 	 7.23243 	 -17.5106
| 19> C 	 -43.6555 	 5.7787 	 -16.71
| 20> H 	 -44.4127 	 4.94114 	 -16.857
| 21> H 	 -42.9758 	 5.81847 	 -17.5376
| 22> H 	 -43.2264 	 5.62344 	 -15.7012
| 23> S 	 -45.7118 	 13.089 	 -20.1
| 24> C 	 -44.7855 	 14.3867 	 -20.9231
| 25> C 	 -43.5558 	 14.4071 	 -20.4065
| 26> C 	 -43.3692 	 13.5032 	 -19.2792
| 27> C 	 -44.5187 	 12.7487 	 -18.8971
| 28> H 	 -42.9319 	 15.1047 	 -20.8828
| 29> C 	 -41.9754 	 13.4949 	 -18.5429
| 30> H 	 -42.1838 	 13.2373 	 -17.5399
| 31> H 	 -41.6858 	 14.501 	 -18.4367
| 32> C 	 -40.8734 	 12.5693 	 -19.1119
| 33> H 	 -41.095 	 11.4819 	 -19.2188
| 34> H 	 -40.0346 	 12.4385 	 -18.4067
| 35> C 	 -40.2717 	 13.0933 	 -20.4268
| 36> H 	 -40.3304 	 14.164 	 -20.5692
| 37> H 	 -40.6613 	 12.6809 	 -21.359
| 38> H 	 -39.159 	 12.9242 	 -20.286
| 39> H 	 -46.1845 	 9.47577 	 -15.4336
| 40> H 	 -45.1439 	 14.8231 	 -21.876
| 41> *
| 42>
| 43>                          ****END OF INPUT****

CARTESIAN COORDINATES (ANGSTROEM)
---------------------------------
  S    -46.062400   11.698900  -16.788800
  C    -45.647000   10.053900  -16.197500
  C    -44.352300    9.721840  -16.682800
  C    -43.876800   10.683800  -17.542900
  C    -44.709000   11.705500  -17.854100
  H    -42.922800   10.609500  -18.150200
  C    -43.597100    8.457250  -16.427600
  H    -42.911500    8.468370  -15.559800
  H    -42.860500    8.324090  -17.248000
  C    -44.412400    7.091090  -16.584200
  H    -45.180800    7.070270  -15.814100
  H    -44.923100    7.232430  -17.510600
  C    -43.655500    5.778700  -16.710000
  H    -44.412700    4.941140  -16.857000
  H    -42.975800    5.818470  -17.537600
  H    -43.226400    5.623440  -15.701200
  S    -45.711800   13.089000  -20.100000
  C    -44.785500   14.386700  -20.923100
  C    -43.555800   14.407100  -20.406500
  C    -43.369200   13.503200  -19.279200
  C    -44.518700   12.748700  -18.897100
  H    -42.931900   15.104700  -20.882800
  C    -41.975400   13.494900  -18.542900
  H    -42.183800   13.237300  -17.539900
  H    -41.685800   14.501000  -18.436700
  C    -40.873400   12.569300  -19.111900
  H    -41.095000   11.481900  -19.218800
  H    -40.034600   12.438500  -18.406700
  C    -40.271700   13.093300  -20.426800
  H    -40.330400   14.164000  -20.569200
  H    -40.661300   12.680900  -21.359000
  H    -39.159000   12.924200  -20.286000
  H    -46.184500    9.475770  -15.433600
  H    -45.143900   14.823100  -21.876000

 Total Charge           Charge          ....    0
 Multiplicity           Mult            ....    1
 Number of Electrons    NEL             ....  134
 Basis Dimension        Dim             ....  322

ORBITAL ENERGIES
----------------

  NO   OCC          E(Eh)            E(eV)
   0   2.0000     -88.970016     -2420.9972
   1   2.0000     -88.959396     -2420.7082
   2   2.0000     -10.336428      -281.2685
   3   2.0000     -10.331123      -281.1242
   4   2.0000     -10.324529      -280.9447
   5   2.0000     -10.319439      -280.8062
   6   2.0000     -10.313251      -280.6378
   7   2.0000     -10.304310      -280.3945
   8   2.0000     -10.297954      -280.2216
   9   2.0000     -10.294058      -280.1155
  10   2.0000     -10.291847      -280.0554
  11   2.0000     -10.291817      -280.0546
  12   2.0000     -10.287283      -279.9312
  13   2.0000     -10.286603      -279.9127
  14   2.0000     -10.286236      -279.9027
  15   2.0000     -10.279503      -279.7195
  16   2.0000      -8.084249      -219.9836
  17   2.0000      -8.074239      -219.7112
  18   2.0000      -6.042703      -164.4303
  19   2.0000      -6.038777      -164.3235
  20   2.0000      -6.035121      -164.2240
  21   2.0000      -6.032818      -164.1613
  22   2.0000      -6.028593      -164.0464
  23   2.0000      -6.025008      -163.9488
  24   2.0000      -1.008313       -27.4376
  25   2.0000      -0.985464       -26.8158
  26   2.0000      -0.909180       -24.7401
  27   2.0000      -0.900434       -24.5021
  28   2.0000      -0.872218       -23.7343
  29   2.0000      -0.853911       -23.2361
  30   2.0000      -0.838851       -22.8263
  31   2.0000      -0.820141       -22.3172
  32   2.0000      -0.782365       -21.2892
  33   2.0000      -0.770063       -20.9545
  34   2.0000      -0.709806       -19.3148
  35   2.0000      -0.701227       -19.0814
  36   2.0000      -0.691249       -18.8098
  37   2.0000      -0.657547       -17.8928
  38   2.0000      -0.639272       -17.3955
  39   2.0000      -0.617414       -16.8007
  40   2.0000      -0.589196       -16.0329
  41   2.0000      -0.576263       -15.6809
  42   2.0000      -0.570455       -15.5229
  43   2.0000      -0.546325       -14.8663
  44   2.0000      -0.545245       -14.8369
  45   2.0000      -0.525913       -14.3108
  46   2.0000      -0.516029       -14.0419
  47   2.0000      -0.508726       -13.8431
  48   2.0000      -0.506053       -13.7704
  49   2.0000      -0.501804       -13.6548
  50   2.0000      -0.492321       -13.3967
  51   2.0000      -0.482420       -13.1273
  52   2.0000      -0.473187       -12.8761
  53   2.0000      -0.469696       -12.7811
  54   2.0000      -0.457006       -12.4358
  55   2.0000      -0.450743       -12.2653
  56   2.0000      -0.441514       -12.0142
  57   2.0000      -0.433470       -11.7953
  58   2.0000      -0.422963       -11.5094
  59   2.0000      -0.421000       -11.4560
  60   2.0000      -0.420420       -11.4402
  61   2.0000      -0.409512       -11.1434
  62   2.0000      -0.398664       -10.8482
  63   2.0000      -0.353426        -9.6172
  64   2.0000      -0.335893        -9.1401
  65   2.0000      -0.324189        -8.8216
  66   2.0000      -0.295092        -8.0299
  67   0.0000       0.023552         0.6409
  68   0.0000       0.071009         1.9323
  69   0.0000       0.110637         3.0106
  70   0.0000       0.122818         3.3421
  71   0.0000       0.132804         3.6138

MULLIKEN ATOMIC CHARGES
-----------------------
   0 S :    0.121383
   1 C :   -0.134776
   2 C :   -0.058475
   3 C :    0.013640
   4 C :   -0.152725
   5 H :    0.018524
   6 C :    0.037173
   7 H :    0.043266
   8 H :    0.011828
   9 C :   -0.103289
  10 H :    0.025118
  11 H :    0.026165
  12 C :   -0.045159
  13 H :    0.047496
  14 H :    0.039034
  15 H :    0.038439
  16 S :    0.075922
  17 C :   -0.115917
  18 C :   -0.003660
  19 C :   -0.064505
  20 C :   -0.114670
  21 H :    0.006737
  22 C :    0.110045
  23 H :    0.006964
  24 H :    0.016880
  25 C :   -0.084416
  26 H :    0.037644
  27 H :    0.028160
  28 C :   -0.068307
  29 H :    0.020589
  30 H :    0.046512
  31 H :    0.035152
  32 H :    0.061667
  33 H :    0.077561
Sum of atomic charges:   -0.0000000

LOEWDIN ATOMIC CHARGES
----------------------
   0 S :    0.413337
   1 C :   -0.187316
   2 C :   -0.065644
   3 C :   -0.071417
   4 C :   -0.200649
   5 H :    0.041334
   6 C :   -0.039314
   7 H :    0.032109
   8 H :    0.029705
   9 C :   -0.041351
  10 H :    0.016038
  11 H :    0.020893
  12 C :   -0.063616
  13 H :    0.039190
  14 H :    0.022352
  15 H :    0.029205
  16 S :    0.389155
  17 C :   -0.171431
  18 C :   -0.074247
  19 C :   -0.052439
  20 C :   -0.204927
  21 H :    0.028617
  22 C :   -0.026932
  23 H :    0.024255
  24 H :    0.025747
  25 C :   -0.048211
  26 H :    0.028277
  27 H :    0.027320
  28 C :   -0.074941
  29 H :    0.019187
  30 H :    0.026272
  31 H :    0.036010
  32 H :    0.033300
  33 H :    0.040132

  Mayer bond orders larger than 0.100000
B(  0-S ,  1-C ) :   1.1449 B(  0-S ,  4-C ) :   1.1669 B(  1-C ,  2-C ) :   1.5500
B(  1-C ,  4-C ) :   0.1120 B(  1-C , 32-H ) :   0.9719 B(  2-C ,  3-C ) :   1.2958
B(  2-C ,  6-C ) :   1.0255 B(  3-C ,  4-C ) :   1.5657 B(  3-C ,  5-H ) :   0.9784
B(  4-C , 20-C ) :   1.0188 B(  6-C ,  7-H ) :   0.9327 B(  6-C ,  8-H ) :   0.9479
B(  6-C ,  9-C ) :   1.0437 B(  9-C , 10-H ) :   0.9570 B(  9-C , 11-H ) :   0.9601
B(  9-C , 12-C ) :   1.0903 B( 12-C , 13-H ) :   0.9714 B( 12-C , 14-H ) :   0.9741
B( 12-C , 15-H ) :   0.9760 B( 16-S , 17-C ) :   1.1431 B( 16-S , 20-C ) :   1.1497
B( 17-C , 18-C ) :   1.6244 B( 17-C , 33-H ) :   0.9616 B( 18-C , 19-C ) :   1.2234
B( 18-C , 21-H ) :   1.0018 B( 19-C , 20-C ) :   1.5783 B( 19-C , 22-C ) :   1.0271
B( 22-C , 23-H ) :   0.9306 B( 22-C , 24-H ) :   0.9455 B( 22-C , 25-C ) :   1.0673
B( 25-C , 26-H ) :   0.9499 B( 25-C , 27-H ) :   0.9632 B( 25-C , 28-C ) :   1.0590
B( 28-C , 29-H ) :   0.9783 B( 28-C , 30-H ) :   0.9784 B( 28-C , 31-H ) :   0.9779

Dispersion correction           -0.014074448
FINAL SINGLE POINT ENERGY     -1339.848842300383

DIPOLE MOMENT
-------------
                                X             Y             Z
Electronic contribution:    -22.56939      16.71752      -1.07154
Nuclear contribution   :     23.24823     -16.97463       1.01705
                        -----------------------------------------
Total Dipole Moment    :      0.67884      -0.25711      -0.05450
                        -----------------------------------------
Magnitude (a.u.)       :      0.72794
Magnitude (Debye)      :      1.85028

Rotational constants in cm-1:     0.019004     0.007862     0.006261
Rotational constants in MHz :   569.738330   235.695209   187.692377

                             ****ORCA TERMINATED NORMALLY****
TOTAL RUN TIME: 0 days 0 hours 0 minutes 21 seconds 118 msec
