                         Program Version 4.2.1 -  RELEASE  -
|  1> ! wB97X-D3 SP def2-SVP
|  2> %pal
|  3> nprocs 24
|  4> end
|  5>
|  6> * xyz 0 1
|  7> S 	 -100.359 	 -1.92242 	 -107.674
|  8> C 	 -99.2537 	 -2.57778 	 -108.832
|  9> C 	 -99.7298 	 -3.70493 	 -109.526
| 10> C 	 -101.072 	 -3.95686 	 -109.106
| 11> C 	 -101.419 	 -3.25953 	 -108.022
| 12> H 	 -101.754 	 -4.59042 	 -109.573
| 13> C 	 -99.1244 	 -4.34932 	 -110.733
| 14> H 	 -98.0765 	 -4.00443 	 -110.827
| 15> H 	 -99.5934 	 -4.02988 	 -111.664
| 16> C 	 -99.0639 	 -5.89748 	 -110.734
| 17> H 	 -100.098 	 -6.3312 	 -110.601
| 18> H 	 -98.8155 	 -6.29809 	 -111.758
| 19> C 	 -98.0521 	 -6.4524 	 -109.704
| 20> H 	 -97.0007 	 -6.18615 	 -109.816
| 21> H 	 -98.2112 	 -6.12237 	 -108.661
| 22> H 	 -98.0802 	 -7.56321 	 -109.833
| 23> S 	 -103.733 	 -2.22458 	 -106.725
| 24> C 	 -104.438 	 -3.17255 	 -105.503
| 25> C 	 -103.982 	 -4.45421 	 -105.56
| 26> C 	 -102.907 	 -4.70569 	 -106.47
| 27> C 	 -102.61 	 -3.51037 	 -107.144
| 28> H 	 -104.363 	 -5.24537 	 -104.882
| 29> C 	 -102.124 	 -6.05199 	 -106.573
| 30> H 	 -102.107 	 -6.39411 	 -107.669
| 31> H 	 -102.704 	 -6.87245 	 -106.168
| 32> C 	 -100.723 	 -6.0149 	 -105.847
| 33> H 	 -100.748 	 -5.51447 	 -104.841
| 34> H 	 -99.9793 	 -5.51205 	 -106.497
| 35> C 	 -100.169 	 -7.42211 	 -105.646
| 36> H 	 -100.364 	 -7.7763 	 -104.601
| 37> H 	 -99.1009 	 -7.55757 	 -105.939
| 38> H 	 -100.731 	 -8.02809 	 -106.331
| 39> H 	 -98.2493 	 -2.07117 	 -108.995
| 40> H 	 -105.187 	 -2.70348 	 -104.858
| 41> *
| 42>
| 43>                          ****END OF INPUT****

CARTESIAN COORDINATES (ANGSTROEM)
---------------------------------
  S    -100.359000   -1.922420  -107.674000
  C    -99.253700   -2.577780  -108.832000
  C    -99.729800   -3.704930  -109.526000
  C    -101.072000   -3.956860  -109.106000
  C    -101.419000   -3.259530  -108.022000
  H    -101.754000   -4.590420  -109.573000
  C    -99.124400   -4.349320  -110.733000
  H    -98.076500   -4.004430  -110.827000
  H    -99.593400   -4.029880  -111.664000
  C    -99.063900   -5.897480  -110.734000
  H    -100.098000   -6.331200  -110.601000
  H    -98.815500   -6.298090  -111.758000
  C    -98.052100   -6.452400  -109.704000
  H    -97.000700   -6.186150  -109.816000
  H    -98.211200   -6.122370  -108.661000
  H    -98.080200   -7.563210  -109.833000
  S    -103.733000   -2.224580  -106.725000
  C    -104.438000   -3.172550  -105.503000
  C    -103.982000   -4.454210  -105.560000
  C    -102.907000   -4.705690  -106.470000
  C    -102.610000   -3.510370  -107.144000
  H    -104.363000   -5.245370  -104.882000
  C    -102.124000   -6.051990  -106.573000
  H    -102.107000   -6.394110  -107.669000
  H    -102.704000   -6.872450  -106.168000
  C    -100.723000   -6.014900  -105.847000
  H    -100.748000   -5.514470  -104.841000
  H    -99.979300   -5.512050  -106.497000
  C    -100.169000   -7.422110  -105.646000
  H    -100.364000   -7.776300  -104.601000
  H    -99.100900   -7.557570  -105.939000
  H    -100.731000   -8.028090  -106.331000
  H    -98.249300   -2.071170  -108.995000
  H    -105.187000   -2.703480  -104.858000

 Total Charge           Charge          ....    0
 Multiplicity           Mult            ....    1
 Number of Electrons    NEL             ....  134
 Basis Dimension        Dim             ....  322

ORBITAL ENERGIES
----------------

  NO   OCC          E(Eh)            E(eV)
   0   2.0000     -88.965888     -2420.8849
   1   2.0000     -88.962915     -2420.8040
   2   2.0000     -10.325706      -280.9767
   3   2.0000     -10.322050      -280.8773
   4   2.0000     -10.319175      -280.7990
   5   2.0000     -10.312656      -280.6216
   6   2.0000     -10.306193      -280.4458
   7   2.0000     -10.304556      -280.4012
   8   2.0000     -10.302562      -280.3470
   9   2.0000     -10.299202      -280.2555
  10   2.0000     -10.294248      -280.1207
  11   2.0000     -10.292955      -280.0856
  12   2.0000     -10.289292      -279.9859
  13   2.0000     -10.283191      -279.8199
  14   2.0000     -10.283169      -279.8193
  15   2.0000     -10.276662      -279.6422
  16   2.0000      -8.081372      -219.9053
  17   2.0000      -8.078725      -219.8333
  18   2.0000      -6.039664      -164.3476
  19   2.0000      -6.037020      -164.2757
  20   2.0000      -6.036042      -164.2491
  21   2.0000      -6.033091      -164.1687
  22   2.0000      -6.032050      -164.1404
  23   2.0000      -6.029659      -164.0754
  24   2.0000      -1.008565       -27.4444
  25   2.0000      -0.988680       -26.9034
  26   2.0000      -0.908449       -24.7201
  27   2.0000      -0.900492       -24.5036
  28   2.0000      -0.861361       -23.4388
  29   2.0000      -0.851850       -23.1800
  30   2.0000      -0.846610       -23.0374
  31   2.0000      -0.811498       -22.0820
  32   2.0000      -0.779834       -21.2204
  33   2.0000      -0.767726       -20.8909
  34   2.0000      -0.703062       -19.1313
  35   2.0000      -0.691765       -18.8239
  36   2.0000      -0.682093       -18.5607
  37   2.0000      -0.654419       -17.8076
  38   2.0000      -0.642097       -17.4723
  39   2.0000      -0.625478       -17.0201
  40   2.0000      -0.598978       -16.2990
  41   2.0000      -0.559440       -15.2231
  42   2.0000      -0.557363       -15.1666
  43   2.0000      -0.547096       -14.8872
  44   2.0000      -0.533458       -14.5161
  45   2.0000      -0.524763       -14.2795
  46   2.0000      -0.516398       -14.0519
  47   2.0000      -0.510696       -13.8968
  48   2.0000      -0.497637       -13.5414
  49   2.0000      -0.492918       -13.4130
  50   2.0000      -0.486937       -13.2502
  51   2.0000      -0.479611       -13.0509
  52   2.0000      -0.466951       -12.7064
  53   2.0000      -0.463390       -12.6095
  54   2.0000      -0.456292       -12.4163
  55   2.0000      -0.449214       -12.2237
  56   2.0000      -0.443074       -12.0567
  57   2.0000      -0.432606       -11.7718
  58   2.0000      -0.429846       -11.6967
  59   2.0000      -0.429089       -11.6761
  60   2.0000      -0.422655       -11.5010
  61   2.0000      -0.413220       -11.2443
  62   2.0000      -0.409478       -11.1425
  63   2.0000      -0.340146        -9.2558
  64   2.0000      -0.332078        -9.0363
  65   2.0000      -0.329828        -8.9751
  66   2.0000      -0.292457        -7.9582
  67   0.0000       0.033559         0.9132
  68   0.0000       0.071444         1.9441
  69   0.0000       0.111278         3.0280
  70   0.0000       0.119754         3.2587
  71   0.0000       0.130837         3.5603

MULLIKEN ATOMIC CHARGES
-----------------------
   0 S :    0.126206
   1 C :   -0.149008
   2 C :   -0.076001
   3 C :    0.046157
   4 C :   -0.145952
   5 H :   -0.004108
   6 C :    0.063967
   7 H :    0.015440
   8 H :    0.042322
   9 C :   -0.101214
  10 H :    0.034870
  11 H :    0.033094
  12 C :   -0.074644
  13 H :    0.026713
  14 H :    0.044839
  15 H :    0.042106
  16 S :    0.106478
  17 C :   -0.105083
  18 C :   -0.031227
  19 C :   -0.025891
  20 C :   -0.186245
  21 H :    0.024348
  22 C :    0.045632
  23 H :    0.042621
  24 H :    0.012930
  25 C :   -0.087013
  26 H :    0.049469
  27 H :    0.048754
  28 C :   -0.059819
  29 H :    0.043700
  30 H :    0.042696
  31 H :    0.016565
  32 H :    0.070139
  33 H :    0.067158
Sum of atomic charges:   -0.0000000

LOEWDIN ATOMIC CHARGES
----------------------
   0 S :    0.415714
   1 C :   -0.208443
   2 C :   -0.067092
   3 C :   -0.053087
   4 C :   -0.189275
   5 H :    0.023404
   6 C :   -0.037264
   7 H :    0.031630
   8 H :    0.035339
   9 C :   -0.048308
  10 H :    0.025505
  11 H :    0.029142
  12 C :   -0.076934
  13 H :    0.024423
  14 H :    0.028380
  15 H :    0.032416
  16 S :    0.414543
  17 C :   -0.202583
  18 C :   -0.079651
  19 C :   -0.054434
  20 C :   -0.200532
  21 H :    0.034395
  22 C :   -0.036759
  23 H :    0.039947
  24 H :    0.024668
  25 C :   -0.043996
  26 H :    0.033223
  27 H :    0.029840
  28 C :   -0.072839
  29 H :    0.029997
  30 H :    0.030639
  31 H :    0.018794
  32 H :    0.036396
  33 H :    0.032803

  Mayer bond orders larger than 0.100000
B(  0-S ,  1-C ) :   1.1513 B(  0-S ,  4-C ) :   1.1457 B(  1-C ,  2-C ) :   1.6067
B(  1-C , 32-H ) :   0.9567 B(  2-C ,  3-C ) :   1.2078 B(  2-C ,  6-C ) :   1.0363
B(  3-C ,  4-C ) :   1.6179 B(  3-C ,  5-H ) :   1.0049 B(  4-C , 20-C ) :   1.0113
B(  6-C ,  7-H ) :   0.9401 B(  6-C ,  8-H ) :   0.9403 B(  6-C ,  9-C ) :   1.0680
B(  9-C , 10-H ) :   0.9571 B(  9-C , 11-H ) :   0.9555 B(  9-C , 12-C ) :   1.0632
B( 12-C , 13-H ) :   0.9727 B( 12-C , 14-H ) :   0.9755 B( 12-C , 15-H ) :   0.9748
B( 16-S , 17-C ) :   1.1627 B( 16-S , 20-C ) :   1.1635 B( 17-C , 18-C ) :   1.5792
B( 17-C , 33-H ) :   0.9706 B( 18-C , 19-C ) :   1.2704 B( 18-C , 21-H ) :   0.9854
B( 19-C , 20-C ) :   1.5789 B( 19-C , 22-C ) :   1.0349 B( 22-C , 23-H ) :   0.9317
B( 22-C , 24-H ) :   0.9392 B( 22-C , 25-C ) :   1.0527 B( 25-C , 26-H ) :   0.9648
B( 25-C , 27-H ) :   0.9556 B( 25-C , 28-C ) :   1.0712 B( 28-C , 29-H ) :   0.9775
B( 28-C , 30-H ) :   0.9748 B( 28-C , 31-H ) :   0.9750

Dispersion correction           -0.015659073
FINAL SINGLE POINT ENERGY     -1339.877380462695

DIPOLE MOMENT
-------------
                                X             Y             Z
Electronic contribution:    -16.09435      27.01556       5.00332
Nuclear contribution   :     16.28084     -27.53055      -5.17152
                        -----------------------------------------
Total Dipole Moment    :      0.18649      -0.51499      -0.16819
                        -----------------------------------------
Magnitude (a.u.)       :      0.57296
Magnitude (Debye)      :      1.45634

Rotational constants in cm-1:     0.018647     0.010078     0.007515
Rotational constants in MHz :   559.008901   302.137327   225.308200

                             ****ORCA TERMINATED NORMALLY****
TOTAL RUN TIME: 0 days 0 hours 0 minutes 22 seconds 677 msec
