                         Program Version 4.2.1 -  RELEASE  -
|  1> ! wB97X-D3 SP def2-SVP
|  2> %pal
|  3> nprocs 24
|  4> end
|  5>
|  6> * xyz 0 1
|  7> S 	 -58.3848 	 -54.2083 	 -84.5559
|  8> C 	 -59.7813 	 -53.4599 	 -83.813
|  9> C 	 -60.6966 	 -54.3796 	 -83.3186
| 10> C 	 -60.1676 	 -55.6952 	 -83.496
| 11> C 	 -58.9635 	 -55.7821 	 -84.1025
| 12> H 	 -60.6259 	 -56.594 	 -83.2557
| 13> C 	 -62.0519 	 -54.1092 	 -82.666
| 14> H 	 -62.8147 	 -54.9395 	 -82.9043
| 15> H 	 -62.6166 	 -53.223 	 -83.0952
| 16> C 	 -61.9358 	 -53.8631 	 -81.1016
| 17> H 	 -61.1885 	 -54.5148 	 -80.6616
| 18> H 	 -61.7843 	 -52.8333 	 -80.86
| 19> C 	 -63.268 	 -54.2183 	 -80.4492
| 20> H 	 -64.0279 	 -53.5021 	 -80.6466
| 21> H 	 -63.5169 	 -55.3061 	 -80.7385
| 22> H 	 -63.2414 	 -54.1231 	 -79.4283
| 23> S 	 -56.4308 	 -57.0034 	 -84.0665
| 24> C 	 -56.3334 	 -58.6656 	 -84.5599
| 25> C 	 -57.4977 	 -59.2174 	 -85.0108
| 26> C 	 -58.6264 	 -58.3047 	 -84.8458
| 27> C 	 -58.2172 	 -57.0188 	 -84.442
| 28> H 	 -57.4867 	 -60.2518 	 -85.3437
| 29> C 	 -59.9517 	 -58.7052 	 -85.238
| 30> H 	 -59.9502 	 -59.0735 	 -86.2872
| 31> H 	 -60.612 	 -57.831 	 -85.2186
| 32> C 	 -60.7464 	 -59.7573 	 -84.3529
| 33> H 	 -60.7075 	 -59.5026 	 -83.2841
| 34> H 	 -60.1645 	 -60.7172 	 -84.3647
| 35> C 	 -62.2334 	 -59.9371 	 -84.7804
| 36> H 	 -62.8139 	 -59.0238 	 -84.5556
| 37> H 	 -62.7142 	 -60.7852 	 -84.2502
| 38> H 	 -62.3555 	 -60.1541 	 -85.8743
| 39> H 	 -59.9172 	 -52.3455 	 -83.713
| 40> H 	 -55.3914 	 -59.2336 	 -84.5735
| 41> *
| 42>
| 43>                          ****END OF INPUT****

CARTESIAN COORDINATES (ANGSTROEM)
---------------------------------
  S    -58.384800  -54.208300  -84.555900
  C    -59.781300  -53.459900  -83.813000
  C    -60.696600  -54.379600  -83.318600
  C    -60.167600  -55.695200  -83.496000
  C    -58.963500  -55.782100  -84.102500
  H    -60.625900  -56.594000  -83.255700
  C    -62.051900  -54.109200  -82.666000
  H    -62.814700  -54.939500  -82.904300
  H    -62.616600  -53.223000  -83.095200
  C    -61.935800  -53.863100  -81.101600
  H    -61.188500  -54.514800  -80.661600
  H    -61.784300  -52.833300  -80.860000
  C    -63.268000  -54.218300  -80.449200
  H    -64.027900  -53.502100  -80.646600
  H    -63.516900  -55.306100  -80.738500
  H    -63.241400  -54.123100  -79.428300
  S    -56.430800  -57.003400  -84.066500
  C    -56.333400  -58.665600  -84.559900
  C    -57.497700  -59.217400  -85.010800
  C    -58.626400  -58.304700  -84.845800
  C    -58.217200  -57.018800  -84.442000
  H    -57.486700  -60.251800  -85.343700
  C    -59.951700  -58.705200  -85.238000
  H    -59.950200  -59.073500  -86.287200
  H    -60.612000  -57.831000  -85.218600
  C    -60.746400  -59.757300  -84.352900
  H    -60.707500  -59.502600  -83.284100
  H    -60.164500  -60.717200  -84.364700
  C    -62.233400  -59.937100  -84.780400
  H    -62.813900  -59.023800  -84.555600
  H    -62.714200  -60.785200  -84.250200
  H    -62.355500  -60.154100  -85.874300
  H    -59.917200  -52.345500  -83.713000
  H    -55.391400  -59.233600  -84.573500

 Total Charge           Charge          ....    0
 Multiplicity           Mult            ....    1
 Number of Electrons    NEL             ....  134
 Basis Dimension        Dim             ....  322

ORBITAL ENERGIES
----------------

  NO   OCC          E(Eh)            E(eV)
   0   2.0000     -88.966151     -2420.8920
   1   2.0000     -88.965188     -2420.8659
   2   2.0000     -10.335989      -281.2566
   3   2.0000     -10.326239      -280.9912
   4   2.0000     -10.318573      -280.7827
   5   2.0000     -10.317479      -280.7529
   6   2.0000     -10.308728      -280.5148
   7   2.0000     -10.308096      -280.4976
   8   2.0000     -10.304590      -280.4022
   9   2.0000     -10.298104      -280.2257
  10   2.0000     -10.294667      -280.1321
  11   2.0000     -10.291968      -280.0587
  12   2.0000     -10.290475      -280.0181
  13   2.0000     -10.286785      -279.9176
  14   2.0000     -10.285014      -279.8694
  15   2.0000     -10.273190      -279.5477
  16   2.0000      -8.081168      -219.8998
  17   2.0000      -8.079275      -219.8483
  18   2.0000      -6.039712      -164.3489
  19   2.0000      -6.037838      -164.2979
  20   2.0000      -6.035657      -164.2386
  21   2.0000      -6.034062      -164.1952
  22   2.0000      -6.031858      -164.1352
  23   2.0000      -6.029833      -164.0801
  24   2.0000      -1.004786       -27.3416
  25   2.0000      -0.980996       -26.6943
  26   2.0000      -0.906736       -24.6736
  27   2.0000      -0.905919       -24.6513
  28   2.0000      -0.867213       -23.5981
  29   2.0000      -0.853535       -23.2259
  30   2.0000      -0.846817       -23.0431
  31   2.0000      -0.815063       -22.1790
  32   2.0000      -0.780456       -21.2373
  33   2.0000      -0.766827       -20.8664
  34   2.0000      -0.705148       -19.1881
  35   2.0000      -0.699760       -19.0414
  36   2.0000      -0.689841       -18.7715
  37   2.0000      -0.659846       -17.9553
  38   2.0000      -0.641511       -17.4564
  39   2.0000      -0.622361       -16.9353
  40   2.0000      -0.597318       -16.2539
  41   2.0000      -0.570120       -15.5137
  42   2.0000      -0.567007       -15.4290
  43   2.0000      -0.555918       -15.1273
  44   2.0000      -0.524825       -14.2812
  45   2.0000      -0.519376       -14.1329
  46   2.0000      -0.512084       -13.9345
  47   2.0000      -0.509727       -13.8704
  48   2.0000      -0.505957       -13.7678
  49   2.0000      -0.496174       -13.5016
  50   2.0000      -0.490535       -13.3481
  51   2.0000      -0.472663       -12.8618
  52   2.0000      -0.468441       -12.7469
  53   2.0000      -0.459029       -12.4908
  54   2.0000      -0.458436       -12.4747
  55   2.0000      -0.454818       -12.3762
  56   2.0000      -0.443829       -12.0772
  57   2.0000      -0.435388       -11.8475
  58   2.0000      -0.432540       -11.7700
  59   2.0000      -0.430861       -11.7243
  60   2.0000      -0.430669       -11.7191
  61   2.0000      -0.417219       -11.3531
  62   2.0000      -0.412060       -11.2127
  63   2.0000      -0.349946        -9.5225
  64   2.0000      -0.331817        -9.0292
  65   2.0000      -0.328816        -8.9475
  66   2.0000      -0.290508        -7.9051
  67   0.0000       0.030534         0.8309
  68   0.0000       0.072813         1.9814
  69   0.0000       0.104728         2.8498
  70   0.0000       0.116957         3.1826
  71   0.0000       0.122279         3.3274

MULLIKEN ATOMIC CHARGES
-----------------------
   0 S :    0.113636
   1 C :   -0.141430
   2 C :   -0.039672
   3 C :    0.034587
   4 C :   -0.129911
   5 H :   -0.032989
   6 C :   -0.014779
   7 H :    0.042533
   8 H :    0.038495
   9 C :   -0.043945
  10 H :    0.040571
  11 H :    0.028711
  12 C :   -0.045915
  13 H :    0.018813
  14 H :    0.041987
  15 H :    0.009267
  16 S :    0.090400
  17 C :   -0.088707
  18 C :   -0.030115
  19 C :   -0.011882
  20 C :   -0.128317
  21 H :    0.024887
  22 C :    0.015429
  23 H :    0.042105
  24 H :    0.014389
  25 C :   -0.093230
  26 H :    0.033398
  27 H :    0.029754
  28 C :   -0.070390
  29 H :    0.039937
  30 H :    0.045086
  31 H :    0.039437
  32 H :    0.065051
  33 H :    0.062806
Sum of atomic charges:    0.0000000

LOEWDIN ATOMIC CHARGES
----------------------
   0 S :    0.408056
   1 C :   -0.200982
   2 C :   -0.065192
   3 C :   -0.060385
   4 C :   -0.196056
   5 H :    0.017535
   6 C :   -0.041314
   7 H :    0.037508
   8 H :    0.037011
   9 C :   -0.031257
  10 H :    0.025749
  11 H :    0.022272
  12 C :   -0.065089
  13 H :    0.020611
  14 H :    0.033204
  15 H :    0.013047
  16 S :    0.373414
  17 C :   -0.182258
  18 C :   -0.074097
  19 C :   -0.051550
  20 C :   -0.171123
  21 H :    0.035566
  22 C :   -0.043858
  23 H :    0.039738
  24 H :    0.028291
  25 C :   -0.043459
  26 H :    0.023994
  27 H :    0.023309
  28 C :   -0.073437
  29 H :    0.027267
  30 H :    0.031944
  31 H :    0.029532
  32 H :    0.038698
  33 H :    0.033311

  Mayer bond orders larger than 0.100000
B(  0-S ,  1-C ) :   1.1418 B(  0-S ,  4-C ) :   1.1440 B(  1-C ,  2-C ) :   1.6182
B(  1-C , 32-H ) :   0.9600 B(  2-C ,  3-C ) :   1.2250 B(  2-C ,  6-C ) :   1.0184
B(  3-C ,  4-C ) :   1.5998 B(  3-C ,  5-H ) :   1.0094 B(  4-C , 20-C ) :   1.0204
B(  6-C ,  7-H ) :   0.9559 B(  6-C ,  8-H ) :   0.9437 B(  6-C ,  9-C ) :   1.0407
B(  9-C , 10-H ) :   0.9648 B(  9-C , 11-H ) :   0.9549 B(  9-C , 12-C ) :   1.0895
B( 12-C , 13-H ) :   0.9712 B( 12-C , 14-H ) :   0.9765 B( 12-C , 15-H ) :   0.9697
B( 16-S , 17-C ) :   1.1465 B( 16-S , 20-C ) :   1.1111 B( 17-C , 18-C ) :   1.6582
B( 17-C , 33-H ) :   0.9581 B( 18-C , 19-C ) :   1.1802 B( 18-C , 21-H ) :   0.9893
B( 19-C , 20-C ) :   1.6171 B( 19-C , 22-C ) :   1.0847 B( 22-C , 23-H ) :   0.9284
B( 22-C , 24-H ) :   0.9341 B( 22-C , 25-C ) :   1.0408 B( 25-C , 26-H ) :   0.9556
B( 25-C , 27-H ) :   0.9564 B( 25-C , 28-C ) :   1.0760 B( 28-C , 29-H ) :   0.9745
B( 28-C , 30-H ) :   0.9746 B( 28-C , 31-H ) :   0.9754

Dispersion correction           -0.013653145
FINAL SINGLE POINT ENERGY     -1339.877246739473

DIPOLE MOMENT
-------------
                                X             Y             Z
Electronic contribution:     29.41400       7.94612      -9.35170
Nuclear contribution   :    -30.02821      -8.25198       9.54056
                        -----------------------------------------
Total Dipole Moment    :     -0.61421      -0.30586       0.18886
                        -----------------------------------------
Magnitude (a.u.)       :      0.71166
Magnitude (Debye)      :      1.80891

Rotational constants in cm-1:     0.016252     0.008817     0.006376
Rotational constants in MHz :   487.235918   264.321885   191.158547

                             ****ORCA TERMINATED NORMALLY****
TOTAL RUN TIME: 0 days 0 hours 0 minutes 21 seconds 117 msec
