                         Program Version 4.2.1 -  RELEASE  -
|  1> ! wB97X-D3 SP def2-SVP
|  2> %pal
|  3> nprocs 24
|  4> end
|  5>
|  6> * xyz 0 1
|  7> S 	 -138.162 	 25.1498 	 -19.0293
|  8> C 	 -139.889 	 24.7902 	 -19.0829
|  9> C 	 -140.386 	 24.5447 	 -17.7733
| 10> C 	 -139.369 	 24.6065 	 -16.789
| 11> C 	 -138.195 	 25.0965 	 -17.2908
| 12> H 	 -139.537 	 24.4048 	 -15.7368
| 13> C 	 -141.814 	 24.1709 	 -17.5056
| 14> H 	 -142.388 	 24.9948 	 -17.7539
| 15> H 	 -141.926 	 24.012 	 -16.3699
| 16> C 	 -142.141 	 22.8986 	 -18.2724
| 17> H 	 -142.047 	 22.9389 	 -19.3107
| 18> H 	 -141.339 	 22.1909 	 -18.0802
| 19> C 	 -143.543 	 22.2564 	 -18.0662
| 20> H 	 -143.684 	 21.941 	 -17.0161
| 21> H 	 -144.382 	 22.977 	 -18.1581
| 22> H 	 -143.585 	 21.4151 	 -18.7768
| 23> S 	 -136.046 	 26.6863 	 -16.4152
| 24> C 	 -134.842 	 25.9279 	 -15.3695
| 25> C 	 -135.071 	 24.5738 	 -15.227
| 26> C 	 -136.249 	 24.1191 	 -15.9026
| 27> C 	 -136.957 	 25.145 	 -16.5432
| 28> H 	 -134.337 	 24.0439 	 -14.6372
| 29> C 	 -136.744 	 22.7066 	 -15.8521
| 30> H 	 -136.213 	 22.1436 	 -16.6675
| 31> H 	 -137.833 	 22.6506 	 -16.1325
| 32> C 	 -136.662 	 21.9068 	 -14.5692
| 33> H 	 -135.62 	 21.7419 	 -14.2908
| 34> H 	 -137.101 	 20.9759 	 -14.89
| 35> C 	 -137.518 	 22.5268 	 -13.5013
| 36> H 	 -137.529 	 21.9059 	 -12.5479
| 37> H 	 -138.564 	 22.5505 	 -13.8745
| 38> H 	 -137.097 	 23.4964 	 -13.1973
| 39> H 	 -140.479 	 24.6602 	 -19.9406
| 40> H 	 -133.977 	 26.5075 	 -15.002
| 41> *
| 42>
| 43>                          ****END OF INPUT****

CARTESIAN COORDINATES (ANGSTROEM)
---------------------------------
  S    -138.162000   25.149800  -19.029300
  C    -139.889000   24.790200  -19.082900
  C    -140.386000   24.544700  -17.773300
  C    -139.369000   24.606500  -16.789000
  C    -138.195000   25.096500  -17.290800
  H    -139.537000   24.404800  -15.736800
  C    -141.814000   24.170900  -17.505600
  H    -142.388000   24.994800  -17.753900
  H    -141.926000   24.012000  -16.369900
  C    -142.141000   22.898600  -18.272400
  H    -142.047000   22.938900  -19.310700
  H    -141.339000   22.190900  -18.080200
  C    -143.543000   22.256400  -18.066200
  H    -143.684000   21.941000  -17.016100
  H    -144.382000   22.977000  -18.158100
  H    -143.585000   21.415100  -18.776800
  S    -136.046000   26.686300  -16.415200
  C    -134.842000   25.927900  -15.369500
  C    -135.071000   24.573800  -15.227000
  C    -136.249000   24.119100  -15.902600
  C    -136.957000   25.145000  -16.543200
  H    -134.337000   24.043900  -14.637200
  C    -136.744000   22.706600  -15.852100
  H    -136.213000   22.143600  -16.667500
  H    -137.833000   22.650600  -16.132500
  C    -136.662000   21.906800  -14.569200
  H    -135.620000   21.741900  -14.290800
  H    -137.101000   20.975900  -14.890000
  C    -137.518000   22.526800  -13.501300
  H    -137.529000   21.905900  -12.547900
  H    -138.564000   22.550500  -13.874500
  H    -137.097000   23.496400  -13.197300
  H    -140.479000   24.660200  -19.940600
  H    -133.977000   26.507500  -15.002000

 Total Charge           Charge          ....    0
 Multiplicity           Mult            ....    1
 Number of Electrons    NEL             ....  134
 Basis Dimension        Dim             ....  322

ORBITAL ENERGIES
----------------

  NO   OCC          E(Eh)            E(eV)
   0   2.0000     -88.969457     -2420.9820
   1   2.0000     -88.961415     -2420.7632
   2   2.0000     -10.325413      -280.9688
   3   2.0000     -10.324058      -280.9319
   4   2.0000     -10.321190      -280.8539
   5   2.0000     -10.313220      -280.6370
   6   2.0000     -10.305209      -280.4190
   7   2.0000     -10.301279      -280.3120
   8   2.0000     -10.295754      -280.1617
   9   2.0000     -10.292908      -280.0843
  10   2.0000     -10.292826      -280.0820
  11   2.0000     -10.289674      -279.9963
  12   2.0000     -10.284955      -279.8679
  13   2.0000     -10.282975      -279.8140
  14   2.0000     -10.282927      -279.8127
  15   2.0000     -10.281862      -279.7837
  16   2.0000      -8.083785      -219.9710
  17   2.0000      -8.075492      -219.7453
  18   2.0000      -6.042235      -164.4176
  19   2.0000      -6.038393      -164.3130
  20   2.0000      -6.034596      -164.2097
  21   2.0000      -6.033993      -164.1933
  22   2.0000      -6.030061      -164.0863
  23   2.0000      -6.026342      -163.9851
  24   2.0000      -1.004115       -27.3234
  25   2.0000      -0.978803       -26.6346
  26   2.0000      -0.915800       -24.9202
  27   2.0000      -0.914275       -24.8787
  28   2.0000      -0.865925       -23.5630
  29   2.0000      -0.852243       -23.1907
  30   2.0000      -0.844115       -22.9695
  31   2.0000      -0.814568       -22.1655
  32   2.0000      -0.781945       -21.2778
  33   2.0000      -0.767426       -20.8827
  34   2.0000      -0.711857       -19.3706
  35   2.0000      -0.703091       -19.1321
  36   2.0000      -0.690239       -18.7824
  37   2.0000      -0.650288       -17.6952
  38   2.0000      -0.642860       -17.4931
  39   2.0000      -0.621880       -16.9222
  40   2.0000      -0.599825       -16.3221
  41   2.0000      -0.569176       -15.4881
  42   2.0000      -0.560926       -15.2636
  43   2.0000      -0.553396       -15.0587
  44   2.0000      -0.544699       -14.8220
  45   2.0000      -0.531812       -14.4713
  46   2.0000      -0.523702       -14.2507
  47   2.0000      -0.512006       -13.9324
  48   2.0000      -0.497654       -13.5419
  49   2.0000      -0.493292       -13.4232
  50   2.0000      -0.488120       -13.2824
  51   2.0000      -0.475147       -12.9294
  52   2.0000      -0.471695       -12.8355
  53   2.0000      -0.464795       -12.6477
  54   2.0000      -0.459794       -12.5116
  55   2.0000      -0.454786       -12.3754
  56   2.0000      -0.440061       -11.9747
  57   2.0000      -0.438318       -11.9272
  58   2.0000      -0.432022       -11.7559
  59   2.0000      -0.425124       -11.5682
  60   2.0000      -0.420377       -11.4390
  61   2.0000      -0.413256       -11.2453
  62   2.0000      -0.410947       -11.1824
  63   2.0000      -0.337892        -9.1945
  64   2.0000      -0.331652        -9.0247
  65   2.0000      -0.327027        -8.8989
  66   2.0000      -0.294223        -8.0062
  67   0.0000       0.033409         0.9091
  68   0.0000       0.058656         1.5961
  69   0.0000       0.112662         3.0657
  70   0.0000       0.123125         3.3504
  71   0.0000       0.129429         3.5219

MULLIKEN ATOMIC CHARGES
-----------------------
   0 S :    0.127440
   1 C :   -0.108504
   2 C :   -0.126505
   3 C :    0.019237
   4 C :   -0.124388
   5 H :    0.017602
   6 C :    0.126918
   7 H :    0.022789
   8 H :    0.029185
   9 C :   -0.099919
  10 H :    0.010898
  11 H :    0.024828
  12 C :   -0.042259
  13 H :    0.026526
  14 H :    0.032014
  15 H :    0.044540
  16 S :    0.092469
  17 C :   -0.113847
  18 C :   -0.034269
  19 C :    0.003136
  20 C :   -0.190340
  21 H :    0.019545
  22 C :    0.009145
  23 H :    0.044547
  24 H :    0.024410
  25 C :   -0.036205
  26 H :    0.028032
  27 H :    0.022607
  28 C :   -0.071401
  29 H :    0.039919
  30 H :    0.033342
  31 H :    0.047337
  32 H :    0.029348
  33 H :    0.071825
Sum of atomic charges:   -0.0000000

LOEWDIN ATOMIC CHARGES
----------------------
   0 S :    0.419629
   1 C :   -0.193204
   2 C :   -0.054398
   3 C :   -0.060002
   4 C :   -0.200135
   5 H :    0.033826
   6 C :   -0.027248
   7 H :    0.023231
   8 H :    0.038374
   9 C :   -0.044589
  10 H :    0.015222
  11 H :    0.027900
  12 C :   -0.068286
  13 H :    0.023226
  14 H :    0.027193
  15 H :    0.031200
  16 S :    0.375046
  17 C :   -0.177017
  18 C :   -0.077747
  19 C :   -0.053141
  20 C :   -0.193786
  21 H :    0.032864
  22 C :   -0.042498
  23 H :    0.039896
  24 H :    0.034314
  25 C :   -0.043851
  26 H :    0.019657
  27 H :    0.026794
  28 C :   -0.070163
  29 H :    0.031276
  30 H :    0.027441
  31 H :    0.028819
  32 H :    0.015226
  33 H :    0.034931

  Mayer bond orders larger than 0.100000
B(  0-S ,  1-C ) :   1.1454 B(  0-S ,  4-C ) :   1.1717 B(  1-C ,  2-C ) :   1.5659
B(  1-C ,  4-C ) :   0.1044 B(  1-C , 32-H ) :   0.9792 B(  2-C ,  3-C ) :   1.2728
B(  2-C ,  6-C ) :   1.0181 B(  3-C ,  4-C ) :   1.5485 B(  3-C ,  5-H ) :   0.9970
B(  4-C , 20-C ) :   1.0303 B(  6-C ,  7-H ) :   0.9266 B(  6-C ,  8-H ) :   0.9457
B(  6-C ,  9-C ) :   1.0571 B(  9-C , 10-H ) :   0.9561 B(  9-C , 11-H ) :   0.9530
B(  9-C , 12-C ) :   1.0800 B( 12-C , 13-H ) :   0.9755 B( 12-C , 14-H ) :   0.9735
B( 12-C , 15-H ) :   0.9751 B( 16-S , 17-C ) :   1.1589 B( 16-S , 20-C ) :   1.1257
B( 17-C , 18-C ) :   1.6143 B( 17-C , 20-C ) :   0.1009 B( 17-C , 33-H ) :   0.9631
B( 18-C , 19-C ) :   1.2120 B( 18-C , 21-H ) :   0.9956 B( 19-C , 20-C ) :   1.5949
B( 19-C , 22-C ) :   1.0452 B( 22-C , 23-H ) :   0.9200 B( 22-C , 24-H ) :   0.9368
B( 22-C , 25-C ) :   1.0819 B( 25-C , 26-H ) :   0.9471 B( 25-C , 27-H ) :   0.9487
B( 25-C , 28-C ) :   1.0839 B( 28-C , 29-H ) :   0.9725 B( 28-C , 30-H ) :   0.9690
B( 28-C , 31-H ) :   0.9729

Dispersion correction           -0.014807067
FINAL SINGLE POINT ENERGY     -1339.878568500297

DIPOLE MOMENT
-------------
                                X             Y             Z
Electronic contribution:     18.29205      21.49317      -9.71666
Nuclear contribution   :    -18.53110     -22.10469       9.95806
                        -----------------------------------------
Total Dipole Moment    :     -0.23906      -0.61152       0.24140
                        -----------------------------------------
Magnitude (a.u.)       :      0.69956
Magnitude (Debye)      :      1.77814

Rotational constants in cm-1:     0.020417     0.008414     0.006547
Rotational constants in MHz :   612.095813   252.232815   196.278306

                             ****ORCA TERMINATED NORMALLY****
TOTAL RUN TIME: 0 days 0 hours 0 minutes 22 seconds 71 msec
