                         Program Version 4.2.1 -  RELEASE  -
|  1> ! wB97X-D3 SP def2-SVP
|  2> %pal
|  3> nprocs 24
|  4> end
|  5>
|  6> * xyz 0 1
|  7> S 	 -105.026 	 2.64144 	 -109.841
|  8> C 	 -106.537 	 3.41075 	 -109.345
|  9> C 	 -107.582 	 2.92001 	 -110.094
| 10> C 	 -107.194 	 1.89144 	 -111.032
| 11> C 	 -105.821 	 1.58899 	 -111.004
| 12> H 	 -107.861 	 1.22685 	 -111.624
| 13> C 	 -109.062 	 3.41065 	 -109.985
| 14> H 	 -109.157 	 4.11882 	 -109.216
| 15> H 	 -109.767 	 2.54779 	 -109.711
| 16> C 	 -109.595 	 3.9518 	 -111.351
| 17> H 	 -108.913 	 4.72458 	 -111.808
| 18> H 	 -109.549 	 3.05602 	 -111.957
| 19> C 	 -111.157 	 4.33301 	 -111.311
| 20> H 	 -111.369 	 5.19963 	 -110.669
| 21> H 	 -111.455 	 4.56929 	 -112.399
| 22> H 	 -111.711 	 3.40746 	 -111.068
| 23> S 	 -103.493 	 1.18861 	 -112.515
| 24> C 	 -103.139 	 -0.495023 	 -113.072
| 25> C 	 -104.243 	 -1.32073 	 -112.842
| 26> C 	 -105.349 	 -0.653611 	 -112.192
| 27> C 	 -105.074 	 0.668316 	 -111.864
| 28> H 	 -104.223 	 -2.35982 	 -113.068
| 29> C 	 -106.688 	 -1.31111 	 -111.7
| 30> H 	 -107.409 	 -0.830858 	 -112.321
| 31> H 	 -106.93 	 -0.895703 	 -110.703
| 32> C 	 -106.946 	 -2.78697 	 -111.9
| 33> H 	 -106.83 	 -2.97085 	 -113.018
| 34> H 	 -107.989 	 -3.09069 	 -111.654
| 35> C 	 -105.953 	 -3.71131 	 -111.139
| 36> H 	 -106.456 	 -3.63495 	 -110.177
| 37> H 	 -104.933 	 -3.46769 	 -111.045
| 38> H 	 -106.018 	 -4.73273 	 -111.312
| 39> H 	 -106.554 	 4.27654 	 -108.72
| 40> H 	 -102.167 	 -0.777156 	 -113.38
| 41> *
| 42>
| 43>                          ****END OF INPUT****

CARTESIAN COORDINATES (ANGSTROEM)
---------------------------------
  S    -105.026000    2.641440  -109.841000
  C    -106.537000    3.410750  -109.345000
  C    -107.582000    2.920010  -110.094000
  C    -107.194000    1.891440  -111.032000
  C    -105.821000    1.588990  -111.004000
  H    -107.861000    1.226850  -111.624000
  C    -109.062000    3.410650  -109.985000
  H    -109.157000    4.118820  -109.216000
  H    -109.767000    2.547790  -109.711000
  C    -109.595000    3.951800  -111.351000
  H    -108.913000    4.724580  -111.808000
  H    -109.549000    3.056020  -111.957000
  C    -111.157000    4.333010  -111.311000
  H    -111.369000    5.199630  -110.669000
  H    -111.455000    4.569290  -112.399000
  H    -111.711000    3.407460  -111.068000
  S    -103.493000    1.188610  -112.515000
  C    -103.139000   -0.495023  -113.072000
  C    -104.243000   -1.320730  -112.842000
  C    -105.349000   -0.653611  -112.192000
  C    -105.074000    0.668316  -111.864000
  H    -104.223000   -2.359820  -113.068000
  C    -106.688000   -1.311110  -111.700000
  H    -107.409000   -0.830858  -112.321000
  H    -106.930000   -0.895703  -110.703000
  C    -106.946000   -2.786970  -111.900000
  H    -106.830000   -2.970850  -113.018000
  H    -107.989000   -3.090690  -111.654000
  C    -105.953000   -3.711310  -111.139000
  H    -106.456000   -3.634950  -110.177000
  H    -104.933000   -3.467690  -111.045000
  H    -106.018000   -4.732730  -111.312000
  H    -106.554000    4.276540  -108.720000
  H    -102.167000   -0.777156  -113.380000

 Total Charge           Charge          ....    0
 Multiplicity           Mult            ....    1
 Number of Electrons    NEL             ....  134
 Basis Dimension        Dim             ....  322

ORBITAL ENERGIES
----------------

  NO   OCC          E(Eh)            E(eV)
   0   2.0000     -88.966466     -2420.9006
   1   2.0000     -88.966192     -2420.8932
   2   2.0000     -10.336307      -281.2652
   3   2.0000     -10.331350      -281.1303
   4   2.0000     -10.325126      -280.9610
   5   2.0000     -10.316710      -280.7319
   6   2.0000     -10.312360      -280.6136
   7   2.0000     -10.308833      -280.5176
   8   2.0000     -10.302824      -280.3541
   9   2.0000     -10.302239      -280.3382
  10   2.0000     -10.300460      -280.2898
  11   2.0000     -10.299158      -280.2543
  12   2.0000     -10.296617      -280.1852
  13   2.0000     -10.295310      -280.1496
  14   2.0000     -10.294488      -280.1273
  15   2.0000     -10.268503      -279.4202
  16   2.0000      -8.080535      -219.8825
  17   2.0000      -8.079760      -219.8615
  18   2.0000      -6.039130      -164.3331
  19   2.0000      -6.038411      -164.3135
  20   2.0000      -6.034958      -164.2196
  21   2.0000      -6.034497      -164.2070
  22   2.0000      -6.031353      -164.1215
  23   2.0000      -6.030422      -164.0961
  24   2.0000      -0.999896       -27.2085
  25   2.0000      -0.975769       -26.5520
  26   2.0000      -0.908062       -24.7096
  27   2.0000      -0.900587       -24.5062
  28   2.0000      -0.867543       -23.6071
  29   2.0000      -0.846682       -23.0394
  30   2.0000      -0.835827       -22.7440
  31   2.0000      -0.814431       -22.1618
  32   2.0000      -0.788581       -21.4584
  33   2.0000      -0.771847       -21.0030
  34   2.0000      -0.707449       -19.2507
  35   2.0000      -0.700578       -19.0637
  36   2.0000      -0.690365       -18.7858
  37   2.0000      -0.658338       -17.9143
  38   2.0000      -0.643949       -17.5227
  39   2.0000      -0.616283       -16.7699
  40   2.0000      -0.595307       -16.1991
  41   2.0000      -0.565484       -15.3876
  42   2.0000      -0.560250       -15.2452
  43   2.0000      -0.556791       -15.1511
  44   2.0000      -0.545797       -14.8519
  45   2.0000      -0.521442       -14.1892
  46   2.0000      -0.512938       -13.9578
  47   2.0000      -0.506609       -13.7855
  48   2.0000      -0.505403       -13.7527
  49   2.0000      -0.497336       -13.5332
  50   2.0000      -0.493409       -13.4263
  51   2.0000      -0.482659       -13.1338
  52   2.0000      -0.475140       -12.9292
  53   2.0000      -0.464044       -12.6273
  54   2.0000      -0.457441       -12.4476
  55   2.0000      -0.448422       -12.2022
  56   2.0000      -0.447504       -12.1772
  57   2.0000      -0.433671       -11.8008
  58   2.0000      -0.432499       -11.7689
  59   2.0000      -0.425437       -11.5767
  60   2.0000      -0.420422       -11.4403
  61   2.0000      -0.411539       -11.1985
  62   2.0000      -0.405883       -11.0446
  63   2.0000      -0.348692        -9.4884
  64   2.0000      -0.332482        -9.0473
  65   2.0000      -0.329466        -8.9652
  66   2.0000      -0.291491        -7.9319
  67   0.0000       0.018862         0.5133
  68   0.0000       0.072308         1.9676
  69   0.0000       0.106431         2.8961
  70   0.0000       0.118867         3.2345
  71   0.0000       0.130763         3.5583

MULLIKEN ATOMIC CHARGES
-----------------------
   0 S :    0.101464
   1 C :   -0.118965
   2 C :   -0.066938
   3 C :    0.000641
   4 C :   -0.156341
   5 H :    0.029653
   6 C :    0.071794
   7 H :    0.003703
   8 H :    0.038136
   9 C :   -0.122116
  10 H :    0.053531
  11 H :    0.028001
  12 C :   -0.078886
  13 H :    0.052826
  14 H :    0.047461
  15 H :    0.040012
  16 S :    0.090568
  17 C :   -0.086839
  18 C :   -0.018886
  19 C :   -0.044291
  20 C :   -0.151625
  21 H :    0.016231
  22 C :    0.058135
  23 H :    0.036355
  24 H :    0.048324
  25 C :   -0.091519
  26 H :    0.032102
  27 H :    0.040934
  28 C :   -0.028319
  29 H :    0.019288
  30 H :    0.038532
  31 H :    0.016688
  32 H :    0.047989
  33 H :    0.052357
Sum of atomic charges:   -0.0000000

LOEWDIN ATOMIC CHARGES
----------------------
   0 S :    0.397512
   1 C :   -0.189075
   2 C :   -0.060793
   3 C :   -0.070706
   4 C :   -0.188006
   5 H :    0.034407
   6 C :   -0.028808
   7 H :    0.013819
   8 H :    0.037790
   9 C :   -0.045436
  10 H :    0.030620
  11 H :    0.020175
  12 C :   -0.073241
  13 H :    0.025754
  14 H :    0.036288
  15 H :    0.027645
  16 S :    0.365132
  17 C :   -0.157026
  18 C :   -0.064071
  19 C :   -0.046737
  20 C :   -0.189329
  21 H :    0.028258
  22 C :   -0.035736
  23 H :    0.030822
  24 H :    0.035377
  25 C :   -0.041809
  26 H :    0.024295
  27 H :    0.033619
  28 C :   -0.070043
  29 H :    0.033030
  30 H :    0.020334
  31 H :    0.017306
  32 H :    0.026698
  33 H :    0.021934

  Mayer bond orders larger than 0.100000
B(  0-S ,  1-C ) :   1.1293 B(  0-S ,  4-C ) :   1.1542 B(  1-C ,  2-C ) :   1.6188
B(  1-C , 32-H ) :   0.9712 B(  2-C ,  3-C ) :   1.2322 B(  2-C ,  6-C ) :   1.0226
B(  3-C ,  4-C ) :   1.5546 B(  3-C ,  5-H ) :   0.9800 B(  4-C , 20-C ) :   1.0713
B(  6-C ,  7-H ) :   0.9482 B(  6-C ,  8-H ) :   0.9441 B(  6-C ,  9-C ) :   1.0420
B(  9-C , 10-H ) :   0.9614 B(  9-C , 11-H ) :   0.9580 B(  9-C , 12-C ) :   1.0680
B( 12-C , 13-H ) :   0.9790 B( 12-C , 14-H ) :   0.9764 B( 12-C , 15-H ) :   0.9736
B( 16-S , 17-C ) :   1.1376 B( 16-S , 20-C ) :   1.1254 B( 17-C , 18-C ) :   1.6048
B( 17-C , 33-H ) :   0.9742 B( 18-C , 19-C ) :   1.2425 B( 18-C , 21-H ) :   0.9884
B( 19-C , 20-C ) :   1.6061 B( 19-C , 22-C ) :   1.0130 B( 22-C , 23-H ) :   0.9232
B( 22-C , 24-H ) :   0.9331 B( 22-C , 25-C ) :   1.0761 B( 25-C , 26-H ) :   0.9527
B( 25-C , 27-H ) :   0.9576 B( 25-C , 28-C ) :   1.0564 B( 28-C , 29-H ) :   0.9733
B( 28-C , 30-H ) :   0.9803 B( 28-C , 31-H ) :   0.9756

Dispersion correction           -0.013770790
FINAL SINGLE POINT ENERGY     -1339.863229245045

DIPOLE MOMENT
-------------
                                X             Y             Z
Electronic contribution:     25.88305       8.59233       0.42329
Nuclear contribution   :    -26.49122      -8.94223      -0.41514
                        -----------------------------------------
Total Dipole Moment    :     -0.60817      -0.34990       0.00816
                        -----------------------------------------
Magnitude (a.u.)       :      0.70169
Magnitude (Debye)      :      1.78355

Rotational constants in cm-1:     0.018434     0.007797     0.006322
Rotational constants in MHz :   552.634898   233.739333   189.532782

                             ****ORCA TERMINATED NORMALLY****
TOTAL RUN TIME: 0 days 0 hours 0 minutes 21 seconds 211 msec
