                         Program Version 4.2.1 -  RELEASE  -
|  1> ! wB97X-D3 SP def2-SVP
|  2> %pal
|  3> nprocs 24
|  4> end
|  5>
|  6> * xyz 0 1
|  7> S 	 -147.879 	 18.5422 	 -4.75047
|  8> C 	 -147.136 	 17.9606 	 -6.17967
|  9> C 	 -146.958 	 16.5978 	 -6.20161
| 10> C 	 -147.148 	 16.0261 	 -4.88787
| 11> C 	 -147.702 	 16.9243 	 -3.9672
| 12> H 	 -147.183 	 14.9695 	 -4.70437
| 13> C 	 -146.428 	 15.8608 	 -7.36609
| 14> H 	 -146.834 	 16.0895 	 -8.31971
| 15> H 	 -146.701 	 14.865 	 -7.17467
| 16> C 	 -144.869 	 15.8232 	 -7.36117
| 17> H 	 -144.461 	 15.4343 	 -8.3623
| 18> H 	 -144.513 	 16.8624 	 -7.23614
| 19> C 	 -144.368 	 14.9641 	 -6.14021
| 20> H 	 -144.41 	 13.8795 	 -6.34907
| 21> H 	 -143.383 	 15.2594 	 -6.09426
| 22> H 	 -144.898 	 15.1345 	 -5.19784
| 23> S 	 -148.465 	 18.2326 	 -1.5734
| 24> C 	 -148.942 	 17.224 	 -0.244366
| 25> C 	 -148.73 	 15.8811 	 -0.475377
| 26> C 	 -148.305 	 15.6204 	 -1.82075
| 27> C 	 -148.144 	 16.7366 	 -2.58139
| 28> H 	 -148.989 	 15.1534 	 0.307906
| 29> C 	 -147.925 	 14.1691 	 -2.2678
| 30> H 	 -148.582 	 13.9741 	 -3.11988
| 31> H 	 -148.295 	 13.4321 	 -1.52737
| 32> C 	 -146.466 	 13.7763 	 -2.50472
| 33> H 	 -145.968 	 13.8081 	 -1.55532
| 34> H 	 -145.913 	 14.5353 	 -3.02481
| 35> C 	 -146.472 	 12.4822 	 -3.23887
| 36> H 	 -146.602 	 11.6354 	 -2.55309
| 37> H 	 -145.456 	 12.3018 	 -3.68478
| 38> H 	 -147.119 	 12.4533 	 -4.0974
| 39> H 	 -147.299 	 18.431 	 -7.11207
| 40> H 	 -149.335 	 17.5585 	 0.72007
| 41> *
| 42>
| 43>                          ****END OF INPUT****

CARTESIAN COORDINATES (ANGSTROEM)
---------------------------------
  S    -147.879000   18.542200   -4.750470
  C    -147.136000   17.960600   -6.179670
  C    -146.958000   16.597800   -6.201610
  C    -147.148000   16.026100   -4.887870
  C    -147.702000   16.924300   -3.967200
  H    -147.183000   14.969500   -4.704370
  C    -146.428000   15.860800   -7.366090
  H    -146.834000   16.089500   -8.319710
  H    -146.701000   14.865000   -7.174670
  C    -144.869000   15.823200   -7.361170
  H    -144.461000   15.434300   -8.362300
  H    -144.513000   16.862400   -7.236140
  C    -144.368000   14.964100   -6.140210
  H    -144.410000   13.879500   -6.349070
  H    -143.383000   15.259400   -6.094260
  H    -144.898000   15.134500   -5.197840
  S    -148.465000   18.232600   -1.573400
  C    -148.942000   17.224000   -0.244366
  C    -148.730000   15.881100   -0.475377
  C    -148.305000   15.620400   -1.820750
  C    -148.144000   16.736600   -2.581390
  H    -148.989000   15.153400    0.307906
  C    -147.925000   14.169100   -2.267800
  H    -148.582000   13.974100   -3.119880
  H    -148.295000   13.432100   -1.527370
  C    -146.466000   13.776300   -2.504720
  H    -145.968000   13.808100   -1.555320
  H    -145.913000   14.535300   -3.024810
  C    -146.472000   12.482200   -3.238870
  H    -146.602000   11.635400   -2.553090
  H    -145.456000   12.301800   -3.684780
  H    -147.119000   12.453300   -4.097400
  H    -147.299000   18.431000   -7.112070
  H    -149.335000   17.558500    0.720070

 Total Charge           Charge          ....    0
 Multiplicity           Mult            ....    1
 Number of Electrons    NEL             ....  134
 Basis Dimension        Dim             ....  322

ORBITAL ENERGIES
----------------

  NO   OCC          E(Eh)            E(eV)
   0   2.0000     -88.967638     -2420.9325
   1   2.0000     -88.965464     -2420.8734
   2   2.0000     -10.339865      -281.3620
   3   2.0000     -10.333527      -281.1896
   4   2.0000     -10.319708      -280.8135
   5   2.0000     -10.306804      -280.4624
   6   2.0000     -10.303326      -280.3677
   7   2.0000     -10.299119      -280.2533
   8   2.0000     -10.297612      -280.2123
   9   2.0000     -10.297569      -280.2111
  10   2.0000     -10.296721      -280.1880
  11   2.0000     -10.296516      -280.1824
  12   2.0000     -10.283387      -279.8252
  13   2.0000     -10.283125      -279.8181
  14   2.0000     -10.282339      -279.7967
  15   2.0000     -10.273287      -279.5503
  16   2.0000      -8.081473      -219.9081
  17   2.0000      -8.080067      -219.8698
  18   2.0000      -6.040190      -164.3619
  19   2.0000      -6.038634      -164.3196
  20   2.0000      -6.036275      -164.2554
  21   2.0000      -6.034702      -164.2126
  22   2.0000      -6.031901      -164.1364
  23   2.0000      -6.030676      -164.1030
  24   2.0000      -1.002709       -27.2851
  25   2.0000      -0.982849       -26.7447
  26   2.0000      -0.916605       -24.9421
  27   2.0000      -0.912787       -24.8382
  28   2.0000      -0.868690       -23.6383
  29   2.0000      -0.853957       -23.2373
  30   2.0000      -0.841691       -22.9036
  31   2.0000      -0.816462       -22.2171
  32   2.0000      -0.783832       -21.3292
  33   2.0000      -0.773307       -21.0428
  34   2.0000      -0.712624       -19.3915
  35   2.0000      -0.701514       -19.0892
  36   2.0000      -0.696429       -18.9508
  37   2.0000      -0.666120       -18.1260
  38   2.0000      -0.638816       -17.3831
  39   2.0000      -0.619797       -16.8655
  40   2.0000      -0.595609       -16.2074
  41   2.0000      -0.572206       -15.5705
  42   2.0000      -0.568569       -15.4716
  43   2.0000      -0.550147       -14.9703
  44   2.0000      -0.537813       -14.6346
  45   2.0000      -0.522761       -14.2251
  46   2.0000      -0.519924       -14.1479
  47   2.0000      -0.515111       -14.0169
  48   2.0000      -0.507028       -13.7969
  49   2.0000      -0.497868       -13.5477
  50   2.0000      -0.490123       -13.3369
  51   2.0000      -0.483177       -13.1479
  52   2.0000      -0.474483       -12.9113
  53   2.0000      -0.466264       -12.6877
  54   2.0000      -0.455625       -12.3982
  55   2.0000      -0.451057       -12.2739
  56   2.0000      -0.444887       -12.1060
  57   2.0000      -0.438728       -11.9384
  58   2.0000      -0.433377       -11.7928
  59   2.0000      -0.425147       -11.5688
  60   2.0000      -0.418781       -11.3956
  61   2.0000      -0.412870       -11.2348
  62   2.0000      -0.412103       -11.2139
  63   2.0000      -0.364449        -9.9172
  64   2.0000      -0.335293        -9.1238
  65   2.0000      -0.329353        -8.9622
  66   2.0000      -0.281602        -7.6628
  67   0.0000       0.015439         0.4201
  68   0.0000       0.078383         2.1329
  69   0.0000       0.087632         2.3846
  70   0.0000       0.111612         3.0371
  71   0.0000       0.129206         3.5159

MULLIKEN ATOMIC CHARGES
-----------------------
   0 S :    0.093379
   1 C :   -0.063183
   2 C :   -0.152203
   3 C :    0.001207
   4 C :   -0.118453
   5 H :    0.005668
   6 C :    0.122255
   7 H :    0.018166
   8 H :   -0.006065
   9 C :   -0.104017
  10 H :    0.044111
  11 H :    0.035556
  12 C :   -0.051255
  13 H :    0.034842
  14 H :    0.021181
  15 H :    0.047156
  16 S :    0.093302
  17 C :   -0.084796
  18 C :   -0.041233
  19 C :   -0.056146
  20 C :   -0.100476
  21 H :    0.028772
  22 C :   -0.000903
  23 H :    0.034662
  24 H :    0.017990
  25 C :   -0.025876
  26 H :    0.023659
  27 H :    0.021602
  28 C :   -0.046380
  29 H :    0.040938
  30 H :    0.031275
  31 H :    0.033478
  32 H :    0.042276
  33 H :    0.059511
Sum of atomic charges:   -0.0000000

LOEWDIN ATOMIC CHARGES
----------------------
   0 S :    0.393863
   1 C :   -0.208743
   2 C :   -0.053488
   3 C :   -0.072614
   4 C :   -0.160070
   5 H :    0.027988
   6 C :   -0.032805
   7 H :    0.024995
   8 H :    0.022501
   9 C :   -0.031205
  10 H :    0.030678
  11 H :    0.022839
  12 C :   -0.063328
  13 H :    0.026608
  14 H :    0.017502
  15 H :    0.027869
  16 S :    0.371513
  17 C :   -0.183330
  18 C :   -0.078124
  19 C :   -0.056576
  20 C :   -0.170414
  21 H :    0.037335
  22 C :   -0.034658
  23 H :    0.028823
  24 H :    0.032137
  25 C :   -0.045337
  26 H :    0.028392
  27 H :    0.018726
  28 C :   -0.063759
  29 H :    0.030882
  30 H :    0.032904
  31 H :    0.022285
  32 H :    0.022476
  33 H :    0.034135

  Mayer bond orders larger than 0.100000
B(  0-S ,  1-C ) :   1.1405 B(  0-S ,  4-C ) :   1.1430 B(  1-C ,  2-C ) :   1.6281
B(  1-C , 32-H ) :   0.9521 B(  2-C ,  3-C ) :   1.2382 B(  2-C ,  6-C ) :   1.0515
B(  3-C ,  4-C ) :   1.5787 B(  3-C ,  5-H ) :   0.9682 B(  4-C , 20-C ) :   1.0911
B(  6-C ,  7-H ) :   0.9408 B(  6-C ,  8-H ) :   0.9272 B(  6-C ,  9-C ) :   1.0514
B(  9-C , 10-H ) :   0.9563 B(  9-C , 11-H ) :   0.9627 B(  9-C , 12-C ) :   1.0639
B( 12-C , 13-H ) :   0.9735 B( 12-C , 14-H ) :   0.9706 B( 12-C , 15-H ) :   0.9725
B( 16-S , 17-C ) :   1.1477 B( 16-S , 20-C ) :   1.0955 B( 17-C , 18-C ) :   1.6371
B( 17-C , 33-H ) :   0.9609 B( 18-C , 19-C ) :   1.2259 B( 18-C , 21-H ) :   0.9852
B( 19-C , 20-C ) :   1.6453 B( 19-C , 22-C ) :   1.0178 B( 22-C , 23-H ) :   0.9419
B( 22-C , 24-H ) :   0.9387 B( 22-C , 25-C ) :   1.0479 B( 25-C , 26-H ) :   0.9399
B( 25-C , 27-H ) :   0.9599 B( 25-C , 28-C ) :   1.0760 B( 28-C , 29-H ) :   0.9733
B( 28-C , 30-H ) :   0.9690 B( 28-C , 31-H ) :   0.9735

Dispersion correction           -0.015707891
FINAL SINGLE POINT ENERGY     -1339.865870316080

DIPOLE MOMENT
-------------
                                X             Y             Z
Electronic contribution:    -15.05952      25.80015      10.36278
Nuclear contribution   :     15.15976     -26.57833     -10.44282
                        -----------------------------------------
Total Dipole Moment    :      0.10024      -0.77818      -0.08004
                        -----------------------------------------
Magnitude (a.u.)       :      0.78868
Magnitude (Debye)      :      2.00467

Rotational constants in cm-1:     0.018537     0.010594     0.007161
Rotational constants in MHz :   555.734648   317.614062   214.677138

                             ****ORCA TERMINATED NORMALLY****
TOTAL RUN TIME: 0 days 0 hours 0 minutes 23 seconds 394 msec
