                         Program Version 4.2.1 -  RELEASE  -
|  1> ! wB97X-D3 SP def2-SVP
|  2> %pal
|  3> nprocs 24
|  4> end
|  5>
|  6> * xyz 0 1
|  7> S 	 24.4377 	 -2.92436 	 -114.99
|  8> C 	 24.5991 	 -4.20182 	 -116.133
|  9> C 	 24.2311 	 -5.40588 	 -115.556
| 10> C 	 23.6646 	 -5.23654 	 -114.209
| 11> C 	 23.5916 	 -3.90184 	 -113.783
| 12> H 	 23.2017 	 -6.05548 	 -113.632
| 13> C 	 24.2098 	 -6.67081 	 -116.322
| 14> H 	 25.0396 	 -6.73747 	 -117.056
| 15> H 	 23.3422 	 -6.50279 	 -116.925
| 16> C 	 24.2798 	 -7.94206 	 -115.594
| 17> H 	 23.2441 	 -8.1739 	 -115.192
| 18> H 	 24.4319 	 -8.75463 	 -116.359
| 19> C 	 25.4988 	 -7.97363 	 -114.61
| 20> H 	 26.3647 	 -7.71806 	 -115.309
| 21> H 	 25.3678 	 -7.28309 	 -113.789
| 22> H 	 25.6365 	 -8.98907 	 -114.31
| 23> S 	 22.7491 	 -1.72236 	 -112.326
| 24> C 	 22.515 	 -1.95939 	 -110.653
| 25> C 	 22.6312 	 -3.22445 	 -110.188
| 26> C 	 22.9906 	 -4.08544 	 -111.29
| 27> C 	 23.184 	 -3.414 	 -112.477
| 28> H 	 22.6717 	 -3.51751 	 -109.136
| 29> C 	 23.0829 	 -5.60154 	 -111.007
| 30> H 	 23.9955 	 -5.91526 	 -111.51
| 31> H 	 22.2753 	 -6.03356 	 -111.502
| 32> C 	 23.1468 	 -6.12465 	 -109.604
| 33> H 	 22.2343 	 -5.72801 	 -109.12
| 34> H 	 24.1062 	 -5.80873 	 -109.069
| 35> C 	 23.0526 	 -7.66542 	 -109.462
| 36> H 	 22.9371 	 -8.00331 	 -108.424
| 37> H 	 23.9039 	 -8.21906 	 -110.002
| 38> H 	 22.0991 	 -7.90437 	 -109.972
| 39> H 	 25.124 	 -4.22236 	 -117.04
| 40> H 	 22.277 	 -1.12039 	 -110.063
| 41> *
| 42>
| 43>                          ****END OF INPUT****

CARTESIAN COORDINATES (ANGSTROEM)
---------------------------------
  S     24.437700   -2.924360  -114.990000
  C     24.599100   -4.201820  -116.133000
  C     24.231100   -5.405880  -115.556000
  C     23.664600   -5.236540  -114.209000
  C     23.591600   -3.901840  -113.783000
  H     23.201700   -6.055480  -113.632000
  C     24.209800   -6.670810  -116.322000
  H     25.039600   -6.737470  -117.056000
  H     23.342200   -6.502790  -116.925000
  C     24.279800   -7.942060  -115.594000
  H     23.244100   -8.173900  -115.192000
  H     24.431900   -8.754630  -116.359000
  C     25.498800   -7.973630  -114.610000
  H     26.364700   -7.718060  -115.309000
  H     25.367800   -7.283090  -113.789000
  H     25.636500   -8.989070  -114.310000
  S     22.749100   -1.722360  -112.326000
  C     22.515000   -1.959390  -110.653000
  C     22.631200   -3.224450  -110.188000
  C     22.990600   -4.085440  -111.290000
  C     23.184000   -3.414000  -112.477000
  H     22.671700   -3.517510  -109.136000
  C     23.082900   -5.601540  -111.007000
  H     23.995500   -5.915260  -111.510000
  H     22.275300   -6.033560  -111.502000
  C     23.146800   -6.124650  -109.604000
  H     22.234300   -5.728010  -109.120000
  H     24.106200   -5.808730  -109.069000
  C     23.052600   -7.665420  -109.462000
  H     22.937100   -8.003310  -108.424000
  H     23.903900   -8.219060  -110.002000
  H     22.099100   -7.904370  -109.972000
  H     25.124000   -4.222360  -117.040000
  H     22.277000   -1.120390  -110.063000

 Total Charge           Charge          ....    0
 Multiplicity           Mult            ....    1
 Number of Electrons    NEL             ....  134
 Basis Dimension        Dim             ....  322

ORBITAL ENERGIES
----------------

  NO   OCC          E(Eh)            E(eV)
   0   2.0000     -88.965982     -2420.8874
   1   2.0000     -88.963406     -2420.8174
   2   2.0000     -10.333679      -281.1937
   3   2.0000     -10.326884      -281.0088
   4   2.0000     -10.310400      -280.5603
   5   2.0000     -10.306894      -280.4648
   6   2.0000     -10.304292      -280.3940
   7   2.0000     -10.299328      -280.2590
   8   2.0000     -10.297637      -280.2130
   9   2.0000     -10.297230      -280.2019
  10   2.0000     -10.292698      -280.0785
  11   2.0000     -10.292585      -280.0755
  12   2.0000     -10.291724      -280.0521
  13   2.0000     -10.289679      -279.9964
  14   2.0000     -10.283568      -279.8301
  15   2.0000     -10.283037      -279.8157
  16   2.0000      -8.081909      -219.9199
  17   2.0000      -8.078030      -219.8144
  18   2.0000      -6.040293      -164.3647
  19   2.0000      -6.036716      -164.2674
  20   2.0000      -6.036443      -164.2600
  21   2.0000      -6.032544      -164.1539
  22   2.0000      -6.032454      -164.1514
  23   2.0000      -6.028717      -164.0497
  24   2.0000      -1.010068       -27.4853
  25   2.0000      -0.985999       -26.8304
  26   2.0000      -0.921383       -25.0721
  27   2.0000      -0.916475       -24.9385
  28   2.0000      -0.873695       -23.7745
  29   2.0000      -0.854292       -23.2465
  30   2.0000      -0.836773       -22.7697
  31   2.0000      -0.816430       -22.2162
  32   2.0000      -0.787679       -21.4338
  33   2.0000      -0.775720       -21.1084
  34   2.0000      -0.709993       -19.3199
  35   2.0000      -0.699689       -19.0395
  36   2.0000      -0.689922       -18.7737
  37   2.0000      -0.654026       -17.7970
  38   2.0000      -0.631490       -17.1837
  39   2.0000      -0.623186       -16.9578
  40   2.0000      -0.604490       -16.4490
  41   2.0000      -0.582237       -15.8435
  42   2.0000      -0.571528       -15.5521
  43   2.0000      -0.563030       -15.3208
  44   2.0000      -0.540027       -14.6949
  45   2.0000      -0.525517       -14.3000
  46   2.0000      -0.518238       -14.1020
  47   2.0000      -0.509978       -13.8772
  48   2.0000      -0.504209       -13.7202
  49   2.0000      -0.500708       -13.6250
  50   2.0000      -0.486511       -13.2386
  51   2.0000      -0.481395       -13.0994
  52   2.0000      -0.474489       -12.9115
  53   2.0000      -0.466601       -12.6969
  54   2.0000      -0.463160       -12.6032
  55   2.0000      -0.456444       -12.4205
  56   2.0000      -0.447854       -12.1867
  57   2.0000      -0.439546       -11.9607
  58   2.0000      -0.430736       -11.7209
  59   2.0000      -0.426250       -11.5989
  60   2.0000      -0.414463       -11.2781
  61   2.0000      -0.412542       -11.2258
  62   2.0000      -0.405550       -11.0356
  63   2.0000      -0.362144        -9.8544
  64   2.0000      -0.334699        -9.1076
  65   2.0000      -0.321292        -8.7428
  66   2.0000      -0.282781        -7.6949
  67   0.0000       0.024396         0.6639
  68   0.0000       0.084919         2.3108
  69   0.0000       0.106068         2.8863
  70   0.0000       0.116706         3.1757
  71   0.0000       0.129606         3.5268

MULLIKEN ATOMIC CHARGES
-----------------------
   0 S :    0.101366
   1 C :   -0.082663
   2 C :   -0.114483
   3 C :   -0.035807
   4 C :   -0.101491
   5 H :    0.020955
   6 C :    0.047371
   7 H :    0.018027
   8 H :    0.042979
   9 C :   -0.107099
  10 H :    0.032246
  11 H :    0.032367
  12 C :   -0.038782
  13 H :    0.037646
  14 H :    0.052068
  15 H :    0.033174
  16 S :    0.113951
  17 C :   -0.054833
  18 C :   -0.037124
  19 C :   -0.082194
  20 C :   -0.140415
  21 H :    0.038622
  22 C :    0.058002
  23 H :    0.033950
  24 H :    0.033815
  25 C :   -0.112246
  26 H :    0.035704
  27 H :    0.049787
  28 C :   -0.061275
  29 H :    0.047269
  30 H :    0.049528
  31 H :    0.025934
  32 H :    0.027586
  33 H :    0.036066
Sum of atomic charges:    0.0000000

LOEWDIN ATOMIC CHARGES
----------------------
   0 S :    0.403756
   1 C :   -0.208128
   2 C :   -0.057359
   3 C :   -0.080266
   4 C :   -0.182949
   5 H :    0.030952
   6 C :   -0.048667
   7 H :    0.031044
   8 H :    0.038452
   9 C :   -0.054127
  10 H :    0.023201
  11 H :    0.030804
  12 C :   -0.057281
  13 H :    0.038047
  14 H :    0.023892
  15 H :    0.022092
  16 S :    0.419491
  17 C :   -0.176603
  18 C :   -0.077535
  19 C :   -0.042185
  20 C :   -0.202545
  21 H :    0.039806
  22 C :   -0.035239
  23 H :    0.032919
  24 H :    0.023964
  25 C :   -0.050827
  26 H :    0.025520
  27 H :    0.031753
  28 C :   -0.069402
  29 H :    0.029957
  30 H :    0.033344
  31 H :    0.025074
  32 H :    0.022710
  33 H :    0.016332

  Mayer bond orders larger than 0.100000
B(  0-S ,  1-C ) :   1.1267 B(  0-S ,  4-C ) :   1.1489 B(  1-C ,  2-C ) :   1.6150
B(  1-C , 32-H ) :   0.9718 B(  2-C ,  3-C ) :   1.2332 B(  2-C ,  6-C ) :   1.0201
B(  3-C ,  4-C ) :   1.5562 B(  3-C ,  5-H ) :   0.9792 B(  4-C , 20-C ) :   1.0887
B(  6-C ,  7-H ) :   0.9370 B(  6-C ,  8-H ) :   0.9356 B(  6-C ,  9-C ) :   1.0856
B(  9-C , 10-H ) :   0.9431 B(  9-C , 11-H ) :   0.9557 B(  9-C , 12-C ) :   1.0635
B( 12-C , 13-H ) :   0.9718 B( 12-C , 14-H ) :   0.9730 B( 12-C , 15-H ) :   0.9752
B( 16-S , 17-C ) :   1.1711 B( 16-S , 20-C ) :   1.1196 B( 17-C , 18-C ) :   1.6088
B( 17-C , 33-H ) :   0.9642 B( 18-C , 19-C ) :   1.2442 B( 18-C , 21-H ) :   0.9825
B( 19-C , 20-C ) :   1.6346 B( 19-C , 22-C ) :   1.0139 B( 22-C , 23-H ) :   0.9263
B( 22-C , 24-H ) :   0.9244 B( 22-C , 25-C ) :   1.0832 B( 25-C , 26-H ) :   0.9387
B( 25-C , 27-H ) :   0.9527 B( 25-C , 28-C ) :   1.0806 B( 28-C , 29-H ) :   0.9737
B( 28-C , 30-H ) :   0.9745 B( 28-C , 31-H ) :   0.9729

Dispersion correction           -0.014180489
FINAL SINGLE POINT ENERGY     -1339.868338720226

DIPOLE MOMENT
-------------
                                X             Y             Z
Electronic contribution:     -2.85488      31.42624      -6.58400
Nuclear contribution   :      2.80976     -32.16789       6.84165
                        -----------------------------------------
Total Dipole Moment    :     -0.04512      -0.74165       0.25765
                        -----------------------------------------
Magnitude (a.u.)       :      0.78642
Magnitude (Debye)      :      1.99893

Rotational constants in cm-1:     0.015771     0.010619     0.006574
Rotational constants in MHz :   472.798172   318.336228   197.097517

                             ****ORCA TERMINATED NORMALLY****
TOTAL RUN TIME: 0 days 0 hours 0 minutes 22 seconds 257 msec
