                         Program Version 4.2.1 -  RELEASE  -
|  1> ! wB97X-D3 SP def2-SVP
|  2> %pal
|  3> nprocs 24
|  4> end
|  5>
|  6> * xyz 0 1
|  7> S 	 -46.2225 	 -0.0263081 	 15.6831
|  8> C 	 -45.4025 	 -0.601118 	 17.0586
|  9> C 	 -44.5716 	 -1.63277 	 16.771
| 10> C 	 -44.7777 	 -2.11235 	 15.4316
| 11> C 	 -45.6076 	 -1.326 	 14.6677
| 12> H 	 -44.316 	 -3.00331 	 14.9717
| 13> C 	 -43.7664 	 -2.47841 	 17.743
| 14> H 	 -43.233 	 -3.27387 	 17.3209
| 15> H 	 -44.5742 	 -3.00091 	 18.2339
| 16> C 	 -42.8232 	 -1.6674 	 18.59
| 17> H 	 -42.0417 	 -1.31551 	 17.9515
| 18> H 	 -43.4587 	 -0.897707 	 19.0749
| 19> C 	 -42.313 	 -2.57986 	 19.7202
| 20> H 	 -43.1096 	 -2.96922 	 20.1946
| 21> H 	 -41.7108 	 -3.3739 	 19.2884
| 22> H 	 -41.7412 	 -2.09086 	 20.5355
| 23> S 	 -44.8379 	 -1.36564 	 12.11
| 24> C 	 -45.88 	 -1.6069 	 10.8041
| 25> C 	 -47.1516 	 -1.82208 	 11.2711
| 26> C 	 -47.3125 	 -1.69175 	 12.6958
| 27> C 	 -46.065 	 -1.50744 	 13.3142
| 28> H 	 -47.9545 	 -1.86928 	 10.5563
| 29> C 	 -48.6431 	 -1.94176 	 13.2565
| 30> H 	 -48.4269 	 -1.92053 	 14.3317
| 31> H 	 -48.9977 	 -2.9079 	 13.1446
| 32> C 	 -49.8404 	 -1.06113 	 12.7757
| 33> H 	 -49.9762 	 -1.1859 	 11.6534
| 34> H 	 -49.4786 	 0.0096312 	 12.9929
| 35> C 	 -51.1789 	 -1.35228 	 13.5058
| 36> H 	 -51.988 	 -0.795413 	 13.1203
| 37> H 	 -51.1111 	 -1.1614 	 14.5792
| 38> H 	 -51.4362 	 -2.37748 	 13.5081
| 39> H 	 -45.4252 	 -0.0862805 	 18.0376
| 40> H 	 -45.6691 	 -1.53427 	 9.796
| 41> *
| 42>
| 43>                          ****END OF INPUT****

CARTESIAN COORDINATES (ANGSTROEM)
---------------------------------
  S    -46.222500   -0.026308   15.683100
  C    -45.402500   -0.601118   17.058600
  C    -44.571600   -1.632770   16.771000
  C    -44.777700   -2.112350   15.431600
  C    -45.607600   -1.326000   14.667700
  H    -44.316000   -3.003310   14.971700
  C    -43.766400   -2.478410   17.743000
  H    -43.233000   -3.273870   17.320900
  H    -44.574200   -3.000910   18.233900
  C    -42.823200   -1.667400   18.590000
  H    -42.041700   -1.315510   17.951500
  H    -43.458700   -0.897707   19.074900
  C    -42.313000   -2.579860   19.720200
  H    -43.109600   -2.969220   20.194600
  H    -41.710800   -3.373900   19.288400
  H    -41.741200   -2.090860   20.535500
  S    -44.837900   -1.365640   12.110000
  C    -45.880000   -1.606900   10.804100
  C    -47.151600   -1.822080   11.271100
  C    -47.312500   -1.691750   12.695800
  C    -46.065000   -1.507440   13.314200
  H    -47.954500   -1.869280   10.556300
  C    -48.643100   -1.941760   13.256500
  H    -48.426900   -1.920530   14.331700
  H    -48.997700   -2.907900   13.144600
  C    -49.840400   -1.061130   12.775700
  H    -49.976200   -1.185900   11.653400
  H    -49.478600    0.009631   12.992900
  C    -51.178900   -1.352280   13.505800
  H    -51.988000   -0.795413   13.120300
  H    -51.111100   -1.161400   14.579200
  H    -51.436200   -2.377480   13.508100
  H    -45.425200   -0.086280   18.037600
  H    -45.669100   -1.534270    9.796000

 Total Charge           Charge          ....    0
 Multiplicity           Mult            ....    1
 Number of Electrons    NEL             ....  134
 Basis Dimension        Dim             ....  322

ORBITAL ENERGIES
----------------

  NO   OCC          E(Eh)            E(eV)
   0   2.0000     -88.963050     -2420.8077
   1   2.0000     -88.962158     -2420.7834
   2   2.0000     -10.326113      -280.9878
   3   2.0000     -10.325740      -280.9777
   4   2.0000     -10.310076      -280.5514
   5   2.0000     -10.305632      -280.4305
   6   2.0000     -10.302360      -280.3415
   7   2.0000     -10.300068      -280.2791
   8   2.0000     -10.296588      -280.1844
   9   2.0000     -10.293625      -280.1038
  10   2.0000     -10.285644      -279.8866
  11   2.0000     -10.285572      -279.8846
  12   2.0000     -10.282338      -279.7966
  13   2.0000     -10.280381      -279.7434
  14   2.0000     -10.273084      -279.5448
  15   2.0000     -10.270207      -279.4665
  16   2.0000      -8.078503      -219.8273
  17   2.0000      -8.078490      -219.8269
  18   2.0000      -6.036986      -164.2747
  19   2.0000      -6.036912      -164.2727
  20   2.0000      -6.032838      -164.1619
  21   2.0000      -6.032470      -164.1518
  22   2.0000      -6.029537      -164.0720
  23   2.0000      -6.029312      -164.0659
  24   2.0000      -1.013631       -27.5823
  25   2.0000      -0.992920       -27.0187
  26   2.0000      -0.920559       -25.0497
  27   2.0000      -0.908667       -24.7261
  28   2.0000      -0.876036       -23.8382
  29   2.0000      -0.851823       -23.1793
  30   2.0000      -0.848860       -23.0987
  31   2.0000      -0.815320       -22.1860
  32   2.0000      -0.785323       -21.3697
  33   2.0000      -0.773697       -21.0534
  34   2.0000      -0.710838       -19.3429
  35   2.0000      -0.704828       -19.1793
  36   2.0000      -0.698280       -19.0012
  37   2.0000      -0.660240       -17.9660
  38   2.0000      -0.641851       -17.4656
  39   2.0000      -0.614066       -16.7096
  40   2.0000      -0.601411       -16.3652
  41   2.0000      -0.587657       -15.9910
  42   2.0000      -0.566241       -15.4082
  43   2.0000      -0.558825       -15.2064
  44   2.0000      -0.530817       -14.4443
  45   2.0000      -0.522774       -14.2254
  46   2.0000      -0.518832       -14.1181
  47   2.0000      -0.513118       -13.9627
  48   2.0000      -0.510800       -13.8996
  49   2.0000      -0.502994       -13.6872
  50   2.0000      -0.498972       -13.5777
  51   2.0000      -0.481817       -13.1109
  52   2.0000      -0.474774       -12.9193
  53   2.0000      -0.468392       -12.7456
  54   2.0000      -0.462718       -12.5912
  55   2.0000      -0.445858       -12.1324
  56   2.0000      -0.443972       -12.0811
  57   2.0000      -0.438117       -11.9218
  58   2.0000      -0.429059       -11.6753
  59   2.0000      -0.424598       -11.5539
  60   2.0000      -0.421557       -11.4712
  61   2.0000      -0.413067       -11.2401
  62   2.0000      -0.409350       -11.1390
  63   2.0000      -0.344251        -9.3675
  64   2.0000      -0.329546        -8.9674
  65   2.0000      -0.323373        -8.7994
  66   2.0000      -0.300076        -8.1655
  67   0.0000       0.039416         1.0726
  68   0.0000       0.071368         1.9420
  69   0.0000       0.112063         3.0494
  70   0.0000       0.125714         3.4208
  71   0.0000       0.135144         3.6775

MULLIKEN ATOMIC CHARGES
-----------------------
   0 S :    0.123724
   1 C :   -0.146457
   2 C :   -0.066888
   3 C :    0.018234
   4 C :   -0.164627
   5 H :    0.020737
   6 C :    0.058029
   7 H :   -0.003321
   8 H :    0.035678
   9 C :   -0.067501
  10 H :    0.039675
  11 H :    0.028572
  12 C :   -0.003346
  13 H :   -0.003493
  14 H :    0.025799
  15 H :    0.034284
  16 S :    0.122814
  17 C :   -0.052060
  18 C :   -0.047775
  19 C :    0.001206
  20 C :   -0.177561
  21 H :    0.011941
  22 C :    0.075758
  23 H :    0.011172
  24 H :    0.010575
  25 C :   -0.135003
  26 H :    0.045313
  27 H :    0.045640
  28 C :   -0.003111
  29 H :    0.032164
  30 H :    0.026407
  31 H :    0.013948
  32 H :    0.062039
  33 H :    0.027433
Sum of atomic charges:    0.0000000

LOEWDIN ATOMIC CHARGES
----------------------
   0 S :    0.421631
   1 C :   -0.215596
   2 C :   -0.066643
   3 C :   -0.062136
   4 C :   -0.202982
   5 H :    0.035556
   6 C :   -0.029840
   7 H :    0.019077
   8 H :    0.035858
   9 C :   -0.029938
  10 H :    0.026276
  11 H :    0.025674
  12 C :   -0.057028
  13 H :    0.007837
  14 H :    0.024511
  15 H :    0.028804
  16 S :    0.451930
  17 C :   -0.194429
  18 C :   -0.070170
  19 C :   -0.053440
  20 C :   -0.213330
  21 H :    0.025020
  22 C :   -0.041499
  23 H :    0.030155
  24 H :    0.022514
  25 C :   -0.039961
  26 H :    0.027660
  27 H :    0.032334
  28 C :   -0.062445
  29 H :    0.023312
  30 H :    0.029689
  31 H :    0.019392
  32 H :    0.034128
  33 H :    0.018081

  Mayer bond orders larger than 0.100000
B(  0-S ,  1-C ) :   1.1529 B(  0-S ,  4-C ) :   1.1385 B(  1-C ,  2-C ) :   1.6139
B(  1-C , 32-H ) :   0.9593 B(  2-C ,  3-C ) :   1.2349 B(  2-C ,  6-C ) :   1.0019
B(  3-C ,  4-C ) :   1.5944 B(  3-C ,  5-H ) :   0.9910 B(  4-C , 20-C ) :   1.0221
B(  6-C ,  7-H ) :   0.9446 B(  6-C ,  8-H ) :   0.9433 B(  6-C ,  9-C ) :   1.0540
B(  9-C , 10-H ) :   0.9609 B(  9-C , 11-H ) :   0.9575 B(  9-C , 12-C ) :   1.0834
B( 12-C , 13-H ) :   0.9722 B( 12-C , 14-H ) :   0.9722 B( 12-C , 15-H ) :   0.9734
B( 16-S , 17-C ) :   1.1726 B( 16-S , 20-C ) :   1.1725 B( 17-C , 18-C ) :   1.5922
B( 17-C , 33-H ) :   0.9773 B( 18-C , 19-C ) :   1.2484 B( 18-C , 21-H ) :   0.9875
B( 19-C , 20-C ) :   1.5419 B( 19-C , 22-C ) :   1.0700 B( 22-C , 23-H ) :   0.9259
B( 22-C , 24-H ) :   0.9327 B( 22-C , 25-C ) :   1.0375 B( 25-C , 26-H ) :   0.9548
B( 25-C , 27-H ) :   0.9583 B( 25-C , 28-C ) :   1.0810 B( 28-C , 29-H ) :   0.9749
B( 28-C , 30-H ) :   0.9728 B( 28-C , 31-H ) :   0.9714

Dispersion correction           -0.013393620
FINAL SINGLE POINT ENERGY     -1339.864639029694

DIPOLE MOMENT
-------------
                                X             Y             Z
Electronic contribution:      6.58571       7.11218     -14.64109
Nuclear contribution   :     -6.76251      -7.46811      14.83947
                        -----------------------------------------
Total Dipole Moment    :     -0.17680      -0.35592       0.19838
                        -----------------------------------------
Magnitude (a.u.)       :      0.44418
Magnitude (Debye)      :      1.12902

Rotational constants in cm-1:     0.022952     0.006849     0.005723
Rotational constants in MHz :   688.074564   205.342029   171.572776

                             ****ORCA TERMINATED NORMALLY****
TOTAL RUN TIME: 0 days 0 hours 0 minutes 20 seconds 741 msec
