                         Program Version 4.2.1 -  RELEASE  -
|  1> ! wB97X-D3 SP def2-SVP
|  2> %pal
|  3> nprocs 24
|  4> end
|  5>
|  6> * xyz 0 1
|  7> S 	 -62.6325 	 13.9948 	 -90.9778
|  8> C 	 -63.2243 	 15.5635 	 -91.4548
|  9> C 	 -62.7395 	 16.5583 	 -90.6015
| 10> C 	 -62.0096 	 16.016 	 -89.5358
| 11> C 	 -61.7165 	 14.6973 	 -89.7068
| 12> H 	 -61.5477 	 16.5242 	 -88.7443
| 13> C 	 -63.1784 	 17.9915 	 -90.5574
| 14> H 	 -62.9176 	 18.378 	 -89.6083
| 15> H 	 -64.2668 	 17.9752 	 -90.5044
| 16> C 	 -62.5898 	 18.8941 	 -91.6864
| 17> H 	 -62.1432 	 18.2693 	 -92.496
| 18> H 	 -63.4082 	 19.4323 	 -92.1682
| 19> C 	 -61.5446 	 19.907 	 -91.1894
| 20> H 	 -60.9297 	 20.2686 	 -92.0456
| 21> H 	 -61.8967 	 20.6787 	 -90.4685
| 22> H 	 -60.9099 	 19.2116 	 -90.5584
| 23> S 	 -61.8397 	 12.6467 	 -87.9431
| 24> C 	 -60.273 	 12.1087 	 -87.3155
| 25> C 	 -59.2317 	 12.9381 	 -87.598
| 26> C 	 -59.5831 	 14.0146 	 -88.4435
| 27> C 	 -60.963 	 13.9526 	 -88.7463
| 28> H 	 -58.2772 	 12.7057 	 -87.1864
| 29> C 	 -58.5032 	 14.8668 	 -89.0677
| 30> H 	 -58.6353 	 14.7493 	 -90.106
| 31> H 	 -57.5719 	 14.2813 	 -88.9622
| 32> C 	 -58.2157 	 16.2716 	 -88.4389
| 33> H 	 -58.3725 	 16.2309 	 -87.3275
| 34> H 	 -58.9596 	 16.9825 	 -88.8064
| 35> C 	 -56.8405 	 16.6948 	 -88.8441
| 36> H 	 -56.6629 	 16.4716 	 -89.9059
| 37> H 	 -56.0485 	 15.9986 	 -88.4476
| 38> H 	 -56.5757 	 17.7401 	 -88.6362
| 39> H 	 -64.0716 	 15.7722 	 -92.0902
| 40> H 	 -60.1354 	 11.2871 	 -86.6656
| 41> *
| 42>
| 43>                          ****END OF INPUT****

CARTESIAN COORDINATES (ANGSTROEM)
---------------------------------
  S    -62.632500   13.994800  -90.977800
  C    -63.224300   15.563500  -91.454800
  C    -62.739500   16.558300  -90.601500
  C    -62.009600   16.016000  -89.535800
  C    -61.716500   14.697300  -89.706800
  H    -61.547700   16.524200  -88.744300
  C    -63.178400   17.991500  -90.557400
  H    -62.917600   18.378000  -89.608300
  H    -64.266800   17.975200  -90.504400
  C    -62.589800   18.894100  -91.686400
  H    -62.143200   18.269300  -92.496000
  H    -63.408200   19.432300  -92.168200
  C    -61.544600   19.907000  -91.189400
  H    -60.929700   20.268600  -92.045600
  H    -61.896700   20.678700  -90.468500
  H    -60.909900   19.211600  -90.558400
  S    -61.839700   12.646700  -87.943100
  C    -60.273000   12.108700  -87.315500
  C    -59.231700   12.938100  -87.598000
  C    -59.583100   14.014600  -88.443500
  C    -60.963000   13.952600  -88.746300
  H    -58.277200   12.705700  -87.186400
  C    -58.503200   14.866800  -89.067700
  H    -58.635300   14.749300  -90.106000
  H    -57.571900   14.281300  -88.962200
  C    -58.215700   16.271600  -88.438900
  H    -58.372500   16.230900  -87.327500
  H    -58.959600   16.982500  -88.806400
  C    -56.840500   16.694800  -88.844100
  H    -56.662900   16.471600  -89.905900
  H    -56.048500   15.998600  -88.447600
  H    -56.575700   17.740100  -88.636200
  H    -64.071600   15.772200  -92.090200
  H    -60.135400   11.287100  -86.665600

 Total Charge           Charge          ....    0
 Multiplicity           Mult            ....    1
 Number of Electrons    NEL             ....  134
 Basis Dimension        Dim             ....  322

ORBITAL ENERGIES
----------------

  NO   OCC          E(Eh)            E(eV)
   0   2.0000     -88.967906     -2420.9398
   1   2.0000     -88.967619     -2420.9320
   2   2.0000     -10.323690      -280.9219
   3   2.0000     -10.315877      -280.7093
   4   2.0000     -10.310061      -280.5510
   5   2.0000     -10.309746      -280.5425
   6   2.0000     -10.302856      -280.3550
   7   2.0000     -10.294831      -280.1366
   8   2.0000     -10.293383      -280.0972
   9   2.0000     -10.290448      -280.0173
  10   2.0000     -10.288683      -279.9693
  11   2.0000     -10.287615      -279.9402
  12   2.0000     -10.286381      -279.9067
  13   2.0000     -10.286344      -279.9056
  14   2.0000     -10.282048      -279.7888
  15   2.0000     -10.280032      -279.7339
  16   2.0000      -8.082984      -219.9492
  17   2.0000      -8.081759      -219.9158
  18   2.0000      -6.041356      -164.3937
  19   2.0000      -6.040126      -164.3602
  20   2.0000      -6.037399      -164.2860
  21   2.0000      -6.036559      -164.2631
  22   2.0000      -6.033916      -164.1912
  23   2.0000      -6.032510      -164.1529
  24   2.0000      -1.011223       -27.5168
  25   2.0000      -0.983771       -26.7698
  26   2.0000      -0.911634       -24.8068
  27   2.0000      -0.908927       -24.7332
  28   2.0000      -0.870170       -23.6785
  29   2.0000      -0.856037       -23.2939
  30   2.0000      -0.850981       -23.1564
  31   2.0000      -0.813728       -22.1427
  32   2.0000      -0.780669       -21.2431
  33   2.0000      -0.766255       -20.8509
  34   2.0000      -0.709879       -19.3168
  35   2.0000      -0.701477       -19.0882
  36   2.0000      -0.694019       -18.8852
  37   2.0000      -0.661681       -18.0053
  38   2.0000      -0.644528       -17.5385
  39   2.0000      -0.614589       -16.7238
  40   2.0000      -0.595511       -16.2047
  41   2.0000      -0.568472       -15.4689
  42   2.0000      -0.560382       -15.2488
  43   2.0000      -0.554294       -15.0831
  44   2.0000      -0.535170       -14.5627
  45   2.0000      -0.526148       -14.3172
  46   2.0000      -0.519764       -14.1435
  47   2.0000      -0.511801       -13.9268
  48   2.0000      -0.507517       -13.8103
  49   2.0000      -0.495739       -13.4898
  50   2.0000      -0.486917       -13.2497
  51   2.0000      -0.476043       -12.9538
  52   2.0000      -0.470750       -12.8097
  53   2.0000      -0.461059       -12.5461
  54   2.0000      -0.458566       -12.4782
  55   2.0000      -0.449385       -12.2284
  56   2.0000      -0.448275       -12.1982
  57   2.0000      -0.438750       -11.9390
  58   2.0000      -0.432453       -11.7677
  59   2.0000      -0.429522       -11.6879
  60   2.0000      -0.426327       -11.6009
  61   2.0000      -0.412162       -11.2155
  62   2.0000      -0.406419       -11.0592
  63   2.0000      -0.342325        -9.3151
  64   2.0000      -0.332098        -9.0368
  65   2.0000      -0.326923        -8.8960
  66   2.0000      -0.292526        -7.9600
  67   0.0000       0.029457         0.8016
  68   0.0000       0.065757         1.7893
  69   0.0000       0.108791         2.9603
  70   0.0000       0.123560         3.3622
  71   0.0000       0.128667         3.5012

MULLIKEN ATOMIC CHARGES
-----------------------
   0 S :    0.128614
   1 C :   -0.115314
   2 C :   -0.091233
   3 C :    0.034525
   4 C :   -0.152841
   5 H :   -0.005869
   6 C :    0.072745
   7 H :    0.000123
   8 H :    0.033986
   9 C :   -0.064747
  10 H :    0.042800
  11 H :    0.025196
  12 C :   -0.088565
  13 H :    0.051839
  14 H :    0.049965
  15 H :    0.026991
  16 S :    0.112765
  17 C :   -0.070182
  18 C :   -0.030537
  19 C :   -0.015218
  20 C :   -0.199942
  21 H :    0.006708
  22 C :    0.057009
  23 H :    0.029866
  24 H :    0.005240
  25 C :   -0.045859
  26 H :    0.042447
  27 H :    0.038175
  28 C :   -0.060065
  29 H :    0.026941
  30 H :    0.029367
  31 H :    0.044765
  32 H :    0.047038
  33 H :    0.033268
Sum of atomic charges:    0.0000000

LOEWDIN ATOMIC CHARGES
----------------------
   0 S :    0.429230
   1 C :   -0.209321
   2 C :   -0.060558
   3 C :   -0.057608
   4 C :   -0.213322
   5 H :    0.022380
   6 C :   -0.030377
   7 H :    0.021698
   8 H :    0.035525
   9 C :   -0.044499
  10 H :    0.030728
  11 H :    0.019616
  12 C :   -0.075277
  13 H :    0.033039
  14 H :    0.028613
  15 H :    0.027434
  16 S :    0.390453
  17 C :   -0.170466
  18 C :   -0.066526
  19 C :   -0.050846
  20 C :   -0.191906
  21 H :    0.028781
  22 C :   -0.031617
  23 H :    0.031310
  24 H :    0.032068
  25 C :   -0.040715
  26 H :    0.031564
  27 H :    0.024216
  28 C :   -0.075353
  29 H :    0.028511
  30 H :    0.029600
  31 H :    0.027532
  32 H :    0.028120
  33 H :    0.017974

  Mayer bond orders larger than 0.100000
B(  0-S ,  1-C ) :   1.1457 B(  0-S ,  4-C ) :   1.1624 B(  1-C ,  2-C ) :   1.5750
B(  1-C , 32-H ) :   0.9668 B(  2-C ,  3-C ) :   1.2730 B(  2-C ,  6-C ) :   1.0275
B(  3-C ,  4-C ) :   1.5529 B(  3-C ,  5-H ) :   0.9975 B(  4-C , 20-C ) :   1.0530
B(  6-C ,  7-H ) :   0.9510 B(  6-C ,  8-H ) :   0.9393 B(  6-C ,  9-C ) :   1.0285
B(  9-C , 10-H ) :   0.9667 B(  9-C , 11-H ) :   0.9552 B(  9-C , 12-C ) :   1.0747
B( 12-C , 13-H ) :   0.9736 B( 12-C , 14-H ) :   0.9756 B( 12-C , 15-H ) :   0.9770
B( 16-S , 17-C ) :   1.1305 B( 16-S , 20-C ) :   1.1487 B( 17-C , 18-C ) :   1.6499
B( 17-C , 33-H ) :   0.9667 B( 18-C , 19-C ) :   1.2313 B( 18-C , 21-H ) :   0.9896
B( 19-C , 20-C ) :   1.5868 B( 19-C , 22-C ) :   1.0319 B( 22-C , 23-H ) :   0.9222
B( 22-C , 24-H ) :   0.9454 B( 22-C , 25-C ) :   1.0348 B( 25-C , 26-H ) :   0.9593
B( 25-C , 27-H ) :   0.9480 B( 25-C , 28-C ) :   1.0845 B( 28-C , 29-H ) :   0.9682
B( 28-C , 30-H ) :   0.9707 B( 28-C , 31-H ) :   0.9726

Dispersion correction           -0.014193389
FINAL SINGLE POINT ENERGY     -1339.863424929292

DIPOLE MOMENT
-------------
                                X             Y             Z
Electronic contribution:    -15.13985     -27.14597       3.37439
Nuclear contribution   :     15.43300      27.56517      -3.26722
                        -----------------------------------------
Total Dipole Moment    :      0.29315       0.41920       0.10717
                        -----------------------------------------
Magnitude (a.u.)       :      0.52264
Magnitude (Debye)      :      1.32844

Rotational constants in cm-1:     0.016708     0.009783     0.006716
Rotational constants in MHz :   500.885122   293.299370   201.331846

                             ****ORCA TERMINATED NORMALLY****
TOTAL RUN TIME: 0 days 0 hours 0 minutes 20 seconds 492 msec
