                         Program Version 4.2.1 -  RELEASE  -
|  1> ! wB97X-D3 SP def2-SVP
|  2> %pal
|  3> nprocs 24
|  4> end
|  5>
|  6> * xyz 0 1
|  7> S 	 -53.1245 	 12.7807 	 -105.317
|  8> C 	 -54.2046 	 13.1334 	 -106.614
|  9> C 	 -55.1621 	 14.1377 	 -106.327
| 10> C 	 -54.8855 	 14.6158 	 -105.015
| 11> C 	 -53.7811 	 14.1335 	 -104.363
| 12> H 	 -55.3835 	 15.3654 	 -104.487
| 13> C 	 -56.3361 	 14.7269 	 -107.155
| 14> H 	 -56.0741 	 14.8044 	 -108.192
| 15> H 	 -56.5261 	 15.7012 	 -106.873
| 16> C 	 -57.6409 	 13.8234 	 -107
| 17> H 	 -57.4859 	 12.9383 	 -107.607
| 18> H 	 -57.8805 	 13.4899 	 -105.997
| 19> C 	 -58.8866 	 14.6554 	 -107.553
| 20> H 	 -58.8065 	 15.6611 	 -107.137
| 21> H 	 -58.66 	 14.6744 	 -108.596
| 22> H 	 -59.8662 	 14.1812 	 -107.334
| 23> S 	 -53.5525 	 13.6783 	 -101.567
| 24> C 	 -52.3493 	 14.6589 	 -100.749
| 25> C 	 -51.6316 	 15.4523 	 -101.578
| 26> C 	 -52.1673 	 15.4196 	 -102.914
| 27> C 	 -53.232 	 14.5285 	 -103.12
| 28> H 	 -50.8389 	 16.0344 	 -101.116
| 29> C 	 -51.8555 	 16.4751 	 -103.922
| 30> H 	 -52.2367 	 16.2449 	 -104.922
| 31> H 	 -50.745 	 16.4638 	 -104.065
| 32> C 	 -52.3663 	 17.8403 	 -103.58
| 33> H 	 -52.0095 	 18.6256 	 -104.226
| 34> H 	 -52.213 	 18.0112 	 -102.504
| 35> C 	 -53.8533 	 17.9081 	 -103.781
| 36> H 	 -54.3175 	 18.8793 	 -103.528
| 37> H 	 -54.3715 	 17.1627 	 -103.035
| 38> H 	 -54.2204 	 17.6135 	 -104.784
| 39> H 	 -54.1453 	 12.5696 	 -107.534
| 40> H 	 -52.1859 	 14.5565 	 -99.7389
| 41> *
| 42>
| 43>                          ****END OF INPUT****

CARTESIAN COORDINATES (ANGSTROEM)
---------------------------------
  S    -53.124500   12.780700  -105.317000
  C    -54.204600   13.133400  -106.614000
  C    -55.162100   14.137700  -106.327000
  C    -54.885500   14.615800  -105.015000
  C    -53.781100   14.133500  -104.363000
  H    -55.383500   15.365400  -104.487000
  C    -56.336100   14.726900  -107.155000
  H    -56.074100   14.804400  -108.192000
  H    -56.526100   15.701200  -106.873000
  C    -57.640900   13.823400  -107.000000
  H    -57.485900   12.938300  -107.607000
  H    -57.880500   13.489900  -105.997000
  C    -58.886600   14.655400  -107.553000
  H    -58.806500   15.661100  -107.137000
  H    -58.660000   14.674400  -108.596000
  H    -59.866200   14.181200  -107.334000
  S    -53.552500   13.678300  -101.567000
  C    -52.349300   14.658900  -100.749000
  C    -51.631600   15.452300  -101.578000
  C    -52.167300   15.419600  -102.914000
  C    -53.232000   14.528500  -103.120000
  H    -50.838900   16.034400  -101.116000
  C    -51.855500   16.475100  -103.922000
  H    -52.236700   16.244900  -104.922000
  H    -50.745000   16.463800  -104.065000
  C    -52.366300   17.840300  -103.580000
  H    -52.009500   18.625600  -104.226000
  H    -52.213000   18.011200  -102.504000
  C    -53.853300   17.908100  -103.781000
  H    -54.317500   18.879300  -103.528000
  H    -54.371500   17.162700  -103.035000
  H    -54.220400   17.613500  -104.784000
  H    -54.145300   12.569600  -107.534000
  H    -52.185900   14.556500  -99.738900

 Total Charge           Charge          ....    0
 Multiplicity           Mult            ....    1
 Number of Electrons    NEL             ....  134
 Basis Dimension        Dim             ....  322

ORBITAL ENERGIES
----------------

  NO   OCC          E(Eh)            E(eV)
   0   2.0000     -88.964065     -2420.8353
   1   2.0000     -88.962291     -2420.7870
   2   2.0000     -10.324626      -280.9474
   3   2.0000     -10.321363      -280.8586
   4   2.0000     -10.317687      -280.7585
   5   2.0000     -10.313228      -280.6372
   6   2.0000     -10.307322      -280.4765
   7   2.0000     -10.306101      -280.4433
   8   2.0000     -10.296069      -280.1703
   9   2.0000     -10.295136      -280.1449
  10   2.0000     -10.291283      -280.0400
  11   2.0000     -10.286785      -279.9176
  12   2.0000     -10.285005      -279.8692
  13   2.0000     -10.281371      -279.7703
  14   2.0000     -10.280667      -279.7512
  15   2.0000     -10.279430      -279.7175
  16   2.0000      -8.078875      -219.8374
  17   2.0000      -8.076553      -219.7742
  18   2.0000      -6.037266      -164.2823
  19   2.0000      -6.035029      -164.2215
  20   2.0000      -6.033346      -164.1757
  21   2.0000      -6.031151      -164.1160
  22   2.0000      -6.029774      -164.0785
  23   2.0000      -6.027353      -164.0126
  24   2.0000      -1.003500       -27.3066
  25   2.0000      -0.981300       -26.7025
  26   2.0000      -0.916444       -24.9377
  27   2.0000      -0.903150       -24.5760
  28   2.0000      -0.873132       -23.7591
  29   2.0000      -0.846877       -23.0447
  30   2.0000      -0.844539       -22.9811
  31   2.0000      -0.814784       -22.1714
  32   2.0000      -0.780389       -21.2355
  33   2.0000      -0.766073       -20.8459
  34   2.0000      -0.704969       -19.1832
  35   2.0000      -0.703450       -19.1419
  36   2.0000      -0.692098       -18.8329
  37   2.0000      -0.655909       -17.8482
  38   2.0000      -0.649468       -17.6729
  39   2.0000      -0.619554       -16.8589
  40   2.0000      -0.604242       -16.4423
  41   2.0000      -0.569505       -15.4970
  42   2.0000      -0.563074       -15.3220
  43   2.0000      -0.557507       -15.1705
  44   2.0000      -0.541676       -14.7398
  45   2.0000      -0.524389       -14.2694
  46   2.0000      -0.520261       -14.1570
  47   2.0000      -0.511883       -13.9291
  48   2.0000      -0.500720       -13.6253
  49   2.0000      -0.495611       -13.4863
  50   2.0000      -0.485239       -13.2040
  51   2.0000      -0.473707       -12.8902
  52   2.0000      -0.468958       -12.7610
  53   2.0000      -0.466578       -12.6962
  54   2.0000      -0.457252       -12.4425
  55   2.0000      -0.443799       -12.0764
  56   2.0000      -0.439534       -11.9603
  57   2.0000      -0.437290       -11.8993
  58   2.0000      -0.433178       -11.7874
  59   2.0000      -0.431359       -11.7379
  60   2.0000      -0.421819       -11.4783
  61   2.0000      -0.416093       -11.3225
  62   2.0000      -0.404103       -10.9962
  63   2.0000      -0.336450        -9.1553
  64   2.0000      -0.330132        -8.9834
  65   2.0000      -0.315699        -8.5906
  66   2.0000      -0.307569        -8.3694
  67   0.0000       0.042556         1.1580
  68   0.0000       0.046634         1.2690
  69   0.0000       0.116764         3.1773
  70   0.0000       0.119720         3.2577
  71   0.0000       0.127116         3.4590

MULLIKEN ATOMIC CHARGES
-----------------------
   0 S :    0.126547
   1 C :   -0.138208
   2 C :   -0.062289
   3 C :    0.058133
   4 C :   -0.187506
   5 H :   -0.021643
   6 C :    0.105203
   7 H :    0.022611
   8 H :    0.001090
   9 C :   -0.092846
  10 H :    0.032062
  11 H :    0.038059
  12 C :   -0.058692
  13 H :    0.036132
  14 H :    0.028266
  15 H :    0.051702
  16 S :    0.095964
  17 C :   -0.069495
  18 C :   -0.018893
  19 C :   -0.033965
  20 C :   -0.169554
  21 H :    0.028189
  22 C :    0.055969
  23 H :    0.026939
  24 H :    0.029581
  25 C :   -0.008660
  26 H :    0.032359
  27 H :    0.028987
  28 C :   -0.127973
  29 H :    0.034703
  30 H :    0.047683
  31 H :    0.032048
  32 H :    0.048016
  33 H :    0.029481
Sum of atomic charges:    0.0000000

LOEWDIN ATOMIC CHARGES
----------------------
   0 S :    0.408012
   1 C :   -0.196778
   2 C :   -0.061386
   3 C :   -0.045602
   4 C :   -0.197090
   5 H :    0.019720
   6 C :   -0.015800
   7 H :    0.029978
   8 H :    0.016635
   9 C :   -0.029077
  10 H :    0.021093
  11 H :    0.020629
  12 C :   -0.066303
  13 H :    0.023810
  14 H :    0.021245
  15 H :    0.030435
  16 S :    0.375984
  17 C :   -0.155320
  18 C :   -0.073931
  19 C :   -0.039848
  20 C :   -0.200649
  21 H :    0.038815
  22 C :   -0.037328
  23 H :    0.031091
  24 H :    0.033776
  25 C :   -0.040930
  26 H :    0.026933
  27 H :    0.027926
  28 C :   -0.077289
  29 H :    0.024119
  30 H :    0.031764
  31 H :    0.019700
  32 H :    0.023484
  33 H :    0.012181

  Mayer bond orders larger than 0.100000
B(  0-S ,  1-C ) :   1.1787 B(  0-S ,  4-C ) :   1.1160 B(  1-C ,  2-C ) :   1.5730
B(  1-C ,  4-C ) :   0.1032 B(  1-C , 32-H ) :   0.9694 B(  2-C ,  3-C ) :   1.2426
B(  2-C ,  6-C ) :   1.0228 B(  3-C ,  4-C ) :   1.6038 B(  3-C ,  5-H ) :   0.9955
B(  4-C , 20-C ) :   1.0832 B(  6-C ,  7-H ) :   0.9407 B(  6-C ,  8-H ) :   0.9466
B(  6-C ,  9-C ) :   1.0420 B(  9-C , 10-H ) :   0.9628 B(  9-C , 11-H ) :   0.9681
B(  9-C , 12-C ) :   1.0598 B( 12-C , 13-H ) :   0.9806 B( 12-C , 14-H ) :   0.9788
B( 12-C , 15-H ) :   0.9770 B( 16-S , 17-C ) :   1.1609 B( 16-S , 20-C ) :   1.1055
B( 17-C , 18-C ) :   1.6286 B( 17-C , 33-H ) :   0.9732 B( 18-C , 19-C ) :   1.2044
B( 18-C , 21-H ) :   0.9943 B( 19-C , 20-C ) :   1.6000 B( 19-C , 22-C ) :   1.0637
B( 22-C , 23-H ) :   0.9311 B( 22-C , 24-H ) :   0.9255 B( 22-C , 25-C ) :   1.0716
B( 25-C , 26-H ) :   0.9501 B( 25-C , 27-H ) :   0.9513 B( 25-C , 28-C ) :   1.0782
B( 28-C , 29-H ) :   0.9694 B( 28-C , 30-H ) :   0.9693 B( 28-C , 31-H ) :   0.9698

Dispersion correction           -0.015439838
FINAL SINGLE POINT ENERGY     -1339.866983164703

DIPOLE MOMENT
-------------
                                X             Y             Z
Electronic contribution:     14.79710     -17.32009      13.16423
Nuclear contribution   :    -14.88791      17.80988     -13.37139
                        -----------------------------------------
Total Dipole Moment    :     -0.09081       0.48979      -0.20716
                        -----------------------------------------
Magnitude (a.u.)       :      0.53950
Magnitude (Debye)      :      1.37129

Rotational constants in cm-1:     0.021135     0.007956     0.007105
Rotational constants in MHz :   633.625002   238.517418   213.007034

                             ****ORCA TERMINATED NORMALLY****
TOTAL RUN TIME: 0 days 0 hours 0 minutes 21 seconds 127 msec
