                         Program Version 4.2.1 -  RELEASE  -
|  1> ! wB97X-D3 SP def2-SVP
|  2> %pal
|  3> nprocs 24
|  4> end
|  5>
|  6> * xyz 0 1
|  7> S 	 -36.4803 	 -7.76631 	 17.6411
|  8> C 	 -35.0777 	 -8.83444 	 17.5155
|  9> C 	 -35.3519 	 -9.91666 	 16.7028
| 10> C 	 -36.6241 	 -9.78378 	 16.0289
| 11> C 	 -37.3339 	 -8.69114 	 16.3861
| 12> H 	 -37.1332 	 -10.4307 	 15.3558
| 13> C 	 -34.3897 	 -11.1165 	 16.6759
| 14> H 	 -34.7139 	 -11.8231 	 17.3509
| 15> H 	 -33.3808 	 -10.8204 	 16.8846
| 16> C 	 -34.269 	 -11.7349 	 15.2684
| 17> H 	 -33.9612 	 -12.7472 	 15.4497
| 18> H 	 -35.2053 	 -11.9444 	 14.725
| 19> C 	 -33.4935 	 -10.8702 	 14.3145
| 20> H 	 -32.5449 	 -10.6545 	 14.8999
| 21> H 	 -33.4494 	 -11.3643 	 13.3538
| 22> H 	 -33.9252 	 -9.89694 	 14.1407
| 23> S 	 -39.7873 	 -8.34604 	 17.4355
| 24> C 	 -41.177 	 -8.27944 	 16.4267
| 25> C 	 -40.8674 	 -8.41005 	 15.1369
| 26> C 	 -39.4591 	 -8.51691 	 14.871
| 27> C 	 -38.7038 	 -8.44004 	 16.0464
| 28> H 	 -41.6054 	 -8.31998 	 14.3521
| 29> C 	 -38.8484 	 -8.54678 	 13.4382
| 30> H 	 -39.7115 	 -8.40116 	 12.7222
| 31> H 	 -38.5217 	 -9.53222 	 13.2246
| 32> C 	 -37.7441 	 -7.4857 	 13.2406
| 33> H 	 -37.02 	 -7.58753 	 14.0265
| 34> H 	 -38.2491 	 -6.54116 	 13.5297
| 35> C 	 -37.4056 	 -7.38439 	 11.7888
| 36> H 	 -38.2574 	 -7.51226 	 11.0965
| 37> H 	 -36.7219 	 -8.18652 	 11.4978
| 38> H 	 -36.8438 	 -6.43163 	 11.5446
| 39> H 	 -34.1809 	 -8.73458 	 18.167
| 40> H 	 -42.1529 	 -8.05269 	 16.7666
| 41> *
| 42>
| 43>                          ****END OF INPUT****

CARTESIAN COORDINATES (ANGSTROEM)
---------------------------------
  S    -36.480300   -7.766310   17.641100
  C    -35.077700   -8.834440   17.515500
  C    -35.351900   -9.916660   16.702800
  C    -36.624100   -9.783780   16.028900
  C    -37.333900   -8.691140   16.386100
  H    -37.133200  -10.430700   15.355800
  C    -34.389700  -11.116500   16.675900
  H    -34.713900  -11.823100   17.350900
  H    -33.380800  -10.820400   16.884600
  C    -34.269000  -11.734900   15.268400
  H    -33.961200  -12.747200   15.449700
  H    -35.205300  -11.944400   14.725000
  C    -33.493500  -10.870200   14.314500
  H    -32.544900  -10.654500   14.899900
  H    -33.449400  -11.364300   13.353800
  H    -33.925200   -9.896940   14.140700
  S    -39.787300   -8.346040   17.435500
  C    -41.177000   -8.279440   16.426700
  C    -40.867400   -8.410050   15.136900
  C    -39.459100   -8.516910   14.871000
  C    -38.703800   -8.440040   16.046400
  H    -41.605400   -8.319980   14.352100
  C    -38.848400   -8.546780   13.438200
  H    -39.711500   -8.401160   12.722200
  H    -38.521700   -9.532220   13.224600
  C    -37.744100   -7.485700   13.240600
  H    -37.020000   -7.587530   14.026500
  H    -38.249100   -6.541160   13.529700
  C    -37.405600   -7.384390   11.788800
  H    -38.257400   -7.512260   11.096500
  H    -36.721900   -8.186520   11.497800
  H    -36.843800   -6.431630   11.544600
  H    -34.180900   -8.734580   18.167000
  H    -42.152900   -8.052690   16.766600

 Total Charge           Charge          ....    0
 Multiplicity           Mult            ....    1
 Number of Electrons    NEL             ....  134
 Basis Dimension        Dim             ....  322

ORBITAL ENERGIES
----------------

  NO   OCC          E(Eh)            E(eV)
   0   2.0000     -88.964201     -2420.8390
   1   2.0000     -88.960975     -2420.7512
   2   2.0000     -10.327381      -281.0223
   3   2.0000     -10.325054      -280.9590
   4   2.0000     -10.318001      -280.7671
   5   2.0000     -10.307471      -280.4806
   6   2.0000     -10.306139      -280.4443
   7   2.0000     -10.306122      -280.4438
   8   2.0000     -10.294656      -280.1318
   9   2.0000     -10.293749      -280.1071
  10   2.0000     -10.288793      -279.9723
  11   2.0000     -10.288551      -279.9657
  12   2.0000     -10.281395      -279.7710
  13   2.0000     -10.281153      -279.7644
  14   2.0000     -10.281020      -279.7608
  15   2.0000     -10.278153      -279.6828
  16   2.0000      -8.078430      -219.8253
  17   2.0000      -8.076459      -219.7716
  18   2.0000      -6.037020      -164.2757
  19   2.0000      -6.035007      -164.2209
  20   2.0000      -6.033071      -164.1682
  21   2.0000      -6.030826      -164.1071
  22   2.0000      -6.029058      -164.0590
  23   2.0000      -6.027157      -164.0073
  24   2.0000      -1.009482       -27.4694
  25   2.0000      -0.984422       -26.7875
  26   2.0000      -0.916914       -24.9505
  27   2.0000      -0.908985       -24.7348
  28   2.0000      -0.876497       -23.8507
  29   2.0000      -0.849879       -23.1264
  30   2.0000      -0.841870       -22.9084
  31   2.0000      -0.820724       -22.3330
  32   2.0000      -0.783412       -21.3177
  33   2.0000      -0.770003       -20.9529
  34   2.0000      -0.713740       -19.4218
  35   2.0000      -0.699497       -19.0343
  36   2.0000      -0.688109       -18.7244
  37   2.0000      -0.661967       -18.0130
  38   2.0000      -0.645563       -17.5667
  39   2.0000      -0.620631       -16.8882
  40   2.0000      -0.597447       -16.2574
  41   2.0000      -0.573360       -15.6019
  42   2.0000      -0.565174       -15.3792
  43   2.0000      -0.561491       -15.2789
  44   2.0000      -0.528971       -14.3940
  45   2.0000      -0.522517       -14.2184
  46   2.0000      -0.518968       -14.1218
  47   2.0000      -0.514480       -13.9997
  48   2.0000      -0.505656       -13.7596
  49   2.0000      -0.497606       -13.5406
  50   2.0000      -0.492684       -13.4066
  51   2.0000      -0.486794       -13.2463
  52   2.0000      -0.477295       -12.9879
  53   2.0000      -0.466461       -12.6930
  54   2.0000      -0.463284       -12.6066
  55   2.0000      -0.451039       -12.2734
  56   2.0000      -0.450217       -12.2510
  57   2.0000      -0.439184       -11.9508
  58   2.0000      -0.428734       -11.6664
  59   2.0000      -0.423242       -11.5170
  60   2.0000      -0.416802       -11.3418
  61   2.0000      -0.406967       -11.0741
  62   2.0000      -0.397745       -10.8232
  63   2.0000      -0.352920        -9.6034
  64   2.0000      -0.330178        -8.9846
  65   2.0000      -0.328967        -8.9516
  66   2.0000      -0.294375        -8.0104
  67   0.0000       0.029138         0.7929
  68   0.0000       0.072288         1.9671
  69   0.0000       0.115015         3.1297
  70   0.0000       0.128426         3.4947
  71   0.0000       0.131739         3.5848

MULLIKEN ATOMIC CHARGES
-----------------------
   0 S :    0.094980
   1 C :   -0.135014
   2 C :   -0.090672
   3 C :    0.048386
   4 C :   -0.164857
   5 H :    0.000070
   6 C :    0.120110
   7 H :    0.027807
   8 H :    0.012640
   9 C :   -0.099789
  10 H :    0.017200
  11 H :    0.016977
  12 C :   -0.034012
  13 H :    0.027442
  14 H :    0.040783
  15 H :    0.037465
  16 S :    0.098493
  17 C :   -0.058560
  18 C :   -0.029185
  19 C :   -0.049019
  20 C :   -0.161944
  21 H :    0.011961
  22 C :    0.052632
  23 H :    0.017576
  24 H :    0.020345
  25 C :   -0.060787
  26 H :    0.046279
  27 H :    0.029496
  28 C :   -0.045612
  29 H :    0.033104
  30 H :    0.024028
  31 H :    0.044860
  32 H :    0.066508
  33 H :    0.040308
Sum of atomic charges:    0.0000000

LOEWDIN ATOMIC CHARGES
----------------------
   0 S :    0.376767
   1 C :   -0.194402
   2 C :   -0.058717
   3 C :   -0.055763
   4 C :   -0.190088
   5 H :    0.029119
   6 C :   -0.013764
   7 H :    0.023763
   8 H :    0.027573
   9 C :   -0.050655
  10 H :    0.020803
  11 H :    0.020612
  12 C :   -0.063129
  13 H :    0.029692
  14 H :    0.028510
  15 H :    0.026068
  16 S :    0.409902
  17 C :   -0.184473
  18 C :   -0.075253
  19 C :   -0.053637
  20 C :   -0.195727
  21 H :    0.030480
  22 C :   -0.027081
  23 H :    0.031461
  24 H :    0.018752
  25 C :   -0.044938
  26 H :    0.026557
  27 H :    0.030479
  28 C :   -0.071342
  29 H :    0.029074
  30 H :    0.023601
  31 H :    0.033970
  32 H :    0.037242
  33 H :    0.024544

  Mayer bond orders larger than 0.100000
B(  0-S ,  1-C ) :   1.1221 B(  0-S ,  4-C ) :   1.1249 B(  1-C ,  2-C ) :   1.6401
B(  1-C , 32-H ) :   0.9653 B(  2-C ,  3-C ) :   1.1945 B(  2-C ,  6-C ) :   1.0135
B(  3-C ,  4-C ) :   1.6091 B(  3-C ,  5-H ) :   1.0003 B(  4-C , 20-C ) :   1.0476
B(  6-C ,  7-H ) :   0.9347 B(  6-C ,  8-H ) :   0.9449 B(  6-C ,  9-C ) :   1.0767
B(  9-C , 10-H ) :   0.9554 B(  9-C , 11-H ) :   0.9511 B(  9-C , 12-C ) :   1.0698
B( 12-C , 13-H ) :   0.9734 B( 12-C , 14-H ) :   0.9722 B( 12-C , 15-H ) :   0.9727
B( 16-S , 17-C ) :   1.1513 B( 16-S , 20-C ) :   1.1411 B( 17-C , 18-C ) :   1.6211
B( 17-C , 33-H ) :   0.9683 B( 18-C , 19-C ) :   1.2512 B( 18-C , 21-H ) :   0.9893
B( 19-C , 20-C ) :   1.5920 B( 19-C , 22-C ) :   1.0248 B( 22-C , 23-H ) :   0.9411
B( 22-C , 24-H ) :   0.9299 B( 22-C , 25-C ) :   1.0551 B( 25-C , 26-H ) :   0.9541
B( 25-C , 27-H ) :   0.9545 B( 25-C , 28-C ) :   1.0785 B( 28-C , 29-H ) :   0.9711
B( 28-C , 30-H ) :   0.9724 B( 28-C , 31-H ) :   0.9733

Dispersion correction           -0.014722991
FINAL SINGLE POINT ENERGY     -1339.870645410908

DIPOLE MOMENT
-------------
                                X             Y             Z
Electronic contribution:    -14.41757       8.14342      23.25595
Nuclear contribution   :     14.49766      -8.57527     -23.68330
                        -----------------------------------------
Total Dipole Moment    :      0.08008      -0.43184      -0.42735
                        -----------------------------------------
Magnitude (a.u.)       :      0.61280
Magnitude (Debye)      :      1.55762

Rotational constants in cm-1:     0.017526     0.009827     0.007477
Rotational constants in MHz :   525.411972   294.605446   224.155477

                             ****ORCA TERMINATED NORMALLY****
TOTAL RUN TIME: 0 days 0 hours 0 minutes 21 seconds 208 msec
