                         Program Version 4.2.1 -  RELEASE  -
|  1> ! wB97X-D3 SP def2-SVP
|  2> %pal
|  3> nprocs 24
|  4> end
|  5>
|  6> * xyz 0 1
|  7> S 	 -50.1227 	 10.3899 	 -16.5928
|  8> C 	 -50.7431 	 9.97832 	 -15.0727
|  9> C 	 -49.8358 	 10.2687 	 -14.034
| 10> C 	 -48.7508 	 11.143 	 -14.5005
| 11> C 	 -48.714 	 11.3093 	 -15.8841
| 12> H 	 -47.9365 	 11.6146 	 -13.9761
| 13> C 	 -50.0023 	 9.91163 	 -12.5783
| 14> H 	 -50.9528 	 9.41047 	 -12.531
| 15> H 	 -50.1344 	 10.7414 	 -11.9126
| 16> C 	 -48.9987 	 8.87295 	 -12.1342
| 17> H 	 -49.0365 	 7.84931 	 -12.6158
| 18> H 	 -47.9907 	 9.29775 	 -12.3634
| 19> C 	 -48.9819 	 8.7363 	 -10.6043
| 20> H 	 -48.1793 	 8.11216 	 -10.1386
| 21> H 	 -48.9801 	 9.65654 	 -9.97625
| 22> H 	 -49.8852 	 8.27138 	 -10.3895
| 23> S 	 -46.9257 	 10.8217 	 -17.9009
| 24> C 	 -46.0971 	 12.2655 	 -18.6129
| 25> C 	 -46.4634 	 13.41 	 -18.0253
| 26> C 	 -47.2421 	 13.2121 	 -16.8347
| 27> C 	 -47.7304 	 11.9368 	 -16.7349
| 28> H 	 -46.0937 	 14.3576 	 -18.4784
| 29> C 	 -47.7433 	 14.4574 	 -16.0682
| 30> H 	 -48.7276 	 14.2153 	 -15.6899
| 31> H 	 -47.7501 	 15.1936 	 -16.8669
| 32> C 	 -46.8227 	 14.9407 	 -14.9577
| 33> H 	 -45.9281 	 15.3358 	 -15.3836
| 34> H 	 -46.5889 	 14.1417 	 -14.25
| 35> C 	 -47.5791 	 16.0855 	 -14.1336
| 36> H 	 -48.1861 	 16.8172 	 -14.688
| 37> H 	 -46.8049 	 16.7177 	 -13.6419
| 38> H 	 -48.2035 	 15.5864 	 -13.4016
| 39> H 	 -51.6475 	 9.29487 	 -14.9571
| 40> H 	 -45.3845 	 12.2145 	 -19.4202
| 41> *
| 42>
| 43>                          ****END OF INPUT****

CARTESIAN COORDINATES (ANGSTROEM)
---------------------------------
  S    -50.122700   10.389900  -16.592800
  C    -50.743100    9.978320  -15.072700
  C    -49.835800   10.268700  -14.034000
  C    -48.750800   11.143000  -14.500500
  C    -48.714000   11.309300  -15.884100
  H    -47.936500   11.614600  -13.976100
  C    -50.002300    9.911630  -12.578300
  H    -50.952800    9.410470  -12.531000
  H    -50.134400   10.741400  -11.912600
  C    -48.998700    8.872950  -12.134200
  H    -49.036500    7.849310  -12.615800
  H    -47.990700    9.297750  -12.363400
  C    -48.981900    8.736300  -10.604300
  H    -48.179300    8.112160  -10.138600
  H    -48.980100    9.656540   -9.976250
  H    -49.885200    8.271380  -10.389500
  S    -46.925700   10.821700  -17.900900
  C    -46.097100   12.265500  -18.612900
  C    -46.463400   13.410000  -18.025300
  C    -47.242100   13.212100  -16.834700
  C    -47.730400   11.936800  -16.734900
  H    -46.093700   14.357600  -18.478400
  C    -47.743300   14.457400  -16.068200
  H    -48.727600   14.215300  -15.689900
  H    -47.750100   15.193600  -16.866900
  C    -46.822700   14.940700  -14.957700
  H    -45.928100   15.335800  -15.383600
  H    -46.588900   14.141700  -14.250000
  C    -47.579100   16.085500  -14.133600
  H    -48.186100   16.817200  -14.688000
  H    -46.804900   16.717700  -13.641900
  H    -48.203500   15.586400  -13.401600
  H    -51.647500    9.294870  -14.957100
  H    -45.384500   12.214500  -19.420200

 Total Charge           Charge          ....    0
 Multiplicity           Mult            ....    1
 Number of Electrons    NEL             ....  134
 Basis Dimension        Dim             ....  322

ORBITAL ENERGIES
----------------

  NO   OCC          E(Eh)            E(eV)
   0   2.0000     -88.963874     -2420.8301
   1   2.0000     -88.961703     -2420.7710
   2   2.0000     -10.333673      -281.1935
   3   2.0000     -10.328981      -281.0659
   4   2.0000     -10.321904      -280.8733
   5   2.0000     -10.316358      -280.7224
   6   2.0000     -10.308578      -280.5107
   7   2.0000     -10.304131      -280.3897
   8   2.0000     -10.301183      -280.3094
   9   2.0000     -10.294232      -280.1203
  10   2.0000     -10.292158      -280.0639
  11   2.0000     -10.290740      -280.0253
  12   2.0000     -10.289403      -279.9889
  13   2.0000     -10.288375      -279.9609
  14   2.0000     -10.283823      -279.8371
  15   2.0000     -10.275478      -279.6100
  16   2.0000      -8.078672      -219.8318
  17   2.0000      -8.075211      -219.7377
  18   2.0000      -6.037162      -164.2795
  19   2.0000      -6.033922      -164.1914
  20   2.0000      -6.033108      -164.1692
  21   2.0000      -6.030130      -164.0882
  22   2.0000      -6.029483      -164.0706
  23   2.0000      -6.025570      -163.9641
  24   2.0000      -0.999815       -27.2063
  25   2.0000      -0.978843       -26.6357
  26   2.0000      -0.914248       -24.8780
  27   2.0000      -0.904331       -24.6081
  28   2.0000      -0.873528       -23.7699
  29   2.0000      -0.846649       -23.0385
  30   2.0000      -0.840919       -22.8826
  31   2.0000      -0.817215       -22.2376
  32   2.0000      -0.777990       -21.1702
  33   2.0000      -0.766580       -20.8597
  34   2.0000      -0.708144       -19.2696
  35   2.0000      -0.697752       -18.9868
  36   2.0000      -0.690296       -18.7839
  37   2.0000      -0.661511       -18.0006
  38   2.0000      -0.645864       -17.5749
  39   2.0000      -0.614692       -16.7266
  40   2.0000      -0.590205       -16.0603
  41   2.0000      -0.571659       -15.5556
  42   2.0000      -0.569705       -15.5025
  43   2.0000      -0.556016       -15.1300
  44   2.0000      -0.524097       -14.2614
  45   2.0000      -0.522282       -14.2120
  46   2.0000      -0.517559       -14.0835
  47   2.0000      -0.507352       -13.8058
  48   2.0000      -0.503365       -13.6973
  49   2.0000      -0.501380       -13.6433
  50   2.0000      -0.494077       -13.4445
  51   2.0000      -0.475784       -12.9467
  52   2.0000      -0.471913       -12.8414
  53   2.0000      -0.461350       -12.5540
  54   2.0000      -0.454024       -12.3546
  55   2.0000      -0.445779       -12.1303
  56   2.0000      -0.442543       -12.0422
  57   2.0000      -0.442509       -12.0413
  58   2.0000      -0.438236       -11.9250
  59   2.0000      -0.429947       -11.6994
  60   2.0000      -0.417145       -11.3511
  61   2.0000      -0.407264       -11.0822
  62   2.0000      -0.404126       -10.9968
  63   2.0000      -0.350397        -9.5348
  64   2.0000      -0.330177        -8.9846
  65   2.0000      -0.325544        -8.8585
  66   2.0000      -0.293264        -7.9801
  67   0.0000       0.032534         0.8853
  68   0.0000       0.058454         1.5906
  69   0.0000       0.110449         3.0055
  70   0.0000       0.117492         3.1971
  71   0.0000       0.123750         3.3674

MULLIKEN ATOMIC CHARGES
-----------------------
   0 S :    0.107653
   1 C :   -0.121583
   2 C :   -0.117378
   3 C :    0.060030
   4 C :   -0.177226
   5 H :    0.011387
   6 C :    0.097962
   7 H :   -0.001045
   8 H :    0.033455
   9 C :   -0.099992
  10 H :    0.052122
  11 H :    0.029332
  12 C :   -0.049198
  13 H :    0.040109
  14 H :    0.030041
  15 H :    0.006541
  16 S :    0.081439
  17 C :   -0.083574
  18 C :   -0.040178
  19 C :   -0.020372
  20 C :   -0.161076
  21 H :    0.036453
  22 C :    0.063201
  23 H :    0.030664
  24 H :    0.022731
  25 C :   -0.061135
  26 H :    0.023160
  27 H :    0.036175
  28 C :   -0.072775
  29 H :    0.036054
  30 H :    0.036432
  31 H :    0.040169
  32 H :    0.081285
  33 H :    0.049139
Sum of atomic charges:    0.0000000

LOEWDIN ATOMIC CHARGES
----------------------
   0 S :    0.398361
   1 C :   -0.221633
   2 C :   -0.063967
   3 C :   -0.054056
   4 C :   -0.180035
   5 H :    0.031151
   6 C :   -0.033742
   7 H :    0.027329
   8 H :    0.031444
   9 C :   -0.042756
  10 H :    0.037433
  11 H :    0.022194
  12 C :   -0.073786
  13 H :    0.030655
  14 H :    0.027736
  15 H :    0.011874
  16 S :    0.347651
  17 C :   -0.156129
  18 C :   -0.077300
  19 C :   -0.052807
  20 C :   -0.181696
  21 H :    0.041503
  22 C :   -0.022639
  23 H :    0.028675
  24 H :    0.031125
  25 C :   -0.030986
  26 H :    0.018198
  27 H :    0.024648
  28 C :   -0.069295
  29 H :    0.025105
  30 H :    0.028544
  31 H :    0.024470
  32 H :    0.045721
  33 H :    0.027007

  Mayer bond orders larger than 0.100000
B(  0-S ,  1-C ) :   1.1604 B(  0-S ,  4-C ) :   1.1261 B(  1-C ,  2-C ) :   1.6102
B(  1-C , 32-H ) :   0.9524 B(  2-C ,  3-C ) :   1.2055 B(  2-C ,  6-C ) :   1.0370
B(  3-C ,  4-C ) :   1.6014 B(  3-C ,  5-H ) :   0.9920 B(  4-C , 20-C ) :   1.0531
B(  6-C ,  7-H ) :   0.9285 B(  6-C ,  8-H ) :   0.9481 B(  6-C ,  9-C ) :   1.0465
B(  9-C , 10-H ) :   0.9545 B(  9-C , 11-H ) :   0.9651 B(  9-C , 12-C ) :   1.0680
B( 12-C , 13-H ) :   0.9752 B( 12-C , 14-H ) :   0.9753 B( 12-C , 15-H ) :   0.9730
B( 16-S , 17-C ) :   1.1110 B( 16-S , 20-C ) :   1.1074 B( 17-C , 18-C ) :   1.6999
B( 17-C , 33-H ) :   0.9645 B( 18-C , 19-C ) :   1.1752 B( 18-C , 21-H ) :   0.9758
B( 19-C , 20-C ) :   1.6531 B( 19-C , 22-C ) :   1.0294 B( 22-C , 23-H ) :   0.9436
B( 22-C , 24-H ) :   0.9383 B( 22-C , 25-C ) :   1.0673 B( 25-C , 26-H ) :   0.9572
B( 25-C , 27-H ) :   0.9595 B( 25-C , 28-C ) :   1.0665 B( 28-C , 29-H ) :   0.9776
B( 28-C , 30-H ) :   0.9783 B( 28-C , 31-H ) :   0.9805

Dispersion correction           -0.013559681
FINAL SINGLE POINT ENERGY     -1339.861757701331

DIPOLE MOMENT
-------------
                                X             Y             Z
Electronic contribution:     -1.34332      -9.38381     -26.32433
Nuclear contribution   :      1.44067       9.73843      26.76977
                        -----------------------------------------
Total Dipole Moment    :      0.09735       0.35462       0.44544
                        -----------------------------------------
Magnitude (a.u.)       :      0.57762
Magnitude (Debye)      :      1.46820

Rotational constants in cm-1:     0.016677     0.008286     0.006540
Rotational constants in MHz :   499.957585   248.411200   196.061040

                             ****ORCA TERMINATED NORMALLY****
TOTAL RUN TIME: 0 days 0 hours 0 minutes 20 seconds 809 msec
