                         Program Version 4.2.1 -  RELEASE  -
|  1> ! wB97X-D3 SP def2-SVP
|  2> %pal
|  3> nprocs 24
|  4> end
|  5>
|  6> * xyz 0 1
|  7> S 	 -58.6824 	 11.4596 	 -95.3423
|  8> C 	 -57.6038 	 10.8693 	 -96.5463
|  9> C 	 -56.6607 	 11.8569 	 -96.9151
| 10> C 	 -57.1339 	 13.1499 	 -96.53
| 11> C 	 -58.2659 	 13.1328 	 -95.7323
| 12> H 	 -56.7918 	 14.1144 	 -96.8088
| 13> C 	 -55.4674 	 11.6085 	 -97.8744
| 14> H 	 -54.8284 	 12.397 	 -97.5601
| 15> H 	 -55.8728 	 11.7311 	 -98.8965
| 16> C 	 -54.666 	 10.2279 	 -97.7718
| 17> H 	 -54.169 	 10.1463 	 -96.764
| 18> H 	 -55.2675 	 9.28162 	 -97.7982
| 19> C 	 -53.5973 	 10.1133 	 -98.8368
| 20> H 	 -53.1171 	 9.13907 	 -98.7106
| 21> H 	 -54.1163 	 10.0593 	 -99.7404
| 22> H 	 -52.7878 	 10.8825 	 -98.8968
| 23> S 	 -60.656 	 14.4169 	 -95.6404
| 24> C 	 -60.6524 	 16.027 	 -95.0504
| 25> C 	 -59.5051 	 16.3908 	 -94.4272
| 26> C 	 -58.4392 	 15.4931 	 -94.6817
| 27> C 	 -58.9496 	 14.3121 	 -95.1975
| 28> H 	 -59.2122 	 17.2861 	 -93.8803
| 29> C 	 -57.0086 	 15.7152 	 -94.168
| 30> H 	 -56.5163 	 14.7178 	 -94.1436
| 31> H 	 -57.1227 	 16.0392 	 -93.1575
| 32> C 	 -56.2474 	 16.7306 	 -95.004
| 33> H 	 -56.7828 	 17.647 	 -94.9845
| 34> H 	 -56.3508 	 16.4226 	 -95.9774
| 35> C 	 -54.7525 	 16.9125 	 -94.5974
| 36> H 	 -54.1995 	 15.9653 	 -94.5955
| 37> H 	 -54.7103 	 17.4977 	 -93.6206
| 38> H 	 -54.1843 	 17.4833 	 -95.3645
| 39> H 	 -57.3757 	 9.82336 	 -96.7418
| 40> H 	 -61.5419 	 16.6151 	 -95.1611
| 41> *
| 42>
| 43>                          ****END OF INPUT****

CARTESIAN COORDINATES (ANGSTROEM)
---------------------------------
  S    -58.682400   11.459600  -95.342300
  C    -57.603800   10.869300  -96.546300
  C    -56.660700   11.856900  -96.915100
  C    -57.133900   13.149900  -96.530000
  C    -58.265900   13.132800  -95.732300
  H    -56.791800   14.114400  -96.808800
  C    -55.467400   11.608500  -97.874400
  H    -54.828400   12.397000  -97.560100
  H    -55.872800   11.731100  -98.896500
  C    -54.666000   10.227900  -97.771800
  H    -54.169000   10.146300  -96.764000
  H    -55.267500    9.281620  -97.798200
  C    -53.597300   10.113300  -98.836800
  H    -53.117100    9.139070  -98.710600
  H    -54.116300   10.059300  -99.740400
  H    -52.787800   10.882500  -98.896800
  S    -60.656000   14.416900  -95.640400
  C    -60.652400   16.027000  -95.050400
  C    -59.505100   16.390800  -94.427200
  C    -58.439200   15.493100  -94.681700
  C    -58.949600   14.312100  -95.197500
  H    -59.212200   17.286100  -93.880300
  C    -57.008600   15.715200  -94.168000
  H    -56.516300   14.717800  -94.143600
  H    -57.122700   16.039200  -93.157500
  C    -56.247400   16.730600  -95.004000
  H    -56.782800   17.647000  -94.984500
  H    -56.350800   16.422600  -95.977400
  C    -54.752500   16.912500  -94.597400
  H    -54.199500   15.965300  -94.595500
  H    -54.710300   17.497700  -93.620600
  H    -54.184300   17.483300  -95.364500
  H    -57.375700    9.823360  -96.741800
  H    -61.541900   16.615100  -95.161100

 Total Charge           Charge          ....    0
 Multiplicity           Mult            ....    1
 Number of Electrons    NEL             ....  134
 Basis Dimension        Dim             ....  322

ORBITAL ENERGIES
----------------

  NO   OCC          E(Eh)            E(eV)
   0   2.0000     -88.965158     -2420.8650
   1   2.0000     -88.963629     -2420.8234
   2   2.0000     -10.324953      -280.9563
   3   2.0000     -10.323609      -280.9197
   4   2.0000     -10.314404      -280.6692
   5   2.0000     -10.308824      -280.5174
   6   2.0000     -10.303213      -280.3647
   7   2.0000     -10.301135      -280.3081
   8   2.0000     -10.299349      -280.2595
   9   2.0000     -10.299011      -280.2503
  10   2.0000     -10.292127      -280.0630
  11   2.0000     -10.291837      -280.0551
  12   2.0000     -10.290434      -280.0170
  13   2.0000     -10.289354      -279.9875
  14   2.0000     -10.280631      -279.7502
  15   2.0000     -10.276971      -279.6506
  16   2.0000      -8.080774      -219.8890
  17   2.0000      -8.078371      -219.8237
  18   2.0000      -6.039056      -164.3311
  19   2.0000      -6.036832      -164.2705
  20   2.0000      -6.035356      -164.2304
  21   2.0000      -6.032989      -164.1660
  22   2.0000      -6.031502      -164.1255
  23   2.0000      -6.029090      -164.0599
  24   2.0000      -1.008375       -27.4393
  25   2.0000      -0.984528       -26.7904
  26   2.0000      -0.913395       -24.8547
  27   2.0000      -0.902728       -24.5645
  28   2.0000      -0.867215       -23.5981
  29   2.0000      -0.854923       -23.2636
  30   2.0000      -0.849933       -23.1278
  31   2.0000      -0.810689       -22.0600
  32   2.0000      -0.783321       -21.3152
  33   2.0000      -0.766860       -20.8673
  34   2.0000      -0.709029       -19.2937
  35   2.0000      -0.702852       -19.1256
  36   2.0000      -0.689399       -18.7595
  37   2.0000      -0.666936       -18.1482
  38   2.0000      -0.639022       -17.3887
  39   2.0000      -0.610725       -16.6187
  40   2.0000      -0.599505       -16.3134
  41   2.0000      -0.570708       -15.5298
  42   2.0000      -0.567129       -15.4324
  43   2.0000      -0.556768       -15.1504
  44   2.0000      -0.522945       -14.2300
  45   2.0000      -0.521522       -14.1913
  46   2.0000      -0.517446       -14.0804
  47   2.0000      -0.512164       -13.9367
  48   2.0000      -0.509048       -13.8519
  49   2.0000      -0.495544       -13.4844
  50   2.0000      -0.486901       -13.2493
  51   2.0000      -0.479991       -13.0612
  52   2.0000      -0.473785       -12.8923
  53   2.0000      -0.466062       -12.6822
  54   2.0000      -0.458763       -12.4836
  55   2.0000      -0.456419       -12.4198
  56   2.0000      -0.443233       -12.0610
  57   2.0000      -0.436375       -11.8744
  58   2.0000      -0.428713       -11.6659
  59   2.0000      -0.427854       -11.6425
  60   2.0000      -0.422768       -11.5041
  61   2.0000      -0.421706       -11.4752
  62   2.0000      -0.417356       -11.3568
  63   2.0000      -0.345636        -9.4052
  64   2.0000      -0.333789        -9.0828
  65   2.0000      -0.325623        -8.8607
  66   2.0000      -0.288144        -7.8408
  67   0.0000       0.032444         0.8828
  68   0.0000       0.067612         1.8398
  69   0.0000       0.112881         3.0716
  70   0.0000       0.118386         3.2215
  71   0.0000       0.126305         3.4369

MULLIKEN ATOMIC CHARGES
-----------------------
   0 S :    0.113551
   1 C :   -0.111414
   2 C :   -0.108125
   3 C :    0.039056
   4 C :   -0.152499
   5 H :   -0.015152
   6 C :    0.063613
   7 H :    0.027870
   8 H :    0.057295
   9 C :   -0.126044
  10 H :    0.034807
  11 H :    0.038268
  12 C :   -0.029579
  13 H :    0.030005
  14 H :    0.016584
  15 H :    0.042596
  16 S :    0.117011
  17 C :   -0.083579
  18 C :    0.016001
  19 C :   -0.088802
  20 C :   -0.164302
  21 H :    0.012794
  22 C :    0.062494
  23 H :    0.037691
  24 H :    0.020218
  25 C :   -0.030332
  26 H :    0.013325
  27 H :   -0.000352
  28 C :   -0.061705
  29 H :    0.037419
  30 H :    0.049994
  31 H :    0.036697
  32 H :    0.050969
  33 H :    0.053626
Sum of atomic charges:    0.0000000

LOEWDIN ATOMIC CHARGES
----------------------
   0 S :    0.404575
   1 C :   -0.214765
   2 C :   -0.062562
   3 C :   -0.065555
   4 C :   -0.192888
   5 H :    0.022626
   6 C :   -0.028642
   7 H :    0.029121
   8 H :    0.039463
   9 C :   -0.048179
  10 H :    0.027280
  11 H :    0.027151
  12 C :   -0.065901
  13 H :    0.029797
  14 H :    0.016198
  15 H :    0.029674
  16 S :    0.418976
  17 C :   -0.182736
  18 C :   -0.072662
  19 C :   -0.049592
  20 C :   -0.197563
  21 H :    0.032634
  22 C :   -0.023978
  23 H :    0.035317
  24 H :    0.025975
  25 C :   -0.035672
  26 H :    0.020761
  27 H :    0.010610
  28 C :   -0.070832
  29 H :    0.027182
  30 H :    0.035249
  31 H :    0.029518
  32 H :    0.025997
  33 H :    0.023422

  Mayer bond orders larger than 0.100000
B(  0-S ,  1-C ) :   1.1482 B(  0-S ,  4-C ) :   1.1502 B(  1-C ,  2-C ) :   1.5908
B(  1-C , 32-H ) :   0.9650 B(  2-C ,  3-C ) :   1.2396 B(  2-C ,  6-C ) :   1.0052
B(  3-C ,  4-C ) :   1.5801 B(  3-C ,  5-H ) :   1.0011 B(  4-C , 20-C ) :   1.0196
B(  6-C ,  7-H ) :   0.9435 B(  6-C ,  8-H ) :   0.9490 B(  6-C ,  9-C ) :   1.0513
B(  9-C , 10-H ) :   0.9594 B(  9-C , 11-H ) :   0.9556 B(  9-C , 12-C ) :   1.0857
B( 12-C , 13-H ) :   0.9705 B( 12-C , 14-H ) :   0.9742 B( 12-C , 15-H ) :   0.9759
B( 16-S , 17-C ) :   1.1722 B( 16-S , 20-C ) :   1.1420 B( 17-C , 18-C ) :   1.5774
B( 17-C , 33-H ) :   0.9709 B( 18-C , 19-C ) :   1.2494 B( 18-C , 21-H ) :   0.9841
B( 19-C , 20-C ) :   1.6119 B( 19-C , 22-C ) :   1.0340 B( 22-C , 23-H ) :   0.9397
B( 22-C , 24-H ) :   0.9369 B( 22-C , 25-C ) :   1.0514 B( 25-C , 26-H ) :   0.9516
B( 25-C , 27-H ) :   0.9515 B( 25-C , 28-C ) :   1.0826 B( 28-C , 29-H ) :   0.9741
B( 28-C , 30-H ) :   0.9746 B( 28-C , 31-H ) :   0.9754

Dispersion correction           -0.013868652
FINAL SINGLE POINT ENERGY     -1339.865548746610

DIPOLE MOMENT
-------------
                                X             Y             Z
Electronic contribution:    -30.13419      -2.95148       6.78897
Nuclear contribution   :     30.74832       3.29406      -6.93979
                        -----------------------------------------
Total Dipole Moment    :      0.61413       0.34258      -0.15081
                        -----------------------------------------
Magnitude (a.u.)       :      0.71921
Magnitude (Debye)      :      1.82809

Rotational constants in cm-1:     0.018267     0.008086     0.006018
Rotational constants in MHz :   547.639060   242.404549   180.414336

                             ****ORCA TERMINATED NORMALLY****
TOTAL RUN TIME: 0 days 0 hours 0 minutes 21 seconds 25 msec
