                         Program Version 4.2.1 -  RELEASE  -
|  1> ! wB97X-D3 SP def2-SVP
|  2> %pal
|  3> nprocs 24
|  4> end
|  5>
|  6> * xyz 0 1
|  7> S 	 -85.4063 	 -29.1549 	 -79.3063
|  8> C 	 -85.5587 	 -28.863 	 -81.0482
|  9> C 	 -86.4802 	 -29.6166 	 -81.6614
| 10> C 	 -87.1465 	 -30.5081 	 -80.7616
| 11> C 	 -86.6409 	 -30.4085 	 -79.4622
| 12> H 	 -88.0141 	 -31.2379 	 -80.9622
| 13> C 	 -86.7989 	 -29.4776 	 -83.1328
| 14> H 	 -87.0749 	 -30.5343 	 -83.3286
| 15> H 	 -85.9169 	 -29.2064 	 -83.767
| 16> C 	 -88.0374 	 -28.7514 	 -83.5572
| 17> H 	 -88.1069 	 -28.7203 	 -84.6321
| 18> H 	 -88.8894 	 -29.2592 	 -83.175
| 19> C 	 -87.9979 	 -27.3463 	 -83.058
| 20> H 	 -87.8707 	 -27.2295 	 -81.977
| 21> H 	 -87.3492 	 -26.7051 	 -83.5664
| 22> H 	 -88.9509 	 -26.8735 	 -83.3146
| 23> S 	 -85.8454 	 -32.0773 	 -77.4678
| 24> C 	 -87.0058 	 -32.8305 	 -76.4006
| 25> C 	 -88.2729 	 -32.4098 	 -76.7141
| 26> C 	 -88.325 	 -31.4516 	 -77.7672
| 27> C 	 -87.102 	 -31.1455 	 -78.3026
| 28> H 	 -89.2136 	 -32.7392 	 -76.2437
| 29> C 	 -89.675 	 -30.9788 	 -78.319
| 30> H 	 -90.2369 	 -31.9036 	 -78.3656
| 31> H 	 -89.6605 	 -30.4899 	 -79.2848
| 32> C 	 -90.2257 	 -30.0007 	 -77.3052
| 33> H 	 -89.6002 	 -29.1135 	 -77.3151
| 34> H 	 -90.2753 	 -30.2963 	 -76.2564
| 35> C 	 -91.6462 	 -29.5071 	 -77.7562
| 36> H 	 -91.9311 	 -28.6843 	 -77.0709
| 37> H 	 -92.3279 	 -30.2798 	 -77.7459
| 38> H 	 -91.5217 	 -28.9745 	 -78.7298
| 39> H 	 -84.9704 	 -28.092 	 -81.5907
| 40> H 	 -86.8101 	 -33.5614 	 -75.6502
| 41> *
| 42>
| 43>                          ****END OF INPUT****

CARTESIAN COORDINATES (ANGSTROEM)
---------------------------------
  S    -85.406300  -29.154900  -79.306300
  C    -85.558700  -28.863000  -81.048200
  C    -86.480200  -29.616600  -81.661400
  C    -87.146500  -30.508100  -80.761600
  C    -86.640900  -30.408500  -79.462200
  H    -88.014100  -31.237900  -80.962200
  C    -86.798900  -29.477600  -83.132800
  H    -87.074900  -30.534300  -83.328600
  H    -85.916900  -29.206400  -83.767000
  C    -88.037400  -28.751400  -83.557200
  H    -88.106900  -28.720300  -84.632100
  H    -88.889400  -29.259200  -83.175000
  C    -87.997900  -27.346300  -83.058000
  H    -87.870700  -27.229500  -81.977000
  H    -87.349200  -26.705100  -83.566400
  H    -88.950900  -26.873500  -83.314600
  S    -85.845400  -32.077300  -77.467800
  C    -87.005800  -32.830500  -76.400600
  C    -88.272900  -32.409800  -76.714100
  C    -88.325000  -31.451600  -77.767200
  C    -87.102000  -31.145500  -78.302600
  H    -89.213600  -32.739200  -76.243700
  C    -89.675000  -30.978800  -78.319000
  H    -90.236900  -31.903600  -78.365600
  H    -89.660500  -30.489900  -79.284800
  C    -90.225700  -30.000700  -77.305200
  H    -89.600200  -29.113500  -77.315100
  H    -90.275300  -30.296300  -76.256400
  C    -91.646200  -29.507100  -77.756200
  H    -91.931100  -28.684300  -77.070900
  H    -92.327900  -30.279800  -77.745900
  H    -91.521700  -28.974500  -78.729800
  H    -84.970400  -28.092000  -81.590700
  H    -86.810100  -33.561400  -75.650200

 Total Charge           Charge          ....    0
 Multiplicity           Mult            ....    1
 Number of Electrons    NEL             ....  134
 Basis Dimension        Dim             ....  322

ORBITAL ENERGIES
----------------

  NO   OCC          E(Eh)            E(eV)
   0   2.0000     -88.967530     -2420.9296
   1   2.0000     -88.960609     -2420.7412
   2   2.0000     -10.332380      -281.1583
   3   2.0000     -10.322523      -280.8901
   4   2.0000     -10.316855      -280.7359
   5   2.0000     -10.312090      -280.6062
   6   2.0000     -10.304912      -280.4109
   7   2.0000     -10.299923      -280.2752
   8   2.0000     -10.298486      -280.2360
   9   2.0000     -10.293948      -280.1126
  10   2.0000     -10.291588      -280.0483
  11   2.0000     -10.291195      -280.0376
  12   2.0000     -10.283130      -279.8182
  13   2.0000     -10.279806      -279.7277
  14   2.0000     -10.275342      -279.6063
  15   2.0000     -10.265482      -279.3380
  16   2.0000      -8.081775      -219.9163
  17   2.0000      -8.075375      -219.7421
  18   2.0000      -6.040272      -164.3642
  19   2.0000      -6.036510      -164.2618
  20   2.0000      -6.033929      -164.1915
  21   2.0000      -6.032408      -164.1502
  22   2.0000      -6.029852      -164.0806
  23   2.0000      -6.026093      -163.9783
  24   2.0000      -1.006228       -27.3808
  25   2.0000      -0.984851       -26.7992
  26   2.0000      -0.921648       -25.0793
  27   2.0000      -0.911829       -24.8121
  28   2.0000      -0.872649       -23.7460
  29   2.0000      -0.849932       -23.1278
  30   2.0000      -0.843912       -22.9640
  31   2.0000      -0.811759       -22.0891
  32   2.0000      -0.785250       -21.3677
  33   2.0000      -0.774262       -21.0687
  34   2.0000      -0.708575       -19.2813
  35   2.0000      -0.696620       -18.9560
  36   2.0000      -0.695610       -18.9285
  37   2.0000      -0.665456       -18.1080
  38   2.0000      -0.635227       -17.2854
  39   2.0000      -0.616140       -16.7660
  40   2.0000      -0.600509       -16.3407
  41   2.0000      -0.571766       -15.5586
  42   2.0000      -0.567406       -15.4399
  43   2.0000      -0.549716       -14.9585
  44   2.0000      -0.548999       -14.9390
  45   2.0000      -0.527576       -14.3561
  46   2.0000      -0.517368       -14.0783
  47   2.0000      -0.513755       -13.9800
  48   2.0000      -0.500650       -13.6234
  49   2.0000      -0.495336       -13.4788
  50   2.0000      -0.491668       -13.3790
  51   2.0000      -0.484268       -13.1776
  52   2.0000      -0.470943       -12.8150
  53   2.0000      -0.465487       -12.6665
  54   2.0000      -0.461808       -12.5664
  55   2.0000      -0.449292       -12.2258
  56   2.0000      -0.440280       -11.9806
  57   2.0000      -0.438811       -11.9406
  58   2.0000      -0.431437       -11.7400
  59   2.0000      -0.429200       -11.6791
  60   2.0000      -0.427046       -11.6205
  61   2.0000      -0.411995       -11.2109
  62   2.0000      -0.403117       -10.9694
  63   2.0000      -0.344674        -9.3790
  64   2.0000      -0.333799        -9.0831
  65   2.0000      -0.326598        -8.8872
  66   2.0000      -0.296059        -8.0562
  67   0.0000       0.033992         0.9250
  68   0.0000       0.069232         1.8839
  69   0.0000       0.110229         2.9995
  70   0.0000       0.118747         3.2313
  71   0.0000       0.125754         3.4219

MULLIKEN ATOMIC CHARGES
-----------------------
   0 S :    0.113189
   1 C :   -0.134245
   2 C :   -0.072894
   3 C :    0.002535
   4 C :   -0.160376
   5 H :    0.050708
   6 C :    0.035245
   7 H :    0.022718
   8 H :    0.039775
   9 C :   -0.008713
  10 H :    0.027210
  11 H :    0.012723
  12 C :   -0.047296
  13 H :    0.047894
  14 H :    0.007213
  15 H :    0.014799
  16 S :    0.091625
  17 C :   -0.066540
  18 C :   -0.037721
  19 C :   -0.053155
  20 C :   -0.167570
  21 H :    0.022285
  22 C :    0.105036
  23 H :    0.027065
  24 H :    0.018556
  25 C :   -0.123799
  26 H :    0.029639
  27 H :    0.035371
  28 C :   -0.022754
  29 H :    0.032063
  30 H :    0.023891
  31 H :    0.031556
  32 H :    0.053480
  33 H :    0.050488
Sum of atomic charges:   -0.0000000

LOEWDIN ATOMIC CHARGES
----------------------
   0 S :    0.387598
   1 C :   -0.189403
   2 C :   -0.071681
   3 C :   -0.068955
   4 C :   -0.188840
   5 H :    0.047914
   6 C :   -0.036462
   7 H :    0.035770
   8 H :    0.035636
   9 C :   -0.035515
  10 H :    0.028675
  11 H :    0.019660
  12 C :   -0.067221
  13 H :    0.028642
  14 H :    0.015214
  15 H :    0.025836
  16 S :    0.393687
  17 C :   -0.177335
  18 C :   -0.075312
  19 C :   -0.054631
  20 C :   -0.199304
  21 H :    0.033592
  22 C :   -0.023779
  23 H :    0.029576
  24 H :    0.028222
  25 C :   -0.039493
  26 H :    0.026824
  27 H :    0.022528
  28 C :   -0.060627
  29 H :    0.028742
  30 H :    0.009453
  31 H :    0.028866
  32 H :    0.034095
  33 H :    0.028026

  Mayer bond orders larger than 0.100000
B(  0-S ,  1-C ) :   1.1119 B(  0-S ,  4-C ) :   1.1493 B(  1-C ,  2-C ) :   1.6570
B(  1-C , 32-H ) :   0.9622 B(  2-C ,  3-C ) :   1.2070 B(  2-C ,  6-C ) :   1.0107
B(  3-C ,  4-C ) :   1.6030 B(  3-C ,  5-H ) :   0.9770 B(  4-C , 20-C ) :   1.0251
B(  6-C ,  7-H ) :   0.9320 B(  6-C ,  8-H ) :   0.9469 B(  6-C ,  9-C ) :   1.0901
B(  9-C , 10-H ) :   0.9478 B(  9-C , 11-H ) :   0.9498 B(  9-C , 12-C ) :   1.0934
B( 12-C , 13-H ) :   0.9726 B( 12-C , 14-H ) :   0.9713 B( 12-C , 15-H ) :   0.9681
B( 16-S , 17-C ) :   1.1525 B( 16-S , 20-C ) :   1.1251 B( 17-C , 18-C ) :   1.6030
B( 17-C , 33-H ) :   0.9727 B( 18-C , 19-C ) :   1.2483 B( 18-C , 21-H ) :   0.9798
B( 19-C , 20-C ) :   1.6308 B( 19-C , 22-C ) :   1.0242 B( 22-C , 23-H ) :   0.9368
B( 22-C , 24-H ) :   0.9388 B( 22-C , 25-C ) :   1.0576 B( 25-C , 26-H ) :   0.9533
B( 25-C , 27-H ) :   0.9628 B( 25-C , 28-C ) :   1.0843 B( 28-C , 29-H ) :   0.9748
B( 28-C , 30-H ) :   0.9788 B( 28-C , 31-H ) :   0.9729

Dispersion correction           -0.014258827
FINAL SINGLE POINT ENERGY     -1339.877260614897

DIPOLE MOMENT
-------------
                                X             Y             Z
Electronic contribution:     23.39423     -10.63679      13.11820
Nuclear contribution   :    -24.05881      10.65970     -13.47144
                        -----------------------------------------
Total Dipole Moment    :     -0.66458       0.02291      -0.35324
                        -----------------------------------------
Magnitude (a.u.)       :      0.75298
Magnitude (Debye)      :      1.91391

Rotational constants in cm-1:     0.017987     0.009156     0.006848
Rotational constants in MHz :   539.222870   274.504320   205.298216

                             ****ORCA TERMINATED NORMALLY****
TOTAL RUN TIME: 0 days 0 hours 0 minutes 21 seconds 652 msec
