                         Program Version 4.2.1 -  RELEASE  -
|  1> ! wB97X-D3 SP def2-SVP
|  2> %pal
|  3> nprocs 24
|  4> end
|  5>
|  6> * xyz 0 1
|  7> S 	 -99.2068 	 5.58721 	 4.56274
|  8> C 	 -97.9166 	 4.71653 	 3.78384
|  9> C 	 -96.6518 	 4.96745 	 4.35151
| 10> C 	 -96.7399 	 5.97559 	 5.34185
| 11> C 	 -98.0021 	 6.53518 	 5.50192
| 12> H 	 -95.9155 	 6.42175 	 5.83732
| 13> C 	 -95.4133 	 4.27625 	 3.96794
| 14> H 	 -95.5608 	 3.88995 	 2.94863
| 15> H 	 -95.3594 	 3.46531 	 4.68568
| 16> C 	 -94.0972 	 5.1105 	 4.07651
| 17> H 	 -94.2674 	 6.06272 	 3.55969
| 18> H 	 -93.8188 	 5.30817 	 5.08371
| 19> C 	 -92.9388 	 4.25531 	 3.46822
| 20> H 	 -92.913 	 3.18216 	 3.81348
| 21> H 	 -92.9319 	 4.30586 	 2.31319
| 22> H 	 -91.9848 	 4.6788 	 3.77438
| 23> S 	 -99.7284 	 7.54109 	 7.42463
| 24> C 	 -99.5667 	 9.13349 	 8.09583
| 25> C 	 -98.7172 	 9.86464 	 7.29245
| 26> C 	 -97.9854 	 9.06466 	 6.38463
| 27> C 	 -98.4434 	 7.70864 	 6.30378
| 28> H 	 -98.5596 	 10.9747 	 7.46698
| 29> C 	 -96.9086 	 9.67606 	 5.54612
| 30> H 	 -97.3597 	 10.1073 	 4.63905
| 31> H 	 -96.2636 	 8.86068 	 5.19154
| 32> C 	 -95.8945 	 10.5605 	 6.28445
| 33> H 	 -95.4153 	 10.0521 	 7.13675
| 34> H 	 -96.4503 	 11.4333 	 6.62775
| 35> C 	 -94.6767 	 11.1172 	 5.52899
| 36> H 	 -93.8567 	 11.4486 	 6.25222
| 37> H 	 -95.0632 	 11.8721 	 4.88305
| 38> H 	 -94.1602 	 10.3277 	 4.99583
| 39> H 	 -98.1438 	 3.93444 	 3.03808
| 40> H 	 -100.273 	 9.63484 	 8.63771
| 41> *
| 42>
| 43>                          ****END OF INPUT****

CARTESIAN COORDINATES (ANGSTROEM)
---------------------------------
  S    -99.206800    5.587210    4.562740
  C    -97.916600    4.716530    3.783840
  C    -96.651800    4.967450    4.351510
  C    -96.739900    5.975590    5.341850
  C    -98.002100    6.535180    5.501920
  H    -95.915500    6.421750    5.837320
  C    -95.413300    4.276250    3.967940
  H    -95.560800    3.889950    2.948630
  H    -95.359400    3.465310    4.685680
  C    -94.097200    5.110500    4.076510
  H    -94.267400    6.062720    3.559690
  H    -93.818800    5.308170    5.083710
  C    -92.938800    4.255310    3.468220
  H    -92.913000    3.182160    3.813480
  H    -92.931900    4.305860    2.313190
  H    -91.984800    4.678800    3.774380
  S    -99.728400    7.541090    7.424630
  C    -99.566700    9.133490    8.095830
  C    -98.717200    9.864640    7.292450
  C    -97.985400    9.064660    6.384630
  C    -98.443400    7.708640    6.303780
  H    -98.559600   10.974700    7.466980
  C    -96.908600    9.676060    5.546120
  H    -97.359700   10.107300    4.639050
  H    -96.263600    8.860680    5.191540
  C    -95.894500   10.560500    6.284450
  H    -95.415300   10.052100    7.136750
  H    -96.450300   11.433300    6.627750
  C    -94.676700   11.117200    5.528990
  H    -93.856700   11.448600    6.252220
  H    -95.063200   11.872100    4.883050
  H    -94.160200   10.327700    4.995830
  H    -98.143800    3.934440    3.038080
  H    -100.273000    9.634840    8.637710

 Total Charge           Charge          ....    0
 Multiplicity           Mult            ....    1
 Number of Electrons    NEL             ....  134
 Basis Dimension        Dim             ....  322

ORBITAL ENERGIES
----------------

  NO   OCC          E(Eh)            E(eV)
   0   2.0000     -88.966534     -2420.9025
   1   2.0000     -88.964845     -2420.8565
   2   2.0000     -10.337195      -281.2894
   3   2.0000     -10.331925      -281.1460
   4   2.0000     -10.316652      -280.7304
   5   2.0000     -10.307562      -280.4830
   6   2.0000     -10.304060      -280.3877
   7   2.0000     -10.301032      -280.3053
   8   2.0000     -10.295865      -280.1647
   9   2.0000     -10.294139      -280.1178
  10   2.0000     -10.293585      -280.1027
  11   2.0000     -10.292709      -280.0789
  12   2.0000     -10.292534      -280.0741
  13   2.0000     -10.288786      -279.9721
  14   2.0000     -10.285420      -279.8805
  15   2.0000     -10.280583      -279.7489
  16   2.0000      -8.080753      -219.8885
  17   2.0000      -8.080248      -219.8747
  18   2.0000      -6.039146      -164.3335
  19   2.0000      -6.038645      -164.3199
  20   2.0000      -6.035426      -164.2323
  21   2.0000      -6.034463      -164.2061
  22   2.0000      -6.031577      -164.1276
  23   2.0000      -6.031273      -164.1193
  24   2.0000      -1.005551       -27.3624
  25   2.0000      -0.984988       -26.8029
  26   2.0000      -0.913001       -24.8440
  27   2.0000      -0.908754       -24.7285
  28   2.0000      -0.867163       -23.5967
  29   2.0000      -0.851545       -23.1717
  30   2.0000      -0.847315       -23.0566
  31   2.0000      -0.819415       -22.2974
  32   2.0000      -0.778316       -21.1791
  33   2.0000      -0.765660       -20.8347
  34   2.0000      -0.713510       -19.4156
  35   2.0000      -0.695910       -18.9367
  36   2.0000      -0.691235       -18.8095
  37   2.0000      -0.650171       -17.6921
  38   2.0000      -0.642065       -17.4715
  39   2.0000      -0.623593       -16.9688
  40   2.0000      -0.595983       -16.2175
  41   2.0000      -0.576610       -15.6904
  42   2.0000      -0.574292       -15.6273
  43   2.0000      -0.564815       -15.3694
  44   2.0000      -0.525182       -14.2909
  45   2.0000      -0.522231       -14.2106
  46   2.0000      -0.515952       -14.0398
  47   2.0000      -0.511711       -13.9244
  48   2.0000      -0.505392       -13.7524
  49   2.0000      -0.494641       -13.4599
  50   2.0000      -0.493182       -13.4202
  51   2.0000      -0.478952       -13.0330
  52   2.0000      -0.472337       -12.8530
  53   2.0000      -0.469314       -12.7707
  54   2.0000      -0.457718       -12.4551
  55   2.0000      -0.449065       -12.2197
  56   2.0000      -0.447462       -12.1761
  57   2.0000      -0.435601       -11.8533
  58   2.0000      -0.433100       -11.7852
  59   2.0000      -0.429714       -11.6931
  60   2.0000      -0.421916       -11.4809
  61   2.0000      -0.412608       -11.2276
  62   2.0000      -0.405285       -11.0284
  63   2.0000      -0.347106        -9.4452
  64   2.0000      -0.332825        -9.0566
  65   2.0000      -0.324249        -8.8233
  66   2.0000      -0.289152        -7.8682
  67   0.0000       0.026919         0.7325
  68   0.0000       0.062859         1.7105
  69   0.0000       0.114996         3.1292
  70   0.0000       0.120799         3.2871
  71   0.0000       0.129875         3.5341

MULLIKEN ATOMIC CHARGES
-----------------------
   0 S :    0.106815
   1 C :   -0.135460
   2 C :   -0.104747
   3 C :    0.059946
   4 C :   -0.161719
   5 H :    0.001460
   6 C :    0.073094
   7 H :    0.030544
   8 H :    0.042847
   9 C :   -0.088839
  10 H :    0.042702
  11 H :    0.032555
  12 C :   -0.079130
  13 H :    0.044712
  14 H :    0.047881
  15 H :    0.028440
  16 S :    0.104544
  17 C :   -0.042462
  18 C :   -0.084834
  19 C :   -0.057270
  20 C :   -0.136420
  21 H :    0.051061
  22 C :    0.088083
  23 H :    0.046774
  24 H :    0.002951
  25 C :   -0.120914
  26 H :    0.034943
  27 H :    0.024507
  28 C :   -0.044449
  29 H :    0.045278
  30 H :    0.035483
  31 H :    0.021359
  32 H :    0.058270
  33 H :    0.031997
Sum of atomic charges:    0.0000000

LOEWDIN ATOMIC CHARGES
----------------------
   0 S :    0.391485
   1 C :   -0.204968
   2 C :   -0.066629
   3 C :   -0.056967
   4 C :   -0.174962
   5 H :    0.025657
   6 C :   -0.033241
   7 H :    0.035307
   8 H :    0.038054
   9 C :   -0.037134
  10 H :    0.028361
  11 H :    0.019162
  12 C :   -0.073907
  13 H :    0.032039
  14 H :    0.034063
  15 H :    0.021475
  16 S :    0.436457
  17 C :   -0.188933
  18 C :   -0.072614
  19 C :   -0.061578
  20 C :   -0.216917
  21 H :    0.043498
  22 C :   -0.040020
  23 H :    0.037771
  24 H :    0.028224
  25 C :   -0.046474
  26 H :    0.028434
  27 H :    0.016749
  28 C :   -0.065297
  29 H :    0.038114
  30 H :    0.020963
  31 H :    0.019688
  32 H :    0.030624
  33 H :    0.013515

  Mayer bond orders larger than 0.100000
B(  0-S ,  1-C ) :   1.1484 B(  0-S ,  4-C ) :   1.1507 B(  1-C ,  2-C ) :   1.5896
B(  1-C ,  4-C ) :   0.1076 B(  1-C , 32-H ) :   0.9654 B(  2-C ,  3-C ) :   1.2479
B(  2-C ,  6-C ) :   1.0271 B(  3-C ,  4-C ) :   1.5732 B(  3-C ,  5-H ) :   0.9918
B(  4-C , 20-C ) :   1.0235 B(  6-C ,  7-H ) :   0.9465 B(  6-C ,  8-H ) :   0.9196
B(  6-C ,  9-C ) :   1.0730 B(  9-C , 10-H ) :   0.9629 B(  9-C , 11-H ) :   0.9464
B(  9-C , 12-C ) :   1.0807 B( 12-C , 13-H ) :   0.9727 B( 12-C , 14-H ) :   0.9762
B( 12-C , 15-H ) :   0.9763 B( 16-S , 17-C ) :   1.1742 B( 16-S , 20-C ) :   1.1743
B( 17-C , 18-C ) :   1.5776 B( 17-C , 20-C ) :   0.1105 B( 17-C , 33-H ) :   0.9668
B( 18-C , 19-C ) :   1.2967 B( 18-C , 21-H ) :   0.9734 B( 19-C , 20-C ) :   1.5254
B( 19-C , 22-C ) :   1.0530 B( 22-C , 23-H ) :   0.9311 B( 22-C , 24-H ) :   0.9273
B( 22-C , 25-C ) :   1.0546 B( 25-C , 26-H ) :   0.9615 B( 25-C , 27-H ) :   0.9546
B( 25-C , 28-C ) :   1.0873 B( 28-C , 29-H ) :   0.9753 B( 28-C , 30-H ) :   0.9772
B( 28-C , 31-H ) :   0.9727

Dispersion correction           -0.013443345
FINAL SINGLE POINT ENERGY     -1339.867840199027

DIPOLE MOMENT
-------------
                                X             Y             Z
Electronic contribution:    -30.94883      -6.40338       8.15077
Nuclear contribution   :     31.62244       6.56802      -8.35421
                        -----------------------------------------
Total Dipole Moment    :      0.67361       0.16464      -0.20345
                        -----------------------------------------
Magnitude (a.u.)       :      0.72267
Magnitude (Debye)      :      1.83687

Rotational constants in cm-1:     0.015944     0.009020     0.006187
Rotational constants in MHz :   477.998799   270.402026   185.471183

                             ****ORCA TERMINATED NORMALLY****
TOTAL RUN TIME: 0 days 0 hours 0 minutes 21 seconds 142 msec
