                         Program Version 4.2.1 -  RELEASE  -
|  1> ! wB97X-D3 SP def2-SVP
|  2> %pal
|  3> nprocs 24
|  4> end
|  5>
|  6> * xyz 0 1
|  7> S 	 -100.874 	 38.5985 	 -89.4761
|  8> C 	 -101.232 	 37.5147 	 -88.1487
|  9> C 	 -101.121 	 38.1081 	 -86.9293
| 10> C 	 -100.659 	 39.4889 	 -87.0821
| 11> C 	 -100.506 	 39.8937 	 -88.3554
| 12> H 	 -100.482 	 40.1048 	 -86.1894
| 13> C 	 -101.461 	 37.49 	 -85.5908
| 14> H 	 -101.937 	 36.5106 	 -85.7883
| 15> H 	 -102.215 	 38.2154 	 -85.1514
| 16> C 	 -100.217 	 37.2248 	 -84.7126
| 17> H 	 -99.6038 	 38.0981 	 -84.6079
| 18> H 	 -100.481 	 36.932 	 -83.7402
| 19> C 	 -99.3078 	 36.1608 	 -85.3323
| 20> H 	 -99.8572 	 35.2766 	 -85.3976
| 21> H 	 -99.1576 	 36.4046 	 -86.4214
| 22> H 	 -98.4014 	 35.9294 	 -84.7343
| 23> S 	 -99.5189 	 41.6881 	 -90.3173
| 24> C 	 -99.565 	 43.3908 	 -90.0741
| 25> C 	 -100.161 	 43.6593 	 -88.8641
| 26> C 	 -100.645 	 42.4991 	 -88.1673
| 27> C 	 -100.333 	 41.3087 	 -88.7311
| 28> H 	 -100.189 	 44.726 	 -88.5545
| 29> C 	 -101.571 	 42.7728 	 -87.0078
| 30> H 	 -100.987 	 43.2216 	 -86.1986
| 31> H 	 -101.948 	 41.8652 	 -86.6388
| 32> C 	 -102.889 	 43.5291 	 -87.2505
| 33> H 	 -103.381 	 43.0117 	 -88.1569
| 34> H 	 -102.721 	 44.5602 	 -87.593
| 35> C 	 -103.814 	 43.5841 	 -86.0155
| 36> H 	 -104.067 	 42.5267 	 -85.6262
| 37> H 	 -104.798 	 44.0136 	 -86.2713
| 38> H 	 -103.298 	 44.1891 	 -85.2378
| 39> H 	 -101.448 	 36.444 	 -88.2319
| 40> H 	 -99.1659 	 44.0646 	 -90.7856
| 41> *
| 42>
| 43>                          ****END OF INPUT****

CARTESIAN COORDINATES (ANGSTROEM)
---------------------------------
  S    -100.874000   38.598500  -89.476100
  C    -101.232000   37.514700  -88.148700
  C    -101.121000   38.108100  -86.929300
  C    -100.659000   39.488900  -87.082100
  C    -100.506000   39.893700  -88.355400
  H    -100.482000   40.104800  -86.189400
  C    -101.461000   37.490000  -85.590800
  H    -101.937000   36.510600  -85.788300
  H    -102.215000   38.215400  -85.151400
  C    -100.217000   37.224800  -84.712600
  H    -99.603800   38.098100  -84.607900
  H    -100.481000   36.932000  -83.740200
  C    -99.307800   36.160800  -85.332300
  H    -99.857200   35.276600  -85.397600
  H    -99.157600   36.404600  -86.421400
  H    -98.401400   35.929400  -84.734300
  S    -99.518900   41.688100  -90.317300
  C    -99.565000   43.390800  -90.074100
  C    -100.161000   43.659300  -88.864100
  C    -100.645000   42.499100  -88.167300
  C    -100.333000   41.308700  -88.731100
  H    -100.189000   44.726000  -88.554500
  C    -101.571000   42.772800  -87.007800
  H    -100.987000   43.221600  -86.198600
  H    -101.948000   41.865200  -86.638800
  C    -102.889000   43.529100  -87.250500
  H    -103.381000   43.011700  -88.156900
  H    -102.721000   44.560200  -87.593000
  C    -103.814000   43.584100  -86.015500
  H    -104.067000   42.526700  -85.626200
  H    -104.798000   44.013600  -86.271300
  H    -103.298000   44.189100  -85.237800
  H    -101.448000   36.444000  -88.231900
  H    -99.165900   44.064600  -90.785600

 Total Charge           Charge          ....    0
 Multiplicity           Mult            ....    1
 Number of Electrons    NEL             ....  134
 Basis Dimension        Dim             ....  322

ORBITAL ENERGIES
----------------

  NO   OCC          E(Eh)            E(eV)
   0   2.0000     -88.967363     -2420.9250
   1   2.0000     -88.957650     -2420.6607
   2   2.0000     -10.333739      -281.1953
   3   2.0000     -10.332232      -281.1543
   4   2.0000     -10.316256      -280.7196
   5   2.0000     -10.314879      -280.6821
   6   2.0000     -10.304422      -280.3976
   7   2.0000     -10.303841      -280.3818
   8   2.0000     -10.301224      -280.3106
   9   2.0000     -10.295388      -280.1517
  10   2.0000     -10.295183      -280.1462
  11   2.0000     -10.294102      -280.1168
  12   2.0000     -10.292219      -280.0655
  13   2.0000     -10.286110      -279.8993
  14   2.0000     -10.282731      -279.8073
  15   2.0000     -10.274811      -279.5918
  16   2.0000      -8.082201      -219.9279
  17   2.0000      -8.072611      -219.6669
  18   2.0000      -6.041007      -164.3841
  19   2.0000      -6.036811      -164.2700
  20   2.0000      -6.032503      -164.1527
  21   2.0000      -6.031165      -164.1163
  22   2.0000      -6.027086      -164.0053
  23   2.0000      -6.023312      -163.9027
  24   2.0000      -1.008032       -27.4299
  25   2.0000      -0.987012       -26.8580
  26   2.0000      -0.915675       -24.9168
  27   2.0000      -0.908159       -24.7123
  28   2.0000      -0.872866       -23.7519
  29   2.0000      -0.850979       -23.1563
  30   2.0000      -0.842212       -22.9177
  31   2.0000      -0.815727       -22.1971
  32   2.0000      -0.780317       -21.2335
  33   2.0000      -0.775241       -21.0954
  34   2.0000      -0.710485       -19.3333
  35   2.0000      -0.697968       -18.9927
  36   2.0000      -0.693599       -18.8738
  37   2.0000      -0.660094       -17.9621
  38   2.0000      -0.637099       -17.3363
  39   2.0000      -0.626118       -17.0375
  40   2.0000      -0.602311       -16.3897
  41   2.0000      -0.570072       -15.5125
  42   2.0000      -0.564589       -15.3632
  43   2.0000      -0.556908       -15.1543
  44   2.0000      -0.541812       -14.7435
  45   2.0000      -0.522255       -14.2113
  46   2.0000      -0.518897       -14.1199
  47   2.0000      -0.514443       -13.9987
  48   2.0000      -0.504401       -13.7254
  49   2.0000      -0.495728       -13.4894
  50   2.0000      -0.488147       -13.2832
  51   2.0000      -0.483048       -13.1444
  52   2.0000      -0.466152       -12.6846
  53   2.0000      -0.462899       -12.5961
  54   2.0000      -0.459044       -12.4912
  55   2.0000      -0.449923       -12.2430
  56   2.0000      -0.446207       -12.1419
  57   2.0000      -0.442112       -12.0305
  58   2.0000      -0.427355       -11.6289
  59   2.0000      -0.425602       -11.5812
  60   2.0000      -0.419407       -11.4126
  61   2.0000      -0.415625       -11.3097
  62   2.0000      -0.409046       -11.1307
  63   2.0000      -0.361744        -9.8435
  64   2.0000      -0.330859        -9.0031
  65   2.0000      -0.326212        -8.8767
  66   2.0000      -0.294825        -8.0226
  67   0.0000       0.027850         0.7578
  68   0.0000       0.082924         2.2565
  69   0.0000       0.103418         2.8141
  70   0.0000       0.116486         3.1698
  71   0.0000       0.138381         3.7655

MULLIKEN ATOMIC CHARGES
-----------------------
   0 S :    0.108096
   1 C :   -0.118776
   2 C :   -0.126757
   3 C :   -0.024225
   4 C :   -0.060765
   5 H :    0.026683
   6 C :    0.039871
   7 H :    0.023091
   8 H :    0.054432
   9 C :   -0.023088
  10 H :    0.023883
  11 H :    0.017558
  12 C :   -0.063769
  13 H :    0.000735
  14 H :    0.046564
  15 H :    0.048929
  16 S :    0.063270
  17 C :   -0.074999
  18 C :   -0.049710
  19 C :   -0.052271
  20 C :   -0.125582
  21 H :    0.036312
  22 C :    0.081699
  23 H :    0.027870
  24 H :   -0.008120
  25 C :   -0.100346
  26 H :    0.045420
  27 H :    0.026466
  28 C :   -0.078790
  29 H :    0.042429
  30 H :    0.046108
  31 H :    0.044483
  32 H :    0.049743
  33 H :    0.053554
Sum of atomic charges:    0.0000000

LOEWDIN ATOMIC CHARGES
----------------------
   0 S :    0.396481
   1 C :   -0.197495
   2 C :   -0.067575
   3 C :   -0.062706
   4 C :   -0.187949
   5 H :    0.034523
   6 C :   -0.030336
   7 H :    0.031017
   8 H :    0.042992
   9 C :   -0.034762
  10 H :    0.020123
  11 H :    0.016210
  12 C :   -0.067278
  13 H :    0.010820
  14 H :    0.034886
  15 H :    0.032922
  16 S :    0.369961
  17 C :   -0.175151
  18 C :   -0.079234
  19 C :   -0.059564
  20 C :   -0.165011
  21 H :    0.038620
  22 C :   -0.034569
  23 H :    0.030871
  24 H :    0.018455
  25 C :   -0.045765
  26 H :    0.034450
  27 H :    0.017918
  28 C :   -0.072561
  29 H :    0.031703
  30 H :    0.030630
  31 H :    0.029625
  32 H :    0.032298
  33 H :    0.025452

  Mayer bond orders larger than 0.100000
B(  0-S ,  1-C ) :   1.1164 B(  0-S ,  4-C ) :   1.1254 B(  1-C ,  2-C ) :   1.6581
B(  1-C , 32-H ) :   0.9581 B(  2-C ,  3-C ) :   1.2055 B(  2-C ,  6-C ) :   1.0203
B(  3-C ,  4-C ) :   1.6070 B(  3-C ,  5-H ) :   0.9918 B(  4-C , 20-C ) :   1.0391
B(  6-C ,  7-H ) :   0.9444 B(  6-C ,  8-H ) :   0.9399 B(  6-C ,  9-C ) :   1.0611
B(  9-C , 10-H ) :   0.9600 B(  9-C , 11-H ) :   0.9559 B(  9-C , 12-C ) :   1.0683
B( 12-C , 13-H ) :   0.9725 B( 12-C , 14-H ) :   0.9733 B( 12-C , 15-H ) :   0.9725
B( 16-S , 17-C ) :   1.1631 B( 16-S , 20-C ) :   1.0972 B( 17-C , 18-C ) :   1.6130
B( 17-C , 33-H ) :   0.9742 B( 18-C , 19-C ) :   1.2046 B( 18-C , 21-H ) :   0.9898
B( 19-C , 20-C ) :   1.6477 B( 19-C , 22-C ) :   1.0486 B( 22-C , 23-H ) :   0.9257
B( 22-C , 24-H ) :   0.9342 B( 22-C , 25-C ) :   1.0553 B( 25-C , 26-H ) :   0.9547
B( 25-C , 27-H ) :   0.9507 B( 25-C , 28-C ) :   1.0814 B( 28-C , 29-H ) :   0.9735
B( 28-C , 30-H ) :   0.9734 B( 28-C , 31-H ) :   0.9733

Dispersion correction           -0.014080485
FINAL SINGLE POINT ENERGY     -1339.883620622624

DIPOLE MOMENT
-------------
                                X             Y             Z
Electronic contribution:      8.98003       0.83763     -24.66938
Nuclear contribution   :     -9.27008      -0.66880      25.38183
                        -----------------------------------------
Total Dipole Moment    :     -0.29005       0.16883       0.71245
                        -----------------------------------------
Magnitude (a.u.)       :      0.78754
Magnitude (Debye)      :      2.00176

Rotational constants in cm-1:     0.017948     0.008577     0.006633
Rotational constants in MHz :   538.074461   257.118696   198.856178

                             ****ORCA TERMINATED NORMALLY****
TOTAL RUN TIME: 0 days 0 hours 0 minutes 21 seconds 553 msec
