                         Program Version 4.2.1 -  RELEASE  -
|  1> ! wB97X-D3 SP def2-SVP
|  2> %pal
|  3> nprocs 24
|  4> end
|  5>
|  6> * xyz 0 1
|  7> S 	 -99.144 	 -0.887641 	 -119.964
|  8> C 	 -100.057 	 -0.910061 	 -121.466
|  9> C 	 -100.363 	 0.404804 	 -121.859
| 10> C 	 -99.7683 	 1.36976 	 -121.019
| 11> C 	 -99.1694 	 0.866725 	 -119.85
| 12> H 	 -99.906 	 2.4398 	 -121.024
| 13> C 	 -101.22 	 0.749561 	 -123.097
| 14> H 	 -101.318 	 1.85546 	 -123.107
| 15> H 	 -102.273 	 0.38849 	 -122.937
| 16> C 	 -100.721 	 0.290021 	 -124.469
| 17> H 	 -99.6805 	 0.442204 	 -124.652
| 18> H 	 -100.85 	 -0.762951 	 -124.536
| 19> C 	 -101.51 	 0.783123 	 -125.699
| 20> H 	 -101.152 	 0.287031 	 -126.628
| 21> H 	 -102.602 	 0.501815 	 -125.626
| 22> H 	 -101.493 	 1.90736 	 -125.827
| 23> S 	 -98.5673 	 1.04279 	 -117.152
| 24> C 	 -97.6686 	 2.44797 	 -116.452
| 25> C 	 -97.325 	 3.27093 	 -117.508
| 26> C 	 -97.8074 	 2.89728 	 -118.827
| 27> C 	 -98.5251 	 1.63287 	 -118.755
| 28> H 	 -96.7665 	 4.15356 	 -117.331
| 29> C 	 -97.4619 	 3.65613 	 -120.072
| 30> H 	 -97.3577 	 4.70655 	 -119.685
| 31> H 	 -98.2178 	 3.49687 	 -120.828
| 32> C 	 -96.163 	 3.11425 	 -120.775
| 33> H 	 -96.4619 	 2.27148 	 -121.443
| 34> H 	 -95.3956 	 2.58796 	 -120.147
| 35> C 	 -95.5225 	 4.1159 	 -121.786
| 36> H 	 -94.8767 	 4.87824 	 -121.314
| 37> H 	 -96.2665 	 4.61207 	 -122.306
| 38> H 	 -94.8452 	 3.58724 	 -122.514
| 39> H 	 -100.32 	 -1.81902 	 -121.983
| 40> H 	 -97.2687 	 2.37532 	 -115.435
| 41> *
| 42>
| 43>                          ****END OF INPUT****

CARTESIAN COORDINATES (ANGSTROEM)
---------------------------------
  S    -99.144000   -0.887641  -119.964000
  C    -100.057000   -0.910061  -121.466000
  C    -100.363000    0.404804  -121.859000
  C    -99.768300    1.369760  -121.019000
  C    -99.169400    0.866725  -119.850000
  H    -99.906000    2.439800  -121.024000
  C    -101.220000    0.749561  -123.097000
  H    -101.318000    1.855460  -123.107000
  H    -102.273000    0.388490  -122.937000
  C    -100.721000    0.290021  -124.469000
  H    -99.680500    0.442204  -124.652000
  H    -100.850000   -0.762951  -124.536000
  C    -101.510000    0.783123  -125.699000
  H    -101.152000    0.287031  -126.628000
  H    -102.602000    0.501815  -125.626000
  H    -101.493000    1.907360  -125.827000
  S    -98.567300    1.042790  -117.152000
  C    -97.668600    2.447970  -116.452000
  C    -97.325000    3.270930  -117.508000
  C    -97.807400    2.897280  -118.827000
  C    -98.525100    1.632870  -118.755000
  H    -96.766500    4.153560  -117.331000
  C    -97.461900    3.656130  -120.072000
  H    -97.357700    4.706550  -119.685000
  H    -98.217800    3.496870  -120.828000
  C    -96.163000    3.114250  -120.775000
  H    -96.461900    2.271480  -121.443000
  H    -95.395600    2.587960  -120.147000
  C    -95.522500    4.115900  -121.786000
  H    -94.876700    4.878240  -121.314000
  H    -96.266500    4.612070  -122.306000
  H    -94.845200    3.587240  -122.514000
  H    -100.320000   -1.819020  -121.983000
  H    -97.268700    2.375320  -115.435000

 Total Charge           Charge          ....    0
 Multiplicity           Mult            ....    1
 Number of Electrons    NEL             ....  134
 Basis Dimension        Dim             ....  322

ORBITAL ENERGIES
----------------

  NO   OCC          E(Eh)            E(eV)
   0   2.0000     -88.970090     -2420.9992
   1   2.0000     -88.965867     -2420.8843
   2   2.0000     -10.337769      -281.3050
   3   2.0000     -10.336417      -281.2682
   4   2.0000     -10.325213      -280.9633
   5   2.0000     -10.319373      -280.8044
   6   2.0000     -10.311268      -280.5839
   7   2.0000     -10.308915      -280.5199
   8   2.0000     -10.302155      -280.3359
   9   2.0000     -10.300200      -280.2827
  10   2.0000     -10.299942      -280.2757
  11   2.0000     -10.296879      -280.1923
  12   2.0000     -10.292733      -280.0795
  13   2.0000     -10.290733      -280.0251
  14   2.0000     -10.284593      -279.8580
  15   2.0000     -10.277883      -279.6754
  16   2.0000      -8.084266      -219.9841
  17   2.0000      -8.080403      -219.8789
  18   2.0000      -6.042744      -164.4314
  19   2.0000      -6.038948      -164.3281
  20   2.0000      -6.038660      -164.3203
  21   2.0000      -6.035277      -164.2282
  22   2.0000      -6.034738      -164.2136
  23   2.0000      -6.031334      -164.1210
  24   2.0000      -1.002023       -27.2664
  25   2.0000      -0.979615       -26.6567
  26   2.0000      -0.908162       -24.7123
  27   2.0000      -0.902832       -24.5673
  28   2.0000      -0.868196       -23.6248
  29   2.0000      -0.850257       -23.1367
  30   2.0000      -0.844472       -22.9793
  31   2.0000      -0.815510       -22.1911
  32   2.0000      -0.778919       -21.1955
  33   2.0000      -0.766287       -20.8517
  34   2.0000      -0.705622       -19.2009
  35   2.0000      -0.701516       -19.0892
  36   2.0000      -0.690146       -18.7798
  37   2.0000      -0.664486       -18.0816
  38   2.0000      -0.643970       -17.5233
  39   2.0000      -0.618317       -16.8253
  40   2.0000      -0.595678       -16.2092
  41   2.0000      -0.567058       -15.4304
  42   2.0000      -0.562589       -15.3088
  43   2.0000      -0.553031       -15.0487
  44   2.0000      -0.528727       -14.3874
  45   2.0000      -0.521282       -14.1848
  46   2.0000      -0.516557       -14.0562
  47   2.0000      -0.516173       -14.0458
  48   2.0000      -0.502347       -13.6696
  49   2.0000      -0.501109       -13.6359
  50   2.0000      -0.486163       -13.2292
  51   2.0000      -0.485338       -13.2067
  52   2.0000      -0.474544       -12.9130
  53   2.0000      -0.464291       -12.6340
  54   2.0000      -0.457940       -12.4612
  55   2.0000      -0.446247       -12.1430
  56   2.0000      -0.442467       -12.0401
  57   2.0000      -0.438955       -11.9446
  58   2.0000      -0.435400       -11.8478
  59   2.0000      -0.425747       -11.5852
  60   2.0000      -0.418083       -11.3766
  61   2.0000      -0.412477       -11.2241
  62   2.0000      -0.408553       -11.1173
  63   2.0000      -0.355867        -9.6836
  64   2.0000      -0.336763        -9.1638
  65   2.0000      -0.326692        -8.8897
  66   2.0000      -0.283284        -7.7085
  67   0.0000       0.016165         0.4399
  68   0.0000       0.074731         2.0335
  69   0.0000       0.109728         2.9858
  70   0.0000       0.115414         3.1406
  71   0.0000       0.132160         3.5963

MULLIKEN ATOMIC CHARGES
-----------------------
   0 S :    0.112015
   1 C :   -0.127382
   2 C :   -0.064706
   3 C :   -0.004035
   4 C :   -0.140164
   5 H :    0.026516
   6 C :    0.051947
   7 H :    0.018849
   8 H :    0.045596
   9 C :   -0.042617
  10 H :    0.029625
  11 H :    0.016277
  12 C :   -0.101216
  13 H :    0.043728
  14 H :    0.033692
  15 H :    0.042251
  16 S :    0.088446
  17 C :   -0.111279
  18 C :   -0.009666
  19 C :   -0.074318
  20 C :   -0.137396
  21 H :    0.011386
  22 C :    0.083496
  23 H :    0.042695
  24 H :    0.017808
  25 C :   -0.111822
  26 H :    0.036847
  27 H :    0.043438
  28 C :   -0.041885
  29 H :    0.033576
  30 H :    0.015687
  31 H :    0.038534
  32 H :    0.053668
  33 H :    0.080408
Sum of atomic charges:    0.0000000

LOEWDIN ATOMIC CHARGES
----------------------
   0 S :    0.409843
   1 C :   -0.194227
   2 C :   -0.061990
   3 C :   -0.073199
   4 C :   -0.189299
   5 H :    0.029755
   6 C :   -0.033834
   7 H :    0.028954
   8 H :    0.040001
   9 C :   -0.044521
  10 H :    0.023361
  11 H :    0.020285
  12 C :   -0.073637
  13 H :    0.031136
  14 H :    0.027519
  15 H :    0.026411
  16 S :    0.403186
  17 C :   -0.180394
  18 C :   -0.061139
  19 C :   -0.058947
  20 C :   -0.211484
  21 H :    0.026026
  22 C :   -0.035214
  23 H :    0.039393
  24 H :    0.030268
  25 C :   -0.046670
  26 H :    0.031172
  27 H :    0.028366
  28 C :   -0.065522
  29 H :    0.023846
  30 H :    0.012319
  31 H :    0.032658
  32 H :    0.028154
  33 H :    0.037425

  Mayer bond orders larger than 0.100000
B(  0-S ,  1-C ) :   1.1540 B(  0-S ,  4-C ) :   1.1657 B(  1-C ,  2-C ) :   1.5549
B(  1-C ,  4-C ) :   0.1120 B(  1-C , 32-H ) :   0.9769 B(  2-C ,  3-C ) :   1.2929
B(  2-C ,  6-C ) :   1.0161 B(  3-C ,  4-C ) :   1.5424 B(  3-C ,  5-H ) :   0.9776
B(  4-C , 20-C ) :   1.0564 B(  6-C ,  7-H ) :   0.9473 B(  6-C ,  8-H ) :   0.9368
B(  6-C ,  9-C ) :   1.0623 B(  9-C , 10-H ) :   0.9588 B(  9-C , 11-H ) :   0.9495
B(  9-C , 12-C ) :   1.0840 B( 12-C , 13-H ) :   0.9742 B( 12-C , 14-H ) :   0.9739
B( 12-C , 15-H ) :   0.9764 B( 16-S , 17-C ) :   1.1375 B( 16-S , 20-C ) :   1.1762
B( 17-C , 18-C ) :   1.5789 B( 17-C , 20-C ) :   0.1037 B( 17-C , 33-H ) :   0.9689
B( 18-C , 19-C ) :   1.2778 B( 18-C , 21-H ) :   0.9889 B( 19-C , 20-C ) :   1.5030
B( 19-C , 22-C ) :   1.0612 B( 22-C , 23-H ) :   0.9391 B( 22-C , 24-H ) :   0.9230
B( 22-C , 25-C ) :   1.0400 B( 25-C , 26-H ) :   0.9563 B( 25-C , 27-H ) :   0.9652
B( 25-C , 28-C ) :   1.0710 B( 28-C , 29-H ) :   0.9784 B( 28-C , 30-H ) :   0.9733
B( 28-C , 31-H ) :   0.9767

Dispersion correction           -0.013640975
FINAL SINGLE POINT ENERGY     -1339.875867164120

DIPOLE MOMENT
-------------
                                X             Y             Z
Electronic contribution:     -1.38367     -12.43392      28.87178
Nuclear contribution   :      1.48351      12.72985     -29.39360
                        -----------------------------------------
Total Dipole Moment    :      0.09984       0.29593      -0.52182
                        -----------------------------------------
Magnitude (a.u.)       :      0.60815
Magnitude (Debye)      :      1.54579

Rotational constants in cm-1:     0.018675     0.008006     0.006136
Rotational constants in MHz :   559.871764   240.003678   183.941601

                             ****ORCA TERMINATED NORMALLY****
TOTAL RUN TIME: 0 days 0 hours 0 minutes 21 seconds 87 msec
