                         Program Version 4.2.1 -  RELEASE  -
|  1> ! wB97X-D3 SP def2-SVP
|  2> %pal
|  3> nprocs 24
|  4> end
|  5>
|  6> * xyz 0 1
|  7> S 	 18.7495 	 -19.4989 	 -122.397
|  8> C 	 18.6342 	 -19.9173 	 -124.076
|  9> C 	 19.892 	 -19.7433 	 -124.706
| 10> C 	 20.9175 	 -19.5402 	 -123.765
| 11> C 	 20.459 	 -19.353 	 -122.449
| 12> H 	 22.0093 	 -19.4239 	 -123.984
| 13> C 	 20.116 	 -19.8763 	 -126.167
| 14> H 	 20.9771 	 -19.2961 	 -126.495
| 15> H 	 19.348 	 -19.3816 	 -126.762
| 16> C 	 20.3241 	 -21.3662 	 -126.624
| 17> H 	 21.0433 	 -21.8028 	 -125.899
| 18> H 	 19.3497 	 -21.8801 	 -126.739
| 19> C 	 21.2017 	 -21.5016 	 -127.905
| 20> H 	 20.7807 	 -21.0562 	 -128.856
| 21> H 	 22.1986 	 -21.0113 	 -127.807
| 22> H 	 21.2684 	 -22.5058 	 -128.089
| 23> S 	 20.6973 	 -18.063 	 -120.044
| 24> C 	 22.1385 	 -18.078 	 -119.084
| 25> C 	 23.081 	 -18.909 	 -119.64
| 26> C 	 22.5867 	 -19.5088 	 -120.892
| 27> C 	 21.2707 	 -19.1779 	 -121.254
| 28> H 	 24.1142 	 -18.9965 	 -119.192
| 29> C 	 23.4239 	 -20.457 	 -121.641
| 30> H 	 24.0422 	 -19.8545 	 -122.357
| 31> H 	 22.8035 	 -21.0857 	 -122.311
| 32> C 	 24.3947 	 -21.3288 	 -120.827
| 33> H 	 23.9103 	 -22.1663 	 -120.291
| 34> H 	 24.9093 	 -20.7166 	 -120.05
| 35> C 	 25.4298 	 -22.0094 	 -121.728
| 36> H 	 24.9704 	 -22.7907 	 -122.334
| 37> H 	 26.2671 	 -22.5146 	 -121.176
| 38> H 	 25.8606 	 -21.3828 	 -122.522
| 39> H 	 17.7415 	 -20.0305 	 -124.768
| 40> H 	 22.1725 	 -17.5515 	 -118.152
| 41> *
| 42>
| 43>                          ****END OF INPUT****

CARTESIAN COORDINATES (ANGSTROEM)
---------------------------------
  S     18.749500  -19.498900  -122.397000
  C     18.634200  -19.917300  -124.076000
  C     19.892000  -19.743300  -124.706000
  C     20.917500  -19.540200  -123.765000
  C     20.459000  -19.353000  -122.449000
  H     22.009300  -19.423900  -123.984000
  C     20.116000  -19.876300  -126.167000
  H     20.977100  -19.296100  -126.495000
  H     19.348000  -19.381600  -126.762000
  C     20.324100  -21.366200  -126.624000
  H     21.043300  -21.802800  -125.899000
  H     19.349700  -21.880100  -126.739000
  C     21.201700  -21.501600  -127.905000
  H     20.780700  -21.056200  -128.856000
  H     22.198600  -21.011300  -127.807000
  H     21.268400  -22.505800  -128.089000
  S     20.697300  -18.063000  -120.044000
  C     22.138500  -18.078000  -119.084000
  C     23.081000  -18.909000  -119.640000
  C     22.586700  -19.508800  -120.892000
  C     21.270700  -19.177900  -121.254000
  H     24.114200  -18.996500  -119.192000
  C     23.423900  -20.457000  -121.641000
  H     24.042200  -19.854500  -122.357000
  H     22.803500  -21.085700  -122.311000
  C     24.394700  -21.328800  -120.827000
  H     23.910300  -22.166300  -120.291000
  H     24.909300  -20.716600  -120.050000
  C     25.429800  -22.009400  -121.728000
  H     24.970400  -22.790700  -122.334000
  H     26.267100  -22.514600  -121.176000
  H     25.860600  -21.382800  -122.522000
  H     17.741500  -20.030500  -124.768000
  H     22.172500  -17.551500  -118.152000

 Total Charge           Charge          ....    0
 Multiplicity           Mult            ....    1
 Number of Electrons    NEL             ....  134
 Basis Dimension        Dim             ....  322

ORBITAL ENERGIES
----------------

  NO   OCC          E(Eh)            E(eV)
   0   2.0000     -88.973193     -2421.0837
   1   2.0000     -88.959240     -2420.7040
   2   2.0000     -10.332823      -281.1704
   3   2.0000     -10.329158      -281.0707
   4   2.0000     -10.319714      -280.8137
   5   2.0000     -10.318175      -280.7718
   6   2.0000     -10.307940      -280.4933
   7   2.0000     -10.303535      -280.3734
   8   2.0000     -10.301468      -280.3172
   9   2.0000     -10.298570      -280.2383
  10   2.0000     -10.296612      -280.1851
  11   2.0000     -10.292873      -280.0833
  12   2.0000     -10.292044      -280.0607
  13   2.0000     -10.291334      -280.0414
  14   2.0000     -10.280973      -279.7595
  15   2.0000     -10.280041      -279.7341
  16   2.0000      -8.088031      -220.0865
  17   2.0000      -8.075005      -219.7320
  18   2.0000      -6.046509      -164.5339
  19   2.0000      -6.042396      -164.4220
  20   2.0000      -6.038940      -164.3279
  21   2.0000      -6.033522      -164.1805
  22   2.0000      -6.029228      -164.0636
  23   2.0000      -6.025827      -163.9711
  24   2.0000      -1.010619       -27.5003
  25   2.0000      -0.987225       -26.8638
  26   2.0000      -0.912119       -24.8200
  27   2.0000      -0.910070       -24.7643
  28   2.0000      -0.870716       -23.6934
  29   2.0000      -0.853905       -23.2359
  30   2.0000      -0.844260       -22.9735
  31   2.0000      -0.815689       -22.1960
  32   2.0000      -0.781062       -21.2538
  33   2.0000      -0.767392       -20.8818
  34   2.0000      -0.707209       -19.2441
  35   2.0000      -0.699065       -19.0225
  36   2.0000      -0.698025       -18.9942
  37   2.0000      -0.655431       -17.8352
  38   2.0000      -0.635566       -17.2946
  39   2.0000      -0.620828       -16.8936
  40   2.0000      -0.601138       -16.3578
  41   2.0000      -0.571863       -15.5612
  42   2.0000      -0.563130       -15.3236
  43   2.0000      -0.559938       -15.2367
  44   2.0000      -0.528439       -14.3796
  45   2.0000      -0.527007       -14.3406
  46   2.0000      -0.518134       -14.0991
  47   2.0000      -0.512483       -13.9454
  48   2.0000      -0.509919       -13.8756
  49   2.0000      -0.493145       -13.4192
  50   2.0000      -0.488088       -13.2815
  51   2.0000      -0.484879       -13.1942
  52   2.0000      -0.467104       -12.7105
  53   2.0000      -0.462679       -12.5901
  54   2.0000      -0.457084       -12.4379
  55   2.0000      -0.454761       -12.3747
  56   2.0000      -0.447275       -12.1710
  57   2.0000      -0.435853       -11.8602
  58   2.0000      -0.434376       -11.8200
  59   2.0000      -0.424830       -11.5602
  60   2.0000      -0.420254       -11.4357
  61   2.0000      -0.415186       -11.2978
  62   2.0000      -0.408662       -11.1203
  63   2.0000      -0.357059        -9.7161
  64   2.0000      -0.334197        -9.0940
  65   2.0000      -0.322719        -8.7816
  66   2.0000      -0.285611        -7.7719
  67   0.0000       0.022917         0.6236
  68   0.0000       0.077811         2.1173
  69   0.0000       0.108781         2.9601
  70   0.0000       0.121183         3.2976
  71   0.0000       0.130048         3.5388

MULLIKEN ATOMIC CHARGES
-----------------------
   0 S :    0.136741
   1 C :   -0.124397
   2 C :   -0.101621
   3 C :   -0.009457
   4 C :   -0.135180
   5 H :    0.028447
   6 C :    0.060372
   7 H :    0.012295
   8 H :    0.024900
   9 C :   -0.084422
  10 H :    0.041357
  11 H :    0.048285
  12 C :   -0.059961
  13 H :    0.027966
  14 H :    0.039373
  15 H :    0.022118
  16 S :    0.075736
  17 C :   -0.083576
  18 C :   -0.045253
  19 C :   -0.071433
  20 C :   -0.098223
  21 H :    0.052025
  22 C :    0.016802
  23 H :    0.038315
  24 H :    0.035973
  25 C :   -0.068182
  26 H :    0.043138
  27 H :    0.032083
  28 C :   -0.073804
  29 H :    0.023722
  30 H :    0.043394
  31 H :    0.023002
  32 H :    0.069867
  33 H :    0.059599
Sum of atomic charges:    0.0000000

LOEWDIN ATOMIC CHARGES
----------------------
   0 S :    0.443677
   1 C :   -0.223157
   2 C :   -0.065761
   3 C :   -0.070995
   4 C :   -0.208203
   5 H :    0.038711
   6 C :   -0.041471
   7 H :    0.029871
   8 H :    0.030332
   9 C :   -0.034091
  10 H :    0.033323
  11 H :    0.029383
  12 C :   -0.068748
  13 H :    0.025147
  14 H :    0.028831
  15 H :    0.013202
  16 S :    0.406321
  17 C :   -0.180840
  18 C :   -0.082750
  19 C :   -0.058364
  20 C :   -0.203386
  21 H :    0.044730
  22 C :   -0.044093
  23 H :    0.035768
  24 H :    0.033741
  25 C :   -0.042338
  26 H :    0.032042
  27 H :    0.023345
  28 C :   -0.075379
  29 H :    0.023627
  30 H :    0.031911
  31 H :    0.021732
  32 H :    0.045813
  33 H :    0.028069

  Mayer bond orders larger than 0.100000
B(  0-S ,  1-C ) :   1.1578 B(  0-S ,  4-C ) :   1.1761 B(  1-C ,  2-C ) :   1.5556
B(  1-C ,  4-C ) :   0.1118 B(  1-C , 32-H ) :   0.9571 B(  2-C ,  3-C ) :   1.2909
B(  2-C ,  6-C ) :   1.0486 B(  3-C ,  4-C ) :   1.5168 B(  3-C ,  5-H ) :   0.9864
B(  4-C , 20-C ) :   1.0464 B(  6-C ,  7-H ) :   0.9422 B(  6-C ,  8-H ) :   0.9334
B(  6-C ,  9-C ) :   1.0487 B(  9-C , 10-H ) :   0.9603 B(  9-C , 11-H ) :   0.9576
B(  9-C , 12-C ) :   1.0755 B( 12-C , 13-H ) :   0.9739 B( 12-C , 14-H ) :   0.9756
B( 12-C , 15-H ) :   0.9762 B( 16-S , 17-C ) :   1.1765 B( 16-S , 20-C ) :   1.1218
B( 17-C , 18-C ) :   1.5918 B( 17-C , 33-H ) :   0.9694 B( 18-C , 19-C ) :   1.2349
B( 18-C , 21-H ) :   0.9791 B( 19-C , 20-C ) :   1.5860 B( 19-C , 22-C ) :   1.0568
B( 22-C , 23-H ) :   0.9209 B( 22-C , 24-H ) :   0.9419 B( 22-C , 25-C ) :   1.0603
B( 25-C , 26-H ) :   0.9534 B( 25-C , 27-H ) :   0.9521 B( 25-C , 28-C ) :   1.0784
B( 28-C , 29-H ) :   0.9740 B( 28-C , 30-H ) :   0.9747 B( 28-C , 31-H ) :   0.9752

Dispersion correction           -0.013364275
FINAL SINGLE POINT ENERGY     -1339.877480098812

DIPOLE MOMENT
-------------
                                X             Y             Z
Electronic contribution:    -19.51737      16.20236      20.32510
Nuclear contribution   :     20.03635     -16.40988     -20.77180
                        -----------------------------------------
Total Dipole Moment    :      0.51897      -0.20752      -0.44669
                        -----------------------------------------
Magnitude (a.u.)       :      0.71549
Magnitude (Debye)      :      1.81864

Rotational constants in cm-1:     0.016794     0.008723     0.006052
Rotational constants in MHz :   503.471362   261.515155   181.448343

                             ****ORCA TERMINATED NORMALLY****
TOTAL RUN TIME: 0 days 0 hours 0 minutes 21 seconds 151 msec
