                         Program Version 4.2.1 -  RELEASE  -
|  1> ! wB97X-D3 SP def2-SVP
|  2> %pal
|  3> nprocs 24
|  4> end
|  5>
|  6> * xyz 0 1
|  7> S 	 -70.9959 	 -42.6144 	 -93.7947
|  8> C 	 -70.9318 	 -40.9769 	 -93.7585
|  9> C 	 -71.8325 	 -40.4611 	 -94.6674
| 10> C 	 -72.5652 	 -41.4724 	 -95.3842
| 11> C 	 -72.2665 	 -42.7134 	 -94.9643
| 12> H 	 -73.3517 	 -41.3429 	 -96.0525
| 13> C 	 -72.2225 	 -39.0576 	 -94.7702
| 14> H 	 -73.1683 	 -38.9332 	 -94.1878
| 15> H 	 -72.4531 	 -38.9528 	 -95.8321
| 16> C 	 -71.1085 	 -38.1334 	 -94.2171
| 17> H 	 -71.4006 	 -37.1689 	 -94.0927
| 18> H 	 -71.02 	 -38.3727 	 -93.2472
| 19> C 	 -69.8705 	 -38.1971 	 -95.0976
| 20> H 	 -69.0193 	 -37.632 	 -94.6745
| 21> H 	 -69.5737 	 -39.2164 	 -95.3158
| 22> H 	 -70.1679 	 -37.7427 	 -96.0227
| 23> S 	 -71.7566 	 -45.049 	 -96.3718
| 24> C 	 -73.1264 	 -46.0683 	 -96.5855
| 25> C 	 -74.3263 	 -45.4672 	 -96.2736
| 26> C 	 -74.2131 	 -44.2849 	 -95.5243
| 27> C 	 -72.8292 	 -43.9289 	 -95.4684
| 28> H 	 -75.2951 	 -45.9509 	 -96.5964
| 29> C 	 -75.3512 	 -43.5448 	 -94.8793
| 30> H 	 -76.2817 	 -43.7952 	 -95.4199
| 31> H 	 -75.2395 	 -42.4536 	 -94.9868
| 32> C 	 -75.5838 	 -43.7146 	 -93.356
| 33> H 	 -76.4438 	 -43.1455 	 -93.0806
| 34> H 	 -74.6633 	 -43.3393 	 -92.873
| 35> C 	 -75.9475 	 -45.1711 	 -93.0418
| 36> H 	 -76.0636 	 -45.3642 	 -91.948
| 37> H 	 -75.1145 	 -45.89 	 -93.3041
| 38> H 	 -76.8743 	 -45.4148 	 -93.4622
| 39> H 	 -70.2673 	 -40.4468 	 -93.0474
| 40> H 	 -73.2233 	 -47.0532 	 -97.0643
| 41> *
| 42>
| 43>                          ****END OF INPUT****

CARTESIAN COORDINATES (ANGSTROEM)
---------------------------------
  S    -70.995900  -42.614400  -93.794700
  C    -70.931800  -40.976900  -93.758500
  C    -71.832500  -40.461100  -94.667400
  C    -72.565200  -41.472400  -95.384200
  C    -72.266500  -42.713400  -94.964300
  H    -73.351700  -41.342900  -96.052500
  C    -72.222500  -39.057600  -94.770200
  H    -73.168300  -38.933200  -94.187800
  H    -72.453100  -38.952800  -95.832100
  C    -71.108500  -38.133400  -94.217100
  H    -71.400600  -37.168900  -94.092700
  H    -71.020000  -38.372700  -93.247200
  C    -69.870500  -38.197100  -95.097600
  H    -69.019300  -37.632000  -94.674500
  H    -69.573700  -39.216400  -95.315800
  H    -70.167900  -37.742700  -96.022700
  S    -71.756600  -45.049000  -96.371800
  C    -73.126400  -46.068300  -96.585500
  C    -74.326300  -45.467200  -96.273600
  C    -74.213100  -44.284900  -95.524300
  C    -72.829200  -43.928900  -95.468400
  H    -75.295100  -45.950900  -96.596400
  C    -75.351200  -43.544800  -94.879300
  H    -76.281700  -43.795200  -95.419900
  H    -75.239500  -42.453600  -94.986800
  C    -75.583800  -43.714600  -93.356000
  H    -76.443800  -43.145500  -93.080600
  H    -74.663300  -43.339300  -92.873000
  C    -75.947500  -45.171100  -93.041800
  H    -76.063600  -45.364200  -91.948000
  H    -75.114500  -45.890000  -93.304100
  H    -76.874300  -45.414800  -93.462200
  H    -70.267300  -40.446800  -93.047400
  H    -73.223300  -47.053200  -97.064300

 Total Charge           Charge          ....    0
 Multiplicity           Mult            ....    1
 Number of Electrons    NEL             ....  134
 Basis Dimension        Dim             ....  322

ORBITAL ENERGIES
----------------

  NO   OCC          E(Eh)            E(eV)
   0   2.0000     -88.971517     -2421.0381
   1   2.0000     -88.956788     -2420.6373
   2   2.0000     -10.326627      -281.0018
   3   2.0000     -10.315272      -280.6928
   4   2.0000     -10.312789      -280.6253
   5   2.0000     -10.306031      -280.4414
   6   2.0000     -10.305738      -280.4334
   7   2.0000     -10.293832      -280.1094
   8   2.0000     -10.292865      -280.0831
   9   2.0000     -10.291667      -280.0505
  10   2.0000     -10.287186      -279.9286
  11   2.0000     -10.285588      -279.8851
  12   2.0000     -10.282242      -279.7940
  13   2.0000     -10.273922      -279.5676
  14   2.0000     -10.272806      -279.5373
  15   2.0000     -10.268448      -279.4187
  16   2.0000      -8.085651      -220.0218
  17   2.0000      -8.074535      -219.7193
  18   2.0000      -6.044002      -164.4657
  19   2.0000      -6.040435      -164.3686
  20   2.0000      -6.036414      -164.2592
  21   2.0000      -6.032740      -164.1592
  22   2.0000      -6.028412      -164.0414
  23   2.0000      -6.025638      -163.9660
  24   2.0000      -1.017807       -27.6959
  25   2.0000      -0.988958       -26.9109
  26   2.0000      -0.920764       -25.0553
  27   2.0000      -0.908915       -24.7328
  28   2.0000      -0.875342       -23.8193
  29   2.0000      -0.854880       -23.2625
  30   2.0000      -0.849508       -23.1163
  31   2.0000      -0.810594       -22.0574
  32   2.0000      -0.782302       -21.2875
  33   2.0000      -0.766559       -20.8591
  34   2.0000      -0.721499       -19.6330
  35   2.0000      -0.708547       -19.2805
  36   2.0000      -0.685188       -18.6449
  37   2.0000      -0.661500       -18.0003
  38   2.0000      -0.644279       -17.5317
  39   2.0000      -0.606514       -16.5041
  40   2.0000      -0.590620       -16.0716
  41   2.0000      -0.577446       -15.7131
  42   2.0000      -0.558402       -15.1949
  43   2.0000      -0.556435       -15.1414
  44   2.0000      -0.543798       -14.7975
  45   2.0000      -0.530886       -14.4462
  46   2.0000      -0.521932       -14.2025
  47   2.0000      -0.511194       -13.9103
  48   2.0000      -0.499809       -13.6005
  49   2.0000      -0.491578       -13.3765
  50   2.0000      -0.487665       -13.2700
  51   2.0000      -0.481463       -13.1013
  52   2.0000      -0.475548       -12.9403
  53   2.0000      -0.469812       -12.7842
  54   2.0000      -0.460785       -12.5386
  55   2.0000      -0.450662       -12.2631
  56   2.0000      -0.444860       -12.1052
  57   2.0000      -0.435400       -11.8478
  58   2.0000      -0.428458       -11.6589
  59   2.0000      -0.425749       -11.5852
  60   2.0000      -0.423671       -11.5287
  61   2.0000      -0.420903       -11.4534
  62   2.0000      -0.411970       -11.2103
  63   2.0000      -0.345186        -9.3930
  64   2.0000      -0.334671        -9.1068
  65   2.0000      -0.315993        -8.5986
  66   2.0000      -0.291239        -7.9250
  67   0.0000       0.032716         0.8903
  68   0.0000       0.070999         1.9320
  69   0.0000       0.106166         2.8889
  70   0.0000       0.122239         3.3263
  71   0.0000       0.140661         3.8276

MULLIKEN ATOMIC CHARGES
-----------------------
   0 S :    0.120719
   1 C :   -0.137384
   2 C :   -0.129861
   3 C :    0.065215
   4 C :   -0.179081
   5 H :   -0.011239
   6 C :    0.042903
   7 H :    0.049432
   8 H :    0.022921
   9 C :    0.023959
  10 H :   -0.012498
  11 H :   -0.015228
  12 C :   -0.044701
  13 H :    0.038148
  14 H :    0.041780
  15 H :    0.023043
  16 S :    0.138098
  17 C :   -0.082459
  18 C :   -0.083166
  19 C :   -0.001622
  20 C :   -0.181676
  21 H :    0.033676
  22 C :    0.050891
  23 H :    0.018852
  24 H :    0.022721
  25 C :   -0.042239
  26 H :    0.026697
  27 H :    0.043666
  28 C :   -0.068329
  29 H :    0.030119
  30 H :    0.052553
  31 H :    0.015888
  32 H :    0.072405
  33 H :    0.055798
Sum of atomic charges:    0.0000000

LOEWDIN ATOMIC CHARGES
----------------------
   0 S :    0.453267
   1 C :   -0.238387
   2 C :   -0.075058
   3 C :   -0.050901
   4 C :   -0.213629
   5 H :    0.021938
   6 C :   -0.030348
   7 H :    0.040550
   8 H :    0.029228
   9 C :   -0.031533
  10 H :    0.013719
  11 H :    0.006284
  12 C :   -0.057055
  13 H :    0.028739
  14 H :    0.023803
  15 H :    0.024952
  16 S :    0.412740
  17 C :   -0.206841
  18 C :   -0.078641
  19 C :   -0.050503
  20 C :   -0.187744
  21 H :    0.038933
  22 C :   -0.036405
  23 H :    0.030124
  24 H :    0.031330
  25 C :   -0.030628
  26 H :    0.022700
  27 H :    0.029257
  28 C :   -0.071579
  29 H :    0.027785
  30 H :    0.034746
  31 H :    0.014256
  32 H :    0.039269
  33 H :    0.035633

  Mayer bond orders larger than 0.100000
B(  0-S ,  1-C ) :   1.1688 B(  0-S ,  4-C ) :   1.1604 B(  1-C ,  2-C ) :   1.5563
B(  1-C , 32-H ) :   0.9662 B(  2-C ,  3-C ) :   1.2519 B(  2-C ,  6-C ) :   1.0171
B(  3-C ,  4-C ) :   1.5686 B(  3-C ,  5-H ) :   1.0083 B(  4-C , 20-C ) :   1.0521
B(  6-C ,  7-H ) :   0.9337 B(  6-C ,  8-H ) :   0.9392 B(  6-C ,  9-C ) :   1.0836
B(  9-C , 10-H ) :   0.9428 B(  9-C , 11-H ) :   0.9376 B(  9-C , 12-C ) :   1.0674
B( 12-C , 13-H ) :   0.9739 B( 12-C , 14-H ) :   0.9788 B( 12-C , 15-H ) :   0.9735
B( 16-S , 17-C ) :   1.1477 B( 16-S , 20-C ) :   1.1566 B( 17-C , 18-C ) :   1.6246
B( 17-C , 20-C ) :   0.1068 B( 17-C , 33-H ) :   0.9583 B( 18-C , 19-C ) :   1.2622
B( 18-C , 21-H ) :   0.9733 B( 19-C , 20-C ) :   1.5455 B( 19-C , 22-C ) :   1.0464
B( 22-C , 23-H ) :   0.9336 B( 22-C , 24-H ) :   0.9255 B( 22-C , 25-C ) :   1.0771
B( 25-C , 26-H ) :   0.9530 B( 25-C , 27-H ) :   0.9559 B( 25-C , 28-C ) :   1.0790
B( 28-C , 29-H ) :   0.9735 B( 28-C , 30-H ) :   0.9743 B( 28-C , 31-H ) :   0.9744

Dispersion correction           -0.014995263
FINAL SINGLE POINT ENERGY     -1339.858784934339

DIPOLE MOMENT
-------------
                                X             Y             Z
Electronic contribution:     11.30722     -15.07180      -6.34251
Nuclear contribution   :    -11.84247      15.48438       6.39250
                        -----------------------------------------
Total Dipole Moment    :     -0.53526       0.41258       0.04999
                        -----------------------------------------
Magnitude (a.u.)       :      0.67766
Magnitude (Debye)      :      1.72247

Rotational constants in cm-1:     0.023318     0.008080     0.006932
Rotational constants in MHz :   699.055580   242.240027   207.803648

                             ****ORCA TERMINATED NORMALLY****
TOTAL RUN TIME: 0 days 0 hours 0 minutes 22 seconds 243 msec
