                         Program Version 4.2.1 -  RELEASE  -
|  1> ! wB97X-D3 SP def2-SVP
|  2> %pal
|  3> nprocs 24
|  4> end
|  5>
|  6> * xyz 0 1
|  7> S 	 -121.163 	 65.5911 	 -62.4
|  8> C 	 -120.821 	 64.1548 	 -63.3097
|  9> C 	 -119.869 	 63.3236 	 -62.6686
| 10> C 	 -119.2 	 64.0822 	 -61.6513
| 11> C 	 -119.663 	 65.3573 	 -61.4081
| 12> H 	 -118.442 	 63.7666 	 -60.9621
| 13> C 	 -119.406 	 61.9373 	 -63.0663
| 14> H 	 -118.298 	 61.9464 	 -63.101
| 15> H 	 -119.664 	 61.7129 	 -64.0675
| 16> C 	 -119.697 	 60.7017 	 -62.1204
| 17> H 	 -119.309 	 60.9367 	 -61.185
| 18> H 	 -120.77 	 60.5981 	 -61.9563
| 19> C 	 -119.077 	 59.4086 	 -62.7287
| 20> H 	 -119.493 	 59.1904 	 -63.6937
| 21> H 	 -117.979 	 59.6272 	 -62.7686
| 22> H 	 -119.454 	 58.5708 	 -62.1139
| 23> S 	 -120.448 	 67.0633 	 -59.3781
| 24> C 	 -119.326 	 67.9002 	 -58.4198
| 25> C 	 -118.034 	 67.465 	 -58.6751
| 26> C 	 -117.97 	 66.6212 	 -59.8276
| 27> C 	 -119.225 	 66.2656 	 -60.3202
| 28> H 	 -117.227 	 67.8522 	 -58.0837
| 29> C 	 -116.667 	 66.0362 	 -60.165
| 30> H 	 -116.78 	 64.9334 	 -60.1572
| 31> H 	 -115.969 	 66.2174 	 -59.3868
| 32> C 	 -115.988 	 66.5004 	 -61.4745
| 33> H 	 -116.728 	 66.633 	 -62.3177
| 34> H 	 -115.327 	 65.7002 	 -61.6836
| 35> C 	 -115.264 	 67.8215 	 -61.2445
| 36> H 	 -116.033 	 68.5998 	 -61.1465
| 37> H 	 -114.519 	 67.9857 	 -61.9862
| 38> H 	 -114.805 	 67.8882 	 -60.2667
| 39> H 	 -121.463 	 63.8859 	 -64.1624
| 40> H 	 -119.619 	 68.5165 	 -57.6112
| 41> *
| 42>
| 43>                          ****END OF INPUT****

CARTESIAN COORDINATES (ANGSTROEM)
---------------------------------
  S    -121.163000   65.591100  -62.400000
  C    -120.821000   64.154800  -63.309700
  C    -119.869000   63.323600  -62.668600
  C    -119.200000   64.082200  -61.651300
  C    -119.663000   65.357300  -61.408100
  H    -118.442000   63.766600  -60.962100
  C    -119.406000   61.937300  -63.066300
  H    -118.298000   61.946400  -63.101000
  H    -119.664000   61.712900  -64.067500
  C    -119.697000   60.701700  -62.120400
  H    -119.309000   60.936700  -61.185000
  H    -120.770000   60.598100  -61.956300
  C    -119.077000   59.408600  -62.728700
  H    -119.493000   59.190400  -63.693700
  H    -117.979000   59.627200  -62.768600
  H    -119.454000   58.570800  -62.113900
  S    -120.448000   67.063300  -59.378100
  C    -119.326000   67.900200  -58.419800
  C    -118.034000   67.465000  -58.675100
  C    -117.970000   66.621200  -59.827600
  C    -119.225000   66.265600  -60.320200
  H    -117.227000   67.852200  -58.083700
  C    -116.667000   66.036200  -60.165000
  H    -116.780000   64.933400  -60.157200
  H    -115.969000   66.217400  -59.386800
  C    -115.988000   66.500400  -61.474500
  H    -116.728000   66.633000  -62.317700
  H    -115.327000   65.700200  -61.683600
  C    -115.264000   67.821500  -61.244500
  H    -116.033000   68.599800  -61.146500
  H    -114.519000   67.985700  -61.986200
  H    -114.805000   67.888200  -60.266700
  H    -121.463000   63.885900  -64.162400
  H    -119.619000   68.516500  -57.611200

 Total Charge           Charge          ....    0
 Multiplicity           Mult            ....    1
 Number of Electrons    NEL             ....  134
 Basis Dimension        Dim             ....  322

ORBITAL ENERGIES
----------------

  NO   OCC          E(Eh)            E(eV)
   0   2.0000     -88.966477     -2420.9009
   1   2.0000     -88.964511     -2420.8474
   2   2.0000     -10.335043      -281.2308
   3   2.0000     -10.328833      -281.0618
   4   2.0000     -10.321971      -280.8751
   5   2.0000     -10.310996      -280.5765
   6   2.0000     -10.309787      -280.5436
   7   2.0000     -10.299723      -280.2697
   8   2.0000     -10.294043      -280.1151
   9   2.0000     -10.293635      -280.1040
  10   2.0000     -10.291642      -280.0498
  11   2.0000     -10.287002      -279.9236
  12   2.0000     -10.286434      -279.9081
  13   2.0000     -10.283897      -279.8391
  14   2.0000     -10.282143      -279.7913
  15   2.0000     -10.270496      -279.4744
  16   2.0000      -8.080531      -219.8824
  17   2.0000      -8.080498      -219.8815
  18   2.0000      -6.039057      -164.3311
  19   2.0000      -6.038777      -164.3235
  20   2.0000      -6.035288      -164.2285
  21   2.0000      -6.034744      -164.2137
  22   2.0000      -6.031560      -164.1271
  23   2.0000      -6.031127      -164.1153
  24   2.0000      -1.007895       -27.4262
  25   2.0000      -0.983608       -26.7653
  26   2.0000      -0.914672       -24.8895
  27   2.0000      -0.905677       -24.6447
  28   2.0000      -0.868497       -23.6330
  29   2.0000      -0.853896       -23.2357
  30   2.0000      -0.847101       -23.0508
  31   2.0000      -0.814639       -22.1675
  32   2.0000      -0.781013       -21.2525
  33   2.0000      -0.768742       -20.9185
  34   2.0000      -0.709234       -19.2992
  35   2.0000      -0.703379       -19.1399
  36   2.0000      -0.687456       -18.7066
  37   2.0000      -0.668052       -18.1786
  38   2.0000      -0.645044       -17.5525
  39   2.0000      -0.620272       -16.8785
  40   2.0000      -0.598023       -16.2730
  41   2.0000      -0.573487       -15.6054
  42   2.0000      -0.561505       -15.2793
  43   2.0000      -0.554694       -15.0940
  44   2.0000      -0.543181       -14.7807
  45   2.0000      -0.521940       -14.2027
  46   2.0000      -0.513731       -13.9793
  47   2.0000      -0.510630       -13.8950
  48   2.0000      -0.504972       -13.7410
  49   2.0000      -0.500438       -13.6176
  50   2.0000      -0.485175       -13.2023
  51   2.0000      -0.483220       -13.1491
  52   2.0000      -0.477744       -13.0001
  53   2.0000      -0.467957       -12.7338
  54   2.0000      -0.462716       -12.5911
  55   2.0000      -0.444427       -12.0935
  56   2.0000      -0.439857       -11.9691
  57   2.0000      -0.439414       -11.9571
  58   2.0000      -0.430622       -11.7178
  59   2.0000      -0.428470       -11.6593
  60   2.0000      -0.422739       -11.5033
  61   2.0000      -0.415367       -11.3027
  62   2.0000      -0.413798       -11.2600
  63   2.0000      -0.354904        -9.6574
  64   2.0000      -0.330168        -8.9843
  65   2.0000      -0.325133        -8.8473
  66   2.0000      -0.285318        -7.7639
  67   0.0000       0.024858         0.6764
  68   0.0000       0.066763         1.8167
  69   0.0000       0.103831         2.8254
  70   0.0000       0.118042         3.2121
  71   0.0000       0.132640         3.6093

MULLIKEN ATOMIC CHARGES
-----------------------
   0 S :    0.098596
   1 C :   -0.128677
   2 C :   -0.040902
   3 C :    0.008664
   4 C :   -0.118634
   5 H :    0.004896
   6 C :    0.037274
   7 H :    0.022399
   8 H :    0.005000
   9 C :   -0.055649
  10 H :    0.013721
  11 H :    0.028212
  12 C :   -0.052552
  13 H :    0.029088
  14 H :    0.048587
  15 H :    0.044512
  16 S :    0.108479
  17 C :   -0.080516
  18 C :   -0.040998
  19 C :   -0.029672
  20 C :   -0.150412
  21 H :    0.016763
  22 C :    0.023041
  23 H :    0.027003
  24 H :    0.002244
  25 C :   -0.052301
  26 H :    0.052385
  27 H :    0.017732
  28 C :   -0.029034
  29 H :    0.033815
  30 H :    0.037680
  31 H :    0.007496
  32 H :    0.064010
  33 H :    0.047747
Sum of atomic charges:    0.0000000

LOEWDIN ATOMIC CHARGES
----------------------
   0 S :    0.381859
   1 C :   -0.195184
   2 C :   -0.062779
   3 C :   -0.058977
   4 C :   -0.176155
   5 H :    0.027293
   6 C :   -0.034285
   7 H :    0.032606
   8 H :    0.021028
   9 C :   -0.030159
  10 H :    0.012148
  11 H :    0.021642
  12 C :   -0.064177
  13 H :    0.021801
  14 H :    0.033878
  15 H :    0.033932
  16 S :    0.436081
  17 C :   -0.196138
  18 C :   -0.070890
  19 C :   -0.063475
  20 C :   -0.201908
  21 H :    0.029482
  22 C :   -0.033392
  23 H :    0.030075
  24 H :    0.023724
  25 C :   -0.033770
  26 H :    0.034973
  27 H :    0.017050
  28 C :   -0.063858
  29 H :    0.031251
  30 H :    0.022784
  31 H :    0.018738
  32 H :    0.032280
  33 H :    0.022521

  Mayer bond orders larger than 0.100000
B(  0-S ,  1-C ) :   1.1566 B(  0-S ,  4-C ) :   1.1223 B(  1-C ,  2-C ) :   1.5801
B(  1-C , 32-H ) :   0.9660 B(  2-C ,  3-C ) :   1.2304 B(  2-C ,  6-C ) :   1.0332
B(  3-C ,  4-C ) :   1.5928 B(  3-C ,  5-H ) :   0.9899 B(  4-C , 20-C ) :   1.0524
B(  6-C ,  7-H ) :   0.9453 B(  6-C ,  8-H ) :   0.9461 B(  6-C ,  9-C ) :   1.0474
B(  9-C , 10-H ) :   0.9572 B(  9-C , 11-H ) :   0.9567 B(  9-C , 12-C ) :   1.0760
B( 12-C , 13-H ) :   0.9764 B( 12-C , 14-H ) :   0.9755 B( 12-C , 15-H ) :   0.9731
B( 16-S , 17-C ) :   1.1867 B( 16-S , 20-C ) :   1.1535 B( 17-C , 18-C ) :   1.5674
B( 17-C , 33-H ) :   0.9723 B( 18-C , 19-C ) :   1.2641 B( 18-C , 21-H ) :   0.9947
B( 19-C , 20-C ) :   1.5645 B( 19-C , 22-C ) :   1.0544 B( 22-C , 23-H ) :   0.9379
B( 22-C , 24-H ) :   0.9328 B( 22-C , 25-C ) :   1.0613 B( 25-C , 26-H ) :   0.9607
B( 25-C , 27-H ) :   0.9542 B( 25-C , 28-C ) :   1.0731 B( 28-C , 29-H ) :   0.9750
B( 28-C , 30-H ) :   0.9752 B( 28-C , 31-H ) :   0.9735

Dispersion correction           -0.013816696
FINAL SINGLE POINT ENERGY     -1339.869197112205

DIPOLE MOMENT
-------------
                                X             Y             Z
Electronic contribution:    -20.27145      16.77731       5.65113
Nuclear contribution   :     20.72265     -17.27729      -5.52786
                        -----------------------------------------
Total Dipole Moment    :      0.45120      -0.49998       0.12326
                        -----------------------------------------
Magnitude (a.u.)       :      0.68466
Magnitude (Debye)      :      1.74026

Rotational constants in cm-1:     0.018679     0.007826     0.006542
Rotational constants in MHz :   559.970800   234.613004   196.131032

                             ****ORCA TERMINATED NORMALLY****
TOTAL RUN TIME: 0 days 0 hours 0 minutes 21 seconds 368 msec
