                         Program Version 4.2.1 -  RELEASE  -
|  1> ! wB97X-D3 SP def2-SVP
|  2> %pal
|  3> nprocs 24
|  4> end
|  5>
|  6> * xyz 0 1
|  7> S 	 -65.475 	 9.47552 	 -77.134
|  8> C 	 -64.2289 	 10.4866 	 -76.3868
|  9> C 	 -64.7512 	 11.6563 	 -75.8794
| 10> C 	 -66.1568 	 11.7446 	 -76.1069
| 11> C 	 -66.7365 	 10.6083 	 -76.6622
| 12> H 	 -66.8284 	 12.5065 	 -75.7881
| 13> C 	 -64.0067 	 12.6221 	 -75.0105
| 14> H 	 -64.1459 	 13.5732 	 -75.5176
| 15> H 	 -63.0089 	 12.3069 	 -75.1203
| 16> C 	 -64.3748 	 12.8642 	 -73.5732
| 17> H 	 -63.6298 	 13.4973 	 -73.0466
| 18> H 	 -65.2937 	 13.4374 	 -73.5472
| 19> C 	 -64.7194 	 11.5931 	 -72.8077
| 20> H 	 -65.6711 	 11.0828 	 -73.2268
| 21> H 	 -63.8573 	 11.0095 	 -72.7254
| 22> H 	 -65.0329 	 11.8605 	 -71.8173
| 23> S 	 -68.5125 	 9.82767 	 -78.6363
| 24> C 	 -70.2009 	 9.65723 	 -78.207
| 25> C 	 -70.4728 	 9.96332 	 -76.8744
| 26> C 	 -69.262 	 10.2 	 -76.1463
| 27> C 	 -68.1701 	 10.3493 	 -76.9771
| 28> H 	 -71.5243 	 9.81454 	 -76.4618
| 29> C 	 -69.2086 	 10.3942 	 -74.6268
| 30> H 	 -70.2477 	 10.6045 	 -74.149
| 31> H 	 -68.6713 	 11.3838 	 -74.4797
| 32> C 	 -68.4573 	 9.33754 	 -73.7799
| 33> H 	 -68.3068 	 9.73462 	 -72.7338
| 34> H 	 -67.5396 	 9.11346 	 -74.2937
| 35> C 	 -69.3151 	 8.04243 	 -73.7571
| 36> H 	 -68.8084 	 7.28203 	 -73.1985
| 37> H 	 -69.5621 	 7.66644 	 -74.7605
| 38> H 	 -70.2994 	 8.27938 	 -73.2738
| 39> H 	 -63.1633 	 10.2404 	 -76.5724
| 40> H 	 -70.9539 	 9.39137 	 -78.9385
| 41> *
| 42>
| 43>                          ****END OF INPUT****

CARTESIAN COORDINATES (ANGSTROEM)
---------------------------------
  S    -65.475000    9.475520  -77.134000
  C    -64.228900   10.486600  -76.386800
  C    -64.751200   11.656300  -75.879400
  C    -66.156800   11.744600  -76.106900
  C    -66.736500   10.608300  -76.662200
  H    -66.828400   12.506500  -75.788100
  C    -64.006700   12.622100  -75.010500
  H    -64.145900   13.573200  -75.517600
  H    -63.008900   12.306900  -75.120300
  C    -64.374800   12.864200  -73.573200
  H    -63.629800   13.497300  -73.046600
  H    -65.293700   13.437400  -73.547200
  C    -64.719400   11.593100  -72.807700
  H    -65.671100   11.082800  -73.226800
  H    -63.857300   11.009500  -72.725400
  H    -65.032900   11.860500  -71.817300
  S    -68.512500    9.827670  -78.636300
  C    -70.200900    9.657230  -78.207000
  C    -70.472800    9.963320  -76.874400
  C    -69.262000   10.200000  -76.146300
  C    -68.170100   10.349300  -76.977100
  H    -71.524300    9.814540  -76.461800
  C    -69.208600   10.394200  -74.626800
  H    -70.247700   10.604500  -74.149000
  H    -68.671300   11.383800  -74.479700
  C    -68.457300    9.337540  -73.779900
  H    -68.306800    9.734620  -72.733800
  H    -67.539600    9.113460  -74.293700
  C    -69.315100    8.042430  -73.757100
  H    -68.808400    7.282030  -73.198500
  H    -69.562100    7.666440  -74.760500
  H    -70.299400    8.279380  -73.273800
  H    -63.163300   10.240400  -76.572400
  H    -70.953900    9.391370  -78.938500

 Total Charge           Charge          ....    0
 Multiplicity           Mult            ....    1
 Number of Electrons    NEL             ....  134
 Basis Dimension        Dim             ....  322

ORBITAL ENERGIES
----------------

  NO   OCC          E(Eh)            E(eV)
   0   2.0000     -88.969047     -2420.9708
   1   2.0000     -88.964496     -2420.8470
   2   2.0000     -10.333077      -281.1773
   3   2.0000     -10.329671      -281.0846
   4   2.0000     -10.321574      -280.8643
   5   2.0000     -10.317524      -280.7541
   6   2.0000     -10.309901      -280.5467
   7   2.0000     -10.304000      -280.3861
   8   2.0000     -10.303103      -280.3617
   9   2.0000     -10.301516      -280.3185
  10   2.0000     -10.292179      -280.0644
  11   2.0000     -10.289534      -279.9925
  12   2.0000     -10.286006      -279.8965
  13   2.0000     -10.283378      -279.8249
  14   2.0000     -10.275575      -279.6126
  15   2.0000     -10.273020      -279.5431
  16   2.0000      -8.083490      -219.9630
  17   2.0000      -8.078899      -219.8380
  18   2.0000      -6.041882      -164.4080
  19   2.0000      -6.038162      -164.3067
  20   2.0000      -6.037435      -164.2870
  21   2.0000      -6.034256      -164.2005
  22   2.0000      -6.033384      -164.1767
  23   2.0000      -6.029718      -164.0770
  24   2.0000      -1.003912       -27.3178
  25   2.0000      -0.983016       -26.7492
  26   2.0000      -0.916989       -24.9525
  27   2.0000      -0.902900       -24.5692
  28   2.0000      -0.865570       -23.5534
  29   2.0000      -0.848604       -23.0917
  30   2.0000      -0.843357       -22.9489
  31   2.0000      -0.814351       -22.1596
  32   2.0000      -0.783437       -21.3184
  33   2.0000      -0.769693       -20.9444
  34   2.0000      -0.707504       -19.2522
  35   2.0000      -0.694717       -18.9042
  36   2.0000      -0.683534       -18.5999
  37   2.0000      -0.659245       -17.9390
  38   2.0000      -0.641677       -17.4609
  39   2.0000      -0.618655       -16.8345
  40   2.0000      -0.591369       -16.0920
  41   2.0000      -0.562467       -15.3055
  42   2.0000      -0.556081       -15.1317
  43   2.0000      -0.548211       -14.9176
  44   2.0000      -0.547030       -14.8854
  45   2.0000      -0.541913       -14.7462
  46   2.0000      -0.521523       -14.1914
  47   2.0000      -0.506525       -13.7832
  48   2.0000      -0.497050       -13.5254
  49   2.0000      -0.492535       -13.4026
  50   2.0000      -0.482064       -13.1176
  51   2.0000      -0.478991       -13.0340
  52   2.0000      -0.471445       -12.8287
  53   2.0000      -0.465783       -12.6746
  54   2.0000      -0.459259       -12.4971
  55   2.0000      -0.446026       -12.1370
  56   2.0000      -0.439054       -11.9473
  57   2.0000      -0.434201       -11.8152
  58   2.0000      -0.429977       -11.7003
  59   2.0000      -0.426639       -11.6094
  60   2.0000      -0.418183       -11.3793
  61   2.0000      -0.415769       -11.3137
  62   2.0000      -0.413653       -11.2561
  63   2.0000      -0.340504        -9.2656
  64   2.0000      -0.334630        -9.1057
  65   2.0000      -0.328178        -8.9302
  66   2.0000      -0.296355        -8.0642
  67   0.0000       0.028585         0.7778
  68   0.0000       0.063710         1.7336
  69   0.0000       0.105154         2.8614
  70   0.0000       0.114539         3.1168
  71   0.0000       0.125584         3.4173

MULLIKEN ATOMIC CHARGES
-----------------------
   0 S :    0.097383
   1 C :   -0.150365
   2 C :   -0.099427
   3 C :    0.042590
   4 C :   -0.167624
   5 H :    0.002580
   6 C :    0.126561
   7 H :    0.028902
   8 H :    0.000044
   9 C :   -0.075969
  10 H :    0.038785
  11 H :    0.013880
  12 C :   -0.040869
  13 H :    0.054331
  14 H :    0.025526
  15 H :    0.017163
  16 S :    0.111272
  17 C :   -0.104335
  18 C :   -0.042113
  19 C :   -0.022688
  20 C :   -0.165148
  21 H :    0.049958
  22 C :   -0.009584
  23 H :    0.034434
  24 H :    0.033416
  25 C :   -0.066059
  26 H :    0.046569
  27 H :    0.047891
  28 C :   -0.054787
  29 H :    0.034444
  30 H :    0.041272
  31 H :    0.022357
  32 H :    0.068906
  33 H :    0.060702
Sum of atomic charges:    0.0000000

LOEWDIN ATOMIC CHARGES
----------------------
   0 S :    0.386694
   1 C :   -0.195829
   2 C :   -0.062432
   3 C :   -0.062654
   4 C :   -0.188055
   5 H :    0.025712
   6 C :   -0.031560
   7 H :    0.037099
   8 H :    0.022339
   9 C :   -0.042637
  10 H :    0.032084
  11 H :    0.020630
  12 C :   -0.063721
  13 H :    0.041078
  14 H :    0.015380
  15 H :    0.020600
  16 S :    0.400393
  17 C :   -0.180405
  18 C :   -0.079778
  19 C :   -0.055608
  20 C :   -0.196813
  21 H :    0.046976
  22 C :   -0.044403
  23 H :    0.034696
  24 H :    0.033782
  25 C :   -0.037813
  26 H :    0.032513
  27 H :    0.023320
  28 C :   -0.066902
  29 H :    0.020479
  30 H :    0.027701
  31 H :    0.024604
  32 H :    0.034950
  33 H :    0.027582

  Mayer bond orders larger than 0.100000
B(  0-S ,  1-C ) :   1.1331 B(  0-S ,  4-C ) :   1.1462 B(  1-C ,  2-C ) :   1.6108
B(  1-C , 32-H ) :   0.9593 B(  2-C ,  3-C ) :   1.2204 B(  2-C ,  6-C ) :   1.0259
B(  3-C ,  4-C ) :   1.5927 B(  3-C ,  5-H ) :   0.9973 B(  4-C , 20-C ) :   1.0203
B(  6-C ,  7-H ) :   0.9279 B(  6-C ,  8-H ) :   0.9341 B(  6-C ,  9-C ) :   1.0787
B(  9-C , 10-H ) :   0.9530 B(  9-C , 11-H ) :   0.9468 B(  9-C , 12-C ) :   1.0942
B( 12-C , 13-H ) :   0.9628 B( 12-C , 14-H ) :   0.9789 B( 12-C , 15-H ) :   0.9703
B( 16-S , 17-C ) :   1.1633 B( 16-S , 20-C ) :   1.1337 B( 17-C , 18-C ) :   1.6153
B( 17-C , 33-H ) :   0.9654 B( 18-C , 19-C ) :   1.2324 B( 18-C , 21-H ) :   0.9773
B( 19-C , 20-C ) :   1.6141 B( 19-C , 22-C ) :   1.0223 B( 22-C , 23-H ) :   0.9454
B( 22-C , 24-H ) :   0.9369 B( 22-C , 25-C ) :   1.0675 B( 25-C , 26-H ) :   0.9529
B( 25-C , 27-H ) :   0.9513 B( 25-C , 28-C ) :   1.0697 B( 28-C , 29-H ) :   0.9753
B( 28-C , 30-H ) :   0.9767 B( 28-C , 31-H ) :   0.9745

Dispersion correction           -0.016083991
FINAL SINGLE POINT ENERGY     -1339.880337235873

DIPOLE MOMENT
-------------
                                X             Y             Z
Electronic contribution:     -1.25715      -4.70360     -26.58608
Nuclear contribution   :      1.16221       4.96582      27.09290
                        -----------------------------------------
Total Dipole Moment    :     -0.09494       0.26222       0.50682
                        -----------------------------------------
Magnitude (a.u.)       :      0.57848
Magnitude (Debye)      :      1.47037

Rotational constants in cm-1:     0.019782     0.009780     0.007738
Rotational constants in MHz :   593.064121   293.182337   231.964885

                             ****ORCA TERMINATED NORMALLY****
TOTAL RUN TIME: 0 days 0 hours 0 minutes 23 seconds 62 msec
