                         Program Version 4.2.1 -  RELEASE  -
|  1> ! wB97X-D3 SP def2-SVP
|  2> %pal
|  3> nprocs 24
|  4> end
|  5>
|  6> * xyz 0 1
|  7> S 	 -52.1798 	 -49.1482 	 -78.0539
|  8> C 	 -51.1037 	 -49.3229 	 -79.4069
|  9> C 	 -51.6969 	 -49.7249 	 -80.549
| 10> C 	 -53.1286 	 -49.7789 	 -80.3777
| 11> C 	 -53.5745 	 -49.4094 	 -79.1099
| 12> H 	 -53.8216 	 -50.1298 	 -81.099
| 13> C 	 -51.0036 	 -49.9778 	 -81.9196
| 14> H 	 -51.1025 	 -50.9865 	 -82.2596
| 15> H 	 -49.9002 	 -49.8704 	 -81.7485
| 16> C 	 -51.4455 	 -49.0872 	 -83.1153
| 17> H 	 -52.4949 	 -48.9764 	 -83.0168
| 18> H 	 -51.0176 	 -48.0875 	 -82.9394
| 19> C 	 -51.0618 	 -49.4268 	 -84.5806
| 20> H 	 -50.0171 	 -49.6558 	 -84.5317
| 21> H 	 -51.3434 	 -50.3533 	 -84.9201
| 22> H 	 -51.3576 	 -48.7105 	 -85.2985
| 23> S 	 -55.1013 	 -49.705 	 -76.838
| 24> C 	 -56.8201 	 -49.5107 	 -76.9333
| 25> C 	 -57.2073 	 -49.3485 	 -78.2241
| 26> C 	 -56.1727 	 -49.3006 	 -79.1776
| 27> C 	 -54.9286 	 -49.4177 	 -78.5857
| 28> H 	 -58.2773 	 -49.2083 	 -78.4554
| 29> C 	 -56.4007 	 -49.1064 	 -80.7384
| 30> H 	 -56.0262 	 -50.0421 	 -81.1246
| 31> H 	 -55.8029 	 -48.2511 	 -80.8468
| 32> C 	 -57.8051 	 -48.9413 	 -81.2232
| 33> H 	 -58.1099 	 -48.0754 	 -80.6159
| 34> H 	 -58.4144 	 -49.852 	 -80.915
| 35> C 	 -57.7965 	 -48.7361 	 -82.7368
| 36> H 	 -58.7308 	 -48.9541 	 -83.1004
| 37> H 	 -56.998 	 -49.2301 	 -83.3721
| 38> H 	 -57.7342 	 -47.6555 	 -82.9159
| 39> H 	 -49.9977 	 -49.1514 	 -79.3583
| 40> H 	 -57.5886 	 -49.6795 	 -76.1863
| 41> *
| 42>
| 43>                          ****END OF INPUT****

CARTESIAN COORDINATES (ANGSTROEM)
---------------------------------
  S    -52.179800  -49.148200  -78.053900
  C    -51.103700  -49.322900  -79.406900
  C    -51.696900  -49.724900  -80.549000
  C    -53.128600  -49.778900  -80.377700
  C    -53.574500  -49.409400  -79.109900
  H    -53.821600  -50.129800  -81.099000
  C    -51.003600  -49.977800  -81.919600
  H    -51.102500  -50.986500  -82.259600
  H    -49.900200  -49.870400  -81.748500
  C    -51.445500  -49.087200  -83.115300
  H    -52.494900  -48.976400  -83.016800
  H    -51.017600  -48.087500  -82.939400
  C    -51.061800  -49.426800  -84.580600
  H    -50.017100  -49.655800  -84.531700
  H    -51.343400  -50.353300  -84.920100
  H    -51.357600  -48.710500  -85.298500
  S    -55.101300  -49.705000  -76.838000
  C    -56.820100  -49.510700  -76.933300
  C    -57.207300  -49.348500  -78.224100
  C    -56.172700  -49.300600  -79.177600
  C    -54.928600  -49.417700  -78.585700
  H    -58.277300  -49.208300  -78.455400
  C    -56.400700  -49.106400  -80.738400
  H    -56.026200  -50.042100  -81.124600
  H    -55.802900  -48.251100  -80.846800
  C    -57.805100  -48.941300  -81.223200
  H    -58.109900  -48.075400  -80.615900
  H    -58.414400  -49.852000  -80.915000
  C    -57.796500  -48.736100  -82.736800
  H    -58.730800  -48.954100  -83.100400
  H    -56.998000  -49.230100  -83.372100
  H    -57.734200  -47.655500  -82.915900
  H    -49.997700  -49.151400  -79.358300
  H    -57.588600  -49.679500  -76.186300

 Total Charge           Charge          ....    0
 Multiplicity           Mult            ....    1
 Number of Electrons    NEL             ....  134
 Basis Dimension        Dim             ....  322

ORBITAL ENERGIES
----------------

  NO   OCC          E(Eh)            E(eV)
   0   2.0000     -88.966537     -2420.9025
   1   2.0000     -88.965364     -2420.8706
   2   2.0000     -10.332823      -281.1704
   3   2.0000     -10.327529      -281.0263
   4   2.0000     -10.314518      -280.6723
   5   2.0000     -10.312446      -280.6159
   6   2.0000     -10.302958      -280.3577
   7   2.0000     -10.302144      -280.3356
   8   2.0000     -10.299810      -280.2721
   9   2.0000     -10.294365      -280.1239
  10   2.0000     -10.292990      -280.0865
  11   2.0000     -10.290245      -280.0118
  12   2.0000     -10.288980      -279.9774
  13   2.0000     -10.285940      -279.8947
  14   2.0000     -10.280888      -279.7572
  15   2.0000     -10.270522      -279.4751
  16   2.0000      -8.081291      -219.9031
  17   2.0000      -8.079930      -219.8661
  18   2.0000      -6.039967      -164.3559
  19   2.0000      -6.038525      -164.3166
  20   2.0000      -6.035945      -164.2464
  21   2.0000      -6.034552      -164.2085
  22   2.0000      -6.031721      -164.1315
  23   2.0000      -6.030523      -164.0989
  24   2.0000      -1.007971       -27.4283
  25   2.0000      -0.986041       -26.8315
  26   2.0000      -0.917468       -24.9656
  27   2.0000      -0.905419       -24.6377
  28   2.0000      -0.873057       -23.7571
  29   2.0000      -0.854923       -23.2636
  30   2.0000      -0.843549       -22.9541
  31   2.0000      -0.815742       -22.1975
  32   2.0000      -0.789379       -21.4801
  33   2.0000      -0.780557       -21.2400
  34   2.0000      -0.712568       -19.3900
  35   2.0000      -0.702630       -19.1195
  36   2.0000      -0.697161       -18.9707
  37   2.0000      -0.652363       -17.7517
  38   2.0000      -0.635192       -17.2845
  39   2.0000      -0.621929       -16.9236
  40   2.0000      -0.593571       -16.1519
  41   2.0000      -0.586822       -15.9682
  42   2.0000      -0.567104       -15.4317
  43   2.0000      -0.555056       -15.1038
  44   2.0000      -0.533549       -14.5186
  45   2.0000      -0.530308       -14.4304
  46   2.0000      -0.518939       -14.1211
  47   2.0000      -0.510851       -13.9010
  48   2.0000      -0.503343       -13.6967
  49   2.0000      -0.499845       -13.6015
  50   2.0000      -0.492638       -13.4054
  51   2.0000      -0.488714       -13.2986
  52   2.0000      -0.483805       -13.1650
  53   2.0000      -0.463890       -12.6231
  54   2.0000      -0.455146       -12.3852
  55   2.0000      -0.452736       -12.3196
  56   2.0000      -0.448805       -12.2126
  57   2.0000      -0.437917       -11.9163
  58   2.0000      -0.429391       -11.6843
  59   2.0000      -0.423827       -11.5329
  60   2.0000      -0.419918       -11.4265
  61   2.0000      -0.414334       -11.2746
  62   2.0000      -0.408504       -11.1160
  63   2.0000      -0.362971        -9.8769
  64   2.0000      -0.335920        -9.1409
  65   2.0000      -0.330271        -8.9871
  66   2.0000      -0.282704        -7.6928
  67   0.0000       0.022510         0.6125
  68   0.0000       0.081628         2.2212
  69   0.0000       0.102624         2.7925
  70   0.0000       0.130776         3.5586
  71   0.0000       0.134358         3.6561

MULLIKEN ATOMIC CHARGES
-----------------------
   0 S :    0.102368
   1 C :   -0.138930
   2 C :   -0.050105
   3 C :   -0.008198
   4 C :   -0.122534
   5 H :   -0.006133
   6 C :    0.070650
   7 H :    0.024350
   8 H :    0.020288
   9 C :   -0.095238
  10 H :    0.018582
  11 H :    0.030495
  12 C :    0.013910
  13 H :    0.012316
  14 H :   -0.004037
  15 H :    0.042811
  16 S :    0.095130
  17 C :   -0.059530
  18 C :   -0.078537
  19 C :   -0.072121
  20 C :   -0.145850
  21 H :    0.023870
  22 C :    0.064700
  23 H :    0.046553
  24 H :    0.041015
  25 C :   -0.119111
  26 H :    0.040533
  27 H :    0.045219
  28 C :    0.008333
  29 H :    0.010484
  30 H :    0.047991
  31 H :    0.027978
  32 H :    0.059849
  33 H :    0.052901
Sum of atomic charges:    0.0000000

LOEWDIN ATOMIC CHARGES
----------------------
   0 S :    0.394264
   1 C :   -0.199196
   2 C :   -0.064958
   3 C :   -0.061290
   4 C :   -0.180118
   5 H :    0.021409
   6 C :   -0.028702
   7 H :    0.025622
   8 H :    0.030830
   9 C :   -0.039733
  10 H :    0.013745
  11 H :    0.027825
  12 C :   -0.058166
  13 H :    0.027704
  14 H :    0.012536
  15 H :    0.028432
  16 S :    0.395855
  17 C :   -0.193645
  18 C :   -0.085451
  19 C :   -0.057324
  20 C :   -0.187830
  21 H :    0.034115
  22 C :   -0.023224
  23 H :    0.028482
  24 H :    0.030807
  25 C :   -0.049219
  26 H :    0.029935
  27 H :    0.030746
  28 C :   -0.062254
  29 H :    0.014810
  30 H :    0.036953
  31 H :    0.032776
  32 H :    0.038681
  33 H :    0.035584

  Mayer bond orders larger than 0.100000
B(  0-S ,  1-C ) :   1.1291 B(  0-S ,  4-C ) :   1.1292 B(  1-C ,  2-C ) :   1.6623
B(  1-C , 32-H ) :   0.9515 B(  2-C ,  3-C ) :   1.2132 B(  2-C ,  6-C ) :   1.0237
B(  3-C ,  4-C ) :   1.5792 B(  3-C ,  5-H ) :   0.9945 B(  4-C , 20-C ) :   1.0933
B(  6-C ,  7-H ) :   0.9412 B(  6-C ,  8-H ) :   0.9412 B(  6-C ,  9-C ) :   1.0493
B(  9-C , 10-H ) :   0.9618 B(  9-C , 11-H ) :   0.9565 B(  9-C , 12-C ) :   1.0789
B( 12-C , 13-H ) :   0.9694 B( 12-C , 14-H ) :   0.9681 B( 12-C , 15-H ) :   0.9753
B( 16-S , 17-C ) :   1.1448 B( 16-S , 20-C ) :   1.1295 B( 17-C , 18-C ) :   1.6179
B( 17-C , 33-H ) :   0.9582 B( 18-C , 19-C ) :   1.2701 B( 18-C , 21-H ) :   0.9789
B( 19-C , 20-C ) :   1.6146 B( 19-C , 22-C ) :   0.9767 B( 22-C , 23-H ) :   0.9259
B( 22-C , 24-H ) :   0.9414 B( 22-C , 25-C ) :   1.0964 B( 25-C , 26-H ) :   0.9500
B( 25-C , 27-H ) :   0.9510 B( 25-C , 28-C ) :   1.0692 B( 28-C , 29-H ) :   0.9694
B( 28-C , 30-H ) :   0.9754 B( 28-C , 31-H ) :   0.9695

Dispersion correction           -0.013263691
FINAL SINGLE POINT ENERGY     -1339.856730306451

DIPOLE MOMENT
-------------
                                X             Y             Z
Electronic contribution:      3.77253      -1.79407      33.43325
Nuclear contribution   :     -4.08572       1.73222     -34.23011
                        -----------------------------------------
Total Dipole Moment    :     -0.31318      -0.06184      -0.79686
                        -----------------------------------------
Magnitude (a.u.)       :      0.85842
Magnitude (Debye)      :      2.18194

Rotational constants in cm-1:     0.015738     0.009268     0.005952
Rotational constants in MHz :   471.809445   277.842204   178.430666

                             ****ORCA TERMINATED NORMALLY****
TOTAL RUN TIME: 0 days 0 hours 0 minutes 21 seconds 262 msec
