                         Program Version 4.2.1 -  RELEASE  -
|  1> ! wB97X-D3 SP def2-SVP
|  2> %pal
|  3> nprocs 24
|  4> end
|  5>
|  6> * xyz 0 1
|  7> S 	 -101.733 	 -1.86478 	 -111.53
|  8> C 	 -103.242 	 -2.92713 	 -111.465
|  9> C 	 -103.987 	 -2.60661 	 -110.353
| 10> C 	 -103.323 	 -1.6779 	 -109.481
| 11> C 	 -102.142 	 -1.17185 	 -109.958
| 12> H 	 -103.738 	 -1.30688 	 -108.499
| 13> C 	 -105.279 	 -3.29072 	 -109.929
| 14> H 	 -106.025 	 -3.21048 	 -110.731
| 15> H 	 -105.67 	 -2.89408 	 -108.987
| 16> C 	 -105.094 	 -4.78959 	 -109.582
| 17> H 	 -104.541 	 -5.09808 	 -110.456
| 18> H 	 -104.455 	 -4.84298 	 -108.777
| 19> C 	 -106.417 	 -5.4428 	 -109.189
| 20> H 	 -107.264 	 -5.05829 	 -109.729
| 21> H 	 -106.205 	 -6.51431 	 -109.463
| 22> H 	 -106.76 	 -5.2408 	 -108.151
| 23> S 	 -99.5035 	 -0.827646 	 -109.065
| 24> C 	 -99.3602 	 0.301117 	 -107.789
| 25> C 	 -100.482 	 1.10336 	 -107.622
| 26> C 	 -101.512 	 0.787865 	 -108.507
| 27> C 	 -101.191 	 -0.311799 	 -109.295
| 28> H 	 -100.428 	 1.96398 	 -106.846
| 29> C 	 -102.757 	 1.58693 	 -108.483
| 30> H 	 -103.004 	 1.59109 	 -107.4
| 31> H 	 -103.606 	 1.12304 	 -108.936
| 32> C 	 -102.618 	 3.05616 	 -108.927
| 33> H 	 -101.81 	 3.46818 	 -108.313
| 34> H 	 -103.533 	 3.63829 	 -108.741
| 35> C 	 -102.177 	 3.20961 	 -110.369
| 36> H 	 -102.753 	 2.53728 	 -111.018
| 37> H 	 -101.182 	 2.99353 	 -110.468
| 38> H 	 -102.431 	 4.26196 	 -110.68
| 39> H 	 -103.525 	 -3.6486 	 -112.169
| 40> H 	 -98.4454 	 0.439806 	 -107.286
| 41> *
| 42>
| 43>                          ****END OF INPUT****

CARTESIAN COORDINATES (ANGSTROEM)
---------------------------------
  S    -101.733000   -1.864780  -111.530000
  C    -103.242000   -2.927130  -111.465000
  C    -103.987000   -2.606610  -110.353000
  C    -103.323000   -1.677900  -109.481000
  C    -102.142000   -1.171850  -109.958000
  H    -103.738000   -1.306880  -108.499000
  C    -105.279000   -3.290720  -109.929000
  H    -106.025000   -3.210480  -110.731000
  H    -105.670000   -2.894080  -108.987000
  C    -105.094000   -4.789590  -109.582000
  H    -104.541000   -5.098080  -110.456000
  H    -104.455000   -4.842980  -108.777000
  C    -106.417000   -5.442800  -109.189000
  H    -107.264000   -5.058290  -109.729000
  H    -106.205000   -6.514310  -109.463000
  H    -106.760000   -5.240800  -108.151000
  S    -99.503500   -0.827646  -109.065000
  C    -99.360200    0.301117  -107.789000
  C    -100.482000    1.103360  -107.622000
  C    -101.512000    0.787865  -108.507000
  C    -101.191000   -0.311799  -109.295000
  H    -100.428000    1.963980  -106.846000
  C    -102.757000    1.586930  -108.483000
  H    -103.004000    1.591090  -107.400000
  H    -103.606000    1.123040  -108.936000
  C    -102.618000    3.056160  -108.927000
  H    -101.810000    3.468180  -108.313000
  H    -103.533000    3.638290  -108.741000
  C    -102.177000    3.209610  -110.369000
  H    -102.753000    2.537280  -111.018000
  H    -101.182000    2.993530  -110.468000
  H    -102.431000    4.261960  -110.680000
  H    -103.525000   -3.648600  -112.169000
  H    -98.445400    0.439806  -107.286000

 Total Charge           Charge          ....    0
 Multiplicity           Mult            ....    1
 Number of Electrons    NEL             ....  134
 Basis Dimension        Dim             ....  322

ORBITAL ENERGIES
----------------

  NO   OCC          E(Eh)            E(eV)
   0   2.0000     -88.969588     -2420.9856
   1   2.0000     -88.963190     -2420.8115
   2   2.0000     -10.328583      -281.0550
   3   2.0000     -10.325303      -280.9658
   4   2.0000     -10.315685      -280.7041
   5   2.0000     -10.315225      -280.6915
   6   2.0000     -10.302382      -280.3421
   7   2.0000     -10.301741      -280.3246
   8   2.0000     -10.299212      -280.2558
   9   2.0000     -10.296039      -280.1695
  10   2.0000     -10.290674      -280.0235
  11   2.0000     -10.287506      -279.9373
  12   2.0000     -10.285263      -279.8762
  13   2.0000     -10.284407      -279.8530
  14   2.0000     -10.277596      -279.6676
  15   2.0000     -10.267712      -279.3987
  16   2.0000      -8.084664      -219.9949
  17   2.0000      -8.076420      -219.7706
  18   2.0000      -6.042960      -164.4373
  19   2.0000      -6.039213      -164.3354
  20   2.0000      -6.035534      -164.2352
  21   2.0000      -6.035170      -164.2253
  22   2.0000      -6.031217      -164.1177
  23   2.0000      -6.026958      -164.0019
  24   2.0000      -1.008272       -27.4365
  25   2.0000      -0.979262       -26.6471
  26   2.0000      -0.915816       -24.9206
  27   2.0000      -0.914030       -24.8720
  28   2.0000      -0.868993       -23.6465
  29   2.0000      -0.856611       -23.3096
  30   2.0000      -0.838252       -22.8100
  31   2.0000      -0.809844       -22.0370
  32   2.0000      -0.786505       -21.4019
  33   2.0000      -0.772487       -21.0204
  34   2.0000      -0.708591       -19.2817
  35   2.0000      -0.703245       -19.1363
  36   2.0000      -0.695364       -18.9218
  37   2.0000      -0.654865       -17.8198
  38   2.0000      -0.640091       -17.4178
  39   2.0000      -0.616069       -16.7641
  40   2.0000      -0.602995       -16.4083
  41   2.0000      -0.574877       -15.6432
  42   2.0000      -0.557893       -15.1810
  43   2.0000      -0.554151       -15.0792
  44   2.0000      -0.542602       -14.7650
  45   2.0000      -0.526345       -14.3226
  46   2.0000      -0.520583       -14.1658
  47   2.0000      -0.507303       -13.8044
  48   2.0000      -0.504566       -13.7299
  49   2.0000      -0.500318       -13.6143
  50   2.0000      -0.490099       -13.3363
  51   2.0000      -0.478606       -13.0235
  52   2.0000      -0.475207       -12.9311
  53   2.0000      -0.463222       -12.6049
  54   2.0000      -0.455896       -12.4056
  55   2.0000      -0.450487       -12.2584
  56   2.0000      -0.447791       -12.1850
  57   2.0000      -0.433239       -11.7890
  58   2.0000      -0.430576       -11.7166
  59   2.0000      -0.426216       -11.5979
  60   2.0000      -0.420698       -11.4478
  61   2.0000      -0.416426       -11.3315
  62   2.0000      -0.405474       -11.0335
  63   2.0000      -0.344660        -9.3787
  64   2.0000      -0.335162        -9.1202
  65   2.0000      -0.329230        -8.9588
  66   2.0000      -0.288303        -7.8451
  67   0.0000       0.024299         0.6612
  68   0.0000       0.067898         1.8476
  69   0.0000       0.096977         2.6389
  70   0.0000       0.123839         3.3698
  71   0.0000       0.130451         3.5497

MULLIKEN ATOMIC CHARGES
-----------------------
   0 S :    0.077643
   1 C :   -0.118843
   2 C :   -0.070265
   3 C :    0.011786
   4 C :   -0.153586
   5 H :    0.031673
   6 C :    0.030844
   7 H :    0.036824
   8 H :    0.013113
   9 C :   -0.049787
  10 H :    0.015831
  11 H :    0.015012
  12 C :   -0.043188
  13 H :    0.020357
  14 H :    0.055492
  15 H :    0.041027
  16 S :    0.125231
  17 C :   -0.085419
  18 C :   -0.078102
  19 C :   -0.031430
  20 C :   -0.134462
  21 H :    0.054873
  22 C :    0.067657
  23 H :    0.028916
  24 H :    0.016995
  25 C :   -0.079225
  26 H :    0.020435
  27 H :    0.036137
  28 C :   -0.025078
  29 H :    0.029464
  30 H :    0.027993
  31 H :    0.036509
  32 H :    0.032926
  33 H :    0.042647
Sum of atomic charges:   -0.0000000

LOEWDIN ATOMIC CHARGES
----------------------
   0 S :    0.351445
   1 C :   -0.165563
   2 C :   -0.058304
   3 C :   -0.071837
   4 C :   -0.178710
   5 H :    0.039751
   6 C :   -0.030853
   7 H :    0.029372
   8 H :    0.024878
   9 C :   -0.033267
  10 H :    0.019584
  11 H :    0.016024
  12 C :   -0.070277
  13 H :    0.019881
  14 H :    0.041936
  15 H :    0.032808
  16 S :    0.418577
  17 C :   -0.184450
  18 C :   -0.082364
  19 C :   -0.052616
  20 C :   -0.202657
  21 H :    0.048108
  22 C :   -0.034418
  23 H :    0.038191
  24 H :    0.022502
  25 C :   -0.037857
  26 H :    0.021694
  27 H :    0.026613
  28 C :   -0.057623
  29 H :    0.026617
  30 H :    0.013875
  31 H :    0.033354
  32 H :    0.016711
  33 H :    0.018875

  Mayer bond orders larger than 0.100000
B(  0-S ,  1-C ) :   1.1013 B(  0-S ,  4-C ) :   1.1277 B(  1-C ,  2-C ) :   1.6382
B(  1-C , 32-H ) :   0.9755 B(  2-C ,  3-C ) :   1.2168 B(  2-C ,  6-C ) :   1.0258
B(  3-C ,  4-C ) :   1.6137 B(  3-C ,  5-H ) :   0.9774 B(  4-C , 20-C ) :   1.0406
B(  6-C ,  7-H ) :   0.9401 B(  6-C ,  8-H ) :   0.9476 B(  6-C ,  9-C ) :   1.0587
B(  9-C , 10-H ) :   0.9643 B(  9-C , 11-H ) :   0.9539 B(  9-C , 12-C ) :   1.0632
B( 12-C , 13-H ) :   0.9763 B( 12-C , 14-H ) :   0.9736 B( 12-C , 15-H ) :   0.9724
B( 16-S , 17-C ) :   1.1805 B( 16-S , 20-C ) :   1.1306 B( 17-C , 18-C ) :   1.5858
B( 17-C , 33-H ) :   0.9719 B( 18-C , 19-C ) :   1.2568 B( 18-C , 21-H ) :   0.9750
B( 19-C , 20-C ) :   1.5585 B( 19-C , 22-C ) :   1.0413 B( 22-C , 23-H ) :   0.9288
B( 22-C , 24-H ) :   0.9338 B( 22-C , 25-C ) :   1.0777 B( 25-C , 26-H ) :   0.9540
B( 25-C , 27-H ) :   0.9577 B( 25-C , 28-C ) :   1.0735 B( 28-C , 29-H ) :   0.9763
B( 28-C , 30-H ) :   0.9750 B( 28-C , 31-H ) :   0.9740

Dispersion correction           -0.014153442
FINAL SINGLE POINT ENERGY     -1339.863881873117

DIPOLE MOMENT
-------------
                                X             Y             Z
Electronic contribution:     21.80853      -1.80556      -5.10619
Nuclear contribution   :    -22.25524       1.95474       5.61356
                        -----------------------------------------
Total Dipole Moment    :     -0.44672       0.14918       0.50737
                        -----------------------------------------
Magnitude (a.u.)       :      0.69227
Magnitude (Debye)      :      1.75961

Rotational constants in cm-1:     0.021136     0.007386     0.006766
Rotational constants in MHz :   633.647810   221.439738   202.848575

                             ****ORCA TERMINATED NORMALLY****
TOTAL RUN TIME: 0 days 0 hours 0 minutes 20 seconds 364 msec
