                         Program Version 4.2.1 -  RELEASE  -
|  1> ! wB97X-D3 SP def2-SVP
|  2> %pal
|  3> nprocs 24
|  4> end
|  5>
|  6> * xyz 0 1
|  7> S 	 -122.218 	 67.1337 	 -38.8304
|  8> C 	 -121.328 	 68.5985 	 -39.1167
|  9> C 	 -121.642 	 69.1339 	 -40.3882
| 10> C 	 -122.677 	 68.3504 	 -41.0319
| 11> C 	 -123.126 	 67.2536 	 -40.3577
| 12> H 	 -122.923 	 68.4963 	 -42.0676
| 13> C 	 -121.106 	 70.3951 	 -40.9591
| 14> H 	 -121.052 	 70.4059 	 -42.0675
| 15> H 	 -120.131 	 70.6085 	 -40.4832
| 16> C 	 -121.954 	 71.6684 	 -40.6757
| 17> H 	 -121.454 	 72.5429 	 -40.9313
| 18> H 	 -122.89 	 71.6858 	 -41.2862
| 19> C 	 -122.382 	 71.7396 	 -39.1291
| 20> H 	 -123.085 	 70.8035 	 -38.8807
| 21> H 	 -121.454 	 71.7245 	 -38.5777
| 22> H 	 -122.832 	 72.6468 	 -38.8996
| 23> S 	 -123.316 	 64.5379 	 -40.779
| 24> C 	 -124.437 	 63.8431 	 -41.8443
| 25> C 	 -125.244 	 64.8012 	 -42.4091
| 26> C 	 -124.9 	 66.1117 	 -41.9508
| 27> C 	 -123.786 	 66.1451 	 -41.0846
| 28> H 	 -126.08 	 64.4837 	 -43.0418
| 29> C 	 -125.774 	 67.3178 	 -42.2934
| 30> H 	 -125.405 	 67.9139 	 -43.1674
| 31> H 	 -125.624 	 67.979 	 -41.4503
| 32> C 	 -127.272 	 67.0938 	 -42.3149
| 33> H 	 -127.381 	 66.6429 	 -41.3407
| 34> H 	 -127.61 	 66.3641 	 -43.0696
| 35> C 	 -128.051 	 68.4376 	 -42.4595
| 36> H 	 -127.867 	 69.0057 	 -43.4345
| 37> H 	 -127.83 	 69.0379 	 -41.6902
| 38> H 	 -129.134 	 68.1857 	 -42.4484
| 39> H 	 -120.752 	 69.0956 	 -38.3672
| 40> H 	 -124.448 	 62.7752 	 -42.0471
| 41> *
| 42>
| 43>                          ****END OF INPUT****

CARTESIAN COORDINATES (ANGSTROEM)
---------------------------------
  S    -122.218000   67.133700  -38.830400
  C    -121.328000   68.598500  -39.116700
  C    -121.642000   69.133900  -40.388200
  C    -122.677000   68.350400  -41.031900
  C    -123.126000   67.253600  -40.357700
  H    -122.923000   68.496300  -42.067600
  C    -121.106000   70.395100  -40.959100
  H    -121.052000   70.405900  -42.067500
  H    -120.131000   70.608500  -40.483200
  C    -121.954000   71.668400  -40.675700
  H    -121.454000   72.542900  -40.931300
  H    -122.890000   71.685800  -41.286200
  C    -122.382000   71.739600  -39.129100
  H    -123.085000   70.803500  -38.880700
  H    -121.454000   71.724500  -38.577700
  H    -122.832000   72.646800  -38.899600
  S    -123.316000   64.537900  -40.779000
  C    -124.437000   63.843100  -41.844300
  C    -125.244000   64.801200  -42.409100
  C    -124.900000   66.111700  -41.950800
  C    -123.786000   66.145100  -41.084600
  H    -126.080000   64.483700  -43.041800
  C    -125.774000   67.317800  -42.293400
  H    -125.405000   67.913900  -43.167400
  H    -125.624000   67.979000  -41.450300
  C    -127.272000   67.093800  -42.314900
  H    -127.381000   66.642900  -41.340700
  H    -127.610000   66.364100  -43.069600
  C    -128.051000   68.437600  -42.459500
  H    -127.867000   69.005700  -43.434500
  H    -127.830000   69.037900  -41.690200
  H    -129.134000   68.185700  -42.448400
  H    -120.752000   69.095600  -38.367200
  H    -124.448000   62.775200  -42.047100

 Total Charge           Charge          ....    0
 Multiplicity           Mult            ....    1
 Number of Electrons    NEL             ....  134
 Basis Dimension        Dim             ....  322

ORBITAL ENERGIES
----------------

  NO   OCC          E(Eh)            E(eV)
   0   2.0000     -88.971045     -2421.0252
   1   2.0000     -88.962981     -2420.8058
   2   2.0000     -10.334902      -281.2270
   3   2.0000     -10.328888      -281.0633
   4   2.0000     -10.321000      -280.8487
   5   2.0000     -10.311198      -280.5820
   6   2.0000     -10.307548      -280.4826
   7   2.0000     -10.303963      -280.3851
   8   2.0000     -10.297800      -280.2174
   9   2.0000     -10.294641      -280.1314
  10   2.0000     -10.293008      -280.0870
  11   2.0000     -10.288775      -279.9718
  12   2.0000     -10.287080      -279.9257
  13   2.0000     -10.285623      -279.8860
  14   2.0000     -10.281700      -279.7793
  15   2.0000     -10.278558      -279.6938
  16   2.0000      -8.085165      -220.0085
  17   2.0000      -8.079657      -219.8586
  18   2.0000      -6.043829      -164.4609
  19   2.0000      -6.039660      -164.3475
  20   2.0000      -6.037955      -164.3011
  21   2.0000      -6.035883      -164.2447
  22   2.0000      -6.033703      -164.1854
  23   2.0000      -6.030719      -164.1042
  24   2.0000      -1.012200       -27.5433
  25   2.0000      -0.988557       -26.9000
  26   2.0000      -0.910507       -24.7762
  27   2.0000      -0.909581       -24.7509
  28   2.0000      -0.871135       -23.7048
  29   2.0000      -0.849269       -23.1098
  30   2.0000      -0.840732       -22.8775
  31   2.0000      -0.815836       -22.2000
  32   2.0000      -0.779855       -21.2209
  33   2.0000      -0.773113       -21.0375
  34   2.0000      -0.707201       -19.2439
  35   2.0000      -0.699066       -19.0225
  36   2.0000      -0.697008       -18.9665
  37   2.0000      -0.652833       -17.7645
  38   2.0000      -0.639211       -17.3938
  39   2.0000      -0.624511       -16.9938
  40   2.0000      -0.598268       -16.2797
  41   2.0000      -0.571147       -15.5417
  42   2.0000      -0.569287       -15.4911
  43   2.0000      -0.551646       -15.0110
  44   2.0000      -0.545406       -14.8413
  45   2.0000      -0.523357       -14.2413
  46   2.0000      -0.520944       -14.1756
  47   2.0000      -0.509780       -13.8718
  48   2.0000      -0.505639       -13.7591
  49   2.0000      -0.496363       -13.5067
  50   2.0000      -0.486529       -13.2391
  51   2.0000      -0.477324       -12.9886
  52   2.0000      -0.472552       -12.8588
  53   2.0000      -0.466049       -12.6818
  54   2.0000      -0.460550       -12.5322
  55   2.0000      -0.448796       -12.2124
  56   2.0000      -0.444990       -12.1088
  57   2.0000      -0.434851       -11.8329
  58   2.0000      -0.426050       -11.5934
  59   2.0000      -0.423887       -11.5346
  60   2.0000      -0.421994       -11.4830
  61   2.0000      -0.416575       -11.3356
  62   2.0000      -0.410679       -11.1752
  63   2.0000      -0.361490        -9.8366
  64   2.0000      -0.330752        -9.0002
  65   2.0000      -0.325866        -8.8673
  66   2.0000      -0.288571        -7.8524
  67   0.0000       0.025977         0.7069
  68   0.0000       0.075300         2.0490
  69   0.0000       0.114240         3.1086
  70   0.0000       0.121715         3.3120
  71   0.0000       0.133551         3.6341

MULLIKEN ATOMIC CHARGES
-----------------------
   0 S :    0.102132
   1 C :   -0.111620
   2 C :   -0.096711
   3 C :    0.008101
   4 C :   -0.097915
   5 H :    0.018908
   6 C :    0.058339
   7 H :    0.039573
   8 H :    0.029853
   9 C :   -0.082073
  10 H :    0.020472
  11 H :    0.031586
  12 C :   -0.079512
  13 H :    0.078723
  14 H :    0.018622
  15 H :    0.023492
  16 S :    0.110288
  17 C :   -0.107947
  18 C :   -0.029254
  19 C :   -0.074415
  20 C :   -0.136896
  21 H :    0.028733
  22 C :    0.043538
  23 H :    0.037721
  24 H :    0.015442
  25 C :   -0.098382
  26 H :    0.032759
  27 H :    0.036796
  28 C :   -0.023698
  29 H :    0.041285
  30 H :    0.009400
  31 H :    0.039347
  32 H :    0.051512
  33 H :    0.061798
Sum of atomic charges:    0.0000000

LOEWDIN ATOMIC CHARGES
----------------------
   0 S :    0.400333
   1 C :   -0.189397
   2 C :   -0.062061
   3 C :   -0.054623
   4 C :   -0.190491
   5 H :    0.030350
   6 C :   -0.037961
   7 H :    0.038158
   8 H :    0.033854
   9 C :   -0.033636
  10 H :    0.012589
  11 H :    0.022973
  12 C :   -0.069790
  13 H :    0.047634
  14 H :    0.016800
  15 H :    0.011834
  16 S :    0.450370
  17 C :   -0.206220
  18 C :   -0.077451
  19 C :   -0.064734
  20 C :   -0.210799
  21 H :    0.037065
  22 C :   -0.042580
  23 H :    0.027672
  24 H :    0.028221
  25 C :   -0.040316
  26 H :    0.028000
  27 H :    0.020396
  28 C :   -0.055868
  29 H :    0.034815
  30 H :    0.005491
  31 H :    0.032655
  32 H :    0.025589
  33 H :    0.031128

  Mayer bond orders larger than 0.100000
B(  0-S ,  1-C ) :   1.1511 B(  0-S ,  4-C ) :   1.1354 B(  1-C ,  2-C ) :   1.5671
B(  1-C , 32-H ) :   0.9712 B(  2-C ,  3-C ) :   1.2606 B(  2-C ,  6-C ) :   1.0563
B(  3-C ,  4-C ) :   1.5522 B(  3-C ,  5-H ) :   0.9901 B(  4-C , 20-C ) :   1.0451
B(  6-C ,  7-H ) :   0.9402 B(  6-C ,  8-H ) :   0.9374 B(  6-C ,  9-C ) :   1.0628
B(  9-C , 10-H ) :   0.9603 B(  9-C , 11-H ) :   0.9575 B(  9-C , 12-C ) :   1.0727
B( 12-C , 13-H ) :   0.9683 B( 12-C , 14-H ) :   0.9765 B( 12-C , 15-H ) :   0.9759
B( 16-S , 17-C ) :   1.1924 B( 16-S , 20-C ) :   1.1637 B( 17-C , 18-C ) :   1.5579
B( 17-C , 33-H ) :   0.9677 B( 18-C , 19-C ) :   1.2846 B( 18-C , 21-H ) :   0.9940
B( 19-C , 20-C ) :   1.5495 B( 19-C , 22-C ) :   1.0323 B( 22-C , 23-H ) :   0.9314
B( 22-C , 24-H ) :   0.9377 B( 22-C , 25-C ) :   1.0633 B( 25-C , 26-H ) :   0.9574
B( 25-C , 27-H ) :   0.9525 B( 25-C , 28-C ) :   1.0825 B( 28-C , 29-H ) :   0.9743
B( 28-C , 30-H ) :   0.9753 B( 28-C , 31-H ) :   0.9742

Dispersion correction           -0.014219029
FINAL SINGLE POINT ENERGY     -1339.866046717557

DIPOLE MOMENT
-------------
                                X             Y             Z
Electronic contribution:     12.31339     -24.11541       7.84345
Nuclear contribution   :    -12.43892      24.62064      -8.16410
                        -----------------------------------------
Total Dipole Moment    :     -0.12553       0.50523      -0.32066
                        -----------------------------------------
Magnitude (a.u.)       :      0.61143
Magnitude (Debye)      :      1.55412

Rotational constants in cm-1:     0.017768     0.008939     0.006532
Rotational constants in MHz :   532.663313   267.992300   195.837726

                             ****ORCA TERMINATED NORMALLY****
TOTAL RUN TIME: 0 days 0 hours 0 minutes 21 seconds 480 msec
