                         Program Version 4.2.1 -  RELEASE  -
|  1> ! wB97X-D3 SP def2-SVP
|  2> %pal
|  3> nprocs 24
|  4> end
|  5>
|  6> * xyz 0 1
|  7> S 	 17.32 	 -7.88972 	 -117.658
|  8> C 	 17.6671 	 -7.97047 	 -115.969
|  9> C 	 16.7735 	 -7.16511 	 -115.236
| 10> C 	 15.6929 	 -6.64491 	 -116.051
| 11> C 	 15.8525 	 -6.95897 	 -117.387
| 12> H 	 14.7643 	 -6.16219 	 -115.725
| 13> C 	 16.8027 	 -6.8474 	 -113.78
| 14> H 	 17.5473 	 -7.41503 	 -113.314
| 15> H 	 15.8452 	 -7.2256 	 -113.402
| 16> C 	 17.0729 	 -5.34286 	 -113.398
| 17> H 	 16.2218 	 -4.70996 	 -113.67
| 18> H 	 17.0983 	 -5.38156 	 -112.304
| 19> C 	 18.4034 	 -4.66116 	 -113.868
| 20> H 	 18.5259 	 -4.73336 	 -114.97
| 21> H 	 18.326 	 -3.63071 	 -113.614
| 22> H 	 19.229 	 -5.22293 	 -113.395
| 23> S 	 15.781 	 -6.12391 	 -120.068
| 24> C 	 14.3061 	 -5.81894 	 -120.861
| 25> C 	 13.2522 	 -6.05938 	 -120.024
| 26> C 	 13.5891 	 -6.45887 	 -118.7
| 27> C 	 14.9761 	 -6.55176 	 -118.499
| 28> H 	 12.2446 	 -5.89827 	 -120.365
| 29> C 	 12.4111 	 -6.71059 	 -117.769
| 30> H 	 12.688 	 -7.52485 	 -117.06
| 31> H 	 11.5702 	 -7.04314 	 -118.367
| 32> C 	 11.933 	 -5.47733 	 -116.957
| 33> H 	 11.4457 	 -4.7511 	 -117.577
| 34> H 	 12.6685 	 -5.03275 	 -116.324
| 35> C 	 10.8918 	 -6.00746 	 -115.978
| 36> H 	 11.2694 	 -6.73144 	 -115.303
| 37> H 	 10.0817 	 -6.39775 	 -116.626
| 38> H 	 10.4706 	 -5.13585 	 -115.412
| 39> H 	 18.5274 	 -8.45274 	 -115.563
| 40> H 	 14.3346 	 -5.32435 	 -121.85
| 41> *
| 42>
| 43>                          ****END OF INPUT****

CARTESIAN COORDINATES (ANGSTROEM)
---------------------------------
  S     17.320000   -7.889720  -117.658000
  C     17.667100   -7.970470  -115.969000
  C     16.773500   -7.165110  -115.236000
  C     15.692900   -6.644910  -116.051000
  C     15.852500   -6.958970  -117.387000
  H     14.764300   -6.162190  -115.725000
  C     16.802700   -6.847400  -113.780000
  H     17.547300   -7.415030  -113.314000
  H     15.845200   -7.225600  -113.402000
  C     17.072900   -5.342860  -113.398000
  H     16.221800   -4.709960  -113.670000
  H     17.098300   -5.381560  -112.304000
  C     18.403400   -4.661160  -113.868000
  H     18.525900   -4.733360  -114.970000
  H     18.326000   -3.630710  -113.614000
  H     19.229000   -5.222930  -113.395000
  S     15.781000   -6.123910  -120.068000
  C     14.306100   -5.818940  -120.861000
  C     13.252200   -6.059380  -120.024000
  C     13.589100   -6.458870  -118.700000
  C     14.976100   -6.551760  -118.499000
  H     12.244600   -5.898270  -120.365000
  C     12.411100   -6.710590  -117.769000
  H     12.688000   -7.524850  -117.060000
  H     11.570200   -7.043140  -118.367000
  C     11.933000   -5.477330  -116.957000
  H     11.445700   -4.751100  -117.577000
  H     12.668500   -5.032750  -116.324000
  C     10.891800   -6.007460  -115.978000
  H     11.269400   -6.731440  -115.303000
  H     10.081700   -6.397750  -116.626000
  H     10.470600   -5.135850  -115.412000
  H     18.527400   -8.452740  -115.563000
  H     14.334600   -5.324350  -121.850000

 Total Charge           Charge          ....    0
 Multiplicity           Mult            ....    1
 Number of Electrons    NEL             ....  134
 Basis Dimension        Dim             ....  322

ORBITAL ENERGIES
----------------

  NO   OCC          E(Eh)            E(eV)
   0   2.0000     -88.966281     -2420.8956
   1   2.0000     -88.961077     -2420.7540
   2   2.0000     -10.334914      -281.2273
   3   2.0000     -10.332431      -281.1598
   4   2.0000     -10.315774      -280.7065
   5   2.0000     -10.313571      -280.6465
   6   2.0000     -10.305864      -280.4368
   7   2.0000     -10.303488      -280.3722
   8   2.0000     -10.297181      -280.2006
   9   2.0000     -10.295697      -280.1602
  10   2.0000     -10.291637      -280.0497
  11   2.0000     -10.289305      -279.9862
  12   2.0000     -10.288731      -279.9706
  13   2.0000     -10.284686      -279.8605
  14   2.0000     -10.280315      -279.7416
  15   2.0000     -10.279011      -279.7061
  16   2.0000      -8.081157      -219.8995
  17   2.0000      -8.076130      -219.7627
  18   2.0000      -6.039702      -164.3486
  19   2.0000      -6.035648      -164.2383
  20   2.0000      -6.034632      -164.2107
  21   2.0000      -6.031861      -164.1353
  22   2.0000      -6.030480      -164.0977
  23   2.0000      -6.027002      -164.0031
  24   2.0000      -1.002984       -27.2926
  25   2.0000      -0.983644       -26.7663
  26   2.0000      -0.914855       -24.8945
  27   2.0000      -0.905983       -24.6531
  28   2.0000      -0.866274       -23.5725
  29   2.0000      -0.854939       -23.2641
  30   2.0000      -0.845083       -22.9959
  31   2.0000      -0.811971       -22.0949
  32   2.0000      -0.780129       -21.2284
  33   2.0000      -0.770247       -20.9595
  34   2.0000      -0.704743       -19.1770
  35   2.0000      -0.698404       -19.0045
  36   2.0000      -0.691729       -18.8229
  37   2.0000      -0.661379       -17.9970
  38   2.0000      -0.640200       -17.4207
  39   2.0000      -0.620472       -16.8839
  40   2.0000      -0.599218       -16.3055
  41   2.0000      -0.580652       -15.8003
  42   2.0000      -0.561146       -15.2696
  43   2.0000      -0.550661       -14.9842
  44   2.0000      -0.536775       -14.6064
  45   2.0000      -0.525263       -14.2931
  46   2.0000      -0.519701       -14.1418
  47   2.0000      -0.509739       -13.8707
  48   2.0000      -0.505234       -13.7481
  49   2.0000      -0.502570       -13.6756
  50   2.0000      -0.489404       -13.3173
  51   2.0000      -0.481026       -13.0894
  52   2.0000      -0.474172       -12.9029
  53   2.0000      -0.465445       -12.6654
  54   2.0000      -0.456478       -12.4214
  55   2.0000      -0.445889       -12.1333
  56   2.0000      -0.442585       -12.0434
  57   2.0000      -0.439611       -11.9624
  58   2.0000      -0.433675       -11.8009
  59   2.0000      -0.429829       -11.6962
  60   2.0000      -0.424226       -11.5438
  61   2.0000      -0.414103       -11.2683
  62   2.0000      -0.409765       -11.1503
  63   2.0000      -0.356237        -9.6937
  64   2.0000      -0.329410        -8.9637
  65   2.0000      -0.326504        -8.8846
  66   2.0000      -0.285143        -7.7591
  67   0.0000       0.028006         0.7621
  68   0.0000       0.071973         1.9585
  69   0.0000       0.113507         3.0887
  70   0.0000       0.118533         3.2254
  71   0.0000       0.126315         3.4372

MULLIKEN ATOMIC CHARGES
-----------------------
   0 S :    0.113352
   1 C :   -0.105608
   2 C :   -0.108890
   3 C :    0.006559
   4 C :   -0.127155
   5 H :    0.010152
   6 C :    0.102971
   7 H :   -0.006479
   8 H :    0.033464
   9 C :   -0.107218
  10 H :    0.030798
  11 H :    0.031768
  12 C :   -0.046302
  13 H :    0.049938
  14 H :    0.039206
  15 H :    0.035614
  16 S :    0.081749
  17 C :   -0.099942
  18 C :   -0.032460
  19 C :   -0.010054
  20 C :   -0.151088
  21 H :    0.010361
  22 C :    0.025268
  23 H :    0.033782
  24 H :    0.022692
  25 C :   -0.046656
  26 H :    0.026534
  27 H :    0.028992
  28 C :   -0.057106
  29 H :    0.032556
  30 H :    0.026827
  31 H :    0.037702
  32 H :    0.040696
  33 H :    0.077977
Sum of atomic charges:   -0.0000000

LOEWDIN ATOMIC CHARGES
----------------------
   0 S :    0.411200
   1 C :   -0.207869
   2 C :   -0.059510
   3 C :   -0.067991
   4 C :   -0.187255
   5 H :    0.033216
   6 C :   -0.032471
   7 H :    0.018654
   8 H :    0.037230
   9 C :   -0.038460
  10 H :    0.019783
  11 H :    0.024740
  12 C :   -0.062353
  13 H :    0.031458
  14 H :    0.025369
  15 H :    0.027597
  16 S :    0.394173
  17 C :   -0.199207
  18 C :   -0.078317
  19 C :   -0.056254
  20 C :   -0.178455
  21 H :    0.027264
  22 C :   -0.028886
  23 H :    0.034289
  24 H :    0.031112
  25 C :   -0.032130
  26 H :    0.022835
  27 H :    0.017417
  28 C :   -0.061647
  29 H :    0.016944
  30 H :    0.025539
  31 H :    0.029069
  32 H :    0.023988
  33 H :    0.038929

  Mayer bond orders larger than 0.100000
B(  0-S ,  1-C ) :   1.1334 B(  0-S ,  4-C ) :   1.1521 B(  1-C ,  2-C ) :   1.5975
B(  1-C , 32-H ) :   0.9726 B(  2-C ,  3-C ) :   1.2166 B(  2-C ,  6-C ) :   1.0425
B(  3-C ,  4-C ) :   1.5789 B(  3-C ,  5-H ) :   0.9923 B(  4-C , 20-C ) :   1.0536
B(  6-C ,  7-H ) :   0.9343 B(  6-C ,  8-H ) :   0.9356 B(  6-C ,  9-C ) :   1.0604
B(  9-C , 10-H ) :   0.9596 B(  9-C , 11-H ) :   0.9590 B(  9-C , 12-C ) :   1.0692
B( 12-C , 13-H ) :   0.9768 B( 12-C , 14-H ) :   0.9739 B( 12-C , 15-H ) :   0.9763
B( 16-S , 17-C ) :   1.1744 B( 16-S , 20-C ) :   1.1313 B( 17-C , 18-C ) :   1.5763
B( 17-C , 33-H ) :   0.9636 B( 18-C , 19-C ) :   1.2605 B( 18-C , 21-H ) :   0.9938
B( 19-C , 20-C ) :   1.5740 B( 19-C , 22-C ) :   1.0420 B( 22-C , 23-H ) :   0.9388
B( 22-C , 24-H ) :   0.9334 B( 22-C , 25-C ) :   1.0722 B( 25-C , 26-H ) :   0.9517
B( 25-C , 27-H ) :   0.9556 B( 25-C , 28-C ) :   1.0843 B( 28-C , 29-H ) :   0.9769
B( 28-C , 30-H ) :   0.9731 B( 28-C , 31-H ) :   0.9734

Dispersion correction           -0.014010513
FINAL SINGLE POINT ENERGY     -1339.887328669751

DIPOLE MOMENT
-------------
                                X             Y             Z
Electronic contribution:     12.22011      -8.97428     -23.23862
Nuclear contribution   :    -12.68416       9.23816      23.70961
                        -----------------------------------------
Total Dipole Moment    :     -0.46405       0.26387       0.47099
                        -----------------------------------------
Magnitude (a.u.)       :      0.71189
Magnitude (Debye)      :      1.80949

Rotational constants in cm-1:     0.016762     0.009225     0.006845
Rotational constants in MHz :   502.513150   276.562667   205.221051

                             ****ORCA TERMINATED NORMALLY****
TOTAL RUN TIME: 0 days 0 hours 0 minutes 21 seconds 453 msec
