                         Program Version 4.2.1 -  RELEASE  -
|  1> ! wB97X-D3 SP def2-SVP
|  2> %pal
|  3> nprocs 24
|  4> end
|  5>
|  6> * xyz 0 1
|  7> S 	 -41.8871 	 -4.30696 	 -17.1566
|  8> C 	 -43.1066 	 -5.61364 	 -17.2978
|  9> C 	 -42.4688 	 -6.8243 	 -17.434
| 10> C 	 -41.0484 	 -6.72195 	 -17.2556
| 11> C 	 -40.5243 	 -5.44571 	 -17.1118
| 12> H 	 -40.3103 	 -7.50648 	 -17.2255
| 13> C 	 -43.14 	 -8.19726 	 -17.6842
| 14> H 	 -44.2305 	 -8.03017 	 -17.5865
| 15> H 	 -42.8853 	 -8.89127 	 -16.909
| 16> C 	 -42.8251 	 -8.85879 	 -19.0351
| 17> H 	 -43.5183 	 -8.76706 	 -19.8065
| 18> H 	 -41.997 	 -8.30677 	 -19.4573
| 19> C 	 -42.2755 	 -10.2865 	 -18.9596
| 20> H 	 -41.2846 	 -10.2356 	 -18.5265
| 21> H 	 -42.9871 	 -10.8184 	 -18.3172
| 22> H 	 -42.3065 	 -10.7773 	 -19.934
| 23> S 	 -38.379 	 -4.41843 	 -18.43
| 24> C 	 -36.8818 	 -4.32456 	 -17.5265
| 25> C 	 -36.8986 	 -5.02964 	 -16.3535
| 26> C 	 -38.2009 	 -5.47324 	 -16.0207
| 27> C 	 -39.1331 	 -5.12757 	 -17.0146
| 28> H 	 -35.9309 	 -5.32279 	 -15.8514
| 29> C 	 -38.4762 	 -6.21894 	 -14.7082
| 30> H 	 -37.5625 	 -6.30326 	 -14.1485
| 31> H 	 -38.8625 	 -7.19852 	 -14.9166
| 32> C 	 -39.4965 	 -5.59365 	 -13.8292
| 33> H 	 -40.3841 	 -5.53999 	 -14.4823
| 34> H 	 -39.2752 	 -4.52459 	 -13.5855
| 35> C 	 -39.6744 	 -6.31184 	 -12.5031
| 36> H 	 -39.8246 	 -7.41818 	 -12.643
| 37> H 	 -40.5849 	 -5.89674 	 -12.1592
| 38> H 	 -38.7458 	 -6.19658 	 -11.9092
| 39> H 	 -44.1243 	 -5.43639 	 -17.5953
| 40> H 	 -35.9985 	 -4.03123 	 -18.0887
| 41> *
| 42>
| 43>                          ****END OF INPUT****

CARTESIAN COORDINATES (ANGSTROEM)
---------------------------------
  S    -41.887100   -4.306960  -17.156600
  C    -43.106600   -5.613640  -17.297800
  C    -42.468800   -6.824300  -17.434000
  C    -41.048400   -6.721950  -17.255600
  C    -40.524300   -5.445710  -17.111800
  H    -40.310300   -7.506480  -17.225500
  C    -43.140000   -8.197260  -17.684200
  H    -44.230500   -8.030170  -17.586500
  H    -42.885300   -8.891270  -16.909000
  C    -42.825100   -8.858790  -19.035100
  H    -43.518300   -8.767060  -19.806500
  H    -41.997000   -8.306770  -19.457300
  C    -42.275500  -10.286500  -18.959600
  H    -41.284600  -10.235600  -18.526500
  H    -42.987100  -10.818400  -18.317200
  H    -42.306500  -10.777300  -19.934000
  S    -38.379000   -4.418430  -18.430000
  C    -36.881800   -4.324560  -17.526500
  C    -36.898600   -5.029640  -16.353500
  C    -38.200900   -5.473240  -16.020700
  C    -39.133100   -5.127570  -17.014600
  H    -35.930900   -5.322790  -15.851400
  C    -38.476200   -6.218940  -14.708200
  H    -37.562500   -6.303260  -14.148500
  H    -38.862500   -7.198520  -14.916600
  C    -39.496500   -5.593650  -13.829200
  H    -40.384100   -5.539990  -14.482300
  H    -39.275200   -4.524590  -13.585500
  C    -39.674400   -6.311840  -12.503100
  H    -39.824600   -7.418180  -12.643000
  H    -40.584900   -5.896740  -12.159200
  H    -38.745800   -6.196580  -11.909200
  H    -44.124300   -5.436390  -17.595300
  H    -35.998500   -4.031230  -18.088700

 Total Charge           Charge          ....    0
 Multiplicity           Mult            ....    1
 Number of Electrons    NEL             ....  134
 Basis Dimension        Dim             ....  322

ORBITAL ENERGIES
----------------

  NO   OCC          E(Eh)            E(eV)
   0   2.0000     -88.967808     -2420.9371
   1   2.0000     -88.964168     -2420.8381
   2   2.0000     -10.329785      -281.0877
   3   2.0000     -10.326304      -280.9930
   4   2.0000     -10.318406      -280.7781
   5   2.0000     -10.317261      -280.7469
   6   2.0000     -10.307297      -280.4758
   7   2.0000     -10.306513      -280.4545
   8   2.0000     -10.298744      -280.2431
   9   2.0000     -10.296111      -280.1714
  10   2.0000     -10.293878      -280.1106
  11   2.0000     -10.284911      -279.8666
  12   2.0000     -10.278587      -279.6946
  13   2.0000     -10.277315      -279.6600
  14   2.0000     -10.276790      -279.6457
  15   2.0000     -10.276356      -279.6339
  16   2.0000      -8.082793      -219.9440
  17   2.0000      -8.077752      -219.8068
  18   2.0000      -6.041144      -164.3879
  19   2.0000      -6.037475      -164.2881
  20   2.0000      -6.036459      -164.2604
  21   2.0000      -6.033487      -164.1795
  22   2.0000      -6.032327      -164.1480
  23   2.0000      -6.028442      -164.0422
  24   2.0000      -1.006203       -27.3802
  25   2.0000      -0.981113       -26.6974
  26   2.0000      -0.915873       -24.9222
  27   2.0000      -0.910654       -24.7802
  28   2.0000      -0.874495       -23.7962
  29   2.0000      -0.852809       -23.2061
  30   2.0000      -0.842688       -22.9307
  31   2.0000      -0.812954       -22.1216
  32   2.0000      -0.784051       -21.3351
  33   2.0000      -0.772335       -21.0163
  34   2.0000      -0.708135       -19.2693
  35   2.0000      -0.700925       -19.0731
  36   2.0000      -0.684692       -18.6314
  37   2.0000      -0.659820       -17.9546
  38   2.0000      -0.644807       -17.5461
  39   2.0000      -0.616883       -16.7862
  40   2.0000      -0.600283       -16.3345
  41   2.0000      -0.573659       -15.6100
  42   2.0000      -0.567340       -15.4381
  43   2.0000      -0.560525       -15.2527
  44   2.0000      -0.529871       -14.4185
  45   2.0000      -0.526726       -14.3330
  46   2.0000      -0.514952       -14.0126
  47   2.0000      -0.508589       -13.8394
  48   2.0000      -0.507416       -13.8075
  49   2.0000      -0.500444       -13.6178
  50   2.0000      -0.491396       -13.3716
  51   2.0000      -0.486812       -13.2468
  52   2.0000      -0.473957       -12.8970
  53   2.0000      -0.464958       -12.6522
  54   2.0000      -0.455600       -12.3975
  55   2.0000      -0.452608       -12.3161
  56   2.0000      -0.445666       -12.1272
  57   2.0000      -0.435731       -11.8568
  58   2.0000      -0.430012       -11.7012
  59   2.0000      -0.423945       -11.5361
  60   2.0000      -0.418756       -11.3949
  61   2.0000      -0.408073       -11.1042
  62   2.0000      -0.406435       -11.0597
  63   2.0000      -0.339384        -9.2351
  64   2.0000      -0.330690        -8.9985
  65   2.0000      -0.328601        -8.9417
  66   2.0000      -0.303248        -8.2518
  67   0.0000       0.030153         0.8205
  68   0.0000       0.056704         1.5430
  69   0.0000       0.104475         2.8429
  70   0.0000       0.123419         3.3584
  71   0.0000       0.123716         3.3665

MULLIKEN ATOMIC CHARGES
-----------------------
   0 S :    0.095916
   1 C :   -0.116580
   2 C :   -0.086665
   3 C :    0.046200
   4 C :   -0.195234
   5 H :    0.004716
   6 C :    0.087328
   7 H :    0.022047
   8 H :    0.027957
   9 C :   -0.059023
  10 H :    0.013193
  11 H :    0.022003
  12 C :   -0.066484
  13 H :    0.040733
  14 H :    0.030112
  15 H :    0.038724
  16 S :    0.117976
  17 C :   -0.092851
  18 C :   -0.059073
  19 C :   -0.016187
  20 C :   -0.184651
  21 H :    0.047019
  22 C :    0.136513
  23 H :   -0.000281
  24 H :    0.014058
  25 C :   -0.144773
  26 H :    0.043795
  27 H :    0.031229
  28 C :   -0.013910
  29 H :    0.024506
  30 H :    0.035948
  31 H :    0.041219
  32 H :    0.054509
  33 H :    0.060011
Sum of atomic charges:    0.0000000

LOEWDIN ATOMIC CHARGES
----------------------
   0 S :    0.374546
   1 C :   -0.183302
   2 C :   -0.060746
   3 C :   -0.061918
   4 C :   -0.195846
   5 H :    0.026753
   6 C :   -0.025833
   7 H :    0.033630
   8 H :    0.029273
   9 C :   -0.045831
  10 H :    0.015284
  11 H :    0.025071
  12 C :   -0.059583
  13 H :    0.024280
  14 H :    0.022157
  15 H :    0.029169
  16 S :    0.413269
  17 C :   -0.180847
  18 C :   -0.077821
  19 C :   -0.042963
  20 C :   -0.206674
  21 H :    0.046152
  22 C :   -0.027638
  23 H :    0.022664
  24 H :    0.028109
  25 C :   -0.049432
  26 H :    0.025572
  27 H :    0.026616
  28 C :   -0.061772
  29 H :    0.025988
  30 H :    0.027043
  31 H :    0.030166
  32 H :    0.029007
  33 H :    0.025457

  Mayer bond orders larger than 0.100000
B(  0-S ,  1-C ) :   1.1261 B(  0-S ,  4-C ) :   1.1238 B(  1-C ,  2-C ) :   1.6386
B(  1-C , 32-H ) :   0.9623 B(  2-C ,  3-C ) :   1.2072 B(  2-C ,  6-C ) :   1.0325
B(  3-C ,  4-C ) :   1.6048 B(  3-C ,  5-H ) :   0.9925 B(  4-C , 20-C ) :   1.0580
B(  6-C ,  7-H ) :   0.9383 B(  6-C ,  8-H ) :   0.9503 B(  6-C ,  9-C ) :   1.0301
B(  9-C , 10-H ) :   0.9572 B(  9-C , 11-H ) :   0.9660 B(  9-C , 12-C ) :   1.0764
B( 12-C , 13-H ) :   0.9806 B( 12-C , 14-H ) :   0.9795 B( 12-C , 15-H ) :   0.9725
B( 16-S , 17-C ) :   1.1620 B( 16-S , 20-C ) :   1.1582 B( 17-C , 18-C ) :   1.6048
B( 17-C , 20-C ) :   0.1043 B( 17-C , 33-H ) :   0.9637 B( 18-C , 19-C ) :   1.2634
B( 18-C , 21-H ) :   0.9779 B( 19-C , 20-C ) :   1.5702 B( 19-C , 22-C ) :   1.0388
B( 22-C , 23-H ) :   0.9329 B( 22-C , 24-H ) :   0.9175 B( 22-C , 25-C ) :   1.0731
B( 25-C , 26-H ) :   0.9524 B( 25-C , 27-H ) :   0.9508 B( 25-C , 28-C ) :   1.0823
B( 28-C , 29-H ) :   0.9715 B( 28-C , 30-H ) :   0.9721 B( 28-C , 31-H ) :   0.9721

Dispersion correction           -0.014440119
FINAL SINGLE POINT ENERGY     -1339.869149737903

DIPOLE MOMENT
-------------
                                X             Y             Z
Electronic contribution:      5.60804      21.82693     -10.39941
Nuclear contribution   :     -5.48085     -22.47999      10.40549
                        -----------------------------------------
Total Dipole Moment    :      0.12719      -0.65306       0.00607
                        -----------------------------------------
Magnitude (a.u.)       :      0.66536
Magnitude (Debye)      :      1.69120

Rotational constants in cm-1:     0.016386     0.008705     0.007742
Rotational constants in MHz :   491.254570   260.963515   232.089124

                             ****ORCA TERMINATED NORMALLY****
TOTAL RUN TIME: 0 days 0 hours 0 minutes 21 seconds 875 msec
