                         Program Version 4.2.1 -  RELEASE  -
|  1> ! wB97X-D3 SP def2-SVP
|  2> %pal
|  3> nprocs 24
|  4> end
|  5>
|  6> * xyz 0 1
|  7> S 	 -90.8976 	 -33.8543 	 -62.8814
|  8> C 	 -90.8756 	 -35.2436 	 -63.9699
|  9> C 	 -89.8614 	 -36.1666 	 -63.6218
| 10> C 	 -89.1413 	 -35.6628 	 -62.4662
| 11> C 	 -89.656 	 -34.4916 	 -61.8621
| 12> H 	 -88.3803 	 -36.2197 	 -61.8982
| 13> C 	 -89.569 	 -37.5472 	 -64.3295
| 14> H 	 -89.9032 	 -37.4842 	 -65.3374
| 15> H 	 -90.2377 	 -38.3179 	 -63.8287
| 16> C 	 -88.1578 	 -38.0025 	 -64.3038
| 17> H 	 -87.5434 	 -37.3777 	 -64.8858
| 18> H 	 -87.7075 	 -38.0904 	 -63.3186
| 19> C 	 -87.9606 	 -39.3443 	 -64.9315
| 20> H 	 -88.2891 	 -40.1728 	 -64.309
| 21> H 	 -88.4055 	 -39.438 	 -65.9333
| 22> H 	 -86.9296 	 -39.5629 	 -65.0139
| 23> S 	 -87.4037 	 -33.5243 	 -60.6026
| 24> C 	 -87.5215 	 -32.8314 	 -58.9834
| 25> C 	 -88.8093 	 -32.7404 	 -58.6018
| 26> C 	 -89.7619 	 -33.1584 	 -59.603
| 27> C 	 -89.1659 	 -33.7704 	 -60.7027
| 28> H 	 -89.133 	 -32.4532 	 -57.6022
| 29> C 	 -91.252 	 -32.9271 	 -59.3886
| 30> H 	 -91.7435 	 -32.9445 	 -60.3034
| 31> H 	 -91.4753 	 -31.9042 	 -59.0791
| 32> C 	 -91.9827 	 -33.9483 	 -58.4352
| 33> H 	 -92.9718 	 -33.583 	 -58.3653
| 34> H 	 -91.4916 	 -33.799 	 -57.4427
| 35> C 	 -91.8188 	 -35.3883 	 -58.8106
| 36> H 	 -92.1107 	 -35.5448 	 -59.8834
| 37> H 	 -92.3076 	 -36.0981 	 -58.0966
| 38> H 	 -90.7802 	 -35.6697 	 -58.7928
| 39> H 	 -91.3376 	 -35.3495 	 -64.9112
| 40> H 	 -86.7142 	 -32.6333 	 -58.2853
| 41> *
| 42>
| 43>                          ****END OF INPUT****

CARTESIAN COORDINATES (ANGSTROEM)
---------------------------------
  S    -90.897600  -33.854300  -62.881400
  C    -90.875600  -35.243600  -63.969900
  C    -89.861400  -36.166600  -63.621800
  C    -89.141300  -35.662800  -62.466200
  C    -89.656000  -34.491600  -61.862100
  H    -88.380300  -36.219700  -61.898200
  C    -89.569000  -37.547200  -64.329500
  H    -89.903200  -37.484200  -65.337400
  H    -90.237700  -38.317900  -63.828700
  C    -88.157800  -38.002500  -64.303800
  H    -87.543400  -37.377700  -64.885800
  H    -87.707500  -38.090400  -63.318600
  C    -87.960600  -39.344300  -64.931500
  H    -88.289100  -40.172800  -64.309000
  H    -88.405500  -39.438000  -65.933300
  H    -86.929600  -39.562900  -65.013900
  S    -87.403700  -33.524300  -60.602600
  C    -87.521500  -32.831400  -58.983400
  C    -88.809300  -32.740400  -58.601800
  C    -89.761900  -33.158400  -59.603000
  C    -89.165900  -33.770400  -60.702700
  H    -89.133000  -32.453200  -57.602200
  C    -91.252000  -32.927100  -59.388600
  H    -91.743500  -32.944500  -60.303400
  H    -91.475300  -31.904200  -59.079100
  C    -91.982700  -33.948300  -58.435200
  H    -92.971800  -33.583000  -58.365300
  H    -91.491600  -33.799000  -57.442700
  C    -91.818800  -35.388300  -58.810600
  H    -92.110700  -35.544800  -59.883400
  H    -92.307600  -36.098100  -58.096600
  H    -90.780200  -35.669700  -58.792800
  H    -91.337600  -35.349500  -64.911200
  H    -86.714200  -32.633300  -58.285300

 Total Charge           Charge          ....    0
 Multiplicity           Mult            ....    1
 Number of Electrons    NEL             ....  134
 Basis Dimension        Dim             ....  322

ORBITAL ENERGIES
----------------

  NO   OCC          E(Eh)            E(eV)
   0   2.0000     -88.971335     -2421.0331
   1   2.0000     -88.963765     -2420.8271
   2   2.0000     -10.334130      -281.2060
   3   2.0000     -10.332649      -281.1657
   4   2.0000     -10.315953      -280.7114
   5   2.0000     -10.315706      -280.7046
   6   2.0000     -10.312465      -280.6165
   7   2.0000     -10.305840      -280.4362
   8   2.0000     -10.301028      -280.3052
   9   2.0000     -10.300793      -280.2988
  10   2.0000     -10.292005      -280.0597
  11   2.0000     -10.285253      -279.8760
  12   2.0000     -10.283214      -279.8205
  13   2.0000     -10.278392      -279.6893
  14   2.0000     -10.273320      -279.5513
  15   2.0000     -10.272451      -279.5276
  16   2.0000      -8.085307      -220.0124
  17   2.0000      -8.077763      -219.8071
  18   2.0000      -6.043852      -164.4616
  19   2.0000      -6.039710      -164.3489
  20   2.0000      -6.036518      -164.2620
  21   2.0000      -6.036287      -164.2557
  22   2.0000      -6.032419      -164.1505
  23   2.0000      -6.028239      -164.0367
  24   2.0000      -1.003076       -27.2951
  25   2.0000      -0.979940       -26.6655
  26   2.0000      -0.921086       -25.0640
  27   2.0000      -0.904767       -24.6200
  28   2.0000      -0.873766       -23.7764
  29   2.0000      -0.848058       -23.0768
  30   2.0000      -0.840899       -22.8820
  31   2.0000      -0.812624       -22.1126
  32   2.0000      -0.786806       -21.4101
  33   2.0000      -0.775234       -21.0952
  34   2.0000      -0.712087       -19.3769
  35   2.0000      -0.697305       -18.9746
  36   2.0000      -0.689394       -18.7594
  37   2.0000      -0.663702       -18.0602
  38   2.0000      -0.633681       -17.2433
  39   2.0000      -0.615131       -16.7386
  40   2.0000      -0.599007       -16.2998
  41   2.0000      -0.577593       -15.7171
  42   2.0000      -0.571162       -15.5421
  43   2.0000      -0.545468       -14.8429
  44   2.0000      -0.541335       -14.7305
  45   2.0000      -0.531695       -14.4681
  46   2.0000      -0.514394       -13.9974
  47   2.0000      -0.511910       -13.9298
  48   2.0000      -0.502118       -13.6633
  49   2.0000      -0.498283       -13.5590
  50   2.0000      -0.493814       -13.4374
  51   2.0000      -0.480724       -13.0812
  52   2.0000      -0.470363       -12.7992
  53   2.0000      -0.460588       -12.5332
  54   2.0000      -0.458130       -12.4663
  55   2.0000      -0.447666       -12.1816
  56   2.0000      -0.445576       -12.1247
  57   2.0000      -0.436565       -11.8795
  58   2.0000      -0.430790       -11.7224
  59   2.0000      -0.424402       -11.5486
  60   2.0000      -0.422810       -11.5053
  61   2.0000      -0.413662       -11.2563
  62   2.0000      -0.408995       -11.1293
  63   2.0000      -0.349735        -9.5168
  64   2.0000      -0.331805        -9.0289
  65   2.0000      -0.327428        -8.9098
  66   2.0000      -0.290991        -7.9183
  67   0.0000       0.023226         0.6320
  68   0.0000       0.074584         2.0295
  69   0.0000       0.106282         2.8921
  70   0.0000       0.120257         3.2724
  71   0.0000       0.125265         3.4086

MULLIKEN ATOMIC CHARGES
-----------------------
   0 S :    0.120992
   1 C :   -0.103403
   2 C :   -0.101439
   3 C :   -0.001139
   4 C :   -0.151715
   5 H :    0.023209
   6 C :    0.083463
   7 H :    0.010651
   8 H :    0.052586
   9 C :   -0.061398
  10 H :    0.021092
  11 H :    0.032530
  12 C :   -0.042241
  13 H :    0.023267
  14 H :    0.028511
  15 H :    0.017653
  16 S :    0.095758
  17 C :   -0.077304
  18 C :   -0.031027
  19 C :   -0.058105
  20 C :   -0.141850
  21 H :    0.022137
  22 C :    0.077294
  23 H :   -0.010915
  24 H :    0.026455
  25 C :   -0.054066
  26 H :    0.025631
  27 H :    0.020663
  28 C :   -0.053464
  29 H :    0.038905
  30 H :    0.042810
  31 H :    0.031487
  32 H :    0.033851
  33 H :    0.059120
Sum of atomic charges:    0.0000000

LOEWDIN ATOMIC CHARGES
----------------------
   0 S :    0.427196
   1 C :   -0.199013
   2 C :   -0.054305
   3 C :   -0.072968
   4 C :   -0.206445
   5 H :    0.029752
   6 C :   -0.024935
   7 H :    0.025176
   8 H :    0.043442
   9 C :   -0.044374
  10 H :    0.022804
  11 H :    0.027784
  12 C :   -0.060175
  13 H :    0.022935
  14 H :    0.025056
  15 H :    0.022340
  16 S :    0.386264
  17 C :   -0.181228
  18 C :   -0.070268
  19 C :   -0.054236
  20 C :   -0.187047
  21 H :    0.032573
  22 C :   -0.031764
  23 H :    0.008728
  24 H :    0.034697
  25 C :   -0.034580
  26 H :    0.017875
  27 H :    0.022985
  28 C :   -0.072554
  29 H :    0.031056
  30 H :    0.032286
  31 H :    0.024884
  32 H :    0.021048
  33 H :    0.035011

  Mayer bond orders larger than 0.100000
B(  0-S ,  1-C ) :   1.1488 B(  0-S ,  4-C ) :   1.1598 B(  1-C ,  2-C ) :   1.5956
B(  1-C ,  4-C ) :   0.1034 B(  1-C , 32-H ) :   0.9702 B(  2-C ,  3-C ) :   1.2679
B(  2-C ,  6-C ) :   1.0045 B(  3-C ,  4-C ) :   1.5450 B(  3-C ,  5-H ) :   0.9850
B(  4-C , 20-C ) :   1.0586 B(  6-C ,  7-H ) :   0.9382 B(  6-C ,  8-H ) :   0.9397
B(  6-C ,  9-C ) :   1.0852 B(  9-C , 10-H ) :   0.9522 B(  9-C , 11-H ) :   0.9432
B(  9-C , 12-C ) :   1.1041 B( 12-C , 13-H ) :   0.9714 B( 12-C , 14-H ) :   0.9713
B( 12-C , 15-H ) :   0.9700 B( 16-S , 17-C ) :   1.1275 B( 16-S , 20-C ) :   1.1220
B( 17-C , 18-C ) :   1.6458 B( 17-C , 33-H ) :   0.9634 B( 18-C , 19-C ) :   1.2233
B( 18-C , 21-H ) :   0.9848 B( 19-C , 20-C ) :   1.5946 B( 19-C , 22-C ) :   1.0458
B( 22-C , 23-H ) :   0.9280 B( 22-C , 24-H ) :   0.9356 B( 22-C , 25-C ) :   1.0664
B( 25-C , 26-H ) :   0.9572 B( 25-C , 27-H ) :   0.9564 B( 25-C , 28-C ) :   1.0776
B( 28-C , 29-H ) :   0.9733 B( 28-C , 30-H ) :   0.9716 B( 28-C , 31-H ) :   0.9685

Dispersion correction           -0.014658768
FINAL SINGLE POINT ENERGY     -1339.877472281889

DIPOLE MOMENT
-------------
                                X             Y             Z
Electronic contribution:      5.06336      18.82857       0.07971
Nuclear contribution   :     -5.10493     -19.22334       0.00806
                        -----------------------------------------
Total Dipole Moment    :     -0.04157      -0.39477       0.08777
                        -----------------------------------------
Magnitude (a.u.)       :      0.40654
Magnitude (Debye)      :      1.03335

Rotational constants in cm-1:     0.020592     0.007864     0.006883
Rotational constants in MHz :   617.331970   235.760108   206.350387

                             ****ORCA TERMINATED NORMALLY****
TOTAL RUN TIME: 0 days 0 hours 0 minutes 20 seconds 430 msec
