                         Program Version 4.2.1 -  RELEASE  -
|  1> ! wB97X-D3 SP def2-SVP
|  2> %pal
|  3> nprocs 24
|  4> end
|  5>
|  6> * xyz 0 1
|  7> S 	 -49.466 	 12.4804 	 26.4243
|  8> C 	 -49.3136 	 12.5014 	 24.6273
|  9> C 	 -50.0524 	 11.491 	 24.0715
| 10> C 	 -50.9764 	 10.917 	 25.0505
| 11> C 	 -50.7347 	 11.2628 	 26.3898
| 12> H 	 -51.8211 	 10.2899 	 24.7804
| 13> C 	 -50.1503 	 11.2653 	 22.5217
| 14> H 	 -49.7145 	 12.0818 	 21.9533
| 15> H 	 -51.1826 	 11.0259 	 22.2538
| 16> C 	 -49.2004 	 10.1326 	 22.0202
| 17> H 	 -48.2258 	 10.4408 	 22.3471
| 18> H 	 -49.3667 	 9.23849 	 22.4907
| 19> C 	 -49.3019 	 9.74693 	 20.5093
| 20> H 	 -49.0154 	 10.5457 	 19.7925
| 21> H 	 -48.6668 	 8.85672 	 20.228
| 22> H 	 -50.2807 	 9.38593 	 20.2488
| 23> S 	 -52.1604 	 12.2044 	 28.5796
| 24> C 	 -52.9804 	 11.0641 	 29.5395
| 25> C 	 -52.8162 	 9.71409 	 29.1658
| 26> C 	 -51.8787 	 9.63182 	 28.1471
| 27> C 	 -51.5061 	 10.8875 	 27.5963
| 28> H 	 -53.3301 	 8.91829 	 29.5843
| 29> C 	 -51.5382 	 8.34171 	 27.5213
| 30> H 	 -50.5095 	 8.36972 	 27.2827
| 31> H 	 -52.0224 	 8.20823 	 26.6259
| 32> C 	 -51.7699 	 7.01452 	 28.279
| 33> H 	 -52.7707 	 6.93503 	 28.5323
| 34> H 	 -51.1328 	 7.03141 	 29.1201
| 35> C 	 -51.3644 	 5.81968 	 27.5159
| 36> H 	 -51.93 	 4.9574 	 27.7848
| 37> H 	 -50.3287 	 5.54809 	 27.6773
| 38> H 	 -51.4751 	 5.93106 	 26.4226
| 39> H 	 -48.786 	 13.3365 	 24.154
| 40> H 	 -53.7146 	 11.3555 	 30.2797
| 41> *
| 42>
| 43>                          ****END OF INPUT****

CARTESIAN COORDINATES (ANGSTROEM)
---------------------------------
  S    -49.466000   12.480400   26.424300
  C    -49.313600   12.501400   24.627300
  C    -50.052400   11.491000   24.071500
  C    -50.976400   10.917000   25.050500
  C    -50.734700   11.262800   26.389800
  H    -51.821100   10.289900   24.780400
  C    -50.150300   11.265300   22.521700
  H    -49.714500   12.081800   21.953300
  H    -51.182600   11.025900   22.253800
  C    -49.200400   10.132600   22.020200
  H    -48.225800   10.440800   22.347100
  H    -49.366700    9.238490   22.490700
  C    -49.301900    9.746930   20.509300
  H    -49.015400   10.545700   19.792500
  H    -48.666800    8.856720   20.228000
  H    -50.280700    9.385930   20.248800
  S    -52.160400   12.204400   28.579600
  C    -52.980400   11.064100   29.539500
  C    -52.816200    9.714090   29.165800
  C    -51.878700    9.631820   28.147100
  C    -51.506100   10.887500   27.596300
  H    -53.330100    8.918290   29.584300
  C    -51.538200    8.341710   27.521300
  H    -50.509500    8.369720   27.282700
  H    -52.022400    8.208230   26.625900
  C    -51.769900    7.014520   28.279000
  H    -52.770700    6.935030   28.532300
  H    -51.132800    7.031410   29.120100
  C    -51.364400    5.819680   27.515900
  H    -51.930000    4.957400   27.784800
  H    -50.328700    5.548090   27.677300
  H    -51.475100    5.931060   26.422600
  H    -48.786000   13.336500   24.154000
  H    -53.714600   11.355500   30.279700

 Total Charge           Charge          ....    0
 Multiplicity           Mult            ....    1
 Number of Electrons    NEL             ....  134
 Basis Dimension        Dim             ....  322

ORBITAL ENERGIES
----------------

  NO   OCC          E(Eh)            E(eV)
   0   2.0000     -88.971410     -2421.0352
   1   2.0000     -88.960607     -2420.7412
   2   2.0000     -10.334696      -281.2214
   3   2.0000     -10.328290      -281.0471
   4   2.0000     -10.320119      -280.8247
   5   2.0000     -10.317223      -280.7459
   6   2.0000     -10.310439      -280.5613
   7   2.0000     -10.301814      -280.3266
   8   2.0000     -10.300529      -280.2916
   9   2.0000     -10.299347      -280.2595
  10   2.0000     -10.288256      -279.9577
  11   2.0000     -10.285242      -279.8757
  12   2.0000     -10.280132      -279.7366
  13   2.0000     -10.274072      -279.5717
  14   2.0000     -10.273284      -279.5503
  15   2.0000     -10.271799      -279.5099
  16   2.0000      -8.086371      -220.0413
  17   2.0000      -8.074790      -219.7262
  18   2.0000      -6.044478      -164.4786
  19   2.0000      -6.040807      -164.3787
  20   2.0000      -6.037581      -164.2909
  21   2.0000      -6.033404      -164.1773
  22   2.0000      -6.029354      -164.0671
  23   2.0000      -6.025500      -163.9622
  24   2.0000      -1.003539       -27.3077
  25   2.0000      -0.979041       -26.6411
  26   2.0000      -0.922170       -25.0935
  27   2.0000      -0.904145       -24.6030
  28   2.0000      -0.865487       -23.5511
  29   2.0000      -0.863957       -23.5095
  30   2.0000      -0.836254       -22.7556
  31   2.0000      -0.811812       -22.0905
  32   2.0000      -0.785358       -21.3707
  33   2.0000      -0.771794       -21.0016
  34   2.0000      -0.710706       -19.3393
  35   2.0000      -0.700816       -19.0702
  36   2.0000      -0.694593       -18.9008
  37   2.0000      -0.658811       -17.9272
  38   2.0000      -0.642287       -17.4775
  39   2.0000      -0.619472       -16.8567
  40   2.0000      -0.604741       -16.4558
  41   2.0000      -0.587081       -15.9753
  42   2.0000      -0.568091       -15.4585
  43   2.0000      -0.563642       -15.3375
  44   2.0000      -0.525690       -14.3047
  45   2.0000      -0.520239       -14.1564
  46   2.0000      -0.514796       -14.0083
  47   2.0000      -0.508391       -13.8340
  48   2.0000      -0.502438       -13.6720
  49   2.0000      -0.496493       -13.5103
  50   2.0000      -0.494928       -13.4677
  51   2.0000      -0.481172       -13.0934
  52   2.0000      -0.472888       -12.8679
  53   2.0000      -0.469695       -12.7810
  54   2.0000      -0.460280       -12.5248
  55   2.0000      -0.457330       -12.4446
  56   2.0000      -0.448261       -12.1978
  57   2.0000      -0.435571       -11.8525
  58   2.0000      -0.429705       -11.6929
  59   2.0000      -0.427277       -11.6268
  60   2.0000      -0.423169       -11.5150
  61   2.0000      -0.415635       -11.3100
  62   2.0000      -0.413607       -11.2548
  63   2.0000      -0.340255        -9.2588
  64   2.0000      -0.334826        -9.1111
  65   2.0000      -0.326935        -8.8964
  66   2.0000      -0.289545        -7.8789
  67   0.0000       0.025014         0.6807
  68   0.0000       0.066988         1.8228
  69   0.0000       0.111402         3.0314
  70   0.0000       0.118459         3.2234
  71   0.0000       0.128952         3.5090

MULLIKEN ATOMIC CHARGES
-----------------------
   0 S :    0.080066
   1 C :   -0.153986
   2 C :   -0.051137
   3 C :    0.019765
   4 C :   -0.147515
   5 H :    0.018312
   6 C :    0.060484
   7 H :    0.025358
   8 H :    0.028773
   9 C :   -0.043566
  10 H :    0.019755
  11 H :    0.006495
  12 C :   -0.070854
  13 H :    0.036554
  14 H :    0.038984
  15 H :    0.023817
  16 S :    0.138595
  17 C :   -0.079609
  18 C :   -0.030550
  19 C :   -0.004417
  20 C :   -0.174882
  21 H :   -0.003448
  22 C :    0.076870
  23 H :    0.017944
  24 H :    0.010481
  25 C :   -0.045592
  26 H :    0.015754
  27 H :    0.021982
  28 C :   -0.029586
  29 H :    0.021607
  30 H :    0.027687
  31 H :    0.021134
  32 H :    0.070351
  33 H :    0.054375
Sum of atomic charges:   -0.0000000

LOEWDIN ATOMIC CHARGES
----------------------
   0 S :    0.365843
   1 C :   -0.177796
   2 C :   -0.060432
   3 C :   -0.063858
   4 C :   -0.193676
   5 H :    0.029749
   6 C :   -0.021176
   7 H :    0.031320
   8 H :    0.027504
   9 C :   -0.034115
  10 H :    0.021136
  11 H :    0.010166
  12 C :   -0.072256
  13 H :    0.024557
  14 H :    0.034728
  15 H :    0.020773
  16 S :    0.440260
  17 C :   -0.191574
  18 C :   -0.064881
  19 C :   -0.042415
  20 C :   -0.209809
  21 H :    0.021884
  22 C :   -0.026687
  23 H :    0.031365
  24 H :    0.020697
  25 C :   -0.031945
  26 H :    0.012131
  27 H :    0.023943
  28 C :   -0.059808
  29 H :    0.024571
  30 H :    0.026067
  31 H :    0.025168
  32 H :    0.033200
  33 H :    0.025366

  Mayer bond orders larger than 0.100000
B(  0-S ,  1-C ) :   1.1255 B(  0-S ,  4-C ) :   1.1372 B(  1-C ,  2-C ) :   1.6192
B(  1-C , 32-H ) :   0.9696 B(  2-C ,  3-C ) :   1.2154 B(  2-C ,  6-C ) :   1.0270
B(  3-C ,  4-C ) :   1.5939 B(  3-C ,  5-H ) :   0.9890 B(  4-C , 20-C ) :   1.0493
B(  6-C ,  7-H ) :   0.9521 B(  6-C ,  8-H ) :   0.9485 B(  6-C ,  9-C ) :   1.0442
B(  9-C , 10-H ) :   0.9590 B(  9-C , 11-H ) :   0.9578 B(  9-C , 12-C ) :   1.0758
B( 12-C , 13-H ) :   0.9774 B( 12-C , 14-H ) :   0.9753 B( 12-C , 15-H ) :   0.9740
B( 16-S , 17-C ) :   1.2089 B( 16-S , 20-C ) :   1.1534 B( 17-C , 18-C ) :   1.5335
B( 17-C , 20-C ) :   0.1110 B( 17-C , 33-H ) :   0.9623 B( 18-C , 19-C ) :   1.3043
B( 18-C , 21-H ) :   1.0009 B( 19-C , 20-C ) :   1.5299 B( 19-C , 22-C ) :   1.0477
B( 22-C , 23-H ) :   0.9202 B( 22-C , 24-H ) :   0.9206 B( 22-C , 25-C ) :   1.0912
B( 25-C , 26-H ) :   0.9459 B( 25-C , 27-H ) :   0.9547 B( 25-C , 28-C ) :   1.0981
B( 28-C , 29-H ) :   0.9705 B( 28-C , 30-H ) :   0.9739 B( 28-C , 31-H ) :   0.9707

Dispersion correction           -0.013026800
FINAL SINGLE POINT ENERGY     -1339.855703025792

DIPOLE MOMENT
-------------
                                X             Y             Z
Electronic contribution:     -2.42487      24.78707      19.66873
Nuclear contribution   :      2.09179     -25.33075     -20.02717
                        -----------------------------------------
Total Dipole Moment    :     -0.33309      -0.54368      -0.35844
                        -----------------------------------------
Magnitude (a.u.)       :      0.73145
Magnitude (Debye)      :      1.85920

Rotational constants in cm-1:     0.016751     0.008024     0.005824
Rotational constants in MHz :   502.194471   240.555818   174.586641

                             ****ORCA TERMINATED NORMALLY****
TOTAL RUN TIME: 0 days 0 hours 0 minutes 20 seconds 723 msec
