                         Program Version 4.2.1 -  RELEASE  -
|  1> ! wB97X-D3 SP def2-SVP
|  2> %pal
|  3> nprocs 24
|  4> end
|  5>
|  6> * xyz 0 1
|  7> S 	 -99.4188 	 38.8024 	 -89.0829
|  8> C 	 -99.5566 	 37.3576 	 -88.1986
|  9> C 	 -100.812 	 37.1703 	 -87.7149
| 10> C 	 -101.748 	 38.1692 	 -88.1511
| 11> C 	 -101.126 	 39.0931 	 -88.9348
| 12> H 	 -102.787 	 38.2986 	 -87.8231
| 13> C 	 -101.287 	 36.1344 	 -86.7581
| 14> H 	 -100.416 	 35.435 	 -86.6899
| 15> H 	 -102.194 	 35.7755 	 -87.221
| 16> C 	 -101.538 	 36.821 	 -85.3543
| 17> H 	 -100.632 	 37.3167 	 -84.9653
| 18> H 	 -102.383 	 37.5704 	 -85.5008
| 19> C 	 -102.015 	 35.7423 	 -84.2683
| 20> H 	 -102.983 	 35.3009 	 -84.5011
| 21> H 	 -101.397 	 34.8437 	 -84.412
| 22> H 	 -101.832 	 36.1245 	 -83.2475
| 23> S 	 -101.281 	 41.7567 	 -88.8423
| 24> C 	 -102.759 	 42.5706 	 -89.3181
| 25> C 	 -103.651 	 41.706 	 -89.909
| 26> C 	 -103.156 	 40.3431 	 -90.0003
| 27> C 	 -101.882 	 40.2273 	 -89.4873
| 28> H 	 -104.613 	 41.9722 	 -90.2469
| 29> C 	 -104.099 	 39.1832 	 -90.4016
| 30> H 	 -103.419 	 38.3602 	 -90.7636
| 31> H 	 -104.779 	 39.555 	 -91.2507
| 32> C 	 -104.969 	 38.5809 	 -89.2904
| 33> H 	 -104.679 	 39.0404 	 -88.3543
| 34> H 	 -104.707 	 37.522 	 -89.2948
| 35> C 	 -106.494 	 38.6228 	 -89.3963
| 36> H 	 -106.852 	 38.2308 	 -90.3409
| 37> H 	 -107.044 	 39.5946 	 -89.3655
| 38> H 	 -106.916 	 38.0136 	 -88.604
| 39> H 	 -98.6667 	 36.7625 	 -88.0455
| 40> H 	 -102.899 	 43.5216 	 -88.9325
| 41> *
| 42>
| 43>                          ****END OF INPUT****

CARTESIAN COORDINATES (ANGSTROEM)
---------------------------------
  S    -99.418800   38.802400  -89.082900
  C    -99.556600   37.357600  -88.198600
  C    -100.812000   37.170300  -87.714900
  C    -101.748000   38.169200  -88.151100
  C    -101.126000   39.093100  -88.934800
  H    -102.787000   38.298600  -87.823100
  C    -101.287000   36.134400  -86.758100
  H    -100.416000   35.435000  -86.689900
  H    -102.194000   35.775500  -87.221000
  C    -101.538000   36.821000  -85.354300
  H    -100.632000   37.316700  -84.965300
  H    -102.383000   37.570400  -85.500800
  C    -102.015000   35.742300  -84.268300
  H    -102.983000   35.300900  -84.501100
  H    -101.397000   34.843700  -84.412000
  H    -101.832000   36.124500  -83.247500
  S    -101.281000   41.756700  -88.842300
  C    -102.759000   42.570600  -89.318100
  C    -103.651000   41.706000  -89.909000
  C    -103.156000   40.343100  -90.000300
  C    -101.882000   40.227300  -89.487300
  H    -104.613000   41.972200  -90.246900
  C    -104.099000   39.183200  -90.401600
  H    -103.419000   38.360200  -90.763600
  H    -104.779000   39.555000  -91.250700
  C    -104.969000   38.580900  -89.290400
  H    -104.679000   39.040400  -88.354300
  H    -104.707000   37.522000  -89.294800
  C    -106.494000   38.622800  -89.396300
  H    -106.852000   38.230800  -90.340900
  H    -107.044000   39.594600  -89.365500
  H    -106.916000   38.013600  -88.604000
  H    -98.666700   36.762500  -88.045500
  H    -102.899000   43.521600  -88.932500

 Total Charge           Charge          ....    0
 Multiplicity           Mult            ....    1
 Number of Electrons    NEL             ....  134
 Basis Dimension        Dim             ....  322

ORBITAL ENERGIES
----------------

  NO   OCC          E(Eh)            E(eV)
   0   2.0000     -88.963207     -2420.8119
   1   2.0000     -88.959279     -2420.7050
   2   2.0000     -10.325069      -280.9594
   3   2.0000     -10.324453      -280.9427
   4   2.0000     -10.314434      -280.6700
   5   2.0000     -10.306426      -280.4521
   6   2.0000     -10.306310      -280.4490
   7   2.0000     -10.303443      -280.3709
   8   2.0000     -10.301285      -280.3122
   9   2.0000     -10.294966      -280.1403
  10   2.0000     -10.294671      -280.1323
  11   2.0000     -10.293313      -280.0953
  12   2.0000     -10.290242      -280.0117
  13   2.0000     -10.288007      -279.9509
  14   2.0000     -10.283717      -279.8342
  15   2.0000     -10.282751      -279.8079
  16   2.0000      -8.079418      -219.8521
  17   2.0000      -8.074582      -219.7205
  18   2.0000      -6.037876      -164.2989
  19   2.0000      -6.033813      -164.1884
  20   2.0000      -6.033097      -164.1689
  21   2.0000      -6.030056      -164.0862
  22   2.0000      -6.028993      -164.0572
  23   2.0000      -6.025311      -163.9571
  24   2.0000      -1.011662       -27.5287
  25   2.0000      -0.985738       -26.8233
  26   2.0000      -0.908079       -24.7101
  27   2.0000      -0.906379       -24.6638
  28   2.0000      -0.871099       -23.7038
  29   2.0000      -0.850652       -23.1474
  30   2.0000      -0.844180       -22.9713
  31   2.0000      -0.813537       -22.1375
  32   2.0000      -0.782555       -21.2944
  33   2.0000      -0.769240       -20.9321
  34   2.0000      -0.704189       -19.1619
  35   2.0000      -0.698508       -19.0074
  36   2.0000      -0.690905       -18.8005
  37   2.0000      -0.671283       -18.2665
  38   2.0000      -0.646177       -17.5834
  39   2.0000      -0.614015       -16.7082
  40   2.0000      -0.599349       -16.3091
  41   2.0000      -0.568355       -15.4657
  42   2.0000      -0.558628       -15.2010
  43   2.0000      -0.548059       -14.9134
  44   2.0000      -0.541204       -14.7269
  45   2.0000      -0.529651       -14.4125
  46   2.0000      -0.519490       -14.1360
  47   2.0000      -0.508808       -13.8454
  48   2.0000      -0.507465       -13.8088
  49   2.0000      -0.499699       -13.5975
  50   2.0000      -0.493616       -13.4320
  51   2.0000      -0.475224       -12.9315
  52   2.0000      -0.471405       -12.8276
  53   2.0000      -0.464886       -12.6502
  54   2.0000      -0.452176       -12.3043
  55   2.0000      -0.450941       -12.2707
  56   2.0000      -0.444319       -12.0905
  57   2.0000      -0.441875       -12.0240
  58   2.0000      -0.432830       -11.7779
  59   2.0000      -0.424221       -11.5436
  60   2.0000      -0.420045       -11.4300
  61   2.0000      -0.414633       -11.2827
  62   2.0000      -0.410826       -11.1791
  63   2.0000      -0.350609        -9.5405
  64   2.0000      -0.327507        -8.9119
  65   2.0000      -0.326578        -8.8866
  66   2.0000      -0.294614        -8.0169
  67   0.0000       0.038205         1.0396
  68   0.0000       0.071027         1.9327
  69   0.0000       0.110778         3.0144
  70   0.0000       0.124515         3.3882
  71   0.0000       0.128287         3.4909

MULLIKEN ATOMIC CHARGES
-----------------------
   0 S :    0.116938
   1 C :   -0.139949
   2 C :   -0.072317
   3 C :   -0.007525
   4 C :   -0.132021
   5 H :    0.011850
   6 C :    0.081809
   7 H :    0.027005
   8 H :    0.033512
   9 C :   -0.127010
  10 H :    0.045611
  11 H :    0.047442
  12 C :   -0.037980
  13 H :    0.029151
  14 H :    0.017430
  15 H :    0.051455
  16 S :    0.075518
  17 C :   -0.063508
  18 C :   -0.000704
  19 C :   -0.081761
  20 C :   -0.128373
  21 H :    0.000843
  22 C :    0.025914
  23 H :    0.049124
  24 H :    0.040681
  25 C :   -0.084831
  26 H :    0.055911
  27 H :    0.035650
  28 C :   -0.046310
  29 H :    0.021304
  30 H :    0.033323
  31 H :    0.034380
  32 H :    0.045784
  33 H :    0.041656
Sum of atomic charges:    0.0000000

LOEWDIN ATOMIC CHARGES
----------------------
   0 S :    0.421032
   1 C :   -0.216585
   2 C :   -0.066773
   3 C :   -0.067404
   4 C :   -0.200690
   5 H :    0.034925
   6 C :   -0.031637
   7 H :    0.033529
   8 H :    0.031478
   9 C :   -0.035907
  10 H :    0.029075
  11 H :    0.028406
  12 C :   -0.076192
  13 H :    0.024730
  14 H :    0.023736
  15 H :    0.030758
  16 S :    0.391819
  17 C :   -0.164638
  18 C :   -0.061560
  19 C :   -0.059976
  20 C :   -0.186353
  21 H :    0.023078
  22 C :   -0.038630
  23 H :    0.041563
  24 H :    0.038546
  25 C :   -0.047945
  26 H :    0.023164
  27 H :    0.030828
  28 C :   -0.070097
  29 H :    0.021399
  30 H :    0.027270
  31 H :    0.028939
  32 H :    0.026808
  33 H :    0.013304

  Mayer bond orders larger than 0.100000
B(  0-S ,  1-C ) :   1.1289 B(  0-S ,  4-C ) :   1.1594 B(  1-C ,  2-C ) :   1.6246
B(  1-C , 32-H ) :   0.9721 B(  2-C ,  3-C ) :   1.2132 B(  2-C ,  6-C ) :   1.0286
B(  3-C ,  4-C ) :   1.5908 B(  3-C ,  5-H ) :   0.9834 B(  4-C , 20-C ) :   0.9930
B(  6-C ,  7-H ) :   0.9375 B(  6-C ,  8-H ) :   0.9336 B(  6-C ,  9-C ) :   1.0616
B(  9-C , 10-H ) :   0.9593 B(  9-C , 11-H ) :   0.9582 B(  9-C , 12-C ) :   1.0685
B( 12-C , 13-H ) :   0.9749 B( 12-C , 14-H ) :   0.9732 B( 12-C , 15-H ) :   0.9777
B( 16-S , 17-C ) :   1.1572 B( 16-S , 20-C ) :   1.1418 B( 17-C , 18-C ) :   1.5986
B( 17-C , 33-H ) :   0.9813 B( 18-C , 19-C ) :   1.2163 B( 18-C , 21-H ) :   1.0024
B( 19-C , 20-C ) :   1.6403 B( 19-C , 22-C ) :   1.0570 B( 22-C , 23-H ) :   0.9409
B( 22-C , 24-H ) :   0.9431 B( 22-C , 25-C ) :   1.0312 B( 25-C , 26-H ) :   0.9510
B( 25-C , 27-H ) :   0.9570 B( 25-C , 28-C ) :   1.0844 B( 28-C , 29-H ) :   0.9719
B( 28-C , 30-H ) :   0.9747 B( 28-C , 31-H ) :   0.9718

Dispersion correction           -0.014645656
FINAL SINGLE POINT ENERGY     -1339.869522805922

DIPOLE MOMENT
-------------
                                X             Y             Z
Electronic contribution:     21.06082      18.09501     -11.87587
Nuclear contribution   :    -21.67392     -18.46544      12.25277
                        -----------------------------------------
Total Dipole Moment    :     -0.61310      -0.37043       0.37690
                        -----------------------------------------
Magnitude (a.u.)       :      0.80942
Magnitude (Debye)      :      2.05739

Rotational constants in cm-1:     0.016038     0.009726     0.007237
Rotational constants in MHz :   480.817792   291.580086   216.966338

                             ****ORCA TERMINATED NORMALLY****
TOTAL RUN TIME: 0 days 0 hours 0 minutes 22 seconds 238 msec
