                         Program Version 4.2.1 -  RELEASE  -
|  1> ! wB97X-D3 SP def2-SVP
|  2> %pal
|  3> nprocs 24
|  4> end
|  5>
|  6> * xyz 0 1
|  7> S 	 -113.418 	 14.8725 	 -9.82643
|  8> C 	 -112.458 	 14.5019 	 -8.41871
|  9> C 	 -113.141 	 13.8441 	 -7.43399
| 10> C 	 -114.49 	 13.6852 	 -7.89054
| 11> C 	 -114.833 	 14.4608 	 -9.01033
| 12> H 	 -115.393 	 13.1457 	 -7.51184
| 13> C 	 -112.478 	 13.1606 	 -6.22976
| 14> H 	 -112.06 	 14.0385 	 -5.70685
| 15> H 	 -111.622 	 12.6389 	 -6.66874
| 16> C 	 -113.43 	 12.6254 	 -5.22367
| 17> H 	 -113.956 	 11.9057 	 -5.8318
| 18> H 	 -112.837 	 11.9991 	 -4.54596
| 19> C 	 -114.496 	 13.4304 	 -4.48258
| 20> H 	 -115.507 	 13.5556 	 -4.99971
| 21> H 	 -114.744 	 13.0511 	 -3.4921
| 22> H 	 -114.072 	 14.4098 	 -4.30259
| 23> S 	 -116.366 	 15.0222 	 -11.2919
| 24> C 	 -118.037 	 15.3063 	 -11.1193
| 25> C 	 -118.459 	 15.1037 	 -9.83305
| 26> C 	 -117.378 	 14.906 	 -8.88046
| 27> C 	 -116.189 	 14.6975 	 -9.56655
| 28> H 	 -119.471 	 15.2291 	 -9.64448
| 29> C 	 -117.573 	 14.8452 	 -7.34087
| 30> H 	 -116.564 	 14.8922 	 -6.94769
| 31> H 	 -117.966 	 13.8456 	 -7.05114
| 32> C 	 -118.43 	 15.9203 	 -6.69259
| 33> H 	 -118.424 	 15.7538 	 -5.69439
| 34> H 	 -119.444 	 15.7238 	 -7.11432
| 35> C 	 -118.044 	 17.3291 	 -7.00292
| 36> H 	 -118.013 	 17.3372 	 -8.09653
| 37> H 	 -117.017 	 17.5621 	 -6.61972
| 38> H 	 -118.729 	 18.0143 	 -6.62903
| 39> H 	 -111.367 	 14.6294 	 -8.33941
| 40> H 	 -118.676 	 15.3882 	 -11.8701
| 41> *
| 42>
| 43>                          ****END OF INPUT****

CARTESIAN COORDINATES (ANGSTROEM)
---------------------------------
  S    -113.418000   14.872500   -9.826430
  C    -112.458000   14.501900   -8.418710
  C    -113.141000   13.844100   -7.433990
  C    -114.490000   13.685200   -7.890540
  C    -114.833000   14.460800   -9.010330
  H    -115.393000   13.145700   -7.511840
  C    -112.478000   13.160600   -6.229760
  H    -112.060000   14.038500   -5.706850
  H    -111.622000   12.638900   -6.668740
  C    -113.430000   12.625400   -5.223670
  H    -113.956000   11.905700   -5.831800
  H    -112.837000   11.999100   -4.545960
  C    -114.496000   13.430400   -4.482580
  H    -115.507000   13.555600   -4.999710
  H    -114.744000   13.051100   -3.492100
  H    -114.072000   14.409800   -4.302590
  S    -116.366000   15.022200  -11.291900
  C    -118.037000   15.306300  -11.119300
  C    -118.459000   15.103700   -9.833050
  C    -117.378000   14.906000   -8.880460
  C    -116.189000   14.697500   -9.566550
  H    -119.471000   15.229100   -9.644480
  C    -117.573000   14.845200   -7.340870
  H    -116.564000   14.892200   -6.947690
  H    -117.966000   13.845600   -7.051140
  C    -118.430000   15.920300   -6.692590
  H    -118.424000   15.753800   -5.694390
  H    -119.444000   15.723800   -7.114320
  C    -118.044000   17.329100   -7.002920
  H    -118.013000   17.337200   -8.096530
  H    -117.017000   17.562100   -6.619720
  H    -118.729000   18.014300   -6.629030
  H    -111.367000   14.629400   -8.339410
  H    -118.676000   15.388200  -11.870100

 Total Charge           Charge          ....    0
 Multiplicity           Mult            ....    1
 Number of Electrons    NEL             ....  134
 Basis Dimension        Dim             ....  322

ORBITAL ENERGIES
----------------

  NO   OCC          E(Eh)            E(eV)
   0   2.0000     -88.965077     -2420.8628
   1   2.0000     -88.964659     -2420.8514
   2   2.0000     -10.330960      -281.1197
   3   2.0000     -10.324464      -280.9429
   4   2.0000     -10.308755      -280.5155
   5   2.0000     -10.308524      -280.5092
   6   2.0000     -10.305218      -280.4192
   7   2.0000     -10.301378      -280.3147
   8   2.0000     -10.297529      -280.2100
   9   2.0000     -10.295194      -280.1465
  10   2.0000     -10.293316      -280.0954
  11   2.0000     -10.289787      -279.9993
  12   2.0000     -10.288618      -279.9675
  13   2.0000     -10.286951      -279.9222
  14   2.0000     -10.276016      -279.6246
  15   2.0000     -10.267883      -279.4033
  16   2.0000      -8.080715      -219.8874
  17   2.0000      -8.080632      -219.8852
  18   2.0000      -6.039228      -164.3357
  19   2.0000      -6.039005      -164.3297
  20   2.0000      -6.035203      -164.2262
  21   2.0000      -6.035165      -164.2252
  22   2.0000      -6.031357      -164.1216
  23   2.0000      -6.031248      -164.1186
  24   2.0000      -1.012094       -27.5405
  25   2.0000      -0.990570       -26.9548
  26   2.0000      -0.921599       -25.0780
  27   2.0000      -0.915234       -24.9048
  28   2.0000      -0.872505       -23.7421
  29   2.0000      -0.853677       -23.2297
  30   2.0000      -0.840390       -22.8682
  31   2.0000      -0.815768       -22.1982
  32   2.0000      -0.792774       -21.5725
  33   2.0000      -0.781587       -21.2681
  34   2.0000      -0.713733       -19.4217
  35   2.0000      -0.699365       -19.0307
  36   2.0000      -0.691735       -18.8231
  37   2.0000      -0.656812       -17.8728
  38   2.0000      -0.638646       -17.3784
  39   2.0000      -0.618779       -16.8378
  40   2.0000      -0.599619       -16.3165
  41   2.0000      -0.573947       -15.6179
  42   2.0000      -0.563876       -15.3438
  43   2.0000      -0.558103       -15.1868
  44   2.0000      -0.552257       -15.0277
  45   2.0000      -0.533225       -14.5098
  46   2.0000      -0.522225       -14.2105
  47   2.0000      -0.508726       -13.8431
  48   2.0000      -0.501389       -13.6435
  49   2.0000      -0.498498       -13.5648
  50   2.0000      -0.487874       -13.2757
  51   2.0000      -0.484607       -13.1868
  52   2.0000      -0.477089       -12.9823
  53   2.0000      -0.466572       -12.6961
  54   2.0000      -0.461547       -12.5593
  55   2.0000      -0.458959       -12.4889
  56   2.0000      -0.447041       -12.1646
  57   2.0000      -0.446983       -12.1630
  58   2.0000      -0.433168       -11.7871
  59   2.0000      -0.419959       -11.4277
  60   2.0000      -0.415116       -11.2959
  61   2.0000      -0.411490       -11.1972
  62   2.0000      -0.401932       -10.9371
  63   2.0000      -0.355663        -9.6781
  64   2.0000      -0.331745        -9.0273
  65   2.0000      -0.325291        -8.8516
  66   2.0000      -0.283567        -7.7162
  67   0.0000       0.024334         0.6622
  68   0.0000       0.083971         2.2850
  69   0.0000       0.100532         2.7356
  70   0.0000       0.119561         3.2534
  71   0.0000       0.130965         3.5638

MULLIKEN ATOMIC CHARGES
-----------------------
   0 S :    0.118283
   1 C :   -0.132585
   2 C :   -0.089186
   3 C :   -0.036954
   4 C :   -0.156057
   5 H :    0.030588
   6 C :    0.079061
   7 H :    0.024254
   8 H :    0.055762
   9 C :   -0.065747
  10 H :    0.017334
  11 H :    0.030048
  12 C :   -0.042196
  13 H :    0.048034
  14 H :    0.036426
  15 H :    0.024637
  16 S :    0.099182
  17 C :   -0.020986
  18 C :   -0.018968
  19 C :   -0.090857
  20 C :   -0.126840
  21 H :   -0.005342
  22 C :    0.038320
  23 H :    0.026392
  24 H :    0.046665
  25 C :   -0.037470
  26 H :    0.005363
  27 H :    0.023143
  28 C :   -0.024162
  29 H :    0.037343
  30 H :    0.033945
  31 H :    0.025461
  32 H :    0.044154
  33 H :    0.002957
Sum of atomic charges:    0.0000000

LOEWDIN ATOMIC CHARGES
----------------------
   0 S :    0.431540
   1 C :   -0.207122
   2 C :   -0.066177
   3 C :   -0.081326
   4 C :   -0.213704
   5 H :    0.035503
   6 C :   -0.033757
   7 H :    0.035430
   8 H :    0.043953
   9 C :   -0.053480
  10 H :    0.022432
  11 H :    0.031522
  12 C :   -0.065745
  13 H :    0.035026
  14 H :    0.031396
  15 H :    0.024167
  16 S :    0.408236
  17 C :   -0.170999
  18 C :   -0.061860
  19 C :   -0.054076
  20 C :   -0.189651
  21 H :    0.018514
  22 C :   -0.033283
  23 H :    0.025390
  24 H :    0.035777
  25 C :   -0.035130
  26 H :    0.009769
  27 H :    0.025567
  28 C :   -0.057094
  29 H :    0.030184
  30 H :    0.030919
  31 H :    0.016807
  32 H :    0.029621
  33 H :    0.001652

  Mayer bond orders larger than 0.100000
B(  0-S ,  1-C ) :   1.1494 B(  0-S ,  4-C ) :   1.1727 B(  1-C ,  2-C ) :   1.6130
B(  1-C , 32-H ) :   0.9667 B(  2-C ,  3-C ) :   1.2397 B(  2-C ,  6-C ) :   0.9829
B(  3-C ,  4-C ) :   1.5361 B(  3-C ,  5-H ) :   0.9834 B(  4-C , 20-C ) :   1.0584
B(  6-C ,  7-H ) :   0.9275 B(  6-C ,  8-H ) :   0.9489 B(  6-C ,  9-C ) :   1.0756
B(  9-C , 10-H ) :   0.9467 B(  9-C , 11-H ) :   0.9503 B(  9-C , 12-C ) :   1.0691
B( 12-C , 13-H ) :   0.9702 B( 12-C , 14-H ) :   0.9718 B( 12-C , 15-H ) :   0.9748
B( 16-S , 17-C ) :   1.1541 B( 16-S , 20-C ) :   1.1331 B( 17-C , 18-C ) :   1.6357
B( 17-C , 33-H ) :   0.9769 B( 18-C , 19-C ) :   1.2060 B( 18-C , 21-H ) :   0.9979
B( 19-C , 20-C ) :   1.6121 B( 19-C , 22-C ) :   1.0271 B( 22-C , 23-H ) :   0.9213
B( 22-C , 24-H ) :   0.9369 B( 22-C , 25-C ) :   1.0804 B( 25-C , 26-H ) :   0.9488
B( 25-C , 27-H ) :   0.9495 B( 25-C , 28-C ) :   1.0881 B( 28-C , 29-H ) :   0.9709
B( 28-C , 30-H ) :   0.9720 B( 28-C , 31-H ) :   0.9716

Dispersion correction           -0.015089028
FINAL SINGLE POINT ENERGY     -1339.840626669757

DIPOLE MOMENT
-------------
                                X             Y             Z
Electronic contribution:      6.46800       0.55978     -28.15420
Nuclear contribution   :     -6.66177      -0.76728      28.81780
                        -----------------------------------------
Total Dipole Moment    :     -0.19376      -0.20749       0.66360
                        -----------------------------------------
Magnitude (a.u.)       :      0.72178
Magnitude (Debye)      :      1.83462

Rotational constants in cm-1:     0.017884     0.010273     0.007240
Rotational constants in MHz :   536.161885   307.991489   217.053686

                             ****ORCA TERMINATED NORMALLY****
TOTAL RUN TIME: 0 days 0 hours 0 minutes 22 seconds 799 msec
