                         Program Version 4.2.1 -  RELEASE  -
|  1> ! wB97X-D3 SP def2-SVP
|  2> %pal
|  3> nprocs 24
|  4> end
|  5>
|  6> * xyz 0 1
|  7> S 	 -52.6255 	 21.0028 	 -95.0728
|  8> C 	 -51.0838 	 20.8134 	 -94.299
|  9> C 	 -50.1185 	 20.6473 	 -95.2824
| 10> C 	 -50.6644 	 20.5977 	 -96.6221
| 11> C 	 -52.0407 	 20.8593 	 -96.7144
| 12> H 	 -50.0618 	 20.4522 	 -97.4561
| 13> C 	 -48.6341 	 20.398 	 -94.9523
| 14> H 	 -48.6893 	 19.7049 	 -94.0927
| 15> H 	 -48.114 	 21.215 	 -94.4666
| 16> C 	 -47.8048 	 19.6813 	 -96.0481
| 17> H 	 -47.807 	 20.2479 	 -96.9602
| 18> H 	 -46.8513 	 19.6806 	 -95.6093
| 19> C 	 -48.3442 	 18.2521 	 -96.3309
| 20> H 	 -49.2752 	 18.2881 	 -96.9493
| 21> H 	 -47.6595 	 17.5868 	 -96.8445
| 22> H 	 -48.6424 	 17.7767 	 -95.4317
| 23> S 	 -54.6648 	 20.4913 	 -97.5273
| 24> C 	 -55.0277 	 20.4042 	 -99.1521
| 25> C 	 -54.0357 	 20.8205 	 -99.986
| 26> C 	 -52.7592 	 20.8113 	 -99.2187
| 27> C 	 -52.9581 	 20.8377 	 -97.8622
| 28> H 	 -54.3738 	 20.9141 	 -101.079
| 29> C 	 -51.4606 	 21.0865 	 -99.9526
| 30> H 	 -51.5173 	 20.6642 	 -100.964
| 31> H 	 -50.625 	 20.4754 	 -99.617
| 32> C 	 -51.1694 	 22.5836 	 -100.067
| 33> H 	 -50.9782 	 22.796 	 -98.9922
| 34> H 	 -52.0863 	 23.1029 	 -100.267
| 35> C 	 -50.0817 	 23.0236 	 -101.035
| 36> H 	 -50.5039 	 22.9954 	 -102.06
| 37> H 	 -49.2148 	 22.3801 	 -100.806
| 38> H 	 -49.7768 	 24.0434 	 -100.807
| 39> H 	 -50.8262 	 20.7681 	 -93.2108
| 40> H 	 -56.1507 	 20.422 	 -99.3821
| 41> *
| 42>
| 43>                          ****END OF INPUT****

CARTESIAN COORDINATES (ANGSTROEM)
---------------------------------
  S    -52.625500   21.002800  -95.072800
  C    -51.083800   20.813400  -94.299000
  C    -50.118500   20.647300  -95.282400
  C    -50.664400   20.597700  -96.622100
  C    -52.040700   20.859300  -96.714400
  H    -50.061800   20.452200  -97.456100
  C    -48.634100   20.398000  -94.952300
  H    -48.689300   19.704900  -94.092700
  H    -48.114000   21.215000  -94.466600
  C    -47.804800   19.681300  -96.048100
  H    -47.807000   20.247900  -96.960200
  H    -46.851300   19.680600  -95.609300
  C    -48.344200   18.252100  -96.330900
  H    -49.275200   18.288100  -96.949300
  H    -47.659500   17.586800  -96.844500
  H    -48.642400   17.776700  -95.431700
  S    -54.664800   20.491300  -97.527300
  C    -55.027700   20.404200  -99.152100
  C    -54.035700   20.820500  -99.986000
  C    -52.759200   20.811300  -99.218700
  C    -52.958100   20.837700  -97.862200
  H    -54.373800   20.914100  -101.079000
  C    -51.460600   21.086500  -99.952600
  H    -51.517300   20.664200  -100.964000
  H    -50.625000   20.475400  -99.617000
  C    -51.169400   22.583600  -100.067000
  H    -50.978200   22.796000  -98.992200
  H    -52.086300   23.102900  -100.267000
  C    -50.081700   23.023600  -101.035000
  H    -50.503900   22.995400  -102.060000
  H    -49.214800   22.380100  -100.806000
  H    -49.776800   24.043400  -100.807000
  H    -50.826200   20.768100  -93.210800
  H    -56.150700   20.422000  -99.382100

 Total Charge           Charge          ....    0
 Multiplicity           Mult            ....    1
 Number of Electrons    NEL             ....  134
 Basis Dimension        Dim             ....  322

ORBITAL ENERGIES
----------------

  NO   OCC          E(Eh)            E(eV)
   0   2.0000     -88.966071     -2420.8899
   1   2.0000     -88.960501     -2420.7383
   2   2.0000     -10.337031      -281.2849
   3   2.0000     -10.332437      -281.1599
   4   2.0000     -10.316566      -280.7280
   5   2.0000     -10.315208      -280.6911
   6   2.0000     -10.314078      -280.6603
   7   2.0000     -10.304692      -280.4049
   8   2.0000     -10.302923      -280.3568
   9   2.0000     -10.294674      -280.1323
  10   2.0000     -10.293111      -280.0898
  11   2.0000     -10.290971      -280.0315
  12   2.0000     -10.286717      -279.9158
  13   2.0000     -10.283162      -279.8191
  14   2.0000     -10.281474      -279.7731
  15   2.0000     -10.276378      -279.6345
  16   2.0000      -8.080724      -219.8877
  17   2.0000      -8.077300      -219.7945
  18   2.0000      -6.039419      -164.3409
  19   2.0000      -6.035806      -164.2426
  20   2.0000      -6.035055      -164.2222
  21   2.0000      -6.031602      -164.1282
  22   2.0000      -6.031473      -164.1247
  23   2.0000      -6.027827      -164.0255
  24   2.0000      -1.011180       -27.5156
  25   2.0000      -0.987774       -26.8787
  26   2.0000      -0.913184       -24.8490
  27   2.0000      -0.910414       -24.7736
  28   2.0000      -0.871482       -23.7142
  29   2.0000      -0.851833       -23.1796
  30   2.0000      -0.836215       -22.7546
  31   2.0000      -0.817460       -22.2442
  32   2.0000      -0.786473       -21.4010
  33   2.0000      -0.775131       -21.0924
  34   2.0000      -0.713270       -19.4091
  35   2.0000      -0.698033       -18.9945
  36   2.0000      -0.687932       -18.7196
  37   2.0000      -0.659271       -17.9397
  38   2.0000      -0.632705       -17.2168
  39   2.0000      -0.629414       -17.1272
  40   2.0000      -0.600422       -16.3383
  41   2.0000      -0.569413       -15.4945
  42   2.0000      -0.560415       -15.2497
  43   2.0000      -0.551327       -15.0024
  44   2.0000      -0.533713       -14.5231
  45   2.0000      -0.525992       -14.3130
  46   2.0000      -0.514869       -14.0103
  47   2.0000      -0.511012       -13.9053
  48   2.0000      -0.505600       -13.7581
  49   2.0000      -0.496882       -13.5208
  50   2.0000      -0.493547       -13.4301
  51   2.0000      -0.487346       -13.2614
  52   2.0000      -0.467834       -12.7304
  53   2.0000      -0.465162       -12.6577
  54   2.0000      -0.457162       -12.4400
  55   2.0000      -0.454989       -12.3809
  56   2.0000      -0.441186       -12.0053
  57   2.0000      -0.440695       -11.9919
  58   2.0000      -0.432368       -11.7653
  59   2.0000      -0.430040       -11.7020
  60   2.0000      -0.423112       -11.5135
  61   2.0000      -0.407902       -11.0996
  62   2.0000      -0.401953       -10.9377
  63   2.0000      -0.365391        -9.9428
  64   2.0000      -0.330803        -9.0016
  65   2.0000      -0.323137        -8.7930
  66   2.0000      -0.286582        -7.7983
  67   0.0000       0.022295         0.6067
  68   0.0000       0.083023         2.2592
  69   0.0000       0.106342         2.8937
  70   0.0000       0.113168         3.0795
  71   0.0000       0.127908         3.4806

MULLIKEN ATOMIC CHARGES
-----------------------
   0 S :    0.096817
   1 C :   -0.126680
   2 C :   -0.100446
   3 C :    0.034758
   4 C :   -0.099585
   5 H :   -0.035928
   6 C :    0.025894
   7 H :    0.018754
   8 H :    0.037034
   9 C :   -0.038013
  10 H :    0.034678
  11 H :    0.020766
  12 C :   -0.053177
  13 H :    0.036926
  14 H :    0.036318
  15 H :    0.020051
  16 S :    0.090876
  17 C :   -0.110400
  18 C :   -0.053048
  19 C :   -0.105838
  20 C :   -0.079727
  21 H :    0.061216
  22 C :    0.037018
  23 H :    0.004573
  24 H :    0.024830
  25 C :   -0.074116
  26 H :    0.025664
  27 H :    0.020606
  28 C :   -0.018502
  29 H :    0.047598
  30 H :    0.033722
  31 H :    0.036867
  32 H :    0.067314
  33 H :    0.083179
Sum of atomic charges:   -0.0000000

LOEWDIN ATOMIC CHARGES
----------------------
   0 S :    0.413703
   1 C :   -0.215392
   2 C :   -0.063749
   3 C :   -0.066831
   4 C :   -0.186609
   5 H :    0.011645
   6 C :   -0.036196
   7 H :    0.032191
   8 H :    0.030601
   9 C :   -0.033348
  10 H :    0.020372
  11 H :    0.022309
  12 C :   -0.064291
  13 H :    0.031848
  14 H :    0.024959
  15 H :    0.019847
  16 S :    0.415312
  17 C :   -0.216879
  18 C :   -0.086102
  19 C :   -0.045474
  20 C :   -0.188843
  21 H :    0.053913
  22 C :   -0.041886
  23 H :    0.026163
  24 H :    0.025096
  25 C :   -0.044742
  26 H :    0.027678
  27 H :    0.020729
  28 C :   -0.064219
  29 H :    0.032784
  30 H :    0.029123
  31 H :    0.029550
  32 H :    0.045149
  33 H :    0.041591

  Mayer bond orders larger than 0.100000
B(  0-S ,  1-C ) :   1.1429 B(  0-S ,  4-C ) :   1.1619 B(  1-C ,  2-C ) :   1.5968
B(  1-C ,  4-C ) :   0.1011 B(  1-C , 32-H ) :   0.9649 B(  2-C ,  3-C ) :   1.2859
B(  2-C ,  6-C ) :   0.9944 B(  3-C ,  4-C ) :   1.5264 B(  3-C ,  5-H ) :   0.9936
B(  4-C , 20-C ) :   1.0725 B(  6-C ,  7-H ) :   0.9435 B(  6-C ,  8-H ) :   0.9421
B(  6-C ,  9-C ) :   1.0846 B(  9-C , 10-H ) :   0.9538 B(  9-C , 11-H ) :   0.9501
B(  9-C , 12-C ) :   1.0718 B( 12-C , 13-H ) :   0.9719 B( 12-C , 14-H ) :   0.9762
B( 12-C , 15-H ) :   0.9761 B( 16-S , 17-C ) :   1.1821 B( 16-S , 20-C ) :   1.1146
B( 17-C , 18-C ) :   1.6521 B( 17-C , 33-H ) :   0.9475 B( 18-C , 19-C ) :   1.1777
B( 18-C , 21-H ) :   0.9753 B( 19-C , 20-C ) :   1.6334 B( 19-C , 22-C ) :   1.0680
B( 22-C , 23-H ) :   0.9246 B( 22-C , 24-H ) :   0.9305 B( 22-C , 25-C ) :   1.0476
B( 25-C , 26-H ) :   0.9533 B( 25-C , 27-H ) :   0.9551 B( 25-C , 28-C ) :   1.0744
B( 28-C , 29-H ) :   0.9738 B( 28-C , 30-H ) :   0.9737 B( 28-C , 31-H ) :   0.9715

Dispersion correction           -0.014440403
FINAL SINGLE POINT ENERGY     -1339.860063242396

DIPOLE MOMENT
-------------
                                X             Y             Z
Electronic contribution:    -25.71083       0.23171      11.59006
Nuclear contribution   :     26.23647      -0.23058     -11.90429
                        -----------------------------------------
Total Dipole Moment    :      0.52565       0.00112      -0.31423
                        -----------------------------------------
Magnitude (a.u.)       :      0.61241
Magnitude (Debye)      :      1.55662

Rotational constants in cm-1:     0.016629     0.009909     0.007183
Rotational constants in MHz :   498.522237   297.055861   215.352901

                             ****ORCA TERMINATED NORMALLY****
TOTAL RUN TIME: 0 days 0 hours 0 minutes 22 seconds 278 msec
