                         Program Version 4.2.1 -  RELEASE  -
|  1> ! wB97X-D3 SP def2-SVP
|  2> %pal
|  3> nprocs 24
|  4> end
|  5>
|  6> * xyz 0 1
|  7> S 	 -40.6815 	 -46.5385 	 -80.0294
|  8> C 	 -39.5035 	 -47.1544 	 -81.1401
|  9> C 	 -39.5274 	 -48.5854 	 -81.2164
| 10> C 	 -40.62 	 -49.1395 	 -80.4183
| 11> C 	 -41.3026 	 -48.1822 	 -79.6569
| 12> H 	 -40.8011 	 -50.1755 	 -80.2988
| 13> C 	 -38.4437 	 -49.4233 	 -81.9694
| 14> H 	 -38.0713 	 -50.1402 	 -81.2537
| 15> H 	 -37.4775 	 -48.8966 	 -82.0638
| 16> C 	 -39.0727 	 -50.0157 	 -83.2651
| 17> H 	 -40.0509 	 -50.5394 	 -82.9802
| 18> H 	 -39.1796 	 -49.1563 	 -83.9259
| 19> C 	 -38.1559 	 -51.0248 	 -83.9823
| 20> H 	 -38.633 	 -51.5735 	 -84.6973
| 21> H 	 -37.4216 	 -50.4812 	 -84.5321
| 22> H 	 -37.7126 	 -51.7211 	 -83.2236
| 23> S 	 -42.2209 	 -48.1996 	 -76.9912
| 24> C 	 -43.8208 	 -48.7875 	 -76.7135
| 25> C 	 -44.5021 	 -49.1582 	 -77.8364
| 26> C 	 -43.7319 	 -48.9405 	 -79.0658
| 27> C 	 -42.4491 	 -48.4366 	 -78.7613
| 28> H 	 -45.5063 	 -49.6598 	 -77.7678
| 29> C 	 -44.3073 	 -49.1528 	 -80.4395
| 30> H 	 -45.1245 	 -49.9742 	 -80.4439
| 31> H 	 -43.4704 	 -49.5746 	 -81.0064
| 32> C 	 -44.9889 	 -47.9486 	 -81.1369
| 33> H 	 -45.6393 	 -48.2974 	 -81.9989
| 34> H 	 -44.26 	 -47.2664 	 -81.5839
| 35> C 	 -45.9779 	 -47.1552 	 -80.2945
| 36> H 	 -46.4502 	 -46.3328 	 -80.8677
| 37> H 	 -45.4032 	 -46.6782 	 -79.4261
| 38> H 	 -46.7354 	 -47.9045 	 -80.0287
| 39> H 	 -38.7308 	 -46.6356 	 -81.5892
| 40> H 	 -44.1873 	 -49.047 	 -75.6761
| 41> *
| 42>
| 43>                          ****END OF INPUT****

CARTESIAN COORDINATES (ANGSTROEM)
---------------------------------
  S    -40.681500  -46.538500  -80.029400
  C    -39.503500  -47.154400  -81.140100
  C    -39.527400  -48.585400  -81.216400
  C    -40.620000  -49.139500  -80.418300
  C    -41.302600  -48.182200  -79.656900
  H    -40.801100  -50.175500  -80.298800
  C    -38.443700  -49.423300  -81.969400
  H    -38.071300  -50.140200  -81.253700
  H    -37.477500  -48.896600  -82.063800
  C    -39.072700  -50.015700  -83.265100
  H    -40.050900  -50.539400  -82.980200
  H    -39.179600  -49.156300  -83.925900
  C    -38.155900  -51.024800  -83.982300
  H    -38.633000  -51.573500  -84.697300
  H    -37.421600  -50.481200  -84.532100
  H    -37.712600  -51.721100  -83.223600
  S    -42.220900  -48.199600  -76.991200
  C    -43.820800  -48.787500  -76.713500
  C    -44.502100  -49.158200  -77.836400
  C    -43.731900  -48.940500  -79.065800
  C    -42.449100  -48.436600  -78.761300
  H    -45.506300  -49.659800  -77.767800
  C    -44.307300  -49.152800  -80.439500
  H    -45.124500  -49.974200  -80.443900
  H    -43.470400  -49.574600  -81.006400
  C    -44.988900  -47.948600  -81.136900
  H    -45.639300  -48.297400  -81.998900
  H    -44.260000  -47.266400  -81.583900
  C    -45.977900  -47.155200  -80.294500
  H    -46.450200  -46.332800  -80.867700
  H    -45.403200  -46.678200  -79.426100
  H    -46.735400  -47.904500  -80.028700
  H    -38.730800  -46.635600  -81.589200
  H    -44.187300  -49.047000  -75.676100

 Total Charge           Charge          ....    0
 Multiplicity           Mult            ....    1
 Number of Electrons    NEL             ....  134
 Basis Dimension        Dim             ....  322

ORBITAL ENERGIES
----------------

  NO   OCC          E(Eh)            E(eV)
   0   2.0000     -88.968648     -2420.9600
   1   2.0000     -88.966987     -2420.9148
   2   2.0000     -10.335770      -281.2506
   3   2.0000     -10.333730      -281.1951
   4   2.0000     -10.319859      -280.8177
   5   2.0000     -10.312882      -280.6278
   6   2.0000     -10.312427      -280.6154
   7   2.0000     -10.310410      -280.5605
   8   2.0000     -10.300000      -280.2772
   9   2.0000     -10.299729      -280.2699
  10   2.0000     -10.298994      -280.2499
  11   2.0000     -10.298145      -280.2268
  12   2.0000     -10.295705      -280.1604
  13   2.0000     -10.286756      -279.9169
  14   2.0000     -10.279414      -279.7171
  15   2.0000     -10.272025      -279.5160
  16   2.0000      -8.082505      -219.9362
  17   2.0000      -8.081505      -219.9089
  18   2.0000      -6.041029      -164.3848
  19   2.0000      -6.039993      -164.3566
  20   2.0000      -6.037046      -164.2764
  21   2.0000      -6.036151      -164.2520
  22   2.0000      -6.033399      -164.1771
  23   2.0000      -6.032182      -164.1440
  24   2.0000      -0.995633       -27.0925
  25   2.0000      -0.974627       -26.5210
  26   2.0000      -0.904922       -24.6242
  27   2.0000      -0.904005       -24.5992
  28   2.0000      -0.864365       -23.5206
  29   2.0000      -0.847125       -23.0514
  30   2.0000      -0.843944       -22.9649
  31   2.0000      -0.812308       -22.1040
  32   2.0000      -0.781856       -21.2754
  33   2.0000      -0.766923       -20.8690
  34   2.0000      -0.703248       -19.1364
  35   2.0000      -0.696445       -18.9512
  36   2.0000      -0.678481       -18.4624
  37   2.0000      -0.652108       -17.7448
  38   2.0000      -0.643917       -17.5219
  39   2.0000      -0.615566       -16.7504
  40   2.0000      -0.584784       -15.9128
  41   2.0000      -0.565967       -15.4007
  42   2.0000      -0.562443       -15.3048
  43   2.0000      -0.554275       -15.0826
  44   2.0000      -0.544141       -14.8068
  45   2.0000      -0.524424       -14.2703
  46   2.0000      -0.512298       -13.9403
  47   2.0000      -0.505671       -13.7600
  48   2.0000      -0.501069       -13.6348
  49   2.0000      -0.493334       -13.4243
  50   2.0000      -0.485420       -13.2089
  51   2.0000      -0.477718       -12.9994
  52   2.0000      -0.465641       -12.6707
  53   2.0000      -0.460021       -12.5178
  54   2.0000      -0.458700       -12.4819
  55   2.0000      -0.448030       -12.1915
  56   2.0000      -0.440907       -11.9977
  57   2.0000      -0.438646       -11.9362
  58   2.0000      -0.430337       -11.7101
  59   2.0000      -0.425254       -11.5718
  60   2.0000      -0.414818       -11.2878
  61   2.0000      -0.410000       -11.1567
  62   2.0000      -0.408813       -11.1244
  63   2.0000      -0.338988        -9.2243
  64   2.0000      -0.330606        -8.9963
  65   2.0000      -0.326494        -8.8843
  66   2.0000      -0.297992        -8.1088
  67   0.0000       0.034554         0.9403
  68   0.0000       0.057470         1.5638
  69   0.0000       0.111592         3.0366
  70   0.0000       0.116569         3.1720
  71   0.0000       0.125073         3.4034

MULLIKEN ATOMIC CHARGES
-----------------------
   0 S :    0.116419
   1 C :   -0.073885
   2 C :   -0.130730
   3 C :    0.068962
   4 C :   -0.170889
   5 H :    0.007751
   6 C :    0.048364
   7 H :    0.021612
   8 H :    0.021732
   9 C :   -0.108125
  10 H :    0.049892
  11 H :    0.038509
  12 C :    0.008661
  13 H :    0.012131
  14 H :    0.020150
  15 H :    0.034038
  16 S :    0.110816
  17 C :   -0.103668
  18 C :   -0.052051
  19 C :   -0.039432
  20 C :   -0.180465
  21 H :    0.041685
  22 C :    0.064662
  23 H :    0.032927
  24 H :    0.031048
  25 C :   -0.088716
  26 H :    0.032257
  27 H :    0.035587
  28 C :   -0.080631
  29 H :    0.042495
  30 H :    0.061708
  31 H :    0.029034
  32 H :    0.021210
  33 H :    0.076943
Sum of atomic charges:    0.0000000

LOEWDIN ATOMIC CHARGES
----------------------
   0 S :    0.399727
   1 C :   -0.197767
   2 C :   -0.053826
   3 C :   -0.052766
   4 C :   -0.189818
   5 H :    0.026309
   6 C :   -0.039410
   7 H :    0.027088
   8 H :    0.031817
   9 C :   -0.039144
  10 H :    0.033589
  11 H :    0.027774
  12 C :   -0.060503
  13 H :    0.012388
  14 H :    0.022760
  15 H :    0.030575
  16 S :    0.394704
  17 C :   -0.198164
  18 C :   -0.081974
  19 C :   -0.046664
  20 C :   -0.194080
  21 H :    0.042025
  22 C :   -0.041732
  23 H :    0.038566
  24 H :    0.035631
  25 C :   -0.047370
  26 H :    0.029444
  27 H :    0.021478
  28 C :   -0.073785
  29 H :    0.029327
  30 H :    0.035932
  31 H :    0.023312
  32 H :    0.013075
  33 H :    0.041479

  Mayer bond orders larger than 0.100000
B(  0-S ,  1-C ) :   1.1494 B(  0-S ,  4-C ) :   1.1396 B(  1-C ,  2-C ) :   1.6015
B(  1-C ,  4-C ) :   0.1006 B(  1-C , 32-H ) :   0.9731 B(  2-C ,  3-C ) :   1.2451
B(  2-C ,  6-C ) :   1.0175 B(  3-C ,  4-C ) :   1.5832 B(  3-C ,  5-H ) :   0.9916
B(  4-C , 20-C ) :   1.0318 B(  6-C ,  7-H ) :   0.9427 B(  6-C ,  8-H ) :   0.9478
B(  6-C ,  9-C ) :   1.0375 B(  9-C , 10-H ) :   0.9622 B(  9-C , 11-H ) :   0.9595
B(  9-C , 12-C ) :   1.0787 B( 12-C , 13-H ) :   0.9732 B( 12-C , 14-H ) :   0.9730
B( 12-C , 15-H ) :   0.9756 B( 16-S , 17-C ) :   1.1519 B( 16-S , 20-C ) :   1.1317
B( 17-C , 18-C ) :   1.6453 B( 17-C , 33-H ) :   0.9534 B( 18-C , 19-C ) :   1.2121
B( 18-C , 21-H ) :   0.9786 B( 19-C , 20-C ) :   1.6025 B( 19-C , 22-C ) :   1.0471
B( 22-C , 23-H ) :   0.9379 B( 22-C , 24-H ) :   0.9252 B( 22-C , 25-C ) :   1.0630
B( 25-C , 26-H ) :   0.9585 B( 25-C , 27-H ) :   0.9567 B( 25-C , 28-C ) :   1.0786
B( 28-C , 29-H ) :   0.9730 B( 28-C , 30-H ) :   0.9685 B( 28-C , 31-H ) :   0.9761

Dispersion correction           -0.014521988
FINAL SINGLE POINT ENERGY     -1339.868812110708

DIPOLE MOMENT
-------------
                                X             Y             Z
Electronic contribution:      2.69534      10.74098      21.68782
Nuclear contribution   :     -2.68845     -11.24767     -22.08298
                        -----------------------------------------
Total Dipole Moment    :      0.00690      -0.50669      -0.39516
                        -----------------------------------------
Magnitude (a.u.)       :      0.64260
Magnitude (Debye)      :      1.63336

Rotational constants in cm-1:     0.020096     0.007498     0.006776
Rotational constants in MHz :   602.455011   224.790628   203.142653

                             ****ORCA TERMINATED NORMALLY****
TOTAL RUN TIME: 0 days 0 hours 0 minutes 21 seconds 291 msec
