                         Program Version 4.2.1 -  RELEASE  -
|  1> ! wB97X-D3 SP def2-SVP
|  2> %pal
|  3> nprocs 24
|  4> end
|  5>
|  6> * xyz 0 1
|  7> S 	 -81.6797 	 -38.3804 	 -75.7805
|  8> C 	 -81.6052 	 -38.2374 	 -77.5436
|  9> C 	 -81.7789 	 -39.475 	 -78.1383
| 10> C 	 -81.9399 	 -40.4721 	 -77.1207
| 11> C 	 -81.8257 	 -40.084 	 -75.797
| 12> H 	 -81.9785 	 -41.5946 	 -77.2262
| 13> C 	 -81.6898 	 -39.8324 	 -79.6238
| 14> H 	 -81.3687 	 -40.9027 	 -79.7592
| 15> H 	 -80.9203 	 -39.2189 	 -79.9985
| 16> C 	 -83.0684 	 -39.6332 	 -80.3002
| 17> H 	 -82.9179 	 -39.9917 	 -81.331
| 18> H 	 -83.8169 	 -40.3579 	 -79.862
| 19> C 	 -83.533 	 -38.1521 	 -80.125
| 20> H 	 -82.8446 	 -37.5882 	 -80.6881
| 21> H 	 -84.4597 	 -37.8593 	 -80.6812
| 22> H 	 -83.5483 	 -37.7991 	 -79.15
| 23> S 	 -80.5321 	 -40.6817 	 -73.3763
| 24> C 	 -81.2031 	 -41.9749 	 -72.4142
| 25> C 	 -82.3697 	 -42.4819 	 -72.9346
| 26> C 	 -82.7546 	 -41.9234 	 -74.1713
| 27> C 	 -81.8626 	 -40.8741 	 -74.5629
| 28> H 	 -82.8498 	 -43.2579 	 -72.3638
| 29> C 	 -83.9679 	 -42.457 	 -74.9363
| 30> H 	 -84.0053 	 -41.972 	 -75.8858
| 31> H 	 -84.8504 	 -42.1276 	 -74.4496
| 32> C 	 -83.9482 	 -43.9495 	 -75.0787
| 33> H 	 -84.8388 	 -44.2091 	 -75.7013
| 34> H 	 -83.9189 	 -44.6421 	 -74.1986
| 35> C 	 -82.7163 	 -44.4094 	 -75.8303
| 36> H 	 -81.7708 	 -44.2308 	 -75.3569
| 37> H 	 -82.6338 	 -43.858 	 -76.7774
| 38> H 	 -82.7338 	 -45.4329 	 -76.0583
| 39> H 	 -81.2805 	 -37.3576 	 -78.1189
| 40> H 	 -80.8951 	 -42.2112 	 -71.3557
| 41> *
| 42>
| 43>                          ****END OF INPUT****

CARTESIAN COORDINATES (ANGSTROEM)
---------------------------------
  S    -81.679700  -38.380400  -75.780500
  C    -81.605200  -38.237400  -77.543600
  C    -81.778900  -39.475000  -78.138300
  C    -81.939900  -40.472100  -77.120700
  C    -81.825700  -40.084000  -75.797000
  H    -81.978500  -41.594600  -77.226200
  C    -81.689800  -39.832400  -79.623800
  H    -81.368700  -40.902700  -79.759200
  H    -80.920300  -39.218900  -79.998500
  C    -83.068400  -39.633200  -80.300200
  H    -82.917900  -39.991700  -81.331000
  H    -83.816900  -40.357900  -79.862000
  C    -83.533000  -38.152100  -80.125000
  H    -82.844600  -37.588200  -80.688100
  H    -84.459700  -37.859300  -80.681200
  H    -83.548300  -37.799100  -79.150000
  S    -80.532100  -40.681700  -73.376300
  C    -81.203100  -41.974900  -72.414200
  C    -82.369700  -42.481900  -72.934600
  C    -82.754600  -41.923400  -74.171300
  C    -81.862600  -40.874100  -74.562900
  H    -82.849800  -43.257900  -72.363800
  C    -83.967900  -42.457000  -74.936300
  H    -84.005300  -41.972000  -75.885800
  H    -84.850400  -42.127600  -74.449600
  C    -83.948200  -43.949500  -75.078700
  H    -84.838800  -44.209100  -75.701300
  H    -83.918900  -44.642100  -74.198600
  C    -82.716300  -44.409400  -75.830300
  H    -81.770800  -44.230800  -75.356900
  H    -82.633800  -43.858000  -76.777400
  H    -82.733800  -45.432900  -76.058300
  H    -81.280500  -37.357600  -78.118900
  H    -80.895100  -42.211200  -71.355700

 Total Charge           Charge          ....    0
 Multiplicity           Mult            ....    1
 Number of Electrons    NEL             ....  134
 Basis Dimension        Dim             ....  322

ORBITAL ENERGIES
----------------

  NO   OCC          E(Eh)            E(eV)
   0   2.0000     -88.970068     -2420.9986
   1   2.0000     -88.963029     -2420.8071
   2   2.0000     -10.335565      -281.2450
   3   2.0000     -10.326102      -280.9875
   4   2.0000     -10.321130      -280.8522
   5   2.0000     -10.316298      -280.7207
   6   2.0000     -10.310193      -280.5546
   7   2.0000     -10.303463      -280.3715
   8   2.0000     -10.296554      -280.1835
   9   2.0000     -10.296210      -280.1741
  10   2.0000     -10.294238      -280.1205
  11   2.0000     -10.291643      -280.0498
  12   2.0000     -10.291026      -280.0330
  13   2.0000     -10.288393      -279.9614
  14   2.0000     -10.271364      -279.4980
  15   2.0000     -10.266688      -279.3708
  16   2.0000      -8.083977      -219.9762
  17   2.0000      -8.078143      -219.8174
  18   2.0000      -6.042477      -164.4242
  19   2.0000      -6.038569      -164.3178
  20   2.0000      -6.036686      -164.2666
  21   2.0000      -6.034820      -164.2158
  22   2.0000      -6.032482      -164.1522
  23   2.0000      -6.028948      -164.0560
  24   2.0000      -1.004770       -27.3412
  25   2.0000      -0.983209       -26.7545
  26   2.0000      -0.918592       -24.9962
  27   2.0000      -0.912216       -24.8226
  28   2.0000      -0.864737       -23.5307
  29   2.0000      -0.849325       -23.1113
  30   2.0000      -0.838497       -22.8167
  31   2.0000      -0.811147       -22.0724
  32   2.0000      -0.788824       -21.4650
  33   2.0000      -0.780118       -21.2281
  34   2.0000      -0.710510       -19.3340
  35   2.0000      -0.697953       -18.9923
  36   2.0000      -0.692811       -18.8524
  37   2.0000      -0.651552       -17.7296
  38   2.0000      -0.640264       -17.4225
  39   2.0000      -0.614792       -16.7293
  40   2.0000      -0.598198       -16.2778
  41   2.0000      -0.572326       -15.5738
  42   2.0000      -0.563852       -15.3432
  43   2.0000      -0.546837       -14.8802
  44   2.0000      -0.541354       -14.7310
  45   2.0000      -0.537355       -14.6222
  46   2.0000      -0.518883       -14.1195
  47   2.0000      -0.510083       -13.8801
  48   2.0000      -0.502577       -13.6758
  49   2.0000      -0.494182       -13.4474
  50   2.0000      -0.489839       -13.3292
  51   2.0000      -0.476994       -12.9797
  52   2.0000      -0.470083       -12.7916
  53   2.0000      -0.462646       -12.5892
  54   2.0000      -0.461071       -12.5464
  55   2.0000      -0.447121       -12.1668
  56   2.0000      -0.446336       -12.1454
  57   2.0000      -0.443612       -12.0713
  58   2.0000      -0.430686       -11.7196
  59   2.0000      -0.425227       -11.5710
  60   2.0000      -0.418252       -11.3812
  61   2.0000      -0.414019       -11.2660
  62   2.0000      -0.412128       -11.2146
  63   2.0000      -0.344249        -9.3675
  64   2.0000      -0.334723        -9.1083
  65   2.0000      -0.328376        -8.9356
  66   2.0000      -0.292516        -7.9598
  67   0.0000       0.025712         0.6997
  68   0.0000       0.071549         1.9469
  69   0.0000       0.116668         3.1747
  70   0.0000       0.121747         3.3129
  71   0.0000       0.125787         3.4228

MULLIKEN ATOMIC CHARGES
-----------------------
   0 S :    0.103432
   1 C :   -0.137132
   2 C :   -0.107369
   3 C :    0.011365
   4 C :   -0.165841
   5 H :    0.013164
   6 C :    0.067723
   7 H :    0.038121
   8 H :    0.021493
   9 C :   -0.076015
  10 H :    0.036206
  11 H :    0.039535
  12 C :   -0.032555
  13 H :    0.005400
  14 H :    0.035159
  15 H :    0.045535
  16 S :    0.116584
  17 C :   -0.108776
  18 C :   -0.043276
  19 C :   -0.053522
  20 C :   -0.165326
  21 H :    0.016746
  22 C :    0.163714
  23 H :    0.005718
  24 H :    0.028083
  25 C :   -0.106596
  26 H :    0.037255
  27 H :    0.043520
  28 C :   -0.043689
  29 H :    0.038957
  30 H :    0.016901
  31 H :    0.019197
  32 H :    0.059854
  33 H :    0.076435
Sum of atomic charges:    0.0000000

LOEWDIN ATOMIC CHARGES
----------------------
   0 S :    0.413360
   1 C :   -0.203317
   2 C :   -0.061485
   3 C :   -0.080205
   4 C :   -0.213150
   5 H :    0.033082
   6 C :   -0.025826
   7 H :    0.038404
   8 H :    0.022948
   9 C :   -0.036979
  10 H :    0.025307
  11 H :    0.027939
  12 C :   -0.064733
  13 H :    0.018761
  14 H :    0.033585
  15 H :    0.017425
  16 S :    0.398409
  17 C :   -0.194073
  18 C :   -0.074713
  19 C :   -0.042006
  20 C :   -0.195464
  21 H :    0.031711
  22 C :   -0.023396
  23 H :    0.029383
  24 H :    0.031792
  25 C :   -0.045697
  26 H :    0.032182
  27 H :    0.030093
  28 C :   -0.064076
  29 H :    0.025085
  30 H :    0.020483
  31 H :    0.018394
  32 H :    0.034473
  33 H :    0.042303

  Mayer bond orders larger than 0.100000
B(  0-S ,  1-C ) :   1.1406 B(  0-S ,  4-C ) :   1.1589 B(  1-C ,  2-C ) :   1.5994
B(  1-C , 32-H ) :   0.9621 B(  2-C ,  3-C ) :   1.2531 B(  2-C ,  6-C ) :   1.0090
B(  3-C ,  4-C ) :   1.5853 B(  3-C ,  5-H ) :   0.9800 B(  4-C , 20-C ) :   1.0324
B(  6-C ,  7-H ) :   0.9453 B(  6-C ,  8-H ) :   0.9437 B(  6-C ,  9-C ) :   1.0632
B(  9-C , 10-H ) :   0.9601 B(  9-C , 11-H ) :   0.9580 B(  9-C , 12-C ) :   1.0598
B( 12-C , 13-H ) :   0.9724 B( 12-C , 14-H ) :   0.9712 B( 12-C , 15-H ) :   0.9738
B( 16-S , 17-C ) :   1.1555 B( 16-S , 20-C ) :   1.1460 B( 17-C , 18-C ) :   1.6167
B( 17-C , 20-C ) :   0.1071 B( 17-C , 33-H ) :   0.9541 B( 18-C , 19-C ) :   1.2469
B( 18-C , 21-H ) :   0.9914 B( 19-C , 20-C ) :   1.5578 B( 19-C , 22-C ) :   1.0324
B( 22-C , 23-H ) :   0.9259 B( 22-C , 24-H ) :   0.9252 B( 22-C , 25-C ) :   1.0750
B( 25-C , 26-H ) :   0.9525 B( 25-C , 27-H ) :   0.9550 B( 25-C , 28-C ) :   1.0770
B( 28-C , 29-H ) :   0.9707 B( 28-C , 30-H ) :   0.9692 B( 28-C , 31-H ) :   0.9694

Dispersion correction           -0.015188552
FINAL SINGLE POINT ENERGY     -1339.872610783611

DIPOLE MOMENT
-------------
                                X             Y             Z
Electronic contribution:     12.21993      11.71379      20.42043
Nuclear contribution   :    -12.45559     -12.20516     -20.76024
                        -----------------------------------------
Total Dipole Moment    :     -0.23567      -0.49136      -0.33981
                        -----------------------------------------
Magnitude (a.u.)       :      0.64222
Magnitude (Debye)      :      1.63240

Rotational constants in cm-1:     0.021123     0.008733     0.006770
Rotational constants in MHz :   633.248596   261.804757   202.972845

                             ****ORCA TERMINATED NORMALLY****
TOTAL RUN TIME: 0 days 0 hours 0 minutes 22 seconds 286 msec
