                         Program Version 4.2.1 -  RELEASE  -
|  1> ! wB97X-D3 SP def2-SVP
|  2> %pal
|  3> nprocs 24
|  4> end
|  5>
|  6> * xyz 0 1
|  7> S 	 -106.379 	 56.755 	 -86.6128
|  8> C 	 -104.783 	 57.2538 	 -87.2814
|  9> C 	 -104.601 	 56.7344 	 -88.5108
| 10> C 	 -105.551 	 55.7011 	 -88.7718
| 11> C 	 -106.533 	 55.515 	 -87.8025
| 12> H 	 -105.601 	 55.1077 	 -89.5893
| 13> C 	 -103.551 	 57.1986 	 -89.4909
| 14> H 	 -102.581 	 56.6979 	 -89.2542
| 15> H 	 -103.392 	 58.2931 	 -89.3283
| 16> C 	 -103.893 	 56.8726 	 -90.9674
| 17> H 	 -103.418 	 55.8212 	 -91.1355
| 18> H 	 -105.019 	 56.8787 	 -91.0726
| 19> C 	 -103.369 	 58.0082 	 -91.8453
| 20> H 	 -104.082 	 58.8241 	 -91.6192
| 21> H 	 -102.306 	 58.4944 	 -91.8516
| 22> H 	 -103.628 	 57.5892 	 -92.807
| 23> S 	 -108.546 	 54.2274 	 -86.4174
| 24> C 	 -109.542 	 53.1362 	 -87.1897
| 25> C 	 -109.281 	 52.9886 	 -88.5299
| 26> C 	 -108.164 	 53.7939 	 -88.944
| 27> C 	 -107.606 	 54.5254 	 -87.8779
| 28> H 	 -109.878 	 52.3314 	 -89.1145
| 29> C 	 -107.758 	 53.7987 	 -90.4559
| 30> H 	 -108.305 	 53.0616 	 -91.0182
| 31> H 	 -106.705 	 53.4885 	 -90.4111
| 32> C 	 -107.961 	 55.1782 	 -91.1095
| 33> H 	 -107.411 	 55.9746 	 -90.6065
| 34> H 	 -109.024 	 55.3523 	 -90.9974
| 35> C 	 -107.49 	 55.2281 	 -92.5866
| 36> H 	 -107.851 	 56.1005 	 -93.0112
| 37> H 	 -108.054 	 54.4402 	 -93.0864
| 38> H 	 -106.465 	 55.0511 	 -92.7771
| 39> H 	 -104.214 	 58.0685 	 -86.8583
| 40> H 	 -110.335 	 52.4785 	 -86.7626
| 41> *
| 42>
| 43>                          ****END OF INPUT****

CARTESIAN COORDINATES (ANGSTROEM)
---------------------------------
  S    -106.379000   56.755000  -86.612800
  C    -104.783000   57.253800  -87.281400
  C    -104.601000   56.734400  -88.510800
  C    -105.551000   55.701100  -88.771800
  C    -106.533000   55.515000  -87.802500
  H    -105.601000   55.107700  -89.589300
  C    -103.551000   57.198600  -89.490900
  H    -102.581000   56.697900  -89.254200
  H    -103.392000   58.293100  -89.328300
  C    -103.893000   56.872600  -90.967400
  H    -103.418000   55.821200  -91.135500
  H    -105.019000   56.878700  -91.072600
  C    -103.369000   58.008200  -91.845300
  H    -104.082000   58.824100  -91.619200
  H    -102.306000   58.494400  -91.851600
  H    -103.628000   57.589200  -92.807000
  S    -108.546000   54.227400  -86.417400
  C    -109.542000   53.136200  -87.189700
  C    -109.281000   52.988600  -88.529900
  C    -108.164000   53.793900  -88.944000
  C    -107.606000   54.525400  -87.877900
  H    -109.878000   52.331400  -89.114500
  C    -107.758000   53.798700  -90.455900
  H    -108.305000   53.061600  -91.018200
  H    -106.705000   53.488500  -90.411100
  C    -107.961000   55.178200  -91.109500
  H    -107.411000   55.974600  -90.606500
  H    -109.024000   55.352300  -90.997400
  C    -107.490000   55.228100  -92.586600
  H    -107.851000   56.100500  -93.011200
  H    -108.054000   54.440200  -93.086400
  H    -106.465000   55.051100  -92.777100
  H    -104.214000   58.068500  -86.858300
  H    -110.335000   52.478500  -86.762600

 Total Charge           Charge          ....    0
 Multiplicity           Mult            ....    1
 Number of Electrons    NEL             ....  134
 Basis Dimension        Dim             ....  322

ORBITAL ENERGIES
----------------

  NO   OCC          E(Eh)            E(eV)
   0   2.0000     -88.968195     -2420.9477
   1   2.0000     -88.962908     -2420.8038
   2   2.0000     -10.331137      -281.1245
   3   2.0000     -10.329518      -281.0805
   4   2.0000     -10.313488      -280.6443
   5   2.0000     -10.310252      -280.5562
   6   2.0000     -10.308687      -280.5136
   7   2.0000     -10.304291      -280.3940
   8   2.0000     -10.297046      -280.1969
   9   2.0000     -10.296599      -280.1847
  10   2.0000     -10.295510      -280.1551
  11   2.0000     -10.289841      -280.0008
  12   2.0000     -10.289619      -279.9948
  13   2.0000     -10.285569      -279.8846
  14   2.0000     -10.281598      -279.7765
  15   2.0000     -10.270959      -279.4870
  16   2.0000      -8.084109      -219.9798
  17   2.0000      -8.077341      -219.7956
  18   2.0000      -6.042539      -164.4258
  19   2.0000      -6.038314      -164.3109
  20   2.0000      -6.035969      -164.2471
  21   2.0000      -6.035032      -164.2216
  22   2.0000      -6.032082      -164.1413
  23   2.0000      -6.027818      -164.0253
  24   2.0000      -1.010054       -27.4850
  25   2.0000      -0.987907       -26.8823
  26   2.0000      -0.913868       -24.8676
  27   2.0000      -0.909181       -24.7401
  28   2.0000      -0.872479       -23.7414
  29   2.0000      -0.854319       -23.2472
  30   2.0000      -0.842640       -22.9294
  31   2.0000      -0.814912       -22.1749
  32   2.0000      -0.786156       -21.3924
  33   2.0000      -0.773857       -21.0577
  34   2.0000      -0.711325       -19.3561
  35   2.0000      -0.697310       -18.9748
  36   2.0000      -0.681685       -18.5496
  37   2.0000      -0.662214       -18.0198
  38   2.0000      -0.637533       -17.3481
  39   2.0000      -0.623925       -16.9779
  40   2.0000      -0.592497       -16.1227
  41   2.0000      -0.575017       -15.6470
  42   2.0000      -0.570858       -15.5338
  43   2.0000      -0.563387       -15.3305
  44   2.0000      -0.530126       -14.4255
  45   2.0000      -0.525606       -14.3025
  46   2.0000      -0.513427       -13.9711
  47   2.0000      -0.506997       -13.7961
  48   2.0000      -0.505130       -13.7453
  49   2.0000      -0.501319       -13.6416
  50   2.0000      -0.498833       -13.5739
  51   2.0000      -0.486219       -13.2307
  52   2.0000      -0.481822       -13.1111
  53   2.0000      -0.469421       -12.7736
  54   2.0000      -0.459689       -12.5088
  55   2.0000      -0.453814       -12.3489
  56   2.0000      -0.440061       -11.9747
  57   2.0000      -0.436584       -11.8801
  58   2.0000      -0.427467       -11.6320
  59   2.0000      -0.426059       -11.5937
  60   2.0000      -0.419998       -11.4287
  61   2.0000      -0.415156       -11.2970
  62   2.0000      -0.405737       -11.0407
  63   2.0000      -0.358754        -9.7622
  64   2.0000      -0.333820        -9.0837
  65   2.0000      -0.326559        -8.8861
  66   2.0000      -0.280869        -7.6428
  67   0.0000       0.021500         0.5851
  68   0.0000       0.088820         2.4169
  69   0.0000       0.096959         2.6384
  70   0.0000       0.125962         3.4276
  71   0.0000       0.127735         3.4759

MULLIKEN ATOMIC CHARGES
-----------------------
   0 S :    0.087705
   1 C :   -0.140699
   2 C :   -0.049325
   3 C :    0.014582
   4 C :   -0.072474
   5 H :   -0.067229
   6 C :    0.055747
   7 H :    0.051293
   8 H :    0.030391
   9 C :   -0.144597
  10 H :    0.056694
  11 H :    0.056693
  12 C :   -0.072022
  13 H :    0.038603
  14 H :    0.065694
  15 H :    0.032590
  16 S :    0.123244
  17 C :   -0.081645
  18 C :   -0.045402
  19 C :   -0.059538
  20 C :   -0.151835
  21 H :    0.003257
  22 C :    0.061506
  23 H :    0.012611
  24 H :    0.043571
  25 C :   -0.102409
  26 H :    0.041609
  27 H :    0.030935
  28 C :    0.012403
  29 H :    0.019139
  30 H :    0.010661
  31 H :    0.029889
  32 H :    0.041701
  33 H :    0.066659
Sum of atomic charges:    0.0000000

LOEWDIN ATOMIC CHARGES
----------------------
   0 S :    0.382426
   1 C :   -0.181036
   2 C :   -0.062535
   3 C :   -0.065998
   4 C :   -0.187595
   5 H :    0.003987
   6 C :   -0.038536
   7 H :    0.040207
   8 H :    0.031354
   9 C :   -0.050250
  10 H :    0.034522
  11 H :    0.035163
  12 C :   -0.080905
  13 H :    0.030683
  14 H :    0.040827
  15 H :    0.025313
  16 S :    0.440379
  17 C :   -0.215905
  18 C :   -0.079030
  19 C :   -0.046033
  20 C :   -0.198585
  21 H :    0.026031
  22 C :   -0.027091
  23 H :    0.025734
  24 H :    0.029407
  25 C :   -0.037098
  26 H :    0.021754
  27 H :    0.027125
  28 C :   -0.055355
  29 H :    0.018854
  30 H :    0.024349
  31 H :    0.019887
  32 H :    0.025199
  33 H :    0.042751

  Mayer bond orders larger than 0.100000
B(  0-S ,  1-C ) :   1.1112 B(  0-S ,  4-C ) :   1.1464 B(  1-C ,  2-C ) :   1.6308
B(  1-C , 32-H ) :   0.9723 B(  2-C ,  3-C ) :   1.2302 B(  2-C ,  6-C ) :   1.0080
B(  3-C ,  4-C ) :   1.5522 B(  3-C ,  5-H ) :   1.0108 B(  4-C , 20-C ) :   1.0912
B(  6-C ,  7-H ) :   0.9313 B(  6-C ,  8-H ) :   0.9501 B(  6-C ,  9-C ) :   1.0571
B(  9-C , 10-H ) :   0.9479 B(  9-C , 11-H ) :   0.9575 B(  9-C , 12-C ) :   1.0561
B( 12-C , 13-H ) :   0.9742 B( 12-C , 14-H ) :   0.9746 B( 12-C , 15-H ) :   0.9736
B( 16-S , 17-C ) :   1.1841 B( 16-S , 20-C ) :   1.1385 B( 17-C , 18-C ) :   1.5953
B( 17-C , 33-H ) :   0.9557 B( 18-C , 19-C ) :   1.2697 B( 18-C , 21-H ) :   0.9965
B( 19-C , 20-C ) :   1.5547 B( 19-C , 22-C ) :   1.0236 B( 22-C , 23-H ) :   0.9361
B( 22-C , 24-H ) :   0.9338 B( 22-C , 25-C ) :   1.0582 B( 25-C , 26-H ) :   0.9557
B( 25-C , 27-H ) :   0.9506 B( 25-C , 28-C ) :   1.0838 B( 28-C , 29-H ) :   0.9723
B( 28-C , 30-H ) :   0.9698 B( 28-C , 31-H ) :   0.9745

Dispersion correction           -0.015174465
FINAL SINGLE POINT ENERGY     -1339.856992829879

DIPOLE MOMENT
-------------
                                X             Y             Z
Electronic contribution:    -11.00461      -5.33852      31.23687
Nuclear contribution   :     11.06286       5.29861     -32.02683
                        -----------------------------------------
Total Dipole Moment    :      0.05825      -0.03991      -0.78997
                        -----------------------------------------
Magnitude (a.u.)       :      0.79312
Magnitude (Debye)      :      2.01595

Rotational constants in cm-1:     0.019110     0.009944     0.006854
Rotational constants in MHz :   572.913849   298.101856   205.478821

                             ****ORCA TERMINATED NORMALLY****
TOTAL RUN TIME: 0 days 0 hours 0 minutes 22 seconds 811 msec
