                         Program Version 4.2.1 -  RELEASE  -
|  1> ! wB97X-D3 SP def2-SVP
|  2> %pal
|  3> nprocs 24
|  4> end
|  5>
|  6> * xyz 0 1
|  7> S 	 -74.9071 	 6.57707 	 -110.048
|  8> C 	 -76.4561 	 6.19092 	 -109.469
|  9> C 	 -77.3597 	 7.19875 	 -109.795
| 10> C 	 -76.72 	 8.39676 	 -110.287
| 11> C 	 -75.3401 	 8.24672 	 -110.513
| 12> H 	 -77.1663 	 9.33468 	 -110.44
| 13> C 	 -78.8333 	 7.04995 	 -109.565
| 14> H 	 -79.1505 	 7.54823 	 -108.657
| 15> H 	 -79.1768 	 6.02276 	 -109.395
| 16> C 	 -79.7123 	 7.5543 	 -110.685
| 17> H 	 -80.7582 	 7.41337 	 -110.444
| 18> H 	 -79.5024 	 8.56114 	 -110.991
| 19> C 	 -79.3722 	 6.75466 	 -111.989
| 20> H 	 -78.4744 	 7.08758 	 -112.463
| 21> H 	 -79.2347 	 5.75699 	 -111.778
| 22> H 	 -80.1655 	 6.84615 	 -112.663
| 23> S 	 -73.1012 	 8.8253 	 -112.075
| 24> C 	 -72.2856 	 10.3684 	 -111.907
| 25> C 	 -72.9754 	 11.2048 	 -111.06
| 26> C 	 -73.9821 	 10.4733 	 -110.291
| 27> C 	 -74.2851 	 9.24136 	 -110.819
| 28> H 	 -72.6546 	 12.2238 	 -110.957
| 29> C 	 -74.706 	 11.0262 	 -109.064
| 30> H 	 -73.9591 	 11.4975 	 -108.413
| 31> H 	 -75.0277 	 10.1822 	 -108.435
| 32> C 	 -75.8813 	 12.0543 	 -109.39
| 33> H 	 -76.63 	 11.5672 	 -110.013
| 34> H 	 -75.4617 	 12.9362 	 -109.9
| 35> C 	 -76.7012 	 12.5704 	 -108.182
| 36> H 	 -77.5802 	 13.1223 	 -108.499
| 37> H 	 -76.0867 	 13.1269 	 -107.562
| 38> H 	 -77.0237 	 11.7845 	 -107.502
| 39> H 	 -76.7205 	 5.25496 	 -109.109
| 40> H 	 -71.3964 	 10.7046 	 -112.439
| 41> *
| 42>
| 43>                          ****END OF INPUT****

CARTESIAN COORDINATES (ANGSTROEM)
---------------------------------
  S    -74.907100    6.577070  -110.048000
  C    -76.456100    6.190920  -109.469000
  C    -77.359700    7.198750  -109.795000
  C    -76.720000    8.396760  -110.287000
  C    -75.340100    8.246720  -110.513000
  H    -77.166300    9.334680  -110.440000
  C    -78.833300    7.049950  -109.565000
  H    -79.150500    7.548230  -108.657000
  H    -79.176800    6.022760  -109.395000
  C    -79.712300    7.554300  -110.685000
  H    -80.758200    7.413370  -110.444000
  H    -79.502400    8.561140  -110.991000
  C    -79.372200    6.754660  -111.989000
  H    -78.474400    7.087580  -112.463000
  H    -79.234700    5.756990  -111.778000
  H    -80.165500    6.846150  -112.663000
  S    -73.101200    8.825300  -112.075000
  C    -72.285600   10.368400  -111.907000
  C    -72.975400   11.204800  -111.060000
  C    -73.982100   10.473300  -110.291000
  C    -74.285100    9.241360  -110.819000
  H    -72.654600   12.223800  -110.957000
  C    -74.706000   11.026200  -109.064000
  H    -73.959100   11.497500  -108.413000
  H    -75.027700   10.182200  -108.435000
  C    -75.881300   12.054300  -109.390000
  H    -76.630000   11.567200  -110.013000
  H    -75.461700   12.936200  -109.900000
  C    -76.701200   12.570400  -108.182000
  H    -77.580200   13.122300  -108.499000
  H    -76.086700   13.126900  -107.562000
  H    -77.023700   11.784500  -107.502000
  H    -76.720500    5.254960  -109.109000
  H    -71.396400   10.704600  -112.439000

 Total Charge           Charge          ....    0
 Multiplicity           Mult            ....    1
 Number of Electrons    NEL             ....  134
 Basis Dimension        Dim             ....  322

ORBITAL ENERGIES
----------------

  NO   OCC          E(Eh)            E(eV)
   0   2.0000     -88.964074     -2420.8355
   1   2.0000     -88.962615     -2420.7958
   2   2.0000     -10.338033      -281.3122
   3   2.0000     -10.330517      -281.1076
   4   2.0000     -10.319868      -280.8179
   5   2.0000     -10.310815      -280.5715
   6   2.0000     -10.308428      -280.5066
   7   2.0000     -10.304763      -280.4069
   8   2.0000     -10.300915      -280.3022
   9   2.0000     -10.297121      -280.1989
  10   2.0000     -10.296970      -280.1948
  11   2.0000     -10.293661      -280.1047
  12   2.0000     -10.288116      -279.9539
  13   2.0000     -10.281795      -279.7819
  14   2.0000     -10.272280      -279.5230
  15   2.0000     -10.257617      -279.1239
  16   2.0000      -8.079267      -219.8480
  17   2.0000      -8.077202      -219.7918
  18   2.0000      -6.037668      -164.2933
  19   2.0000      -6.035800      -164.2425
  20   2.0000      -6.033527      -164.1806
  21   2.0000      -6.031814      -164.1340
  22   2.0000      -6.030271      -164.0920
  23   2.0000      -6.027772      -164.0240
  24   2.0000      -1.003550       -27.3080
  25   2.0000      -0.984166       -26.7805
  26   2.0000      -0.915113       -24.9015
  27   2.0000      -0.898616       -24.4526
  28   2.0000      -0.869968       -23.6730
  29   2.0000      -0.848869       -23.0989
  30   2.0000      -0.843149       -22.9432
  31   2.0000      -0.820277       -22.3209
  32   2.0000      -0.783187       -21.3116
  33   2.0000      -0.772286       -21.0150
  34   2.0000      -0.710618       -19.3369
  35   2.0000      -0.700366       -19.0579
  36   2.0000      -0.692026       -18.8310
  37   2.0000      -0.660181       -17.9644
  38   2.0000      -0.649660       -17.6781
  39   2.0000      -0.626518       -17.0484
  40   2.0000      -0.590274       -16.0622
  41   2.0000      -0.574741       -15.6395
  42   2.0000      -0.560224       -15.2445
  43   2.0000      -0.555082       -15.1046
  44   2.0000      -0.543466       -14.7885
  45   2.0000      -0.528705       -14.3868
  46   2.0000      -0.517317       -14.0769
  47   2.0000      -0.515542       -14.0286
  48   2.0000      -0.510230       -13.8841
  49   2.0000      -0.499713       -13.5979
  50   2.0000      -0.490898       -13.3580
  51   2.0000      -0.476893       -12.9769
  52   2.0000      -0.472351       -12.8533
  53   2.0000      -0.467540       -12.7224
  54   2.0000      -0.460442       -12.5293
  55   2.0000      -0.448516       -12.2047
  56   2.0000      -0.441230       -12.0065
  57   2.0000      -0.434871       -11.8334
  58   2.0000      -0.433677       -11.8010
  59   2.0000      -0.427271       -11.6266
  60   2.0000      -0.419312       -11.4101
  61   2.0000      -0.415223       -11.2988
  62   2.0000      -0.413712       -11.2577
  63   2.0000      -0.347348        -9.4518
  64   2.0000      -0.329149        -8.9566
  65   2.0000      -0.326779        -8.8921
  66   2.0000      -0.295081        -8.0296
  67   0.0000       0.029543         0.8039
  68   0.0000       0.067314         1.8317
  69   0.0000       0.111002         3.0205
  70   0.0000       0.123338         3.3562
  71   0.0000       0.124242         3.3808

MULLIKEN ATOMIC CHARGES
-----------------------
   0 S :    0.110126
   1 C :   -0.079736
   2 C :   -0.098880
   3 C :    0.058032
   4 C :   -0.140248
   5 H :   -0.012257
   6 C :    0.076990
   7 H :    0.031124
   8 H :    0.015573
   9 C :   -0.092241
  10 H :    0.031759
  11 H :    0.027364
  12 C :   -0.009755
  13 H :    0.034374
  14 H :   -0.000211
  15 H :    0.016949
  16 S :    0.092560
  17 C :   -0.089784
  18 C :   -0.024460
  19 C :   -0.053278
  20 C :   -0.141716
  21 H :    0.019439
  22 C :    0.043266
  23 H :    0.024226
  24 H :    0.037481
  25 C :   -0.082182
  26 H :    0.029467
  27 H :    0.035855
  28 C :   -0.019936
  29 H :    0.040485
  30 H :    0.009432
  31 H :    0.021056
  32 H :    0.025555
  33 H :    0.063568
Sum of atomic charges:   -0.0000000

LOEWDIN ATOMIC CHARGES
----------------------
   0 S :    0.416432
   1 C :   -0.192705
   2 C :   -0.062886
   3 C :   -0.048392
   4 C :   -0.184927
   5 H :    0.021594
   6 C :   -0.036552
   7 H :    0.029735
   8 H :    0.030200
   9 C :   -0.033641
  10 H :    0.024453
  11 H :    0.018687
  12 C :   -0.051511
  13 H :    0.025729
  14 H :    0.010459
  15 H :    0.017561
  16 S :    0.383986
  17 C :   -0.178492
  18 C :   -0.069618
  19 C :   -0.053038
  20 C :   -0.193127
  21 H :    0.030021
  22 C :   -0.035190
  23 H :    0.030231
  24 H :    0.034451
  25 C :   -0.034709
  26 H :    0.019278
  27 H :    0.026654
  28 C :   -0.062846
  29 H :    0.029096
  30 H :    0.012897
  31 H :    0.025406
  32 H :    0.016182
  33 H :    0.034580

  Mayer bond orders larger than 0.100000
B(  0-S ,  1-C ) :   1.1665 B(  0-S ,  4-C ) :   1.1576 B(  1-C ,  2-C ) :   1.5793
B(  1-C ,  4-C ) :   0.1019 B(  1-C , 32-H ) :   0.9778 B(  2-C ,  3-C ) :   1.2380
B(  2-C ,  6-C ) :   1.0272 B(  3-C ,  4-C ) :   1.5569 B(  3-C ,  5-H ) :   1.0081
B(  4-C , 20-C ) :   1.0230 B(  6-C ,  7-H ) :   0.9335 B(  6-C ,  8-H ) :   0.9457
B(  6-C ,  9-C ) :   1.0838 B(  9-C , 10-H ) :   0.9588 B(  9-C , 11-H ) :   0.9568
B(  9-C , 12-C ) :   1.0712 B( 12-C , 13-H ) :   0.9725 B( 12-C , 14-H ) :   0.9764
B( 12-C , 15-H ) :   0.9749 B( 16-S , 17-C ) :   1.1441 B( 16-S , 20-C ) :   1.1153
B( 17-C , 18-C ) :   1.6476 B( 17-C , 33-H ) :   0.9652 B( 18-C , 19-C ) :   1.1957
B( 18-C , 21-H ) :   0.9907 B( 19-C , 20-C ) :   1.6362 B( 19-C , 22-C ) :   1.0516
B( 22-C , 23-H ) :   0.9347 B( 22-C , 24-H ) :   0.9376 B( 22-C , 25-C ) :   1.0482
B( 25-C , 26-H ) :   0.9609 B( 25-C , 27-H ) :   0.9569 B( 25-C , 28-C ) :   1.0812
B( 28-C , 29-H ) :   0.9754 B( 28-C , 30-H ) :   0.9742 B( 28-C , 31-H ) :   0.9726

Dispersion correction           -0.014740659
FINAL SINGLE POINT ENERGY     -1339.874678933855

DIPOLE MOMENT
-------------
                                X             Y             Z
Electronic contribution:     23.59677     -11.17916      -7.03843
Nuclear contribution   :    -24.03856      11.59930       7.36609
                        -----------------------------------------
Total Dipole Moment    :     -0.44179       0.42014       0.32766
                        -----------------------------------------
Magnitude (a.u.)       :      0.69214
Magnitude (Debye)      :      1.75928

Rotational constants in cm-1:     0.017071     0.009458     0.007183
Rotational constants in MHz :   511.769808   283.545988   215.351306

                             ****ORCA TERMINATED NORMALLY****
TOTAL RUN TIME: 0 days 0 hours 0 minutes 21 seconds 947 msec
