                         Program Version 4.2.1 -  RELEASE  -
|  1> ! wB97X-D3 SP def2-SVP
|  2> %pal
|  3> nprocs 24
|  4> end
|  5>
|  6> * xyz 0 1
|  7> S 	 -107.266 	 23.1612 	 -117.064
|  8> C 	 -107.1 	 23.4465 	 -115.381
|  9> C 	 -107.104 	 22.2247 	 -114.658
| 10> C 	 -107.082 	 21.0988 	 -115.513
| 11> C 	 -107.108 	 21.4458 	 -116.885
| 12> H 	 -107.158 	 20.0382 	 -115.192
| 13> C 	 -107.152 	 22.0953 	 -113.175
| 14> H 	 -106.629 	 21.1731 	 -112.98
| 15> H 	 -108.166 	 21.8443 	 -112.814
| 16> C 	 -106.368 	 23.1898 	 -112.409
| 17> H 	 -106.687 	 24.2262 	 -112.37
| 18> H 	 -106.411 	 22.7952 	 -111.356
| 19> C 	 -104.885 	 23.0943 	 -112.694
| 20> H 	 -104.585 	 23.4038 	 -113.673
| 21> H 	 -104.263 	 23.5254 	 -111.888
| 22> H 	 -104.609 	 22.115 	 -112.812
| 23> S 	 -108.554 	 21.0612 	 -119.169
| 24> C 	 -108.641 	 19.4465 	 -119.884
| 25> C 	 -107.632 	 18.6223 	 -119.411
| 26> C 	 -106.956 	 19.1909 	 -118.296
| 27> C 	 -107.302 	 20.5238 	 -118.026
| 28> H 	 -107.561 	 17.609 	 -119.733
| 29> C 	 -105.966 	 18.4291 	 -117.457
| 30> H 	 -106.389 	 17.8625 	 -116.689
| 31> H 	 -105.369 	 19.1404 	 -116.862
| 32> C 	 -105.055 	 17.5426 	 -118.205
| 33> H 	 -105.711 	 16.8607 	 -118.667
| 34> H 	 -104.392 	 16.9182 	 -117.522
| 35> C 	 -104.059 	 18.109 	 -119.259
| 36> H 	 -103.476 	 18.9939 	 -118.948
| 37> H 	 -104.604 	 18.3699 	 -120.132
| 38> H 	 -103.432 	 17.3269 	 -119.682
| 39> H 	 -107.12 	 24.2958 	 -114.799
| 40> H 	 -109.285 	 19.1468 	 -120.694
| 41> *
| 42>
| 43>                          ****END OF INPUT****

CARTESIAN COORDINATES (ANGSTROEM)
---------------------------------
  S    -107.266000   23.161200  -117.064000
  C    -107.100000   23.446500  -115.381000
  C    -107.104000   22.224700  -114.658000
  C    -107.082000   21.098800  -115.513000
  C    -107.108000   21.445800  -116.885000
  H    -107.158000   20.038200  -115.192000
  C    -107.152000   22.095300  -113.175000
  H    -106.629000   21.173100  -112.980000
  H    -108.166000   21.844300  -112.814000
  C    -106.368000   23.189800  -112.409000
  H    -106.687000   24.226200  -112.370000
  H    -106.411000   22.795200  -111.356000
  C    -104.885000   23.094300  -112.694000
  H    -104.585000   23.403800  -113.673000
  H    -104.263000   23.525400  -111.888000
  H    -104.609000   22.115000  -112.812000
  S    -108.554000   21.061200  -119.169000
  C    -108.641000   19.446500  -119.884000
  C    -107.632000   18.622300  -119.411000
  C    -106.956000   19.190900  -118.296000
  C    -107.302000   20.523800  -118.026000
  H    -107.561000   17.609000  -119.733000
  C    -105.966000   18.429100  -117.457000
  H    -106.389000   17.862500  -116.689000
  H    -105.369000   19.140400  -116.862000
  C    -105.055000   17.542600  -118.205000
  H    -105.711000   16.860700  -118.667000
  H    -104.392000   16.918200  -117.522000
  C    -104.059000   18.109000  -119.259000
  H    -103.476000   18.993900  -118.948000
  H    -104.604000   18.369900  -120.132000
  H    -103.432000   17.326900  -119.682000
  H    -107.120000   24.295800  -114.799000
  H    -109.285000   19.146800  -120.694000

 Total Charge           Charge          ....    0
 Multiplicity           Mult            ....    1
 Number of Electrons    NEL             ....  134
 Basis Dimension        Dim             ....  322

ORBITAL ENERGIES
----------------

  NO   OCC          E(Eh)            E(eV)
   0   2.0000     -88.973243     -2421.0850
   1   2.0000     -88.965727     -2420.8805
   2   2.0000     -10.334666      -281.2206
   3   2.0000     -10.332649      -281.1657
   4   2.0000     -10.321186      -280.8538
   5   2.0000     -10.307655      -280.4856
   6   2.0000     -10.306216      -280.4464
   7   2.0000     -10.298792      -280.2444
   8   2.0000     -10.297650      -280.2133
   9   2.0000     -10.295472      -280.1540
  10   2.0000     -10.294333      -280.1230
  11   2.0000     -10.292379      -280.0699
  12   2.0000     -10.283783      -279.8359
  13   2.0000     -10.282957      -279.8135
  14   2.0000     -10.272599      -279.5316
  15   2.0000     -10.265745      -279.3451
  16   2.0000      -8.088022      -220.0863
  17   2.0000      -8.079931      -219.8661
  18   2.0000      -6.046508      -164.5338
  19   2.0000      -6.042436      -164.4230
  20   2.0000      -6.038907      -164.3270
  21   2.0000      -6.038478      -164.3153
  22   2.0000      -6.034575      -164.2091
  23   2.0000      -6.030601      -164.1010
  24   2.0000      -1.006807       -27.3966
  25   2.0000      -0.983987       -26.7757
  26   2.0000      -0.919649       -25.0249
  27   2.0000      -0.914735       -24.8912
  28   2.0000      -0.867594       -23.6084
  29   2.0000      -0.855010       -23.2660
  30   2.0000      -0.842810       -22.9340
  31   2.0000      -0.813577       -22.1386
  32   2.0000      -0.788178       -21.4474
  33   2.0000      -0.778225       -21.1766
  34   2.0000      -0.713610       -19.4183
  35   2.0000      -0.704929       -19.1821
  36   2.0000      -0.695801       -18.9337
  37   2.0000      -0.659020       -17.9328
  38   2.0000      -0.636377       -17.3167
  39   2.0000      -0.615055       -16.7365
  40   2.0000      -0.601453       -16.3664
  41   2.0000      -0.579751       -15.7758
  42   2.0000      -0.559610       -15.2278
  43   2.0000      -0.556993       -15.1566
  44   2.0000      -0.545181       -14.8351
  45   2.0000      -0.532381       -14.4868
  46   2.0000      -0.516782       -14.0624
  47   2.0000      -0.510413       -13.8890
  48   2.0000      -0.508736       -13.8434
  49   2.0000      -0.495245       -13.4763
  50   2.0000      -0.493127       -13.4187
  51   2.0000      -0.478812       -13.0291
  52   2.0000      -0.471315       -12.8251
  53   2.0000      -0.467221       -12.7137
  54   2.0000      -0.462637       -12.5890
  55   2.0000      -0.448297       -12.1988
  56   2.0000      -0.444842       -12.1048
  57   2.0000      -0.441487       -12.0135
  58   2.0000      -0.437271       -11.8987
  59   2.0000      -0.425633       -11.5821
  60   2.0000      -0.416668       -11.3381
  61   2.0000      -0.411379       -11.1942
  62   2.0000      -0.406776       -11.0689
  63   2.0000      -0.354625        -9.6498
  64   2.0000      -0.334505        -9.1024
  65   2.0000      -0.327592        -8.9142
  66   2.0000      -0.282196        -7.6789
  67   0.0000       0.021986         0.5983
  68   0.0000       0.068274         1.8578
  69   0.0000       0.104974         2.8565
  70   0.0000       0.119752         3.2586
  71   0.0000       0.134492         3.6597

MULLIKEN ATOMIC CHARGES
-----------------------
   0 S :    0.128979
   1 C :   -0.048028
   2 C :   -0.147303
   3 C :    0.000749
   4 C :   -0.131904
   5 H :    0.027255
   6 C :    0.084535
   7 H :    0.009906
   8 H :    0.049688
   9 C :   -0.104657
  10 H :    0.044820
  11 H :    0.032292
  12 C :   -0.006970
  13 H :    0.020731
  14 H :    0.042988
  15 H :   -0.011041
  16 S :    0.084741
  17 C :   -0.087459
  18 C :   -0.026008
  19 C :   -0.064737
  20 C :   -0.122883
  21 H :    0.018094
  22 C :    0.118419
  23 H :    0.020538
  24 H :    0.015937
  25 C :   -0.108995
  26 H :    0.006808
  27 H :    0.032178
  28 C :   -0.030616
  29 H :    0.045831
  30 H :    0.014113
  31 H :    0.027917
  32 H :    0.007871
  33 H :    0.056209
Sum of atomic charges:    0.0000000

LOEWDIN ATOMIC CHARGES
----------------------
   0 S :    0.441621
   1 C :   -0.208291
   2 C :   -0.062870
   3 C :   -0.070889
   4 C :   -0.202152
   5 H :    0.036710
   6 C :   -0.034144
   7 H :    0.030265
   8 H :    0.038283
   9 C :   -0.044891
  10 H :    0.022269
  11 H :    0.035773
  12 C :   -0.064090
  13 H :    0.022563
  14 H :    0.032042
  15 H :    0.013984
  16 S :    0.384453
  17 C :   -0.170396
  18 C :   -0.070421
  19 C :   -0.053993
  20 C :   -0.183620
  21 H :    0.029269
  22 C :   -0.035312
  23 H :    0.026993
  24 H :    0.031492
  25 C :   -0.042785
  26 H :    0.013113
  27 H :    0.031087
  28 C :   -0.068006
  29 H :    0.030752
  30 H :    0.019488
  31 H :    0.028687
  32 H :    0.014426
  33 H :    0.028591

  Mayer bond orders larger than 0.100000
B(  0-S ,  1-C ) :   1.1503 B(  0-S ,  4-C ) :   1.1770 B(  1-C ,  2-C ) :   1.5637
B(  1-C ,  4-C ) :   0.1026 B(  1-C , 32-H ) :   0.9720 B(  2-C ,  3-C ) :   1.3038
B(  2-C ,  6-C ) :   1.0171 B(  3-C ,  4-C ) :   1.5055 B(  3-C ,  5-H ) :   0.9851
B(  4-C , 20-C ) :   1.0427 B(  6-C ,  7-H ) :   0.9384 B(  6-C ,  8-H ) :   0.9312
B(  6-C ,  9-C ) :   1.0708 B(  9-C , 10-H ) :   0.9603 B(  9-C , 11-H ) :   0.9537
B(  9-C , 12-C ) :   1.0752 B( 12-C , 13-H ) :   0.9655 B( 12-C , 14-H ) :   0.9756
B( 12-C , 15-H ) :   0.9638 B( 16-S , 17-C ) :   1.1606 B( 16-S , 20-C ) :   1.1232
B( 17-C , 18-C ) :   1.6122 B( 17-C , 33-H ) :   0.9641 B( 18-C , 19-C ) :   1.2387
B( 18-C , 21-H ) :   0.9903 B( 19-C , 20-C ) :   1.6089 B( 19-C , 22-C ) :   1.0314
B( 22-C , 23-H ) :   0.9220 B( 22-C , 24-H ) :   0.9295 B( 22-C , 25-C ) :   1.0806
B( 25-C , 26-H ) :   0.9486 B( 25-C , 27-H ) :   0.9548 B( 25-C , 28-C ) :   1.0816
B( 28-C , 29-H ) :   0.9760 B( 28-C , 30-H ) :   0.9694 B( 28-C , 31-H ) :   0.9719

Dispersion correction           -0.014202413
FINAL SINGLE POINT ENERGY     -1339.856931127412

DIPOLE MOMENT
-------------
                                X             Y             Z
Electronic contribution:    -16.97521      10.56928     -15.65828
Nuclear contribution   :     17.00366     -11.13428      16.13070
                        -----------------------------------------
Total Dipole Moment    :      0.02845      -0.56501       0.47241
                        -----------------------------------------
Magnitude (a.u.)       :      0.73703
Magnitude (Debye)      :      1.87339

Rotational constants in cm-1:     0.021445     0.007938     0.006433
Rotational constants in MHz :   642.916060   237.973080   192.860316

                             ****ORCA TERMINATED NORMALLY****
TOTAL RUN TIME: 0 days 0 hours 0 minutes 21 seconds 502 msec
