                         Program Version 4.2.1 -  RELEASE  -
|  1> ! wB97X-D3 SP def2-SVP
|  2> %pal
|  3> nprocs 24
|  4> end
|  5>
|  6> * xyz 0 1
|  7> S 	 -127.145 	 63.6265 	 -58.2385
|  8> C 	 -127.126 	 64.786 	 -59.5478
|  9> C 	 -128.248 	 65.5554 	 -59.5267
| 10> C 	 -129.02 	 65.3898 	 -58.4221
| 11> C 	 -128.679 	 64.2461 	 -57.6503
| 12> H 	 -129.975 	 65.8846 	 -58.1401
| 13> C 	 -128.603 	 66.545 	 -60.6772
| 14> H 	 -129.534 	 66.3046 	 -61.1116
| 15> H 	 -127.854 	 66.4614 	 -61.48
| 16> C 	 -128.392 	 67.9922 	 -60.3209
| 17> H 	 -128.603 	 68.5983 	 -61.161
| 18> H 	 -129.13 	 68.146 	 -59.6632
| 19> C 	 -127.042 	 68.4056 	 -59.6722
| 20> H 	 -126.961 	 69.4742 	 -59.5567
| 21> H 	 -126.882 	 68.0103 	 -58.6356
| 22> H 	 -126.189 	 67.9787 	 -60.2562
| 23> S 	 -128.224 	 63.7714 	 -54.9553
| 24> C 	 -129.521 	 63.4081 	 -53.8698
| 25> C 	 -130.619 	 63.1588 	 -54.6329
| 26> C 	 -130.567 	 63.4857 	 -56.0132
| 27> C 	 -129.223 	 63.8563 	 -56.3609
| 28> H 	 -131.468 	 62.8383 	 -54.1239
| 29> C 	 -131.7 	 63.5747 	 -56.9875
| 30> H 	 -131.202 	 63.4271 	 -57.9954
| 31> H 	 -132.002 	 64.6503 	 -56.8282
| 32> C 	 -132.866 	 62.5864 	 -56.7184
| 33> H 	 -133.241 	 62.7497 	 -55.7088
| 34> H 	 -132.443 	 61.5978 	 -56.7485
| 35> C 	 -134.127 	 62.7614 	 -57.6903
| 36> H 	 -134.551 	 63.7206 	 -57.7355
| 37> H 	 -134.992 	 62.1933 	 -57.2583
| 38> H 	 -133.914 	 62.3585 	 -58.6707
| 39> H 	 -126.651 	 64.6956 	 -60.4649
| 40> H 	 -129.507 	 63.1492 	 -52.8605
| 41> *
| 42>
| 43>                          ****END OF INPUT****

CARTESIAN COORDINATES (ANGSTROEM)
---------------------------------
  S    -127.145000   63.626500  -58.238500
  C    -127.126000   64.786000  -59.547800
  C    -128.248000   65.555400  -59.526700
  C    -129.020000   65.389800  -58.422100
  C    -128.679000   64.246100  -57.650300
  H    -129.975000   65.884600  -58.140100
  C    -128.603000   66.545000  -60.677200
  H    -129.534000   66.304600  -61.111600
  H    -127.854000   66.461400  -61.480000
  C    -128.392000   67.992200  -60.320900
  H    -128.603000   68.598300  -61.161000
  H    -129.130000   68.146000  -59.663200
  C    -127.042000   68.405600  -59.672200
  H    -126.961000   69.474200  -59.556700
  H    -126.882000   68.010300  -58.635600
  H    -126.189000   67.978700  -60.256200
  S    -128.224000   63.771400  -54.955300
  C    -129.521000   63.408100  -53.869800
  C    -130.619000   63.158800  -54.632900
  C    -130.567000   63.485700  -56.013200
  C    -129.223000   63.856300  -56.360900
  H    -131.468000   62.838300  -54.123900
  C    -131.700000   63.574700  -56.987500
  H    -131.202000   63.427100  -57.995400
  H    -132.002000   64.650300  -56.828200
  C    -132.866000   62.586400  -56.718400
  H    -133.241000   62.749700  -55.708800
  H    -132.443000   61.597800  -56.748500
  C    -134.127000   62.761400  -57.690300
  H    -134.551000   63.720600  -57.735500
  H    -134.992000   62.193300  -57.258300
  H    -133.914000   62.358500  -58.670700
  H    -126.651000   64.695600  -60.464900
  H    -129.507000   63.149200  -52.860500

 Total Charge           Charge          ....    0
 Multiplicity           Mult            ....    1
 Number of Electrons    NEL             ....  134
 Basis Dimension        Dim             ....  322

ORBITAL ENERGIES
----------------

  NO   OCC          E(Eh)            E(eV)
   0   2.0000     -88.969579     -2420.9853
   1   2.0000     -88.964033     -2420.8344
   2   2.0000     -10.334132      -281.2060
   3   2.0000     -10.325725      -280.9773
   4   2.0000     -10.308453      -280.5073
   5   2.0000     -10.305095      -280.4159
   6   2.0000     -10.303784      -280.3802
   7   2.0000     -10.299970      -280.2764
   8   2.0000     -10.295633      -280.1584
   9   2.0000     -10.295015      -280.1416
  10   2.0000     -10.294330      -280.1230
  11   2.0000     -10.289693      -279.9968
  12   2.0000     -10.283993      -279.8417
  13   2.0000     -10.282249      -279.7942
  14   2.0000     -10.280307      -279.7414
  15   2.0000     -10.271847      -279.5112
  16   2.0000      -8.083912      -219.9744
  17   2.0000      -8.079190      -219.8459
  18   2.0000      -6.042299      -164.4193
  19   2.0000      -6.038323      -164.3111
  20   2.0000      -6.037693      -164.2940
  21   2.0000      -6.034971      -164.2199
  22   2.0000      -6.033463      -164.1789
  23   2.0000      -6.030084      -164.0869
  24   2.0000      -1.010696       -27.5024
  25   2.0000      -0.990703       -26.9584
  26   2.0000      -0.915556       -24.9136
  27   2.0000      -0.905025       -24.6270
  28   2.0000      -0.873166       -23.7601
  29   2.0000      -0.849359       -23.1122
  30   2.0000      -0.843099       -22.9419
  31   2.0000      -0.816744       -22.2247
  32   2.0000      -0.786168       -21.3927
  33   2.0000      -0.773733       -21.0544
  34   2.0000      -0.716093       -19.4859
  35   2.0000      -0.709259       -19.2999
  36   2.0000      -0.697273       -18.9738
  37   2.0000      -0.649210       -17.6659
  38   2.0000      -0.641517       -17.4566
  39   2.0000      -0.621781       -16.9195
  40   2.0000      -0.591479       -16.0950
  41   2.0000      -0.574143       -15.6232
  42   2.0000      -0.569152       -15.4874
  43   2.0000      -0.561867       -15.2892
  44   2.0000      -0.544895       -14.8273
  45   2.0000      -0.526324       -14.3220
  46   2.0000      -0.517987       -14.0951
  47   2.0000      -0.509194       -13.8559
  48   2.0000      -0.505517       -13.7558
  49   2.0000      -0.501453       -13.6452
  50   2.0000      -0.485051       -13.1989
  51   2.0000      -0.475136       -12.9291
  52   2.0000      -0.474565       -12.9136
  53   2.0000      -0.468642       -12.7524
  54   2.0000      -0.459467       -12.5027
  55   2.0000      -0.449326       -12.2268
  56   2.0000      -0.442522       -12.0416
  57   2.0000      -0.440776       -11.9941
  58   2.0000      -0.438923       -11.9437
  59   2.0000      -0.424816       -11.5598
  60   2.0000      -0.419478       -11.4146
  61   2.0000      -0.413035       -11.2393
  62   2.0000      -0.406992       -11.0748
  63   2.0000      -0.348625        -9.4866
  64   2.0000      -0.338874        -9.2212
  65   2.0000      -0.324736        -8.8365
  66   2.0000      -0.289333        -7.8732
  67   0.0000       0.024509         0.6669
  68   0.0000       0.065410         1.7799
  69   0.0000       0.117157         3.1880
  70   0.0000       0.131944         3.5904
  71   0.0000       0.134769         3.6672

MULLIKEN ATOMIC CHARGES
-----------------------
   0 S :    0.113606
   1 C :   -0.071941
   2 C :   -0.104675
   3 C :    0.017710
   4 C :   -0.194681
   5 H :    0.028134
   6 C :    0.077948
   7 H :    0.029719
   8 H :    0.004231
   9 C :   -0.014388
  10 H :    0.021772
  11 H :   -0.008101
  12 C :   -0.071383
  13 H :    0.036959
  14 H :    0.046387
  15 H :    0.030068
  16 S :    0.118274
  17 C :   -0.058944
  18 C :   -0.042043
  19 C :   -0.047631
  20 C :   -0.153664
  21 H :   -0.011304
  22 C :    0.039309
  23 H :    0.055682
  24 H :    0.055230
  25 C :   -0.092526
  26 H :    0.033688
  27 H :    0.037005
  28 C :   -0.033300
  29 H :    0.022871
  30 H :    0.030901
  31 H :    0.039558
  32 H :    0.029100
  33 H :    0.036429
Sum of atomic charges:   -0.0000000

LOEWDIN ATOMIC CHARGES
----------------------
   0 S :    0.415617
   1 C :   -0.193796
   2 C :   -0.063448
   3 C :   -0.064887
   4 C :   -0.192390
   5 H :    0.037588
   6 C :   -0.017152
   7 H :    0.025338
   8 H :    0.025628
   9 C :   -0.033205
  10 H :    0.022161
  11 H :    0.004650
  12 C :   -0.066485
  13 H :    0.025426
  14 H :    0.033782
  15 H :    0.026404
  16 S :    0.430023
  17 C :   -0.189174
  18 C :   -0.072720
  19 C :   -0.057509
  20 C :   -0.220080
  21 H :    0.017077
  22 C :   -0.042915
  23 H :    0.041269
  24 H :    0.041876
  25 C :   -0.035314
  26 H :    0.022729
  27 H :    0.026035
  28 C :   -0.063353
  29 H :    0.018068
  30 H :    0.032857
  31 H :    0.024372
  32 H :    0.017623
  33 H :    0.023904

  Mayer bond orders larger than 0.100000
B(  0-S ,  1-C ) :   1.1492 B(  0-S ,  4-C ) :   1.1746 B(  1-C ,  2-C ) :   1.5975
B(  1-C ,  4-C ) :   0.1148 B(  1-C , 32-H ) :   0.9565 B(  2-C ,  3-C ) :   1.2921
B(  2-C ,  6-C ) :   1.0134 B(  3-C ,  4-C ) :   1.5171 B(  3-C ,  5-H ) :   0.9831
B(  4-C , 20-C ) :   1.0551 B(  6-C ,  7-H ) :   0.9481 B(  6-C ,  8-H ) :   0.9407
B(  6-C ,  9-C ) :   1.0669 B(  9-C , 10-H ) :   0.9552 B(  9-C , 11-H ) :   0.9512
B(  9-C , 12-C ) :   1.0744 B( 12-C , 13-H ) :   0.9749 B( 12-C , 14-H ) :   0.9702
B( 12-C , 15-H ) :   0.9771 B( 16-S , 17-C ) :   1.1590 B( 16-S , 20-C ) :   1.1701
B( 17-C , 18-C ) :   1.5906 B( 17-C , 20-C ) :   0.1052 B( 17-C , 33-H ) :   0.9698
B( 18-C , 19-C ) :   1.2776 B( 18-C , 21-H ) :   0.9952 B( 19-C , 20-C ) :   1.5212
B( 19-C , 22-C ) :   1.0344 B( 22-C , 23-H ) :   0.9293 B( 22-C , 24-H ) :   0.9283
B( 22-C , 25-C ) :   1.0649 B( 25-C , 26-H ) :   0.9517 B( 25-C , 27-H ) :   0.9631
B( 25-C , 28-C ) :   1.0782 B( 28-C , 29-H ) :   0.9762 B( 28-C , 30-H ) :   0.9760
B( 28-C , 31-H ) :   0.9786

Dispersion correction           -0.014016358
FINAL SINGLE POINT ENERGY     -1339.849982094967

DIPOLE MOMENT
-------------
                                X             Y             Z
Electronic contribution:     17.28600     -10.86745      12.88297
Nuclear contribution   :    -17.99459      11.05961     -13.11253
                        -----------------------------------------
Total Dipole Moment    :     -0.70860       0.19216      -0.22957
                        -----------------------------------------
Magnitude (a.u.)       :      0.76924
Magnitude (Debye)      :      1.95526

Rotational constants in cm-1:     0.017949     0.008250     0.006598
Rotational constants in MHz :   538.097632   247.341688   197.789813

                             ****ORCA TERMINATED NORMALLY****
TOTAL RUN TIME: 0 days 0 hours 0 minutes 21 seconds 345 msec
