                         Program Version 4.2.1 -  RELEASE  -
|  1> ! wB97X-D3 SP def2-SVP
|  2> %pal
|  3> nprocs 24
|  4> end
|  5>
|  6> * xyz 0 1
|  7> S 	 -105.3 	 -1.57868 	 -107.433
|  8> C 	 -105.299 	 -0.302979 	 -108.56
|  9> C 	 -105.132 	 0.902392 	 -107.882
| 10> C 	 -105.134 	 0.754938 	 -106.461
| 11> C 	 -104.9 	 -0.525919 	 -106.075
| 12> H 	 -105.132 	 1.47275 	 -105.607
| 13> C 	 -105.273 	 2.31695 	 -108.506
| 14> H 	 -106.217 	 2.57468 	 -108.648
| 15> H 	 -104.998 	 2.29173 	 -109.549
| 16> C 	 -104.525 	 3.44848 	 -107.764
| 17> H 	 -104.834 	 3.42558 	 -106.758
| 18> H 	 -103.509 	 3.189 	 -107.735
| 19> C 	 -104.885 	 4.81646 	 -108.232
| 20> H 	 -104.083 	 5.54385 	 -107.8
| 21> H 	 -104.703 	 4.89319 	 -109.352
| 22> H 	 -105.833 	 5.17787 	 -107.902
| 23> S 	 -105.982 	 -2.25452 	 -104.209
| 24> C 	 -105.492 	 -2.06273 	 -102.509
| 25> C 	 -104.468 	 -1.136 	 -102.408
| 26> C 	 -104.066 	 -0.591794 	 -103.68
| 27> C 	 -104.821 	 -1.05623 	 -104.735
| 28> H 	 -103.973 	 -0.897213 	 -101.46
| 29> C 	 -102.914 	 0.411691 	 -103.89
| 30> H 	 -103.297 	 1.33245 	 -103.515
| 31> H 	 -102.739 	 0.622622 	 -104.994
| 32> C 	 -101.524 	 0.0192695 	 -103.387
| 33> H 	 -101.609 	 0.286455 	 -102.282
| 34> H 	 -100.698 	 0.62973 	 -103.803
| 35> C 	 -101.219 	 -1.39469 	 -103.718
| 36> H 	 -101.96 	 -2.04109 	 -103.276
| 37> H 	 -100.289 	 -1.60447 	 -103.311
| 38> H 	 -101.218 	 -1.47309 	 -104.828
| 39> H 	 -105.593 	 -0.267359 	 -109.635
| 40> H 	 -105.814 	 -2.62368 	 -101.664
| 41> *
| 42>
| 43>                          ****END OF INPUT****

CARTESIAN COORDINATES (ANGSTROEM)
---------------------------------
  S    -105.300000   -1.578680  -107.433000
  C    -105.299000   -0.302979  -108.560000
  C    -105.132000    0.902392  -107.882000
  C    -105.134000    0.754938  -106.461000
  C    -104.900000   -0.525919  -106.075000
  H    -105.132000    1.472750  -105.607000
  C    -105.273000    2.316950  -108.506000
  H    -106.217000    2.574680  -108.648000
  H    -104.998000    2.291730  -109.549000
  C    -104.525000    3.448480  -107.764000
  H    -104.834000    3.425580  -106.758000
  H    -103.509000    3.189000  -107.735000
  C    -104.885000    4.816460  -108.232000
  H    -104.083000    5.543850  -107.800000
  H    -104.703000    4.893190  -109.352000
  H    -105.833000    5.177870  -107.902000
  S    -105.982000   -2.254520  -104.209000
  C    -105.492000   -2.062730  -102.509000
  C    -104.468000   -1.136000  -102.408000
  C    -104.066000   -0.591794  -103.680000
  C    -104.821000   -1.056230  -104.735000
  H    -103.973000   -0.897213  -101.460000
  C    -102.914000    0.411691  -103.890000
  H    -103.297000    1.332450  -103.515000
  H    -102.739000    0.622622  -104.994000
  C    -101.524000    0.019269  -103.387000
  H    -101.609000    0.286455  -102.282000
  H    -100.698000    0.629730  -103.803000
  C    -101.219000   -1.394690  -103.718000
  H    -101.960000   -2.041090  -103.276000
  H    -100.289000   -1.604470  -103.311000
  H    -101.218000   -1.473090  -104.828000
  H    -105.593000   -0.267359  -109.635000
  H    -105.814000   -2.623680  -101.664000

 Total Charge           Charge          ....    0
 Multiplicity           Mult            ....    1
 Number of Electrons    NEL             ....  134
 Basis Dimension        Dim             ....  322

ORBITAL ENERGIES
----------------

  NO   OCC          E(Eh)            E(eV)
   0   2.0000     -88.967357     -2420.9249
   1   2.0000     -88.963944     -2420.8320
   2   2.0000     -10.325190      -280.9627
   3   2.0000     -10.324987      -280.9572
   4   2.0000     -10.322313      -280.8844
   5   2.0000     -10.316261      -280.7197
   6   2.0000     -10.305557      -280.4285
   7   2.0000     -10.303663      -280.3769
   8   2.0000     -10.300488      -280.2905
   9   2.0000     -10.295495      -280.1547
  10   2.0000     -10.289817      -280.0001
  11   2.0000     -10.287137      -279.9272
  12   2.0000     -10.286380      -279.9066
  13   2.0000     -10.278848      -279.7017
  14   2.0000     -10.275144      -279.6009
  15   2.0000     -10.265045      -279.3261
  16   2.0000      -8.081625      -219.9122
  17   2.0000      -8.079310      -219.8492
  18   2.0000      -6.040342      -164.3661
  19   2.0000      -6.037838      -164.2979
  20   2.0000      -6.036171      -164.2526
  21   2.0000      -6.033717      -164.1858
  22   2.0000      -6.032200      -164.1445
  23   2.0000      -6.030023      -164.0853
  24   2.0000      -1.011979       -27.5373
  25   2.0000      -0.986046       -26.8317
  26   2.0000      -0.914302       -24.8794
  27   2.0000      -0.912165       -24.8213
  28   2.0000      -0.876549       -23.8521
  29   2.0000      -0.852362       -23.1939
  30   2.0000      -0.843552       -22.9542
  31   2.0000      -0.819838       -22.3089
  32   2.0000      -0.783425       -21.3181
  33   2.0000      -0.772535       -21.0218
  34   2.0000      -0.713273       -19.4092
  35   2.0000      -0.695781       -18.9332
  36   2.0000      -0.688929       -18.7467
  37   2.0000      -0.657704       -17.8970
  38   2.0000      -0.646362       -17.5884
  39   2.0000      -0.615810       -16.7570
  40   2.0000      -0.590972       -16.0812
  41   2.0000      -0.572749       -15.5853
  42   2.0000      -0.565697       -15.3934
  43   2.0000      -0.562803       -15.3146
  44   2.0000      -0.553298       -15.0560
  45   2.0000      -0.522712       -14.2237
  46   2.0000      -0.518520       -14.1097
  47   2.0000      -0.510173       -13.8825
  48   2.0000      -0.506859       -13.7923
  49   2.0000      -0.497959       -13.5502
  50   2.0000      -0.490062       -13.3353
  51   2.0000      -0.481135       -13.0923
  52   2.0000      -0.473391       -12.8816
  53   2.0000      -0.464615       -12.6428
  54   2.0000      -0.461999       -12.5716
  55   2.0000      -0.452657       -12.3174
  56   2.0000      -0.445690       -12.1279
  57   2.0000      -0.440859       -11.9964
  58   2.0000      -0.431486       -11.7413
  59   2.0000      -0.418299       -11.3825
  60   2.0000      -0.417614       -11.3639
  61   2.0000      -0.410717       -11.1762
  62   2.0000      -0.397968       -10.8293
  63   2.0000      -0.353099        -9.6083
  64   2.0000      -0.332688        -9.0529
  65   2.0000      -0.325251        -8.8505
  66   2.0000      -0.292668        -7.9639
  67   0.0000       0.025900         0.7048
  68   0.0000       0.072086         1.9616
  69   0.0000       0.106083         2.8867
  70   0.0000       0.123223         3.3531
  71   0.0000       0.131718         3.5842

MULLIKEN ATOMIC CHARGES
-----------------------
   0 S :    0.099030
   1 C :   -0.101130
   2 C :   -0.110604
   3 C :    0.012590
   4 C :   -0.165293
   5 H :    0.040761
   6 C :    0.126835
   7 H :   -0.011015
   8 H :   -0.001926
   9 C :   -0.054829
  10 H :    0.012902
  11 H :    0.021290
  12 C :   -0.071804
  13 H :    0.039506
  14 H :    0.038053
  15 H :    0.041012
  16 S :    0.106466
  17 C :   -0.079936
  18 C :   -0.034649
  19 C :   -0.089803
  20 C :   -0.127442
  21 H :    0.027840
  22 C :    0.043836
  23 H :    0.027042
  24 H :    0.041016
  25 C :   -0.115027
  26 H :    0.027010
  27 H :    0.037726
  28 C :    0.012360
  29 H :    0.037892
  30 H :    0.016855
  31 H :    0.036451
  32 H :    0.065692
  33 H :    0.051291
Sum of atomic charges:   -0.0000000

LOEWDIN ATOMIC CHARGES
----------------------
   0 S :    0.414031
   1 C :   -0.219119
   2 C :   -0.064280
   3 C :   -0.061790
   4 C :   -0.189111
   5 H :    0.041538
   6 C :   -0.023582
   7 H :    0.010076
   8 H :    0.027036
   9 C :   -0.039662
  10 H :    0.018018
  11 H :    0.019843
  12 C :   -0.067153
  13 H :    0.038853
  14 H :    0.029468
  15 H :    0.022060
  16 S :    0.393755
  17 C :   -0.170654
  18 C :   -0.071556
  19 C :   -0.058475
  20 C :   -0.201142
  21 H :    0.034798
  22 C :   -0.039791
  23 H :    0.022587
  24 H :    0.036663
  25 C :   -0.049632
  26 H :    0.022211
  27 H :    0.028751
  28 C :   -0.054377
  29 H :    0.026104
  30 H :    0.016342
  31 H :    0.034962
  32 H :    0.045399
  33 H :    0.027826

  Mayer bond orders larger than 0.100000
B(  0-S ,  1-C ) :   1.1508 B(  0-S ,  4-C ) :   1.1376 B(  1-C ,  2-C ) :   1.6032
B(  1-C , 32-H ) :   0.9626 B(  2-C ,  3-C ) :   1.2345 B(  2-C ,  6-C ) :   1.0163
B(  3-C ,  4-C ) :   1.5848 B(  3-C ,  5-H ) :   0.9766 B(  4-C , 20-C ) :   1.0468
B(  6-C ,  7-H ) :   0.9325 B(  6-C ,  8-H ) :   0.9285 B(  6-C ,  9-C ) :   1.0627
B(  9-C , 10-H ) :   0.9451 B(  9-C , 11-H ) :   0.9609 B(  9-C , 12-C ) :   1.0910
B( 12-C , 13-H ) :   0.9702 B( 12-C , 14-H ) :   0.9736 B( 12-C , 15-H ) :   0.9745
B( 16-S , 17-C ) :   1.1425 B( 16-S , 20-C ) :   1.1272 B( 17-C , 18-C ) :   1.6145
B( 17-C , 33-H ) :   0.9715 B( 18-C , 19-C ) :   1.2331 B( 18-C , 21-H ) :   0.9866
B( 19-C , 20-C ) :   1.6202 B( 19-C , 22-C ) :   1.0259 B( 22-C , 23-H ) :   0.9387
B( 22-C , 24-H ) :   0.9369 B( 22-C , 25-C ) :   1.0595 B( 25-C , 26-H ) :   0.9519
B( 25-C , 27-H ) :   0.9590 B( 25-C , 28-C ) :   1.0855 B( 28-C , 29-H ) :   0.9640
B( 28-C , 30-H ) :   0.9694 B( 28-C , 31-H ) :   0.9711

Dispersion correction           -0.014531638
FINAL SINGLE POINT ENERGY     -1339.847782230413

DIPOLE MOMENT
-------------
                                X             Y             Z
Electronic contribution:    -14.75364     -22.82866       0.86296
Nuclear contribution   :     14.90249      23.46325      -0.66165
                        -----------------------------------------
Total Dipole Moment    :      0.14886       0.63459       0.20131
                        -----------------------------------------
Magnitude (a.u.)       :      0.68219
Magnitude (Debye)      :      1.73399

Rotational constants in cm-1:     0.018573     0.008691     0.007066
Rotational constants in MHz :   556.810703   260.549395   211.825335

                             ****ORCA TERMINATED NORMALLY****
TOTAL RUN TIME: 0 days 0 hours 0 minutes 20 seconds 987 msec
