                         Program Version 4.2.1 -  RELEASE  -
|  1> ! wB97X-D3 SP def2-SVP
|  2> %pal
|  3> nprocs 24
|  4> end
|  5>
|  6> * xyz 0 1
|  7> S 	 -103.145 	 42.4528 	 -84.8767
|  8> C 	 -102.684 	 41.9534 	 -86.4997
|  9> C 	 -103.051 	 42.9796 	 -87.4284
| 10> C 	 -103.682 	 44.075 	 -86.818
| 11> C 	 -103.805 	 43.9711 	 -85.4352
| 12> H 	 -103.968 	 44.9753 	 -87.3109
| 13> C 	 -102.726 	 43.0057 	 -88.8379
| 14> H 	 -101.879 	 43.5652 	 -88.9793
| 15> H 	 -103.578 	 43.4469 	 -89.261
| 16> C 	 -102.442 	 41.716 	 -89.583
| 17> H 	 -102.314 	 41.9262 	 -90.7423
| 18> H 	 -101.632 	 41.0941 	 -89.0936
| 19> C 	 -103.518 	 40.6808 	 -89.6618
| 20> H 	 -103.605 	 40.1583 	 -90.5993
| 21> H 	 -103.63 	 40.0648 	 -88.7182
| 22> H 	 -104.421 	 41.2387 	 -89.7114
| 23> S 	 -104.358 	 46.5491 	 -84.9664
| 24> C 	 -105.267 	 47.0407 	 -83.6091
| 25> C 	 -105.506 	 45.9598 	 -82.7499
| 26> C 	 -104.899 	 44.7865 	 -83.2517
| 27> C 	 -104.367 	 44.8996 	 -84.5395
| 28> H 	 -106.059 	 46.0402 	 -81.8313
| 29> C 	 -105.073 	 43.4318 	 -82.3833
| 30> H 	 -105.67 	 43.725 	 -81.5171
| 31> H 	 -104.095 	 43.0385 	 -82.0498
| 32> C 	 -106 	 42.3739 	 -82.9904
| 33> H 	 -105.796 	 42.1136 	 -84.0067
| 34> H 	 -107.039 	 42.7484 	 -82.8965
| 35> C 	 -105.896 	 41.0438 	 -82.2494
| 36> H 	 -106.46 	 40.2929 	 -82.7701
| 37> H 	 -106.242 	 40.9565 	 -81.2376
| 38> H 	 -104.825 	 40.8593 	 -82.1436
| 39> H 	 -102.126 	 41.102 	 -86.7117
| 40> H 	 -105.686 	 48.0633 	 -83.4318
| 41> *
| 42>
| 43>                          ****END OF INPUT****

CARTESIAN COORDINATES (ANGSTROEM)
---------------------------------
  S    -103.145000   42.452800  -84.876700
  C    -102.684000   41.953400  -86.499700
  C    -103.051000   42.979600  -87.428400
  C    -103.682000   44.075000  -86.818000
  C    -103.805000   43.971100  -85.435200
  H    -103.968000   44.975300  -87.310900
  C    -102.726000   43.005700  -88.837900
  H    -101.879000   43.565200  -88.979300
  H    -103.578000   43.446900  -89.261000
  C    -102.442000   41.716000  -89.583000
  H    -102.314000   41.926200  -90.742300
  H    -101.632000   41.094100  -89.093600
  C    -103.518000   40.680800  -89.661800
  H    -103.605000   40.158300  -90.599300
  H    -103.630000   40.064800  -88.718200
  H    -104.421000   41.238700  -89.711400
  S    -104.358000   46.549100  -84.966400
  C    -105.267000   47.040700  -83.609100
  C    -105.506000   45.959800  -82.749900
  C    -104.899000   44.786500  -83.251700
  C    -104.367000   44.899600  -84.539500
  H    -106.059000   46.040200  -81.831300
  C    -105.073000   43.431800  -82.383300
  H    -105.670000   43.725000  -81.517100
  H    -104.095000   43.038500  -82.049800
  C    -106.000000   42.373900  -82.990400
  H    -105.796000   42.113600  -84.006700
  H    -107.039000   42.748400  -82.896500
  C    -105.896000   41.043800  -82.249400
  H    -106.460000   40.292900  -82.770100
  H    -106.242000   40.956500  -81.237600
  H    -104.825000   40.859300  -82.143600
  H    -102.126000   41.102000  -86.711700
  H    -105.686000   48.063300  -83.431800

 Total Charge           Charge          ....    0
 Multiplicity           Mult            ....    1
 Number of Electrons    NEL             ....  134
 Basis Dimension        Dim             ....  322

ORBITAL ENERGIES
----------------

  NO   OCC          E(Eh)            E(eV)
   0   2.0000     -88.969771     -2420.9905
   1   2.0000     -88.969477     -2420.9826
   2   2.0000     -10.331260      -281.1279
   3   2.0000     -10.323688      -280.9218
   4   2.0000     -10.320023      -280.8221
   5   2.0000     -10.314319      -280.6669
   6   2.0000     -10.306881      -280.4645
   7   2.0000     -10.302137      -280.3354
   8   2.0000     -10.297194      -280.2009
   9   2.0000     -10.295531      -280.1556
  10   2.0000     -10.295224      -280.1473
  11   2.0000     -10.290938      -280.0306
  12   2.0000     -10.278584      -279.6945
  13   2.0000     -10.277703      -279.6705
  14   2.0000     -10.269714      -279.4531
  15   2.0000     -10.267254      -279.3862
  16   2.0000      -8.085472      -220.0169
  17   2.0000      -8.083454      -219.9620
  18   2.0000      -6.043844      -164.4614
  19   2.0000      -6.041971      -164.4104
  20   2.0000      -6.039663      -164.3476
  21   2.0000      -6.037925      -164.3003
  22   2.0000      -6.036451      -164.2602
  23   2.0000      -6.034475      -164.2064
  24   2.0000      -1.016926       -27.6720
  25   2.0000      -0.988954       -26.9108
  26   2.0000      -0.925754       -25.1910
  27   2.0000      -0.904119       -24.6023
  28   2.0000      -0.875192       -23.8152
  29   2.0000      -0.861025       -23.4297
  30   2.0000      -0.848161       -23.0796
  31   2.0000      -0.814359       -22.1598
  32   2.0000      -0.786547       -21.4030
  33   2.0000      -0.772176       -21.0120
  34   2.0000      -0.709967       -19.3192
  35   2.0000      -0.698785       -19.0149
  36   2.0000      -0.686784       -18.6884
  37   2.0000      -0.669334       -18.2135
  38   2.0000      -0.640769       -17.4362
  39   2.0000      -0.612004       -16.6535
  40   2.0000      -0.596854       -16.2412
  41   2.0000      -0.581468       -15.8225
  42   2.0000      -0.569818       -15.5055
  43   2.0000      -0.567802       -15.4507
  44   2.0000      -0.548291       -14.9197
  45   2.0000      -0.525886       -14.3101
  46   2.0000      -0.523924       -14.2567
  47   2.0000      -0.516756       -14.0617
  48   2.0000      -0.509115       -13.8537
  49   2.0000      -0.501194       -13.6382
  50   2.0000      -0.488481       -13.2922
  51   2.0000      -0.484158       -13.1746
  52   2.0000      -0.472572       -12.8593
  53   2.0000      -0.468999       -12.7621
  54   2.0000      -0.466298       -12.6886
  55   2.0000      -0.446625       -12.1533
  56   2.0000      -0.444959       -12.1079
  57   2.0000      -0.432708       -11.7746
  58   2.0000      -0.431449       -11.7403
  59   2.0000      -0.413303       -11.2465
  60   2.0000      -0.410583       -11.1725
  61   2.0000      -0.409097       -11.1321
  62   2.0000      -0.403234       -10.9726
  63   2.0000      -0.361594        -9.8395
  64   2.0000      -0.335942        -9.1414
  65   2.0000      -0.331867        -9.0306
  66   2.0000      -0.278062        -7.5665
  67   0.0000       0.014983         0.4077
  68   0.0000       0.084434         2.2976
  69   0.0000       0.112714         3.0671
  70   0.0000       0.120688         3.2841
  71   0.0000       0.126785         3.4500

MULLIKEN ATOMIC CHARGES
-----------------------
   0 S :    0.102290
   1 C :   -0.103642
   2 C :   -0.089730
   3 C :   -0.012298
   4 C :   -0.118928
   5 H :    0.006430
   6 C :    0.164513
   7 H :    0.031726
   8 H :    0.013939
   9 C :   -0.159943
  10 H :    0.047353
  11 H :    0.037787
  12 C :   -0.037619
  13 H :    0.033844
  14 H :    0.041278
  15 H :   -0.005116
  16 S :    0.118429
  17 C :   -0.106562
  18 C :   -0.035225
  19 C :   -0.057050
  20 C :   -0.113510
  21 H :    0.019195
  22 C :    0.027565
  23 H :    0.017588
  24 H :    0.044496
  25 C :   -0.064165
  26 H :    0.035993
  27 H :    0.029765
  28 C :   -0.034603
  29 H :    0.030342
  30 H :    0.015385
  31 H :    0.018801
  32 H :    0.026447
  33 H :    0.075225
Sum of atomic charges:   -0.0000000

LOEWDIN ATOMIC CHARGES
----------------------
   0 S :    0.430429
   1 C :   -0.198882
   2 C :   -0.049813
   3 C :   -0.070936
   4 C :   -0.182112
   5 H :    0.024139
   6 C :   -0.030522
   7 H :    0.032977
   8 H :    0.030085
   9 C :   -0.054390
  10 H :    0.044629
  11 H :    0.028439
  12 C :   -0.080674
  13 H :    0.027300
  14 H :    0.029412
  15 H :    0.017713
  16 S :    0.458201
  17 C :   -0.211413
  18 C :   -0.072097
  19 C :   -0.058189
  20 C :   -0.218253
  21 H :    0.031718
  22 C :   -0.034734
  23 H :    0.031803
  24 H :    0.024879
  25 C :   -0.044349
  26 H :    0.011973
  27 H :    0.026231
  28 C :   -0.064078
  29 H :    0.025219
  30 H :    0.017683
  31 H :    0.023765
  32 H :    0.012679
  33 H :    0.041164

  Mayer bond orders larger than 0.100000
B(  0-S ,  1-C ) :   1.1369 B(  0-S ,  4-C ) :   1.1594 B(  1-C ,  2-C ) :   1.5448
B(  1-C ,  4-C ) :   0.1045 B(  1-C , 32-H ) :   0.9797 B(  2-C ,  3-C ) :   1.2936
B(  2-C ,  6-C ) :   1.0189 B(  3-C ,  4-C ) :   1.5029 B(  3-C ,  5-H ) :   0.9931
B(  4-C , 20-C ) :   1.1196 B(  6-C ,  7-H ) :   0.9200 B(  6-C ,  8-H ) :   0.9276
B(  6-C ,  9-C ) :   1.0916 B(  9-C , 10-H ) :   0.9552 B(  9-C , 11-H ) :   0.9524
B(  9-C , 12-C ) :   1.0738 B( 12-C , 13-H ) :   0.9754 B( 12-C , 14-H ) :   0.9700
B( 12-C , 15-H ) :   0.9652 B( 16-S , 17-C ) :   1.1861 B( 16-S , 20-C ) :   1.1611
B( 17-C , 18-C ) :   1.5457 B( 17-C , 20-C ) :   0.1025 B( 17-C , 33-H ) :   0.9624
B( 18-C , 19-C ) :   1.3142 B( 18-C , 21-H ) :   0.9915 B( 19-C , 20-C ) :   1.5036
B( 19-C , 22-C ) :   1.0218 B( 22-C , 23-H ) :   0.9407 B( 22-C , 24-H ) :   0.9468
B( 22-C , 25-C ) :   1.0547 B( 25-C , 26-H ) :   0.9581 B( 25-C , 27-H ) :   0.9551
B( 25-C , 28-C ) :   1.0760 B( 28-C , 29-H ) :   0.9734 B( 28-C , 30-H ) :   0.9756
B( 28-C , 31-H ) :   0.9736

Dispersion correction           -0.014334364
FINAL SINGLE POINT ENERGY     -1339.849366590786

DIPOLE MOMENT
-------------
                                X             Y             Z
Electronic contribution:      4.65415      18.84608       6.67243
Nuclear contribution   :     -4.84623     -18.80922      -6.79557
                        -----------------------------------------
Total Dipole Moment    :     -0.19208       0.03687      -0.12315
                        -----------------------------------------
Magnitude (a.u.)       :      0.23113
Magnitude (Debye)      :      0.58748

Rotational constants in cm-1:     0.020583     0.008706     0.006583
Rotational constants in MHz :   617.073132   261.002904   197.355053

                             ****ORCA TERMINATED NORMALLY****
TOTAL RUN TIME: 0 days 0 hours 0 minutes 20 seconds 435 msec
