                         Program Version 4.2.1 -  RELEASE  -
|  1> ! wB97X-D3 SP def2-SVP
|  2> %pal
|  3> nprocs 24
|  4> end
|  5>
|  6> * xyz 0 1
|  7> S 	 -46.2192 	 5.9696 	 -18.4959
|  8> C 	 -46.8338 	 5.14532 	 -17.1396
|  9> C 	 -47.299 	 6.03265 	 -16.2053
| 10> C 	 -47.0496 	 7.36297 	 -16.5887
| 11> C 	 -46.5742 	 7.5188 	 -17.8385
| 12> H 	 -47.2737 	 8.20329 	 -15.9811
| 13> C 	 -48.0913 	 5.64563 	 -14.9528
| 14> H 	 -47.914 	 6.43284 	 -14.2698
| 15> H 	 -47.5427 	 4.81556 	 -14.5539
| 16> C 	 -49.5129 	 5.34414 	 -15.2536
| 17> H 	 -49.5519 	 4.54199 	 -15.9555
| 18> H 	 -49.8855 	 5.01603 	 -14.288
| 19> C 	 -50.2884 	 6.6485 	 -15.6298
| 20> H 	 -51.3333 	 6.32581 	 -15.8446
| 21> H 	 -50.2231 	 7.39753 	 -14.7997
| 22> H 	 -49.8358 	 7.10686 	 -16.4962
| 23> S 	 -44.7448 	 9.28079 	 -18.9241
| 24> C 	 -45.2547 	 10.7891 	 -19.5651
| 25> C 	 -46.6807 	 10.9343 	 -19.5058
| 26> C 	 -47.2537 	 9.74036 	 -18.9441
| 27> C 	 -46.3543 	 8.74142 	 -18.5825
| 28> H 	 -47.1263 	 11.8612 	 -19.879
| 29> C 	 -48.714 	 9.59206 	 -18.8784
| 30> H 	 -48.9697 	 9.78797 	 -17.8446
| 31> H 	 -48.8904 	 8.50156 	 -18.9279
| 32> C 	 -49.6018 	 10.4077 	 -19.7812
| 33> H 	 -49.0668 	 10.404 	 -20.7621
| 34> H 	 -49.6766 	 11.4513 	 -19.4955
| 35> C 	 -50.9766 	 9.83789 	 -19.883
| 36> H 	 -51.5023 	 9.87789 	 -18.9345
| 37> H 	 -50.8827 	 8.81043 	 -20.2063
| 38> H 	 -51.5616 	 10.4851 	 -20.5794
| 39> H 	 -47.0015 	 4.13437 	 -17.1058
| 40> H 	 -44.5813 	 11.5358 	 -19.9024
| 41> *
| 42>
| 43>                          ****END OF INPUT****

CARTESIAN COORDINATES (ANGSTROEM)
---------------------------------
  S    -46.219200    5.969600  -18.495900
  C    -46.833800    5.145320  -17.139600
  C    -47.299000    6.032650  -16.205300
  C    -47.049600    7.362970  -16.588700
  C    -46.574200    7.518800  -17.838500
  H    -47.273700    8.203290  -15.981100
  C    -48.091300    5.645630  -14.952800
  H    -47.914000    6.432840  -14.269800
  H    -47.542700    4.815560  -14.553900
  C    -49.512900    5.344140  -15.253600
  H    -49.551900    4.541990  -15.955500
  H    -49.885500    5.016030  -14.288000
  C    -50.288400    6.648500  -15.629800
  H    -51.333300    6.325810  -15.844600
  H    -50.223100    7.397530  -14.799700
  H    -49.835800    7.106860  -16.496200
  S    -44.744800    9.280790  -18.924100
  C    -45.254700   10.789100  -19.565100
  C    -46.680700   10.934300  -19.505800
  C    -47.253700    9.740360  -18.944100
  C    -46.354300    8.741420  -18.582500
  H    -47.126300   11.861200  -19.879000
  C    -48.714000    9.592060  -18.878400
  H    -48.969700    9.787970  -17.844600
  H    -48.890400    8.501560  -18.927900
  C    -49.601800   10.407700  -19.781200
  H    -49.066800   10.404000  -20.762100
  H    -49.676600   11.451300  -19.495500
  C    -50.976600    9.837890  -19.883000
  H    -51.502300    9.877890  -18.934500
  H    -50.882700    8.810430  -20.206300
  H    -51.561600   10.485100  -20.579400
  H    -47.001500    4.134370  -17.105800
  H    -44.581300   11.535800  -19.902400

 Total Charge           Charge          ....    0
 Multiplicity           Mult            ....    1
 Number of Electrons    NEL             ....  134
 Basis Dimension        Dim             ....  322

ORBITAL ENERGIES
----------------

  NO   OCC          E(Eh)            E(eV)
   0   2.0000     -88.964305     -2420.8418
   1   2.0000     -88.961491     -2420.7652
   2   2.0000     -10.320963      -280.8477
   3   2.0000     -10.319184      -280.7993
   4   2.0000     -10.317683      -280.7584
   5   2.0000     -10.301762      -280.3252
   6   2.0000     -10.301506      -280.3182
   7   2.0000     -10.298841      -280.2457
   8   2.0000     -10.291558      -280.0475
   9   2.0000     -10.284448      -279.8541
  10   2.0000     -10.284139      -279.8456
  11   2.0000     -10.284078      -279.8440
  12   2.0000     -10.282811      -279.8095
  13   2.0000     -10.281954      -279.7862
  14   2.0000     -10.280672      -279.7513
  15   2.0000     -10.276525      -279.6385
  16   2.0000      -8.079757      -219.8614
  17   2.0000      -8.077873      -219.8101
  18   2.0000      -6.038069      -164.3042
  19   2.0000      -6.036213      -164.2537
  20   2.0000      -6.033899      -164.1907
  21   2.0000      -6.032000      -164.1391
  22   2.0000      -6.030964      -164.1109
  23   2.0000      -6.028866      -164.0538
  24   2.0000      -1.016215       -27.6526
  25   2.0000      -0.990402       -26.9502
  26   2.0000      -0.920505       -25.0482
  27   2.0000      -0.918531       -24.9945
  28   2.0000      -0.872058       -23.7299
  29   2.0000      -0.855456       -23.2781
  30   2.0000      -0.846843       -23.0438
  31   2.0000      -0.816052       -22.2059
  32   2.0000      -0.784083       -21.3360
  33   2.0000      -0.770920       -20.9778
  34   2.0000      -0.707375       -19.2487
  35   2.0000      -0.705334       -19.1931
  36   2.0000      -0.699901       -19.0453
  37   2.0000      -0.654285       -17.8040
  38   2.0000      -0.649075       -17.6622
  39   2.0000      -0.618869       -16.8403
  40   2.0000      -0.597607       -16.2617
  41   2.0000      -0.581532       -15.8243
  42   2.0000      -0.575446       -15.6587
  43   2.0000      -0.553891       -15.0721
  44   2.0000      -0.550283       -14.9740
  45   2.0000      -0.531605       -14.4657
  46   2.0000      -0.517169       -14.0729
  47   2.0000      -0.513246       -13.9661
  48   2.0000      -0.509679       -13.8691
  49   2.0000      -0.499907       -13.6032
  50   2.0000      -0.487815       -13.2741
  51   2.0000      -0.479855       -13.0575
  52   2.0000      -0.473636       -12.8883
  53   2.0000      -0.472270       -12.8511
  54   2.0000      -0.457945       -12.4613
  55   2.0000      -0.449419       -12.2293
  56   2.0000      -0.447466       -12.1762
  57   2.0000      -0.440246       -11.9797
  58   2.0000      -0.431436       -11.7400
  59   2.0000      -0.425315       -11.5734
  60   2.0000      -0.420661       -11.4468
  61   2.0000      -0.414905       -11.2901
  62   2.0000      -0.410135       -11.1604
  63   2.0000      -0.341009        -9.2793
  64   2.0000      -0.328666        -8.9435
  65   2.0000      -0.324865        -8.8400
  66   2.0000      -0.298476        -8.1219
  67   0.0000       0.040392         1.0991
  68   0.0000       0.063902         1.7389
  69   0.0000       0.125983         3.4282
  70   0.0000       0.129479         3.5233
  71   0.0000       0.136045         3.7020

MULLIKEN ATOMIC CHARGES
-----------------------
   0 S :    0.120188
   1 C :   -0.081299
   2 C :   -0.146719
   3 C :    0.054837
   4 C :   -0.186733
   5 H :   -0.007848
   6 C :    0.096157
   7 H :    0.003149
   8 H :    0.017028
   9 C :   -0.012396
  10 H :    0.022050
  11 H :    0.024479
  12 C :   -0.073996
  13 H :    0.046274
  14 H :    0.035919
  15 H :    0.041020
  16 S :    0.124975
  17 C :   -0.091777
  18 C :   -0.061720
  19 C :   -0.043245
  20 C :   -0.143275
  21 H :    0.032470
  22 C :    0.058654
  23 H :    0.020026
  24 H :    0.034266
  25 C :   -0.080345
  26 H :    0.034174
  27 H :    0.026546
  28 C :   -0.022590
  29 H :    0.027980
  30 H :    0.034688
  31 H :    0.036501
  32 H :    0.011251
  33 H :    0.049311
Sum of atomic charges:    0.0000000

LOEWDIN ATOMIC CHARGES
----------------------
   0 S :    0.438036
   1 C :   -0.198015
   2 C :   -0.063716
   3 C :   -0.060727
   4 C :   -0.209798
   5 H :    0.025779
   6 C :   -0.027001
   7 H :    0.022062
   8 H :    0.028363
   9 C :   -0.031439
  10 H :    0.020274
  11 H :    0.025087
  12 C :   -0.063443
  13 H :    0.031438
  14 H :    0.029886
  15 H :    0.021386
  16 S :    0.438825
  17 C :   -0.189324
  18 C :   -0.079271
  19 C :   -0.049270
  20 C :   -0.227303
  21 H :    0.036525
  22 C :   -0.044729
  23 H :    0.032679
  24 H :    0.035456
  25 C :   -0.047150
  26 H :    0.028212
  27 H :    0.022237
  28 C :   -0.058482
  29 H :    0.024532
  30 H :    0.025601
  31 H :    0.031715
  32 H :    0.010233
  33 H :    0.021342

  Mayer bond orders larger than 0.100000
B(  0-S ,  1-C ) :   1.1589 B(  0-S ,  4-C ) :   1.1717 B(  1-C ,  2-C ) :   1.5949
B(  1-C , 32-H ) :   0.9793 B(  2-C ,  3-C ) :   1.2623 B(  2-C ,  6-C ) :   1.0033
B(  3-C ,  4-C ) :   1.5708 B(  3-C ,  5-H ) :   1.0087 B(  4-C , 20-C ) :   1.0019
B(  6-C ,  7-H ) :   0.9373 B(  6-C ,  8-H ) :   0.9325 B(  6-C ,  9-C ) :   1.0792
B(  9-C , 10-H ) :   0.9551 B(  9-C , 11-H ) :   0.9510 B(  9-C , 12-C ) :   1.0667
B( 12-C , 13-H ) :   0.9735 B( 12-C , 14-H ) :   0.9738 B( 12-C , 15-H ) :   0.9762
B( 16-S , 17-C ) :   1.2089 B( 16-S , 20-C ) :   1.1487 B( 17-C , 18-C ) :   1.5382
B( 17-C , 20-C ) :   0.1071 B( 17-C , 33-H ) :   0.9710 B( 18-C , 19-C ) :   1.2650
B( 18-C , 21-H ) :   0.9924 B( 19-C , 20-C ) :   1.5689 B( 19-C , 22-C ) :   1.0513
B( 22-C , 23-H ) :   0.9000 B( 22-C , 24-H ) :   0.9354 B( 22-C , 25-C ) :   1.0754
B( 25-C , 26-H ) :   0.9554 B( 25-C , 27-H ) :   0.9366 B( 25-C , 28-C ) :   1.0963
B( 28-C , 29-H ) :   0.9710 B( 28-C , 30-H ) :   0.9743 B( 28-C , 31-H ) :   0.9702

Dispersion correction           -0.015060220
FINAL SINGLE POINT ENERGY     -1339.883317780575

DIPOLE MOMENT
-------------
                                X             Y             Z
Electronic contribution:     27.99543      -2.39675      -7.26356
Nuclear contribution   :    -28.60005       2.57266       7.59060
                        -----------------------------------------
Total Dipole Moment    :     -0.60462       0.17590       0.32704
                        -----------------------------------------
Magnitude (a.u.)       :      0.70955
Magnitude (Debye)      :      1.80353

Rotational constants in cm-1:     0.017200     0.010098     0.007190
Rotational constants in MHz :   515.647626   302.719124   215.557204

                             ****ORCA TERMINATED NORMALLY****
TOTAL RUN TIME: 0 days 0 hours 0 minutes 22 seconds 494 msec
