                         Program Version 4.2.1 -  RELEASE  -
|  1> ! wB97X-D3 SP def2-SVP
|  2> %pal
|  3> nprocs 24
|  4> end
|  5>
|  6> * xyz 0 1
|  7> S 	 -42.3048 	 -7.80581 	 4.90091
|  8> C 	 -41.6903 	 -9.24962 	 5.68874
|  9> C 	 -40.7986 	 -9.05336 	 6.70599
| 10> C 	 -40.4518 	 -7.68186 	 6.6924
| 11> C 	 -41.1429 	 -6.84763 	 5.77817
| 12> H 	 -39.7004 	 -7.20788 	 7.29272
| 13> C 	 -40.2191 	 -10.1768 	 7.57217
| 14> H 	 -40.6184 	 -11.0088 	 7.0386
| 15> H 	 -40.6335 	 -9.97766 	 8.55793
| 16> C 	 -38.6668 	 -10.327 	 7.72942
| 17> H 	 -38.4974 	 -11.0917 	 8.53205
| 18> H 	 -38.3052 	 -10.7131 	 6.73035
| 19> C 	 -37.8146 	 -9.09018 	 8.15586
| 20> H 	 -38.1744 	 -8.58871 	 9.04762
| 21> H 	 -36.7645 	 -9.35169 	 8.12767
| 22> H 	 -37.9141 	 -8.44928 	 7.28051
| 23> S 	 -42.7617 	 -4.73057 	 5.83654
| 24> C 	 -42.0942 	 -3.10572 	 5.7646
| 25> C 	 -40.6915 	 -3.11745 	 5.84521
| 26> C 	 -40.1775 	 -4.44889 	 5.84777
| 27> C 	 -41.1793 	 -5.43555 	 5.75254
| 28> H 	 -40.18 	 -2.18516 	 5.84561
| 29> C 	 -38.7346 	 -4.60265 	 5.97226
| 30> H 	 -38.3497 	 -3.90367 	 5.21766
| 31> H 	 -38.461 	 -5.5232 	 5.56566
| 32> C 	 -38.1787 	 -4.47881 	 7.39656
| 33> H 	 -38.4803 	 -5.35472 	 7.91943
| 34> H 	 -38.7346 	 -3.70879 	 7.80594
| 35> C 	 -36.6939 	 -4.21781 	 7.55146
| 36> H 	 -36.0296 	 -4.99905 	 7.20139
| 37> H 	 -36.3577 	 -3.87074 	 8.56153
| 38> H 	 -36.2518 	 -3.35326 	 7.04015
| 39> H 	 -42.1549 	 -10.2179 	 5.56848
| 40> H 	 -42.6906 	 -2.17977 	 5.67784
| 41> *
| 42>
| 43>                          ****END OF INPUT****

CARTESIAN COORDINATES (ANGSTROEM)
---------------------------------
  S    -42.304800   -7.805810    4.900910
  C    -41.690300   -9.249620    5.688740
  C    -40.798600   -9.053360    6.705990
  C    -40.451800   -7.681860    6.692400
  C    -41.142900   -6.847630    5.778170
  H    -39.700400   -7.207880    7.292720
  C    -40.219100  -10.176800    7.572170
  H    -40.618400  -11.008800    7.038600
  H    -40.633500   -9.977660    8.557930
  C    -38.666800  -10.327000    7.729420
  H    -38.497400  -11.091700    8.532050
  H    -38.305200  -10.713100    6.730350
  C    -37.814600   -9.090180    8.155860
  H    -38.174400   -8.588710    9.047620
  H    -36.764500   -9.351690    8.127670
  H    -37.914100   -8.449280    7.280510
  S    -42.761700   -4.730570    5.836540
  C    -42.094200   -3.105720    5.764600
  C    -40.691500   -3.117450    5.845210
  C    -40.177500   -4.448890    5.847770
  C    -41.179300   -5.435550    5.752540
  H    -40.180000   -2.185160    5.845610
  C    -38.734600   -4.602650    5.972260
  H    -38.349700   -3.903670    5.217660
  H    -38.461000   -5.523200    5.565660
  C    -38.178700   -4.478810    7.396560
  H    -38.480300   -5.354720    7.919430
  H    -38.734600   -3.708790    7.805940
  C    -36.693900   -4.217810    7.551460
  H    -36.029600   -4.999050    7.201390
  H    -36.357700   -3.870740    8.561530
  H    -36.251800   -3.353260    7.040150
  H    -42.154900  -10.217900    5.568480
  H    -42.690600   -2.179770    5.677840

 Total Charge           Charge          ....    0
 Multiplicity           Mult            ....    1
 Number of Electrons    NEL             ....  134
 Basis Dimension        Dim             ....  322

ORBITAL ENERGIES
----------------

  NO   OCC          E(Eh)            E(eV)
   0   2.0000     -88.968820     -2420.9647
   1   2.0000     -88.965666     -2420.8789
   2   2.0000     -10.326777      -281.0059
   3   2.0000     -10.323185      -280.9081
   4   2.0000     -10.319181      -280.7992
   5   2.0000     -10.311242      -280.5832
   6   2.0000     -10.301066      -280.3063
   7   2.0000     -10.300562      -280.2925
   8   2.0000     -10.299063      -280.2517
   9   2.0000     -10.298817      -280.2451
  10   2.0000     -10.293372      -280.0969
  11   2.0000     -10.292355      -280.0692
  12   2.0000     -10.282324      -279.7963
  13   2.0000     -10.281408      -279.7713
  14   2.0000     -10.281022      -279.7608
  15   2.0000     -10.278946      -279.7043
  16   2.0000      -8.083464      -219.9622
  17   2.0000      -8.080516      -219.8820
  18   2.0000      -6.041867      -164.4076
  19   2.0000      -6.039057      -164.3311
  20   2.0000      -6.038040      -164.3034
  21   2.0000      -6.035002      -164.2207
  22   2.0000      -6.034284      -164.2012
  23   2.0000      -6.031228      -164.1181
  24   2.0000      -1.009632       -27.4735
  25   2.0000      -0.983387       -26.7593
  26   2.0000      -0.917799       -24.9746
  27   2.0000      -0.909046       -24.7364
  28   2.0000      -0.872389       -23.7389
  29   2.0000      -0.854103       -23.2413
  30   2.0000      -0.845413       -23.0049
  31   2.0000      -0.815864       -22.2008
  32   2.0000      -0.790083       -21.4992
  33   2.0000      -0.772293       -21.0152
  34   2.0000      -0.718308       -19.5461
  35   2.0000      -0.702009       -19.1026
  36   2.0000      -0.694422       -18.8962
  37   2.0000      -0.666666       -18.1409
  38   2.0000      -0.638131       -17.3644
  39   2.0000      -0.617848       -16.8125
  40   2.0000      -0.594772       -16.1846
  41   2.0000      -0.579960       -15.7815
  42   2.0000      -0.561809       -15.2876
  43   2.0000      -0.546838       -14.8802
  44   2.0000      -0.534358       -14.5406
  45   2.0000      -0.529312       -14.4033
  46   2.0000      -0.525208       -14.2916
  47   2.0000      -0.520308       -14.1583
  48   2.0000      -0.510392       -13.8885
  49   2.0000      -0.497204       -13.5296
  50   2.0000      -0.493020       -13.4158
  51   2.0000      -0.482194       -13.1212
  52   2.0000      -0.470359       -12.7991
  53   2.0000      -0.463552       -12.6139
  54   2.0000      -0.458593       -12.4789
  55   2.0000      -0.452911       -12.3243
  56   2.0000      -0.441481       -12.0133
  57   2.0000      -0.440043       -11.9742
  58   2.0000      -0.431348       -11.7376
  59   2.0000      -0.430969       -11.7273
  60   2.0000      -0.420727       -11.4486
  61   2.0000      -0.417489       -11.3605
  62   2.0000      -0.412009       -11.2113
  63   2.0000      -0.348333        -9.4786
  64   2.0000      -0.334681        -9.1071
  65   2.0000      -0.328473        -8.9382
  66   2.0000      -0.281943        -7.6721
  67   0.0000       0.023525         0.6402
  68   0.0000       0.071680         1.9505
  69   0.0000       0.107881         2.9356
  70   0.0000       0.125094         3.4040
  71   0.0000       0.126544         3.4434

MULLIKEN ATOMIC CHARGES
-----------------------
   0 S :    0.114956
   1 C :   -0.123643
   2 C :   -0.100268
   3 C :    0.032239
   4 C :   -0.162328
   5 H :   -0.032015
   6 C :    0.122831
   7 H :    0.017088
   8 H :    0.042696
   9 C :   -0.124627
  10 H :    0.041974
  11 H :    0.040095
  12 C :   -0.047162
  13 H :    0.047133
  14 H :    0.039955
  15 H :    0.033203
  16 S :    0.106281
  17 C :   -0.110087
  18 C :   -0.032318
  19 C :   -0.070462
  20 C :   -0.130206
  21 H :    0.014053
  22 C :    0.090454
  23 H :    0.022371
  24 H :   -0.007917
  25 C :    0.021710
  26 H :    0.021290
  27 H :    0.002475
  28 C :   -0.053913
  29 H :    0.031020
  30 H :    0.031184
  31 H :    0.015133
  32 H :    0.040382
  33 H :    0.066423
Sum of atomic charges:   -0.0000000

LOEWDIN ATOMIC CHARGES
----------------------
   0 S :    0.409601
   1 C :   -0.194740
   2 C :   -0.065163
   3 C :   -0.058311
   4 C :   -0.203166
   5 H :    0.018705
   6 C :   -0.024049
   7 H :    0.031204
   8 H :    0.035990
   9 C :   -0.041774
  10 H :    0.027529
  11 H :    0.030188
  12 C :   -0.069342
  13 H :    0.025372
  14 H :    0.031009
  15 H :    0.025970
  16 S :    0.412058
  17 C :   -0.189866
  18 C :   -0.065462
  19 C :   -0.057693
  20 C :   -0.206269
  21 H :    0.029376
  22 C :   -0.033206
  23 H :    0.036441
  24 H :    0.017759
  25 C :   -0.026565
  26 H :    0.023316
  27 H :    0.017415
  28 C :   -0.076980
  29 H :    0.024531
  30 H :    0.033742
  31 H :    0.026776
  32 H :    0.021951
  33 H :    0.033655

  Mayer bond orders larger than 0.100000
B(  0-S ,  1-C ) :   1.1457 B(  0-S ,  4-C ) :   1.1432 B(  1-C ,  2-C ) :   1.6221
B(  1-C , 32-H ) :   0.9540 B(  2-C ,  3-C ) :   1.2542 B(  2-C ,  6-C ) :   0.9971
B(  3-C ,  4-C ) :   1.5398 B(  3-C ,  5-H ) :   0.9923 B(  4-C , 20-C ) :   1.0877
B(  6-C ,  7-H ) :   0.9395 B(  6-C ,  8-H ) :   0.9303 B(  6-C ,  9-C ) :   1.0695
B(  9-C , 10-H ) :   0.9568 B(  9-C , 11-H ) :   0.9585 B(  9-C , 12-C ) :   1.0757
B( 12-C , 13-H ) :   0.9756 B( 12-C , 14-H ) :   0.9686 B( 12-C , 15-H ) :   0.9669
B( 16-S , 17-C ) :   1.1558 B( 16-S , 20-C ) :   1.1445 B( 17-C , 18-C ) :   1.5928
B( 17-C , 20-C ) :   0.1028 B( 17-C , 33-H ) :   0.9646 B( 18-C , 19-C ) :   1.2403
B( 18-C , 21-H ) :   0.9976 B( 19-C , 20-C ) :   1.5557 B( 19-C , 22-C ) :   1.0741
B( 22-C , 23-H ) :   0.9285 B( 22-C , 24-H ) :   0.9127 B( 22-C , 25-C ) :   1.0512
B( 25-C , 26-H ) :   0.9451 B( 25-C , 27-H ) :   0.9515 B( 25-C , 28-C ) :   1.0812
B( 28-C , 29-H ) :   0.9757 B( 28-C , 30-H ) :   0.9717 B( 28-C , 31-H ) :   0.9708

Dispersion correction           -0.014836748
FINAL SINGLE POINT ENERGY     -1339.860606107954

DIPOLE MOMENT
-------------
                                X             Y             Z
Electronic contribution:    -28.21596       4.39475     -13.83162
Nuclear contribution   :     28.76943      -4.41772      14.22228
                        -----------------------------------------
Total Dipole Moment    :      0.55347      -0.02297       0.39066
                        -----------------------------------------
Magnitude (a.u.)       :      0.67784
Magnitude (Debye)      :      1.72294

Rotational constants in cm-1:     0.015976     0.010908     0.006842
Rotational constants in MHz :   478.933830   327.026419   205.131431

                             ****ORCA TERMINATED NORMALLY****
TOTAL RUN TIME: 0 days 0 hours 0 minutes 22 seconds 335 msec
