                         Program Version 4.2.1 -  RELEASE  -
|  1> ! wB97X-D3 SP def2-SVP
|  2> %pal
|  3> nprocs 24
|  4> end
|  5>
|  6> * xyz 0 1
|  7> S 	 -119.759 	 33.6696 	 -115.143
|  8> C 	 -118.168 	 33.1708 	 -115.871
|  9> C 	 -117.123 	 33.4898 	 -114.954
| 10> C 	 -117.563 	 33.9946 	 -113.697
| 11> C 	 -118.952 	 34.0874 	 -113.658
| 12> H 	 -117.025 	 34.2765 	 -112.838
| 13> C 	 -115.666 	 33.2337 	 -115.249
| 14> H 	 -115.094 	 34.0466 	 -115.014
| 15> H 	 -115.606 	 33.2529 	 -116.321
| 16> C 	 -115.021 	 31.9736 	 -114.74
| 17> H 	 -115.174 	 31.9695 	 -113.755
| 18> H 	 -115.61 	 31.2205 	 -115.212
| 19> C 	 -113.548 	 31.8913 	 -114.946
| 20> H 	 -113.066 	 32.7169 	 -114.515
| 21> H 	 -113.165 	 30.974 	 -114.423
| 22> H 	 -113.195 	 32.0278 	 -115.985
| 23> S 	 -120.962 	 33.82 	 -111.862
| 24> C 	 -121.237 	 35.0351 	 -110.649
| 25> C 	 -120.346 	 36.1248 	 -110.833
| 26> C 	 -119.35 	 35.9164 	 -111.836
| 27> C 	 -119.713 	 34.778 	 -112.607
| 28> H 	 -120.313 	 36.9443 	 -110.077
| 29> C 	 -118.253 	 36.8796 	 -112.174
| 30> H 	 -117.311 	 36.3611 	 -112.317
| 31> H 	 -118.108 	 37.5531 	 -111.288
| 32> C 	 -118.621 	 37.8048 	 -113.372
| 33> H 	 -119.61 	 38.3737 	 -113.244
| 34> H 	 -118.642 	 37.1638 	 -114.277
| 35> C 	 -117.394 	 38.8136 	 -113.587
| 36> H 	 -117.123 	 39.4558 	 -112.786
| 37> H 	 -117.496 	 39.4951 	 -114.416
| 38> H 	 -116.569 	 38.1758 	 -113.731
| 39> H 	 -118.005 	 32.8272 	 -116.865
| 40> H 	 -121.937 	 34.9127 	 -109.859
| 41> *
| 42>
| 43>                          ****END OF INPUT****

CARTESIAN COORDINATES (ANGSTROEM)
---------------------------------
  S    -119.759000   33.669600  -115.143000
  C    -118.168000   33.170800  -115.871000
  C    -117.123000   33.489800  -114.954000
  C    -117.563000   33.994600  -113.697000
  C    -118.952000   34.087400  -113.658000
  H    -117.025000   34.276500  -112.838000
  C    -115.666000   33.233700  -115.249000
  H    -115.094000   34.046600  -115.014000
  H    -115.606000   33.252900  -116.321000
  C    -115.021000   31.973600  -114.740000
  H    -115.174000   31.969500  -113.755000
  H    -115.610000   31.220500  -115.212000
  C    -113.548000   31.891300  -114.946000
  H    -113.066000   32.716900  -114.515000
  H    -113.165000   30.974000  -114.423000
  H    -113.195000   32.027800  -115.985000
  S    -120.962000   33.820000  -111.862000
  C    -121.237000   35.035100  -110.649000
  C    -120.346000   36.124800  -110.833000
  C    -119.350000   35.916400  -111.836000
  C    -119.713000   34.778000  -112.607000
  H    -120.313000   36.944300  -110.077000
  C    -118.253000   36.879600  -112.174000
  H    -117.311000   36.361100  -112.317000
  H    -118.108000   37.553100  -111.288000
  C    -118.621000   37.804800  -113.372000
  H    -119.610000   38.373700  -113.244000
  H    -118.642000   37.163800  -114.277000
  C    -117.394000   38.813600  -113.587000
  H    -117.123000   39.455800  -112.786000
  H    -117.496000   39.495100  -114.416000
  H    -116.569000   38.175800  -113.731000
  H    -118.005000   32.827200  -116.865000
  H    -121.937000   34.912700  -109.859000

 Total Charge           Charge          ....    0
 Multiplicity           Mult            ....    1
 Number of Electrons    NEL             ....  134
 Basis Dimension        Dim             ....  322

ORBITAL ENERGIES
----------------

  NO   OCC          E(Eh)            E(eV)
   0   2.0000     -88.970387     -2421.0073
   1   2.0000     -88.968528     -2420.9567
   2   2.0000     -10.329757      -281.0870
   3   2.0000     -10.325806      -280.9795
   4   2.0000     -10.320422      -280.8330
   5   2.0000     -10.319308      -280.8027
   6   2.0000     -10.308221      -280.5010
   7   2.0000     -10.307599      -280.4840
   8   2.0000     -10.302321      -280.3404
   9   2.0000     -10.299647      -280.2676
  10   2.0000     -10.298208      -280.2285
  11   2.0000     -10.291943      -280.0580
  12   2.0000     -10.277183      -279.6564
  13   2.0000     -10.275877      -279.6208
  14   2.0000     -10.271541      -279.5028
  15   2.0000     -10.268163      -279.4109
  16   2.0000      -8.083843      -219.9726
  17   2.0000      -8.083392      -219.9603
  18   2.0000      -6.042350      -164.4207
  19   2.0000      -6.041674      -164.4023
  20   2.0000      -6.038540      -164.3170
  21   2.0000      -6.037752      -164.2956
  22   2.0000      -6.034676      -164.2119
  23   2.0000      -6.034524      -164.2077
  24   2.0000      -1.003308       -27.3014
  25   2.0000      -0.977055       -26.5870
  26   2.0000      -0.922863       -25.1124
  27   2.0000      -0.906094       -24.6561
  28   2.0000      -0.866623       -23.5820
  29   2.0000      -0.850295       -23.1377
  30   2.0000      -0.846061       -23.0225
  31   2.0000      -0.811914       -22.0933
  32   2.0000      -0.784151       -21.3378
  33   2.0000      -0.770181       -20.9577
  34   2.0000      -0.711889       -19.3715
  35   2.0000      -0.703851       -19.1528
  36   2.0000      -0.692720       -18.8499
  37   2.0000      -0.661693       -18.0056
  38   2.0000      -0.645451       -17.5636
  39   2.0000      -0.620482       -16.8842
  40   2.0000      -0.596537       -16.2326
  41   2.0000      -0.579096       -15.7580
  42   2.0000      -0.561433       -15.2774
  43   2.0000      -0.557202       -15.1622
  44   2.0000      -0.531406       -14.4603
  45   2.0000      -0.524562       -14.2741
  46   2.0000      -0.520537       -14.1645
  47   2.0000      -0.512394       -13.9429
  48   2.0000      -0.507121       -13.7995
  49   2.0000      -0.496453       -13.5092
  50   2.0000      -0.489259       -13.3134
  51   2.0000      -0.479492       -13.0476
  52   2.0000      -0.469516       -12.7762
  53   2.0000      -0.460731       -12.5371
  54   2.0000      -0.454896       -12.3784
  55   2.0000      -0.453098       -12.3294
  56   2.0000      -0.445095       -12.1117
  57   2.0000      -0.440502       -11.9867
  58   2.0000      -0.432759       -11.7760
  59   2.0000      -0.426155       -11.5963
  60   2.0000      -0.423859       -11.5338
  61   2.0000      -0.419666       -11.4197
  62   2.0000      -0.417980       -11.3738
  63   2.0000      -0.340991        -9.2788
  64   2.0000      -0.334690        -9.1074
  65   2.0000      -0.330178        -8.9846
  66   2.0000      -0.288017        -7.8373
  67   0.0000       0.025395         0.6910
  68   0.0000       0.063065         1.7161
  69   0.0000       0.104336         2.8391
  70   0.0000       0.110823         3.0156
  71   0.0000       0.133916         3.6441

MULLIKEN ATOMIC CHARGES
-----------------------
   0 S :    0.108932
   1 C :   -0.110159
   2 C :   -0.102751
   3 C :    0.028319
   4 C :   -0.130133
   5 H :    0.005290
   6 C :    0.080942
   7 H :   -0.015634
   8 H :   -0.004131
   9 C :    0.030543
  10 H :   -0.010490
  11 H :    0.016559
  12 C :   -0.031910
  13 H :    0.005453
  14 H :    0.048628
  15 H :    0.025757
  16 S :    0.118923
  17 C :   -0.092536
  18 C :   -0.040665
  19 C :   -0.038296
  20 C :   -0.158993
  21 H :    0.032139
  22 C :    0.048051
  23 H :    0.020139
  24 H :    0.024108
  25 C :   -0.098703
  26 H :    0.055277
  27 H :    0.052064
  28 C :   -0.023284
  29 H :    0.018955
  30 H :    0.031571
  31 H :    0.012936
  32 H :    0.040814
  33 H :    0.052287
Sum of atomic charges:    0.0000000

LOEWDIN ATOMIC CHARGES
----------------------
   0 S :    0.392085
   1 C :   -0.186896
   2 C :   -0.045123
   3 C :   -0.065670
   4 C :   -0.191454
   5 H :    0.025667
   6 C :   -0.029448
   7 H :    0.013578
   8 H :    0.025360
   9 C :   -0.027248
  10 H :    0.008814
  11 H :    0.024156
  12 C :   -0.062409
  13 H :    0.017523
  14 H :    0.037866
  15 H :    0.027566
  16 S :    0.429364
  17 C :   -0.190297
  18 C :   -0.072448
  19 C :   -0.053568
  20 C :   -0.212786
  21 H :    0.035540
  22 C :   -0.036493
  23 H :    0.026983
  24 H :    0.034846
  25 C :   -0.031299
  26 H :    0.034550
  27 H :    0.031048
  28 C :   -0.065586
  29 H :    0.018084
  30 H :    0.024230
  31 H :    0.018459
  32 H :    0.022513
  33 H :    0.022494

  Mayer bond orders larger than 0.100000
B(  0-S ,  1-C ) :   1.1167 B(  0-S ,  4-C ) :   1.1685 B(  1-C ,  2-C ) :   1.5966
B(  1-C ,  4-C ) :   0.1033 B(  1-C , 32-H ) :   0.9744 B(  2-C ,  3-C ) :   1.2299
B(  2-C ,  6-C ) :   1.0388 B(  3-C ,  4-C ) :   1.5647 B(  3-C ,  5-H ) :   1.0027
B(  4-C , 20-C ) :   0.9997 B(  6-C ,  7-H ) :   0.9275 B(  6-C ,  8-H ) :   0.9289
B(  6-C ,  9-C ) :   1.0660 B(  9-C , 10-H ) :   0.9464 B(  9-C , 11-H ) :   0.9493
B(  9-C , 12-C ) :   1.0909 B( 12-C , 13-H ) :   0.9661 B( 12-C , 14-H ) :   0.9715
B( 12-C , 15-H ) :   0.9735 B( 16-S , 17-C ) :   1.1780 B( 16-S , 20-C ) :   1.1737
B( 17-C , 18-C ) :   1.5596 B( 17-C , 20-C ) :   0.1114 B( 17-C , 33-H ) :   0.9753
B( 18-C , 19-C ) :   1.2867 B( 18-C , 21-H ) :   0.9779 B( 19-C , 20-C ) :   1.5283
B( 19-C , 22-C ) :   1.0588 B( 22-C , 23-H ) :   0.9309 B( 22-C , 24-H ) :   0.9326
B( 22-C , 25-C ) :   1.0555 B( 25-C , 26-H ) :   0.9593 B( 25-C , 27-H ) :   0.9572
B( 25-C , 28-C ) :   1.0612 B( 28-C , 29-H ) :   0.9787 B( 28-C , 30-H ) :   0.9767
B( 28-C , 31-H ) :   0.9749

Dispersion correction           -0.014233149
FINAL SINGLE POINT ENERGY     -1339.855941315190

DIPOLE MOMENT
-------------
                                X             Y             Z
Electronic contribution:    -27.07184      -8.93470       4.27844
Nuclear contribution   :     27.70140       9.26785      -4.07135
                        -----------------------------------------
Total Dipole Moment    :      0.62956       0.33315       0.20710
                        -----------------------------------------
Magnitude (a.u.)       :      0.74178
Magnitude (Debye)      :      1.88544

Rotational constants in cm-1:     0.017695     0.008382     0.006978
Rotational constants in MHz :   530.474640   251.300968   209.200815

                             ****ORCA TERMINATED NORMALLY****
TOTAL RUN TIME: 0 days 0 hours 0 minutes 20 seconds 373 msec
