                         Program Version 4.2.1 -  RELEASE  -
|  1> ! wB97X-D3 SP def2-SVP
|  2> %pal
|  3> nprocs 24
|  4> end
|  5>
|  6> * xyz 0 1
|  7> S 	 27.1213 	 -21.9926 	 -121.258
|  8> C 	 28.1487 	 -21.6429 	 -122.582
|  9> C 	 27.4561 	 -21.5659 	 -123.795
| 10> C 	 26.0564 	 -21.8431 	 -123.653
| 11> C 	 25.8209 	 -22.2517 	 -122.329
| 12> H 	 25.3941 	 -21.9966 	 -124.561
| 13> C 	 28.1052 	 -21.3853 	 -125.185
| 14> H 	 29.1915 	 -21.3282 	 -124.918
| 15> H 	 27.7692 	 -20.5375 	 -125.758
| 16> C 	 27.8435 	 -22.5998 	 -126.068
| 17> H 	 26.8121 	 -22.6323 	 -126.38
| 18> H 	 28.4024 	 -22.3459 	 -126.916
| 19> C 	 28.2777 	 -23.9552 	 -125.426
| 20> H 	 27.7383 	 -24.243 	 -124.51
| 21> H 	 28.0872 	 -24.687 	 -126.239
| 22> H 	 29.3269 	 -23.942 	 -125.252
| 23> S 	 24.5045 	 -24.4543 	 -121.206
| 24> C 	 22.9143 	 -24.263 	 -120.602
| 25> C 	 22.4324 	 -22.999 	 -120.761
| 26> C 	 23.3656 	 -22.1307 	 -121.359
| 27> C 	 24.5777 	 -22.7398 	 -121.692
| 28> H 	 21.5559 	 -22.7756 	 -120.247
| 29> C 	 23.0541 	 -20.6425 	 -121.554
| 30> H 	 21.9875 	 -20.4848 	 -121.794
| 31> H 	 23.5688 	 -20.4008 	 -122.519
| 32> C 	 23.414 	 -19.6369 	 -120.418
| 33> H 	 22.7122 	 -19.669 	 -119.583
| 34> H 	 23.1409 	 -18.6631 	 -120.741
| 35> C 	 24.9217 	 -19.5899 	 -119.984
| 36> H 	 25.4339 	 -20.07 	 -120.834
| 37> H 	 25.1716 	 -20.0184 	 -119.007
| 38> H 	 25.2294 	 -18.6053 	 -119.978
| 39> H 	 29.229 	 -21.7745 	 -122.493
| 40> H 	 22.3471 	 -24.9254 	 -120.01
| 41> *
| 42>
| 43>                          ****END OF INPUT****

CARTESIAN COORDINATES (ANGSTROEM)
---------------------------------
  S     27.121300  -21.992600  -121.258000
  C     28.148700  -21.642900  -122.582000
  C     27.456100  -21.565900  -123.795000
  C     26.056400  -21.843100  -123.653000
  C     25.820900  -22.251700  -122.329000
  H     25.394100  -21.996600  -124.561000
  C     28.105200  -21.385300  -125.185000
  H     29.191500  -21.328200  -124.918000
  H     27.769200  -20.537500  -125.758000
  C     27.843500  -22.599800  -126.068000
  H     26.812100  -22.632300  -126.380000
  H     28.402400  -22.345900  -126.916000
  C     28.277700  -23.955200  -125.426000
  H     27.738300  -24.243000  -124.510000
  H     28.087200  -24.687000  -126.239000
  H     29.326900  -23.942000  -125.252000
  S     24.504500  -24.454300  -121.206000
  C     22.914300  -24.263000  -120.602000
  C     22.432400  -22.999000  -120.761000
  C     23.365600  -22.130700  -121.359000
  C     24.577700  -22.739800  -121.692000
  H     21.555900  -22.775600  -120.247000
  C     23.054100  -20.642500  -121.554000
  H     21.987500  -20.484800  -121.794000
  H     23.568800  -20.400800  -122.519000
  C     23.414000  -19.636900  -120.418000
  H     22.712200  -19.669000  -119.583000
  H     23.140900  -18.663100  -120.741000
  C     24.921700  -19.589900  -119.984000
  H     25.433900  -20.070000  -120.834000
  H     25.171600  -20.018400  -119.007000
  H     25.229400  -18.605300  -119.978000
  H     29.229000  -21.774500  -122.493000
  H     22.347100  -24.925400  -120.010000

 Total Charge           Charge          ....    0
 Multiplicity           Mult            ....    1
 Number of Electrons    NEL             ....  134
 Basis Dimension        Dim             ....  322

ORBITAL ENERGIES
----------------

  NO   OCC          E(Eh)            E(eV)
   0   2.0000     -88.967896     -2420.9395
   1   2.0000     -88.964032     -2420.8344
   2   2.0000     -10.331093      -281.1233
   3   2.0000     -10.325418      -280.9689
   4   2.0000     -10.309745      -280.5424
   5   2.0000     -10.307177      -280.4725
   6   2.0000     -10.303485      -280.3721
   7   2.0000     -10.302052      -280.3331
   8   2.0000     -10.301708      -280.3237
   9   2.0000     -10.292990      -280.0865
  10   2.0000     -10.292775      -280.0807
  11   2.0000     -10.281294      -279.7682
  12   2.0000     -10.280998      -279.7602
  13   2.0000     -10.280168      -279.7376
  14   2.0000     -10.276665      -279.6423
  15   2.0000     -10.264193      -279.3029
  16   2.0000      -8.083615      -219.9663
  17   2.0000      -8.078852      -219.8367
  18   2.0000      -6.041889      -164.4082
  19   2.0000      -6.037878      -164.2990
  20   2.0000      -6.037277      -164.2827
  21   2.0000      -6.034618      -164.2103
  22   2.0000      -6.033303      -164.1745
  23   2.0000      -6.029754      -164.0779
  24   2.0000      -1.009600       -27.4726
  25   2.0000      -0.987669       -26.8758
  26   2.0000      -0.913766       -24.8648
  27   2.0000      -0.896468       -24.3941
  28   2.0000      -0.864662       -23.5287
  29   2.0000      -0.847320       -23.0567
  30   2.0000      -0.843236       -22.9456
  31   2.0000      -0.811276       -22.0759
  32   2.0000      -0.784978       -21.3603
  33   2.0000      -0.770360       -20.9626
  34   2.0000      -0.710708       -19.3393
  35   2.0000      -0.698170       -18.9982
  36   2.0000      -0.687190       -18.6994
  37   2.0000      -0.655410       -17.8346
  38   2.0000      -0.635781       -17.3005
  39   2.0000      -0.623650       -16.9704
  40   2.0000      -0.585560       -15.9339
  41   2.0000      -0.570453       -15.5228
  42   2.0000      -0.552924       -15.0458
  43   2.0000      -0.548377       -14.9221
  44   2.0000      -0.540905       -14.7188
  45   2.0000      -0.533574       -14.5193
  46   2.0000      -0.517483       -14.0814
  47   2.0000      -0.505930       -13.7671
  48   2.0000      -0.498193       -13.5565
  49   2.0000      -0.497237       -13.5305
  50   2.0000      -0.491352       -13.3704
  51   2.0000      -0.475239       -12.9319
  52   2.0000      -0.464420       -12.6375
  53   2.0000      -0.461786       -12.5658
  54   2.0000      -0.457427       -12.4472
  55   2.0000      -0.455454       -12.3935
  56   2.0000      -0.438977       -11.9452
  57   2.0000      -0.435138       -11.8407
  58   2.0000      -0.429427       -11.6853
  59   2.0000      -0.425287       -11.5726
  60   2.0000      -0.418555       -11.3895
  61   2.0000      -0.413518       -11.2524
  62   2.0000      -0.402549       -10.9539
  63   2.0000      -0.337685        -9.1889
  64   2.0000      -0.328794        -8.9470
  65   2.0000      -0.322219        -8.7680
  66   2.0000      -0.304335        -8.2814
  67   0.0000       0.034972         0.9516
  68   0.0000       0.064470         1.7543
  69   0.0000       0.114388         3.1126
  70   0.0000       0.123407         3.3581
  71   0.0000       0.128653         3.5008

MULLIKEN ATOMIC CHARGES
-----------------------
   0 S :    0.137364
   1 C :   -0.127014
   2 C :   -0.131088
   3 C :    0.051213
   4 C :   -0.215411
   5 H :    0.048021
   6 C :    0.073409
   7 H :    0.022056
   8 H :    0.035360
   9 C :   -0.080172
  10 H :    0.025149
  11 H :    0.017213
  12 C :   -0.050100
  13 H :    0.061043
  14 H :    0.036676
  15 H :    0.022575
  16 S :    0.114612
  17 C :   -0.062806
  18 C :   -0.029153
  19 C :    0.011260
  20 C :   -0.187443
  21 H :   -0.004062
  22 C :    0.040188
  23 H :    0.022016
  24 H :    0.029336
  25 C :   -0.046789
  26 H :    0.013221
  27 H :    0.008208
  28 C :   -0.010770
  29 H :    0.031465
  30 H :    0.042544
  31 H :    0.008980
  32 H :    0.057350
  33 H :    0.035546
Sum of atomic charges:    0.0000000

LOEWDIN ATOMIC CHARGES
----------------------
   0 S :    0.469731
   1 C :   -0.226250
   2 C :   -0.060642
   3 C :   -0.068033
   4 C :   -0.209719
   5 H :    0.047284
   6 C :   -0.029511
   7 H :    0.031926
   8 H :    0.030250
   9 C :   -0.037965
  10 H :    0.018404
  11 H :    0.019045
  12 C :   -0.062267
  13 H :    0.032826
  14 H :    0.031391
  15 H :    0.018874
  16 S :    0.409747
  17 C :   -0.184970
  18 C :   -0.071496
  19 C :   -0.051953
  20 C :   -0.208722
  21 H :    0.023282
  22 C :   -0.037563
  23 H :    0.032605
  24 H :    0.033660
  25 C :   -0.040854
  26 H :    0.020651
  27 H :    0.020390
  28 C :   -0.065695
  29 H :    0.021326
  30 H :    0.027798
  31 H :    0.015526
  32 H :    0.027624
  33 H :    0.023304

  Mayer bond orders larger than 0.100000
B(  0-S ,  1-C ) :   1.1464 B(  0-S ,  4-C ) :   1.2189 B(  1-C ,  2-C ) :   1.6010
B(  1-C , 32-H ) :   0.9605 B(  2-C ,  3-C ) :   1.2546 B(  2-C ,  6-C ) :   1.0193
B(  3-C ,  4-C ) :   1.5492 B(  3-C ,  5-H ) :   0.9828 B(  4-C , 20-C ) :   0.9861
B(  6-C ,  7-H ) :   0.9438 B(  6-C ,  8-H ) :   0.9398 B(  6-C ,  9-C ) :   1.0771
B(  9-C , 10-H ) :   0.9535 B(  9-C , 11-H ) :   0.9542 B(  9-C , 12-C ) :   1.0709
B( 12-C , 13-H ) :   0.9723 B( 12-C , 14-H ) :   0.9747 B( 12-C , 15-H ) :   0.9774
B( 16-S , 17-C ) :   1.1674 B( 16-S , 20-C ) :   1.1426 B( 17-C , 18-C ) :   1.6187
B( 17-C , 33-H ) :   0.9636 B( 18-C , 19-C ) :   1.2489 B( 18-C , 21-H ) :   0.9983
B( 19-C , 20-C ) :   1.5895 B( 19-C , 22-C ) :   1.0355 B( 22-C , 23-H ) :   0.9356
B( 22-C , 24-H ) :   0.9332 B( 22-C , 25-C ) :   1.0867 B( 25-C , 26-H ) :   0.9541
B( 25-C , 27-H ) :   0.9528 B( 25-C , 28-C ) :   1.0573 B( 28-C , 29-H ) :   0.9779
B( 28-C , 30-H ) :   0.9772 B( 28-C , 31-H ) :   0.9704

Dispersion correction           -0.015932664
FINAL SINGLE POINT ENERGY     -1339.863086181828

DIPOLE MOMENT
-------------
                                X             Y             Z
Electronic contribution:     -2.76580     -10.52297      10.79733
Nuclear contribution   :      2.69435      10.74054     -11.07483
                        -----------------------------------------
Total Dipole Moment    :     -0.07145       0.21757      -0.27750
                        -----------------------------------------
Magnitude (a.u.)       :      0.35979
Magnitude (Debye)      :      0.91451

Rotational constants in cm-1:     0.021074     0.009285     0.007868
Rotational constants in MHz :   631.791771   278.364454   235.879884

                             ****ORCA TERMINATED NORMALLY****
TOTAL RUN TIME: 0 days 0 hours 0 minutes 22 seconds 669 msec
