                         Program Version 4.2.1 -  RELEASE  -
|  1> ! wB97X-D3 SP def2-SVP
|  2> %pal
|  3> nprocs 24
|  4> end
|  5>
|  6> * xyz 0 1
|  7> S 	 -44.766 	 14.5396 	 30.1634
|  8> C 	 -44.6608 	 16.1173 	 29.3547
|  9> C 	 -45.8866 	 16.5195 	 28.8378
| 10> C 	 -46.9577 	 15.5609 	 29.1044
| 11> C 	 -46.5031 	 14.5027 	 29.8965
| 12> H 	 -48.0533 	 15.5832 	 28.7581
| 13> C 	 -46.0074 	 17.7459 	 27.9571
| 14> H 	 -46.9692 	 18.2219 	 27.9195
| 15> H 	 -45.8421 	 17.3562 	 26.9572
| 16> C 	 -45.0912 	 18.9722 	 28.2071
| 17> H 	 -44.087 	 18.6737 	 27.989
| 18> H 	 -45.3564 	 19.7553 	 27.4896
| 19> C 	 -45.2517 	 19.5889 	 29.5354
| 20> H 	 -44.7353 	 20.5024 	 29.6155
| 21> H 	 -46.2469 	 19.7862 	 29.6819
| 22> H 	 -44.7591 	 18.9298 	 30.2489
| 23> S 	 -47.3671 	 11.8572 	 30.1294
| 24> C 	 -48.531 	 11.5245 	 31.4352
| 25> C 	 -49.0055 	 12.6901 	 31.9875
| 26> C 	 -48.2085 	 13.8424 	 31.6752
| 27> C 	 -47.3141 	 13.5753 	 30.5974
| 28> H 	 -49.7953 	 12.6878 	 32.7306
| 29> C 	 -48.4948 	 15.1227 	 32.3256
| 30> H 	 -47.8313 	 15.9025 	 32.0422
| 31> H 	 -48.4297 	 15.0459 	 33.4289
| 32> C 	 -49.9055 	 15.7527 	 32.0724
| 33> H 	 -49.9336 	 16.583 	 32.7087
| 34> H 	 -50.6446 	 15.1011 	 32.5686
| 35> C 	 -50.1753 	 16.0842 	 30.6332
| 36> H 	 -49.2359 	 16.5305 	 30.252
| 37> H 	 -51.0469 	 16.6825 	 30.4063
| 38> H 	 -50.2724 	 15.1659 	 30.0219
| 39> H 	 -43.7654 	 16.6722 	 29.26
| 40> H 	 -48.8566 	 10.6087 	 31.7356
| 41> *
| 42>
| 43>                          ****END OF INPUT****

CARTESIAN COORDINATES (ANGSTROEM)
---------------------------------
  S    -44.766000   14.539600   30.163400
  C    -44.660800   16.117300   29.354700
  C    -45.886600   16.519500   28.837800
  C    -46.957700   15.560900   29.104400
  C    -46.503100   14.502700   29.896500
  H    -48.053300   15.583200   28.758100
  C    -46.007400   17.745900   27.957100
  H    -46.969200   18.221900   27.919500
  H    -45.842100   17.356200   26.957200
  C    -45.091200   18.972200   28.207100
  H    -44.087000   18.673700   27.989000
  H    -45.356400   19.755300   27.489600
  C    -45.251700   19.588900   29.535400
  H    -44.735300   20.502400   29.615500
  H    -46.246900   19.786200   29.681900
  H    -44.759100   18.929800   30.248900
  S    -47.367100   11.857200   30.129400
  C    -48.531000   11.524500   31.435200
  C    -49.005500   12.690100   31.987500
  C    -48.208500   13.842400   31.675200
  C    -47.314100   13.575300   30.597400
  H    -49.795300   12.687800   32.730600
  C    -48.494800   15.122700   32.325600
  H    -47.831300   15.902500   32.042200
  H    -48.429700   15.045900   33.428900
  C    -49.905500   15.752700   32.072400
  H    -49.933600   16.583000   32.708700
  H    -50.644600   15.101100   32.568600
  C    -50.175300   16.084200   30.633200
  H    -49.235900   16.530500   30.252000
  H    -51.046900   16.682500   30.406300
  H    -50.272400   15.165900   30.021900
  H    -43.765400   16.672200   29.260000
  H    -48.856600   10.608700   31.735600

 Total Charge           Charge          ....    0
 Multiplicity           Mult            ....    1
 Number of Electrons    NEL             ....  134
 Basis Dimension        Dim             ....  322

ORBITAL ENERGIES
----------------

  NO   OCC          E(Eh)            E(eV)
   0   2.0000     -88.965321     -2420.8695
   1   2.0000     -88.965078     -2420.8628
   2   2.0000     -10.326798      -281.0065
   3   2.0000     -10.325790      -280.9790
   4   2.0000     -10.314294      -280.6662
   5   2.0000     -10.313492      -280.6444
   6   2.0000     -10.308692      -280.5138
   7   2.0000     -10.307242      -280.4743
   8   2.0000     -10.304165      -280.3906
   9   2.0000     -10.292617      -280.0764
  10   2.0000     -10.290027      -280.0059
  11   2.0000     -10.285977      -279.8957
  12   2.0000     -10.282603      -279.8039
  13   2.0000     -10.281638      -279.7776
  14   2.0000     -10.277097      -279.6540
  15   2.0000     -10.262311      -279.2517
  16   2.0000      -8.079628      -219.8579
  17   2.0000      -8.078841      -219.8364
  18   2.0000      -6.038132      -164.3059
  19   2.0000      -6.037422      -164.2866
  20   2.0000      -6.034262      -164.2006
  21   2.0000      -6.033582      -164.1821
  22   2.0000      -6.030335      -164.0937
  23   2.0000      -6.029493      -164.0709
  24   2.0000      -0.999778       -27.2053
  25   2.0000      -0.975556       -26.5462
  26   2.0000      -0.918705       -24.9992
  27   2.0000      -0.912042       -24.8179
  28   2.0000      -0.872403       -23.7393
  29   2.0000      -0.848440       -23.0872
  30   2.0000      -0.847179       -23.0529
  31   2.0000      -0.813662       -22.1409
  32   2.0000      -0.786992       -21.4151
  33   2.0000      -0.773080       -21.0366
  34   2.0000      -0.712319       -19.3832
  35   2.0000      -0.703482       -19.1427
  36   2.0000      -0.697589       -18.9823
  37   2.0000      -0.654786       -17.8176
  38   2.0000      -0.639675       -17.4064
  39   2.0000      -0.608123       -16.5479
  40   2.0000      -0.597884       -16.2693
  41   2.0000      -0.584911       -15.9162
  42   2.0000      -0.559487       -15.2244
  43   2.0000      -0.558117       -15.1871
  44   2.0000      -0.544290       -14.8109
  45   2.0000      -0.536243       -14.5919
  46   2.0000      -0.520630       -14.1671
  47   2.0000      -0.515953       -14.0398
  48   2.0000      -0.504317       -13.7232
  49   2.0000      -0.496472       -13.5097
  50   2.0000      -0.491732       -13.3807
  51   2.0000      -0.480419       -13.0729
  52   2.0000      -0.468695       -12.7538
  53   2.0000      -0.466708       -12.6998
  54   2.0000      -0.461128       -12.5479
  55   2.0000      -0.446810       -12.1583
  56   2.0000      -0.441075       -12.0023
  57   2.0000      -0.440841       -11.9959
  58   2.0000      -0.436259       -11.8712
  59   2.0000      -0.422402       -11.4941
  60   2.0000      -0.417213       -11.3529
  61   2.0000      -0.416100       -11.3226
  62   2.0000      -0.412067       -11.2129
  63   2.0000      -0.333393        -9.0721
  64   2.0000      -0.328091        -8.9278
  65   2.0000      -0.320555        -8.7227
  66   2.0000      -0.299409        -8.1473
  67   0.0000       0.031935         0.8690
  68   0.0000       0.056865         1.5474
  69   0.0000       0.110542         3.0080
  70   0.0000       0.115250         3.1361
  71   0.0000       0.125242         3.4080

MULLIKEN ATOMIC CHARGES
-----------------------
   0 S :    0.118038
   1 C :   -0.114496
   2 C :   -0.089922
   3 C :    0.018444
   4 C :   -0.176384
   5 H :    0.056240
   6 C :    0.057077
   7 H :    0.014952
   8 H :    0.044618
   9 C :   -0.102593
  10 H :    0.016349
  11 H :    0.024919
  12 C :    0.031839
  13 H :    0.016740
  14 H :    0.008701
  15 H :    0.026445
  16 S :    0.103227
  17 C :   -0.047541
  18 C :   -0.029272
  19 C :   -0.001909
  20 C :   -0.176776
  21 H :    0.020735
  22 C :    0.029212
  23 H :    0.025098
  24 H :    0.034184
  25 C :   -0.050687
  26 H :    0.011483
  27 H :    0.015186
  28 C :   -0.044094
  29 H :    0.024571
  30 H :    0.040804
  31 H :    0.040012
  32 H :    0.037094
  33 H :    0.017700
Sum of atomic charges:   -0.0000000

LOEWDIN ATOMIC CHARGES
----------------------
   0 S :    0.396677
   1 C :   -0.187129
   2 C :   -0.059705
   3 C :   -0.063186
   4 C :   -0.199302
   5 H :    0.051498
   6 C :   -0.033234
   7 H :    0.024725
   8 H :    0.038546
   9 C :   -0.039099
  10 H :    0.012894
  11 H :    0.027472
  12 C :   -0.051159
  13 H :    0.022610
  14 H :    0.015314
  15 H :    0.027966
  16 S :    0.379317
  17 C :   -0.154332
  18 C :   -0.062493
  19 C :   -0.046120
  20 C :   -0.204468
  21 H :    0.029854
  22 C :   -0.033056
  23 H :    0.026608
  24 H :    0.038519
  25 C :   -0.033706
  26 H :    0.016927
  27 H :    0.018167
  28 C :   -0.070467
  29 H :    0.026800
  30 H :    0.026440
  31 H :    0.029708
  32 H :    0.018456
  33 H :    0.008960

  Mayer bond orders larger than 0.100000
B(  0-S ,  1-C ) :   1.1253 B(  0-S ,  4-C ) :   1.1482 B(  1-C ,  2-C ) :   1.6245
B(  1-C , 32-H ) :   0.9724 B(  2-C ,  3-C ) :   1.2127 B(  2-C ,  6-C ) :   1.0104
B(  3-C ,  4-C ) :   1.5876 B(  3-C ,  5-H ) :   0.9737 B(  4-C , 20-C ) :   1.0517
B(  6-C ,  7-H ) :   0.9469 B(  6-C ,  8-H ) :   0.9347 B(  6-C ,  9-C ) :   1.0841
B(  9-C , 10-H ) :   0.9496 B(  9-C , 11-H ) :   0.9534 B(  9-C , 12-C ) :   1.0935
B( 12-C , 13-H ) :   0.9679 B( 12-C , 14-H ) :   0.9702 B( 12-C , 15-H ) :   0.9691
B( 16-S , 17-C ) :   1.1408 B( 16-S , 20-C ) :   1.1258 B( 17-C , 18-C ) :   1.6264
B( 17-C , 33-H ) :   0.9796 B( 18-C , 19-C ) :   1.2237 B( 18-C , 21-H ) :   0.9838
B( 19-C , 20-C ) :   1.5679 B( 19-C , 22-C ) :   1.0815 B( 22-C , 23-H ) :   0.9293
B( 22-C , 24-H ) :   0.9243 B( 22-C , 25-C ) :   1.0819 B( 25-C , 26-H ) :   0.9516
B( 25-C , 27-H ) :   0.9500 B( 25-C , 28-C ) :   1.0685 B( 28-C , 29-H ) :   0.9654
B( 28-C , 30-H ) :   0.9704 B( 28-C , 31-H ) :   0.9697

Dispersion correction           -0.015700802
FINAL SINGLE POINT ENERGY     -1339.863974214604

DIPOLE MOMENT
-------------
                                X             Y             Z
Electronic contribution:      9.05565     -27.00969       0.30843
Nuclear contribution   :     -9.43649      27.66277      -0.24071
                        -----------------------------------------
Total Dipole Moment    :     -0.38084       0.65308       0.06772
                        -----------------------------------------
Magnitude (a.u.)       :      0.75904
Magnitude (Debye)      :      1.92932

Rotational constants in cm-1:     0.021646     0.008871     0.007063
Rotational constants in MHz :   648.943912   265.951268   211.731559

                             ****ORCA TERMINATED NORMALLY****
TOTAL RUN TIME: 0 days 0 hours 0 minutes 23 seconds 714 msec
