                         Program Version 4.2.1 -  RELEASE  -
|  1> ! wB97X-D3 SP def2-SVP
|  2> %pal
|  3> nprocs 24
|  4> end
|  5>
|  6> * xyz 0 1
|  7> S 	 -108.036 	 19.9479 	 -114.068
|  8> C 	 -106.764 	 18.7773 	 -114.337
|  9> C 	 -106.418 	 18.8148 	 -115.682
| 10> C 	 -107.31 	 19.6287 	 -116.515
| 11> C 	 -108.281 	 20.2313 	 -115.731
| 12> H 	 -107.309 	 19.7791 	 -117.559
| 13> C 	 -105.179 	 18.1295 	 -116.299
| 14> H 	 -105.511 	 17.4405 	 -117.121
| 15> H 	 -104.915 	 17.4217 	 -115.524
| 16> C 	 -103.835 	 18.9186 	 -116.601
| 17> H 	 -103.196 	 18.3662 	 -117.255
| 18> H 	 -104.06 	 19.7632 	 -117.314
| 19> C 	 -103.273 	 19.5519 	 -115.392
| 20> H 	 -102.362 	 20.1565 	 -115.539
| 21> H 	 -103.974 	 20.2488 	 -114.95
| 22> H 	 -103.083 	 18.7398 	 -114.613
| 23> S 	 -110.116 	 22.1857 	 -115.046
| 24> C 	 -111.314 	 22.7499 	 -116.19
| 25> C 	 -111.104 	 22.0679 	 -117.415
| 26> C 	 -109.923 	 21.1939 	 -117.507
| 27> C 	 -109.347 	 21.1177 	 -116.204
| 28> H 	 -111.65 	 22.3784 	 -118.322
| 29> C 	 -109.608 	 20.4024 	 -118.717
| 30> H 	 -110.578 	 20.2916 	 -119.209
| 31> H 	 -109.315 	 19.36 	 -118.452
| 32> C 	 -108.652 	 21.0721 	 -119.696
| 33> H 	 -107.747 	 21.3189 	 -119.235
| 34> H 	 -109.143 	 21.9488 	 -120.085
| 35> C 	 -108.296 	 20.0867 	 -120.809
| 36> H 	 -107.6 	 20.4978 	 -121.453
| 37> H 	 -109.255 	 19.9184 	 -121.353
| 38> H 	 -107.882 	 19.129 	 -120.436
| 39> H 	 -106.196 	 18.2627 	 -113.57
| 40> H 	 -111.97 	 23.6273 	 -116.08
| 41> *
| 42>
| 43>                          ****END OF INPUT****

CARTESIAN COORDINATES (ANGSTROEM)
---------------------------------
  S    -108.036000   19.947900  -114.068000
  C    -106.764000   18.777300  -114.337000
  C    -106.418000   18.814800  -115.682000
  C    -107.310000   19.628700  -116.515000
  C    -108.281000   20.231300  -115.731000
  H    -107.309000   19.779100  -117.559000
  C    -105.179000   18.129500  -116.299000
  H    -105.511000   17.440500  -117.121000
  H    -104.915000   17.421700  -115.524000
  C    -103.835000   18.918600  -116.601000
  H    -103.196000   18.366200  -117.255000
  H    -104.060000   19.763200  -117.314000
  C    -103.273000   19.551900  -115.392000
  H    -102.362000   20.156500  -115.539000
  H    -103.974000   20.248800  -114.950000
  H    -103.083000   18.739800  -114.613000
  S    -110.116000   22.185700  -115.046000
  C    -111.314000   22.749900  -116.190000
  C    -111.104000   22.067900  -117.415000
  C    -109.923000   21.193900  -117.507000
  C    -109.347000   21.117700  -116.204000
  H    -111.650000   22.378400  -118.322000
  C    -109.608000   20.402400  -118.717000
  H    -110.578000   20.291600  -119.209000
  H    -109.315000   19.360000  -118.452000
  C    -108.652000   21.072100  -119.696000
  H    -107.747000   21.318900  -119.235000
  H    -109.143000   21.948800  -120.085000
  C    -108.296000   20.086700  -120.809000
  H    -107.600000   20.497800  -121.453000
  H    -109.255000   19.918400  -121.353000
  H    -107.882000   19.129000  -120.436000
  H    -106.196000   18.262700  -113.570000
  H    -111.970000   23.627300  -116.080000

 Total Charge           Charge          ....    0
 Multiplicity           Mult            ....    1
 Number of Electrons    NEL             ....  134
 Basis Dimension        Dim             ....  322

ORBITAL ENERGIES
----------------

  NO   OCC          E(Eh)            E(eV)
   0   2.0000     -88.969506     -2420.9833
   1   2.0000     -88.965672     -2420.8790
   2   2.0000     -10.334146      -281.2064
   3   2.0000     -10.329569      -281.0819
   4   2.0000     -10.325258      -280.9646
   5   2.0000     -10.316695      -280.7315
   6   2.0000     -10.310214      -280.5552
   7   2.0000     -10.309386      -280.5327
   8   2.0000     -10.303646      -280.3765
   9   2.0000     -10.297399      -280.2065
  10   2.0000     -10.294925      -280.1392
  11   2.0000     -10.292980      -280.0862
  12   2.0000     -10.290797      -280.0268
  13   2.0000     -10.283754      -279.8352
  14   2.0000     -10.279379      -279.7161
  15   2.0000     -10.278741      -279.6988
  16   2.0000      -8.083891      -219.9738
  17   2.0000      -8.081344      -219.9045
  18   2.0000      -6.042487      -164.4244
  19   2.0000      -6.039887      -164.3537
  20   2.0000      -6.038326      -164.3112
  21   2.0000      -6.035767      -164.2416
  22   2.0000      -6.034709      -164.2128
  23   2.0000      -6.031944      -164.1376
  24   2.0000      -1.008055       -27.4306
  25   2.0000      -0.980078       -26.6693
  26   2.0000      -0.920946       -25.0602
  27   2.0000      -0.907096       -24.6833
  28   2.0000      -0.868576       -23.6351
  29   2.0000      -0.857673       -23.3385
  30   2.0000      -0.844486       -22.9796
  31   2.0000      -0.812188       -22.1008
  32   2.0000      -0.781418       -21.2635
  33   2.0000      -0.771121       -20.9833
  34   2.0000      -0.710114       -19.3232
  35   2.0000      -0.702415       -19.1137
  36   2.0000      -0.692817       -18.8525
  37   2.0000      -0.662834       -18.0366
  38   2.0000      -0.639682       -17.4066
  39   2.0000      -0.618238       -16.8231
  40   2.0000      -0.596073       -16.2200
  41   2.0000      -0.578225       -15.7343
  42   2.0000      -0.558860       -15.2073
  43   2.0000      -0.551928       -15.0187
  44   2.0000      -0.539154       -14.6711
  45   2.0000      -0.530782       -14.4433
  46   2.0000      -0.519295       -14.1307
  47   2.0000      -0.514473       -13.9995
  48   2.0000      -0.504893       -13.7388
  49   2.0000      -0.501313       -13.6414
  50   2.0000      -0.493089       -13.4176
  51   2.0000      -0.490868       -13.3572
  52   2.0000      -0.468589       -12.7509
  53   2.0000      -0.465836       -12.6760
  54   2.0000      -0.451672       -12.2906
  55   2.0000      -0.446758       -12.1569
  56   2.0000      -0.444747       -12.1022
  57   2.0000      -0.441949       -12.0260
  58   2.0000      -0.435414       -11.8482
  59   2.0000      -0.432324       -11.7641
  60   2.0000      -0.424437       -11.5495
  61   2.0000      -0.413271       -11.2457
  62   2.0000      -0.402385       -10.9495
  63   2.0000      -0.361213        -9.8291
  64   2.0000      -0.332374        -9.0443
  65   2.0000      -0.325119        -8.8469
  66   2.0000      -0.283793        -7.7224
  67   0.0000       0.019153         0.5212
  68   0.0000       0.080508         2.1907
  69   0.0000       0.100906         2.7458
  70   0.0000       0.113367         3.0849
  71   0.0000       0.128436         3.4949

MULLIKEN ATOMIC CHARGES
-----------------------
   0 S :    0.098483
   1 C :   -0.105584
   2 C :   -0.110546
   3 C :    0.024986
   4 C :   -0.102473
   5 H :   -0.025322
   6 C :    0.037742
   7 H :    0.040195
   8 H :    0.004078
   9 C :   -0.030673
  10 H :    0.023805
  11 H :    0.019874
  12 C :   -0.064796
  13 H :    0.040625
  14 H :    0.042564
  15 H :    0.028076
  16 S :    0.104446
  17 C :   -0.101536
  18 C :   -0.045789
  19 C :   -0.043696
  20 C :   -0.120729
  21 H :    0.027747
  22 C :   -0.009630
  23 H :    0.022771
  24 H :    0.040318
  25 C :   -0.035112
  26 H :    0.021291
  27 H :    0.026090
  28 C :   -0.024493
  29 H :    0.022344
  30 H :    0.029905
  31 H :    0.034458
  32 H :    0.053144
  33 H :    0.077436
Sum of atomic charges:    0.0000000

LOEWDIN ATOMIC CHARGES
----------------------
   0 S :    0.418080
   1 C :   -0.204106
   2 C :   -0.056806
   3 C :   -0.068139
   4 C :   -0.193898
   5 H :    0.022233
   6 C :   -0.039595
   7 H :    0.036164
   8 H :    0.023887
   9 C :   -0.045383
  10 H :    0.022105
  11 H :    0.027346
  12 C :   -0.071526
  13 H :    0.030363
  14 H :    0.029027
  15 H :    0.027187
  16 S :    0.405750
  17 C :   -0.201416
  18 C :   -0.072370
  19 C :   -0.054565
  20 C :   -0.190772
  21 H :    0.029710
  22 C :   -0.042166
  23 H :    0.035068
  24 H :    0.035115
  25 C :   -0.029076
  26 H :    0.013226
  27 H :    0.026546
  28 C :   -0.056539
  29 H :    0.014403
  30 H :    0.029723
  31 H :    0.027335
  32 H :    0.032350
  33 H :    0.040738

  Mayer bond orders larger than 0.100000
B(  0-S ,  1-C ) :   1.1201 B(  0-S ,  4-C ) :   1.1618 B(  1-C ,  2-C ) :   1.6154
B(  1-C , 32-H ) :   0.9696 B(  2-C ,  3-C ) :   1.2146 B(  2-C ,  6-C ) :   1.0255
B(  3-C ,  4-C ) :   1.5463 B(  3-C ,  5-H ) :   1.0043 B(  4-C , 20-C ) :   1.0812
B(  6-C ,  7-H ) :   0.9436 B(  6-C ,  8-H ) :   0.9404 B(  6-C ,  9-C ) :   1.0514
B(  9-C , 10-H ) :   0.9565 B(  9-C , 11-H ) :   0.9516 B(  9-C , 12-C ) :   1.0737
B( 12-C , 13-H ) :   0.9705 B( 12-C , 14-H ) :   0.9720 B( 12-C , 15-H ) :   0.9749
B( 16-S , 17-C ) :   1.1440 B( 16-S , 20-C ) :   1.1510 B( 17-C , 18-C ) :   1.5968
B( 17-C , 33-H ) :   0.9661 B( 18-C , 19-C ) :   1.2722 B( 18-C , 21-H ) :   0.9717
B( 19-C , 20-C ) :   1.5382 B( 19-C , 22-C ) :   1.0491 B( 22-C , 23-H ) :   0.9265
B( 22-C , 24-H ) :   0.9375 B( 22-C , 25-C ) :   1.0596 B( 25-C , 26-H ) :   0.9564
B( 25-C , 27-H ) :   0.9482 B( 25-C , 28-C ) :   1.0886 B( 28-C , 29-H ) :   0.9738
B( 28-C , 30-H ) :   0.9727 B( 28-C , 31-H ) :   0.9738

Dispersion correction           -0.014336149
FINAL SINGLE POINT ENERGY     -1339.872947532938

DIPOLE MOMENT
-------------
                                X             Y             Z
Electronic contribution:    -18.12738       8.06203      21.21686
Nuclear contribution   :     18.41167      -8.04890     -21.90539
                        -----------------------------------------
Total Dipole Moment    :      0.28428       0.01313      -0.68853
                        -----------------------------------------
Magnitude (a.u.)       :      0.74503
Magnitude (Debye)      :      1.89371

Rotational constants in cm-1:     0.017688     0.009465     0.006689
Rotational constants in MHz :   530.287627   283.759176   200.523878

                             ****ORCA TERMINATED NORMALLY****
TOTAL RUN TIME: 0 days 0 hours 0 minutes 20 seconds 569 msec
