                         Program Version 4.2.1 -  RELEASE  -
|  1> ! wB97X-D3 SP def2-SVP
|  2> %pal
|  3> nprocs 24
|  4> end
|  5>
|  6> * xyz 0 1
|  7> S 	 -146.179 	 13.8701 	 -8.31604
|  8> C 	 -145.177 	 12.409 	 -8.48689
|  9> C 	 -145.267 	 11.6897 	 -7.35187
| 10> C 	 -146.112 	 12.2528 	 -6.36894
| 11> C 	 -146.815 	 13.3834 	 -6.76608
| 12> H 	 -146.414 	 11.7867 	 -5.39444
| 13> C 	 -144.532 	 10.3721 	 -7.15797
| 14> H 	 -144.208 	 10.308 	 -6.11404
| 15> H 	 -143.722 	 10.2274 	 -7.87141
| 16> C 	 -145.385 	 9.15101 	 -7.26962
| 17> H 	 -144.78 	 8.21229 	 -7.05986
| 18> H 	 -146.207 	 9.3396 	 -6.57287
| 19> C 	 -146.026 	 9.08458 	 -8.64839
| 20> H 	 -146.663 	 8.24422 	 -8.63532
| 21> H 	 -146.636 	 10.0017 	 -8.75071
| 22> H 	 -145.274 	 9.04879 	 -9.46985
| 23> S 	 -147.019 	 15.0885 	 -4.6102
| 24> C 	 -148.578 	 15.7569 	 -4.36181
| 25> C 	 -149.538 	 15.3274 	 -5.22972
| 26> C 	 -149.016 	 14.3719 	 -6.18082
| 27> C 	 -147.708 	 14.0705 	 -5.88234
| 28> H 	 -150.518 	 15.7139 	 -5.22902
| 29> C 	 -149.869 	 13.9307 	 -7.34969
| 30> H 	 -149.165 	 13.7813 	 -8.17898
| 31> H 	 -150.631 	 14.6625 	 -7.63326
| 32> C 	 -150.615 	 12.5932 	 -7.23846
| 33> H 	 -151.493 	 12.8543 	 -6.55179
| 34> H 	 -150.028 	 11.7616 	 -6.82346
| 35> C 	 -151.289 	 12.1813 	 -8.56059
| 36> H 	 -151.79 	 12.9623 	 -9.0565
| 37> H 	 -151.965 	 11.3655 	 -8.29935
| 38> H 	 -150.464 	 11.7537 	 -9.09213
| 39> H 	 -144.729 	 12.1124 	 -9.35687
| 40> H 	 -148.705 	 16.5353 	 -3.65903
| 41> *
| 42>
| 43>                          ****END OF INPUT****

CARTESIAN COORDINATES (ANGSTROEM)
---------------------------------
  S    -146.179000   13.870100   -8.316040
  C    -145.177000   12.409000   -8.486890
  C    -145.267000   11.689700   -7.351870
  C    -146.112000   12.252800   -6.368940
  C    -146.815000   13.383400   -6.766080
  H    -146.414000   11.786700   -5.394440
  C    -144.532000   10.372100   -7.157970
  H    -144.208000   10.308000   -6.114040
  H    -143.722000   10.227400   -7.871410
  C    -145.385000    9.151010   -7.269620
  H    -144.780000    8.212290   -7.059860
  H    -146.207000    9.339600   -6.572870
  C    -146.026000    9.084580   -8.648390
  H    -146.663000    8.244220   -8.635320
  H    -146.636000   10.001700   -8.750710
  H    -145.274000    9.048790   -9.469850
  S    -147.019000   15.088500   -4.610200
  C    -148.578000   15.756900   -4.361810
  C    -149.538000   15.327400   -5.229720
  C    -149.016000   14.371900   -6.180820
  C    -147.708000   14.070500   -5.882340
  H    -150.518000   15.713900   -5.229020
  C    -149.869000   13.930700   -7.349690
  H    -149.165000   13.781300   -8.178980
  H    -150.631000   14.662500   -7.633260
  C    -150.615000   12.593200   -7.238460
  H    -151.493000   12.854300   -6.551790
  H    -150.028000   11.761600   -6.823460
  C    -151.289000   12.181300   -8.560590
  H    -151.790000   12.962300   -9.056500
  H    -151.965000   11.365500   -8.299350
  H    -150.464000   11.753700   -9.092130
  H    -144.729000   12.112400   -9.356870
  H    -148.705000   16.535300   -3.659030

 Total Charge           Charge          ....    0
 Multiplicity           Mult            ....    1
 Number of Electrons    NEL             ....  134
 Basis Dimension        Dim             ....  322

ORBITAL ENERGIES
----------------

  NO   OCC          E(Eh)            E(eV)
   0   2.0000     -88.968349     -2420.9518
   1   2.0000     -88.964427     -2420.8451
   2   2.0000     -10.325230      -280.9638
   3   2.0000     -10.321301      -280.8569
   4   2.0000     -10.312912      -280.6286
   5   2.0000     -10.307395      -280.4785
   6   2.0000     -10.305453      -280.4256
   7   2.0000     -10.296772      -280.1894
   8   2.0000     -10.292887      -280.0837
   9   2.0000     -10.292293      -280.0675
  10   2.0000     -10.289898      -280.0024
  11   2.0000     -10.289396      -279.9887
  12   2.0000     -10.285367      -279.8791
  13   2.0000     -10.283618      -279.8315
  14   2.0000     -10.271991      -279.5151
  15   2.0000     -10.271259      -279.4952
  16   2.0000      -8.083607      -219.9661
  17   2.0000      -8.078480      -219.8266
  18   2.0000      -6.041985      -164.4108
  19   2.0000      -6.038211      -164.3081
  20   2.0000      -6.037082      -164.2774
  21   2.0000      -6.034298      -164.2016
  22   2.0000      -6.032935      -164.1645
  23   2.0000      -6.029299      -164.0656
  24   2.0000      -1.010702       -27.5026
  25   2.0000      -0.988479       -26.8979
  26   2.0000      -0.920553       -25.0495
  27   2.0000      -0.910832       -24.7850
  28   2.0000      -0.874967       -23.8091
  29   2.0000      -0.856432       -23.3047
  30   2.0000      -0.840938       -22.8831
  31   2.0000      -0.813902       -22.1474
  32   2.0000      -0.785576       -21.3766
  33   2.0000      -0.778224       -21.1766
  34   2.0000      -0.709725       -19.3126
  35   2.0000      -0.688128       -18.7249
  36   2.0000      -0.683417       -18.5967
  37   2.0000      -0.669145       -18.2084
  38   2.0000      -0.637801       -17.3554
  39   2.0000      -0.618741       -16.8368
  40   2.0000      -0.603229       -16.4147
  41   2.0000      -0.577396       -15.7117
  42   2.0000      -0.573383       -15.6025
  43   2.0000      -0.551447       -15.0056
  44   2.0000      -0.545306       -14.8385
  45   2.0000      -0.527320       -14.3491
  46   2.0000      -0.524733       -14.2787
  47   2.0000      -0.514784       -14.0080
  48   2.0000      -0.505407       -13.7528
  49   2.0000      -0.501320       -13.6416
  50   2.0000      -0.489997       -13.3335
  51   2.0000      -0.480439       -13.0734
  52   2.0000      -0.472055       -12.8453
  53   2.0000      -0.465683       -12.6719
  54   2.0000      -0.456920       -12.4334
  55   2.0000      -0.455773       -12.4022
  56   2.0000      -0.440667       -11.9912
  57   2.0000      -0.437629       -11.9085
  58   2.0000      -0.431643       -11.7456
  59   2.0000      -0.424757       -11.5582
  60   2.0000      -0.422804       -11.5051
  61   2.0000      -0.408541       -11.1170
  62   2.0000      -0.401841       -10.9346
  63   2.0000      -0.336389        -9.1536
  64   2.0000      -0.331043        -9.0081
  65   2.0000      -0.329047        -8.9538
  66   2.0000      -0.306372        -8.3368
  67   0.0000       0.037112         1.0099
  68   0.0000       0.056875         1.5477
  69   0.0000       0.105012         2.8575
  70   0.0000       0.123907         3.3717
  71   0.0000       0.128490         3.4964

MULLIKEN ATOMIC CHARGES
-----------------------
   0 S :    0.104829
   1 C :   -0.103119
   2 C :   -0.065721
   3 C :   -0.022467
   4 C :   -0.149216
   5 H :    0.031790
   6 C :    0.099201
   7 H :    0.027266
   8 H :    0.016718
   9 C :   -0.102484
  10 H :    0.046921
  11 H :    0.022262
  12 C :   -0.055589
  13 H :    0.026089
  14 H :    0.047258
  15 H :    0.027847
  16 S :    0.126829
  17 C :   -0.072150
  18 C :   -0.006839
  19 C :   -0.018809
  20 C :   -0.176142
  21 H :    0.000499
  22 C :    0.074029
  23 H :    0.015222
  24 H :    0.026239
  25 C :   -0.128343
  26 H :    0.024959
  27 H :    0.042366
  28 C :   -0.010827
  29 H :    0.028791
  30 H :    0.036132
  31 H :    0.031663
  32 H :    0.012925
  33 H :    0.041868
Sum of atomic charges:   -0.0000000

LOEWDIN ATOMIC CHARGES
----------------------
   0 S :    0.394736
   1 C :   -0.169846
   2 C :   -0.066281
   3 C :   -0.074037
   4 C :   -0.198784
   5 H :    0.037714
   6 C :   -0.030617
   7 H :    0.034263
   8 H :    0.025381
   9 C :   -0.045757
  10 H :    0.030792
  11 H :    0.022720
  12 C :   -0.066673
  13 H :    0.017978
  14 H :    0.030322
  15 H :    0.022798
  16 S :    0.419399
  17 C :   -0.177292
  18 C :   -0.064872
  19 C :   -0.036037
  20 C :   -0.207197
  21 H :    0.024590
  22 C :   -0.036199
  23 H :    0.023695
  24 H :    0.033271
  25 C :   -0.040330
  26 H :    0.022679
  27 H :    0.026047
  28 C :   -0.056893
  29 H :    0.018260
  30 H :    0.030557
  31 H :    0.025050
  32 H :    0.011577
  33 H :    0.018983

  Mayer bond orders larger than 0.100000
B(  0-S ,  1-C ) :   1.1258 B(  0-S ,  4-C ) :   1.1372 B(  1-C ,  2-C ) :   1.6059
B(  1-C , 32-H ) :   0.9850 B(  2-C ,  3-C ) :   1.2293 B(  2-C ,  6-C ) :   1.0261
B(  3-C ,  4-C ) :   1.5587 B(  3-C ,  5-H ) :   0.9894 B(  4-C , 20-C ) :   1.0721
B(  6-C ,  7-H ) :   0.9357 B(  6-C ,  8-H ) :   0.9434 B(  6-C ,  9-C ) :   1.0739
B(  9-C , 10-H ) :   0.9555 B(  9-C , 11-H ) :   0.9522 B(  9-C , 12-C ) :   1.0792
B( 12-C , 13-H ) :   0.9737 B( 12-C , 14-H ) :   0.9703 B( 12-C , 15-H ) :   0.9751
B( 16-S , 17-C ) :   1.1670 B( 16-S , 20-C ) :   1.1275 B( 17-C , 18-C ) :   1.6129
B( 17-C , 33-H ) :   0.9694 B( 18-C , 19-C ) :   1.2233 B( 18-C , 21-H ) :   1.0011
B( 19-C , 20-C ) :   1.6042 B( 19-C , 22-C ) :   1.0441 B( 22-C , 23-H ) :   0.9212
B( 22-C , 24-H ) :   0.9365 B( 22-C , 25-C ) :   1.0678 B( 25-C , 26-H ) :   0.9570
B( 25-C , 27-H ) :   0.9592 B( 25-C , 28-C ) :   1.0762 B( 28-C , 29-H ) :   0.9735
B( 28-C , 30-H ) :   0.9738 B( 28-C , 31-H ) :   0.9769

Dispersion correction           -0.014671467
FINAL SINGLE POINT ENERGY     -1339.871370863627

DIPOLE MOMENT
-------------
                                X             Y             Z
Electronic contribution:     10.15023      22.13210       9.98565
Nuclear contribution   :    -10.49114     -22.38667     -10.01519
                        -----------------------------------------
Total Dipole Moment    :     -0.34091      -0.25457      -0.02954
                        -----------------------------------------
Magnitude (a.u.)       :      0.42649
Magnitude (Debye)      :      1.08406

Rotational constants in cm-1:     0.017882     0.009451     0.007426
Rotational constants in MHz :   536.087131   283.328337   222.634114

                             ****ORCA TERMINATED NORMALLY****
TOTAL RUN TIME: 0 days 0 hours 0 minutes 21 seconds 24 msec
