                         Program Version 4.2.1 -  RELEASE  -
|  1> ! wB97X-D3 SP def2-SVP
|  2> %pal
|  3> nprocs 24
|  4> end
|  5>
|  6> * xyz 0 1
|  7> S 	 -81.6462 	 -1.65126 	 -60.9692
|  8> C 	 -79.9999 	 -1.11572 	 -61.421
|  9> C 	 -79.1393 	 -2.15008 	 -61.0823
| 10> C 	 -79.7656 	 -3.31836 	 -60.5397
| 11> C 	 -81.1492 	 -3.18541 	 -60.3231
| 12> H 	 -79.2828 	 -4.27171 	 -60.2493
| 13> C 	 -77.6677 	 -2.17816 	 -61.2786
| 14> H 	 -77.4797 	 -1.16363 	 -61.5224
| 15> H 	 -77.3823 	 -2.86543 	 -62.1215
| 16> C 	 -76.6856 	 -2.65445 	 -60.1954
| 17> H 	 -76.9814 	 -2.17327 	 -59.229
| 18> H 	 -76.7997 	 -3.71578 	 -60.0428
| 19> C 	 -75.2604 	 -2.18161 	 -60.4736
| 20> H 	 -74.6674 	 -2.79267 	 -59.8084
| 21> H 	 -74.8012 	 -2.33593 	 -61.4721
| 22> H 	 -75.0897 	 -1.10086 	 -60.2186
| 23> S 	 -82.9628 	 -3.6751 	 -58.2578
| 24> C 	 -83.4804 	 -5.36055 	 -58.02
| 25> C 	 -83.2001 	 -6.08813 	 -59.1957
| 26> C 	 -82.3811 	 -5.39362 	 -60.0345
| 27> C 	 -82.0436 	 -4.13319 	 -59.6428
| 28> H 	 -83.5255 	 -7.15893 	 -59.3798
| 29> C 	 -81.8571 	 -6.16076 	 -61.2699
| 30> H 	 -81.5156 	 -7.11243 	 -61.0306
| 31> H 	 -80.9162 	 -5.81434 	 -61.6585
| 32> C 	 -82.8172 	 -6.28433 	 -62.5249
| 33> H 	 -83.7238 	 -6.78462 	 -62.1604
| 34> H 	 -82.2759 	 -7.04072 	 -63.2282
| 35> C 	 -83.1868 	 -4.98082 	 -63.3491
| 36> H 	 -82.232 	 -4.63212 	 -63.7142
| 37> H 	 -83.652 	 -4.33562 	 -62.6079
| 38> H 	 -83.8389 	 -5.12455 	 -64.2068
| 39> H 	 -79.7385 	 -0.176658 	 -61.9023
| 40> H 	 -84.2705 	 -5.70373 	 -57.2532
| 41> *
| 42>
| 43>                          ****END OF INPUT****

CARTESIAN COORDINATES (ANGSTROEM)
---------------------------------
  S    -81.646200   -1.651260  -60.969200
  C    -79.999900   -1.115720  -61.421000
  C    -79.139300   -2.150080  -61.082300
  C    -79.765600   -3.318360  -60.539700
  C    -81.149200   -3.185410  -60.323100
  H    -79.282800   -4.271710  -60.249300
  C    -77.667700   -2.178160  -61.278600
  H    -77.479700   -1.163630  -61.522400
  H    -77.382300   -2.865430  -62.121500
  C    -76.685600   -2.654450  -60.195400
  H    -76.981400   -2.173270  -59.229000
  H    -76.799700   -3.715780  -60.042800
  C    -75.260400   -2.181610  -60.473600
  H    -74.667400   -2.792670  -59.808400
  H    -74.801200   -2.335930  -61.472100
  H    -75.089700   -1.100860  -60.218600
  S    -82.962800   -3.675100  -58.257800
  C    -83.480400   -5.360550  -58.020000
  C    -83.200100   -6.088130  -59.195700
  C    -82.381100   -5.393620  -60.034500
  C    -82.043600   -4.133190  -59.642800
  H    -83.525500   -7.158930  -59.379800
  C    -81.857100   -6.160760  -61.269900
  H    -81.515600   -7.112430  -61.030600
  H    -80.916200   -5.814340  -61.658500
  C    -82.817200   -6.284330  -62.524900
  H    -83.723800   -6.784620  -62.160400
  H    -82.275900   -7.040720  -63.228200
  C    -83.186800   -4.980820  -63.349100
  H    -82.232000   -4.632120  -63.714200
  H    -83.652000   -4.335620  -62.607900
  H    -83.838900   -5.124550  -64.206800
  H    -79.738500   -0.176658  -61.902300
  H    -84.270500   -5.703730  -57.253200

 Total Charge           Charge          ....    0
 Multiplicity           Mult            ....    1
 Number of Electrons    NEL             ....  134
 Basis Dimension        Dim             ....  322

ORBITAL ENERGIES
----------------

  NO   OCC          E(Eh)            E(eV)
   0   2.0000     -88.972077     -2421.0533
   1   2.0000     -88.965943     -2420.8864
   2   2.0000     -10.333747      -281.1955
   3   2.0000     -10.329892      -281.0906
   4   2.0000     -10.327484      -281.0251
   5   2.0000     -10.320393      -280.8322
   6   2.0000     -10.301503      -280.3181
   7   2.0000     -10.298713      -280.2422
   8   2.0000     -10.297576      -280.2113
   9   2.0000     -10.296520      -280.1826
  10   2.0000     -10.295771      -280.1622
  11   2.0000     -10.290393      -280.0158
  12   2.0000     -10.286900      -279.9208
  13   2.0000     -10.285712      -279.8884
  14   2.0000     -10.283866      -279.8382
  15   2.0000     -10.274827      -279.5923
  16   2.0000      -8.086551      -220.0462
  17   2.0000      -8.079969      -219.8671
  18   2.0000      -6.044949      -164.4914
  19   2.0000      -6.041170      -164.3886
  20   2.0000      -6.038593      -164.3185
  21   2.0000      -6.037339      -164.2844
  22   2.0000      -6.034359      -164.2032
  23   2.0000      -6.030849      -164.1077
  24   2.0000      -1.011462       -27.5233
  25   2.0000      -0.985663       -26.8213
  26   2.0000      -0.912945       -24.8425
  27   2.0000      -0.896871       -24.4051
  28   2.0000      -0.870224       -23.6800
  29   2.0000      -0.846601       -23.0372
  30   2.0000      -0.844262       -22.9735
  31   2.0000      -0.810947       -22.0670
  32   2.0000      -0.784200       -21.3392
  33   2.0000      -0.772866       -21.0307
  34   2.0000      -0.707923       -19.2636
  35   2.0000      -0.694538       -18.8993
  36   2.0000      -0.686316       -18.6756
  37   2.0000      -0.661941       -18.0123
  38   2.0000      -0.638915       -17.3858
  39   2.0000      -0.616620       -16.7791
  40   2.0000      -0.599972       -16.3261
  41   2.0000      -0.574520       -15.6335
  42   2.0000      -0.562094       -15.2954
  43   2.0000      -0.540331       -14.7031
  44   2.0000      -0.536318       -14.5940
  45   2.0000      -0.525683       -14.3046
  46   2.0000      -0.513541       -13.9741
  47   2.0000      -0.505363       -13.7516
  48   2.0000      -0.504418       -13.7259
  49   2.0000      -0.500068       -13.6075
  50   2.0000      -0.484652       -13.1881
  51   2.0000      -0.481581       -13.1045
  52   2.0000      -0.477622       -12.9967
  53   2.0000      -0.465975       -12.6798
  54   2.0000      -0.457169       -12.4402
  55   2.0000      -0.445575       -12.1247
  56   2.0000      -0.443572       -12.0702
  57   2.0000      -0.435979       -11.8636
  58   2.0000      -0.429564       -11.6890
  59   2.0000      -0.417581       -11.3629
  60   2.0000      -0.416267       -11.3272
  61   2.0000      -0.413303       -11.2465
  62   2.0000      -0.403425       -10.9777
  63   2.0000      -0.343125        -9.3369
  64   2.0000      -0.336014        -9.1434
  65   2.0000      -0.325674        -8.8620
  66   2.0000      -0.298487        -8.1222
  67   0.0000       0.028406         0.7730
  68   0.0000       0.058874         1.6020
  69   0.0000       0.111275         3.0280
  70   0.0000       0.116280         3.1641
  71   0.0000       0.130953         3.5634

MULLIKEN ATOMIC CHARGES
-----------------------
   0 S :    0.099774
   1 C :   -0.131095
   2 C :   -0.072063
   3 C :    0.017913
   4 C :   -0.152208
   5 H :    0.026825
   6 C :    0.066977
   7 H :   -0.002910
   8 H :    0.043422
   9 C :   -0.085544
  10 H :    0.033900
  11 H :    0.032428
  12 C :   -0.063398
  13 H :    0.028381
  14 H :    0.035323
  15 H :    0.046374
  16 S :    0.124486
  17 C :   -0.129994
  18 C :   -0.060761
  19 C :   -0.002480
  20 C :   -0.167652
  21 H :    0.050099
  22 C :    0.106507
  23 H :    0.002357
  24 H :   -0.004135
  25 C :   -0.139048
  26 H :    0.024686
  27 H :    0.036516
  28 C :   -0.026448
  29 H :    0.031859
  30 H :    0.042128
  31 H :    0.041317
  32 H :    0.055746
  33 H :    0.090717
Sum of atomic charges:   -0.0000000

LOEWDIN ATOMIC CHARGES
----------------------
   0 S :    0.399108
   1 C :   -0.194303
   2 C :   -0.065409
   3 C :   -0.069610
   4 C :   -0.191767
   5 H :    0.034750
   6 C :   -0.040177
   7 H :    0.021337
   8 H :    0.040437
   9 C :   -0.041148
  10 H :    0.030911
  11 H :    0.019157
  12 C :   -0.070709
  13 H :    0.027126
  14 H :    0.026146
  15 H :    0.033425
  16 S :    0.421331
  17 C :   -0.195869
  18 C :   -0.073733
  19 C :   -0.066211
  20 C :   -0.210539
  21 H :    0.046263
  22 C :   -0.028741
  23 H :    0.022551
  24 H :    0.024114
  25 C :   -0.041160
  26 H :    0.014260
  27 H :    0.028485
  28 C :   -0.062115
  29 H :    0.024802
  30 H :    0.027158
  31 H :    0.027218
  32 H :    0.034794
  33 H :    0.048115

  Mayer bond orders larger than 0.100000
B(  0-S ,  1-C ) :   1.1205 B(  0-S ,  4-C ) :   1.1658 B(  1-C ,  2-C ) :   1.5895
B(  1-C ,  4-C ) :   0.1019 B(  1-C , 32-H ) :   0.9723 B(  2-C ,  3-C ) :   1.2385
B(  2-C ,  6-C ) :   1.0403 B(  3-C ,  4-C ) :   1.5649 B(  3-C ,  5-H ) :   0.9875
B(  4-C , 20-C ) :   1.0303 B(  6-C ,  7-H ) :   0.9400 B(  6-C ,  8-H ) :   0.9299
B(  6-C ,  9-C ) :   1.0645 B(  9-C , 10-H ) :   0.9532 B(  9-C , 11-H ) :   0.9543
B(  9-C , 12-C ) :   1.0820 B( 12-C , 13-H ) :   0.9730 B( 12-C , 14-H ) :   0.9758
B( 12-C , 15-H ) :   0.9744 B( 16-S , 17-C ) :   1.1685 B( 16-S , 20-C ) :   1.1521
B( 17-C , 18-C ) :   1.5539 B( 17-C , 20-C ) :   0.1147 B( 17-C , 33-H ) :   0.9558
B( 18-C , 19-C ) :   1.3095 B( 18-C , 21-H ) :   0.9754 B( 19-C , 20-C ) :   1.5649
B( 19-C , 22-C ) :   1.0255 B( 22-C , 23-H ) :   0.9351 B( 22-C , 24-H ) :   0.9286
B( 22-C , 25-C ) :   1.0647 B( 25-C , 26-H ) :   0.9613 B( 25-C , 27-H ) :   0.9573
B( 25-C , 28-C ) :   1.0595 B( 28-C , 29-H ) :   0.9769 B( 28-C , 30-H ) :   0.9776
B( 28-C , 31-H ) :   0.9768

Dispersion correction           -0.014526756
FINAL SINGLE POINT ENERGY     -1339.856780259970

DIPOLE MOMENT
-------------
                                X             Y             Z
Electronic contribution:    -18.21688       8.07970      12.93374
Nuclear contribution   :     18.62343      -8.50030     -13.12079
                        -----------------------------------------
Total Dipole Moment    :      0.40655      -0.42060      -0.18705
                        -----------------------------------------
Magnitude (a.u.)       :      0.61415
Magnitude (Debye)      :      1.56104

Rotational constants in cm-1:     0.019224     0.007742     0.007283
Rotational constants in MHz :   576.317540   232.090848   218.334338

                             ****ORCA TERMINATED NORMALLY****
TOTAL RUN TIME: 0 days 0 hours 0 minutes 20 seconds 273 msec
