                         Program Version 4.2.1 -  RELEASE  -
|  1> ! wB97X-D3 SP def2-SVP
|  2> %pal
|  3> nprocs 24
|  4> end
|  5>
|  6> * xyz 0 1
|  7> S 	 -63.9845 	 17.7905 	 -115.858
|  8> C 	 -62.5698 	 16.7782 	 -115.928
|  9> C 	 -62.7553 	 15.6928 	 -116.763
| 10> C 	 -64.1753 	 15.5345 	 -117.079
| 11> C 	 -64.9755 	 16.5897 	 -116.659
| 12> H 	 -64.6406 	 14.6922 	 -117.562
| 13> C 	 -61.6434 	 14.7066 	 -117.123
| 14> H 	 -61.7924 	 13.8106 	 -116.51
| 15> H 	 -60.7202 	 15.105 	 -116.822
| 16> C 	 -61.7534 	 14.2807 	 -118.624
| 17> H 	 -62.7257 	 13.7489 	 -118.876
| 18> H 	 -61.7861 	 15.2264 	 -119.232
| 19> C 	 -60.6865 	 13.3054 	 -119.035
| 20> H 	 -60.9012 	 12.7342 	 -119.88
| 21> H 	 -59.7759 	 13.7663 	 -119.226
| 22> H 	 -60.4744 	 12.6628 	 -118.211
| 23> S 	 -66.8369 	 18.0908 	 -118.013
| 24> C 	 -68.4949 	 17.5997 	 -117.954
| 25> C 	 -68.7475 	 16.6333 	 -117.006
| 26> C 	 -67.5202 	 16.2673 	 -116.332
| 27> C 	 -66.3738 	 16.8279 	 -116.894
| 28> H 	 -69.7116 	 16.3121 	 -116.747
| 29> C 	 -67.5504 	 15.1278 	 -115.291
| 30> H 	 -68.4298 	 15.2671 	 -114.56
| 31> H 	 -66.6745 	 15.2346 	 -114.615
| 32> C 	 -67.7424 	 13.773 	 -115.905
| 33> H 	 -66.895 	 13.5846 	 -116.557
| 34> H 	 -68.6542 	 13.724 	 -116.476
| 35> C 	 -67.8319 	 12.7603 	 -114.743
| 36> H 	 -68.6982 	 12.9652 	 -114.155
| 37> H 	 -66.9493 	 12.7743 	 -114.067
| 38> H 	 -67.8596 	 11.7233 	 -115.113
| 39> H 	 -61.5401 	 17.1131 	 -115.749
| 40> H 	 -69.3352 	 18.1128 	 -118.458
| 41> *
| 42>
| 43>                          ****END OF INPUT****

CARTESIAN COORDINATES (ANGSTROEM)
---------------------------------
  S    -63.984500   17.790500  -115.858000
  C    -62.569800   16.778200  -115.928000
  C    -62.755300   15.692800  -116.763000
  C    -64.175300   15.534500  -117.079000
  C    -64.975500   16.589700  -116.659000
  H    -64.640600   14.692200  -117.562000
  C    -61.643400   14.706600  -117.123000
  H    -61.792400   13.810600  -116.510000
  H    -60.720200   15.105000  -116.822000
  C    -61.753400   14.280700  -118.624000
  H    -62.725700   13.748900  -118.876000
  H    -61.786100   15.226400  -119.232000
  C    -60.686500   13.305400  -119.035000
  H    -60.901200   12.734200  -119.880000
  H    -59.775900   13.766300  -119.226000
  H    -60.474400   12.662800  -118.211000
  S    -66.836900   18.090800  -118.013000
  C    -68.494900   17.599700  -117.954000
  C    -68.747500   16.633300  -117.006000
  C    -67.520200   16.267300  -116.332000
  C    -66.373800   16.827900  -116.894000
  H    -69.711600   16.312100  -116.747000
  C    -67.550400   15.127800  -115.291000
  H    -68.429800   15.267100  -114.560000
  H    -66.674500   15.234600  -114.615000
  C    -67.742400   13.773000  -115.905000
  H    -66.895000   13.584600  -116.557000
  H    -68.654200   13.724000  -116.476000
  C    -67.831900   12.760300  -114.743000
  H    -68.698200   12.965200  -114.155000
  H    -66.949300   12.774300  -114.067000
  H    -67.859600   11.723300  -115.113000
  H    -61.540100   17.113100  -115.749000
  H    -69.335200   18.112800  -118.458000

 Total Charge           Charge          ....    0
 Multiplicity           Mult            ....    1
 Number of Electrons    NEL             ....  134
 Basis Dimension        Dim             ....  322

ORBITAL ENERGIES
----------------

  NO   OCC          E(Eh)            E(eV)
   0   2.0000     -88.965221     -2420.8667
   1   2.0000     -88.962997     -2420.8062
   2   2.0000     -10.328696      -281.0581
   3   2.0000     -10.324093      -280.9329
   4   2.0000     -10.318017      -280.7675
   5   2.0000     -10.311961      -280.6027
   6   2.0000     -10.305047      -280.4146
   7   2.0000     -10.304536      -280.4007
   8   2.0000     -10.298125      -280.2262
   9   2.0000     -10.294831      -280.1366
  10   2.0000     -10.294682      -280.1325
  11   2.0000     -10.294529      -280.1284
  12   2.0000     -10.290863      -280.0286
  13   2.0000     -10.283266      -279.8219
  14   2.0000     -10.277619      -279.6682
  15   2.0000     -10.263738      -279.2905
  16   2.0000      -8.080391      -219.8786
  17   2.0000      -8.077972      -219.8128
  18   2.0000      -6.038929      -164.3276
  19   2.0000      -6.036521      -164.2621
  20   2.0000      -6.034852      -164.2167
  21   2.0000      -6.032429      -164.1507
  22   2.0000      -6.031072      -164.1138
  23   2.0000      -6.028684      -164.0488
  24   2.0000      -1.006089       -27.3771
  25   2.0000      -0.982975       -26.7481
  26   2.0000      -0.912057       -24.8183
  27   2.0000      -0.911182       -24.7945
  28   2.0000      -0.873318       -23.7642
  29   2.0000      -0.847042       -23.0492
  30   2.0000      -0.845925       -23.0188
  31   2.0000      -0.816239       -22.2110
  32   2.0000      -0.782769       -21.3002
  33   2.0000      -0.767033       -20.8720
  34   2.0000      -0.711091       -19.3498
  35   2.0000      -0.697764       -18.9871
  36   2.0000      -0.688339       -18.7307
  37   2.0000      -0.661728       -18.0065
  38   2.0000      -0.642487       -17.4830
  39   2.0000      -0.616523       -16.7765
  40   2.0000      -0.594613       -16.1803
  41   2.0000      -0.572644       -15.5824
  42   2.0000      -0.568053       -15.4575
  43   2.0000      -0.560118       -15.2416
  44   2.0000      -0.532828       -14.4990
  45   2.0000      -0.521339       -14.1864
  46   2.0000      -0.515091       -14.0163
  47   2.0000      -0.511692       -13.9238
  48   2.0000      -0.508852       -13.8466
  49   2.0000      -0.499470       -13.5913
  50   2.0000      -0.491764       -13.3816
  51   2.0000      -0.475193       -12.9307
  52   2.0000      -0.469736       -12.7822
  53   2.0000      -0.467010       -12.7080
  54   2.0000      -0.455267       -12.3884
  55   2.0000      -0.452732       -12.3195
  56   2.0000      -0.447303       -12.1717
  57   2.0000      -0.440434       -11.9848
  58   2.0000      -0.437472       -11.9042
  59   2.0000      -0.422568       -11.4987
  60   2.0000      -0.418114       -11.3775
  61   2.0000      -0.415854       -11.3160
  62   2.0000      -0.413159       -11.2426
  63   2.0000      -0.337010        -9.1705
  64   2.0000      -0.326923        -8.8960
  65   2.0000      -0.325382        -8.8541
  66   2.0000      -0.304503        -8.2860
  67   0.0000       0.040200         1.0939
  68   0.0000       0.057907         1.5757
  69   0.0000       0.112904         3.0723
  70   0.0000       0.120433         3.2771
  71   0.0000       0.130741         3.5576

MULLIKEN ATOMIC CHARGES
-----------------------
   0 S :    0.110144
   1 C :   -0.107506
   2 C :   -0.125505
   3 C :    0.048714
   4 C :   -0.172876
   5 H :    0.010181
   6 C :    0.111555
   7 H :    0.038783
   8 H :    0.002979
   9 C :   -0.156946
  10 H :    0.042482
  11 H :    0.044942
  12 C :    0.042223
  13 H :    0.020801
  14 H :    0.008062
  15 H :    0.010452
  16 S :    0.120746
  17 C :   -0.090093
  18 C :   -0.017859
  19 C :   -0.006970
  20 C :   -0.178648
  21 H :    0.001149
  22 C :   -0.005639
  23 H :    0.024993
  24 H :    0.039371
  25 C :   -0.036496
  26 H :    0.024351
  27 H :    0.027947
  28 C :   -0.042436
  29 H :    0.024805
  30 H :    0.032053
  31 H :    0.032804
  32 H :    0.054837
  33 H :    0.066598
Sum of atomic charges:   -0.0000000

LOEWDIN ATOMIC CHARGES
----------------------
   0 S :    0.405038
   1 C :   -0.209295
   2 C :   -0.058922
   3 C :   -0.054991
   4 C :   -0.197784
   5 H :    0.027090
   6 C :   -0.023129
   7 H :    0.035548
   8 H :    0.020610
   9 C :   -0.045456
  10 H :    0.031118
  11 H :    0.029285
  12 C :   -0.057870
  13 H :    0.020778
  14 H :    0.017714
  15 H :    0.024200
  16 S :    0.416051
  17 C :   -0.189831
  18 C :   -0.068002
  19 C :   -0.045380
  20 C :   -0.214348
  21 H :    0.023152
  22 C :   -0.040061
  23 H :    0.033805
  24 H :    0.032585
  25 C :   -0.035834
  26 H :    0.022083
  27 H :    0.024002
  28 C :   -0.064077
  29 H :    0.019755
  30 H :    0.028311
  31 H :    0.025866
  32 H :    0.031744
  33 H :    0.036247

  Mayer bond orders larger than 0.100000
B(  0-S ,  1-C ) :   1.1352 B(  0-S ,  4-C ) :   1.1464 B(  1-C ,  2-C ) :   1.6402
B(  1-C , 32-H ) :   0.9558 B(  2-C ,  3-C ) :   1.2047 B(  2-C ,  6-C ) :   1.0351
B(  3-C ,  4-C ) :   1.6072 B(  3-C ,  5-H ) :   0.9911 B(  4-C , 20-C ) :   1.0421
B(  6-C ,  7-H ) :   0.9313 B(  6-C ,  8-H ) :   0.9425 B(  6-C ,  9-C ) :   1.0508
B(  9-C , 10-H ) :   0.9553 B(  9-C , 11-H ) :   0.9621 B(  9-C , 12-C ) :   1.0845
B( 12-C , 13-H ) :   0.9725 B( 12-C , 14-H ) :   0.9684 B( 12-C , 15-H ) :   0.9660
B( 16-S , 17-C ) :   1.1647 B( 16-S , 20-C ) :   1.1316 B( 17-C , 18-C ) :   1.6093
B( 17-C , 33-H ) :   0.9597 B( 18-C , 19-C ) :   1.2314 B( 18-C , 21-H ) :   0.9983
B( 19-C , 20-C ) :   1.5991 B( 19-C , 22-C ) :   1.0492 B( 22-C , 23-H ) :   0.9381
B( 22-C , 24-H ) :   0.9373 B( 22-C , 25-C ) :   1.0643 B( 25-C , 26-H ) :   0.9508
B( 25-C , 27-H ) :   0.9524 B( 25-C , 28-C ) :   1.0814 B( 28-C , 29-H ) :   0.9738
B( 28-C , 30-H ) :   0.9750 B( 28-C , 31-H ) :   0.9738

Dispersion correction           -0.013861446
FINAL SINGLE POINT ENERGY     -1339.880087871683

DIPOLE MOMENT
-------------
                                X             Y             Z
Electronic contribution:     -6.17099      26.92252      -0.41089
Nuclear contribution   :      6.19047     -27.54601       0.33942
                        -----------------------------------------
Total Dipole Moment    :      0.01948      -0.62349      -0.07148
                        -----------------------------------------
Magnitude (a.u.)       :      0.62788
Magnitude (Debye)      :      1.59594

Rotational constants in cm-1:     0.016956     0.008271     0.006870
Rotational constants in MHz :   508.333575   247.968183   205.959522

                             ****ORCA TERMINATED NORMALLY****
TOTAL RUN TIME: 0 days 0 hours 0 minutes 21 seconds 163 msec
