                         Program Version 4.2.1 -  RELEASE  -
|  1> ! wB97X-D3 SP def2-SVP
|  2> %pal
|  3> nprocs 24
|  4> end
|  5>
|  6> * xyz 0 1
|  7> S 	 35.6035 	 -36.7155 	 -128.574
|  8> C 	 34.9196 	 -35.6646 	 -127.298
|  9> C 	 33.6568 	 -35.2334 	 -127.735
| 10> C 	 33.2475 	 -35.8352 	 -128.992
| 11> C 	 34.1167 	 -36.801 	 -129.407
| 12> H 	 32.2742 	 -35.8116 	 -129.475
| 13> C 	 32.6775 	 -34.58 	 -126.814
| 14> H 	 33.0004 	 -34.9612 	 -125.823
| 15> H 	 31.6519 	 -34.9024 	 -127.047
| 16> C 	 32.9464 	 -33.0433 	 -126.712
| 17> H 	 32.6898 	 -32.5984 	 -125.771
| 18> H 	 34.0151 	 -32.7975 	 -126.758
| 19> C 	 32.2393 	 -32.2849 	 -127.846
| 20> H 	 32.7494 	 -32.4262 	 -128.807
| 21> H 	 31.1827 	 -32.4772 	 -127.814
| 22> H 	 32.2237 	 -31.1853 	 -127.684
| 23> S 	 33.3444 	 -39.1946 	 -130.488
| 24> C 	 33.7082 	 -39.4401 	 -132.2
| 25> C 	 34.0917 	 -38.2566 	 -132.802
| 26> C 	 34.1923 	 -37.1641 	 -131.9
| 27> C 	 33.9764 	 -37.5697 	 -130.622
| 28> H 	 34.2794 	 -38.2174 	 -133.826
| 29> C 	 34.5868 	 -35.7925 	 -132.306
| 30> H 	 35.5801 	 -35.589 	 -131.792
| 31> H 	 33.9023 	 -35.0326 	 -131.93
| 32> C 	 34.5375 	 -35.4713 	 -133.782
| 33> H 	 33.5142 	 -35.7422 	 -134.091
| 34> H 	 35.2325 	 -36.1172 	 -134.297
| 35> C 	 34.7526 	 -33.9951 	 -133.979
| 36> H 	 34.3043 	 -33.4215 	 -133.194
| 37> H 	 34.2607 	 -33.6997 	 -134.905
| 38> H 	 35.858 	 -33.9153 	 -134.011
| 39> H 	 35.2541 	 -35.5373 	 -126.245
| 40> H 	 33.5409 	 -40.2898 	 -132.8
| 41> *
| 42>
| 43>                          ****END OF INPUT****

CARTESIAN COORDINATES (ANGSTROEM)
---------------------------------
  S     35.603500  -36.715500  -128.574000
  C     34.919600  -35.664600  -127.298000
  C     33.656800  -35.233400  -127.735000
  C     33.247500  -35.835200  -128.992000
  C     34.116700  -36.801000  -129.407000
  H     32.274200  -35.811600  -129.475000
  C     32.677500  -34.580000  -126.814000
  H     33.000400  -34.961200  -125.823000
  H     31.651900  -34.902400  -127.047000
  C     32.946400  -33.043300  -126.712000
  H     32.689800  -32.598400  -125.771000
  H     34.015100  -32.797500  -126.758000
  C     32.239300  -32.284900  -127.846000
  H     32.749400  -32.426200  -128.807000
  H     31.182700  -32.477200  -127.814000
  H     32.223700  -31.185300  -127.684000
  S     33.344400  -39.194600  -130.488000
  C     33.708200  -39.440100  -132.200000
  C     34.091700  -38.256600  -132.802000
  C     34.192300  -37.164100  -131.900000
  C     33.976400  -37.569700  -130.622000
  H     34.279400  -38.217400  -133.826000
  C     34.586800  -35.792500  -132.306000
  H     35.580100  -35.589000  -131.792000
  H     33.902300  -35.032600  -131.930000
  C     34.537500  -35.471300  -133.782000
  H     33.514200  -35.742200  -134.091000
  H     35.232500  -36.117200  -134.297000
  C     34.752600  -33.995100  -133.979000
  H     34.304300  -33.421500  -133.194000
  H     34.260700  -33.699700  -134.905000
  H     35.858000  -33.915300  -134.011000
  H     35.254100  -35.537300  -126.245000
  H     33.540900  -40.289800  -132.800000

 Total Charge           Charge          ....    0
 Multiplicity           Mult            ....    1
 Number of Electrons    NEL             ....  134
 Basis Dimension        Dim             ....  322

ORBITAL ENERGIES
----------------

  NO   OCC          E(Eh)            E(eV)
   0   2.0000     -88.966239     -2420.8944
   1   2.0000     -88.963479     -2420.8193
   2   2.0000     -10.319534      -280.8088
   3   2.0000     -10.317716      -280.7593
   4   2.0000     -10.315713      -280.7048
   5   2.0000     -10.313389      -280.6416
   6   2.0000     -10.303361      -280.3687
   7   2.0000     -10.295542      -280.1560
   8   2.0000     -10.295093      -280.1437
   9   2.0000     -10.291325      -280.0412
  10   2.0000     -10.287439      -279.9355
  11   2.0000     -10.286596      -279.9125
  12   2.0000     -10.285412      -279.8803
  13   2.0000     -10.282212      -279.7932
  14   2.0000     -10.277180      -279.6563
  15   2.0000     -10.275610      -279.6136
  16   2.0000      -8.080604      -219.8844
  17   2.0000      -8.078243      -219.8202
  18   2.0000      -6.039118      -164.3327
  19   2.0000      -6.036832      -164.2705
  20   2.0000      -6.035295      -164.2287
  21   2.0000      -6.032692      -164.1579
  22   2.0000      -6.031263      -164.1190
  23   2.0000      -6.028951      -164.0561
  24   2.0000      -1.009879       -27.4802
  25   2.0000      -0.983588       -26.7648
  26   2.0000      -0.920189       -25.0396
  27   2.0000      -0.911209       -24.7953
  28   2.0000      -0.867749       -23.6127
  29   2.0000      -0.855040       -23.2668
  30   2.0000      -0.843695       -22.9581
  31   2.0000      -0.815390       -22.1879
  32   2.0000      -0.780552       -21.2399
  33   2.0000      -0.767286       -20.8789
  34   2.0000      -0.703575       -19.1452
  35   2.0000      -0.702972       -19.1288
  36   2.0000      -0.699440       -19.0327
  37   2.0000      -0.654294       -17.8042
  38   2.0000      -0.639081       -17.3903
  39   2.0000      -0.611554       -16.6412
  40   2.0000      -0.601797       -16.3757
  41   2.0000      -0.580825       -15.8050
  42   2.0000      -0.572041       -15.5660
  43   2.0000      -0.547839       -14.9074
  44   2.0000      -0.540077       -14.6962
  45   2.0000      -0.527951       -14.3663
  46   2.0000      -0.520744       -14.1702
  47   2.0000      -0.514891       -14.0109
  48   2.0000      -0.504978       -13.7411
  49   2.0000      -0.497410       -13.5352
  50   2.0000      -0.483714       -13.1625
  51   2.0000      -0.479058       -13.0358
  52   2.0000      -0.472808       -12.8658
  53   2.0000      -0.462623       -12.5886
  54   2.0000      -0.456455       -12.4208
  55   2.0000      -0.453347       -12.3362
  56   2.0000      -0.440774       -11.9941
  57   2.0000      -0.432221       -11.7613
  58   2.0000      -0.431064       -11.7298
  59   2.0000      -0.424721       -11.5572
  60   2.0000      -0.420459       -11.4413
  61   2.0000      -0.417419       -11.3585
  62   2.0000      -0.410687       -11.1754
  63   2.0000      -0.333559        -9.0766
  64   2.0000      -0.326365        -8.8809
  65   2.0000      -0.315191        -8.5768
  66   2.0000      -0.311157        -8.4670
  67   0.0000       0.037373         1.0170
  68   0.0000       0.057159         1.5554
  69   0.0000       0.109635         2.9833
  70   0.0000       0.118529         3.2253
  71   0.0000       0.125681         3.4200

MULLIKEN ATOMIC CHARGES
-----------------------
   0 S :    0.112435
   1 C :   -0.132595
   2 C :   -0.086709
   3 C :    0.046138
   4 C :   -0.174780
   5 H :    0.018975
   6 C :    0.043437
   7 H :    0.027916
   8 H :    0.041134
   9 C :   -0.054944
  10 H :    0.016445
  11 H :    0.026787
  12 C :   -0.064721
  13 H :    0.045047
  14 H :    0.024608
  15 H :    0.026289
  16 S :    0.119824
  17 C :   -0.053986
  18 C :   -0.041114
  19 C :   -0.000753
  20 C :   -0.209999
  21 H :   -0.005433
  22 C :    0.062995
  23 H :    0.043418
  24 H :    0.015212
  25 C :   -0.111249
  26 H :    0.025335
  27 H :    0.032615
  28 C :    0.006895
  29 H :    0.026011
  30 H :    0.032752
  31 H :    0.040489
  32 H :    0.067484
  33 H :    0.034042
Sum of atomic charges:   -0.0000000

LOEWDIN ATOMIC CHARGES
----------------------
   0 S :    0.409271
   1 C :   -0.205172
   2 C :   -0.056137
   3 C :   -0.068587
   4 C :   -0.206526
   5 H :    0.034054
   6 C :   -0.030372
   7 H :    0.037096
   8 H :    0.032864
   9 C :   -0.040071
  10 H :    0.016815
  11 H :    0.027155
  12 C :   -0.072786
  13 H :    0.028154
  14 H :    0.020558
  15 H :    0.027764
  16 S :    0.403505
  17 C :   -0.172279
  18 C :   -0.062621
  19 C :   -0.054254
  20 C :   -0.207887
  21 H :    0.020223
  22 C :   -0.040262
  23 H :    0.040438
  24 H :    0.030932
  25 C :   -0.043872
  26 H :    0.023933
  27 H :    0.018414
  28 C :   -0.055955
  29 H :    0.021991
  30 H :    0.027858
  31 H :    0.035098
  32 H :    0.039065
  33 H :    0.021591

  Mayer bond orders larger than 0.100000
B(  0-S ,  1-C ) :   1.1233 B(  0-S ,  4-C ) :   1.1614 B(  1-C ,  2-C ) :   1.6181
B(  1-C ,  4-C ) :   0.1003 B(  1-C , 32-H ) :   0.9618 B(  2-C ,  3-C ) :   1.2075
B(  2-C ,  6-C ) :   1.0201 B(  3-C ,  4-C ) :   1.6061 B(  3-C ,  5-H ) :   0.9906
B(  4-C , 20-C ) :   1.0091 B(  6-C ,  7-H ) :   0.9416 B(  6-C ,  8-H ) :   0.9590
B(  6-C ,  9-C ) :   1.0465 B(  9-C , 10-H ) :   0.9586 B(  9-C , 11-H ) :   0.9577
B(  9-C , 12-C ) :   1.0791 B( 12-C , 13-H ) :   0.9771 B( 12-C , 14-H ) :   0.9763
B( 12-C , 15-H ) :   0.9733 B( 16-S , 17-C ) :   1.1426 B( 16-S , 20-C ) :   1.1420
B( 17-C , 18-C ) :   1.6192 B( 17-C , 33-H ) :   0.9668 B( 18-C , 19-C ) :   1.2370
B( 18-C , 21-H ) :   0.9937 B( 19-C , 20-C ) :   1.6212 B( 19-C , 22-C ) :   1.0452
B( 22-C , 23-H ) :   0.9133 B( 22-C , 24-H ) :   0.9247 B( 22-C , 25-C ) :   1.0786
B( 25-C , 26-H ) :   0.9542 B( 25-C , 27-H ) :   0.9471 B( 25-C , 28-C ) :   1.0806
B( 28-C , 29-H ) :   0.9713 B( 28-C , 30-H ) :   0.9730 B( 28-C , 31-H ) :   0.9743

Dispersion correction           -0.014213293
FINAL SINGLE POINT ENERGY     -1339.860482622190

DIPOLE MOMENT
-------------
                                X             Y             Z
Electronic contribution:      5.51837     -26.04908       5.40651
Nuclear contribution   :     -5.81819      26.48477      -5.57254
                        -----------------------------------------
Total Dipole Moment    :     -0.29982       0.43569      -0.16603
                        -----------------------------------------
Magnitude (a.u.)       :      0.55434
Magnitude (Debye)      :      1.40901

Rotational constants in cm-1:     0.017620     0.008814     0.006890
Rotational constants in MHz :   528.227504   264.235959   206.561234

                             ****ORCA TERMINATED NORMALLY****
TOTAL RUN TIME: 0 days 0 hours 0 minutes 20 seconds 599 msec
