                         Program Version 4.2.1 -  RELEASE  -
|  1> ! wB97X-D3 SP def2-SVP
|  2> %pal
|  3> nprocs 24
|  4> end
|  5>
|  6> * xyz 0 1
|  7> S 	 -74.7727 	 -1.78476 	 6.19823
|  8> C 	 -75.3191 	 -0.999431 	 7.72105
|  9> C 	 -75.3633 	 0.358884 	 7.39449
| 10> C 	 -75.1275 	 0.690578 	 5.9957
| 11> C 	 -74.8814 	 -0.374585 	 5.17707
| 12> H 	 -75.1107 	 1.64279 	 5.57518
| 13> C 	 -75.724 	 1.45615 	 8.38654
| 14> H 	 -74.7745 	 2.06253 	 8.67698
| 15> H 	 -76.0262 	 0.864978 	 9.18979
| 16> C 	 -76.7711 	 2.39285 	 7.98439
| 17> H 	 -76.7629 	 3.2149 	 8.67586
| 18> H 	 -76.4907 	 2.81577 	 6.98452
| 19> C 	 -78.1363 	 1.79442 	 7.97415
| 20> H 	 -78.7284 	 2.32296 	 8.75414
| 21> H 	 -78.6738 	 1.85984 	 7.03509
| 22> H 	 -78.2104 	 0.759998 	 8.28583
| 23> S 	 -73.437 	 0.69089 	 3.10588
| 24> C 	 -73.7628 	 0.0810036 	 1.45231
| 25> C 	 -74.7187 	 -0.921777 	 1.50317
| 26> C 	 -75.2345 	 -1.1595 	 2.74564
| 27> C 	 -74.6592 	 -0.394622 	 3.74851
| 28> H 	 -74.9522 	 -1.39733 	 0.569398
| 29> C 	 -76.3893 	 -2.15199 	 2.76594
| 30> H 	 -76.1315 	 -2.95479 	 3.36135
| 31> H 	 -76.5409 	 -2.60641 	 1.76559
| 32> C 	 -77.733 	 -1.47082 	 3.20931
| 33> H 	 -77.9146 	 -0.559184 	 2.72369
| 34> H 	 -77.6223 	 -1.17419 	 4.239
| 35> C 	 -78.991 	 -2.34667 	 3.106
| 36> H 	 -79.7027 	 -1.8416 	 3.76957
| 37> H 	 -78.9728 	 -3.39157 	 3.42743
| 38> H 	 -79.5075 	 -2.40021 	 2.11738
| 39> H 	 -75.3716 	 -1.41149 	 8.64993
| 40> H 	 -73.2188 	 0.480667 	 0.593285
| 41> *
| 42>
| 43>                          ****END OF INPUT****

CARTESIAN COORDINATES (ANGSTROEM)
---------------------------------
  S    -74.772700   -1.784760    6.198230
  C    -75.319100   -0.999431    7.721050
  C    -75.363300    0.358884    7.394490
  C    -75.127500    0.690578    5.995700
  C    -74.881400   -0.374585    5.177070
  H    -75.110700    1.642790    5.575180
  C    -75.724000    1.456150    8.386540
  H    -74.774500    2.062530    8.676980
  H    -76.026200    0.864978    9.189790
  C    -76.771100    2.392850    7.984390
  H    -76.762900    3.214900    8.675860
  H    -76.490700    2.815770    6.984520
  C    -78.136300    1.794420    7.974150
  H    -78.728400    2.322960    8.754140
  H    -78.673800    1.859840    7.035090
  H    -78.210400    0.759998    8.285830
  S    -73.437000    0.690890    3.105880
  C    -73.762800    0.081004    1.452310
  C    -74.718700   -0.921777    1.503170
  C    -75.234500   -1.159500    2.745640
  C    -74.659200   -0.394622    3.748510
  H    -74.952200   -1.397330    0.569398
  C    -76.389300   -2.151990    2.765940
  H    -76.131500   -2.954790    3.361350
  H    -76.540900   -2.606410    1.765590
  C    -77.733000   -1.470820    3.209310
  H    -77.914600   -0.559184    2.723690
  H    -77.622300   -1.174190    4.239000
  C    -78.991000   -2.346670    3.106000
  H    -79.702700   -1.841600    3.769570
  H    -78.972800   -3.391570    3.427430
  H    -79.507500   -2.400210    2.117380
  H    -75.371600   -1.411490    8.649930
  H    -73.218800    0.480667    0.593285

 Total Charge           Charge          ....    0
 Multiplicity           Mult            ....    1
 Number of Electrons    NEL             ....  134
 Basis Dimension        Dim             ....  322

ORBITAL ENERGIES
----------------

  NO   OCC          E(Eh)            E(eV)
   0   2.0000     -88.970054     -2420.9983
   1   2.0000     -88.960704     -2420.7438
   2   2.0000     -10.329941      -281.0920
   3   2.0000     -10.329605      -281.0829
   4   2.0000     -10.323233      -280.9095
   5   2.0000     -10.316136      -280.7163
   6   2.0000     -10.305228      -280.4195
   7   2.0000     -10.300199      -280.2827
   8   2.0000     -10.289894      -280.0023
   9   2.0000     -10.287771      -279.9445
  10   2.0000     -10.287502      -279.9372
  11   2.0000     -10.285904      -279.8937
  12   2.0000     -10.280405      -279.7441
  13   2.0000     -10.278864      -279.7021
  14   2.0000     -10.277143      -279.6553
  15   2.0000     -10.270982      -279.4876
  16   2.0000      -8.083892      -219.9739
  17   2.0000      -8.074721      -219.7243
  18   2.0000      -6.042342      -164.4205
  19   2.0000      -6.038479      -164.3154
  20   2.0000      -6.034826      -164.2160
  21   2.0000      -6.033425      -164.1778
  22   2.0000      -6.029201      -164.0629
  23   2.0000      -6.025386      -163.9591
  24   2.0000      -1.007700       -27.4209
  25   2.0000      -0.983573       -26.7644
  26   2.0000      -0.923014       -25.1165
  27   2.0000      -0.903359       -24.5817
  28   2.0000      -0.875274       -23.8174
  29   2.0000      -0.852396       -23.1949
  30   2.0000      -0.837258       -22.7830
  31   2.0000      -0.818349       -22.2684
  32   2.0000      -0.783404       -21.3175
  33   2.0000      -0.772949       -21.0330
  34   2.0000      -0.715646       -19.4737
  35   2.0000      -0.701700       -19.0942
  36   2.0000      -0.695155       -18.9161
  37   2.0000      -0.670635       -18.2489
  38   2.0000      -0.640003       -17.4154
  39   2.0000      -0.622037       -16.9265
  40   2.0000      -0.599511       -16.3135
  41   2.0000      -0.570554       -15.5256
  42   2.0000      -0.557058       -15.1583
  43   2.0000      -0.554817       -15.0973
  44   2.0000      -0.543702       -14.7949
  45   2.0000      -0.530173       -14.4267
  46   2.0000      -0.525244       -14.2926
  47   2.0000      -0.515081       -14.0161
  48   2.0000      -0.513324       -13.9683
  49   2.0000      -0.499968       -13.6048
  50   2.0000      -0.493216       -13.4211
  51   2.0000      -0.477847       -13.0029
  52   2.0000      -0.469992       -12.7891
  53   2.0000      -0.465845       -12.6763
  54   2.0000      -0.457328       -12.4445
  55   2.0000      -0.448943       -12.2163
  56   2.0000      -0.439361       -11.9556
  57   2.0000      -0.434545       -11.8246
  58   2.0000      -0.430040       -11.7020
  59   2.0000      -0.423275       -11.5179
  60   2.0000      -0.421484       -11.4692
  61   2.0000      -0.406393       -11.0585
  62   2.0000      -0.396797       -10.7974
  63   2.0000      -0.347148        -9.4464
  64   2.0000      -0.337962        -9.1964
  65   2.0000      -0.322376        -8.7723
  66   2.0000      -0.296611        -8.0712
  67   0.0000       0.023771         0.6469
  68   0.0000       0.069234         1.8839
  69   0.0000       0.103326         2.8116
  70   0.0000       0.123419         3.3584
  71   0.0000       0.133422         3.6306

MULLIKEN ATOMIC CHARGES
-----------------------
   0 S :    0.085688
   1 C :   -0.080739
   2 C :   -0.110864
   3 C :    0.035243
   4 C :   -0.127026
   5 H :   -0.015430
   6 C :    0.068214
   7 H :    0.051012
   8 H :   -0.009123
   9 C :   -0.048758
  10 H :    0.023049
  11 H :    0.032147
  12 C :   -0.050361
  13 H :    0.028023
  14 H :    0.036478
  15 H :    0.025324
  16 S :    0.108561
  17 C :   -0.114740
  18 C :   -0.036546
  19 C :   -0.004298
  20 C :   -0.180057
  21 H :    0.017378
  22 C :    0.128495
  23 H :    0.009872
  24 H :    0.016676
  25 C :   -0.053685
  26 H :    0.018156
  27 H :    0.033809
  28 C :   -0.068783
  29 H :    0.028416
  30 H :    0.032312
  31 H :    0.034849
  32 H :    0.020210
  33 H :    0.066500
Sum of atomic charges:   -0.0000000

LOEWDIN ATOMIC CHARGES
----------------------
   0 S :    0.385712
   1 C :   -0.174071
   2 C :   -0.052309
   3 C :   -0.069990
   4 C :   -0.187670
   5 H :    0.016529
   6 C :   -0.035267
   7 H :    0.043807
   8 H :    0.015940
   9 C :   -0.049748
  10 H :    0.024481
  11 H :    0.028240
  12 C :   -0.068900
  13 H :    0.032356
  14 H :    0.028317
  15 H :    0.023837
  16 S :    0.398739
  17 C :   -0.168672
  18 C :   -0.068264
  19 C :   -0.054144
  20 C :   -0.200341
  21 H :    0.033080
  22 C :   -0.017350
  23 H :    0.018556
  24 H :    0.031480
  25 C :   -0.030786
  26 H :    0.020902
  27 H :    0.026280
  28 C :   -0.076398
  29 H :    0.030346
  30 H :    0.024840
  31 H :    0.026453
  32 H :    0.012827
  33 H :    0.031189

  Mayer bond orders larger than 0.100000
B(  0-S ,  1-C ) :   1.1137 B(  0-S ,  4-C ) :   1.1442 B(  1-C ,  2-C ) :   1.6019
B(  1-C , 32-H ) :   0.9864 B(  2-C ,  3-C ) :   1.2114 B(  2-C ,  6-C ) :   1.0271
B(  3-C ,  4-C ) :   1.5816 B(  3-C ,  5-H ) :   1.0052 B(  4-C , 20-C ) :   1.0516
B(  6-C ,  7-H ) :   0.9299 B(  6-C ,  8-H ) :   0.9392 B(  6-C ,  9-C ) :   1.0978
B(  9-C , 10-H ) :   0.9559 B(  9-C , 11-H ) :   0.9511 B(  9-C , 12-C ) :   1.0574
B( 12-C , 13-H ) :   0.9768 B( 12-C , 14-H ) :   0.9745 B( 12-C , 15-H ) :   0.9809
B( 16-S , 17-C ) :   1.1612 B( 16-S , 20-C ) :   1.1497 B( 17-C , 18-C ) :   1.5704
B( 17-C , 20-C ) :   0.1165 B( 17-C , 33-H ) :   0.9686 B( 18-C , 19-C ) :   1.2800
B( 18-C , 21-H ) :   0.9962 B( 19-C , 20-C ) :   1.5455 B( 19-C , 22-C ) :   1.0360
B( 22-C , 23-H ) :   0.9172 B( 22-C , 24-H ) :   0.9416 B( 22-C , 25-C ) :   1.0574
B( 25-C , 26-H ) :   0.9552 B( 25-C , 27-H ) :   0.9576 B( 25-C , 28-C ) :   1.0818
B( 28-C , 29-H ) :   0.9740 B( 28-C , 30-H ) :   0.9759 B( 28-C , 31-H ) :   0.9765

Dispersion correction           -0.014594157
FINAL SINGLE POINT ENERGY     -1339.856504528558

DIPOLE MOMENT
-------------
                                X             Y             Z
Electronic contribution:     23.42221      -3.14590      -6.08670
Nuclear contribution   :    -23.78297       3.35635       6.01880
                        -----------------------------------------
Total Dipole Moment    :     -0.36076       0.21044      -0.06790
                        -----------------------------------------
Magnitude (a.u.)       :      0.42313
Magnitude (Debye)      :      1.07552

Rotational constants in cm-1:     0.017561     0.009175     0.007705
Rotational constants in MHz :   526.453203   275.054621   230.982600

                             ****ORCA TERMINATED NORMALLY****
TOTAL RUN TIME: 0 days 0 hours 0 minutes 20 seconds 903 msec
