                         Program Version 4.2.1 -  RELEASE  -
|  1> ! wB97X-D3 SP def2-SVP
|  2> %pal
|  3> nprocs 24
|  4> end
|  5>
|  6> * xyz 0 1
|  7> S 	 30.1076 	 -2.01608 	 -118.048
|  8> C 	 28.9313 	 -0.753191 	 -118.347
|  9> C 	 28.1685 	 -0.44675 	 -117.231
| 10> C 	 28.7674 	 -1.15179 	 -116.084
| 11> C 	 29.7103 	 -2.11569 	 -116.325
| 12> H 	 28.4002 	 -1.18859 	 -115.068
| 13> C 	 26.9674 	 0.458131 	 -117.07
| 14> H 	 27.2112 	 1.25877 	 -116.319
| 15> H 	 26.1018 	 -0.131207 	 -116.754
| 16> C 	 26.4024 	 1.14132 	 -118.378
| 17> H 	 27.0915 	 1.97582 	 -118.738
| 18> H 	 26.4974 	 0.406091 	 -119.154
| 19> C 	 24.9287 	 1.61042 	 -118.305
| 20> H 	 24.8186 	 2.41468 	 -117.575
| 21> H 	 24.6945 	 2.00549 	 -119.313
| 22> H 	 24.2906 	 0.780155 	 -117.97
| 23> S 	 30.5614 	 -4.64013 	 -115.555
| 24> C 	 31.3201 	 -4.9191 	 -114.04
| 25> C 	 31.5652 	 -3.66403 	 -113.437
| 26> C 	 31.1144 	 -2.53924 	 -114.176
| 27> C 	 30.4823 	 -2.92003 	 -115.375
| 28> H 	 32.1675 	 -3.76085 	 -112.586
| 29> C 	 31.0761 	 -1.18703 	 -113.535
| 30> H 	 30.991 	 -0.434339 	 -114.281
| 31> H 	 31.8758 	 -0.935159 	 -112.954
| 32> C 	 29.9766 	 -1.22729 	 -112.578
| 33> H 	 30.1674 	 -1.99705 	 -111.781
| 34> H 	 29.0411 	 -1.45414 	 -113.003
| 35> C 	 29.8311 	 0.166078 	 -111.862
| 36> H 	 29.5903 	 1.02895 	 -112.493
| 37> H 	 30.6947 	 0.43041 	 -111.377
| 38> H 	 29.0132 	 0.0783824 	 -111.12
| 39> H 	 28.7708 	 -0.306996 	 -119.291
| 40> H 	 31.4972 	 -5.89775 	 -113.625
| 41> *
| 42>
| 43>                          ****END OF INPUT****

CARTESIAN COORDINATES (ANGSTROEM)
---------------------------------
  S     30.107600   -2.016080  -118.048000
  C     28.931300   -0.753191  -118.347000
  C     28.168500   -0.446750  -117.231000
  C     28.767400   -1.151790  -116.084000
  C     29.710300   -2.115690  -116.325000
  H     28.400200   -1.188590  -115.068000
  C     26.967400    0.458131  -117.070000
  H     27.211200    1.258770  -116.319000
  H     26.101800   -0.131207  -116.754000
  C     26.402400    1.141320  -118.378000
  H     27.091500    1.975820  -118.738000
  H     26.497400    0.406091  -119.154000
  C     24.928700    1.610420  -118.305000
  H     24.818600    2.414680  -117.575000
  H     24.694500    2.005490  -119.313000
  H     24.290600    0.780155  -117.970000
  S     30.561400   -4.640130  -115.555000
  C     31.320100   -4.919100  -114.040000
  C     31.565200   -3.664030  -113.437000
  C     31.114400   -2.539240  -114.176000
  C     30.482300   -2.920030  -115.375000
  H     32.167500   -3.760850  -112.586000
  C     31.076100   -1.187030  -113.535000
  H     30.991000   -0.434339  -114.281000
  H     31.875800   -0.935159  -112.954000
  C     29.976600   -1.227290  -112.578000
  H     30.167400   -1.997050  -111.781000
  H     29.041100   -1.454140  -113.003000
  C     29.831100    0.166078  -111.862000
  H     29.590300    1.028950  -112.493000
  H     30.694700    0.430410  -111.377000
  H     29.013200    0.078382  -111.120000
  H     28.770800   -0.306996  -119.291000
  H     31.497200   -5.897750  -113.625000

 Total Charge           Charge          ....    0
 Multiplicity           Mult            ....    1
 Number of Electrons    NEL             ....  134
 Basis Dimension        Dim             ....  322

ORBITAL ENERGIES
----------------

  NO   OCC          E(Eh)            E(eV)
   0   2.0000     -88.965291     -2420.8687
   1   2.0000     -88.960992     -2420.7517
   2   2.0000     -10.330595      -281.1098
   3   2.0000     -10.328524      -281.0534
   4   2.0000     -10.319025      -280.7950
   5   2.0000     -10.314850      -280.6813
   6   2.0000     -10.309432      -280.5339
   7   2.0000     -10.306015      -280.4409
   8   2.0000     -10.302926      -280.3569
   9   2.0000     -10.294559      -280.1292
  10   2.0000     -10.294542      -280.1287
  11   2.0000     -10.291932      -280.0577
  12   2.0000     -10.287762      -279.9442
  13   2.0000     -10.282579      -279.8032
  14   2.0000     -10.275127      -279.6004
  15   2.0000     -10.272927      -279.5406
  16   2.0000      -8.080788      -219.8894
  17   2.0000      -8.075699      -219.7509
  18   2.0000      -6.039109      -164.3325
  19   2.0000      -6.034933      -164.2189
  20   2.0000      -6.034347      -164.2029
  21   2.0000      -6.031955      -164.1378
  22   2.0000      -6.030213      -164.0904
  23   2.0000      -6.026291      -163.9837
  24   2.0000      -1.007195       -27.4072
  25   2.0000      -0.983643       -26.7663
  26   2.0000      -0.927199       -25.2304
  27   2.0000      -0.906546       -24.6684
  28   2.0000      -0.869112       -23.6497
  29   2.0000      -0.848870       -23.0989
  30   2.0000      -0.843686       -22.9578
  31   2.0000      -0.815262       -22.1844
  32   2.0000      -0.785026       -21.3616
  33   2.0000      -0.773915       -21.0593
  34   2.0000      -0.709357       -19.3026
  35   2.0000      -0.704916       -19.1817
  36   2.0000      -0.693513       -18.8715
  37   2.0000      -0.667448       -18.1622
  38   2.0000      -0.643290       -17.5048
  39   2.0000      -0.613963       -16.7068
  40   2.0000      -0.600098       -16.3295
  41   2.0000      -0.579004       -15.7555
  42   2.0000      -0.569827       -15.5058
  43   2.0000      -0.568463       -15.4687
  44   2.0000      -0.531167       -14.4538
  45   2.0000      -0.521655       -14.1949
  46   2.0000      -0.517519       -14.0824
  47   2.0000      -0.514317       -13.9953
  48   2.0000      -0.508703       -13.8425
  49   2.0000      -0.501749       -13.6533
  50   2.0000      -0.500464       -13.6183
  51   2.0000      -0.480934       -13.0869
  52   2.0000      -0.475179       -12.9303
  53   2.0000      -0.465593       -12.6694
  54   2.0000      -0.460246       -12.5239
  55   2.0000      -0.450676       -12.2635
  56   2.0000      -0.444538       -12.0965
  57   2.0000      -0.433526       -11.7969
  58   2.0000      -0.426794       -11.6136
  59   2.0000      -0.425078       -11.5670
  60   2.0000      -0.421532       -11.4705
  61   2.0000      -0.418089       -11.3768
  62   2.0000      -0.414625       -11.2825
  63   2.0000      -0.347994        -9.4694
  64   2.0000      -0.328730        -8.9452
  65   2.0000      -0.325359        -8.8535
  66   2.0000      -0.294847        -8.0232
  67   0.0000       0.035389         0.9630
  68   0.0000       0.067539         1.8378
  69   0.0000       0.117480         3.1968
  70   0.0000       0.125648         3.4190
  71   0.0000       0.127068         3.4577

MULLIKEN ATOMIC CHARGES
-----------------------
   0 S :    0.097070
   1 C :   -0.111676
   2 C :   -0.077053
   3 C :    0.000384
   4 C :   -0.118357
   5 H :    0.000476
   6 C :    0.053632
   7 H :    0.054245
   8 H :    0.038703
   9 C :   -0.134372
  10 H :    0.039362
  11 H :    0.024566
  12 C :   -0.043888
  13 H :    0.035163
  14 H :    0.046805
  15 H :    0.041672
  16 S :    0.118229
  17 C :   -0.107075
  18 C :   -0.049959
  19 C :   -0.015229
  20 C :   -0.169546
  21 H :    0.006965
  22 C :    0.172138
  23 H :    0.018743
  24 H :   -0.015741
  25 C :   -0.107278
  26 H :    0.036808
  27 H :    0.016367
  28 C :   -0.018930
  29 H :    0.028949
  30 H :    0.007186
  31 H :    0.031664
  32 H :    0.036720
  33 H :    0.063260
Sum of atomic charges:   -0.0000000

LOEWDIN ATOMIC CHARGES
----------------------
   0 S :    0.386864
   1 C :   -0.186888
   2 C :   -0.062434
   3 C :   -0.065024
   4 C :   -0.187393
   5 H :    0.025967
   6 C :   -0.036855
   7 H :    0.041125
   8 H :    0.035961
   9 C :   -0.049766
  10 H :    0.027850
  11 H :    0.015876
  12 C :   -0.063560
  13 H :    0.024506
  14 H :    0.034648
  15 H :    0.027639
  16 S :    0.436038
  17 C :   -0.193975
  18 C :   -0.071251
  19 C :   -0.040123
  20 C :   -0.217036
  21 H :    0.023063
  22 C :   -0.024610
  23 H :    0.028685
  24 H :    0.020892
  25 C :   -0.026989
  26 H :    0.032427
  27 H :    0.010966
  28 C :   -0.060242
  29 H :    0.025766
  30 H :    0.008851
  31 H :    0.028596
  32 H :    0.019668
  33 H :    0.030757

  Mayer bond orders larger than 0.100000
B(  0-S ,  1-C ) :   1.1381 B(  0-S ,  4-C ) :   1.1202 B(  1-C ,  2-C ) :   1.6345
B(  1-C , 32-H ) :   0.9663 B(  2-C ,  3-C ) :   1.2028 B(  2-C ,  6-C ) :   1.0209
B(  3-C ,  4-C ) :   1.6384 B(  3-C ,  5-H ) :   0.9892 B(  4-C , 20-C ) :   1.0189
B(  6-C ,  7-H ) :   0.9385 B(  6-C ,  8-H ) :   0.9399 B(  6-C ,  9-C ) :   1.0643
B(  9-C , 10-H ) :   0.9543 B(  9-C , 11-H ) :   0.9550 B(  9-C , 12-C ) :   1.0839
B( 12-C , 13-H ) :   0.9773 B( 12-C , 14-H ) :   0.9726 B( 12-C , 15-H ) :   0.9731
B( 16-S , 17-C ) :   1.1893 B( 16-S , 20-C ) :   1.1658 B( 17-C , 18-C ) :   1.5549
B( 17-C , 20-C ) :   0.1096 B( 17-C , 33-H ) :   0.9727 B( 18-C , 19-C ) :   1.2521
B( 18-C , 21-H ) :   1.0030 B( 19-C , 20-C ) :   1.5412 B( 19-C , 22-C ) :   1.0716
B( 22-C , 23-H ) :   0.9239 B( 22-C , 24-H ) :   0.9136 B( 22-C , 25-C ) :   1.0663
B( 25-C , 26-H ) :   0.9492 B( 25-C , 27-H ) :   0.9529 B( 25-C , 28-C ) :   1.0790
B( 28-C , 29-H ) :   0.9749 B( 28-C , 30-H ) :   0.9730 B( 28-C , 31-H ) :   0.9747

Dispersion correction           -0.013983170
FINAL SINGLE POINT ENERGY     -1339.865851796354

DIPOLE MOMENT
-------------
                                X             Y             Z
Electronic contribution:     16.03504     -23.28799      -9.84429
Nuclear contribution   :    -16.35269      23.71362      10.34898
                        -----------------------------------------
Total Dipole Moment    :     -0.31765       0.42563       0.50468
                        -----------------------------------------
Magnitude (a.u.)       :      0.73265
Magnitude (Debye)      :      1.86224

Rotational constants in cm-1:     0.019999     0.007809     0.006090
Rotational constants in MHz :   599.559935   234.103236   182.562588

                             ****ORCA TERMINATED NORMALLY****
TOTAL RUN TIME: 0 days 0 hours 0 minutes 21 seconds 400 msec
