                         Program Version 4.2.1 -  RELEASE  -
|  1> ! wB97X-D3 SP def2-SVP
|  2> %pal
|  3> nprocs 24
|  4> end
|  5>
|  6> * xyz 0 1
|  7> S 	 -38.0095 	 -49.7404 	 -72.8604
|  8> C 	 -39.0321 	 -48.9342 	 -73.998
|  9> C 	 -40.1314 	 -48.3491 	 -73.3753
| 10> C 	 -40.2853 	 -48.726 	 -71.987
| 11> C 	 -39.2058 	 -49.4952 	 -71.5939
| 12> H 	 -41.0786 	 -48.4209 	 -71.2903
| 13> C 	 -41.1289 	 -47.4192 	 -74.022
| 14> H 	 -40.5897 	 -46.8206 	 -74.7384
| 15> H 	 -41.6026 	 -46.7055 	 -73.311
| 16> C 	 -42.3949 	 -48.0823 	 -74.5879
| 17> H 	 -42.9295 	 -47.2937 	 -75.1794
| 18> H 	 -42.0577 	 -48.8545 	 -75.2019
| 19> C 	 -43.3294 	 -48.535 	 -73.4792
| 20> H 	 -44.213 	 -49.0694 	 -73.6556
| 21> H 	 -42.7689 	 -49.2988 	 -72.8501
| 22> H 	 -43.6253 	 -47.7198 	 -72.812
| 23> S 	 -37.388 	 -49.471 	 -69.6785
| 24> C 	 -37.5932 	 -50.3698 	 -68.2391
| 25> C 	 -38.8796 	 -50.882 	 -68.1236
| 26> C 	 -39.6291 	 -50.7359 	 -69.3676
| 27> C 	 -38.8524 	 -50.0705 	 -70.3113
| 28> H 	 -39.2488 	 -51.4399 	 -67.332
| 29> C 	 -41.0167 	 -51.2335 	 -69.5078
| 30> H 	 -40.8343 	 -52.328 	 -69.5778
| 31> H 	 -41.465 	 -50.9577 	 -70.4493
| 32> C 	 -41.9829 	 -51.1628 	 -68.4211
| 33> H 	 -42.2568 	 -50.1479 	 -68.0408
| 34> H 	 -41.5415 	 -51.7462 	 -67.5264
| 35> C 	 -43.4162 	 -51.6253 	 -68.825
| 36> H 	 -43.398 	 -52.6427 	 -69.2238
| 37> H 	 -43.9278 	 -50.9905 	 -69.5068
| 38> H 	 -44.0695 	 -51.6245 	 -67.9408
| 39> H 	 -38.7442 	 -48.8807 	 -75.0507
| 40> H 	 -36.8348 	 -50.4439 	 -67.4653
| 41> *
| 42>
| 43>                          ****END OF INPUT****

CARTESIAN COORDINATES (ANGSTROEM)
---------------------------------
  S    -38.009500  -49.740400  -72.860400
  C    -39.032100  -48.934200  -73.998000
  C    -40.131400  -48.349100  -73.375300
  C    -40.285300  -48.726000  -71.987000
  C    -39.205800  -49.495200  -71.593900
  H    -41.078600  -48.420900  -71.290300
  C    -41.128900  -47.419200  -74.022000
  H    -40.589700  -46.820600  -74.738400
  H    -41.602600  -46.705500  -73.311000
  C    -42.394900  -48.082300  -74.587900
  H    -42.929500  -47.293700  -75.179400
  H    -42.057700  -48.854500  -75.201900
  C    -43.329400  -48.535000  -73.479200
  H    -44.213000  -49.069400  -73.655600
  H    -42.768900  -49.298800  -72.850100
  H    -43.625300  -47.719800  -72.812000
  S    -37.388000  -49.471000  -69.678500
  C    -37.593200  -50.369800  -68.239100
  C    -38.879600  -50.882000  -68.123600
  C    -39.629100  -50.735900  -69.367600
  C    -38.852400  -50.070500  -70.311300
  H    -39.248800  -51.439900  -67.332000
  C    -41.016700  -51.233500  -69.507800
  H    -40.834300  -52.328000  -69.577800
  H    -41.465000  -50.957700  -70.449300
  C    -41.982900  -51.162800  -68.421100
  H    -42.256800  -50.147900  -68.040800
  H    -41.541500  -51.746200  -67.526400
  C    -43.416200  -51.625300  -68.825000
  H    -43.398000  -52.642700  -69.223800
  H    -43.927800  -50.990500  -69.506800
  H    -44.069500  -51.624500  -67.940800
  H    -38.744200  -48.880700  -75.050700
  H    -36.834800  -50.443900  -67.465300

 Total Charge           Charge          ....    0
 Multiplicity           Mult            ....    1
 Number of Electrons    NEL             ....  134
 Basis Dimension        Dim             ....  322

ORBITAL ENERGIES
----------------

  NO   OCC          E(Eh)            E(eV)
   0   2.0000     -88.963642     -2420.8238
   1   2.0000     -88.962671     -2420.7974
   2   2.0000     -10.326376      -280.9950
   3   2.0000     -10.316363      -280.7225
   4   2.0000     -10.314199      -280.6636
   5   2.0000     -10.314070      -280.6601
   6   2.0000     -10.303526      -280.3732
   7   2.0000     -10.302434      -280.3435
   8   2.0000     -10.297927      -280.2208
   9   2.0000     -10.296232      -280.1747
  10   2.0000     -10.290472      -280.0180
  11   2.0000     -10.289359      -279.9877
  12   2.0000     -10.286621      -279.9132
  13   2.0000     -10.285365      -279.8790
  14   2.0000     -10.281029      -279.7610
  15   2.0000     -10.277789      -279.6729
  16   2.0000      -8.079147      -219.8448
  17   2.0000      -8.078915      -219.8385
  18   2.0000      -6.037545      -164.2899
  19   2.0000      -6.037350      -164.2847
  20   2.0000      -6.033424      -164.1778
  21   2.0000      -6.033336      -164.1754
  22   2.0000      -6.029890      -164.0816
  23   2.0000      -6.029734      -164.0774
  24   2.0000      -1.012303       -27.5462
  25   2.0000      -0.985087       -26.8056
  26   2.0000      -0.922666       -25.1070
  27   2.0000      -0.914432       -24.8830
  28   2.0000      -0.868788       -23.6409
  29   2.0000      -0.854928       -23.2638
  30   2.0000      -0.845262       -23.0008
  31   2.0000      -0.813882       -22.1469
  32   2.0000      -0.786908       -21.4129
  33   2.0000      -0.771833       -21.0026
  34   2.0000      -0.706441       -19.2232
  35   2.0000      -0.700355       -19.0576
  36   2.0000      -0.691032       -18.8039
  37   2.0000      -0.663420       -18.0526
  38   2.0000      -0.643210       -17.5026
  39   2.0000      -0.617729       -16.8092
  40   2.0000      -0.604269       -16.4430
  41   2.0000      -0.577227       -15.7072
  42   2.0000      -0.573321       -15.6009
  43   2.0000      -0.550611       -14.9829
  44   2.0000      -0.539099       -14.6696
  45   2.0000      -0.525643       -14.3035
  46   2.0000      -0.519460       -14.1352
  47   2.0000      -0.511486       -13.9182
  48   2.0000      -0.506084       -13.7712
  49   2.0000      -0.494461       -13.4550
  50   2.0000      -0.489478       -13.3194
  51   2.0000      -0.485262       -13.2047
  52   2.0000      -0.474014       -12.8986
  53   2.0000      -0.462587       -12.5876
  54   2.0000      -0.457714       -12.4550
  55   2.0000      -0.457210       -12.4413
  56   2.0000      -0.447336       -12.1726
  57   2.0000      -0.441924       -12.0254
  58   2.0000      -0.437209       -11.8971
  59   2.0000      -0.426165       -11.5966
  60   2.0000      -0.423034       -11.5113
  61   2.0000      -0.408566       -11.1176
  62   2.0000      -0.406140       -11.0516
  63   2.0000      -0.345977        -9.4145
  64   2.0000      -0.329106        -8.9554
  65   2.0000      -0.323711        -8.8086
  66   2.0000      -0.289141        -7.8679
  67   0.0000       0.035673         0.9707
  68   0.0000       0.069325         1.8864
  69   0.0000       0.107132         2.9152
  70   0.0000       0.118979         3.2376
  71   0.0000       0.124918         3.3992

MULLIKEN ATOMIC CHARGES
-----------------------
   0 S :    0.107652
   1 C :   -0.124317
   2 C :   -0.093801
   3 C :    0.039798
   4 C :   -0.180358
   5 H :    0.029964
   6 C :    0.037584
   7 H :    0.024553
   8 H :    0.021924
   9 C :   -0.017049
  10 H :    0.037156
  11 H :    0.016922
  12 C :   -0.070446
  13 H :    0.023971
  14 H :    0.030798
  15 H :    0.024101
  16 S :    0.122338
  17 C :   -0.080803
  18 C :   -0.016969
  19 C :   -0.024563
  20 C :   -0.143611
  21 H :   -0.009693
  22 C :    0.086533
  23 H :    0.037554
  24 H :    0.011355
  25 C :   -0.120055
  26 H :    0.032011
  27 H :    0.041047
  28 C :   -0.045211
  29 H :    0.027557
  30 H :    0.030326
  31 H :    0.033202
  32 H :    0.054741
  33 H :    0.055790
Sum of atomic charges:    0.0000000

LOEWDIN ATOMIC CHARGES
----------------------
   0 S :    0.410074
   1 C :   -0.207428
   2 C :   -0.061182
   3 C :   -0.063630
   4 C :   -0.188063
   5 H :    0.039549
   6 C :   -0.034393
   7 H :    0.027552
   8 H :    0.032837
   9 C :   -0.031193
  10 H :    0.029320
  11 H :    0.014231
  12 C :   -0.073300
  13 H :    0.018402
  14 H :    0.032132
  15 H :    0.024007
  16 S :    0.442723
  17 C :   -0.194829
  18 C :   -0.061129
  19 C :   -0.049066
  20 C :   -0.227787
  21 H :    0.015956
  22 C :   -0.047244
  23 H :    0.048244
  24 H :    0.026943
  25 C :   -0.047985
  26 H :    0.025223
  27 H :    0.030469
  28 C :   -0.061191
  29 H :    0.022093
  30 H :    0.021159
  31 H :    0.030380
  32 H :    0.029350
  33 H :    0.027779

  Mayer bond orders larger than 0.100000
B(  0-S ,  1-C ) :   1.1388 B(  0-S ,  4-C ) :   1.1634 B(  1-C ,  2-C ) :   1.6081
B(  1-C , 32-H ) :   0.9722 B(  2-C ,  3-C ) :   1.2138 B(  2-C ,  6-C ) :   1.0307
B(  3-C ,  4-C ) :   1.5855 B(  3-C ,  5-H ) :   0.9908 B(  4-C , 20-C ) :   0.9927
B(  6-C ,  7-H ) :   0.9418 B(  6-C ,  8-H ) :   0.9458 B(  6-C ,  9-C ) :   1.0596
B(  9-C , 10-H ) :   0.9556 B(  9-C , 11-H ) :   0.9553 B(  9-C , 12-C ) :   1.0764
B( 12-C , 13-H ) :   0.9733 B( 12-C , 14-H ) :   0.9689 B( 12-C , 15-H ) :   0.9723
B( 16-S , 17-C ) :   1.1665 B( 16-S , 20-C ) :   1.1626 B( 17-C , 18-C ) :   1.5852
B( 17-C , 33-H ) :   0.9701 B( 18-C , 19-C ) :   1.2379 B( 18-C , 21-H ) :   1.0004
B( 19-C , 20-C ) :   1.5977 B( 19-C , 22-C ) :   1.0527 B( 22-C , 23-H ) :   0.9097
B( 22-C , 24-H ) :   0.9391 B( 22-C , 25-C ) :   1.0721 B( 25-C , 26-H ) :   0.9562
B( 25-C , 27-H ) :   0.9427 B( 25-C , 28-C ) :   1.0810 B( 28-C , 29-H ) :   0.9743
B( 28-C , 30-H ) :   0.9752 B( 28-C , 31-H ) :   0.9739

Dispersion correction           -0.014239445
FINAL SINGLE POINT ENERGY     -1339.868961571013

DIPOLE MOMENT
-------------
                                X             Y             Z
Electronic contribution:     31.00403       1.25893       0.18588
Nuclear contribution   :    -31.64325      -1.23993      -0.08298
                        -----------------------------------------
Total Dipole Moment    :     -0.63922       0.01900       0.10290
                        -----------------------------------------
Magnitude (a.u.)       :      0.64773
Magnitude (Debye)      :      1.64640

Rotational constants in cm-1:     0.016277     0.010302     0.006756
Rotational constants in MHz :   487.984446   308.849988   202.538940

                             ****ORCA TERMINATED NORMALLY****
TOTAL RUN TIME: 0 days 0 hours 0 minutes 21 seconds 974 msec
