                         Program Version 4.2.1 -  RELEASE  -
|  1> ! wB97X-D3 SP def2-SVP
|  2> %pal
|  3> nprocs 24
|  4> end
|  5>
|  6> * xyz 0 1
|  7> S 	 49.3686 	 -13.7206 	 -109.098
|  8> C 	 49.1313 	 -12.4953 	 -110.327
|  9> C 	 48.3153 	 -11.5008 	 -109.782
| 10> C 	 47.9159 	 -11.7254 	 -108.397
| 11> C 	 48.4318 	 -12.8603 	 -107.847
| 12> H 	 47.2181 	 -11.1533 	 -107.828
| 13> C 	 47.8114 	 -10.3637 	 -110.51
| 14> H 	 48.7427 	 -9.77506 	 -110.65
| 15> H 	 47.0571 	 -10.0256 	 -109.862
| 16> C 	 47.1595 	 -10.6058 	 -111.839
| 17> H 	 47.9738 	 -10.6042 	 -112.622
| 18> H 	 46.772 	 -11.6651 	 -111.867
| 19> C 	 46.176 	 -9.48929 	 -112.297
| 20> H 	 45.7439 	 -9.49922 	 -113.274
| 21> H 	 45.3482 	 -9.492 	 -111.541
| 22> H 	 46.5151 	 -8.47205 	 -112.199
| 23> S 	 46.8325 	 -14.4879 	 -106.184
| 24> C 	 47.3431 	 -14.6031 	 -104.584
| 25> C 	 48.3132 	 -13.7736 	 -104.258
| 26> C 	 48.9103 	 -13.1424 	 -105.361
| 27> C 	 48.1818 	 -13.4158 	 -106.494
| 28> H 	 48.6806 	 -13.7641 	 -103.25
| 29> C 	 50.1647 	 -12.2632 	 -105.106
| 30> H 	 49.734 	 -11.3474 	 -104.598
| 31> H 	 50.4987 	 -12.0299 	 -106.116
| 32> C 	 51.3917 	 -12.8847 	 -104.463
| 33> H 	 51.2947 	 -12.9444 	 -103.354
| 34> H 	 52.2897 	 -12.2359 	 -104.581
| 35> C 	 51.7881 	 -14.3535 	 -104.889
| 36> H 	 51.4356 	 -14.3865 	 -105.961
| 37> H 	 51.2035 	 -15.1453 	 -104.395
| 38> H 	 52.841 	 -14.5005 	 -104.873
| 39> H 	 49.6636 	 -12.4635 	 -111.304
| 40> H 	 46.9881 	 -15.3161 	 -103.811
| 41> *
| 42>
| 43>                          ****END OF INPUT****

CARTESIAN COORDINATES (ANGSTROEM)
---------------------------------
  S     49.368600  -13.720600  -109.098000
  C     49.131300  -12.495300  -110.327000
  C     48.315300  -11.500800  -109.782000
  C     47.915900  -11.725400  -108.397000
  C     48.431800  -12.860300  -107.847000
  H     47.218100  -11.153300  -107.828000
  C     47.811400  -10.363700  -110.510000
  H     48.742700   -9.775060  -110.650000
  H     47.057100  -10.025600  -109.862000
  C     47.159500  -10.605800  -111.839000
  H     47.973800  -10.604200  -112.622000
  H     46.772000  -11.665100  -111.867000
  C     46.176000   -9.489290  -112.297000
  H     45.743900   -9.499220  -113.274000
  H     45.348200   -9.492000  -111.541000
  H     46.515100   -8.472050  -112.199000
  S     46.832500  -14.487900  -106.184000
  C     47.343100  -14.603100  -104.584000
  C     48.313200  -13.773600  -104.258000
  C     48.910300  -13.142400  -105.361000
  C     48.181800  -13.415800  -106.494000
  H     48.680600  -13.764100  -103.250000
  C     50.164700  -12.263200  -105.106000
  H     49.734000  -11.347400  -104.598000
  H     50.498700  -12.029900  -106.116000
  C     51.391700  -12.884700  -104.463000
  H     51.294700  -12.944400  -103.354000
  H     52.289700  -12.235900  -104.581000
  C     51.788100  -14.353500  -104.889000
  H     51.435600  -14.386500  -105.961000
  H     51.203500  -15.145300  -104.395000
  H     52.841000  -14.500500  -104.873000
  H     49.663600  -12.463500  -111.304000
  H     46.988100  -15.316100  -103.811000

 Total Charge           Charge          ....    0
 Multiplicity           Mult            ....    1
 Number of Electrons    NEL             ....  134
 Basis Dimension        Dim             ....  322

ORBITAL ENERGIES
----------------

  NO   OCC          E(Eh)            E(eV)
   0   2.0000     -88.967041     -2420.9163
   1   2.0000     -88.959852     -2420.7206
   2   2.0000     -10.328827      -281.0617
   3   2.0000     -10.324822      -280.9527
   4   2.0000     -10.316976      -280.7392
   5   2.0000     -10.306933      -280.4659
   6   2.0000     -10.300830      -280.2998
   7   2.0000     -10.298750      -280.2432
   8   2.0000     -10.298251      -280.2297
   9   2.0000     -10.293613      -280.1034
  10   2.0000     -10.293302      -280.0950
  11   2.0000     -10.292239      -280.0661
  12   2.0000     -10.280433      -279.7448
  13   2.0000     -10.280119      -279.7363
  14   2.0000     -10.279211      -279.7115
  15   2.0000     -10.277590      -279.6674
  16   2.0000      -8.083159      -219.9539
  17   2.0000      -8.074019      -219.7052
  18   2.0000      -6.041495      -164.3974
  19   2.0000      -6.037690      -164.2939
  20   2.0000      -6.033788      -164.1877
  21   2.0000      -6.032689      -164.1578
  22   2.0000      -6.028385      -164.0407
  23   2.0000      -6.024854      -163.9446
  24   2.0000      -1.014283       -27.6000
  25   2.0000      -0.987298       -26.8658
  26   2.0000      -0.918924       -25.0052
  27   2.0000      -0.905200       -24.6317
  28   2.0000      -0.867936       -23.6177
  29   2.0000      -0.849172       -23.1072
  30   2.0000      -0.845858       -23.0170
  31   2.0000      -0.818628       -22.2760
  32   2.0000      -0.784184       -21.3387
  33   2.0000      -0.768855       -20.9216
  34   2.0000      -0.709448       -19.3051
  35   2.0000      -0.701791       -19.0967
  36   2.0000      -0.688660       -18.7394
  37   2.0000      -0.654031       -17.7971
  38   2.0000      -0.641869       -17.4661
  39   2.0000      -0.612734       -16.6733
  40   2.0000      -0.592139       -16.1129
  41   2.0000      -0.576914       -15.6986
  42   2.0000      -0.563865       -15.3435
  43   2.0000      -0.555791       -15.1239
  44   2.0000      -0.543784       -14.7971
  45   2.0000      -0.523421       -14.2430
  46   2.0000      -0.517034       -14.0692
  47   2.0000      -0.508452       -13.8357
  48   2.0000      -0.501949       -13.6587
  49   2.0000      -0.498672       -13.5696
  50   2.0000      -0.487569       -13.2674
  51   2.0000      -0.484364       -13.1802
  52   2.0000      -0.469655       -12.7800
  53   2.0000      -0.462085       -12.5740
  54   2.0000      -0.454734       -12.3740
  55   2.0000      -0.453196       -12.3321
  56   2.0000      -0.449279       -12.2255
  57   2.0000      -0.445852       -12.1323
  58   2.0000      -0.433770       -11.8035
  59   2.0000      -0.417194       -11.3524
  60   2.0000      -0.408720       -11.1218
  61   2.0000      -0.405635       -11.0379
  62   2.0000      -0.399923       -10.8825
  63   2.0000      -0.338102        -9.2002
  64   2.0000      -0.330967        -9.0061
  65   2.0000      -0.320522        -8.7219
  66   2.0000      -0.309984        -8.4351
  67   0.0000       0.047654         1.2967
  68   0.0000       0.057345         1.5604
  69   0.0000       0.118544         3.2258
  70   0.0000       0.125419         3.4128
  71   0.0000       0.131723         3.5844

MULLIKEN ATOMIC CHARGES
-----------------------
   0 S :    0.094659
   1 C :   -0.136478
   2 C :   -0.145401
   3 C :    0.056227
   4 C :   -0.171255
   5 H :    0.006228
   6 C :    0.121449
   7 H :    0.054539
   8 H :    0.001640
   9 C :   -0.100668
  10 H :    0.022642
  11 H :    0.047249
  12 C :   -0.046661
  13 H :    0.036454
  14 H :    0.025239
  15 H :    0.022029
  16 S :    0.140414
  17 C :   -0.087653
  18 C :   -0.026742
  19 C :   -0.043155
  20 C :   -0.208341
  21 H :    0.005763
  22 C :    0.098050
  23 H :    0.060068
  24 H :    0.028336
  25 C :   -0.116743
  26 H :    0.026025
  27 H :    0.042322
  28 C :   -0.050335
  29 H :    0.029615
  30 H :    0.043698
  31 H :    0.038574
  32 H :    0.072371
  33 H :    0.059840
Sum of atomic charges:    0.0000000

LOEWDIN ATOMIC CHARGES
----------------------
   0 S :    0.385327
   1 C :   -0.209189
   2 C :   -0.065144
   3 C :   -0.061478
   4 C :   -0.182950
   5 H :    0.029530
   6 C :   -0.042890
   7 H :    0.049619
   8 H :    0.025248
   9 C :   -0.046799
  10 H :    0.023060
  11 H :    0.031520
  12 C :   -0.071046
  13 H :    0.024866
  14 H :    0.027194
  15 H :    0.024919
  16 S :    0.431224
  17 C :   -0.201954
  18 C :   -0.081196
  19 C :   -0.048547
  20 C :   -0.212761
  21 H :    0.029213
  22 C :   -0.032753
  23 H :    0.047864
  24 H :    0.030616
  25 C :   -0.052524
  26 H :    0.019329
  27 H :    0.032489
  28 C :   -0.066802
  29 H :    0.031181
  30 H :    0.028703
  31 H :    0.022661
  32 H :    0.041786
  33 H :    0.039684

  Mayer bond orders larger than 0.100000
B(  0-S ,  1-C ) :   1.1320 B(  0-S ,  4-C ) :   1.1469 B(  1-C ,  2-C ) :   1.5865
B(  1-C , 32-H ) :   0.9699 B(  2-C ,  3-C ) :   1.2307 B(  2-C ,  6-C ) :   1.0354
B(  3-C ,  4-C ) :   1.6127 B(  3-C ,  5-H ) :   0.9933 B(  4-C , 20-C ) :   1.0001
B(  6-C ,  7-H ) :   0.9128 B(  6-C ,  8-H ) :   0.9399 B(  6-C ,  9-C ) :   1.0726
B(  9-C , 10-H ) :   0.9454 B(  9-C , 11-H ) :   0.9635 B(  9-C , 12-C ) :   1.0720
B( 12-C , 13-H ) :   0.9776 B( 12-C , 14-H ) :   0.9754 B( 12-C , 15-H ) :   0.9737
B( 16-S , 17-C ) :   1.1542 B( 16-S , 20-C ) :   1.1457 B( 17-C , 18-C ) :   1.6513
B( 17-C , 33-H ) :   0.9529 B( 18-C , 19-C ) :   1.2289 B( 18-C , 21-H ) :   0.9901
B( 19-C , 20-C ) :   1.6255 B( 19-C , 22-C ) :   1.0233 B( 22-C , 23-H ) :   0.9402
B( 22-C , 24-H ) :   0.9238 B( 22-C , 25-C ) :   1.0695 B( 25-C , 26-H ) :   0.9536
B( 25-C , 27-H ) :   0.9604 B( 25-C , 28-C ) :   1.0676 B( 28-C , 29-H ) :   0.9763
B( 28-C , 30-H ) :   0.9721 B( 28-C , 31-H ) :   0.9770

Dispersion correction           -0.014502702
FINAL SINGLE POINT ENERGY     -1339.853763063087

DIPOLE MOMENT
-------------
                                X             Y             Z
Electronic contribution:     -6.09893     -14.19247       4.78699
Nuclear contribution   :      6.19589      14.63732      -4.62063
                        -----------------------------------------
Total Dipole Moment    :      0.09696       0.44486       0.16636
                        -----------------------------------------
Magnitude (a.u.)       :      0.48474
Magnitude (Debye)      :      1.23211

Rotational constants in cm-1:     0.024258     0.006974     0.006306
Rotational constants in MHz :   727.229001   209.080904   189.062994

                             ****ORCA TERMINATED NORMALLY****
TOTAL RUN TIME: 0 days 0 hours 0 minutes 21 seconds 175 msec
