                         Program Version 4.2.1 -  RELEASE  -
|  1> ! wB97X-D3 SP def2-SVP
|  2> %pal
|  3> nprocs 24
|  4> end
|  5>
|  6> * xyz 0 1
|  7> S 	 -100.496 	 1.63816 	 -122.089
|  8> C 	 -101.671 	 1.50912 	 -120.716
|  9> C 	 -101.777 	 0.253165 	 -120.296
| 10> C 	 -100.985 	 -0.704024 	 -121.032
| 11> C 	 -100.242 	 -0.116364 	 -122.019
| 12> H 	 -100.95 	 -1.74239 	 -120.88
| 13> C 	 -102.658 	 -0.241854 	 -119.127
| 14> H 	 -103.116 	 -1.12047 	 -119.5
| 15> H 	 -103.489 	 0.440789 	 -118.969
| 16> C 	 -102.006 	 -0.382246 	 -117.691
| 17> H 	 -102.692 	 -1.0178 	 -117.138
| 18> H 	 -101.074 	 -0.869098 	 -117.729
| 19> C 	 -101.858 	 0.940077 	 -117.023
| 20> H 	 -101.044 	 1.57744 	 -117.445
| 21> H 	 -102.842 	 1.45619 	 -117.091
| 22> H 	 -101.594 	 0.869977 	 -115.971
| 23> S 	 -99.8004 	 -0.421557 	 -124.768
| 24> C 	 -98.6524 	 -1.5986 	 -125.308
| 25> C 	 -98.0729 	 -2.362 	 -124.258
| 26> C 	 -98.5594 	 -1.91693 	 -122.998
| 27> C 	 -99.5285 	 -0.839455 	 -123.082
| 28> H 	 -97.2766 	 -3.12401 	 -124.528
| 29> C 	 -98.0208 	 -2.4551 	 -121.639
| 30> H 	 -97.4131 	 -3.3054 	 -121.871
| 31> H 	 -98.8109 	 -2.88708 	 -121.029
| 32> C 	 -97.3118 	 -1.41235 	 -120.831
| 33> H 	 -96.8613 	 -1.73842 	 -119.897
| 34> H 	 -98.0921 	 -0.743199 	 -120.5
| 35> C 	 -96.1577 	 -0.64224 	 -121.582
| 36> H 	 -96.5383 	 -0.108809 	 -122.438
| 37> H 	 -95.304 	 -1.23663 	 -121.936
| 38> H 	 -95.6969 	 0.130536 	 -120.942
| 39> H 	 -102.213 	 2.35078 	 -120.308
| 40> H 	 -98.3163 	 -1.7075 	 -126.363
| 41> *
| 42>
| 43>                          ****END OF INPUT****

CARTESIAN COORDINATES (ANGSTROEM)
---------------------------------
  S    -100.496000    1.638160  -122.089000
  C    -101.671000    1.509120  -120.716000
  C    -101.777000    0.253165  -120.296000
  C    -100.985000   -0.704024  -121.032000
  C    -100.242000   -0.116364  -122.019000
  H    -100.950000   -1.742390  -120.880000
  C    -102.658000   -0.241854  -119.127000
  H    -103.116000   -1.120470  -119.500000
  H    -103.489000    0.440789  -118.969000
  C    -102.006000   -0.382246  -117.691000
  H    -102.692000   -1.017800  -117.138000
  H    -101.074000   -0.869098  -117.729000
  C    -101.858000    0.940077  -117.023000
  H    -101.044000    1.577440  -117.445000
  H    -102.842000    1.456190  -117.091000
  H    -101.594000    0.869977  -115.971000
  S    -99.800400   -0.421557  -124.768000
  C    -98.652400   -1.598600  -125.308000
  C    -98.072900   -2.362000  -124.258000
  C    -98.559400   -1.916930  -122.998000
  C    -99.528500   -0.839455  -123.082000
  H    -97.276600   -3.124010  -124.528000
  C    -98.020800   -2.455100  -121.639000
  H    -97.413100   -3.305400  -121.871000
  H    -98.810900   -2.887080  -121.029000
  C    -97.311800   -1.412350  -120.831000
  H    -96.861300   -1.738420  -119.897000
  H    -98.092100   -0.743199  -120.500000
  C    -96.157700   -0.642240  -121.582000
  H    -96.538300   -0.108809  -122.438000
  H    -95.304000   -1.236630  -121.936000
  H    -95.696900    0.130536  -120.942000
  H    -102.213000    2.350780  -120.308000
  H    -98.316300   -1.707500  -126.363000

 Total Charge           Charge          ....    0
 Multiplicity           Mult            ....    1
 Number of Electrons    NEL             ....  134
 Basis Dimension        Dim             ....  322

ORBITAL ENERGIES
----------------

  NO   OCC          E(Eh)            E(eV)
   0   2.0000     -88.972684     -2421.0698
   1   2.0000     -88.965234     -2420.8671
   2   2.0000     -10.333662      -281.1932
   3   2.0000     -10.332351      -281.1576
   4   2.0000     -10.322449      -280.8881
   5   2.0000     -10.314352      -280.6678
   6   2.0000     -10.313095      -280.6336
   7   2.0000     -10.305109      -280.4163
   8   2.0000     -10.299882      -280.2740
   9   2.0000     -10.292602      -280.0759
  10   2.0000     -10.291475      -280.0453
  11   2.0000     -10.288972      -279.9772
  12   2.0000     -10.285709      -279.8884
  13   2.0000     -10.279918      -279.7308
  14   2.0000     -10.279826      -279.7283
  15   2.0000     -10.271061      -279.4898
  16   2.0000      -8.086945      -220.0570
  17   2.0000      -8.078967      -219.8399
  18   2.0000      -6.045323      -164.5016
  19   2.0000      -6.041319      -164.3927
  20   2.0000      -6.038080      -164.3045
  21   2.0000      -6.037702      -164.2942
  22   2.0000      -6.033749      -164.1867
  23   2.0000      -6.029402      -164.0684
  24   2.0000      -1.001324       -27.2474
  25   2.0000      -0.979297       -26.6480
  26   2.0000      -0.910007       -24.7625
  27   2.0000      -0.905120       -24.6296
  28   2.0000      -0.869166       -23.6512
  29   2.0000      -0.845844       -23.0166
  30   2.0000      -0.840747       -22.8779
  31   2.0000      -0.809100       -22.0167
  32   2.0000      -0.783510       -21.3204
  33   2.0000      -0.773724       -21.0541
  34   2.0000      -0.709585       -19.3088
  35   2.0000      -0.700769       -19.0689
  36   2.0000      -0.685995       -18.6669
  37   2.0000      -0.656441       -17.8627
  38   2.0000      -0.640872       -17.4390
  39   2.0000      -0.621579       -16.9140
  40   2.0000      -0.587396       -15.9839
  41   2.0000      -0.569220       -15.4893
  42   2.0000      -0.556182       -15.1345
  43   2.0000      -0.548906       -14.9365
  44   2.0000      -0.543092       -14.7783
  45   2.0000      -0.539433       -14.6787
  46   2.0000      -0.514096       -13.9893
  47   2.0000      -0.502874       -13.6839
  48   2.0000      -0.499157       -13.5828
  49   2.0000      -0.491771       -13.3818
  50   2.0000      -0.484498       -13.1838
  51   2.0000      -0.476142       -12.9565
  52   2.0000      -0.472281       -12.8514
  53   2.0000      -0.463235       -12.6053
  54   2.0000      -0.457147       -12.4396
  55   2.0000      -0.448878       -12.2146
  56   2.0000      -0.443530       -12.0691
  57   2.0000      -0.437816       -11.9136
  58   2.0000      -0.433067       -11.7844
  59   2.0000      -0.431417       -11.7395
  60   2.0000      -0.420358       -11.4385
  61   2.0000      -0.411996       -11.2110
  62   2.0000      -0.408227       -11.1084
  63   2.0000      -0.347551        -9.4574
  64   2.0000      -0.336206        -9.1486
  65   2.0000      -0.332091        -9.0367
  66   2.0000      -0.288798        -7.8586
  67   0.0000       0.022974         0.6252
  68   0.0000       0.071974         1.9585
  69   0.0000       0.107068         2.9135
  70   0.0000       0.123315         3.3556
  71   0.0000       0.129111         3.5133

MULLIKEN ATOMIC CHARGES
-----------------------
   0 S :    0.083812
   1 C :   -0.130609
   2 C :   -0.058222
   3 C :    0.044753
   4 C :   -0.140705
   5 H :   -0.005867
   6 C :    0.061679
   7 H :    0.018248
   8 H :    0.008446
   9 C :   -0.020184
  10 H :    0.029374
  11 H :    0.018015
  12 C :   -0.073307
  13 H :    0.045912
  14 H :    0.026688
  15 H :    0.033745
  16 S :    0.133989
  17 C :   -0.129458
  18 C :   -0.058868
  19 C :   -0.066359
  20 C :   -0.158884
  21 H :    0.052081
  22 C :    0.113906
  23 H :    0.003408
  24 H :    0.024762
  25 C :   -0.060897
  26 H :    0.023411
  27 H :    0.034930
  28 C :   -0.068216
  29 H :    0.038512
  30 H :    0.028648
  31 H :    0.029417
  32 H :    0.044649
  33 H :    0.073192
Sum of atomic charges:   -0.0000000

LOEWDIN ATOMIC CHARGES
----------------------
   0 S :    0.357100
   1 C :   -0.170896
   2 C :   -0.063354
   3 C :   -0.053530
   4 C :   -0.177520
   5 H :    0.024032
   6 C :   -0.023469
   7 H :    0.024359
   8 H :    0.025687
   9 C :   -0.032313
  10 H :    0.026775
  11 H :    0.016839
  12 C :   -0.071185
  13 H :    0.031794
  14 H :    0.025815
  15 H :    0.026111
  16 S :    0.430284
  17 C :   -0.205395
  18 C :   -0.083244
  19 C :   -0.048504
  20 C :   -0.208864
  21 H :    0.048229
  22 C :   -0.029461
  23 H :    0.022952
  24 H :    0.029775
  25 C :   -0.041572
  26 H :    0.023578
  27 H :    0.025660
  28 C :   -0.070390
  29 H :    0.022760
  30 H :    0.023580
  31 H :    0.027554
  32 H :    0.030184
  33 H :    0.036629

  Mayer bond orders larger than 0.100000
B(  0-S ,  1-C ) :   1.0902 B(  0-S ,  4-C ) :   1.1283 B(  1-C ,  2-C ) :   1.6847
B(  1-C , 32-H ) :   0.9683 B(  2-C ,  3-C ) :   1.1884 B(  2-C ,  6-C ) :   1.0118
B(  3-C ,  4-C ) :   1.5995 B(  3-C ,  5-H ) :   1.0027 B(  4-C , 20-C ) :   1.0605
B(  6-C ,  7-H ) :   0.9412 B(  6-C ,  8-H ) :   0.9449 B(  6-C ,  9-C ) :   1.0598
B(  9-C , 10-H ) :   0.9528 B(  9-C , 11-H ) :   0.9564 B(  9-C , 12-C ) :   1.0875
B( 12-C , 13-H ) :   0.9736 B( 12-C , 14-H ) :   0.9733 B( 12-C , 15-H ) :   0.9707
B( 16-S , 17-C ) :   1.1895 B( 16-S , 20-C ) :   1.1591 B( 17-C , 18-C ) :   1.5591
B( 17-C , 20-C ) :   0.1131 B( 17-C , 33-H ) :   0.9603 B( 18-C , 19-C ) :   1.3017
B( 18-C , 21-H ) :   0.9796 B( 19-C , 20-C ) :   1.5166 B( 19-C , 22-C ) :   1.0277
B( 22-C , 23-H ) :   0.9333 B( 22-C , 24-H ) :   0.9354 B( 22-C , 25-C ) :   1.0723
B( 25-C , 26-H ) :   0.9557 B( 25-C , 27-H ) :   0.9499 B( 25-C , 28-C ) :   1.0705
B( 28-C , 29-H ) :   0.9744 B( 28-C , 30-H ) :   0.9781 B( 28-C , 31-H ) :   0.9759

Dispersion correction           -0.015416734
FINAL SINGLE POINT ENERGY     -1339.883192922120

DIPOLE MOMENT
-------------
                                X             Y             Z
Electronic contribution:     -4.45246       5.34069     -24.75499
Nuclear contribution   :      4.44107      -5.72959      25.23334
                        -----------------------------------------
Total Dipole Moment    :     -0.01140      -0.38890       0.47835
                        -----------------------------------------
Magnitude (a.u.)       :      0.61659
Magnitude (Debye)      :      1.56726

Rotational constants in cm-1:     0.022069     0.008475     0.007212
Rotational constants in MHz :   661.621169   254.073772   216.198224

                             ****ORCA TERMINATED NORMALLY****
TOTAL RUN TIME: 0 days 0 hours 0 minutes 22 seconds 354 msec
