                         Program Version 4.2.1 -  RELEASE  -
|  1> ! wB97X-D3 SP def2-SVP
|  2> %pal
|  3> nprocs 24
|  4> end
|  5>
|  6> * xyz 0 1
|  7> S 	 -106.791 	 42.9919 	 -11.2909
|  8> C 	 -107.75 	 44.3763 	 -11.1822
|  9> C 	 -109.039 	 44.0677 	 -10.7491
| 10> C 	 -109.173 	 42.7193 	 -10.2854
| 11> C 	 -107.972 	 42.0273 	 -10.4693
| 12> H 	 -110.075 	 42.2786 	 -9.9091
| 13> C 	 -110.191 	 45.0741 	 -10.5732
| 14> H 	 -109.806 	 46.0525 	 -10.4613
| 15> H 	 -110.722 	 44.7215 	 -9.71188
| 16> C 	 -111.181 	 45.028 	 -11.7759
| 17> H 	 -112.002 	 45.6219 	 -11.5516
| 18> H 	 -110.738 	 45.4452 	 -12.7135
| 19> C 	 -111.782 	 43.6435 	 -12.1093
| 20> H 	 -112.332 	 43.2517 	 -11.2845
| 21> H 	 -112.466 	 43.7082 	 -12.9305
| 22> H 	 -111.01 	 43.0251 	 -12.2853
| 23> S 	 -107.398 	 39.6333 	 -11.858
| 24> C 	 -107.544 	 38.1225 	 -11.0958
| 25> C 	 -107.903 	 38.253 	 -9.76033
| 26> C 	 -107.998 	 39.5957 	 -9.33096
| 27> C 	 -107.735 	 40.5398 	 -10.3426
| 28> H 	 -108.111 	 37.3998 	 -9.21184
| 29> C 	 -108.556 	 39.9899 	 -7.97981
| 30> H 	 -108.659 	 41.0089 	 -7.84915
| 31> H 	 -107.698 	 39.8048 	 -7.30856
| 32> C 	 -109.854 	 39.2131 	 -7.65324
| 33> H 	 -110.141 	 39.4676 	 -6.56637
| 34> H 	 -109.693 	 38.0809 	 -7.67687
| 35> C 	 -111.035 	 39.5413 	 -8.55377
| 36> H 	 -111.822 	 38.9657 	 -8.06498
| 37> H 	 -111.023 	 39.0776 	 -9.58342
| 38> H 	 -111.269 	 40.5853 	 -8.62477
| 39> H 	 -107.448 	 45.3892 	 -11.4383
| 40> H 	 -107.535 	 37.1551 	 -11.5599
| 41> *
| 42>
| 43>                          ****END OF INPUT****

CARTESIAN COORDINATES (ANGSTROEM)
---------------------------------
  S    -106.791000   42.991900  -11.290900
  C    -107.750000   44.376300  -11.182200
  C    -109.039000   44.067700  -10.749100
  C    -109.173000   42.719300  -10.285400
  C    -107.972000   42.027300  -10.469300
  H    -110.075000   42.278600   -9.909100
  C    -110.191000   45.074100  -10.573200
  H    -109.806000   46.052500  -10.461300
  H    -110.722000   44.721500   -9.711880
  C    -111.181000   45.028000  -11.775900
  H    -112.002000   45.621900  -11.551600
  H    -110.738000   45.445200  -12.713500
  C    -111.782000   43.643500  -12.109300
  H    -112.332000   43.251700  -11.284500
  H    -112.466000   43.708200  -12.930500
  H    -111.010000   43.025100  -12.285300
  S    -107.398000   39.633300  -11.858000
  C    -107.544000   38.122500  -11.095800
  C    -107.903000   38.253000   -9.760330
  C    -107.998000   39.595700   -9.330960
  C    -107.735000   40.539800  -10.342600
  H    -108.111000   37.399800   -9.211840
  C    -108.556000   39.989900   -7.979810
  H    -108.659000   41.008900   -7.849150
  H    -107.698000   39.804800   -7.308560
  C    -109.854000   39.213100   -7.653240
  H    -110.141000   39.467600   -6.566370
  H    -109.693000   38.080900   -7.676870
  C    -111.035000   39.541300   -8.553770
  H    -111.822000   38.965700   -8.064980
  H    -111.023000   39.077600   -9.583420
  H    -111.269000   40.585300   -8.624770
  H    -107.448000   45.389200  -11.438300
  H    -107.535000   37.155100  -11.559900

 Total Charge           Charge          ....    0
 Multiplicity           Mult            ....    1
 Number of Electrons    NEL             ....  134
 Basis Dimension        Dim             ....  322

ORBITAL ENERGIES
----------------

  NO   OCC          E(Eh)            E(eV)
   0   2.0000     -88.967939     -2420.9407
   1   2.0000     -88.963046     -2420.8075
   2   2.0000     -10.333778      -281.1964
   3   2.0000     -10.329697      -281.0854
   4   2.0000     -10.312920      -280.6288
   5   2.0000     -10.310616      -280.5661
   6   2.0000     -10.302241      -280.3382
   7   2.0000     -10.301624      -280.3214
   8   2.0000     -10.300547      -280.2921
   9   2.0000     -10.296581      -280.1842
  10   2.0000     -10.289783      -279.9992
  11   2.0000     -10.285604      -279.8855
  12   2.0000     -10.284783      -279.8632
  13   2.0000     -10.281501      -279.7739
  14   2.0000     -10.280495      -279.7465
  15   2.0000     -10.261337      -279.2252
  16   2.0000      -8.083889      -219.9738
  17   2.0000      -8.077877      -219.8102
  18   2.0000      -6.042210      -164.4169
  19   2.0000      -6.038146      -164.3063
  20   2.0000      -6.036323      -164.2567
  21   2.0000      -6.034861      -164.2169
  22   2.0000      -6.032267      -164.1463
  23   2.0000      -6.028800      -164.0520
  24   2.0000      -1.007274       -27.4093
  25   2.0000      -0.986836       -26.8532
  26   2.0000      -0.909953       -24.7611
  27   2.0000      -0.908718       -24.7275
  28   2.0000      -0.863316       -23.4920
  29   2.0000      -0.851023       -23.1575
  30   2.0000      -0.846657       -23.0387
  31   2.0000      -0.815569       -22.1928
  32   2.0000      -0.787926       -21.4406
  33   2.0000      -0.774150       -21.0657
  34   2.0000      -0.702576       -19.1181
  35   2.0000      -0.697564       -18.9817
  36   2.0000      -0.693152       -18.8616
  37   2.0000      -0.654877       -17.8201
  38   2.0000      -0.642429       -17.4814
  39   2.0000      -0.619003       -16.8439
  40   2.0000      -0.599166       -16.3041
  41   2.0000      -0.574169       -15.6239
  42   2.0000      -0.554814       -15.0973
  43   2.0000      -0.552780       -15.0419
  44   2.0000      -0.548846       -14.9349
  45   2.0000      -0.533740       -14.5238
  46   2.0000      -0.522815       -14.2265
  47   2.0000      -0.513973       -13.9859
  48   2.0000      -0.500247       -13.6124
  49   2.0000      -0.497684       -13.5427
  50   2.0000      -0.488134       -13.2828
  51   2.0000      -0.479102       -13.0370
  52   2.0000      -0.472077       -12.8459
  53   2.0000      -0.467355       -12.7174
  54   2.0000      -0.466484       -12.6937
  55   2.0000      -0.451209       -12.2780
  56   2.0000      -0.441852       -12.0234
  57   2.0000      -0.436632       -11.8814
  58   2.0000      -0.434248       -11.8165
  59   2.0000      -0.427828       -11.6418
  60   2.0000      -0.423435       -11.5223
  61   2.0000      -0.415458       -11.3052
  62   2.0000      -0.404153       -10.9976
  63   2.0000      -0.345951        -9.4138
  64   2.0000      -0.328373        -8.9355
  65   2.0000      -0.327996        -8.9252
  66   2.0000      -0.290526        -7.9056
  67   0.0000       0.036718         0.9991
  68   0.0000       0.063269         1.7216
  69   0.0000       0.118763         3.2317
  70   0.0000       0.121154         3.2968
  71   0.0000       0.128468         3.4958

MULLIKEN ATOMIC CHARGES
-----------------------
   0 S :    0.129013
   1 C :   -0.106208
   2 C :   -0.140730
   3 C :    0.056900
   4 C :   -0.162033
   5 H :   -0.006139
   6 C :    0.116706
   7 H :    0.016416
   8 H :    0.017062
   9 C :   -0.078758
  10 H :    0.012884
  11 H :    0.031730
  12 C :   -0.014511
  13 H :    0.012502
  14 H :    0.030446
  15 H :    0.024884
  16 S :    0.102840
  17 C :   -0.076841
  18 C :   -0.038557
  19 C :   -0.048316
  20 C :   -0.148708
  21 H :   -0.011584
  22 C :    0.130392
  23 H :   -0.002840
  24 H :    0.033341
  25 C :   -0.138995
  26 H :    0.042701
  27 H :    0.044099
  28 C :   -0.047340
  29 H :    0.030726
  30 H :    0.050380
  31 H :    0.038971
  32 H :    0.046521
  33 H :    0.053046
Sum of atomic charges:    0.0000000

LOEWDIN ATOMIC CHARGES
----------------------
   0 S :    0.447590
   1 C :   -0.222919
   2 C :   -0.062652
   3 C :   -0.059662
   4 C :   -0.199761
   5 H :    0.027166
   6 C :   -0.018310
   7 H :    0.025140
   8 H :    0.027142
   9 C :   -0.031418
  10 H :    0.011362
  11 H :    0.026458
  12 C :   -0.050038
  13 H :    0.019023
  14 H :    0.027260
  15 H :    0.009166
  16 S :    0.408833
  17 C :   -0.194683
  18 C :   -0.072824
  19 C :   -0.052275
  20 C :   -0.197555
  21 H :    0.018060
  22 C :   -0.033488
  23 H :    0.017586
  24 H :    0.040077
  25 C :   -0.045541
  26 H :    0.031798
  27 H :    0.030086
  28 C :   -0.071571
  29 H :    0.031463
  30 H :    0.035834
  31 H :    0.018338
  32 H :    0.030145
  33 H :    0.030168

  Mayer bond orders larger than 0.100000
B(  0-S ,  1-C ) :   1.1578 B(  0-S ,  4-C ) :   1.1900 B(  1-C ,  2-C ) :   1.5862
B(  1-C , 32-H ) :   0.9685 B(  2-C ,  3-C ) :   1.2666 B(  2-C ,  6-C ) :   1.0170
B(  3-C ,  4-C ) :   1.5277 B(  3-C ,  5-H ) :   0.9967 B(  4-C , 20-C ) :   0.9980
B(  6-C ,  7-H ) :   0.9437 B(  6-C ,  8-H ) :   0.9417 B(  6-C ,  9-C ) :   1.0732
B(  9-C , 10-H ) :   0.9582 B(  9-C , 11-H ) :   0.9573 B(  9-C , 12-C ) :   1.0822
B( 12-C , 13-H ) :   0.9728 B( 12-C , 14-H ) :   0.9709 B( 12-C , 15-H ) :   0.9729
B( 16-S , 17-C ) :   1.1832 B( 16-S , 20-C ) :   1.1396 B( 17-C , 18-C ) :   1.5783
B( 17-C , 33-H ) :   0.9663 B( 18-C , 19-C ) :   1.2589 B( 18-C , 21-H ) :   1.0070
B( 19-C , 20-C ) :   1.5843 B( 19-C , 22-C ) :   1.0342 B( 22-C , 23-H ) :   0.9369
B( 22-C , 24-H ) :   0.9249 B( 22-C , 25-C ) :   1.0657 B( 25-C , 26-H ) :   0.9565
B( 25-C , 27-H ) :   0.9533 B( 25-C , 28-C ) :   1.0710 B( 28-C , 29-H ) :   0.9686
B( 28-C , 30-H ) :   0.9710 B( 28-C , 31-H ) :   0.9718

Dispersion correction           -0.015487749
FINAL SINGLE POINT ENERGY     -1339.869586146674

DIPOLE MOMENT
-------------
                                X             Y             Z
Electronic contribution:     24.16652      -3.35508      -9.17931
Nuclear contribution   :    -24.82614       3.37282       9.48170
                        -----------------------------------------
Total Dipole Moment    :     -0.65962       0.01774       0.30239
                        -----------------------------------------
Magnitude (a.u.)       :      0.72585
Magnitude (Debye)      :      1.84496

Rotational constants in cm-1:     0.018843     0.009504     0.007737
Rotational constants in MHz :   564.904342   284.936428   231.942072

                             ****ORCA TERMINATED NORMALLY****
TOTAL RUN TIME: 0 days 0 hours 0 minutes 22 seconds 625 msec
