                         Program Version 4.2.1 -  RELEASE  -
|  1> ! wB97X-D3 SP def2-SVP
|  2> %pal
|  3> nprocs 24
|  4> end
|  5>
|  6> * xyz 0 1
|  7> S 	 -100.568 	 24.4008 	 -110.876
|  8> C 	 -101.096 	 22.8567 	 -110.32
|  9> C 	 -102.31 	 22.9727 	 -109.553
| 10> C 	 -102.691 	 24.3477 	 -109.415
| 11> C 	 -101.866 	 25.2409 	 -110.086
| 12> H 	 -103.533 	 24.6867 	 -108.842
| 13> C 	 -102.97 	 21.8783 	 -108.882
| 14> H 	 -103.183 	 21.1786 	 -109.663
| 15> H 	 -103.945 	 22.3775 	 -108.677
| 16> C 	 -102.258 	 21.2558 	 -107.651
| 17> H 	 -101.402 	 20.7545 	 -107.998
| 18> H 	 -101.831 	 22.0763 	 -107.126
| 19> C 	 -103.146 	 20.3733 	 -106.867
| 20> H 	 -102.467 	 19.7482 	 -106.245
| 21> H 	 -103.668 	 21.092 	 -106.178
| 22> H 	 -103.724 	 19.73 	 -107.552
| 23> S 	 -100.63 	 27.6175 	 -110.084
| 24> C 	 -101.448 	 29.0786 	 -110.605
| 25> C 	 -102.729 	 28.7743 	 -110.944
| 26> C 	 -103.133 	 27.4438 	 -110.724
| 27> C 	 -102.092 	 26.6885 	 -110.311
| 28> H 	 -103.36 	 29.6158 	 -111.139
| 29> C 	 -104.579 	 27.1128 	 -111.026
| 30> H 	 -104.604 	 26.0103 	 -111.266
| 31> H 	 -104.889 	 27.5794 	 -111.95
| 32> C 	 -105.573 	 27.4667 	 -109.918
| 33> H 	 -105.165 	 27.1917 	 -108.845
| 34> H 	 -106.463 	 26.8443 	 -109.973
| 35> C 	 -106.088 	 28.879 	 -110.061
| 36> H 	 -106.407 	 29.1678 	 -111.091
| 37> H 	 -105.289 	 29.5522 	 -109.747
| 38> H 	 -106.946 	 29.0131 	 -109.38
| 39> H 	 -100.509 	 21.9427 	 -110.3
| 40> H 	 -101.267 	 30.109 	 -110.633
| 41> *
| 42>
| 43>                          ****END OF INPUT****

CARTESIAN COORDINATES (ANGSTROEM)
---------------------------------
  S    -100.568000   24.400800  -110.876000
  C    -101.096000   22.856700  -110.320000
  C    -102.310000   22.972700  -109.553000
  C    -102.691000   24.347700  -109.415000
  C    -101.866000   25.240900  -110.086000
  H    -103.533000   24.686700  -108.842000
  C    -102.970000   21.878300  -108.882000
  H    -103.183000   21.178600  -109.663000
  H    -103.945000   22.377500  -108.677000
  C    -102.258000   21.255800  -107.651000
  H    -101.402000   20.754500  -107.998000
  H    -101.831000   22.076300  -107.126000
  C    -103.146000   20.373300  -106.867000
  H    -102.467000   19.748200  -106.245000
  H    -103.668000   21.092000  -106.178000
  H    -103.724000   19.730000  -107.552000
  S    -100.630000   27.617500  -110.084000
  C    -101.448000   29.078600  -110.605000
  C    -102.729000   28.774300  -110.944000
  C    -103.133000   27.443800  -110.724000
  C    -102.092000   26.688500  -110.311000
  H    -103.360000   29.615800  -111.139000
  C    -104.579000   27.112800  -111.026000
  H    -104.604000   26.010300  -111.266000
  H    -104.889000   27.579400  -111.950000
  C    -105.573000   27.466700  -109.918000
  H    -105.165000   27.191700  -108.845000
  H    -106.463000   26.844300  -109.973000
  C    -106.088000   28.879000  -110.061000
  H    -106.407000   29.167800  -111.091000
  H    -105.289000   29.552200  -109.747000
  H    -106.946000   29.013100  -109.380000
  H    -100.509000   21.942700  -110.300000
  H    -101.267000   30.109000  -110.633000

 Total Charge           Charge          ....    0
 Multiplicity           Mult            ....    1
 Number of Electrons    NEL             ....  134
 Basis Dimension        Dim             ....  322

ORBITAL ENERGIES
----------------

  NO   OCC          E(Eh)            E(eV)
   0   2.0000     -88.967969     -2420.9415
   1   2.0000     -88.965652     -2420.8785
   2   2.0000     -10.328356      -281.0488
   3   2.0000     -10.326120      -280.9880
   4   2.0000     -10.312550      -280.6188
   5   2.0000     -10.308293      -280.5029
   6   2.0000     -10.298875      -280.2466
   7   2.0000     -10.297545      -280.2105
   8   2.0000     -10.294365      -280.1239
   9   2.0000     -10.293157      -280.0910
  10   2.0000     -10.291924      -280.0575
  11   2.0000     -10.284556      -279.8570
  12   2.0000     -10.283886      -279.8388
  13   2.0000     -10.282062      -279.7891
  14   2.0000     -10.281644      -279.7778
  15   2.0000     -10.277732      -279.6713
  16   2.0000      -8.082772      -219.9434
  17   2.0000      -8.080261      -219.8751
  18   2.0000      -6.041246      -164.3906
  19   2.0000      -6.038954      -164.3283
  20   2.0000      -6.036986      -164.2747
  21   2.0000      -6.034750      -164.2139
  22   2.0000      -6.033849      -164.1894
  23   2.0000      -6.030849      -164.1077
  24   2.0000      -1.010460       -27.4960
  25   2.0000      -0.986484       -26.8436
  26   2.0000      -0.921919       -25.0867
  27   2.0000      -0.911936       -24.8150
  28   2.0000      -0.871732       -23.7210
  29   2.0000      -0.857906       -23.3448
  30   2.0000      -0.850755       -23.1502
  31   2.0000      -0.819278       -22.2937
  32   2.0000      -0.780986       -21.2517
  33   2.0000      -0.768984       -20.9251
  34   2.0000      -0.708487       -19.2789
  35   2.0000      -0.704317       -19.1654
  36   2.0000      -0.689780       -18.7699
  37   2.0000      -0.663856       -18.0644
  38   2.0000      -0.638740       -17.3810
  39   2.0000      -0.621703       -16.9174
  40   2.0000      -0.593778       -16.1575
  41   2.0000      -0.570183       -15.5155
  42   2.0000      -0.568124       -15.4594
  43   2.0000      -0.552045       -15.0219
  44   2.0000      -0.540648       -14.7118
  45   2.0000      -0.534159       -14.5352
  46   2.0000      -0.518970       -14.1219
  47   2.0000      -0.510892       -13.9021
  48   2.0000      -0.508023       -13.8240
  49   2.0000      -0.502960       -13.6862
  50   2.0000      -0.499893       -13.6028
  51   2.0000      -0.473636       -12.8883
  52   2.0000      -0.470725       -12.8091
  53   2.0000      -0.464044       -12.6273
  54   2.0000      -0.457570       -12.4511
  55   2.0000      -0.450355       -12.2548
  56   2.0000      -0.439960       -11.9719
  57   2.0000      -0.438223       -11.9246
  58   2.0000      -0.434409       -11.8209
  59   2.0000      -0.427273       -11.6267
  60   2.0000      -0.423918       -11.5354
  61   2.0000      -0.410956       -11.1827
  62   2.0000      -0.403877       -10.9901
  63   2.0000      -0.345675        -9.4063
  64   2.0000      -0.333166        -9.0659
  65   2.0000      -0.328628        -8.9424
  66   2.0000      -0.291225        -7.9246
  67   0.0000       0.032317         0.8794
  68   0.0000       0.070217         1.9107
  69   0.0000       0.113791         3.0964
  70   0.0000       0.121614         3.3093
  71   0.0000       0.132796         3.6136

MULLIKEN ATOMIC CHARGES
-----------------------
   0 S :    0.132339
   1 C :   -0.119615
   2 C :   -0.147615
   3 C :    0.029867
   4 C :   -0.132750
   5 H :    0.003341
   6 C :    0.055893
   7 H :    0.026838
   8 H :    0.013734
   9 C :   -0.033245
  10 H :    0.003633
  11 H :    0.019556
  12 C :   -0.030129
  13 H :    0.033786
  14 H :    0.047160
  15 H :    0.044561
  16 S :    0.104756
  17 C :   -0.033283
  18 C :   -0.077945
  19 C :   -0.000885
  20 C :   -0.183574
  21 H :    0.009696
  22 C :    0.069008
  23 H :    0.031185
  24 H :    0.020862
  25 C :   -0.088267
  26 H :    0.047160
  27 H :    0.026489
  28 C :   -0.060686
  29 H :    0.036886
  30 H :    0.036405
  31 H :    0.037307
  32 H :    0.054099
  33 H :    0.023434
Sum of atomic charges:    0.0000000

LOEWDIN ATOMIC CHARGES
----------------------
   0 S :    0.434822
   1 C :   -0.221588
   2 C :   -0.060449
   3 C :   -0.068776
   4 C :   -0.205809
   5 H :    0.027838
   6 C :   -0.043420
   7 H :    0.031152
   8 H :    0.034349
   9 C :   -0.036665
  10 H :    0.014506
  11 H :    0.022774
  12 C :   -0.064247
  13 H :    0.030677
  14 H :    0.037332
  15 H :    0.031099
  16 S :    0.406357
  17 C :   -0.181049
  18 C :   -0.071554
  19 C :   -0.061121
  20 C :   -0.190617
  21 H :    0.025407
  22 C :   -0.030891
  23 H :    0.036327
  24 H :    0.029387
  25 C :   -0.049987
  26 H :    0.036716
  27 H :    0.022104
  28 C :   -0.070390
  29 H :    0.028567
  30 H :    0.023415
  31 H :    0.028902
  32 H :    0.028520
  33 H :    0.026311

  Mayer bond orders larger than 0.100000
B(  0-S ,  1-C ) :   1.1605 B(  0-S ,  4-C ) :   1.1814 B(  1-C ,  2-C ) :   1.5372
B(  1-C ,  4-C ) :   0.1080 B(  1-C , 32-H ) :   0.9692 B(  2-C ,  3-C ) :   1.2881
B(  2-C ,  6-C ) :   1.0386 B(  3-C ,  4-C ) :   1.5345 B(  3-C ,  5-H ) :   0.9993
B(  4-C , 20-C ) :   0.9946 B(  6-C ,  7-H ) :   0.9187 B(  6-C ,  8-H ) :   0.9400
B(  6-C ,  9-C ) :   1.0498 B(  9-C , 10-H ) :   0.9462 B(  9-C , 11-H ) :   0.9568
B(  9-C , 12-C ) :   1.0826 B( 12-C , 13-H ) :   0.9726 B( 12-C , 14-H ) :   0.9774
B( 12-C , 15-H ) :   0.9714 B( 16-S , 17-C ) :   1.1262 B( 16-S , 20-C ) :   1.1401
B( 17-C , 18-C ) :   1.6607 B( 17-C , 33-H ) :   0.9661 B( 18-C , 19-C ) :   1.2221
B( 18-C , 21-H ) :   0.9800 B( 19-C , 20-C ) :   1.6362 B( 19-C , 22-C ) :   1.0414
B( 22-C , 23-H ) :   0.9292 B( 22-C , 24-H ) :   0.9389 B( 22-C , 25-C ) :   1.0604
B( 25-C , 26-H ) :   0.9517 B( 25-C , 27-H ) :   0.9565 B( 25-C , 28-C ) :   1.0812
B( 28-C , 29-H ) :   0.9727 B( 28-C , 30-H ) :   0.9714 B( 28-C , 31-H ) :   0.9709

Dispersion correction           -0.013998177
FINAL SINGLE POINT ENERGY     -1339.860653737890

DIPOLE MOMENT
-------------
                                X             Y             Z
Electronic contribution:     22.65491       8.97247     -10.57587
Nuclear contribution   :    -23.25588      -9.09134      10.81988
                        -----------------------------------------
Total Dipole Moment    :     -0.60097      -0.11887       0.24402
                        -----------------------------------------
Magnitude (a.u.)       :      0.65942
Magnitude (Debye)      :      1.67611

Rotational constants in cm-1:     0.020381     0.007722     0.006096
Rotational constants in MHz :   610.994759   231.487062   182.760114

                             ****ORCA TERMINATED NORMALLY****
TOTAL RUN TIME: 0 days 0 hours 0 minutes 21 seconds 359 msec
