                         Program Version 4.2.1 -  RELEASE  -
|  1> ! wB97X-D3 SP def2-SVP
|  2> %pal
|  3> nprocs 24
|  4> end
|  5>
|  6> * xyz 0 1
|  7> S 	 -106.955 	 45.4931 	 -6.27814
|  8> C 	 -107.85 	 45.9339 	 -4.86825
|  9> C 	 -109.12 	 46.4413 	 -5.20979
| 10> C 	 -109.377 	 46.3801 	 -6.62556
| 11> C 	 -108.298 	 45.9736 	 -7.36378
| 12> H 	 -110.285 	 46.6945 	 -7.13214
| 13> C 	 -110.122 	 47.0941 	 -4.23396
| 14> H 	 -110.872 	 46.3494 	 -4.02218
| 15> H 	 -110.623 	 47.9069 	 -4.77753
| 16> C 	 -109.614 	 47.6843 	 -2.87297
| 17> H 	 -110.431 	 48.1146 	 -2.36264
| 18> H 	 -109.075 	 46.941 	 -2.34449
| 19> C 	 -108.514 	 48.7228 	 -3.07119
| 20> H 	 -109.121 	 49.53 	 -3.45325
| 21> H 	 -108.167 	 49.2991 	 -2.19914
| 22> H 	 -107.666 	 48.4787 	 -3.77362
| 23> S 	 -109.377 	 44.6864 	 -9.39246
| 24> C 	 -108.624 	 44.6182 	 -11.0055
| 25> C 	 -107.449 	 45.3139 	 -10.9954
| 26> C 	 -107.177 	 45.9504 	 -9.72354
| 27> C 	 -108.14 	 45.717 	 -8.78572
| 28> H 	 -106.837 	 45.2929 	 -11.8403
| 29> C 	 -105.88 	 46.7557 	 -9.48422
| 30> H 	 -105.185 	 46.5913 	 -10.3338
| 31> H 	 -105.309 	 46.3126 	 -8.6347
| 32> C 	 -106.019 	 48.2639 	 -9.03775
| 33> H 	 -104.997 	 48.5901 	 -8.83165
| 34> H 	 -106.505 	 48.3846 	 -8.10786
| 35> C 	 -106.564 	 49.24 	 -10.1421
| 36> H 	 -106.494 	 50.3058 	 -9.87452
| 37> H 	 -107.596 	 49.0987 	 -10.2498
| 38> H 	 -106.168 	 49.1941 	 -11.1144
| 39> H 	 -107.436 	 45.943 	 -3.94065
| 40> H 	 -109.019 	 44.085 	 -11.8667
| 41> *
| 42>
| 43>                          ****END OF INPUT****

CARTESIAN COORDINATES (ANGSTROEM)
---------------------------------
  S    -106.955000   45.493100   -6.278140
  C    -107.850000   45.933900   -4.868250
  C    -109.120000   46.441300   -5.209790
  C    -109.377000   46.380100   -6.625560
  C    -108.298000   45.973600   -7.363780
  H    -110.285000   46.694500   -7.132140
  C    -110.122000   47.094100   -4.233960
  H    -110.872000   46.349400   -4.022180
  H    -110.623000   47.906900   -4.777530
  C    -109.614000   47.684300   -2.872970
  H    -110.431000   48.114600   -2.362640
  H    -109.075000   46.941000   -2.344490
  C    -108.514000   48.722800   -3.071190
  H    -109.121000   49.530000   -3.453250
  H    -108.167000   49.299100   -2.199140
  H    -107.666000   48.478700   -3.773620
  S    -109.377000   44.686400   -9.392460
  C    -108.624000   44.618200  -11.005500
  C    -107.449000   45.313900  -10.995400
  C    -107.177000   45.950400   -9.723540
  C    -108.140000   45.717000   -8.785720
  H    -106.837000   45.292900  -11.840300
  C    -105.880000   46.755700   -9.484220
  H    -105.185000   46.591300  -10.333800
  H    -105.309000   46.312600   -8.634700
  C    -106.019000   48.263900   -9.037750
  H    -104.997000   48.590100   -8.831650
  H    -106.505000   48.384600   -8.107860
  C    -106.564000   49.240000  -10.142100
  H    -106.494000   50.305800   -9.874520
  H    -107.596000   49.098700  -10.249800
  H    -106.168000   49.194100  -11.114400
  H    -107.436000   45.943000   -3.940650
  H    -109.019000   44.085000  -11.866700

 Total Charge           Charge          ....    0
 Multiplicity           Mult            ....    1
 Number of Electrons    NEL             ....  134
 Basis Dimension        Dim             ....  322

ORBITAL ENERGIES
----------------

  NO   OCC          E(Eh)            E(eV)
   0   2.0000     -88.965275     -2420.8682
   1   2.0000     -88.962597     -2420.7953
   2   2.0000     -10.333536      -281.1898
   3   2.0000     -10.322796      -280.8976
   4   2.0000     -10.317812      -280.7619
   5   2.0000     -10.310650      -280.5670
   6   2.0000     -10.309378      -280.5324
   7   2.0000     -10.304930      -280.4114
   8   2.0000     -10.298976      -280.2494
   9   2.0000     -10.298535      -280.2374
  10   2.0000     -10.296887      -280.1926
  11   2.0000     -10.292016      -280.0600
  12   2.0000     -10.286052      -279.8977
  13   2.0000     -10.285781      -279.8903
  14   2.0000     -10.275637      -279.6143
  15   2.0000     -10.265085      -279.3272
  16   2.0000      -8.079586      -219.8567
  17   2.0000      -8.077553      -219.8014
  18   2.0000      -6.038127      -164.3058
  19   2.0000      -6.036205      -164.2535
  20   2.0000      -6.034120      -164.1967
  21   2.0000      -6.031923      -164.1370
  22   2.0000      -6.030386      -164.0951
  23   2.0000      -6.028229      -164.0365
  24   2.0000      -1.008314       -27.4376
  25   2.0000      -0.982431       -26.7333
  26   2.0000      -0.909841       -24.7580
  27   2.0000      -0.893745       -24.3200
  28   2.0000      -0.874370       -23.7928
  29   2.0000      -0.851787       -23.1783
  30   2.0000      -0.840446       -22.8697
  31   2.0000      -0.817170       -22.2363
  32   2.0000      -0.782107       -21.2822
  33   2.0000      -0.773031       -21.0353
  34   2.0000      -0.711083       -19.3495
  35   2.0000      -0.704829       -19.1794
  36   2.0000      -0.691924       -18.8282
  37   2.0000      -0.669943       -18.2301
  38   2.0000      -0.647423       -17.6173
  39   2.0000      -0.609207       -16.5774
  40   2.0000      -0.589384       -16.0380
  41   2.0000      -0.583891       -15.8885
  42   2.0000      -0.552334       -15.0298
  43   2.0000      -0.547952       -14.9105
  44   2.0000      -0.542301       -14.7568
  45   2.0000      -0.534323       -14.5397
  46   2.0000      -0.520750       -14.1703
  47   2.0000      -0.513011       -13.9597
  48   2.0000      -0.501020       -13.6335
  49   2.0000      -0.495666       -13.4878
  50   2.0000      -0.486282       -13.2324
  51   2.0000      -0.478598       -13.0233
  52   2.0000      -0.475553       -12.9404
  53   2.0000      -0.468352       -12.7445
  54   2.0000      -0.462125       -12.5751
  55   2.0000      -0.446800       -12.1581
  56   2.0000      -0.440029       -11.9738
  57   2.0000      -0.437920       -11.9164
  58   2.0000      -0.431239       -11.7346
  59   2.0000      -0.428950       -11.6723
  60   2.0000      -0.417782       -11.3684
  61   2.0000      -0.409245       -11.1361
  62   2.0000      -0.401305       -10.9201
  63   2.0000      -0.349565        -9.5121
  64   2.0000      -0.333988        -9.0883
  65   2.0000      -0.325451        -8.8560
  66   2.0000      -0.294679        -8.0186
  67   0.0000       0.029840         0.8120
  68   0.0000       0.073414         1.9977
  69   0.0000       0.109793         2.9876
  70   0.0000       0.113495         3.0884
  71   0.0000       0.130311         3.5459

MULLIKEN ATOMIC CHARGES
-----------------------
   0 S :    0.098522
   1 C :   -0.084880
   2 C :   -0.102745
   3 C :    0.018786
   4 C :   -0.140861
   5 H :    0.020016
   6 C :    0.055682
   7 H :    0.043776
   8 H :    0.027282
   9 C :   -0.027199
  10 H :    0.030305
  11 H :    0.023435
  12 C :   -0.095365
  13 H :    0.005341
  14 H :    0.031506
  15 H :    0.065002
  16 S :    0.099784
  17 C :   -0.095065
  18 C :   -0.014937
  19 C :   -0.020944
  20 C :   -0.137945
  21 H :   -0.000796
  22 C :    0.023665
  23 H :    0.023457
  24 H :    0.038048
  25 C :   -0.040430
  26 H :    0.022191
  27 H :    0.030788
  28 C :   -0.033332
  29 H :    0.025238
  30 H :    0.021026
  31 H :    0.016530
  32 H :    0.014364
  33 H :    0.059754
Sum of atomic charges:    0.0000000

LOEWDIN ATOMIC CHARGES
----------------------
   0 S :    0.401884
   1 C :   -0.190281
   2 C :   -0.055899
   3 C :   -0.064706
   4 C :   -0.178665
   5 H :    0.035110
   6 C :   -0.028204
   7 H :    0.034304
   8 H :    0.030574
   9 C :   -0.031196
  10 H :    0.025753
  11 H :    0.015915
  12 C :   -0.085574
  13 H :    0.022090
  14 H :    0.028349
  15 H :    0.034811
  16 S :    0.410169
  17 C :   -0.174373
  18 C :   -0.061788
  19 C :   -0.061947
  20 C :   -0.208182
  21 H :    0.023374
  22 C :   -0.037590
  23 H :    0.031388
  24 H :    0.032482
  25 C :   -0.028926
  26 H :    0.024932
  27 H :    0.020772
  28 C :   -0.067499
  29 H :    0.028837
  30 H :    0.018662
  31 H :    0.017677
  32 H :    0.005369
  33 H :    0.032381

  Mayer bond orders larger than 0.100000
B(  0-S ,  1-C ) :   1.1440 B(  0-S ,  4-C ) :   1.1374 B(  1-C ,  2-C ) :   1.6034
B(  1-C , 32-H ) :   0.9804 B(  2-C ,  3-C ) :   1.2333 B(  2-C ,  6-C ) :   1.0012
B(  3-C ,  4-C ) :   1.5950 B(  3-C ,  5-H ) :   0.9935 B(  4-C , 20-C ) :   1.0270
B(  6-C ,  7-H ) :   0.9336 B(  6-C ,  8-H ) :   0.9494 B(  6-C ,  9-C ) :   1.0831
B(  9-C , 10-H ) :   0.9563 B(  9-C , 11-H ) :   0.9554 B(  9-C , 12-C ) :   1.0657
B( 12-C , 13-H ) :   0.9722 B( 12-C , 14-H ) :   0.9718 B( 12-C , 15-H ) :   0.9727
B( 16-S , 17-C ) :   1.1399 B( 16-S , 20-C ) :   1.1453 B( 17-C , 18-C ) :   1.6268
B( 17-C , 33-H ) :   0.9679 B( 18-C , 19-C ) :   1.2188 B( 18-C , 21-H ) :   1.0013
B( 19-C , 20-C ) :   1.6059 B( 19-C , 22-C ) :   1.0353 B( 22-C , 23-H ) :   0.9415
B( 22-C , 24-H ) :   0.9355 B( 22-C , 25-C ) :   1.0693 B( 25-C , 26-H ) :   0.9565
B( 25-C , 27-H ) :   0.9573 B( 25-C , 28-C ) :   1.0643 B( 28-C , 29-H ) :   0.9756
B( 28-C , 30-H ) :   0.9774 B( 28-C , 31-H ) :   0.9780

Dispersion correction           -0.014804895
FINAL SINGLE POINT ENERGY     -1339.866111249523

DIPOLE MOMENT
-------------
                                X             Y             Z
Electronic contribution:     -3.29517     -20.81897      -8.95598
Nuclear contribution   :      3.25586      21.17150       9.01544
                        -----------------------------------------
Total Dipole Moment    :     -0.03931       0.35253       0.05946
                        -----------------------------------------
Magnitude (a.u.)       :      0.35966
Magnitude (Debye)      :      0.91419

Rotational constants in cm-1:     0.021724     0.008238     0.007015
Rotational constants in MHz :   651.254195   246.982100   210.290441

                             ****ORCA TERMINATED NORMALLY****
TOTAL RUN TIME: 0 days 0 hours 0 minutes 20 seconds 462 msec
