                         Program Version 4.2.1 -  RELEASE  -
|  1> ! wB97X-D3 SP def2-SVP
|  2> %pal
|  3> nprocs 24
|  4> end
|  5>
|  6> * xyz 0 1
|  7> S 	 -66.5016 	 6.64058 	 18.7863
|  8> C 	 -65.2204 	 7.88342 	 18.8749
|  9> C 	 -64.0214 	 7.35293 	 19.279
| 10> C 	 -64.1736 	 5.94346 	 19.3111
| 11> C 	 -65.3763 	 5.39155 	 18.9953
| 12> H 	 -63.4082 	 5.26325 	 19.6922
| 13> C 	 -62.8227 	 8.118 	 19.7232
| 14> H 	 -62.3396 	 8.36759 	 18.8317
| 15> H 	 -62.0687 	 7.47424 	 20.1709
| 16> C 	 -63.0695 	 9.26424 	 20.625
| 17> H 	 -63.8145 	 9.89573 	 20.0878
| 18> H 	 -63.6091 	 8.96024 	 21.5016
| 19> C 	 -61.9445 	 10.0546 	 21.2739
| 20> H 	 -62.2988 	 10.8346 	 21.9735
| 21> H 	 -61.2151 	 9.39176 	 21.7186
| 22> H 	 -61.4379 	 10.4866 	 20.526
| 23> S 	 -67.1915 	 3.583 	 20.0243
| 24> C 	 -67.0721 	 1.94468 	 19.6366
| 25> C 	 -66.0181 	 1.68928 	 18.8056
| 26> C 	 -65.2615 	 2.8799 	 18.4861
| 27> C 	 -65.7953 	 3.99818 	 19.0292
| 28> H 	 -65.7577 	 0.703233 	 18.5391
| 29> C 	 -64.0904 	 2.92146 	 17.4823
| 30> H 	 -63.7869 	 3.98934 	 17.3385
| 31> H 	 -64.4693 	 2.57251 	 16.5
| 32> C 	 -62.8864 	 2.0188 	 17.8335
| 33> H 	 -63.027 	 0.935601 	 17.7413
| 34> H 	 -62.6284 	 2.00674 	 18.8361
| 35> C 	 -61.6284 	 2.17364 	 16.998
| 36> H 	 -61.8654 	 2.4118 	 15.9
| 37> H 	 -60.9477 	 1.35644 	 17.0838
| 38> H 	 -61.1087 	 3.04767 	 17.1768
| 39> H 	 -65.3729 	 8.95055 	 18.9147
| 40> H 	 -67.6082 	 1.2036 	 20.0394
| 41> *
| 42>
| 43>                          ****END OF INPUT****

CARTESIAN COORDINATES (ANGSTROEM)
---------------------------------
  S    -66.501600    6.640580   18.786300
  C    -65.220400    7.883420   18.874900
  C    -64.021400    7.352930   19.279000
  C    -64.173600    5.943460   19.311100
  C    -65.376300    5.391550   18.995300
  H    -63.408200    5.263250   19.692200
  C    -62.822700    8.118000   19.723200
  H    -62.339600    8.367590   18.831700
  H    -62.068700    7.474240   20.170900
  C    -63.069500    9.264240   20.625000
  H    -63.814500    9.895730   20.087800
  H    -63.609100    8.960240   21.501600
  C    -61.944500   10.054600   21.273900
  H    -62.298800   10.834600   21.973500
  H    -61.215100    9.391760   21.718600
  H    -61.437900   10.486600   20.526000
  S    -67.191500    3.583000   20.024300
  C    -67.072100    1.944680   19.636600
  C    -66.018100    1.689280   18.805600
  C    -65.261500    2.879900   18.486100
  C    -65.795300    3.998180   19.029200
  H    -65.757700    0.703233   18.539100
  C    -64.090400    2.921460   17.482300
  H    -63.786900    3.989340   17.338500
  H    -64.469300    2.572510   16.500000
  C    -62.886400    2.018800   17.833500
  H    -63.027000    0.935601   17.741300
  H    -62.628400    2.006740   18.836100
  C    -61.628400    2.173640   16.998000
  H    -61.865400    2.411800   15.900000
  H    -60.947700    1.356440   17.083800
  H    -61.108700    3.047670   17.176800
  H    -65.372900    8.950550   18.914700
  H    -67.608200    1.203600   20.039400

 Total Charge           Charge          ....    0
 Multiplicity           Mult            ....    1
 Number of Electrons    NEL             ....  134
 Basis Dimension        Dim             ....  322

ORBITAL ENERGIES
----------------

  NO   OCC          E(Eh)            E(eV)
   0   2.0000     -88.964409     -2420.8447
   1   2.0000     -88.963163     -2420.8107
   2   2.0000     -10.323771      -280.9241
   3   2.0000     -10.323028      -280.9039
   4   2.0000     -10.311863      -280.6001
   5   2.0000     -10.305470      -280.4261
   6   2.0000     -10.302824      -280.3541
   7   2.0000     -10.299870      -280.2737
   8   2.0000     -10.299607      -280.2666
   9   2.0000     -10.289476      -279.9909
  10   2.0000     -10.288256      -279.9577
  11   2.0000     -10.287714      -279.9429
  12   2.0000     -10.283371      -279.8248
  13   2.0000     -10.279888      -279.7300
  14   2.0000     -10.272993      -279.5424
  15   2.0000     -10.272635      -279.5326
  16   2.0000      -8.079649      -219.8584
  17   2.0000      -8.079194      -219.8461
  18   2.0000      -6.038233      -164.3087
  19   2.0000      -6.037658      -164.2930
  20   2.0000      -6.034104      -164.1963
  21   2.0000      -6.033504      -164.1800
  22   2.0000      -6.030277      -164.0922
  23   2.0000      -6.029933      -164.0828
  24   2.0000      -1.015917       -27.6445
  25   2.0000      -0.993174       -27.0256
  26   2.0000      -0.926782       -25.2190
  27   2.0000      -0.906926       -24.6787
  28   2.0000      -0.877243       -23.8710
  29   2.0000      -0.858299       -23.3555
  30   2.0000      -0.846028       -23.0216
  31   2.0000      -0.818642       -22.2764
  32   2.0000      -0.794214       -21.6117
  33   2.0000      -0.779137       -21.2014
  34   2.0000      -0.715074       -19.4582
  35   2.0000      -0.708752       -19.2861
  36   2.0000      -0.702351       -19.1119
  37   2.0000      -0.665930       -18.1209
  38   2.0000      -0.642145       -17.4737
  39   2.0000      -0.617784       -16.8108
  40   2.0000      -0.600859       -16.3502
  41   2.0000      -0.581689       -15.8286
  42   2.0000      -0.566668       -15.4198
  43   2.0000      -0.557307       -15.1651
  44   2.0000      -0.539811       -14.6890
  45   2.0000      -0.535648       -14.5757
  46   2.0000      -0.526796       -14.3348
  47   2.0000      -0.517311       -14.0767
  48   2.0000      -0.508336       -13.8325
  49   2.0000      -0.501835       -13.6556
  50   2.0000      -0.490270       -13.3409
  51   2.0000      -0.481902       -13.1132
  52   2.0000      -0.473725       -12.8907
  53   2.0000      -0.467363       -12.7176
  54   2.0000      -0.463800       -12.6206
  55   2.0000      -0.459453       -12.5024
  56   2.0000      -0.452161       -12.3039
  57   2.0000      -0.439766       -11.9667
  58   2.0000      -0.433671       -11.8008
  59   2.0000      -0.426980       -11.6187
  60   2.0000      -0.418935       -11.3998
  61   2.0000      -0.406453       -11.0602
  62   2.0000      -0.403981       -10.9929
  63   2.0000      -0.351451        -9.5635
  64   2.0000      -0.331159        -9.0113
  65   2.0000      -0.329966        -8.9788
  66   2.0000      -0.296353        -8.0642
  67   0.0000       0.035908         0.9771
  68   0.0000       0.072777         1.9804
  69   0.0000       0.111847         3.0435
  70   0.0000       0.126705         3.4478
  71   0.0000       0.134909         3.6711

MULLIKEN ATOMIC CHARGES
-----------------------
   0 S :    0.105154
   1 C :   -0.129790
   2 C :   -0.090770
   3 C :    0.008601
   4 C :   -0.152135
   5 H :    0.005749
   6 C :    0.155998
   7 H :    0.019654
   8 H :    0.003687
   9 C :   -0.128879
  10 H :    0.021495
  11 H :    0.026526
  12 C :    0.021543
  13 H :    0.047761
  14 H :    0.022783
  15 H :   -0.006539
  16 S :    0.109005
  17 C :   -0.022376
  18 C :   -0.019736
  19 C :   -0.029338
  20 C :   -0.150777
  21 H :   -0.000845
  22 C :    0.066488
  23 H :    0.041687
  24 H :    0.039244
  25 C :   -0.059338
  26 H :    0.016016
  27 H :    0.004925
  28 C :   -0.035780
  29 H :    0.022232
  30 H :    0.033495
  31 H :    0.005552
  32 H :    0.041443
  33 H :    0.007265
Sum of atomic charges:    0.0000000

LOEWDIN ATOMIC CHARGES
----------------------
   0 S :    0.415558
   1 C :   -0.186708
   2 C :   -0.054833
   3 C :   -0.070311
   4 C :   -0.212475
   5 H :    0.028926
   6 C :   -0.030106
   7 H :    0.030388
   8 H :    0.030203
   9 C :   -0.046015
  10 H :    0.022866
  11 H :    0.025135
  12 C :   -0.051161
  13 H :    0.037808
  14 H :    0.026984
  15 H :    0.005965
  16 S :    0.419054
  17 C :   -0.176224
  18 C :   -0.063057
  19 C :   -0.053590
  20 C :   -0.194563
  21 H :    0.023013
  22 C :   -0.026009
  23 H :    0.035848
  24 H :    0.037272
  25 C :   -0.048496
  26 H :    0.027391
  27 H :    0.013732
  28 C :   -0.063886
  29 H :    0.033600
  30 H :    0.024303
  31 H :    0.010275
  32 H :    0.022421
  33 H :    0.006695

  Mayer bond orders larger than 0.100000
B(  0-S ,  1-C ) :   1.1377 B(  0-S ,  4-C ) :   1.1557 B(  1-C ,  2-C ) :   1.6098
B(  1-C , 32-H ) :   0.9667 B(  2-C ,  3-C ) :   1.2604 B(  2-C ,  6-C ) :   1.0105
B(  3-C ,  4-C ) :   1.5740 B(  3-C ,  5-H ) :   0.9944 B(  4-C , 20-C ) :   1.0138
B(  6-C ,  7-H ) :   0.9140 B(  6-C ,  8-H ) :   0.9323 B(  6-C ,  9-C ) :   1.0636
B(  9-C , 10-H ) :   0.9494 B(  9-C , 11-H ) :   0.9603 B(  9-C , 12-C ) :   1.0881
B( 12-C , 13-H ) :   0.9722 B( 12-C , 14-H ) :   0.9684 B( 12-C , 15-H ) :   0.9690
B( 16-S , 17-C ) :   1.1630 B( 16-S , 20-C ) :   1.1300 B( 17-C , 18-C ) :   1.6138
B( 17-C , 33-H ) :   0.9801 B( 18-C , 19-C ) :   1.2169 B( 18-C , 21-H ) :   1.0003
B( 19-C , 20-C ) :   1.6418 B( 19-C , 22-C ) :   1.0421 B( 22-C , 23-H ) :   0.9429
B( 22-C , 24-H ) :   0.9325 B( 22-C , 25-C ) :   1.0422 B( 25-C , 26-H ) :   0.9530
B( 25-C , 27-H ) :   0.9570 B( 25-C , 28-C ) :   1.0892 B( 28-C , 29-H ) :   0.9681
B( 28-C , 30-H ) :   0.9764 B( 28-C , 31-H ) :   0.9716

Dispersion correction           -0.013398136
FINAL SINGLE POINT ENERGY     -1339.851280075676

DIPOLE MOMENT
-------------
                                X             Y             Z
Electronic contribution:    -27.72742      -5.09449       1.70589
Nuclear contribution   :     28.42173       5.02694      -1.55759
                        -----------------------------------------
Total Dipole Moment    :      0.69430      -0.06755       0.14830
                        -----------------------------------------
Magnitude (a.u.)       :      0.71317
Magnitude (Debye)      :      1.81273

Rotational constants in cm-1:     0.018340     0.007890     0.006081
Rotational constants in MHz :   549.816732   236.523120   182.308768

                             ****ORCA TERMINATED NORMALLY****
TOTAL RUN TIME: 0 days 0 hours 0 minutes 21 seconds 21 msec
