                         Program Version 4.2.1 -  RELEASE  -
|  1> ! wB97X-D3 SP def2-SVP
|  2> %pal
|  3> nprocs 24
|  4> end
|  5>
|  6> * xyz 0 1
|  7> S 	 -40.3853 	 -8.65933 	 9.76066
|  8> C 	 -40.6034 	 -8.73834 	 7.99173
|  9> C 	 -40.0262 	 -7.52537 	 7.44493
| 10> C 	 -39.4099 	 -6.68967 	 8.40713
| 11> C 	 -39.2919 	 -7.31083 	 9.64923
| 12> H 	 -38.8079 	 -5.8429 	 8.13137
| 13> C 	 -39.9393 	 -7.20324 	 6.00045
| 14> H 	 -40.7154 	 -7.71688 	 5.64229
| 15> H 	 -39.0628 	 -7.73763 	 5.70241
| 16> C 	 -40.0442 	 -5.81319 	 5.36124
| 17> H 	 -40.0284 	 -5.97735 	 4.27764
| 18> H 	 -41.0538 	 -5.44185 	 5.55488
| 19> C 	 -38.9398 	 -4.76224 	 5.71665
| 20> H 	 -39.1861 	 -4.33759 	 6.68578
| 21> H 	 -37.9112 	 -5.12976 	 5.66969
| 22> H 	 -38.8088 	 -3.849 	 5.01418
| 23> S 	 -37.8267 	 -8.07486 	 11.8511
| 24> C 	 -37.0318 	 -6.82212 	 12.6976
| 25> C 	 -37.3298 	 -5.5531 	 12.2808
| 26> C 	 -38.2484 	 -5.57739 	 11.2149
| 27> C 	 -38.6036 	 -6.87804 	 10.8679
| 28> H 	 -36.9393 	 -4.66577 	 12.7684
| 29> C 	 -38.7688 	 -4.2861 	 10.6668
| 30> H 	 -39.2998 	 -3.68393 	 11.4552
| 31> H 	 -39.6722 	 -4.34927 	 10.0988
| 32> C 	 -37.7728 	 -3.39307 	 9.87623
| 33> H 	 -37.4643 	 -3.98304 	 8.9988
| 34> H 	 -36.8358 	 -3.2 	 10.4443
| 35> C 	 -38.3015 	 -1.94629 	 9.43869
| 36> H 	 -37.63 	 -1.55099 	 8.68155
| 37> H 	 -38.413 	 -1.30592 	 10.3326
| 38> H 	 -39.3183 	 -1.96585 	 9.0369
| 39> H 	 -41.1456 	 -9.53253 	 7.5066
| 40> H 	 -36.4734 	 -7.13805 	 13.5617
| 41> *
| 42>
| 43>                          ****END OF INPUT****

CARTESIAN COORDINATES (ANGSTROEM)
---------------------------------
  S    -40.385300   -8.659330    9.760660
  C    -40.603400   -8.738340    7.991730
  C    -40.026200   -7.525370    7.444930
  C    -39.409900   -6.689670    8.407130
  C    -39.291900   -7.310830    9.649230
  H    -38.807900   -5.842900    8.131370
  C    -39.939300   -7.203240    6.000450
  H    -40.715400   -7.716880    5.642290
  H    -39.062800   -7.737630    5.702410
  C    -40.044200   -5.813190    5.361240
  H    -40.028400   -5.977350    4.277640
  H    -41.053800   -5.441850    5.554880
  C    -38.939800   -4.762240    5.716650
  H    -39.186100   -4.337590    6.685780
  H    -37.911200   -5.129760    5.669690
  H    -38.808800   -3.849000    5.014180
  S    -37.826700   -8.074860   11.851100
  C    -37.031800   -6.822120   12.697600
  C    -37.329800   -5.553100   12.280800
  C    -38.248400   -5.577390   11.214900
  C    -38.603600   -6.878040   10.867900
  H    -36.939300   -4.665770   12.768400
  C    -38.768800   -4.286100   10.666800
  H    -39.299800   -3.683930   11.455200
  H    -39.672200   -4.349270   10.098800
  C    -37.772800   -3.393070    9.876230
  H    -37.464300   -3.983040    8.998800
  H    -36.835800   -3.200000   10.444300
  C    -38.301500   -1.946290    9.438690
  H    -37.630000   -1.550990    8.681550
  H    -38.413000   -1.305920   10.332600
  H    -39.318300   -1.965850    9.036900
  H    -41.145600   -9.532530    7.506600
  H    -36.473400   -7.138050   13.561700

 Total Charge           Charge          ....    0
 Multiplicity           Mult            ....    1
 Number of Electrons    NEL             ....  134
 Basis Dimension        Dim             ....  322

ORBITAL ENERGIES
----------------

  NO   OCC          E(Eh)            E(eV)
   0   2.0000     -88.967966     -2420.9414
   1   2.0000     -88.961800     -2420.7736
   2   2.0000     -10.328657      -281.0570
   3   2.0000     -10.323945      -280.9288
   4   2.0000     -10.315971      -280.7118
   5   2.0000     -10.313144      -280.6349
   6   2.0000     -10.304243      -280.3927
   7   2.0000     -10.302170      -280.3363
   8   2.0000     -10.297301      -280.2038
   9   2.0000     -10.295774      -280.1622
  10   2.0000     -10.292397      -280.0704
  11   2.0000     -10.292229      -280.0658
  12   2.0000     -10.289784      -279.9993
  13   2.0000     -10.287367      -279.9335
  14   2.0000     -10.286736      -279.9163
  15   2.0000     -10.276034      -279.6251
  16   2.0000      -8.084005      -219.9770
  17   2.0000      -8.076096      -219.7617
  18   2.0000      -6.042167      -164.4157
  19   2.0000      -6.038418      -164.3137
  20   2.0000      -6.034953      -164.2194
  21   2.0000      -6.034522      -164.2077
  22   2.0000      -6.030654      -164.1024
  23   2.0000      -6.027013      -164.0033
  24   2.0000      -1.011561       -27.5260
  25   2.0000      -0.981807       -26.7163
  26   2.0000      -0.913731       -24.8639
  27   2.0000      -0.905479       -24.6393
  28   2.0000      -0.864005       -23.5108
  29   2.0000      -0.852743       -23.2043
  30   2.0000      -0.841159       -22.8891
  31   2.0000      -0.815870       -22.2010
  32   2.0000      -0.788512       -21.4565
  33   2.0000      -0.771297       -20.9881
  34   2.0000      -0.710970       -19.3465
  35   2.0000      -0.702398       -19.1132
  36   2.0000      -0.692947       -18.8560
  37   2.0000      -0.661846       -18.0097
  38   2.0000      -0.635210       -17.2850
  39   2.0000      -0.625389       -17.0177
  40   2.0000      -0.608358       -16.5543
  41   2.0000      -0.570120       -15.5138
  42   2.0000      -0.554967       -15.1014
  43   2.0000      -0.545354       -14.8398
  44   2.0000      -0.531453       -14.4616
  45   2.0000      -0.529379       -14.4051
  46   2.0000      -0.517571       -14.0838
  47   2.0000      -0.513532       -13.9739
  48   2.0000      -0.505877       -13.7656
  49   2.0000      -0.498459       -13.5638
  50   2.0000      -0.494593       -13.4586
  51   2.0000      -0.476469       -12.9654
  52   2.0000      -0.470751       -12.8098
  53   2.0000      -0.466768       -12.7014
  54   2.0000      -0.457862       -12.4591
  55   2.0000      -0.452280       -12.3072
  56   2.0000      -0.444033       -12.0828
  57   2.0000      -0.438942       -11.9442
  58   2.0000      -0.432650       -11.7730
  59   2.0000      -0.429020       -11.6742
  60   2.0000      -0.420419       -11.4402
  61   2.0000      -0.412621       -11.2280
  62   2.0000      -0.410169       -11.1613
  63   2.0000      -0.348252        -9.4764
  64   2.0000      -0.335628        -9.1329
  65   2.0000      -0.325164        -8.8482
  66   2.0000      -0.280360        -7.6290
  67   0.0000       0.020881         0.5682
  68   0.0000       0.078230         2.1287
  69   0.0000       0.107307         2.9200
  70   0.0000       0.122084         3.3221
  71   0.0000       0.122549         3.3347

MULLIKEN ATOMIC CHARGES
-----------------------
   0 S :    0.088219
   1 C :   -0.131169
   2 C :   -0.122681
   3 C :    0.036369
   4 C :   -0.132067
   5 H :   -0.010552
   6 C :    0.115469
   7 H :   -0.015336
   8 H :    0.038225
   9 C :   -0.049144
  10 H :    0.032578
  11 H :    0.032224
  12 C :   -0.100327
  13 H :    0.047793
  14 H :    0.039172
  15 H :    0.041295
  16 S :    0.125633
  17 C :   -0.096590
  18 C :   -0.008425
  19 C :   -0.025624
  20 C :   -0.129488
  21 H :    0.021558
  22 C :    0.039879
  23 H :    0.025634
  24 H :    0.006029
  25 C :   -0.101187
  26 H :    0.034418
  27 H :    0.035620
  28 C :   -0.059904
  29 H :    0.048205
  30 H :    0.039470
  31 H :    0.029374
  32 H :    0.050156
  33 H :    0.055175
Sum of atomic charges:   -0.0000000

LOEWDIN ATOMIC CHARGES
----------------------
   0 S :    0.394120
   1 C :   -0.210889
   2 C :   -0.044989
   3 C :   -0.078310
   4 C :   -0.177933
   5 H :    0.027005
   6 C :   -0.033510
   7 H :    0.018008
   8 H :    0.037930
   9 C :   -0.032602
  10 H :    0.030896
  11 H :    0.027882
  12 C :   -0.082751
  13 H :    0.022151
  14 H :    0.026043
  15 H :    0.036931
  16 S :    0.437677
  17 C :   -0.187995
  18 C :   -0.064308
  19 C :   -0.053402
  20 C :   -0.211956
  21 H :    0.035852
  22 C :   -0.047689
  23 H :    0.038465
  24 H :    0.026372
  25 C :   -0.039792
  26 H :    0.021111
  27 H :    0.024891
  28 C :   -0.067915
  29 H :    0.029866
  30 H :    0.028912
  31 H :    0.022967
  32 H :    0.024691
  33 H :    0.022273

  Mayer bond orders larger than 0.100000
B(  0-S ,  1-C ) :   1.1237 B(  0-S ,  4-C ) :   1.1826 B(  1-C ,  2-C ) :   1.5480
B(  1-C ,  4-C ) :   0.1169 B(  1-C , 32-H ) :   0.9786 B(  2-C ,  3-C ) :   1.2815
B(  2-C ,  6-C ) :   1.0117 B(  3-C ,  4-C ) :   1.5440 B(  3-C ,  5-H ) :   0.9805
B(  4-C , 20-C ) :   1.0268 B(  6-C ,  7-H ) :   0.9187 B(  6-C ,  8-H ) :   0.9281
B(  6-C ,  9-C ) :   1.0829 B(  9-C , 10-H ) :   0.9526 B(  9-C , 11-H ) :   0.9586
B(  9-C , 12-C ) :   1.0632 B( 12-C , 13-H ) :   0.9683 B( 12-C , 14-H ) :   0.9759
B( 12-C , 15-H ) :   0.9718 B( 16-S , 17-C ) :   1.1807 B( 16-S , 20-C ) :   1.1512
B( 17-C , 18-C ) :   1.5669 B( 17-C , 33-H ) :   0.9693 B( 18-C , 19-C ) :   1.2623
B( 18-C , 21-H ) :   0.9980 B( 19-C , 20-C ) :   1.5752 B( 19-C , 22-C ) :   1.0449
B( 22-C , 23-H ) :   0.9326 B( 22-C , 24-H ) :   0.9290 B( 22-C , 25-C ) :   1.0464
B( 25-C , 26-H ) :   0.9551 B( 25-C , 27-H ) :   0.9593 B( 25-C , 28-C ) :   1.0678
B( 28-C , 29-H ) :   0.9767 B( 28-C , 30-H ) :   0.9760 B( 28-C , 31-H ) :   0.9772

Dispersion correction           -0.015040852
FINAL SINGLE POINT ENERGY     -1339.859046688127

DIPOLE MOMENT
-------------
                                X             Y             Z
Electronic contribution:     -1.74899     -26.48123      19.66966
Nuclear contribution   :      1.91477      27.04936     -20.01495
                        -----------------------------------------
Total Dipole Moment    :      0.16578       0.56813      -0.34529
                        -----------------------------------------
Magnitude (a.u.)       :      0.68519
Magnitude (Debye)      :      1.74161

Rotational constants in cm-1:     0.015361     0.011265     0.006966
Rotational constants in MHz :   460.504181   337.726396   208.826016

                             ****ORCA TERMINATED NORMALLY****
TOTAL RUN TIME: 0 days 0 hours 0 minutes 21 seconds 298 msec
