                         Program Version 4.2.1 -  RELEASE  -
|  1> ! wB97X-D3 SP def2-SVP
|  2> %pal
|  3> nprocs 24
|  4> end
|  5>
|  6> * xyz 0 1
|  7> S 	 -86.0098 	 -45.1263 	 -85.0173
|  8> C 	 -87.7446 	 -44.6696 	 -84.5896
|  9> C 	 -88.1294 	 -45.4689 	 -83.5323
| 10> C 	 -87.117 	 -46.3414 	 -83.0763
| 11> C 	 -85.8784 	 -46.325 	 -83.7652
| 12> H 	 -87.2319 	 -46.9986 	 -82.2251
| 13> C 	 -89.5618 	 -45.5466 	 -82.9654
| 14> H 	 -89.8326 	 -46.5602 	 -82.6884
| 15> H 	 -90.3566 	 -45.3302 	 -83.7661
| 16> C 	 -89.7238 	 -44.7179 	 -81.6947
| 17> H 	 -88.892 	 -44.8988 	 -81.0537
| 18> H 	 -89.7341 	 -43.7055 	 -82.0252
| 19> C 	 -90.9707 	 -44.9396 	 -80.8397
| 20> H 	 -91.8762 	 -45.1703 	 -81.4663
| 21> H 	 -90.8342 	 -45.6609 	 -80.0133
| 22> H 	 -91.2349 	 -43.9452 	 -80.4596
| 23> S 	 -84.0118 	 -47.8006 	 -85.1277
| 24> C 	 -83.0103 	 -48.9242 	 -84.2077
| 25> C 	 -83.2139 	 -48.7786 	 -82.821
| 26> C 	 -84.168 	 -47.7642 	 -82.4472
| 27> C 	 -84.7291 	 -47.2383 	 -83.5989
| 28> H 	 -82.5906 	 -49.2764 	 -82.0068
| 29> C 	 -84.5355 	 -47.4981 	 -81.0198
| 30> H 	 -85.4794 	 -47.9793 	 -80.712
| 31> H 	 -84.8803 	 -46.4512 	 -80.9966
| 32> C 	 -83.4931 	 -47.5596 	 -79.9613
| 33> H 	 -82.5522 	 -47.1295 	 -80.3257
| 34> H 	 -83.4393 	 -48.5791 	 -79.6748
| 35> C 	 -83.9517 	 -46.7483 	 -78.6903
| 36> H 	 -83.8731 	 -45.6894 	 -78.9832
| 37> H 	 -83.4324 	 -47.0011 	 -77.8294
| 38> H 	 -85.0219 	 -46.9464 	 -78.4212
| 39> H 	 -88.3139 	 -43.9482 	 -85.1475
| 40> H 	 -82.2268 	 -49.5068 	 -84.7283
| 41> *
| 42>
| 43>                          ****END OF INPUT****

CARTESIAN COORDINATES (ANGSTROEM)
---------------------------------
  S    -86.009800  -45.126300  -85.017300
  C    -87.744600  -44.669600  -84.589600
  C    -88.129400  -45.468900  -83.532300
  C    -87.117000  -46.341400  -83.076300
  C    -85.878400  -46.325000  -83.765200
  H    -87.231900  -46.998600  -82.225100
  C    -89.561800  -45.546600  -82.965400
  H    -89.832600  -46.560200  -82.688400
  H    -90.356600  -45.330200  -83.766100
  C    -89.723800  -44.717900  -81.694700
  H    -88.892000  -44.898800  -81.053700
  H    -89.734100  -43.705500  -82.025200
  C    -90.970700  -44.939600  -80.839700
  H    -91.876200  -45.170300  -81.466300
  H    -90.834200  -45.660900  -80.013300
  H    -91.234900  -43.945200  -80.459600
  S    -84.011800  -47.800600  -85.127700
  C    -83.010300  -48.924200  -84.207700
  C    -83.213900  -48.778600  -82.821000
  C    -84.168000  -47.764200  -82.447200
  C    -84.729100  -47.238300  -83.598900
  H    -82.590600  -49.276400  -82.006800
  C    -84.535500  -47.498100  -81.019800
  H    -85.479400  -47.979300  -80.712000
  H    -84.880300  -46.451200  -80.996600
  C    -83.493100  -47.559600  -79.961300
  H    -82.552200  -47.129500  -80.325700
  H    -83.439300  -48.579100  -79.674800
  C    -83.951700  -46.748300  -78.690300
  H    -83.873100  -45.689400  -78.983200
  H    -83.432400  -47.001100  -77.829400
  H    -85.021900  -46.946400  -78.421200
  H    -88.313900  -43.948200  -85.147500
  H    -82.226800  -49.506800  -84.728300

 Total Charge           Charge          ....    0
 Multiplicity           Mult            ....    1
 Number of Electrons    NEL             ....  134
 Basis Dimension        Dim             ....  322

ORBITAL ENERGIES
----------------

  NO   OCC          E(Eh)            E(eV)
   0   2.0000     -88.969504     -2420.9833
   1   2.0000     -88.964234     -2420.8399
   2   2.0000     -10.335050      -281.2310
   3   2.0000     -10.333731      -281.1951
   4   2.0000     -10.326748      -281.0051
   5   2.0000     -10.322088      -280.8783
   6   2.0000     -10.307449      -280.4799
   7   2.0000     -10.305357      -280.4230
   8   2.0000     -10.305226      -280.4195
   9   2.0000     -10.297398      -280.2064
  10   2.0000     -10.293878      -280.1107
  11   2.0000     -10.292787      -280.0810
  12   2.0000     -10.288468      -279.9635
  13   2.0000     -10.283454      -279.8270
  14   2.0000     -10.282867      -279.8110
  15   2.0000     -10.279157      -279.7101
  16   2.0000      -8.083613      -219.9663
  17   2.0000      -8.077774      -219.8074
  18   2.0000      -6.042132      -164.4148
  19   2.0000      -6.038301      -164.3105
  20   2.0000      -6.036402      -164.2589
  21   2.0000      -6.034298      -164.2016
  22   2.0000      -6.032329      -164.1480
  23   2.0000      -6.028593      -164.0464
  24   2.0000      -1.000407       -27.2225
  25   2.0000      -0.976755       -26.5788
  26   2.0000      -0.919502       -25.0209
  27   2.0000      -0.910276       -24.7699
  28   2.0000      -0.865744       -23.5581
  29   2.0000      -0.854895       -23.2629
  30   2.0000      -0.836836       -22.7715
  31   2.0000      -0.806294       -21.9404
  32   2.0000      -0.784519       -21.3478
  33   2.0000      -0.775069       -21.0907
  34   2.0000      -0.709602       -19.3093
  35   2.0000      -0.697532       -18.9808
  36   2.0000      -0.694452       -18.8970
  37   2.0000      -0.653726       -17.7888
  38   2.0000      -0.640361       -17.4251
  39   2.0000      -0.618924       -16.8418
  40   2.0000      -0.603365       -16.4184
  41   2.0000      -0.582898       -15.8615
  42   2.0000      -0.570374       -15.5207
  43   2.0000      -0.557467       -15.1695
  44   2.0000      -0.527089       -14.3428
  45   2.0000      -0.521297       -14.1852
  46   2.0000      -0.517739       -14.0884
  47   2.0000      -0.510116       -13.8810
  48   2.0000      -0.502875       -13.6839
  49   2.0000      -0.495010       -13.4699
  50   2.0000      -0.491587       -13.3768
  51   2.0000      -0.476565       -12.9680
  52   2.0000      -0.473050       -12.8723
  53   2.0000      -0.466488       -12.6938
  54   2.0000      -0.456805       -12.4303
  55   2.0000      -0.454790       -12.3755
  56   2.0000      -0.444800       -12.1036
  57   2.0000      -0.437589       -11.9074
  58   2.0000      -0.432269       -11.7626
  59   2.0000      -0.429409       -11.6848
  60   2.0000      -0.414209       -11.2712
  61   2.0000      -0.413939       -11.2638
  62   2.0000      -0.410974       -11.1832
  63   2.0000      -0.349074        -9.4988
  64   2.0000      -0.333821        -9.0837
  65   2.0000      -0.329426        -8.9641
  66   2.0000      -0.287249        -7.8164
  67   0.0000       0.019736         0.5371
  68   0.0000       0.070636         1.9221
  69   0.0000       0.100302         2.7294
  70   0.0000       0.122596         3.3360
  71   0.0000       0.125627         3.4185

MULLIKEN ATOMIC CHARGES
-----------------------
   0 S :    0.074655
   1 C :   -0.138021
   2 C :   -0.042230
   3 C :    0.016184
   4 C :   -0.131494
   5 H :   -0.002980
   6 C :    0.031614
   7 H :    0.017885
   8 H :    0.036906
   9 C :   -0.053214
  10 H :    0.023912
  11 H :    0.020151
  12 C :   -0.059431
  13 H :    0.029949
  14 H :    0.049007
  15 H :    0.030458
  16 S :    0.107390
  17 C :   -0.107802
  18 C :   -0.051122
  19 C :   -0.033381
  20 C :   -0.142925
  21 H :    0.047355
  22 C :    0.028784
  23 H :    0.044522
  24 H :    0.015956
  25 C :   -0.058974
  26 H :    0.044923
  27 H :    0.026170
  28 C :   -0.050421
  29 H :    0.046304
  30 H :    0.025090
  31 H :    0.028056
  32 H :    0.050694
  33 H :    0.076030
Sum of atomic charges:    0.0000000

LOEWDIN ATOMIC CHARGES
----------------------
   0 S :    0.369604
   1 C :   -0.167074
   2 C :   -0.060980
   3 C :   -0.071636
   4 C :   -0.193402
   5 H :    0.024635
   6 C :   -0.033533
   7 H :    0.025150
   8 H :    0.036039
   9 C :   -0.041977
  10 H :    0.022989
  11 H :    0.020790
  12 C :   -0.072967
  13 H :    0.028912
  14 H :    0.028398
  15 H :    0.030655
  16 S :    0.393238
  17 C :   -0.187644
  18 C :   -0.074806
  19 C :   -0.056440
  20 C :   -0.181193
  21 H :    0.042392
  22 C :   -0.044845
  23 H :    0.035341
  24 H :    0.034209
  25 C :   -0.035597
  26 H :    0.031093
  27 H :    0.018141
  28 C :   -0.056654
  29 H :    0.030459
  30 H :    0.015283
  31 H :    0.028582
  32 H :    0.027982
  33 H :    0.034857

  Mayer bond orders larger than 0.100000
B(  0-S ,  1-C ) :   1.1183 B(  0-S ,  4-C ) :   1.1572 B(  1-C ,  2-C ) :   1.5874
B(  1-C ,  4-C ) :   0.1044 B(  1-C , 32-H ) :   0.9796 B(  2-C ,  3-C ) :   1.2709
B(  2-C ,  6-C ) :   1.0126 B(  3-C ,  4-C ) :   1.5354 B(  3-C ,  5-H ) :   0.9913
B(  4-C , 20-C ) :   1.0474 B(  6-C ,  7-H ) :   0.9477 B(  6-C ,  8-H ) :   0.9457
B(  6-C ,  9-C ) :   1.0593 B(  9-C , 10-H ) :   0.9578 B(  9-C , 11-H ) :   0.9594
B(  9-C , 12-C ) :   1.0796 B( 12-C , 13-H ) :   0.9725 B( 12-C , 14-H ) :   0.9776
B( 12-C , 15-H ) :   0.9752 B( 16-S , 17-C ) :   1.1469 B( 16-S , 20-C ) :   1.1387
B( 17-C , 18-C ) :   1.5959 B( 17-C , 33-H ) :   0.9665 B( 18-C , 19-C ) :   1.2420
B( 18-C , 21-H ) :   0.9707 B( 19-C , 20-C ) :   1.6038 B( 19-C , 22-C ) :   1.0413
B( 22-C , 23-H ) :   0.9183 B( 22-C , 24-H ) :   0.9283 B( 22-C , 25-C ) :   1.0690
B( 25-C , 26-H ) :   0.9608 B( 25-C , 27-H ) :   0.9435 B( 25-C , 28-C ) :   1.0826
B( 28-C , 29-H ) :   0.9765 B( 28-C , 30-H ) :   0.9754 B( 28-C , 31-H ) :   0.9744

Dispersion correction           -0.013292789
FINAL SINGLE POINT ENERGY     -1339.868991286662

DIPOLE MOMENT
-------------
                                X             Y             Z
Electronic contribution:     14.29674      -3.11052     -28.63732
Nuclear contribution   :    -14.53611       3.00245      29.35349
                        -----------------------------------------
Total Dipole Moment    :     -0.23938      -0.10807       0.71616
                        -----------------------------------------
Magnitude (a.u.)       :      0.76280
Magnitude (Debye)      :      1.93889

Rotational constants in cm-1:     0.016203     0.008648     0.006111
Rotational constants in MHz :   485.765286   259.249841   183.194859

                             ****ORCA TERMINATED NORMALLY****
TOTAL RUN TIME: 0 days 0 hours 0 minutes 20 seconds 963 msec
