                         Program Version 4.2.1 -  RELEASE  -
|  1> ! wB97X-D3 SP def2-SVP
|  2> %pal
|  3> nprocs 24
|  4> end
|  5>
|  6> * xyz 0 1
|  7> S 	 -58.8348 	 12.6501 	 -97.7886
|  8> C 	 -57.2749 	 13.1483 	 -98.5174
|  9> C 	 -57.1309 	 14.5165 	 -98.363
| 10> C 	 -58.1815 	 15.1447 	 -97.5778
| 11> C 	 -59.1569 	 14.2431 	 -97.2614
| 12> H 	 -58.2064 	 16.1489 	 -97.2437
| 13> C 	 -55.8535 	 15.2986 	 -98.6819
| 14> H 	 -55.149 	 14.682 	 -99.214
| 15> H 	 -55.3874 	 15.64 	 -97.8198
| 16> C 	 -55.9946 	 16.4693 	 -99.5955
| 17> H 	 -56.2821 	 16.0956 	 -100.573
| 18> H 	 -56.8209 	 17.1293 	 -99.2942
| 19> C 	 -54.6648 	 17.2014 	 -99.7765
| 20> H 	 -53.7907 	 16.5645 	 -100.066
| 21> H 	 -54.804 	 18.1046 	 -100.37
| 22> H 	 -54.4258 	 17.6325 	 -98.7862
| 23> S 	 -61.8319 	 14.6434 	 -97.4533
| 24> C 	 -62.6415 	 15.4909 	 -96.29
| 25> C 	 -61.8748 	 15.8492 	 -95.1865
| 26> C 	 -60.5671 	 15.417 	 -95.3341
| 27> C 	 -60.3714 	 14.6956 	 -96.5278
| 28> H 	 -62.3014 	 16.411 	 -94.3054
| 29> C 	 -59.5538 	 15.7678 	 -94.2978
| 30> H 	 -59.6143 	 16.8307 	 -93.9519
| 31> H 	 -58.5027 	 15.6756 	 -94.6761
| 32> C 	 -59.6488 	 14.8447 	 -93.1214
| 33> H 	 -59.4379 	 13.9167 	 -93.6162
| 34> H 	 -60.6805 	 14.8639 	 -92.763
| 35> C 	 -58.7132 	 15.2841 	 -91.9529
| 36> H 	 -59.1125 	 16.2246 	 -91.4705
| 37> H 	 -57.7913 	 15.4365 	 -92.4787
| 38> H 	 -58.587 	 14.489 	 -91.2855
| 39> H 	 -56.6302 	 12.4655 	 -98.9994
| 40> H 	 -63.6892 	 15.8097 	 -96.4446
| 41> *
| 42>
| 43>                          ****END OF INPUT****

CARTESIAN COORDINATES (ANGSTROEM)
---------------------------------
  S    -58.834800   12.650100  -97.788600
  C    -57.274900   13.148300  -98.517400
  C    -57.130900   14.516500  -98.363000
  C    -58.181500   15.144700  -97.577800
  C    -59.156900   14.243100  -97.261400
  H    -58.206400   16.148900  -97.243700
  C    -55.853500   15.298600  -98.681900
  H    -55.149000   14.682000  -99.214000
  H    -55.387400   15.640000  -97.819800
  C    -55.994600   16.469300  -99.595500
  H    -56.282100   16.095600  -100.573000
  H    -56.820900   17.129300  -99.294200
  C    -54.664800   17.201400  -99.776500
  H    -53.790700   16.564500  -100.066000
  H    -54.804000   18.104600  -100.370000
  H    -54.425800   17.632500  -98.786200
  S    -61.831900   14.643400  -97.453300
  C    -62.641500   15.490900  -96.290000
  C    -61.874800   15.849200  -95.186500
  C    -60.567100   15.417000  -95.334100
  C    -60.371400   14.695600  -96.527800
  H    -62.301400   16.411000  -94.305400
  C    -59.553800   15.767800  -94.297800
  H    -59.614300   16.830700  -93.951900
  H    -58.502700   15.675600  -94.676100
  C    -59.648800   14.844700  -93.121400
  H    -59.437900   13.916700  -93.616200
  H    -60.680500   14.863900  -92.763000
  C    -58.713200   15.284100  -91.952900
  H    -59.112500   16.224600  -91.470500
  H    -57.791300   15.436500  -92.478700
  H    -58.587000   14.489000  -91.285500
  H    -56.630200   12.465500  -98.999400
  H    -63.689200   15.809700  -96.444600

 Total Charge           Charge          ....    0
 Multiplicity           Mult            ....    1
 Number of Electrons    NEL             ....  134
 Basis Dimension        Dim             ....  322

ORBITAL ENERGIES
----------------

  NO   OCC          E(Eh)            E(eV)
   0   2.0000     -88.966669     -2420.9061
   1   2.0000     -88.966243     -2420.8945
   2   2.0000     -10.327037      -281.0130
   3   2.0000     -10.324086      -280.9327
   4   2.0000     -10.316309      -280.7210
   5   2.0000     -10.311368      -280.5866
   6   2.0000     -10.304933      -280.4115
   7   2.0000     -10.300340      -280.2865
   8   2.0000     -10.292580      -280.0753
   9   2.0000     -10.289088      -279.9803
  10   2.0000     -10.288434      -279.9625
  11   2.0000     -10.282723      -279.8071
  12   2.0000     -10.281071      -279.7622
  13   2.0000     -10.280720      -279.7526
  14   2.0000     -10.277663      -279.6694
  15   2.0000     -10.277044      -279.6526
  16   2.0000      -8.083777      -219.9708
  17   2.0000      -8.081148      -219.8992
  18   2.0000      -6.041773      -164.4050
  19   2.0000      -6.039679      -164.3480
  20   2.0000      -6.037872      -164.2989
  21   2.0000      -6.035614      -164.2374
  22   2.0000      -6.035012      -164.2210
  23   2.0000      -6.031894      -164.1362
  24   2.0000      -1.015675       -27.6379
  25   2.0000      -0.989757       -26.9327
  26   2.0000      -0.919918       -25.0323
  27   2.0000      -0.918400       -24.9909
  28   2.0000      -0.867269       -23.5996
  29   2.0000      -0.856944       -23.3186
  30   2.0000      -0.846253       -23.0277
  31   2.0000      -0.809903       -22.0386
  32   2.0000      -0.783370       -21.3166
  33   2.0000      -0.773477       -21.0474
  34   2.0000      -0.700622       -19.0649
  35   2.0000      -0.694510       -18.8986
  36   2.0000      -0.688662       -18.7395
  37   2.0000      -0.660459       -17.9720
  38   2.0000      -0.646983       -17.6053
  39   2.0000      -0.624691       -16.9987
  40   2.0000      -0.605738       -16.4830
  41   2.0000      -0.573660       -15.6101
  42   2.0000      -0.570273       -15.5179
  43   2.0000      -0.562982       -15.3195
  44   2.0000      -0.524825       -14.2812
  45   2.0000      -0.522225       -14.2105
  46   2.0000      -0.516451       -14.0534
  47   2.0000      -0.513543       -13.9742
  48   2.0000      -0.503442       -13.6994
  49   2.0000      -0.502769       -13.6810
  50   2.0000      -0.492807       -13.4100
  51   2.0000      -0.483337       -13.1523
  52   2.0000      -0.469701       -12.7812
  53   2.0000      -0.463328       -12.6078
  54   2.0000      -0.459628       -12.5071
  55   2.0000      -0.454894       -12.3783
  56   2.0000      -0.453623       -12.3437
  57   2.0000      -0.433732       -11.8024
  58   2.0000      -0.430250       -11.7077
  59   2.0000      -0.424515       -11.5517
  60   2.0000      -0.419819       -11.4238
  61   2.0000      -0.414501       -11.2792
  62   2.0000      -0.413765       -11.2591
  63   2.0000      -0.341151        -9.2832
  64   2.0000      -0.334073        -9.0906
  65   2.0000      -0.329786        -8.9739
  66   2.0000      -0.297332        -8.0908
  67   0.0000       0.043688         1.1888
  68   0.0000       0.066734         1.8159
  69   0.0000       0.115952         3.1552
  70   0.0000       0.122441         3.3318
  71   0.0000       0.130551         3.5525

MULLIKEN ATOMIC CHARGES
-----------------------
   0 S :    0.103732
   1 C :   -0.119400
   2 C :   -0.047058
   3 C :    0.041406
   4 C :   -0.138532
   5 H :    0.008586
   6 C :    0.091573
   7 H :    0.001756
   8 H :    0.012313
   9 C :   -0.092415
  10 H :    0.019500
  11 H :    0.028254
  12 C :   -0.052616
  13 H :    0.046616
  14 H :    0.037697
  15 H :    0.017240
  16 S :    0.141647
  17 C :   -0.105035
  18 C :   -0.066984
  19 C :   -0.009404
  20 C :   -0.183165
  21 H :    0.040358
  22 C :    0.023680
  23 H :    0.024125
  24 H :    0.021166
  25 C :   -0.095970
  26 H :    0.027815
  27 H :    0.023682
  28 C :    0.003659
  29 H :    0.046044
  30 H :    0.018170
  31 H :    0.029938
  32 H :    0.036776
  33 H :    0.064846
Sum of atomic charges:   -0.0000000

LOEWDIN ATOMIC CHARGES
----------------------
   0 S :    0.400681
   1 C :   -0.179791
   2 C :   -0.050081
   3 C :   -0.060387
   4 C :   -0.207954
   5 H :    0.027326
   6 C :   -0.027049
   7 H :    0.026626
   8 H :    0.020053
   9 C :   -0.043721
  10 H :    0.020771
  11 H :    0.022402
  12 C :   -0.069416
  13 H :    0.032005
  14 H :    0.028697
  15 H :    0.023809
  16 S :    0.471531
  17 C :   -0.220487
  18 C :   -0.082673
  19 C :   -0.056152
  20 C :   -0.213766
  21 H :    0.043673
  22 C :   -0.041053
  23 H :    0.028097
  24 H :    0.028073
  25 C :   -0.037967
  26 H :    0.024661
  27 H :    0.018563
  28 C :   -0.056095
  29 H :    0.035220
  30 H :    0.022111
  31 H :    0.019095
  32 H :    0.020928
  33 H :    0.032268

  Mayer bond orders larger than 0.100000
B(  0-S ,  1-C ) :   1.1101 B(  0-S ,  4-C ) :   1.1667 B(  1-C ,  2-C ) :   1.6254
B(  1-C , 32-H ) :   0.9815 B(  2-C ,  3-C ) :   1.2028 B(  2-C ,  6-C ) :   1.0272
B(  3-C ,  4-C ) :   1.5887 B(  3-C ,  5-H ) :   1.0018 B(  4-C , 20-C ) :   0.9842
B(  6-C ,  7-H ) :   0.9401 B(  6-C ,  8-H ) :   0.9465 B(  6-C ,  9-C ) :   1.0588
B(  9-C , 10-H ) :   0.9515 B(  9-C , 11-H ) :   0.9562 B(  9-C , 12-C ) :   1.0867
B( 12-C , 13-H ) :   0.9720 B( 12-C , 14-H ) :   0.9719 B( 12-C , 15-H ) :   0.9713
B( 16-S , 17-C ) :   1.2198 B( 16-S , 20-C ) :   1.1816 B( 17-C , 18-C ) :   1.5398
B( 17-C , 20-C ) :   0.1037 B( 17-C , 33-H ) :   0.9618 B( 18-C , 19-C ) :   1.2994
B( 18-C , 21-H ) :   0.9858 B( 19-C , 20-C ) :   1.5563 B( 19-C , 22-C ) :   1.0469
B( 22-C , 23-H ) :   0.9364 B( 22-C , 24-H ) :   0.9297 B( 22-C , 25-C ) :   1.0560
B( 25-C , 26-H ) :   0.9548 B( 25-C , 27-H ) :   0.9611 B( 25-C , 28-C ) :   1.0683
B( 28-C , 29-H ) :   0.9738 B( 28-C , 30-H ) :   0.9731 B( 28-C , 31-H ) :   0.9747

Dispersion correction           -0.013609435
FINAL SINGLE POINT ENERGY     -1339.875768696054

DIPOLE MOMENT
-------------
                                X             Y             Z
Electronic contribution:    -20.08448     -14.99850      -9.08498
Nuclear contribution   :     20.38698      15.47956       9.26309
                        -----------------------------------------
Total Dipole Moment    :      0.30250       0.48106       0.17811
                        -----------------------------------------
Magnitude (a.u.)       :      0.59552
Magnitude (Debye)      :      1.51370

Rotational constants in cm-1:     0.016991     0.007972     0.006902
Rotational constants in MHz :   509.371595   238.988188   206.910422

                             ****ORCA TERMINATED NORMALLY****
TOTAL RUN TIME: 0 days 0 hours 0 minutes 21 seconds 237 msec
