                         Program Version 4.2.1 -  RELEASE  -
|  1> ! wB97X-D3 SP def2-SVP
|  2> %pal
|  3> nprocs 24
|  4> end
|  5>
|  6> * xyz 0 1
|  7> S 	 -60.239 	 17.6224 	 -100.857
|  8> C 	 -61.5736 	 18.3956 	 -99.9343
|  9> C 	 -61.21 	 18.4526 	 -98.5729
| 10> C 	 -59.9107 	 17.9474 	 -98.2488
| 11> C 	 -59.3108 	 17.4319 	 -99.3263
| 12> H 	 -59.447 	 18.0028 	 -97.2615
| 13> C 	 -61.9999 	 19.3585 	 -97.5919
| 14> H 	 -62.8832 	 19.7517 	 -98.1235
| 15> H 	 -61.4568 	 20.2069 	 -97.183
| 16> C 	 -62.5933 	 18.6462 	 -96.3602
| 17> H 	 -63.1599 	 17.7777 	 -96.6379
| 18> H 	 -61.8534 	 18.306 	 -95.5896
| 19> C 	 -63.6088 	 19.3931 	 -95.5221
| 20> H 	 -64.5127 	 19.7332 	 -96.0255
| 21> H 	 -63.9043 	 18.9012 	 -94.5773
| 22> H 	 -63.2017 	 20.2887 	 -95.1734
| 23> S 	 -56.6865 	 17.8022 	 -99.2328
| 24> C 	 -55.6085 	 16.5112 	 -99.6459
| 25> C 	 -56.2717 	 15.3035 	 -99.7247
| 26> C 	 -57.692 	 15.4172 	 -99.5749
| 27> C 	 -58.0405 	 16.7595 	 -99.3524
| 28> H 	 -55.6946 	 14.3955 	 -99.8924
| 29> C 	 -58.5942 	 14.2484 	 -99.8995
| 30> H 	 -58.7601 	 14.2331 	 -100.932
| 31> H 	 -59.5346 	 14.4857 	 -99.4868
| 32> C 	 -57.9293 	 12.9114 	 -99.357
| 33> H 	 -57.5022 	 13.1958 	 -98.4368
| 34> H 	 -57.0522 	 12.5879 	 -99.9937
| 35> C 	 -58.9499 	 11.7982 	 -99.073
| 36> H 	 -59.4878 	 11.5654 	 -99.9602
| 37> H 	 -59.7421 	 12.2435 	 -98.4144
| 38> H 	 -58.5381 	 10.9026 	 -98.578
| 39> H 	 -62.5249 	 18.594 	 -100.411
| 40> H 	 -54.5425 	 16.5127 	 -99.6411
| 41> *
| 42>
| 43>                          ****END OF INPUT****

CARTESIAN COORDINATES (ANGSTROEM)
---------------------------------
  S    -60.239000   17.622400  -100.857000
  C    -61.573600   18.395600  -99.934300
  C    -61.210000   18.452600  -98.572900
  C    -59.910700   17.947400  -98.248800
  C    -59.310800   17.431900  -99.326300
  H    -59.447000   18.002800  -97.261500
  C    -61.999900   19.358500  -97.591900
  H    -62.883200   19.751700  -98.123500
  H    -61.456800   20.206900  -97.183000
  C    -62.593300   18.646200  -96.360200
  H    -63.159900   17.777700  -96.637900
  H    -61.853400   18.306000  -95.589600
  C    -63.608800   19.393100  -95.522100
  H    -64.512700   19.733200  -96.025500
  H    -63.904300   18.901200  -94.577300
  H    -63.201700   20.288700  -95.173400
  S    -56.686500   17.802200  -99.232800
  C    -55.608500   16.511200  -99.645900
  C    -56.271700   15.303500  -99.724700
  C    -57.692000   15.417200  -99.574900
  C    -58.040500   16.759500  -99.352400
  H    -55.694600   14.395500  -99.892400
  C    -58.594200   14.248400  -99.899500
  H    -58.760100   14.233100  -100.932000
  H    -59.534600   14.485700  -99.486800
  C    -57.929300   12.911400  -99.357000
  H    -57.502200   13.195800  -98.436800
  H    -57.052200   12.587900  -99.993700
  C    -58.949900   11.798200  -99.073000
  H    -59.487800   11.565400  -99.960200
  H    -59.742100   12.243500  -98.414400
  H    -58.538100   10.902600  -98.578000
  H    -62.524900   18.594000  -100.411000
  H    -54.542500   16.512700  -99.641100

 Total Charge           Charge          ....    0
 Multiplicity           Mult            ....    1
 Number of Electrons    NEL             ....  134
 Basis Dimension        Dim             ....  322

ORBITAL ENERGIES
----------------

  NO   OCC          E(Eh)            E(eV)
   0   2.0000     -88.965320     -2420.8694
   1   2.0000     -88.965179     -2420.8656
   2   2.0000     -10.327392      -281.0226
   3   2.0000     -10.323926      -280.9283
   4   2.0000     -10.318442      -280.7791
   5   2.0000     -10.310369      -280.5594
   6   2.0000     -10.309375      -280.5323
   7   2.0000     -10.302507      -280.3455
   8   2.0000     -10.296618      -280.1852
   9   2.0000     -10.294783      -280.1353
  10   2.0000     -10.290188      -280.0102
  11   2.0000     -10.289856      -280.0012
  12   2.0000     -10.285123      -279.8724
  13   2.0000     -10.283146      -279.8186
  14   2.0000     -10.279523      -279.7201
  15   2.0000     -10.270381      -279.4713
  16   2.0000      -8.080770      -219.8889
  17   2.0000      -8.078813      -219.8357
  18   2.0000      -6.039212      -164.3353
  19   2.0000      -6.037393      -164.2858
  20   2.0000      -6.035089      -164.2231
  21   2.0000      -6.033605      -164.1827
  22   2.0000      -6.031627      -164.1289
  23   2.0000      -6.029457      -164.0699
  24   2.0000      -1.008333       -27.4381
  25   2.0000      -0.979945       -26.6657
  26   2.0000      -0.907875       -24.7045
  27   2.0000      -0.906237       -24.6600
  28   2.0000      -0.871269       -23.7084
  29   2.0000      -0.849927       -23.1277
  30   2.0000      -0.846437       -23.0327
  31   2.0000      -0.817615       -22.2484
  32   2.0000      -0.782536       -21.2939
  33   2.0000      -0.766792       -20.8655
  34   2.0000      -0.709480       -19.3059
  35   2.0000      -0.702838       -19.1252
  36   2.0000      -0.692139       -18.8341
  37   2.0000      -0.655932       -17.8488
  38   2.0000      -0.642593       -17.4858
  39   2.0000      -0.622136       -16.9292
  40   2.0000      -0.595184       -16.1958
  41   2.0000      -0.571045       -15.5389
  42   2.0000      -0.564259       -15.3543
  43   2.0000      -0.554649       -15.0928
  44   2.0000      -0.530165       -14.4265
  45   2.0000      -0.524150       -14.2628
  46   2.0000      -0.519483       -14.1359
  47   2.0000      -0.512992       -13.9592
  48   2.0000      -0.504881       -13.7385
  49   2.0000      -0.494838       -13.4652
  50   2.0000      -0.487235       -13.2583
  51   2.0000      -0.476875       -12.9764
  52   2.0000      -0.473092       -12.8735
  53   2.0000      -0.463858       -12.6222
  54   2.0000      -0.462396       -12.5824
  55   2.0000      -0.451813       -12.2945
  56   2.0000      -0.446797       -12.1580
  57   2.0000      -0.433310       -11.7910
  58   2.0000      -0.426396       -11.6028
  59   2.0000      -0.423033       -11.5113
  60   2.0000      -0.419866       -11.4251
  61   2.0000      -0.417561       -11.3624
  62   2.0000      -0.413812       -11.2604
  63   2.0000      -0.340511        -9.2658
  64   2.0000      -0.333966        -9.0877
  65   2.0000      -0.317661        -8.6440
  66   2.0000      -0.305158        -8.3038
  67   0.0000       0.039282         1.0689
  68   0.0000       0.058404         1.5892
  69   0.0000       0.104359         2.8397
  70   0.0000       0.114427         3.1137
  71   0.0000       0.131713         3.5841

MULLIKEN ATOMIC CHARGES
-----------------------
   0 S :    0.095226
   1 C :   -0.135527
   2 C :   -0.047724
   3 C :    0.040190
   4 C :   -0.143719
   5 H :    0.030080
   6 C :    0.055010
   7 H :    0.017188
   8 H :    0.040277
   9 C :   -0.094457
  10 H :    0.024199
  11 H :    0.030770
  12 C :   -0.039091
  13 H :    0.022654
  14 H :    0.033892
  15 H :   -0.002765
  16 S :    0.128879
  17 C :   -0.070125
  18 C :   -0.066494
  19 C :   -0.047678
  20 C :   -0.206409
  21 H :    0.023340
  22 C :    0.144348
  23 H :    0.031515
  24 H :    0.008798
  25 C :   -0.123710
  26 H :    0.026104
  27 H :    0.046874
  28 C :   -0.028685
  29 H :    0.024238
  30 H :    0.031308
  31 H :    0.046100
  32 H :    0.063724
  33 H :    0.041669
Sum of atomic charges:    0.0000000

LOEWDIN ATOMIC CHARGES
----------------------
   0 S :    0.361374
   1 C :   -0.178757
   2 C :   -0.056397
   3 C :   -0.059097
   4 C :   -0.176994
   5 H :    0.042159
   6 C :   -0.028811
   7 H :    0.031581
   8 H :    0.032118
   9 C :   -0.051567
  10 H :    0.020997
  11 H :    0.026776
  12 C :   -0.069261
  13 H :    0.021175
  14 H :    0.032335
  15 H :    0.011286
  16 S :    0.437109
  17 C :   -0.193098
  18 C :   -0.072340
  19 C :   -0.050536
  20 C :   -0.222426
  21 H :    0.031795
  22 C :   -0.018090
  23 H :    0.028270
  24 H :    0.024865
  25 C :   -0.038649
  26 H :    0.017675
  27 H :    0.028422
  28 C :   -0.066280
  29 H :    0.019226
  30 H :    0.031770
  31 H :    0.029600
  32 H :    0.029475
  33 H :    0.024293

  Mayer bond orders larger than 0.100000
B(  0-S ,  1-C ) :   1.1209 B(  0-S ,  4-C ) :   1.1209 B(  1-C ,  2-C ) :   1.6250
B(  1-C , 32-H ) :   0.9703 B(  2-C ,  3-C ) :   1.1993 B(  2-C ,  6-C ) :   1.0306
B(  3-C ,  4-C ) :   1.6324 B(  3-C ,  5-H ) :   0.9940 B(  4-C , 20-C ) :   1.0065
B(  6-C ,  7-H ) :   0.9450 B(  6-C ,  8-H ) :   0.9488 B(  6-C ,  9-C ) :   1.0493
B(  9-C , 10-H ) :   0.9581 B(  9-C , 11-H ) :   0.9540 B(  9-C , 12-C ) :   1.0917
B( 12-C , 13-H ) :   0.9725 B( 12-C , 14-H ) :   0.9727 B( 12-C , 15-H ) :   0.9682
B( 16-S , 17-C ) :   1.1552 B( 16-S , 20-C ) :   1.1708 B( 17-C , 18-C ) :   1.6184
B( 17-C , 33-H ) :   0.9648 B( 18-C , 19-C ) :   1.2372 B( 18-C , 21-H ) :   0.9845
B( 19-C , 20-C ) :   1.5772 B( 19-C , 22-C ) :   1.0461 B( 22-C , 23-H ) :   0.9272
B( 22-C , 24-H ) :   0.9251 B( 22-C , 25-C ) :   1.0488 B( 25-C , 26-H ) :   0.9668
B( 25-C , 27-H ) :   0.9481 B( 25-C , 28-C ) :   1.0809 B( 28-C , 29-H ) :   0.9733
B( 28-C , 30-H ) :   0.9742 B( 28-C , 31-H ) :   0.9745

Dispersion correction           -0.013465920
FINAL SINGLE POINT ENERGY     -1339.867177529131

DIPOLE MOMENT
-------------
                                X             Y             Z
Electronic contribution:     15.27950      10.95815     -14.84109
Nuclear contribution   :    -15.43297     -11.19217      15.13287
                        -----------------------------------------
Total Dipole Moment    :     -0.15347      -0.23401       0.29178
                        -----------------------------------------
Magnitude (a.u.)       :      0.40429
Magnitude (Debye)      :      1.02762

Rotational constants in cm-1:     0.018577     0.007253     0.006375
Rotational constants in MHz :   556.933756   217.441115   191.104654

                             ****ORCA TERMINATED NORMALLY****
TOTAL RUN TIME: 0 days 0 hours 0 minutes 20 seconds 651 msec
