                         Program Version 4.2.1 -  RELEASE  -
|  1> ! wB97X-D3 SP def2-SVP
|  2> %pal
|  3> nprocs 24
|  4> end
|  5>
|  6> * xyz 0 1
|  7> S 	 -138.934 	 22.442 	 -21.2568
|  8> C 	 -140.69 	 22.2121 	 -21.4706
|  9> C 	 -141.462 	 22.9122 	 -20.555
| 10> C 	 -140.614 	 23.667 	 -19.6801
| 11> C 	 -139.259 	 23.5006 	 -19.8263
| 12> H 	 -140.975 	 24.2617 	 -18.8922
| 13> C 	 -143.012 	 22.9881 	 -20.5126
| 14> H 	 -143.334 	 23.8369 	 -21.098
| 15> H 	 -143.185 	 23.2656 	 -19.4392
| 16> C 	 -143.738 	 21.7307 	 -20.8344
| 17> H 	 -143.345 	 21.3234 	 -21.7701
| 18> H 	 -143.447 	 21.0139 	 -20.0405
| 19> C 	 -145.238 	 21.8757 	 -20.8973
| 20> H 	 -145.61 	 22.4346 	 -21.8046
| 21> H 	 -145.693 	 20.9206 	 -21.0254
| 22> H 	 -145.654 	 22.4049 	 -19.9821
| 23> S 	 -137.16 	 25.1886 	 -20.0103
| 24> C 	 -136.361 	 25.6925 	 -18.5203
| 25> C 	 -136.861 	 24.9369 	 -17.4517
| 26> C 	 -138.012 	 24.1513 	 -17.7186
| 27> C 	 -138.218 	 24.2096 	 -19.0703
| 28> H 	 -136.485 	 24.9833 	 -16.455
| 29> C 	 -138.824 	 23.3592 	 -16.7327
| 30> H 	 -138.048 	 22.7494 	 -16.1651
| 31> H 	 -139.512 	 22.6884 	 -17.2279
| 32> C 	 -139.572 	 24.2892 	 -15.6695
| 33> H 	 -140.258 	 24.9922 	 -16.045
| 34> H 	 -138.964 	 24.8659 	 -15.0059
| 35> C 	 -140.385 	 23.319 	 -14.7051
| 36> H 	 -139.62 	 22.6379 	 -14.302
| 37> H 	 -141.142 	 22.8142 	 -15.3495
| 38> H 	 -140.801 	 23.7699 	 -13.7692
| 39> H 	 -141.136 	 21.6285 	 -22.2518
| 40> H 	 -135.503 	 26.2736 	 -18.4717
| 41> *
| 42>
| 43>                          ****END OF INPUT****

CARTESIAN COORDINATES (ANGSTROEM)
---------------------------------
  S    -138.934000   22.442000  -21.256800
  C    -140.690000   22.212100  -21.470600
  C    -141.462000   22.912200  -20.555000
  C    -140.614000   23.667000  -19.680100
  C    -139.259000   23.500600  -19.826300
  H    -140.975000   24.261700  -18.892200
  C    -143.012000   22.988100  -20.512600
  H    -143.334000   23.836900  -21.098000
  H    -143.185000   23.265600  -19.439200
  C    -143.738000   21.730700  -20.834400
  H    -143.345000   21.323400  -21.770100
  H    -143.447000   21.013900  -20.040500
  C    -145.238000   21.875700  -20.897300
  H    -145.610000   22.434600  -21.804600
  H    -145.693000   20.920600  -21.025400
  H    -145.654000   22.404900  -19.982100
  S    -137.160000   25.188600  -20.010300
  C    -136.361000   25.692500  -18.520300
  C    -136.861000   24.936900  -17.451700
  C    -138.012000   24.151300  -17.718600
  C    -138.218000   24.209600  -19.070300
  H    -136.485000   24.983300  -16.455000
  C    -138.824000   23.359200  -16.732700
  H    -138.048000   22.749400  -16.165100
  H    -139.512000   22.688400  -17.227900
  C    -139.572000   24.289200  -15.669500
  H    -140.258000   24.992200  -16.045000
  H    -138.964000   24.865900  -15.005900
  C    -140.385000   23.319000  -14.705100
  H    -139.620000   22.637900  -14.302000
  H    -141.142000   22.814200  -15.349500
  H    -140.801000   23.769900  -13.769200
  H    -141.136000   21.628500  -22.251800
  H    -135.503000   26.273600  -18.471700

 Total Charge           Charge          ....    0
 Multiplicity           Mult            ....    1
 Number of Electrons    NEL             ....  134
 Basis Dimension        Dim             ....  322

ORBITAL ENERGIES
----------------

  NO   OCC          E(Eh)            E(eV)
   0   2.0000     -88.967253     -2420.9220
   1   2.0000     -88.966068     -2420.8898
   2   2.0000     -10.328767      -281.0600
   3   2.0000     -10.321196      -280.8540
   4   2.0000     -10.314685      -280.6768
   5   2.0000     -10.314074      -280.6602
   6   2.0000     -10.305785      -280.4347
   7   2.0000     -10.302007      -280.3319
   8   2.0000     -10.298950      -280.2487
   9   2.0000     -10.295420      -280.1526
  10   2.0000     -10.293681      -280.1053
  11   2.0000     -10.290422      -280.0166
  12   2.0000     -10.288741      -279.9709
  13   2.0000     -10.287771      -279.9445
  14   2.0000     -10.286747      -279.9166
  15   2.0000     -10.285375      -279.8793
  16   2.0000      -8.082256      -219.9294
  17   2.0000      -8.079240      -219.8473
  18   2.0000      -6.040686      -164.3754
  19   2.0000      -6.037873      -164.2989
  20   2.0000      -6.036790      -164.2694
  21   2.0000      -6.034114      -164.1966
  22   2.0000      -6.033024      -164.1669
  23   2.0000      -6.029826      -164.0799
  24   2.0000      -1.006256       -27.3816
  25   2.0000      -0.977360       -26.5953
  26   2.0000      -0.915712       -24.9178
  27   2.0000      -0.904825       -24.6215
  28   2.0000      -0.865574       -23.5535
  29   2.0000      -0.853647       -23.2289
  30   2.0000      -0.845048       -22.9949
  31   2.0000      -0.810894       -22.0655
  32   2.0000      -0.780223       -21.2310
  33   2.0000      -0.769148       -20.9296
  34   2.0000      -0.708184       -19.2707
  35   2.0000      -0.706925       -19.2364
  36   2.0000      -0.692477       -18.8432
  37   2.0000      -0.666823       -18.1452
  38   2.0000      -0.639185       -17.3931
  39   2.0000      -0.614171       -16.7125
  40   2.0000      -0.599532       -16.3141
  41   2.0000      -0.573363       -15.6020
  42   2.0000      -0.565493       -15.3879
  43   2.0000      -0.559812       -15.2332
  44   2.0000      -0.527833       -14.3631
  45   2.0000      -0.523181       -14.2365
  46   2.0000      -0.518251       -14.1023
  47   2.0000      -0.516599       -14.0574
  48   2.0000      -0.502381       -13.6705
  49   2.0000      -0.496280       -13.5045
  50   2.0000      -0.490013       -13.3339
  51   2.0000      -0.474905       -12.9228
  52   2.0000      -0.470188       -12.7945
  53   2.0000      -0.459662       -12.5080
  54   2.0000      -0.457985       -12.4624
  55   2.0000      -0.445239       -12.1156
  56   2.0000      -0.444985       -12.1087
  57   2.0000      -0.436150       -11.8683
  58   2.0000      -0.434815       -11.8319
  59   2.0000      -0.433142       -11.7864
  60   2.0000      -0.425048       -11.5661
  61   2.0000      -0.423106       -11.5133
  62   2.0000      -0.416223       -11.3260
  63   2.0000      -0.342101        -9.3090
  64   2.0000      -0.331443        -9.0190
  65   2.0000      -0.328850        -8.9485
  66   2.0000      -0.293998        -8.0001
  67   0.0000       0.034985         0.9520
  68   0.0000       0.065563         1.7841
  69   0.0000       0.110549         3.0082
  70   0.0000       0.115103         3.1321
  71   0.0000       0.131134         3.5683

MULLIKEN ATOMIC CHARGES
-----------------------
   0 S :    0.098963
   1 C :   -0.130391
   2 C :   -0.087327
   3 C :    0.045115
   4 C :   -0.161307
   5 H :   -0.011721
   6 C :    0.077931
   7 H :    0.041891
   8 H :    0.021739
   9 C :   -0.092372
  10 H :    0.026881
  11 H :    0.037307
  12 C :   -0.047038
  13 H :    0.035706
  14 H :    0.029720
  15 H :    0.040734
  16 S :    0.121502
  17 C :   -0.063727
  18 C :   -0.021990
  19 C :   -0.012160
  20 C :   -0.182425
  21 H :    0.000001
  22 C :    0.057944
  23 H :    0.044218
  24 H :    0.038917
  25 C :   -0.063276
  26 H :    0.026638
  27 H :    0.022584
  28 C :   -0.086380
  29 H :    0.028547
  30 H :    0.045267
  31 H :    0.043696
  32 H :    0.039856
  33 H :    0.034956
Sum of atomic charges:   -0.0000000

LOEWDIN ATOMIC CHARGES
----------------------
   0 S :    0.361652
   1 C :   -0.184971
   2 C :   -0.062393
   3 C :   -0.059600
   4 C :   -0.176043
   5 H :    0.021367
   6 C :   -0.030020
   7 H :    0.031078
   8 H :    0.032910
   9 C :   -0.049649
  10 H :    0.022593
  11 H :    0.032586
  12 C :   -0.069227
  13 H :    0.031039
  14 H :    0.023459
  15 H :    0.032605
  16 S :    0.417403
  17 C :   -0.177100
  18 C :   -0.055528
  19 C :   -0.061068
  20 C :   -0.203307
  21 H :    0.023025
  22 C :   -0.021868
  23 H :    0.044240
  24 H :    0.031630
  25 C :   -0.031391
  26 H :    0.015251
  27 H :    0.019671
  28 C :   -0.073937
  29 H :    0.023791
  30 H :    0.027611
  31 H :    0.028276
  32 H :    0.021086
  33 H :    0.014830

  Mayer bond orders larger than 0.100000
B(  0-S ,  1-C ) :   1.1247 B(  0-S ,  4-C ) :   1.1203 B(  1-C ,  2-C ) :   1.6368
B(  1-C , 32-H ) :   0.9663 B(  2-C ,  3-C ) :   1.2321 B(  2-C ,  6-C ) :   0.9950
B(  3-C ,  4-C ) :   1.6052 B(  3-C ,  5-H ) :   0.9967 B(  4-C , 20-C ) :   1.0191
B(  6-C ,  7-H ) :   0.9382 B(  6-C ,  8-H ) :   0.9403 B(  6-C ,  9-C ) :   1.0707
B(  9-C , 10-H ) :   0.9501 B(  9-C , 11-H ) :   0.9543 B(  9-C , 12-C ) :   1.0942
B( 12-C , 13-H ) :   0.9711 B( 12-C , 14-H ) :   0.9711 B( 12-C , 15-H ) :   0.9718
B( 16-S , 17-C ) :   1.1368 B( 16-S , 20-C ) :   1.1634 B( 17-C , 18-C ) :   1.6015
B( 17-C , 33-H ) :   0.9792 B( 18-C , 19-C ) :   1.2445 B( 18-C , 21-H ) :   0.9853
B( 19-C , 20-C ) :   1.5950 B( 19-C , 22-C ) :   1.0457 B( 22-C , 23-H ) :   0.9311
B( 22-C , 24-H ) :   0.9355 B( 22-C , 25-C ) :   1.0415 B( 25-C , 26-H ) :   0.9636
B( 25-C , 27-H ) :   0.9590 B( 25-C , 28-C ) :   1.0709 B( 28-C , 29-H ) :   0.9763
B( 28-C , 30-H ) :   0.9781 B( 28-C , 31-H ) :   0.9762

Dispersion correction           -0.013708633
FINAL SINGLE POINT ENERGY     -1339.876343925431

DIPOLE MOMENT
-------------
                                X             Y             Z
Electronic contribution:     26.01136       6.57890     -15.97992
Nuclear contribution   :    -26.48522      -6.59129      16.46525
                        -----------------------------------------
Total Dipole Moment    :     -0.47385      -0.01240       0.48533
                        -----------------------------------------
Magnitude (a.u.)       :      0.67841
Magnitude (Debye)      :      1.72437

Rotational constants in cm-1:     0.018035     0.008228     0.006101
Rotational constants in MHz :   540.685737   246.674942   182.903028

                             ****ORCA TERMINATED NORMALLY****
TOTAL RUN TIME: 0 days 0 hours 0 minutes 20 seconds 7 msec
