                         Program Version 4.2.1 -  RELEASE  -
|  1> ! wB97X-D3 SP def2-SVP
|  2> %pal
|  3> nprocs 24
|  4> end
|  5>
|  6> * xyz 0 1
|  7> S 	 -69.1602 	 7.08364 	 -76.6355
|  8> C 	 -68.5927 	 5.9187 	 -77.7452
|  9> C 	 -69.5766 	 5.24986 	 -78.5005
| 10> C 	 -70.8324 	 5.74149 	 -78.0319
| 11> C 	 -70.7846 	 6.82239 	 -77.1994
| 12> H 	 -71.7402 	 5.35969 	 -78.4015
| 13> C 	 -69.3863 	 4.09591 	 -79.4789
| 14> H 	 -68.819 	 4.64128 	 -80.2083
| 15> H 	 -70.3133 	 3.7918 	 -79.9917
| 16> C 	 -68.4785 	 2.93521 	 -78.9912
| 17> H 	 -68.0817 	 2.29076 	 -79.754
| 18> H 	 -67.5976 	 3.40824 	 -78.4753
| 19> C 	 -69.0706 	 2.06028 	 -77.9243
| 20> H 	 -68.3817 	 1.38286 	 -77.4667
| 21> H 	 -69.5236 	 2.67629 	 -77.1429
| 22> H 	 -69.9969 	 1.58709 	 -78.2615
| 23> S 	 -71.4841 	 9.44405 	 -77.3125
| 24> C 	 -73.1304 	 9.88813 	 -76.9513
| 25> C 	 -73.8815 	 8.76935 	 -76.7307
| 26> C 	 -73.1871 	 7.52516 	 -76.7733
| 27> C 	 -71.847 	 7.75246 	 -76.9313
| 28> H 	 -74.9486 	 9.00638 	 -76.6196
| 29> C 	 -73.8194 	 6.14764 	 -76.6268
| 30> H 	 -74.5846 	 6.16533 	 -75.7857
| 31> H 	 -73.0594 	 5.48408 	 -76.2629
| 32> C 	 -74.589 	 5.43272 	 -77.7611
| 33> H 	 -74.2201 	 5.60411 	 -78.7804
| 34> H 	 -75.5404 	 6.00858 	 -77.7418
| 35> C 	 -74.9377 	 3.9541 	 -77.6139
| 36> H 	 -75.3108 	 3.6843 	 -76.613
| 37> H 	 -74.1302 	 3.3413 	 -77.7087
| 38> H 	 -75.6686 	 3.76425 	 -78.4195
| 39> H 	 -67.5719 	 5.68838 	 -78.0105
| 40> H 	 -73.5736 	 10.7959 	 -77.2693
| 41> *
| 42>
| 43>                          ****END OF INPUT****

CARTESIAN COORDINATES (ANGSTROEM)
---------------------------------
  S    -69.160200    7.083640  -76.635500
  C    -68.592700    5.918700  -77.745200
  C    -69.576600    5.249860  -78.500500
  C    -70.832400    5.741490  -78.031900
  C    -70.784600    6.822390  -77.199400
  H    -71.740200    5.359690  -78.401500
  C    -69.386300    4.095910  -79.478900
  H    -68.819000    4.641280  -80.208300
  H    -70.313300    3.791800  -79.991700
  C    -68.478500    2.935210  -78.991200
  H    -68.081700    2.290760  -79.754000
  H    -67.597600    3.408240  -78.475300
  C    -69.070600    2.060280  -77.924300
  H    -68.381700    1.382860  -77.466700
  H    -69.523600    2.676290  -77.142900
  H    -69.996900    1.587090  -78.261500
  S    -71.484100    9.444050  -77.312500
  C    -73.130400    9.888130  -76.951300
  C    -73.881500    8.769350  -76.730700
  C    -73.187100    7.525160  -76.773300
  C    -71.847000    7.752460  -76.931300
  H    -74.948600    9.006380  -76.619600
  C    -73.819400    6.147640  -76.626800
  H    -74.584600    6.165330  -75.785700
  H    -73.059400    5.484080  -76.262900
  C    -74.589000    5.432720  -77.761100
  H    -74.220100    5.604110  -78.780400
  H    -75.540400    6.008580  -77.741800
  C    -74.937700    3.954100  -77.613900
  H    -75.310800    3.684300  -76.613000
  H    -74.130200    3.341300  -77.708700
  H    -75.668600    3.764250  -78.419500
  H    -67.571900    5.688380  -78.010500
  H    -73.573600   10.795900  -77.269300

 Total Charge           Charge          ....    0
 Multiplicity           Mult            ....    1
 Number of Electrons    NEL             ....  134
 Basis Dimension        Dim             ....  322

ORBITAL ENERGIES
----------------

  NO   OCC          E(Eh)            E(eV)
   0   2.0000     -88.971195     -2421.0293
   1   2.0000     -88.962555     -2420.7942
   2   2.0000     -10.325110      -280.9605
   3   2.0000     -10.321661      -280.8667
   4   2.0000     -10.310490      -280.5627
   5   2.0000     -10.308514      -280.5089
   6   2.0000     -10.304291      -280.3940
   7   2.0000     -10.303406      -280.3699
   8   2.0000     -10.299749      -280.2704
   9   2.0000     -10.296151      -280.1725
  10   2.0000     -10.292655      -280.0774
  11   2.0000     -10.291113      -280.0354
  12   2.0000     -10.290582      -280.0210
  13   2.0000     -10.286455      -279.9087
  14   2.0000     -10.278114      -279.6817
  15   2.0000     -10.270237      -279.4673
  16   2.0000      -8.086444      -220.0433
  17   2.0000      -8.077387      -219.7969
  18   2.0000      -6.044867      -164.4892
  19   2.0000      -6.040919      -164.3818
  20   2.0000      -6.037243      -164.2817
  21   2.0000      -6.035909      -164.2454
  22   2.0000      -6.031976      -164.1384
  23   2.0000      -6.028013      -164.0306
  24   2.0000      -1.012980       -27.5646
  25   2.0000      -0.987584       -26.8735
  26   2.0000      -0.914746       -24.8915
  27   2.0000      -0.907423       -24.6922
  28   2.0000      -0.872126       -23.7318
  29   2.0000      -0.858581       -23.3632
  30   2.0000      -0.850451       -23.1419
  31   2.0000      -0.816097       -22.2071
  32   2.0000      -0.788907       -21.4672
  33   2.0000      -0.777145       -21.1472
  34   2.0000      -0.706927       -19.2365
  35   2.0000      -0.704056       -19.1583
  36   2.0000      -0.696674       -18.9575
  37   2.0000      -0.661244       -17.9934
  38   2.0000      -0.635214       -17.2850
  39   2.0000      -0.619468       -16.8566
  40   2.0000      -0.596996       -16.2451
  41   2.0000      -0.577158       -15.7053
  42   2.0000      -0.562080       -15.2950
  43   2.0000      -0.558334       -15.1930
  44   2.0000      -0.541480       -14.7344
  45   2.0000      -0.534242       -14.5375
  46   2.0000      -0.515681       -14.0324
  47   2.0000      -0.513498       -13.9730
  48   2.0000      -0.505502       -13.7554
  49   2.0000      -0.495550       -13.4846
  50   2.0000      -0.490538       -13.3482
  51   2.0000      -0.480514       -13.0755
  52   2.0000      -0.478390       -13.0177
  53   2.0000      -0.464478       -12.6391
  54   2.0000      -0.457336       -12.4448
  55   2.0000      -0.450905       -12.2697
  56   2.0000      -0.442174       -12.0322
  57   2.0000      -0.440218       -11.9789
  58   2.0000      -0.435258       -11.8440
  59   2.0000      -0.429442       -11.6857
  60   2.0000      -0.423994       -11.5375
  61   2.0000      -0.414670       -11.2837
  62   2.0000      -0.406948       -11.0736
  63   2.0000      -0.352219        -9.5844
  64   2.0000      -0.331605        -9.0234
  65   2.0000      -0.328531        -8.9398
  66   2.0000      -0.286318        -7.7911
  67   0.0000       0.027692         0.7535
  68   0.0000       0.068695         1.8693
  69   0.0000       0.112523         3.0619
  70   0.0000       0.117612         3.2004
  71   0.0000       0.126427         3.4403

MULLIKEN ATOMIC CHARGES
-----------------------
   0 S :    0.146040
   1 C :   -0.114799
   2 C :   -0.135882
   3 C :    0.055304
   4 C :   -0.169607
   5 H :   -0.034139
   6 C :    0.090705
   7 H :    0.034071
   8 H :    0.031682
   9 C :   -0.070234
  10 H :    0.031814
  11 H :    0.024632
  12 C :   -0.036565
  13 H :    0.039715
  14 H :    0.023130
  15 H :    0.013930
  16 S :    0.092528
  17 C :   -0.078278
  18 C :   -0.060129
  19 C :    0.004077
  20 C :   -0.122414
  21 H :    0.023845
  22 C :    0.034320
  23 H :    0.032912
  24 H :    0.019501
  25 C :   -0.096156
  26 H :    0.032540
  27 H :    0.025113
  28 C :   -0.006794
  29 H :    0.026291
  30 H :    0.007966
  31 H :    0.045848
  32 H :    0.039332
  33 H :    0.049703
Sum of atomic charges:   -0.0000000

LOEWDIN ATOMIC CHARGES
----------------------
   0 S :    0.437647
   1 C :   -0.215069
   2 C :   -0.057863
   3 C :   -0.054716
   4 C :   -0.206328
   5 H :    0.019000
   6 C :   -0.031243
   7 H :    0.039621
   8 H :    0.033122
   9 C :   -0.040301
  10 H :    0.022113
  11 H :    0.029385
  12 C :   -0.070250
  13 H :    0.024371
  14 H :    0.027415
  15 H :    0.021617
  16 S :    0.395488
  17 C :   -0.190797
  18 C :   -0.068648
  19 C :   -0.059252
  20 C :   -0.179488
  21 H :    0.035229
  22 C :   -0.039418
  23 H :    0.038888
  24 H :    0.023498
  25 C :   -0.048904
  26 H :    0.021271
  27 H :    0.026430
  28 C :   -0.055325
  29 H :    0.028190
  30 H :    0.009269
  31 H :    0.037843
  32 H :    0.022390
  33 H :    0.024813

  Mayer bond orders larger than 0.100000
B(  0-S ,  1-C ) :   1.1593 B(  0-S ,  4-C ) :   1.1489 B(  1-C ,  2-C ) :   1.5942
B(  1-C , 32-H ) :   0.9572 B(  2-C ,  3-C ) :   1.2756 B(  2-C ,  6-C ) :   1.0031
B(  3-C ,  4-C ) :   1.5464 B(  3-C ,  5-H ) :   0.9995 B(  4-C , 20-C ) :   1.0458
B(  6-C ,  7-H ) :   0.9237 B(  6-C ,  8-H ) :   0.9495 B(  6-C ,  9-C ) :   1.0716
B(  9-C , 10-H ) :   0.9566 B(  9-C , 11-H ) :   0.9522 B(  9-C , 12-C ) :   1.0814
B( 12-C , 13-H ) :   0.9745 B( 12-C , 14-H ) :   0.9711 B( 12-C , 15-H ) :   0.9701
B( 16-S , 17-C ) :   1.1355 B( 16-S , 20-C ) :   1.1461 B( 17-C , 18-C ) :   1.6443
B( 17-C , 33-H ) :   0.9655 B( 18-C , 19-C ) :   1.2099 B( 18-C , 21-H ) :   0.9887
B( 19-C , 20-C ) :   1.6089 B( 19-C , 22-C ) :   1.0476 B( 22-C , 23-H ) :   0.9363
B( 22-C , 24-H ) :   0.9357 B( 22-C , 25-C ) :   1.0444 B( 25-C , 26-H ) :   0.9545
B( 25-C , 27-H ) :   0.9560 B( 25-C , 28-C ) :   1.0858 B( 28-C , 29-H ) :   0.9719
B( 28-C , 30-H ) :   0.9732 B( 28-C , 31-H ) :   0.9719

Dispersion correction           -0.014401815
FINAL SINGLE POINT ENERGY     -1339.859309090793

DIPOLE MOMENT
-------------
                                X             Y             Z
Electronic contribution:      9.17831      28.28312       6.89461
Nuclear contribution   :     -9.52144     -28.80678      -7.36098
                        -----------------------------------------
Total Dipole Moment    :     -0.34313      -0.52366      -0.46638
                        -----------------------------------------
Magnitude (a.u.)       :      0.78068
Magnitude (Debye)      :      1.98434

Rotational constants in cm-1:     0.017899     0.009551     0.006713
Rotational constants in MHz :   536.601103   286.345129   201.256638

                             ****ORCA TERMINATED NORMALLY****
TOTAL RUN TIME: 0 days 0 hours 0 minutes 20 seconds 852 msec
