                         Program Version 4.2.1 -  RELEASE  -
|  1> ! wB97X-D3 SP def2-SVP
|  2> %pal
|  3> nprocs 24
|  4> end
|  5>
|  6> * xyz 0 1
|  7> S 	 -120.71 	 66.2012 	 -39.4264
|  8> C 	 -121.728 	 67.5289 	 -38.6987
|  9> C 	 -122.194 	 68.2972 	 -39.7295
| 10> C 	 -121.784 	 67.8054 	 -41.029
| 11> C 	 -120.844 	 66.7632 	 -41.0766
| 12> H 	 -122.238 	 68.0741 	 -41.9881
| 13> C 	 -123.001 	 69.5394 	 -39.5909
| 14> H 	 -122.278 	 70.2748 	 -39.2604
| 15> H 	 -123.624 	 69.3402 	 -38.7675
| 16> C 	 -123.744 	 70.061 	 -40.867
| 17> H 	 -123.054 	 70.2299 	 -41.722
| 18> H 	 -124.365 	 69.2158 	 -41.1163
| 19> C 	 -124.604 	 71.3205 	 -40.6944
| 20> H 	 -125.269 	 71.3407 	 -41.5841
| 21> H 	 -125.17 	 71.172 	 -39.7924
| 22> H 	 -124.045 	 72.2528 	 -40.6653
| 23> S 	 -120.508 	 64.1692 	 -42.1446
| 24> C 	 -120.017 	 63.9983 	 -43.7163
| 25> C 	 -119.729 	 65.2226 	 -44.275
| 26> C 	 -119.913 	 66.317 	 -43.4112
| 27> C 	 -120.437 	 65.9514 	 -42.2017
| 28> H 	 -119.441 	 65.2848 	 -45.3323
| 29> C 	 -119.761 	 67.7441 	 -43.8464
| 30> H 	 -118.746 	 67.8832 	 -44.2067
| 31> H 	 -119.884 	 68.3562 	 -42.9797
| 32> C 	 -120.962 	 68.2002 	 -44.7411
| 33> H 	 -121.907 	 68.2333 	 -44.2724
| 34> H 	 -121.051 	 67.3992 	 -45.5338
| 35> C 	 -120.611 	 69.4554 	 -45.5707
| 36> H 	 -121.229 	 69.687 	 -46.4753
| 37> H 	 -119.665 	 69.2832 	 -46.0281
| 38> H 	 -120.523 	 70.3282 	 -44.9316
| 39> H 	 -122.172 	 67.6659 	 -37.6812
| 40> H 	 -119.91 	 63.0793 	 -44.2219
| 41> *
| 42>
| 43>                          ****END OF INPUT****

CARTESIAN COORDINATES (ANGSTROEM)
---------------------------------
  S    -120.710000   66.201200  -39.426400
  C    -121.728000   67.528900  -38.698700
  C    -122.194000   68.297200  -39.729500
  C    -121.784000   67.805400  -41.029000
  C    -120.844000   66.763200  -41.076600
  H    -122.238000   68.074100  -41.988100
  C    -123.001000   69.539400  -39.590900
  H    -122.278000   70.274800  -39.260400
  H    -123.624000   69.340200  -38.767500
  C    -123.744000   70.061000  -40.867000
  H    -123.054000   70.229900  -41.722000
  H    -124.365000   69.215800  -41.116300
  C    -124.604000   71.320500  -40.694400
  H    -125.269000   71.340700  -41.584100
  H    -125.170000   71.172000  -39.792400
  H    -124.045000   72.252800  -40.665300
  S    -120.508000   64.169200  -42.144600
  C    -120.017000   63.998300  -43.716300
  C    -119.729000   65.222600  -44.275000
  C    -119.913000   66.317000  -43.411200
  C    -120.437000   65.951400  -42.201700
  H    -119.441000   65.284800  -45.332300
  C    -119.761000   67.744100  -43.846400
  H    -118.746000   67.883200  -44.206700
  H    -119.884000   68.356200  -42.979700
  C    -120.962000   68.200200  -44.741100
  H    -121.907000   68.233300  -44.272400
  H    -121.051000   67.399200  -45.533800
  C    -120.611000   69.455400  -45.570700
  H    -121.229000   69.687000  -46.475300
  H    -119.665000   69.283200  -46.028100
  H    -120.523000   70.328200  -44.931600
  H    -122.172000   67.665900  -37.681200
  H    -119.910000   63.079300  -44.221900

 Total Charge           Charge          ....    0
 Multiplicity           Mult            ....    1
 Number of Electrons    NEL             ....  134
 Basis Dimension        Dim             ....  322

ORBITAL ENERGIES
----------------

  NO   OCC          E(Eh)            E(eV)
   0   2.0000     -88.964429     -2420.8452
   1   2.0000     -88.963198     -2420.8117
   2   2.0000     -10.332984      -281.1748
   3   2.0000     -10.326261      -280.9919
   4   2.0000     -10.320777      -280.8426
   5   2.0000     -10.310489      -280.5627
   6   2.0000     -10.302133      -280.3353
   7   2.0000     -10.297952      -280.2215
   8   2.0000     -10.295943      -280.1668
   9   2.0000     -10.292807      -280.0815
  10   2.0000     -10.292042      -280.0607
  11   2.0000     -10.289524      -279.9922
  12   2.0000     -10.289136      -279.9816
  13   2.0000     -10.288640      -279.9681
  14   2.0000     -10.282998      -279.8146
  15   2.0000     -10.278559      -279.6938
  16   2.0000      -8.080650      -219.8857
  17   2.0000      -8.076675      -219.7775
  18   2.0000      -6.038945      -164.3280
  19   2.0000      -6.035521      -164.2349
  20   2.0000      -6.034892      -164.2178
  21   2.0000      -6.031560      -164.1271
  22   2.0000      -6.031297      -164.1199
  23   2.0000      -6.027161      -164.0074
  24   2.0000      -1.013381       -27.5755
  25   2.0000      -0.984815       -26.7982
  26   2.0000      -0.915695       -24.9173
  27   2.0000      -0.912299       -24.8249
  28   2.0000      -0.874377       -23.7930
  29   2.0000      -0.855551       -23.2807
  30   2.0000      -0.838860       -22.8266
  31   2.0000      -0.812655       -22.1135
  32   2.0000      -0.785789       -21.3824
  33   2.0000      -0.776061       -21.1177
  34   2.0000      -0.716851       -19.5065
  35   2.0000      -0.705303       -19.1923
  36   2.0000      -0.694830       -18.9073
  37   2.0000      -0.659245       -17.9390
  38   2.0000      -0.637069       -17.3355
  39   2.0000      -0.612925       -16.6785
  40   2.0000      -0.601398       -16.3649
  41   2.0000      -0.575330       -15.6555
  42   2.0000      -0.567410       -15.4400
  43   2.0000      -0.562628       -15.3099
  44   2.0000      -0.531201       -14.4547
  45   2.0000      -0.525137       -14.2897
  46   2.0000      -0.522870       -14.2280
  47   2.0000      -0.516353       -14.0507
  48   2.0000      -0.510129       -13.8813
  49   2.0000      -0.506084       -13.7712
  50   2.0000      -0.495865       -13.4932
  51   2.0000      -0.481359       -13.0985
  52   2.0000      -0.472212       -12.8496
  53   2.0000      -0.468716       -12.7544
  54   2.0000      -0.459229       -12.4962
  55   2.0000      -0.451430       -12.2840
  56   2.0000      -0.448244       -12.1973
  57   2.0000      -0.442854       -12.0507
  58   2.0000      -0.434858       -11.8331
  59   2.0000      -0.423122       -11.5137
  60   2.0000      -0.419243       -11.4082
  61   2.0000      -0.408827       -11.1247
  62   2.0000      -0.405407       -11.0317
  63   2.0000      -0.351885        -9.5753
  64   2.0000      -0.332347        -9.0436
  65   2.0000      -0.322924        -8.7872
  66   2.0000      -0.290575        -7.9069
  67   0.0000       0.023695         0.6448
  68   0.0000       0.075342         2.0502
  69   0.0000       0.112419         3.0591
  70   0.0000       0.122061         3.3214
  71   0.0000       0.127488         3.4691

MULLIKEN ATOMIC CHARGES
-----------------------
   0 S :    0.078414
   1 C :   -0.137812
   2 C :   -0.110226
   3 C :   -0.009498
   4 C :   -0.122021
   5 H :    0.012201
   6 C :    0.097398
   7 H :    0.043310
   8 H :    0.008299
   9 C :   -0.132094
  10 H :    0.042683
  11 H :    0.032691
  12 C :   -0.012298
  13 H :    0.039683
  14 H :    0.027637
  15 H :    0.040703
  16 S :    0.123364
  17 C :   -0.065794
  18 C :   -0.054384
  19 C :   -0.042406
  20 C :   -0.156423
  21 H :    0.021215
  22 C :    0.092126
  23 H :    0.033719
  24 H :    0.016477
  25 C :   -0.083827
  26 H :    0.033344
  27 H :    0.025094
  28 C :   -0.036648
  29 H :    0.040075
  30 H :    0.014879
  31 H :    0.030022
  32 H :    0.065499
  33 H :    0.044600
Sum of atomic charges:   -0.0000000

LOEWDIN ATOMIC CHARGES
----------------------
   0 S :    0.376939
   1 C :   -0.193531
   2 C :   -0.063541
   3 C :   -0.073854
   4 C :   -0.189523
   5 H :    0.026452
   6 C :   -0.032314
   7 H :    0.038049
   8 H :    0.023814
   9 C :   -0.043229
  10 H :    0.026808
  11 H :    0.023316
  12 C :   -0.059697
  13 H :    0.034207
  14 H :    0.023119
  15 H :    0.025879
  16 S :    0.434805
  17 C :   -0.200302
  18 C :   -0.082123
  19 C :   -0.053926
  20 C :   -0.195218
  21 H :    0.032394
  22 C :   -0.025496
  23 H :    0.034161
  24 H :    0.026063
  25 C :   -0.032286
  26 H :    0.015896
  27 H :    0.026893
  28 C :   -0.068820
  29 H :    0.031610
  30 H :    0.020540
  31 H :    0.021014
  32 H :    0.045915
  33 H :    0.025986

  Mayer bond orders larger than 0.100000
B(  0-S ,  1-C ) :   1.1100 B(  0-S ,  4-C ) :   1.1361 B(  1-C ,  2-C ) :   1.6298
B(  1-C , 32-H ) :   0.9632 B(  2-C ,  3-C ) :   1.2448 B(  2-C ,  6-C ) :   1.0095
B(  3-C ,  4-C ) :   1.5477 B(  3-C ,  5-H ) :   0.9795 B(  4-C , 20-C ) :   1.0739
B(  6-C ,  7-H ) :   0.9304 B(  6-C ,  8-H ) :   0.9296 B(  6-C ,  9-C ) :   1.0782
B(  9-C , 10-H ) :   0.9455 B(  9-C , 11-H ) :   0.9580 B(  9-C , 12-C ) :   1.0816
B( 12-C , 13-H ) :   0.9730 B( 12-C , 14-H ) :   0.9741 B( 12-C , 15-H ) :   0.9762
B( 16-S , 17-C ) :   1.1930 B( 16-S , 20-C ) :   1.1294 B( 17-C , 18-C ) :   1.5666
B( 17-C , 33-H ) :   0.9739 B( 18-C , 19-C ) :   1.2622 B( 18-C , 21-H ) :   0.9913
B( 19-C , 20-C ) :   1.5783 B( 19-C , 22-C ) :   1.0653 B( 22-C , 23-H ) :   0.9345
B( 22-C , 24-H ) :   0.9180 B( 22-C , 25-C ) :   1.0458 B( 25-C , 26-H ) :   0.9562
B( 25-C , 27-H ) :   0.9613 B( 25-C , 28-C ) :   1.0694 B( 28-C , 29-H ) :   0.9749
B( 28-C , 30-H ) :   0.9745 B( 28-C , 31-H ) :   0.9761

Dispersion correction           -0.014094328
FINAL SINGLE POINT ENERGY     -1339.863626942082

DIPOLE MOMENT
-------------
                                X             Y             Z
Electronic contribution:     11.44182     -27.97884      12.85776
Nuclear contribution   :    -11.82994      28.50013     -13.32558
                        -----------------------------------------
Total Dipole Moment    :     -0.38812       0.52128      -0.46782
                        -----------------------------------------
Magnitude (a.u.)       :      0.80076
Magnitude (Debye)      :      2.03538

Rotational constants in cm-1:     0.016492     0.009721     0.006573
Rotational constants in MHz :   494.418668   291.430099   197.060566

                             ****ORCA TERMINATED NORMALLY****
TOTAL RUN TIME: 0 days 0 hours 0 minutes 22 seconds 37 msec
