                         Program Version 4.2.1 -  RELEASE  -
|  1> ! wB97X-D3 SP def2-SVP
|  2> %pal
|  3> nprocs 24
|  4> end
|  5>
|  6> * xyz 0 1
|  7> S 	 -120.31 	 54.4276 	 -33.4707
|  8> C 	 -120.067 	 53.353 	 -34.8424
|  9> C 	 -121.012 	 52.3163 	 -34.7602
| 10> C 	 -122.077 	 52.5836 	 -33.797
| 11> C 	 -121.885 	 53.719 	 -33.0207
| 12> H 	 -122.831 	 51.8936 	 -33.5788
| 13> C 	 -120.939 	 51.0444 	 -35.6608
| 14> H 	 -120.941 	 50.1994 	 -34.9686
| 15> H 	 -119.974 	 51.0276 	 -36.1652
| 16> C 	 -122.096 	 50.8522 	 -36.6782
| 17> H 	 -122.104 	 49.8535 	 -37.2061
| 18> H 	 -122.985 	 50.718 	 -36.0022
| 19> C 	 -122.406 	 52.0288 	 -37.6221
| 20> H 	 -122.486 	 52.8921 	 -37.0116
| 21> H 	 -121.539 	 52.1013 	 -38.3431
| 22> H 	 -123.318 	 51.9924 	 -38.1497
| 23> S 	 -122.151 	 54.5778 	 -30.337
| 24> C 	 -123.703 	 55.3839 	 -29.9457
| 25> C 	 -124.634 	 54.9935 	 -30.8713
| 26> C 	 -124.141 	 54.3597 	 -31.9639
| 27> C 	 -122.751 	 54.2958 	 -32.0106
| 28> H 	 -125.657 	 55.2127 	 -30.7004
| 29> C 	 -125.067 	 53.9069 	 -32.9715
| 30> H 	 -124.392 	 53.7082 	 -33.8002
| 31> H 	 -125.486 	 54.8661 	 -33.1897
| 32> C 	 -126.081 	 52.8075 	 -32.5308
| 33> H 	 -126.858 	 53.0867 	 -31.8235
| 34> H 	 -125.422 	 52.043 	 -32.0991
| 35> C 	 -126.838 	 52.3488 	 -33.7796
| 36> H 	 -127.241 	 51.3608 	 -33.5889
| 37> H 	 -126.212 	 52.2272 	 -34.6739
| 38> H 	 -127.576 	 53.1089 	 -33.8774
| 39> H 	 -119.21 	 53.4111 	 -35.502
| 40> H 	 -123.902 	 55.8262 	 -28.958
| 41> *
| 42>
| 43>                          ****END OF INPUT****

CARTESIAN COORDINATES (ANGSTROEM)
---------------------------------
  S    -120.310000   54.427600  -33.470700
  C    -120.067000   53.353000  -34.842400
  C    -121.012000   52.316300  -34.760200
  C    -122.077000   52.583600  -33.797000
  C    -121.885000   53.719000  -33.020700
  H    -122.831000   51.893600  -33.578800
  C    -120.939000   51.044400  -35.660800
  H    -120.941000   50.199400  -34.968600
  H    -119.974000   51.027600  -36.165200
  C    -122.096000   50.852200  -36.678200
  H    -122.104000   49.853500  -37.206100
  H    -122.985000   50.718000  -36.002200
  C    -122.406000   52.028800  -37.622100
  H    -122.486000   52.892100  -37.011600
  H    -121.539000   52.101300  -38.343100
  H    -123.318000   51.992400  -38.149700
  S    -122.151000   54.577800  -30.337000
  C    -123.703000   55.383900  -29.945700
  C    -124.634000   54.993500  -30.871300
  C    -124.141000   54.359700  -31.963900
  C    -122.751000   54.295800  -32.010600
  H    -125.657000   55.212700  -30.700400
  C    -125.067000   53.906900  -32.971500
  H    -124.392000   53.708200  -33.800200
  H    -125.486000   54.866100  -33.189700
  C    -126.081000   52.807500  -32.530800
  H    -126.858000   53.086700  -31.823500
  H    -125.422000   52.043000  -32.099100
  C    -126.838000   52.348800  -33.779600
  H    -127.241000   51.360800  -33.588900
  H    -126.212000   52.227200  -34.673900
  H    -127.576000   53.108900  -33.877400
  H    -119.210000   53.411100  -35.502000
  H    -123.902000   55.826200  -28.958000

 Total Charge           Charge          ....    0
 Multiplicity           Mult            ....    1
 Number of Electrons    NEL             ....  134
 Basis Dimension        Dim             ....  322

ORBITAL ENERGIES
----------------

  NO   OCC          E(Eh)            E(eV)
   0   2.0000     -88.963876     -2420.8301
   1   2.0000     -88.962024     -2420.7797
   2   2.0000     -10.336075      -281.2589
   3   2.0000     -10.327307      -281.0203
   4   2.0000     -10.321434      -280.8605
   5   2.0000     -10.321133      -280.8523
   6   2.0000     -10.311913      -280.6014
   7   2.0000     -10.299620      -280.2669
   8   2.0000     -10.298188      -280.2280
   9   2.0000     -10.295212      -280.1470
  10   2.0000     -10.295167      -280.1457
  11   2.0000     -10.291042      -280.0335
  12   2.0000     -10.282892      -279.8117
  13   2.0000     -10.281229      -279.7665
  14   2.0000     -10.277631      -279.6686
  15   2.0000     -10.274082      -279.5720
  16   2.0000      -8.078048      -219.8149
  17   2.0000      -8.075635      -219.7492
  18   2.0000      -6.036643      -164.2654
  19   2.0000      -6.034206      -164.1991
  20   2.0000      -6.032578      -164.1548
  21   2.0000      -6.030735      -164.1047
  22   2.0000      -6.028772      -164.0512
  23   2.0000      -6.025956      -163.9746
  24   2.0000      -1.005783       -27.3687
  25   2.0000      -0.981982       -26.7211
  26   2.0000      -0.916743       -24.9459
  27   2.0000      -0.903847       -24.5949
  28   2.0000      -0.870178       -23.6787
  29   2.0000      -0.860370       -23.4119
  30   2.0000      -0.839846       -22.8534
  31   2.0000      -0.816041       -22.2056
  32   2.0000      -0.783462       -21.3191
  33   2.0000      -0.770142       -20.9566
  34   2.0000      -0.710770       -19.3410
  35   2.0000      -0.704521       -19.1710
  36   2.0000      -0.692223       -18.8363
  37   2.0000      -0.662909       -18.0387
  38   2.0000      -0.643596       -17.5131
  39   2.0000      -0.620211       -16.8768
  40   2.0000      -0.591958       -16.1080
  41   2.0000      -0.580145       -15.7865
  42   2.0000      -0.563982       -15.3467
  43   2.0000      -0.551879       -15.0174
  44   2.0000      -0.544878       -14.8269
  45   2.0000      -0.535448       -14.5703
  46   2.0000      -0.522626       -14.2214
  47   2.0000      -0.510213       -13.8836
  48   2.0000      -0.506917       -13.7939
  49   2.0000      -0.503050       -13.6887
  50   2.0000      -0.486427       -13.2364
  51   2.0000      -0.479941       -13.0599
  52   2.0000      -0.467355       -12.7174
  53   2.0000      -0.465586       -12.6692
  54   2.0000      -0.457234       -12.4420
  55   2.0000      -0.447538       -12.1781
  56   2.0000      -0.444314       -12.0904
  57   2.0000      -0.441500       -12.0138
  58   2.0000      -0.436828       -11.8867
  59   2.0000      -0.428591       -11.6626
  60   2.0000      -0.416112       -11.3230
  61   2.0000      -0.411257       -11.1909
  62   2.0000      -0.408040       -11.1033
  63   2.0000      -0.349354        -9.5064
  64   2.0000      -0.327187        -8.9032
  65   2.0000      -0.325392        -8.8544
  66   2.0000      -0.287262        -7.8168
  67   0.0000       0.017089         0.4650
  68   0.0000       0.063908         1.7390
  69   0.0000       0.100247         2.7278
  70   0.0000       0.114390         3.1127
  71   0.0000       0.121269         3.2999

MULLIKEN ATOMIC CHARGES
-----------------------
   0 S :    0.102403
   1 C :   -0.121538
   2 C :   -0.124026
   3 C :    0.044973
   4 C :   -0.165680
   5 H :   -0.002478
   6 C :    0.086697
   7 H :    0.037925
   8 H :    0.018780
   9 C :   -0.120719
  10 H :    0.039741
  11 H :    0.016990
  12 C :   -0.020966
  13 H :    0.032047
  14 H :    0.035736
  15 H :    0.028360
  16 S :    0.077719
  17 C :   -0.090550
  18 C :   -0.022599
  19 C :   -0.038607
  20 C :   -0.119261
  21 H :    0.000007
  22 C :    0.068416
  23 H :    0.010596
  24 H :    0.021121
  25 C :   -0.076783
  26 H :    0.039748
  27 H :    0.035454
  28 C :   -0.015822
  29 H :    0.032095
  30 H :    0.032403
  31 H :    0.030481
  32 H :    0.060226
  33 H :    0.067111
Sum of atomic charges:    0.0000000

LOEWDIN ATOMIC CHARGES
----------------------
   0 S :    0.390559
   1 C :   -0.191609
   2 C :   -0.059692
   3 C :   -0.061722
   4 C :   -0.181177
   5 H :    0.020650
   6 C :   -0.028476
   7 H :    0.035812
   8 H :    0.025118
   9 C :   -0.053843
  10 H :    0.028574
  11 H :    0.020818
  12 C :   -0.063001
  13 H :    0.023012
  14 H :    0.030601
  15 H :    0.021432
  16 S :    0.361550
  17 C :   -0.159979
  18 C :   -0.069338
  19 C :   -0.058812
  20 C :   -0.190353
  21 H :    0.027645
  22 C :   -0.038182
  23 H :    0.032036
  24 H :    0.033209
  25 C :   -0.029945
  26 H :    0.028160
  27 H :    0.024274
  28 C :   -0.057336
  29 H :    0.025188
  30 H :    0.025768
  31 H :    0.024259
  32 H :    0.031364
  33 H :    0.033436

  Mayer bond orders larger than 0.100000
B(  0-S ,  1-C ) :   1.1433 B(  0-S ,  4-C ) :   1.1422 B(  1-C ,  2-C ) :   1.5921
B(  1-C , 32-H ) :   0.9715 B(  2-C ,  3-C ) :   1.2313 B(  2-C ,  6-C ) :   1.0186
B(  3-C ,  4-C ) :   1.5589 B(  3-C ,  5-H ) :   0.9999 B(  4-C , 20-C ) :   1.0655
B(  6-C ,  7-H ) :   0.9416 B(  6-C ,  8-H ) :   0.9474 B(  6-C ,  9-C ) :   1.0573
B(  9-C , 10-H ) :   0.9579 B(  9-C , 11-H ) :   0.9545 B(  9-C , 12-C ) :   1.0715
B( 12-C , 13-H ) :   0.9710 B( 12-C , 14-H ) :   0.9765 B( 12-C , 15-H ) :   0.9745
B( 16-S , 17-C ) :   1.1444 B( 16-S , 20-C ) :   1.1236 B( 17-C , 18-C ) :   1.5775
B( 17-C , 20-C ) :   0.1130 B( 17-C , 33-H ) :   0.9668 B( 18-C , 19-C ) :   1.2656
B( 18-C , 21-H ) :   1.0019 B( 19-C , 20-C ) :   1.5450 B( 19-C , 22-C ) :   1.0383
B( 22-C , 23-H ) :   0.9295 B( 22-C , 24-H ) :   0.9228 B( 22-C , 25-C ) :   1.0437
B( 25-C , 26-H ) :   0.9552 B( 25-C , 27-H ) :   0.9590 B( 25-C , 28-C ) :   1.0790
B( 28-C , 29-H ) :   0.9747 B( 28-C , 30-H ) :   0.9761 B( 28-C , 31-H ) :   0.9790

Dispersion correction           -0.014684370
FINAL SINGLE POINT ENERGY     -1339.845945803381

DIPOLE MOMENT
-------------
                                X             Y             Z
Electronic contribution:     18.00430      15.07436      20.05757
Nuclear contribution   :    -18.66043     -15.54508     -20.27881
                        -----------------------------------------
Total Dipole Moment    :     -0.65612      -0.47071      -0.22125
                        -----------------------------------------
Magnitude (a.u.)       :      0.83727
Magnitude (Debye)      :      2.12817

Rotational constants in cm-1:     0.017308     0.009850     0.006731
Rotational constants in MHz :   518.877374   295.304783   201.797249

                             ****ORCA TERMINATED NORMALLY****
TOTAL RUN TIME: 0 days 0 hours 0 minutes 22 seconds 195 msec
