                         Program Version 4.2.1 -  RELEASE  -
|  1> ! wB97X-D3 SP def2-SVP
|  2> %pal
|  3> nprocs 24
|  4> end
|  5>
|  6> * xyz 0 1
|  7> S 	 33.3588 	 -34.7791 	 -130.556
|  8> C 	 33.9184 	 -34.7794 	 -128.864
|  9> C 	 35.1643 	 -35.4674 	 -128.711
| 10> C 	 35.6268 	 -35.9469 	 -130.006
| 11> C 	 34.7931 	 -35.671 	 -131.043
| 12> H 	 36.5406 	 -36.4118 	 -130.297
| 13> C 	 35.8456 	 -35.8167 	 -127.363
| 14> H 	 35.8344 	 -36.9485 	 -127.198
| 15> H 	 35.2559 	 -35.3626 	 -126.604
| 16> C 	 37.27 	 -35.3704 	 -127.184
| 17> H 	 37.5226 	 -35.7694 	 -126.237
| 18> H 	 37.8545 	 -35.9329 	 -127.948
| 19> C 	 37.3666 	 -33.824 	 -127.193
| 20> H 	 38.4117 	 -33.5851 	 -127.066
| 21> H 	 37.0229 	 -33.3977 	 -128.194
| 22> H 	 36.8945 	 -33.3449 	 -126.273
| 23> S 	 33.6968 	 -37.4159 	 -132.927
| 24> C 	 34.5669 	 -37.7232 	 -134.403
| 25> C 	 35.8587 	 -37.3274 	 -134.375
| 26> C 	 36.0842 	 -36.4852 	 -133.181
| 27> C 	 34.9438 	 -36.2783 	 -132.386
| 28> H 	 36.4571 	 -37.5633 	 -135.246
| 29> C 	 37.3688 	 -35.7365 	 -133.01
| 30> H 	 37.2079 	 -34.864 	 -132.389
| 31> H 	 37.6501 	 -35.5535 	 -134.026
| 32> C 	 38.5068 	 -36.6085 	 -132.453
| 33> H 	 38.605 	 -37.5301 	 -133.21
| 34> H 	 38.2278 	 -37.0538 	 -131.532
| 35> C 	 39.8924 	 -36.0158 	 -132.516
| 36> H 	 40.0821 	 -35.6252 	 -133.506
| 37> H 	 40.761 	 -36.5893 	 -132.215
| 38> H 	 39.9637 	 -35.1127 	 -131.879
| 39> H 	 33.3563 	 -34.4506 	 -127.99
| 40> H 	 34.2543 	 -38.3748 	 -135.224
| 41> *
| 42>
| 43>                          ****END OF INPUT****

CARTESIAN COORDINATES (ANGSTROEM)
---------------------------------
  S     33.358800  -34.779100  -130.556000
  C     33.918400  -34.779400  -128.864000
  C     35.164300  -35.467400  -128.711000
  C     35.626800  -35.946900  -130.006000
  C     34.793100  -35.671000  -131.043000
  H     36.540600  -36.411800  -130.297000
  C     35.845600  -35.816700  -127.363000
  H     35.834400  -36.948500  -127.198000
  H     35.255900  -35.362600  -126.604000
  C     37.270000  -35.370400  -127.184000
  H     37.522600  -35.769400  -126.237000
  H     37.854500  -35.932900  -127.948000
  C     37.366600  -33.824000  -127.193000
  H     38.411700  -33.585100  -127.066000
  H     37.022900  -33.397700  -128.194000
  H     36.894500  -33.344900  -126.273000
  S     33.696800  -37.415900  -132.927000
  C     34.566900  -37.723200  -134.403000
  C     35.858700  -37.327400  -134.375000
  C     36.084200  -36.485200  -133.181000
  C     34.943800  -36.278300  -132.386000
  H     36.457100  -37.563300  -135.246000
  C     37.368800  -35.736500  -133.010000
  H     37.207900  -34.864000  -132.389000
  H     37.650100  -35.553500  -134.026000
  C     38.506800  -36.608500  -132.453000
  H     38.605000  -37.530100  -133.210000
  H     38.227800  -37.053800  -131.532000
  C     39.892400  -36.015800  -132.516000
  H     40.082100  -35.625200  -133.506000
  H     40.761000  -36.589300  -132.215000
  H     39.963700  -35.112700  -131.879000
  H     33.356300  -34.450600  -127.990000
  H     34.254300  -38.374800  -135.224000

 Total Charge           Charge          ....    0
 Multiplicity           Mult            ....    1
 Number of Electrons    NEL             ....  134
 Basis Dimension        Dim             ....  322

ORBITAL ENERGIES
----------------

  NO   OCC          E(Eh)            E(eV)
   0   2.0000     -88.971146     -2421.0280
   1   2.0000     -88.961390     -2420.7625
   2   2.0000     -10.330439      -281.1055
   3   2.0000     -10.329767      -281.0873
   4   2.0000     -10.324477      -280.9433
   5   2.0000     -10.313795      -280.6526
   6   2.0000     -10.313151      -280.6351
   7   2.0000     -10.309282      -280.5298
   8   2.0000     -10.295487      -280.1544
   9   2.0000     -10.295445      -280.1533
  10   2.0000     -10.294708      -280.1332
  11   2.0000     -10.294615      -280.1307
  12   2.0000     -10.287745      -279.9438
  13   2.0000     -10.287641      -279.9409
  14   2.0000     -10.287283      -279.9312
  15   2.0000     -10.278628      -279.6957
  16   2.0000      -8.084865      -220.0004
  17   2.0000      -8.076244      -219.7658
  18   2.0000      -6.043478      -164.4514
  19   2.0000      -6.039546      -164.3444
  20   2.0000      -6.035541      -164.2354
  21   2.0000      -6.034892      -164.2178
  22   2.0000      -6.030912      -164.1095
  23   2.0000      -6.026655      -163.9936
  24   2.0000      -1.002080       -27.2680
  25   2.0000      -0.978624       -26.6297
  26   2.0000      -0.914240       -24.8777
  27   2.0000      -0.913016       -24.8444
  28   2.0000      -0.868523       -23.6337
  29   2.0000      -0.849918       -23.1274
  30   2.0000      -0.842352       -22.9216
  31   2.0000      -0.817415       -22.2430
  32   2.0000      -0.781957       -21.2781
  33   2.0000      -0.770516       -20.9668
  34   2.0000      -0.706396       -19.2220
  35   2.0000      -0.696460       -18.9516
  36   2.0000      -0.688908       -18.7461
  37   2.0000      -0.657515       -17.8919
  38   2.0000      -0.641167       -17.4471
  39   2.0000      -0.619582       -16.8597
  40   2.0000      -0.590399       -16.0656
  41   2.0000      -0.575151       -15.6507
  42   2.0000      -0.565693       -15.3933
  43   2.0000      -0.550505       -14.9800
  44   2.0000      -0.544389       -14.8136
  45   2.0000      -0.519658       -14.1406
  46   2.0000      -0.518066       -14.0973
  47   2.0000      -0.509871       -13.8743
  48   2.0000      -0.502459       -13.6726
  49   2.0000      -0.497499       -13.5376
  50   2.0000      -0.488921       -13.3042
  51   2.0000      -0.475964       -12.9516
  52   2.0000      -0.471834       -12.8393
  53   2.0000      -0.464352       -12.6357
  54   2.0000      -0.459757       -12.5106
  55   2.0000      -0.454864       -12.3775
  56   2.0000      -0.445238       -12.1155
  57   2.0000      -0.436435       -11.8760
  58   2.0000      -0.433141       -11.7864
  59   2.0000      -0.425085       -11.5671
  60   2.0000      -0.420753       -11.4493
  61   2.0000      -0.418387       -11.3849
  62   2.0000      -0.404788       -11.0148
  63   2.0000      -0.349133        -9.5004
  64   2.0000      -0.329589        -8.9686
  65   2.0000      -0.323324        -8.7981
  66   2.0000      -0.296525        -8.0689
  67   0.0000       0.028874         0.7857
  68   0.0000       0.070488         1.9181
  69   0.0000       0.108941         2.9644
  70   0.0000       0.116758         3.1771
  71   0.0000       0.118910         3.2357

MULLIKEN ATOMIC CHARGES
-----------------------
   0 S :    0.115681
   1 C :   -0.118002
   2 C :   -0.101979
   3 C :    0.063900
   4 C :   -0.175234
   5 H :   -0.026406
   6 C :    0.058005
   7 H :    0.053021
   8 H :   -0.001114
   9 C :   -0.058883
  10 H :    0.019006
  11 H :    0.035210
  12 C :   -0.078549
  13 H :    0.029217
  14 H :    0.064822
  15 H :    0.043534
  16 S :    0.094739
  17 C :   -0.085188
  18 C :   -0.030288
  19 C :   -0.073820
  20 C :   -0.107927
  21 H :    0.026817
  22 C :    0.092624
  23 H :    0.037087
  24 H :    0.013538
  25 C :   -0.124620
  26 H :    0.032080
  27 H :    0.027845
  28 C :   -0.013724
  29 H :    0.018865
  30 H :    0.039738
  31 H :    0.018211
  32 H :    0.055680
  33 H :    0.056113
Sum of atomic charges:    0.0000000

LOEWDIN ATOMIC CHARGES
----------------------
   0 S :    0.393884
   1 C :   -0.192711
   2 C :   -0.055744
   3 C :   -0.056600
   4 C :   -0.195490
   5 H :    0.025304
   6 C :   -0.032665
   7 H :    0.041630
   8 H :    0.019419
   9 C :   -0.043472
  10 H :    0.020996
  11 H :    0.026661
  12 C :   -0.073705
  13 H :    0.022242
  14 H :    0.038355
  15 H :    0.035421
  16 S :    0.389094
  17 C :   -0.182075
  18 C :   -0.076405
  19 C :   -0.048241
  20 C :   -0.194325
  21 H :    0.036665
  22 C :   -0.029493
  23 H :    0.030460
  24 H :    0.030480
  25 C :   -0.043103
  26 H :    0.033669
  27 H :    0.010226
  28 C :   -0.071274
  29 H :    0.024209
  30 H :    0.028352
  31 H :    0.023924
  32 H :    0.030880
  33 H :    0.033432

  Mayer bond orders larger than 0.100000
B(  0-S ,  1-C ) :   1.1328 B(  0-S ,  4-C ) :   1.1342 B(  1-C ,  2-C ) :   1.6228
B(  1-C , 32-H ) :   0.9621 B(  2-C ,  3-C ) :   1.1996 B(  2-C ,  6-C ) :   1.0225
B(  3-C ,  4-C ) :   1.6186 B(  3-C ,  5-H ) :   0.9910 B(  4-C , 20-C ) :   1.0190
B(  6-C ,  7-H ) :   0.9440 B(  6-C ,  8-H ) :   0.9347 B(  6-C ,  9-C ) :   1.0767
B(  9-C , 10-H ) :   0.9507 B(  9-C , 11-H ) :   0.9561 B(  9-C , 12-C ) :   1.0715
B( 12-C , 13-H ) :   0.9746 B( 12-C , 14-H ) :   0.9728 B( 12-C , 15-H ) :   0.9713
B( 16-S , 17-C ) :   1.1445 B( 16-S , 20-C ) :   1.1151 B( 17-C , 18-C ) :   1.6742
B( 17-C , 33-H ) :   0.9583 B( 18-C , 19-C ) :   1.1832 B( 18-C , 21-H ) :   0.9883
B( 19-C , 20-C ) :   1.6250 B( 19-C , 22-C ) :   1.0589 B( 22-C , 23-H ) :   0.9405
B( 22-C , 24-H ) :   0.9289 B( 22-C , 25-C ) :   1.0478 B( 25-C , 26-H ) :   0.9550
B( 25-C , 27-H ) :   0.9560 B( 25-C , 28-C ) :   1.0756 B( 28-C , 29-H ) :   0.9699
B( 28-C , 30-H ) :   0.9748 B( 28-C , 31-H ) :   0.9689

Dispersion correction           -0.014445337
FINAL SINGLE POINT ENERGY     -1339.860710629669

DIPOLE MOMENT
-------------
                                X             Y             Z
Electronic contribution:    -28.29993      -3.76830     -11.48425
Nuclear contribution   :     29.01353       3.60241      11.72432
                        -----------------------------------------
Total Dipole Moment    :      0.71360      -0.16589       0.24007
                        -----------------------------------------
Magnitude (a.u.)       :      0.77096
Magnitude (Debye)      :      1.95962

Rotational constants in cm-1:     0.016784     0.009872     0.006800
Rotational constants in MHz :   503.165756   295.966114   203.846370

                             ****ORCA TERMINATED NORMALLY****
TOTAL RUN TIME: 0 days 0 hours 0 minutes 22 seconds 33 msec
