                         Program Version 4.2.1 -  RELEASE  -
|  1> ! wB97X-D3 SP def2-SVP
|  2> %pal
|  3> nprocs 24
|  4> end
|  5>
|  6> * xyz 0 1
|  7> S 	 -102.779 	 20.5876 	 -119.931
|  8> C 	 -101.316 	 21.5636 	 -120.156
|  9> C 	 -100.453 	 20.8786 	 -121.038
| 10> C 	 -101.149 	 19.9392 	 -121.803
| 11> C 	 -102.376 	 19.5886 	 -121.295
| 12> H 	 -100.732 	 19.3308 	 -122.627
| 13> C 	 -98.9919 	 21.1787 	 -121.195
| 14> H 	 -98.6368 	 22.0369 	 -120.598
| 15> H 	 -98.9009 	 21.5075 	 -122.226
| 16> C 	 -98.1855 	 19.9842 	 -120.836
| 17> H 	 -98.4008 	 19.2634 	 -121.553
| 18> H 	 -97.1087 	 20.1834 	 -120.939
| 19> C 	 -98.3949 	 19.6078 	 -119.359
| 20> H 	 -97.6169 	 18.8328 	 -119.061
| 21> H 	 -98.188 	 20.4561 	 -118.758
| 22> H 	 -99.4028 	 19.2004 	 -119.007
| 23> S 	 -104.197 	 19.9245 	 -123.301
| 24> C 	 -105.118 	 18.5085 	 -123.752
| 25> C 	 -104.935 	 17.4328 	 -122.947
| 26> C 	 -103.839 	 17.6105 	 -122.052
| 27> C 	 -103.44 	 18.9719 	 -122.043
| 28> H 	 -105.415 	 16.4692 	 -123.135
| 29> C 	 -103.434 	 16.4878 	 -121.1
| 30> H 	 -102.403 	 16.6382 	 -120.88
| 31> H 	 -103.42 	 15.455 	 -121.526
| 32> C 	 -104.191 	 16.512 	 -119.774
| 33> H 	 -105.302 	 16.5048 	 -119.933
| 34> H 	 -103.9 	 17.4315 	 -119.314
| 35> C 	 -103.874 	 15.2986 	 -118.84
| 36> H 	 -104.182 	 15.5701 	 -117.835
| 37> H 	 -102.816 	 15.2991 	 -118.726
| 38> H 	 -104.32 	 14.3173 	 -119.073
| 39> H 	 -100.913 	 22.133 	 -119.377
| 40> H 	 -105.792 	 18.4226 	 -124.586
| 41> *
| 42>
| 43>                          ****END OF INPUT****

CARTESIAN COORDINATES (ANGSTROEM)
---------------------------------
  S    -102.779000   20.587600  -119.931000
  C    -101.316000   21.563600  -120.156000
  C    -100.453000   20.878600  -121.038000
  C    -101.149000   19.939200  -121.803000
  C    -102.376000   19.588600  -121.295000
  H    -100.732000   19.330800  -122.627000
  C    -98.991900   21.178700  -121.195000
  H    -98.636800   22.036900  -120.598000
  H    -98.900900   21.507500  -122.226000
  C    -98.185500   19.984200  -120.836000
  H    -98.400800   19.263400  -121.553000
  H    -97.108700   20.183400  -120.939000
  C    -98.394900   19.607800  -119.359000
  H    -97.616900   18.832800  -119.061000
  H    -98.188000   20.456100  -118.758000
  H    -99.402800   19.200400  -119.007000
  S    -104.197000   19.924500  -123.301000
  C    -105.118000   18.508500  -123.752000
  C    -104.935000   17.432800  -122.947000
  C    -103.839000   17.610500  -122.052000
  C    -103.440000   18.971900  -122.043000
  H    -105.415000   16.469200  -123.135000
  C    -103.434000   16.487800  -121.100000
  H    -102.403000   16.638200  -120.880000
  H    -103.420000   15.455000  -121.526000
  C    -104.191000   16.512000  -119.774000
  H    -105.302000   16.504800  -119.933000
  H    -103.900000   17.431500  -119.314000
  C    -103.874000   15.298600  -118.840000
  H    -104.182000   15.570100  -117.835000
  H    -102.816000   15.299100  -118.726000
  H    -104.320000   14.317300  -119.073000
  H    -100.913000   22.133000  -119.377000
  H    -105.792000   18.422600  -124.586000

 Total Charge           Charge          ....    0
 Multiplicity           Mult            ....    1
 Number of Electrons    NEL             ....  134
 Basis Dimension        Dim             ....  322

ORBITAL ENERGIES
----------------

  NO   OCC          E(Eh)            E(eV)
   0   2.0000     -88.968563     -2420.9577
   1   2.0000     -88.964084     -2420.8358
   2   2.0000     -10.323340      -280.9124
   3   2.0000     -10.322530      -280.8903
   4   2.0000     -10.310750      -280.5698
   5   2.0000     -10.310364      -280.5593
   6   2.0000     -10.304239      -280.3926
   7   2.0000     -10.302141      -280.3355
   8   2.0000     -10.293268      -280.0941
   9   2.0000     -10.289176      -279.9827
  10   2.0000     -10.289071      -279.9799
  11   2.0000     -10.287214      -279.9293
  12   2.0000     -10.285543      -279.8838
  13   2.0000     -10.284439      -279.8538
  14   2.0000     -10.283360      -279.8245
  15   2.0000     -10.276090      -279.6266
  16   2.0000      -8.083068      -219.9515
  17   2.0000      -8.078508      -219.8274
  18   2.0000      -6.041514      -164.3979
  19   2.0000      -6.037741      -164.2953
  20   2.0000      -6.036935      -164.2734
  21   2.0000      -6.033774      -164.1873
  22   2.0000      -6.033037      -164.1673
  23   2.0000      -6.029387      -164.0680
  24   2.0000      -1.008949       -27.4549
  25   2.0000      -0.984323       -26.7848
  26   2.0000      -0.924097       -25.1459
  27   2.0000      -0.905949       -24.6521
  28   2.0000      -0.869127       -23.6502
  29   2.0000      -0.847535       -23.0626
  30   2.0000      -0.845244       -23.0003
  31   2.0000      -0.812418       -22.1070
  32   2.0000      -0.785432       -21.3727
  33   2.0000      -0.770883       -20.9768
  34   2.0000      -0.711165       -19.3518
  35   2.0000      -0.697176       -18.9711
  36   2.0000      -0.691028       -18.8038
  37   2.0000      -0.657984       -17.9047
  38   2.0000      -0.640016       -17.4157
  39   2.0000      -0.620768       -16.8920
  40   2.0000      -0.598586       -16.2883
  41   2.0000      -0.571387       -15.5482
  42   2.0000      -0.564578       -15.3630
  43   2.0000      -0.557799       -15.1785
  44   2.0000      -0.543100       -14.7785
  45   2.0000      -0.516232       -14.0474
  46   2.0000      -0.513776       -13.9806
  47   2.0000      -0.510813       -13.8999
  48   2.0000      -0.505184       -13.7468
  49   2.0000      -0.492213       -13.3938
  50   2.0000      -0.485981       -13.2242
  51   2.0000      -0.476400       -12.9635
  52   2.0000      -0.469417       -12.7735
  53   2.0000      -0.464920       -12.6511
  54   2.0000      -0.456245       -12.4150
  55   2.0000      -0.449700       -12.2370
  56   2.0000      -0.442197       -12.0328
  57   2.0000      -0.437227       -11.8976
  58   2.0000      -0.431515       -11.7421
  59   2.0000      -0.428027       -11.6472
  60   2.0000      -0.426528       -11.6064
  61   2.0000      -0.415109       -11.2957
  62   2.0000      -0.411620       -11.2007
  63   2.0000      -0.342579        -9.3220
  64   2.0000      -0.327207        -8.9038
  65   2.0000      -0.315745        -8.5919
  66   2.0000      -0.307905        -8.3785
  67   0.0000       0.035926         0.9776
  68   0.0000       0.051079         1.3899
  69   0.0000       0.099034         2.6949
  70   0.0000       0.119739         3.2583
  71   0.0000       0.131109         3.5677

MULLIKEN ATOMIC CHARGES
-----------------------
   0 S :    0.094546
   1 C :   -0.075642
   2 C :   -0.143577
   3 C :    0.015287
   4 C :   -0.169903
   5 H :    0.030906
   6 C :    0.073705
   7 H :    0.016779
   8 H :    0.034526
   9 C :   -0.035955
  10 H :    0.014096
  11 H :    0.031603
  12 C :   -0.082192
  13 H :    0.039947
  14 H :    0.018634
  15 H :    0.059906
  16 S :    0.140882
  17 C :   -0.080917
  18 C :   -0.020018
  19 C :   -0.041034
  20 C :   -0.164991
  21 H :    0.021288
  22 C :    0.070348
  23 H :    0.009925
  24 H :    0.027146
  25 C :   -0.082255
  26 H :    0.036246
  27 H :    0.017293
  28 C :   -0.027771
  29 H :    0.023928
  30 H :    0.015469
  31 H :    0.048352
  32 H :    0.038211
  33 H :    0.045236
Sum of atomic charges:   -0.0000000

LOEWDIN ATOMIC CHARGES
----------------------
   0 S :    0.405179
   1 C :   -0.191514
   2 C :   -0.052664
   3 C :   -0.062834
   4 C :   -0.208467
   5 H :    0.038620
   6 C :   -0.033280
   7 H :    0.028862
   8 H :    0.033743
   9 C :   -0.037715
  10 H :    0.014029
  11 H :    0.030537
  12 C :   -0.070339
  13 H :    0.032889
  14 H :    0.017767
  15 H :    0.035653
  16 S :    0.418844
  17 C :   -0.182526
  18 C :   -0.073036
  19 C :   -0.044321
  20 C :   -0.212139
  21 H :    0.034280
  22 C :   -0.037999
  23 H :    0.024340
  24 H :    0.032898
  25 C :   -0.034832
  26 H :    0.026583
  27 H :    0.018630
  28 C :   -0.067418
  29 H :    0.028099
  30 H :    0.020020
  31 H :    0.029120
  32 H :    0.012818
  33 H :    0.026175

  Mayer bond orders larger than 0.100000
B(  0-S ,  1-C ) :   1.1493 B(  0-S ,  4-C ) :   1.1692 B(  1-C ,  2-C ) :   1.5788
B(  1-C ,  4-C ) :   0.1105 B(  1-C , 32-H ) :   0.9618 B(  2-C ,  3-C ) :   1.2526
B(  2-C ,  6-C ) :   1.0209 B(  3-C ,  4-C ) :   1.5724 B(  3-C ,  5-H ) :   0.9890
B(  4-C , 20-C ) :   0.9949 B(  6-C ,  7-H ) :   0.9435 B(  6-C ,  8-H ) :   0.9364
B(  6-C ,  9-C ) :   1.0822 B(  9-C , 10-H ) :   0.9544 B(  9-C , 11-H ) :   0.9527
B(  9-C , 12-C ) :   1.0642 B( 12-C , 13-H ) :   0.9751 B( 12-C , 14-H ) :   0.9735
B( 12-C , 15-H ) :   0.9721 B( 16-S , 17-C ) :   1.1476 B( 16-S , 20-C ) :   1.1455
B( 17-C , 18-C ) :   1.6400 B( 17-C , 33-H ) :   0.9632 B( 18-C , 19-C ) :   1.2405
B( 18-C , 21-H ) :   0.9816 B( 19-C , 20-C ) :   1.5940 B( 19-C , 22-C ) :   1.0566
B( 22-C , 23-H ) :   0.9185 B( 22-C , 24-H ) :   0.9411 B( 22-C , 25-C ) :   1.0629
B( 25-C , 26-H ) :   0.9607 B( 25-C , 27-H ) :   0.9516 B( 25-C , 28-C ) :   1.0812
B( 28-C , 29-H ) :   0.9711 B( 28-C , 30-H ) :   0.9713 B( 28-C , 31-H ) :   0.9768

Dispersion correction           -0.014943673
FINAL SINGLE POINT ENERGY     -1339.862457578434

DIPOLE MOMENT
-------------
                                X             Y             Z
Electronic contribution:    -14.78015      14.39990     -12.17648
Nuclear contribution   :     15.31055     -14.78825      12.15773
                        -----------------------------------------
Total Dipole Moment    :      0.53039      -0.38835      -0.01875
                        -----------------------------------------
Magnitude (a.u.)       :      0.65763
Magnitude (Debye)      :      1.67157

Rotational constants in cm-1:     0.018170     0.009284     0.007381
Rotational constants in MHz :   544.711076   278.323182   221.291180

                             ****ORCA TERMINATED NORMALLY****
TOTAL RUN TIME: 0 days 0 hours 0 minutes 20 seconds 955 msec
