                         Program Version 4.2.1 -  RELEASE  -
|  1> ! wB97X-D3 SP def2-SVP
|  2> %pal
|  3> nprocs 24
|  4> end
|  5>
|  6> * xyz 0 1
|  7> S 	 -103.133 	 50.7554 	 -98.5881
|  8> C 	 -103.607 	 52.299 	 -99.213
|  9> C 	 -104.183 	 52.1769 	 -100.501
| 10> C 	 -103.798 	 50.9033 	 -101.081
| 11> C 	 -103.135 	 50.0632 	 -100.185
| 12> H 	 -104.079 	 50.553 	 -102.042
| 13> C 	 -104.831 	 53.2948 	 -101.371
| 14> H 	 -104.328 	 54.2442 	 -101.155
| 15> H 	 -105.811 	 53.504 	 -100.979
| 16> C 	 -105.002 	 53.0232 	 -102.838
| 17> H 	 -105.632 	 52.0978 	 -103.049
| 18> H 	 -105.616 	 53.7582 	 -103.333
| 19> C 	 -103.605 	 53.0533 	 -103.595
| 20> H 	 -103.668 	 52.6818 	 -104.612
| 21> H 	 -103.155 	 54.0365 	 -103.703
| 22> H 	 -102.899 	 52.5229 	 -102.989
| 23> S 	 -103.289 	 47.4621 	 -99.2396
| 24> C 	 -102.317 	 46.2544 	 -100.124
| 25> C 	 -101.751 	 46.7768 	 -101.27
| 26> C 	 -101.989 	 48.1742 	 -101.424
| 27> C 	 -102.66 	 48.7207 	 -100.355
| 28> H 	 -101.05 	 46.191 	 -101.864
| 29> C 	 -101.252 	 48.8694 	 -102.617
| 30> H 	 -101.658 	 49.8447 	 -102.866
| 31> H 	 -101.552 	 48.3626 	 -103.53
| 32> C 	 -99.8125 	 49.0267 	 -102.531
| 33> H 	 -99.4805 	 49.5748 	 -103.432
| 34> H 	 -99.3285 	 48.0494 	 -102.735
| 35> C 	 -99.3919 	 49.6978 	 -101.262
| 36> H 	 -98.2705 	 49.7869 	 -101.23
| 37> H 	 -99.7632 	 49.2356 	 -100.378
| 38> H 	 -99.6136 	 50.7351 	 -101.182
| 39> H 	 -103.669 	 53.2701 	 -98.6553
| 40> H 	 -102.096 	 45.2409 	 -99.7287
| 41> *
| 42>
| 43>                          ****END OF INPUT****

CARTESIAN COORDINATES (ANGSTROEM)
---------------------------------
  S    -103.133000   50.755400  -98.588100
  C    -103.607000   52.299000  -99.213000
  C    -104.183000   52.176900  -100.501000
  C    -103.798000   50.903300  -101.081000
  C    -103.135000   50.063200  -100.185000
  H    -104.079000   50.553000  -102.042000
  C    -104.831000   53.294800  -101.371000
  H    -104.328000   54.244200  -101.155000
  H    -105.811000   53.504000  -100.979000
  C    -105.002000   53.023200  -102.838000
  H    -105.632000   52.097800  -103.049000
  H    -105.616000   53.758200  -103.333000
  C    -103.605000   53.053300  -103.595000
  H    -103.668000   52.681800  -104.612000
  H    -103.155000   54.036500  -103.703000
  H    -102.899000   52.522900  -102.989000
  S    -103.289000   47.462100  -99.239600
  C    -102.317000   46.254400  -100.124000
  C    -101.751000   46.776800  -101.270000
  C    -101.989000   48.174200  -101.424000
  C    -102.660000   48.720700  -100.355000
  H    -101.050000   46.191000  -101.864000
  C    -101.252000   48.869400  -102.617000
  H    -101.658000   49.844700  -102.866000
  H    -101.552000   48.362600  -103.530000
  C    -99.812500   49.026700  -102.531000
  H    -99.480500   49.574800  -103.432000
  H    -99.328500   48.049400  -102.735000
  C    -99.391900   49.697800  -101.262000
  H    -98.270500   49.786900  -101.230000
  H    -99.763200   49.235600  -100.378000
  H    -99.613600   50.735100  -101.182000
  H    -103.669000   53.270100  -98.655300
  H    -102.096000   45.240900  -99.728700

 Total Charge           Charge          ....    0
 Multiplicity           Mult            ....    1
 Number of Electrons    NEL             ....  134
 Basis Dimension        Dim             ....  322

ORBITAL ENERGIES
----------------

  NO   OCC          E(Eh)            E(eV)
   0   2.0000     -88.967207     -2420.9208
   1   2.0000     -88.965675     -2420.8791
   2   2.0000     -10.327343      -281.0213
   3   2.0000     -10.325671      -280.9758
   4   2.0000     -10.321497      -280.8622
   5   2.0000     -10.319933      -280.8196
   6   2.0000     -10.310342      -280.5587
   7   2.0000     -10.303031      -280.3597
   8   2.0000     -10.296472      -280.1812
   9   2.0000     -10.296097      -280.1710
  10   2.0000     -10.295221      -280.1472
  11   2.0000     -10.294076      -280.1160
  12   2.0000     -10.285239      -279.8756
  13   2.0000     -10.280676      -279.7514
  14   2.0000     -10.276861      -279.6476
  15   2.0000     -10.265892      -279.3491
  16   2.0000      -8.082301      -219.9306
  17   2.0000      -8.079388      -219.8513
  18   2.0000      -6.040754      -164.3773
  19   2.0000      -6.038133      -164.3060
  20   2.0000      -6.036898      -164.2723
  21   2.0000      -6.034200      -164.1989
  22   2.0000      -6.032963      -164.1653
  23   2.0000      -6.029810      -164.0795
  24   2.0000      -1.004673       -27.3385
  25   2.0000      -0.978917       -26.6377
  26   2.0000      -0.917683       -24.9714
  27   2.0000      -0.910679       -24.7808
  28   2.0000      -0.867482       -23.6054
  29   2.0000      -0.846292       -23.0288
  30   2.0000      -0.837939       -22.8015
  31   2.0000      -0.809232       -22.0203
  32   2.0000      -0.788858       -21.4659
  33   2.0000      -0.777311       -21.1517
  34   2.0000      -0.712030       -19.3753
  35   2.0000      -0.696727       -18.9589
  36   2.0000      -0.687528       -18.7086
  37   2.0000      -0.657866       -17.9014
  38   2.0000      -0.637463       -17.3463
  39   2.0000      -0.623482       -16.9658
  40   2.0000      -0.598306       -16.2807
  41   2.0000      -0.559945       -15.2369
  42   2.0000      -0.556829       -15.1521
  43   2.0000      -0.555795       -15.1240
  44   2.0000      -0.540722       -14.7138
  45   2.0000      -0.531996       -14.4763
  46   2.0000      -0.510955       -13.9038
  47   2.0000      -0.506773       -13.7900
  48   2.0000      -0.500604       -13.6221
  49   2.0000      -0.494505       -13.4562
  50   2.0000      -0.492260       -13.3951
  51   2.0000      -0.484667       -13.1885
  52   2.0000      -0.463861       -12.6223
  53   2.0000      -0.462804       -12.5935
  54   2.0000      -0.456622       -12.4253
  55   2.0000      -0.450918       -12.2701
  56   2.0000      -0.447833       -12.1862
  57   2.0000      -0.436406       -11.8752
  58   2.0000      -0.432613       -11.7720
  59   2.0000      -0.429631       -11.6909
  60   2.0000      -0.419726       -11.4213
  61   2.0000      -0.410138       -11.1604
  62   2.0000      -0.399976       -10.8839
  63   2.0000      -0.347409        -9.4535
  64   2.0000      -0.333735        -9.0814
  65   2.0000      -0.327624        -8.9151
  66   2.0000      -0.285443        -7.7673
  67   0.0000       0.023622         0.6428
  68   0.0000       0.062959         1.7132
  69   0.0000       0.102803         2.7974
  70   0.0000       0.121908         3.3173
  71   0.0000       0.123859         3.3704

MULLIKEN ATOMIC CHARGES
-----------------------
   0 S :    0.118416
   1 C :   -0.132075
   2 C :   -0.106526
   3 C :    0.033942
   4 C :   -0.155569
   5 H :    0.006589
   6 C :    0.082004
   7 H :    0.028257
   8 H :    0.027609
   9 C :   -0.099302
  10 H :    0.044122
  11 H :    0.026090
  12 C :   -0.054096
  13 H :    0.035415
  14 H :    0.025732
  15 H :    0.034614
  16 S :    0.089303
  17 C :   -0.105950
  18 C :   -0.027404
  19 C :   -0.054814
  20 C :   -0.130685
  21 H :    0.026397
  22 C :    0.077735
  23 H :    0.001977
  24 H :    0.016132
  25 C :   -0.045429
  26 H :    0.022314
  27 H :    0.018001
  28 C :   -0.028264
  29 H :    0.025086
  30 H :    0.045978
  31 H :    0.019024
  32 H :    0.064620
  33 H :    0.070755
Sum of atomic charges:   -0.0000000

LOEWDIN ATOMIC CHARGES
----------------------
   0 S :    0.420472
   1 C :   -0.213999
   2 C :   -0.056215
   3 C :   -0.055919
   4 C :   -0.197813
   5 H :    0.025112
   6 C :   -0.036321
   7 H :    0.035082
   8 H :    0.033566
   9 C :   -0.047933
  10 H :    0.033720
  11 H :    0.025396
  12 C :   -0.067186
  13 H :    0.024991
  14 H :    0.025920
  15 H :    0.019796
  16 S :    0.363744
  17 C :   -0.176355
  18 C :   -0.066732
  19 C :   -0.056840
  20 C :   -0.185011
  21 H :    0.034015
  22 C :   -0.035307
  23 H :    0.025641
  24 H :    0.031472
  25 C :   -0.048653
  26 H :    0.031089
  27 H :    0.021631
  28 C :   -0.063126
  29 H :    0.032120
  30 H :    0.025519
  31 H :    0.024432
  32 H :    0.037966
  33 H :    0.035722

  Mayer bond orders larger than 0.100000
B(  0-S ,  1-C ) :   1.1537 B(  0-S ,  4-C ) :   1.1511 B(  1-C ,  2-C ) :   1.5945
B(  1-C ,  4-C ) :   0.1055 B(  1-C , 32-H ) :   0.9643 B(  2-C ,  3-C ) :   1.2538
B(  2-C ,  6-C ) :   1.0028 B(  3-C ,  4-C ) :   1.5528 B(  3-C ,  5-H ) :   0.9910
B(  4-C , 20-C ) :   1.0558 B(  6-C ,  7-H ) :   0.9437 B(  6-C ,  8-H ) :   0.9244
B(  6-C ,  9-C ) :   1.0969 B(  9-C , 10-H ) :   0.9496 B(  9-C , 11-H ) :   0.9511
B(  9-C , 12-C ) :   1.0560 B( 12-C , 13-H ) :   0.9767 B( 12-C , 14-H ) :   0.9723
B( 12-C , 15-H ) :   0.9808 B( 16-S , 17-C ) :   1.1249 B( 16-S , 20-C ) :   1.1169
B( 17-C , 18-C ) :   1.6432 B( 17-C , 20-C ) :   0.1003 B( 17-C , 33-H ) :   0.9615
B( 18-C , 19-C ) :   1.2040 B( 18-C , 21-H ) :   0.9881 B( 19-C , 20-C ) :   1.6434
B( 19-C , 22-C ) :   1.0326 B( 22-C , 23-H ) :   0.9315 B( 22-C , 24-H ) :   0.9254
B( 22-C , 25-C ) :   1.1015 B( 25-C , 26-H ) :   0.9411 B( 25-C , 27-H ) :   0.9477
B( 25-C , 28-C ) :   1.0794 B( 28-C , 29-H ) :   0.9687 B( 28-C , 30-H ) :   0.9730
B( 28-C , 31-H ) :   0.9700

Dispersion correction           -0.015588305
FINAL SINGLE POINT ENERGY     -1339.863755201915

DIPOLE MOMENT
-------------
                                X             Y             Z
Electronic contribution:     -7.82965     -13.54944      21.90250
Nuclear contribution   :      7.88846      13.92420     -22.52659
                        -----------------------------------------
Total Dipole Moment    :      0.05880       0.37476      -0.62409
                        -----------------------------------------
Magnitude (a.u.)       :      0.73033
Magnitude (Debye)      :      1.85636

Rotational constants in cm-1:     0.018559     0.009844     0.007898
Rotational constants in MHz :   556.392923   295.118259   236.779587

                             ****ORCA TERMINATED NORMALLY****
TOTAL RUN TIME: 0 days 0 hours 0 minutes 22 seconds 876 msec
