                         Program Version 4.2.1 -  RELEASE  -
|  1> ! wB97X-D3 SP def2-SVP
|  2> %pal
|  3> nprocs 24
|  4> end
|  5>
|  6> * xyz 0 1
|  7> S 	 -43.8713 	 -9.18848 	 -20.509
|  8> C 	 -44.3359 	 -10.8668 	 -20.3441
|  9> C 	 -44.0047 	 -11.3738 	 -19.0929
| 10> C 	 -43.5142 	 -10.3571 	 -18.2323
| 11> C 	 -43.5201 	 -9.05477 	 -18.757
| 12> H 	 -43.1249 	 -10.503 	 -17.2662
| 13> C 	 -44.0339 	 -12.832 	 -18.8642
| 14> H 	 -43.8768 	 -13.0285 	 -17.8336
| 15> H 	 -43.1752 	 -13.1917 	 -19.348
| 16> C 	 -45.2299 	 -13.6197 	 -19.3331
| 17> H 	 -46.0761 	 -13.0986 	 -19.036
| 18> H 	 -45.2633 	 -13.6289 	 -20.44
| 19> C 	 -45.266 	 -15.0529 	 -18.7845
| 20> H 	 -44.9063 	 -15.1721 	 -17.78
| 21> H 	 -46.2324 	 -15.596 	 -18.6964
| 22> H 	 -44.6828 	 -15.7547 	 -19.3869
| 23> S 	 -42.4224 	 -6.60455 	 -19.2748
| 24> C 	 -42.2639 	 -5.33726 	 -17.9964
| 25> C 	 -42.6093 	 -5.93823 	 -16.8038
| 26> C 	 -43.0058 	 -7.30707 	 -16.8362
| 27> C 	 -43.136 	 -7.79307 	 -18.1878
| 28> H 	 -42.5254 	 -5.36613 	 -15.8968
| 29> C 	 -43.264 	 -8.06284 	 -15.5006
| 30> H 	 -42.9411 	 -7.4662 	 -14.6372
| 31> H 	 -42.5665 	 -8.89713 	 -15.4486
| 32> C 	 -44.7239 	 -8.35465 	 -15.2836
| 33> H 	 -45.0953 	 -8.57457 	 -16.2434
| 34> H 	 -45.212 	 -7.38522 	 -15.1487
| 35> C 	 -44.9857 	 -9.48568 	 -14.2698
| 36> H 	 -46.0209 	 -9.5041 	 -14.0778
| 37> H 	 -44.4995 	 -9.37486 	 -13.3149
| 38> H 	 -44.6417 	 -10.3962 	 -14.7319
| 39> H 	 -44.6548 	 -11.4352 	 -21.2432
| 40> H 	 -41.7825 	 -4.38168 	 -17.9514
| 41> *
| 42>
| 43>                          ****END OF INPUT****

CARTESIAN COORDINATES (ANGSTROEM)
---------------------------------
  S    -43.871300   -9.188480  -20.509000
  C    -44.335900  -10.866800  -20.344100
  C    -44.004700  -11.373800  -19.092900
  C    -43.514200  -10.357100  -18.232300
  C    -43.520100   -9.054770  -18.757000
  H    -43.124900  -10.503000  -17.266200
  C    -44.033900  -12.832000  -18.864200
  H    -43.876800  -13.028500  -17.833600
  H    -43.175200  -13.191700  -19.348000
  C    -45.229900  -13.619700  -19.333100
  H    -46.076100  -13.098600  -19.036000
  H    -45.263300  -13.628900  -20.440000
  C    -45.266000  -15.052900  -18.784500
  H    -44.906300  -15.172100  -17.780000
  H    -46.232400  -15.596000  -18.696400
  H    -44.682800  -15.754700  -19.386900
  S    -42.422400   -6.604550  -19.274800
  C    -42.263900   -5.337260  -17.996400
  C    -42.609300   -5.938230  -16.803800
  C    -43.005800   -7.307070  -16.836200
  C    -43.136000   -7.793070  -18.187800
  H    -42.525400   -5.366130  -15.896800
  C    -43.264000   -8.062840  -15.500600
  H    -42.941100   -7.466200  -14.637200
  H    -42.566500   -8.897130  -15.448600
  C    -44.723900   -8.354650  -15.283600
  H    -45.095300   -8.574570  -16.243400
  H    -45.212000   -7.385220  -15.148700
  C    -44.985700   -9.485680  -14.269800
  H    -46.020900   -9.504100  -14.077800
  H    -44.499500   -9.374860  -13.314900
  H    -44.641700  -10.396200  -14.731900
  H    -44.654800  -11.435200  -21.243200
  H    -41.782500   -4.381680  -17.951400

 Total Charge           Charge          ....    0
 Multiplicity           Mult            ....    1
 Number of Electrons    NEL             ....  134
 Basis Dimension        Dim             ....  322

ORBITAL ENERGIES
----------------

  NO   OCC          E(Eh)            E(eV)
   0   2.0000     -88.968758     -2420.9630
   1   2.0000     -88.965318     -2420.8694
   2   2.0000     -10.338229      -281.3175
   3   2.0000     -10.337345      -281.2934
   4   2.0000     -10.319834      -280.8170
   5   2.0000     -10.316576      -280.7283
   6   2.0000     -10.311139      -280.5804
   7   2.0000     -10.302131      -280.3352
   8   2.0000     -10.297472      -280.2085
   9   2.0000     -10.292860      -280.0830
  10   2.0000     -10.292484      -280.0727
  11   2.0000     -10.286376      -279.9065
  12   2.0000     -10.281807      -279.7822
  13   2.0000     -10.281044      -279.7614
  14   2.0000     -10.277530      -279.6658
  15   2.0000     -10.274350      -279.5793
  16   2.0000      -8.082032      -219.9233
  17   2.0000      -8.079530      -219.8552
  18   2.0000      -6.040858      -164.3801
  19   2.0000      -6.038080      -164.3045
  20   2.0000      -6.036679      -164.2664
  21   2.0000      -6.034188      -164.1986
  22   2.0000      -6.032583      -164.1549
  23   2.0000      -6.030202      -164.0901
  24   2.0000      -1.002522       -27.2800
  25   2.0000      -0.978876       -26.6366
  26   2.0000      -0.921456       -25.0741
  27   2.0000      -0.910433       -24.7741
  28   2.0000      -0.872715       -23.7478
  29   2.0000      -0.850981       -23.1564
  30   2.0000      -0.843011       -22.9395
  31   2.0000      -0.818548       -22.2738
  32   2.0000      -0.784313       -21.3422
  33   2.0000      -0.771981       -21.0067
  34   2.0000      -0.717882       -19.5346
  35   2.0000      -0.713080       -19.4039
  36   2.0000      -0.697140       -18.9701
  37   2.0000      -0.663924       -18.0663
  38   2.0000      -0.639328       -17.3970
  39   2.0000      -0.620268       -16.8784
  40   2.0000      -0.592064       -16.1109
  41   2.0000      -0.577493       -15.7144
  42   2.0000      -0.569963       -15.5095
  43   2.0000      -0.562542       -15.3075
  44   2.0000      -0.527379       -14.3507
  45   2.0000      -0.526144       -14.3171
  46   2.0000      -0.518001       -14.0955
  47   2.0000      -0.514265       -13.9939
  48   2.0000      -0.507032       -13.7970
  49   2.0000      -0.502725       -13.6798
  50   2.0000      -0.491954       -13.3868
  51   2.0000      -0.485492       -13.2109
  52   2.0000      -0.476812       -12.9747
  53   2.0000      -0.471562       -12.8318
  54   2.0000      -0.458796       -12.4845
  55   2.0000      -0.449000       -12.2179
  56   2.0000      -0.445856       -12.1324
  57   2.0000      -0.438478       -11.9316
  58   2.0000      -0.433120       -11.7858
  59   2.0000      -0.427625       -11.6363
  60   2.0000      -0.424649       -11.5553
  61   2.0000      -0.413531       -11.2528
  62   2.0000      -0.406152       -11.0520
  63   2.0000      -0.360736        -9.8161
  64   2.0000      -0.334378        -9.0989
  65   2.0000      -0.325812        -8.8658
  66   2.0000      -0.277544        -7.5524
  67   0.0000       0.007509         0.2043
  68   0.0000       0.074186         2.0187
  69   0.0000       0.095994         2.6121
  70   0.0000       0.127403         3.4668
  71   0.0000       0.132111         3.5949

MULLIKEN ATOMIC CHARGES
-----------------------
   0 S :    0.094585
   1 C :   -0.146078
   2 C :   -0.082258
   3 C :    0.031256
   4 C :   -0.130818
   5 H :   -0.017218
   6 C :    0.114531
   7 H :   -0.002481
   8 H :    0.029189
   9 C :   -0.045560
  10 H :    0.017598
  11 H :    0.031428
  12 C :   -0.057318
  13 H :    0.019544
  14 H :    0.033416
  15 H :    0.026931
  16 S :    0.088297
  17 C :   -0.069740
  18 C :   -0.042611
  19 C :   -0.067931
  20 C :   -0.123943
  21 H :    0.013984
  22 C :    0.047958
  23 H :    0.012197
  24 H :    0.030502
  25 C :   -0.053716
  26 H :    0.015851
  27 H :    0.016848
  28 C :    0.012874
  29 H :    0.027357
  30 H :    0.025939
  31 H :    0.025116
  32 H :    0.069524
  33 H :    0.054745
Sum of atomic charges:    0.0000000

LOEWDIN ATOMIC CHARGES
----------------------
   0 S :    0.389005
   1 C :   -0.198473
   2 C :   -0.061906
   3 C :   -0.057593
   4 C :   -0.177386
   5 H :    0.021340
   6 C :   -0.027294
   7 H :    0.023255
   8 H :    0.032290
   9 C :   -0.031719
  10 H :    0.017652
  11 H :    0.027161
  12 C :   -0.071814
  13 H :    0.021712
  14 H :    0.032818
  15 H :    0.025817
  16 S :    0.386679
  17 C :   -0.180199
  18 C :   -0.069000
  19 C :   -0.055028
  20 C :   -0.191137
  21 H :    0.028442
  22 C :   -0.031886
  23 H :    0.029007
  24 H :    0.024952
  25 C :   -0.042449
  26 H :    0.018359
  27 H :    0.027175
  28 C :   -0.051470
  29 H :    0.023497
  30 H :    0.023167
  31 H :    0.025589
  32 H :    0.034120
  33 H :    0.035319

  Mayer bond orders larger than 0.100000
B(  0-S ,  1-C ) :   1.1456 B(  0-S ,  4-C ) :   1.1441 B(  1-C ,  2-C ) :   1.5659
B(  1-C ,  4-C ) :   0.1047 B(  1-C , 32-H ) :   0.9684 B(  2-C ,  3-C ) :   1.2725
B(  2-C ,  6-C ) :   1.0276 B(  3-C ,  4-C ) :   1.5168 B(  3-C ,  5-H ) :   1.0026
B(  4-C , 20-C ) :   1.1181 B(  6-C ,  7-H ) :   0.9337 B(  6-C ,  8-H ) :   0.9222
B(  6-C ,  9-C ) :   1.0714 B(  9-C , 10-H ) :   0.9626 B(  9-C , 11-H ) :   0.9479
B(  9-C , 12-C ) :   1.0773 B( 12-C , 13-H ) :   0.9754 B( 12-C , 14-H ) :   0.9757
B( 12-C , 15-H ) :   0.9757 B( 16-S , 17-C ) :   1.1241 B( 16-S , 20-C ) :   1.1458
B( 17-C , 18-C ) :   1.6106 B( 17-C , 20-C ) :   0.1095 B( 17-C , 33-H ) :   0.9673
B( 18-C , 19-C ) :   1.2872 B( 18-C , 21-H ) :   0.9803 B( 19-C , 20-C ) :   1.5183
B( 19-C , 22-C ) :   1.0328 B( 22-C , 23-H ) :   0.9316 B( 22-C , 24-H ) :   0.9409
B( 22-C , 25-C ) :   1.0536 B( 25-C , 26-H ) :   0.9622 B( 25-C , 27-H ) :   0.9465
B( 25-C , 28-C ) :   1.0646 B( 28-C , 29-H ) :   0.9722 B( 28-C , 30-H ) :   0.9759
B( 28-C , 31-H ) :   0.9753

Dispersion correction           -0.013943928
FINAL SINGLE POINT ENERGY     -1339.859196854141

DIPOLE MOMENT
-------------
                                X             Y             Z
Electronic contribution:     10.08379      23.46348     -18.16823
Nuclear contribution   :    -10.02000     -23.97241      18.77263
                        -----------------------------------------
Total Dipole Moment    :      0.06379      -0.50893       0.60440
                        -----------------------------------------
Magnitude (a.u.)       :      0.79270
Magnitude (Debye)      :      2.01490

Rotational constants in cm-1:     0.020007     0.008224     0.006062
Rotational constants in MHz :   599.809344   246.538029   181.744313

                             ****ORCA TERMINATED NORMALLY****
TOTAL RUN TIME: 0 days 0 hours 0 minutes 21 seconds 530 msec
