                         Program Version 4.2.1 -  RELEASE  -
|  1> ! wB97X-D3 SP def2-SVP
|  2> %pal
|  3> nprocs 24
|  4> end
|  5>
|  6> * xyz 0 1
|  7> S 	 19.1556 	 1.19517 	 -112.847
|  8> C 	 18.411 	 -0.319001 	 -112.334
|  9> C 	 18.9641 	 -0.80277 	 -111.185
| 10> C 	 19.8399 	 0.141797 	 -110.592
| 11> C 	 19.9495 	 1.32926 	 -111.238
| 12> H 	 20.2967 	 -0.0383656 	 -109.551
| 13> C 	 18.621 	 -2.15933 	 -110.636
| 14> H 	 19.4471 	 -2.24765 	 -109.947
| 15> H 	 18.7934 	 -2.9541 	 -111.389
| 16> C 	 17.2624 	 -2.3886 	 -109.941
| 17> H 	 17.5163 	 -3.2196 	 -109.333
| 18> H 	 17.2163 	 -1.53049 	 -109.276
| 19> C 	 16.0568 	 -2.52792 	 -110.9
| 20> H 	 15.1742 	 -2.8217 	 -110.291
| 21> H 	 16.0005 	 -1.6335 	 -111.455
| 22> H 	 16.2772 	 -3.37545 	 -111.567
| 23> S 	 19.9297 	 4.04779 	 -111.123
| 24> C 	 21.0178 	 4.94019 	 -110.067
| 25> C 	 21.8156 	 3.99664 	 -109.396
| 26> C 	 21.6751 	 2.62267 	 -109.85
| 27> C 	 20.6229 	 2.47558 	 -110.69
| 28> H 	 22.4743 	 4.42216 	 -108.604
| 29> C 	 22.6345 	 1.54391 	 -109.386
| 30> H 	 22.2479 	 0.632853 	 -108.934
| 31> H 	 23.0334 	 1.93064 	 -108.517
| 32> C 	 23.742 	 1.3056 	 -110.418
| 33> H 	 24.3828 	 0.458579 	 -110.161
| 34> H 	 24.2671 	 2.27938 	 -110.549
| 35> C 	 23.3998 	 0.939972 	 -111.836
| 36> H 	 22.7621 	 1.75166 	 -112.212
| 37> H 	 22.8044 	 0.000740281 	 -111.965
| 38> H 	 24.3085 	 0.877583 	 -112.428
| 39> H 	 17.7191 	 -0.894202 	 -112.915
| 40> H 	 21.0022 	 6.03962 	 -110.018
| 41> *
| 42>
| 43>                          ****END OF INPUT****

CARTESIAN COORDINATES (ANGSTROEM)
---------------------------------
  S     19.155600    1.195170  -112.847000
  C     18.411000   -0.319001  -112.334000
  C     18.964100   -0.802770  -111.185000
  C     19.839900    0.141797  -110.592000
  C     19.949500    1.329260  -111.238000
  H     20.296700   -0.038366  -109.551000
  C     18.621000   -2.159330  -110.636000
  H     19.447100   -2.247650  -109.947000
  H     18.793400   -2.954100  -111.389000
  C     17.262400   -2.388600  -109.941000
  H     17.516300   -3.219600  -109.333000
  H     17.216300   -1.530490  -109.276000
  C     16.056800   -2.527920  -110.900000
  H     15.174200   -2.821700  -110.291000
  H     16.000500   -1.633500  -111.455000
  H     16.277200   -3.375450  -111.567000
  S     19.929700    4.047790  -111.123000
  C     21.017800    4.940190  -110.067000
  C     21.815600    3.996640  -109.396000
  C     21.675100    2.622670  -109.850000
  C     20.622900    2.475580  -110.690000
  H     22.474300    4.422160  -108.604000
  C     22.634500    1.543910  -109.386000
  H     22.247900    0.632853  -108.934000
  H     23.033400    1.930640  -108.517000
  C     23.742000    1.305600  -110.418000
  H     24.382800    0.458579  -110.161000
  H     24.267100    2.279380  -110.549000
  C     23.399800    0.939972  -111.836000
  H     22.762100    1.751660  -112.212000
  H     22.804400    0.000740  -111.965000
  H     24.308500    0.877583  -112.428000
  H     17.719100   -0.894202  -112.915000
  H     21.002200    6.039620  -110.018000

 Total Charge           Charge          ....    0
 Multiplicity           Mult            ....    1
 Number of Electrons    NEL             ....  134
 Basis Dimension        Dim             ....  322

ORBITAL ENERGIES
----------------

  NO   OCC          E(Eh)            E(eV)
   0   2.0000     -88.967545     -2420.9300
   1   2.0000     -88.960643     -2420.7422
   2   2.0000     -10.330444      -281.1057
   3   2.0000     -10.327315      -281.0205
   4   2.0000     -10.324862      -280.9538
   5   2.0000     -10.310770      -280.5703
   6   2.0000     -10.306421      -280.4520
   7   2.0000     -10.304636      -280.4034
   8   2.0000     -10.297196      -280.2009
   9   2.0000     -10.294961      -280.1401
  10   2.0000     -10.289464      -279.9905
  11   2.0000     -10.287677      -279.9419
  12   2.0000     -10.284899      -279.8663
  13   2.0000     -10.284029      -279.8427
  14   2.0000     -10.283884      -279.8387
  15   2.0000     -10.267885      -279.4033
  16   2.0000      -8.081191      -219.9004
  17   2.0000      -8.075366      -219.7419
  18   2.0000      -6.039905      -164.3542
  19   2.0000      -6.036019      -164.2484
  20   2.0000      -6.033901      -164.1908
  21   2.0000      -6.031615      -164.1286
  22   2.0000      -6.029778      -164.0786
  23   2.0000      -6.026174      -163.9805
  24   2.0000      -1.007372       -27.4120
  25   2.0000      -0.983535       -26.7633
  26   2.0000      -0.913110       -24.8470
  27   2.0000      -0.911549       -24.8045
  28   2.0000      -0.871162       -23.7055
  29   2.0000      -0.851801       -23.1787
  30   2.0000      -0.843990       -22.9661
  31   2.0000      -0.812740       -22.1158
  32   2.0000      -0.787983       -21.4421
  33   2.0000      -0.780920       -21.2499
  34   2.0000      -0.707637       -19.2558
  35   2.0000      -0.702636       -19.1197
  36   2.0000      -0.683841       -18.6083
  37   2.0000      -0.664521       -18.0825
  38   2.0000      -0.632964       -17.2238
  39   2.0000      -0.620927       -16.8963
  40   2.0000      -0.599958       -16.3257
  41   2.0000      -0.574572       -15.6349
  42   2.0000      -0.558052       -15.1854
  43   2.0000      -0.549659       -14.9570
  44   2.0000      -0.542228       -14.7548
  45   2.0000      -0.536491       -14.5987
  46   2.0000      -0.521056       -14.1787
  47   2.0000      -0.509734       -13.8706
  48   2.0000      -0.501707       -13.6521
  49   2.0000      -0.496970       -13.5232
  50   2.0000      -0.490303       -13.3418
  51   2.0000      -0.481991       -13.1156
  52   2.0000      -0.475890       -12.9496
  53   2.0000      -0.469552       -12.7771
  54   2.0000      -0.458254       -12.4697
  55   2.0000      -0.444984       -12.1086
  56   2.0000      -0.442991       -12.0544
  57   2.0000      -0.434625       -11.8268
  58   2.0000      -0.426905       -11.6167
  59   2.0000      -0.425418       -11.5762
  60   2.0000      -0.414131       -11.2691
  61   2.0000      -0.412121       -11.2144
  62   2.0000      -0.399618       -10.8742
  63   2.0000      -0.356604        -9.7037
  64   2.0000      -0.330627        -8.9968
  65   2.0000      -0.329625        -8.9695
  66   2.0000      -0.288169        -7.8415
  67   0.0000       0.019584         0.5329
  68   0.0000       0.076449         2.0803
  69   0.0000       0.097520         2.6537
  70   0.0000       0.117652         3.2015
  71   0.0000       0.138262         3.7623

MULLIKEN ATOMIC CHARGES
-----------------------
   0 S :    0.110242
   1 C :   -0.117293
   2 C :   -0.098808
   3 C :   -0.020237
   4 C :   -0.102801
   5 H :    0.036826
   6 C :    0.032253
   7 H :    0.004918
   8 H :    0.031101
   9 C :   -0.037681
  10 H :    0.024060
  11 H :    0.023577
  12 C :   -0.028742
  13 H :    0.052228
  14 H :    0.037718
  15 H :    0.027867
  16 S :    0.085686
  17 C :   -0.113112
  18 C :   -0.053906
  19 C :   -0.079579
  20 C :   -0.150466
  21 H :    0.039718
  22 C :    0.153175
  23 H :    0.016101
  24 H :   -0.014683
  25 C :   -0.079615
  26 H :    0.030846
  27 H :    0.031054
  28 C :   -0.065834
  29 H :    0.035625
  30 H :    0.037867
  31 H :    0.035767
  32 H :    0.039432
  33 H :    0.076696
Sum of atomic charges:    0.0000000

LOEWDIN ATOMIC CHARGES
----------------------
   0 S :    0.373961
   1 C :   -0.182247
   2 C :   -0.072326
   3 C :   -0.067508
   4 C :   -0.178011
   5 H :    0.043204
   6 C :   -0.036051
   7 H :    0.026918
   8 H :    0.030535
   9 C :   -0.034551
  10 H :    0.021095
  11 H :    0.024483
  12 C :   -0.058839
  13 H :    0.036558
  14 H :    0.021232
  15 H :    0.027330
  16 S :    0.386918
  17 C :   -0.187171
  18 C :   -0.074960
  19 C :   -0.061208
  20 C :   -0.179464
  21 H :    0.037973
  22 C :   -0.030244
  23 H :    0.027939
  24 H :    0.023665
  25 C :   -0.041351
  26 H :    0.025857
  27 H :    0.032230
  28 C :   -0.071459
  29 H :    0.023469
  30 H :    0.026109
  31 H :    0.026461
  32 H :    0.022141
  33 H :    0.037311

  Mayer bond orders larger than 0.100000
B(  0-S ,  1-C ) :   1.1173 B(  0-S ,  4-C ) :   1.1144 B(  1-C ,  2-C ) :   1.6286
B(  1-C , 32-H ) :   0.9648 B(  2-C ,  3-C ) :   1.2497 B(  2-C ,  6-C ) :   1.0128
B(  3-C ,  4-C ) :   1.5979 B(  3-C ,  5-H ) :   0.9706 B(  4-C , 20-C ) :   1.0931
B(  6-C ,  7-H ) :   0.9356 B(  6-C ,  8-H ) :   0.9356 B(  6-C ,  9-C ) :   1.0628
B(  9-C , 10-H ) :   0.9564 B(  9-C , 11-H ) :   0.9543 B(  9-C , 12-C ) :   1.0665
B( 12-C , 13-H ) :   0.9727 B( 12-C , 14-H ) :   0.9722 B( 12-C , 15-H ) :   0.9760
B( 16-S , 17-C ) :   1.1483 B( 16-S , 20-C ) :   1.1265 B( 17-C , 18-C ) :   1.6084
B( 17-C , 33-H ) :   0.9690 B( 18-C , 19-C ) :   1.2241 B( 18-C , 21-H ) :   0.9814
B( 19-C , 20-C ) :   1.6095 B( 19-C , 22-C ) :   1.0268 B( 22-C , 23-H ) :   0.9333
B( 22-C , 24-H ) :   0.9092 B( 22-C , 25-C ) :   1.0724 B( 25-C , 26-H ) :   0.9565
B( 25-C , 27-H ) :   0.9501 B( 25-C , 28-C ) :   1.0917 B( 28-C , 29-H ) :   0.9681
B( 28-C , 30-H ) :   0.9720 B( 28-C , 31-H ) :   0.9711

Dispersion correction           -0.015439553
FINAL SINGLE POINT ENERGY     -1339.862033248709

DIPOLE MOMENT
-------------
                                X             Y             Z
Electronic contribution:     -3.54010      20.22812      -7.06124
Nuclear contribution   :      3.74041     -20.68658       7.57338
                        -----------------------------------------
Total Dipole Moment    :      0.20031      -0.45846       0.51213
                        -----------------------------------------
Magnitude (a.u.)       :      0.71596
Magnitude (Debye)      :      1.81982

Rotational constants in cm-1:     0.022301     0.008194     0.007296
Rotational constants in MHz :   668.567421   245.652069   218.718729

                             ****ORCA TERMINATED NORMALLY****
TOTAL RUN TIME: 0 days 0 hours 0 minutes 22 seconds 420 msec
