                         Program Version 4.2.1 -  RELEASE  -
|  1> ! wB97X-D3 SP def2-SVP
|  2> %pal
|  3> nprocs 24
|  4> end
|  5>
|  6> * xyz 0 1
|  7> S 	 -93.3679 	 42.7797 	 -93.1979
|  8> C 	 -93.3284 	 41.1919 	 -92.3768
|  9> C 	 -94.4169 	 41.0804 	 -91.4672
| 10> C 	 -95.3607 	 42.1637 	 -91.6699
| 11> C 	 -94.9634 	 43.1702 	 -92.5851
| 12> H 	 -96.3092 	 42.1956 	 -91.18
| 13> C 	 -94.7694 	 39.9524 	 -90.5465
| 14> H 	 -94.3843 	 39.0635 	 -91.0199
| 15> H 	 -95.8614 	 39.8434 	 -90.5526
| 16> C 	 -94.2732 	 39.958 	 -89.1408
| 17> H 	 -94.698 	 40.7392 	 -88.4581
| 18> H 	 -94.5343 	 39.0711 	 -88.5777
| 19> C 	 -92.7095 	 40.1363 	 -89.1074
| 20> H 	 -92.359 	 40.4481 	 -88.1475
| 21> H 	 -92.1602 	 39.2155 	 -89.4353
| 22> H 	 -92.3938 	 40.9116 	 -89.8605
| 23> S 	 -96.8636 	 44.9337 	 -91.7146
| 24> C 	 -97.1801 	 46.3848 	 -92.5881
| 25> C 	 -96.3273 	 46.5481 	 -93.6185
| 26> C 	 -95.4595 	 45.4228 	 -93.7827
| 27> C 	 -95.6223 	 44.4295 	 -92.8824
| 28> H 	 -96.4401 	 47.4897 	 -94.1896
| 29> C 	 -94.7324 	 45.2765 	 -95.112
| 30> H 	 -93.7 	 44.8366 	 -94.8925
| 31> H 	 -94.4001 	 46.2143 	 -95.5533
| 32> C 	 -95.4385 	 44.3892 	 -96.1561
| 33> H 	 -96.3374 	 44.919 	 -96.5012
| 34> H 	 -95.8601 	 43.5695 	 -95.6416
| 35> C 	 -94.556 	 43.9252 	 -97.2574
| 36> H 	 -94.3741 	 44.7213 	 -98
| 37> H 	 -94.8732 	 42.9738 	 -97.6887
| 38> H 	 -93.5798 	 43.7428 	 -96.8164
| 39> H 	 -92.5217 	 40.4854 	 -92.3795
| 40> H 	 -97.9045 	 47.0617 	 -92.3168
| 41> *
| 42>
| 43>                          ****END OF INPUT****

CARTESIAN COORDINATES (ANGSTROEM)
---------------------------------
  S    -93.367900   42.779700  -93.197900
  C    -93.328400   41.191900  -92.376800
  C    -94.416900   41.080400  -91.467200
  C    -95.360700   42.163700  -91.669900
  C    -94.963400   43.170200  -92.585100
  H    -96.309200   42.195600  -91.180000
  C    -94.769400   39.952400  -90.546500
  H    -94.384300   39.063500  -91.019900
  H    -95.861400   39.843400  -90.552600
  C    -94.273200   39.958000  -89.140800
  H    -94.698000   40.739200  -88.458100
  H    -94.534300   39.071100  -88.577700
  C    -92.709500   40.136300  -89.107400
  H    -92.359000   40.448100  -88.147500
  H    -92.160200   39.215500  -89.435300
  H    -92.393800   40.911600  -89.860500
  S    -96.863600   44.933700  -91.714600
  C    -97.180100   46.384800  -92.588100
  C    -96.327300   46.548100  -93.618500
  C    -95.459500   45.422800  -93.782700
  C    -95.622300   44.429500  -92.882400
  H    -96.440100   47.489700  -94.189600
  C    -94.732400   45.276500  -95.112000
  H    -93.700000   44.836600  -94.892500
  H    -94.400100   46.214300  -95.553300
  C    -95.438500   44.389200  -96.156100
  H    -96.337400   44.919000  -96.501200
  H    -95.860100   43.569500  -95.641600
  C    -94.556000   43.925200  -97.257400
  H    -94.374100   44.721300  -98.000000
  H    -94.873200   42.973800  -97.688700
  H    -93.579800   43.742800  -96.816400
  H    -92.521700   40.485400  -92.379500
  H    -97.904500   47.061700  -92.316800

 Total Charge           Charge          ....    0
 Multiplicity           Mult            ....    1
 Number of Electrons    NEL             ....  134
 Basis Dimension        Dim             ....  322

ORBITAL ENERGIES
----------------

  NO   OCC          E(Eh)            E(eV)
   0   2.0000     -88.972207     -2421.0568
   1   2.0000     -88.961936     -2420.7774
   2   2.0000     -10.339138      -281.3423
   3   2.0000     -10.329806      -281.0883
   4   2.0000     -10.322718      -280.8954
   5   2.0000     -10.309877      -280.5460
   6   2.0000     -10.308874      -280.5187
   7   2.0000     -10.302994      -280.3587
   8   2.0000     -10.297849      -280.2187
   9   2.0000     -10.292848      -280.0826
  10   2.0000     -10.292562      -280.0749
  11   2.0000     -10.291963      -280.0586
  12   2.0000     -10.289904      -280.0025
  13   2.0000     -10.278974      -279.7051
  14   2.0000     -10.275547      -279.6119
  15   2.0000     -10.272201      -279.5208
  16   2.0000      -8.085373      -220.0142
  17   2.0000      -8.077261      -219.7934
  18   2.0000      -6.044074      -164.4676
  19   2.0000      -6.040018      -164.3573
  20   2.0000      -6.036103      -164.2507
  21   2.0000      -6.035847      -164.2438
  22   2.0000      -6.031735      -164.1319
  23   2.0000      -6.027857      -164.0263
  24   2.0000      -1.010254       -27.4904
  25   2.0000      -0.981686       -26.7130
  26   2.0000      -0.917017       -24.9533
  27   2.0000      -0.909618       -24.7520
  28   2.0000      -0.871657       -23.7190
  29   2.0000      -0.854411       -23.2497
  30   2.0000      -0.842231       -22.9183
  31   2.0000      -0.811167       -22.0730
  32   2.0000      -0.782895       -21.3037
  33   2.0000      -0.773547       -21.0493
  34   2.0000      -0.712880       -19.3984
  35   2.0000      -0.701854       -19.0984
  36   2.0000      -0.694589       -18.9007
  37   2.0000      -0.671474       -18.2717
  38   2.0000      -0.634164       -17.2565
  39   2.0000      -0.619063       -16.8456
  40   2.0000      -0.598725       -16.2921
  41   2.0000      -0.570787       -15.5319
  42   2.0000      -0.560987       -15.2652
  43   2.0000      -0.556034       -15.1305
  44   2.0000      -0.542241       -14.7551
  45   2.0000      -0.524510       -14.2726
  46   2.0000      -0.524239       -14.2653
  47   2.0000      -0.517268       -14.0756
  48   2.0000      -0.510823       -13.9002
  49   2.0000      -0.494133       -13.4460
  50   2.0000      -0.488248       -13.2859
  51   2.0000      -0.479858       -13.0576
  52   2.0000      -0.471257       -12.8235
  53   2.0000      -0.462979       -12.5983
  54   2.0000      -0.456353       -12.4180
  55   2.0000      -0.450747       -12.2655
  56   2.0000      -0.447175       -12.1683
  57   2.0000      -0.432561       -11.7706
  58   2.0000      -0.429273       -11.6811
  59   2.0000      -0.422265       -11.4904
  60   2.0000      -0.416710       -11.3393
  61   2.0000      -0.412810       -11.2331
  62   2.0000      -0.403842       -10.9891
  63   2.0000      -0.362976        -9.8771
  64   2.0000      -0.334160        -9.0930
  65   2.0000      -0.328813        -8.9475
  66   2.0000      -0.284661        -7.7460
  67   0.0000       0.014334         0.3901
  68   0.0000       0.081432         2.2159
  69   0.0000       0.108327         2.9477
  70   0.0000       0.115671         3.1476
  71   0.0000       0.125438         3.4134

MULLIKEN ATOMIC CHARGES
-----------------------
   0 S :    0.096250
   1 C :   -0.095655
   2 C :   -0.107724
   3 C :   -0.006219
   4 C :   -0.098737
   5 H :    0.010080
   6 C :    0.078366
   7 H :    0.019652
   8 H :    0.031297
   9 C :   -0.054123
  10 H :    0.031083
  11 H :    0.029652
  12 C :   -0.094015
  13 H :    0.031300
  14 H :    0.030583
  15 H :    0.046323
  16 S :    0.076646
  17 C :   -0.048716
  18 C :   -0.038926
  19 C :   -0.052285
  20 C :   -0.101900
  21 H :    0.032395
  22 C :   -0.008577
  23 H :    0.024469
  24 H :    0.015478
  25 C :   -0.015473
  26 H :    0.020182
  27 H :    0.012905
  28 C :   -0.023759
  29 H :    0.033293
  30 H :    0.038997
  31 H :    0.017051
  32 H :    0.045675
  33 H :    0.024436
Sum of atomic charges:   -0.0000000

LOEWDIN ATOMIC CHARGES
----------------------
   0 S :    0.407809
   1 C :   -0.190338
   2 C :   -0.051693
   3 C :   -0.068018
   4 C :   -0.186733
   5 H :    0.020989
   6 C :   -0.036408
   7 H :    0.033196
   8 H :    0.035956
   9 C :   -0.042976
  10 H :    0.027998
  11 H :    0.025140
  12 C :   -0.073532
  13 H :    0.019668
  14 H :    0.024646
  15 H :    0.030850
  16 S :    0.400084
  17 C :   -0.168237
  18 C :   -0.074296
  19 C :   -0.064436
  20 C :   -0.180231
  21 H :    0.042023
  22 C :   -0.039952
  23 H :    0.021049
  24 H :    0.025453
  25 C :   -0.040839
  26 H :    0.025197
  27 H :    0.020326
  28 C :   -0.063742
  29 H :    0.027647
  30 H :    0.030670
  31 H :    0.024516
  32 H :    0.024084
  33 H :    0.014129

  Mayer bond orders larger than 0.100000
B(  0-S ,  1-C ) :   1.1311 B(  0-S ,  4-C ) :   1.1435 B(  1-C ,  2-C ) :   1.5810
B(  1-C , 32-H ) :   0.9680 B(  2-C ,  3-C ) :   1.2672 B(  2-C ,  6-C ) :   1.0259
B(  3-C ,  4-C ) :   1.5275 B(  3-C ,  5-H ) :   0.9850 B(  4-C , 20-C ) :   1.1077
B(  6-C ,  7-H ) :   0.9370 B(  6-C ,  8-H ) :   0.9406 B(  6-C ,  9-C ) :   1.0761
B(  9-C , 10-H ) :   0.9553 B(  9-C , 11-H ) :   0.9540 B(  9-C , 12-C ) :   1.0653
B( 12-C , 13-H ) :   0.9764 B( 12-C , 14-H ) :   0.9763 B( 12-C , 15-H ) :   0.9736
B( 16-S , 17-C ) :   1.1520 B( 16-S , 20-C ) :   1.1106 B( 17-C , 18-C ) :   1.6390
B( 17-C , 33-H ) :   0.9749 B( 18-C , 19-C ) :   1.2081 B( 18-C , 21-H ) :   0.9924
B( 19-C , 20-C ) :   1.6103 B( 19-C , 22-C ) :   1.0590 B( 22-C , 23-H ) :   0.9306
B( 22-C , 24-H ) :   0.9340 B( 22-C , 25-C ) :   1.0524 B( 25-C , 26-H ) :   0.9480
B( 25-C , 27-H ) :   0.9528 B( 25-C , 28-C ) :   1.0847 B( 28-C , 29-H ) :   0.9733
B( 28-C , 30-H ) :   0.9718 B( 28-C , 31-H ) :   0.9726

Dispersion correction           -0.014489428
FINAL SINGLE POINT ENERGY     -1339.878065358911

DIPOLE MOMENT
-------------
                                X             Y             Z
Electronic contribution:     -6.30821      10.94361       2.94259
Nuclear contribution   :      6.17119     -11.03506      -2.94110
                        -----------------------------------------
Total Dipole Moment    :     -0.13702      -0.09145       0.00149
                        -----------------------------------------
Magnitude (a.u.)       :      0.16474
Magnitude (Debye)      :      0.41874

Rotational constants in cm-1:     0.021772     0.008334     0.006516
Rotational constants in MHz :   652.722759   249.861470   195.357388

                             ****ORCA TERMINATED NORMALLY****
TOTAL RUN TIME: 0 days 0 hours 0 minutes 22 seconds 561 msec
