                         Program Version 4.2.1 -  RELEASE  -
|  1> ! wB97X-D3 SP def2-SVP
|  2> %pal
|  3> nprocs 24
|  4> end
|  5>
|  6> * xyz 0 1
|  7> S 	 -134.206 	 66.9726 	 -58.6835
|  8> C 	 -133.512 	 65.4961 	 -57.9577
|  9> C 	 -134.463 	 64.6694 	 -57.41
| 10> C 	 -135.787 	 65.3054 	 -57.4495
| 11> C 	 -135.788 	 66.4843 	 -58.1563
| 12> H 	 -136.736 	 65.064 	 -57.0178
| 13> C 	 -134.273 	 63.309 	 -56.7772
| 14> H 	 -133.301 	 62.9958 	 -57.0115
| 15> H 	 -134.979 	 62.6477 	 -57.2551
| 16> C 	 -134.419 	 63.2535 	 -55.2983
| 17> H 	 -135.395 	 63.663 	 -54.9996
| 18> H 	 -134.505 	 62.2138 	 -54.8961
| 19> C 	 -133.236 	 63.999 	 -54.6475
| 20> H 	 -132.38 	 63.4314 	 -54.9292
| 21> H 	 -133.123 	 65.0518 	 -54.8803
| 22> H 	 -133.344 	 64.0446 	 -53.5903
| 23> S 	 -136.698 	 69.0134 	 -58.1452
| 24> C 	 -138.375 	 69.3781 	 -58.3455
| 25> C 	 -139.134 	 68.2092 	 -58.6451
| 26> C 	 -138.321 	 67.0409 	 -58.7618
| 27> C 	 -136.978 	 67.2661 	 -58.438
| 28> H 	 -140.196 	 68.1382 	 -58.7505
| 29> C 	 -138.928 	 65.7107 	 -59.0101
| 30> H 	 -140.043 	 65.8624 	 -59.1401
| 31> H 	 -138.794 	 65.073 	 -58.1274
| 32> C 	 -138.398 	 65.1055 	 -60.3207
| 33> H 	 -137.376 	 65.0037 	 -60.3817
| 34> H 	 -138.634 	 65.814 	 -61.139
| 35> C 	 -139.127 	 63.7446 	 -60.5268
| 36> H 	 -140.129 	 63.8791 	 -60.662
| 37> H 	 -138.903 	 62.9564 	 -59.7405
| 38> H 	 -138.713 	 63.3516 	 -61.4685
| 39> H 	 -132.464 	 65.3299 	 -58.0076
| 40> H 	 -138.817 	 70.3255 	 -58.3271
| 41> *
| 42>
| 43>                          ****END OF INPUT****

CARTESIAN COORDINATES (ANGSTROEM)
---------------------------------
  S    -134.206000   66.972600  -58.683500
  C    -133.512000   65.496100  -57.957700
  C    -134.463000   64.669400  -57.410000
  C    -135.787000   65.305400  -57.449500
  C    -135.788000   66.484300  -58.156300
  H    -136.736000   65.064000  -57.017800
  C    -134.273000   63.309000  -56.777200
  H    -133.301000   62.995800  -57.011500
  H    -134.979000   62.647700  -57.255100
  C    -134.419000   63.253500  -55.298300
  H    -135.395000   63.663000  -54.999600
  H    -134.505000   62.213800  -54.896100
  C    -133.236000   63.999000  -54.647500
  H    -132.380000   63.431400  -54.929200
  H    -133.123000   65.051800  -54.880300
  H    -133.344000   64.044600  -53.590300
  S    -136.698000   69.013400  -58.145200
  C    -138.375000   69.378100  -58.345500
  C    -139.134000   68.209200  -58.645100
  C    -138.321000   67.040900  -58.761800
  C    -136.978000   67.266100  -58.438000
  H    -140.196000   68.138200  -58.750500
  C    -138.928000   65.710700  -59.010100
  H    -140.043000   65.862400  -59.140100
  H    -138.794000   65.073000  -58.127400
  C    -138.398000   65.105500  -60.320700
  H    -137.376000   65.003700  -60.381700
  H    -138.634000   65.814000  -61.139000
  C    -139.127000   63.744600  -60.526800
  H    -140.129000   63.879100  -60.662000
  H    -138.903000   62.956400  -59.740500
  H    -138.713000   63.351600  -61.468500
  H    -132.464000   65.329900  -58.007600
  H    -138.817000   70.325500  -58.327100

 Total Charge           Charge          ....    0
 Multiplicity           Mult            ....    1
 Number of Electrons    NEL             ....  134
 Basis Dimension        Dim             ....  322

ORBITAL ENERGIES
----------------

  NO   OCC          E(Eh)            E(eV)
   0   2.0000     -88.965370     -2420.8708
   1   2.0000     -88.964626     -2420.8506
   2   2.0000     -10.327113      -281.0150
   3   2.0000     -10.326928      -281.0100
   4   2.0000     -10.318041      -280.7682
   5   2.0000     -10.315327      -280.6943
   6   2.0000     -10.307500      -280.4813
   7   2.0000     -10.302178      -280.3365
   8   2.0000     -10.295848      -280.1643
   9   2.0000     -10.293736      -280.1068
  10   2.0000     -10.292359      -280.0693
  11   2.0000     -10.287867      -279.9471
  12   2.0000     -10.284816      -279.8641
  13   2.0000     -10.281125      -279.7636
  14   2.0000     -10.275297      -279.6050
  15   2.0000     -10.269785      -279.4551
  16   2.0000      -8.079823      -219.8632
  17   2.0000      -8.079331      -219.8498
  18   2.0000      -6.038293      -164.3103
  19   2.0000      -6.037953      -164.3010
  20   2.0000      -6.034223      -164.1996
  21   2.0000      -6.033972      -164.1927
  22   2.0000      -6.030783      -164.1059
  23   2.0000      -6.029850      -164.0806
  24   2.0000      -1.003676       -27.3114
  25   2.0000      -0.978571       -26.6283
  26   2.0000      -0.920635       -25.0518
  27   2.0000      -0.911381       -24.7999
  28   2.0000      -0.867224       -23.5984
  29   2.0000      -0.852784       -23.2054
  30   2.0000      -0.842505       -22.9257
  31   2.0000      -0.809771       -22.0350
  32   2.0000      -0.784605       -21.3502
  33   2.0000      -0.771861       -21.0034
  34   2.0000      -0.711120       -19.3506
  35   2.0000      -0.703535       -19.1441
  36   2.0000      -0.692147       -18.8343
  37   2.0000      -0.669326       -18.2133
  38   2.0000      -0.647759       -17.6264
  39   2.0000      -0.617999       -16.8166
  40   2.0000      -0.594797       -16.1852
  41   2.0000      -0.569317       -15.4919
  42   2.0000      -0.564145       -15.3512
  43   2.0000      -0.560440       -15.2504
  44   2.0000      -0.539547       -14.6818
  45   2.0000      -0.521819       -14.1994
  46   2.0000      -0.520283       -14.1576
  47   2.0000      -0.509129       -13.8541
  48   2.0000      -0.503357       -13.6971
  49   2.0000      -0.498719       -13.5708
  50   2.0000      -0.490676       -13.3520
  51   2.0000      -0.487407       -13.2630
  52   2.0000      -0.470091       -12.7918
  53   2.0000      -0.461371       -12.5545
  54   2.0000      -0.456845       -12.4314
  55   2.0000      -0.453879       -12.3507
  56   2.0000      -0.448733       -12.2107
  57   2.0000      -0.439936       -11.9713
  58   2.0000      -0.431170       -11.7327
  59   2.0000      -0.427314       -11.6278
  60   2.0000      -0.421589       -11.4720
  61   2.0000      -0.415204       -11.2983
  62   2.0000      -0.410819       -11.1790
  63   2.0000      -0.346140        -9.4190
  64   2.0000      -0.330822        -9.0021
  65   2.0000      -0.329628        -8.9696
  66   2.0000      -0.287247        -7.8164
  67   0.0000       0.026043         0.7087
  68   0.0000       0.072997         1.9863
  69   0.0000       0.101233         2.7547
  70   0.0000       0.113311         3.0833
  71   0.0000       0.138016         3.7556

MULLIKEN ATOMIC CHARGES
-----------------------
   0 S :    0.097995
   1 C :   -0.119284
   2 C :   -0.083266
   3 C :    0.009373
   4 C :   -0.125039
   5 H :    0.002268
   6 C :    0.143359
   7 H :   -0.008975
   8 H :    0.027408
   9 C :   -0.082421
  10 H :    0.020761
  11 H :    0.033896
  12 C :   -0.035640
  13 H :    0.022120
  14 H :    0.042542
  15 H :    0.021943
  16 S :    0.097113
  17 C :   -0.057862
  18 C :   -0.036756
  19 C :   -0.041747
  20 C :   -0.153988
  21 H :    0.010547
  22 C :    0.031453
  23 H :    0.019996
  24 H :    0.038161
  25 C :   -0.069784
  26 H :    0.027686
  27 H :    0.030884
  28 C :   -0.024174
  29 H :    0.014535
  30 H :    0.041819
  31 H :    0.026708
  32 H :    0.037202
  33 H :    0.041168
Sum of atomic charges:   -0.0000000

LOEWDIN ATOMIC CHARGES
----------------------
   0 S :    0.382272
   1 C :   -0.179612
   2 C :   -0.048065
   3 C :   -0.064887
   4 C :   -0.197297
   5 H :    0.027676
   6 C :   -0.026015
   7 H :    0.019722
   8 H :    0.032885
   9 C :   -0.040968
  10 H :    0.020001
  11 H :    0.029771
  12 C :   -0.060064
  13 H :    0.021308
  14 H :    0.029183
  15 H :    0.022094
  16 S :    0.405478
  17 C :   -0.182474
  18 C :   -0.068866
  19 C :   -0.057486
  20 C :   -0.185463
  21 H :    0.026370
  22 C :   -0.034799
  23 H :    0.034385
  24 H :    0.028860
  25 C :   -0.027250
  26 H :    0.013588
  27 H :    0.031615
  28 C :   -0.059881
  29 H :    0.008862
  30 H :    0.032825
  31 H :    0.027642
  32 H :    0.019984
  33 H :    0.018607

  Mayer bond orders larger than 0.100000
B(  0-S ,  1-C ) :   1.1083 B(  0-S ,  4-C ) :   1.1344 B(  1-C ,  2-C ) :   1.6515
B(  1-C , 32-H ) :   0.9741 B(  2-C ,  3-C ) :   1.1620 B(  2-C ,  6-C ) :   1.0258
B(  3-C ,  4-C ) :   1.6243 B(  3-C ,  5-H ) :   0.9957 B(  4-C , 20-C ) :   1.0442
B(  6-C ,  7-H ) :   0.9337 B(  6-C ,  8-H ) :   0.9295 B(  6-C ,  9-C ) :   1.0810
B(  9-C , 10-H ) :   0.9540 B(  9-C , 11-H ) :   0.9537 B(  9-C , 12-C ) :   1.0660
B( 12-C , 13-H ) :   0.9766 B( 12-C , 14-H ) :   0.9763 B( 12-C , 15-H ) :   0.9720
B( 16-S , 17-C ) :   1.1803 B( 16-S , 20-C ) :   1.1302 B( 17-C , 18-C ) :   1.5545
B( 17-C , 20-C ) :   0.1098 B( 17-C , 33-H ) :   0.9754 B( 18-C , 19-C ) :   1.2845
B( 18-C , 21-H ) :   0.9882 B( 19-C , 20-C ) :   1.5644 B( 19-C , 22-C ) :   1.0450
B( 22-C , 23-H ) :   0.9336 B( 22-C , 24-H ) :   0.9385 B( 22-C , 25-C ) :   1.0540
B( 25-C , 26-H ) :   0.9641 B( 25-C , 27-H ) :   0.9505 B( 25-C , 28-C ) :   1.0831
B( 28-C , 29-H ) :   0.9751 B( 28-C , 30-H ) :   0.9748 B( 28-C , 31-H ) :   0.9735

Dispersion correction           -0.014505238
FINAL SINGLE POINT ENERGY     -1339.874202970792

DIPOLE MOMENT
-------------
                                X             Y             Z
Electronic contribution:      5.18340      24.24744      -4.64889
Nuclear contribution   :     -5.51157     -24.79894       4.80271
                        -----------------------------------------
Total Dipole Moment    :     -0.32816      -0.55150       0.15382
                        -----------------------------------------
Magnitude (a.u.)       :      0.65993
Magnitude (Debye)      :      1.67740

Rotational constants in cm-1:     0.018038     0.009066     0.007198
Rotational constants in MHz :   540.773114   271.795987   215.796388

                             ****ORCA TERMINATED NORMALLY****
TOTAL RUN TIME: 0 days 0 hours 0 minutes 22 seconds 159 msec
