                         Program Version 4.2.1 -  RELEASE  -
|  1> ! wB97X-D3 SP def2-SVP
|  2> %pal
|  3> nprocs 24
|  4> end
|  5>
|  6> * xyz 0 1
|  7> S 	 -47.5742 	 13.1935 	 -19.9556
|  8> C 	 -48.1865 	 12.1957 	 -18.705
|  9> C 	 -48.3205 	 12.8965 	 -17.5162
| 10> C 	 -47.7866 	 14.2298 	 -17.6309
| 11> C 	 -47.1832 	 14.4777 	 -18.8138
| 12> H 	 -47.8841 	 15.0159 	 -16.9579
| 13> C 	 -49.0852 	 12.3144 	 -16.3406
| 14> H 	 -48.71 	 11.2812 	 -16.2731
| 15> H 	 -50.1503 	 12.2843 	 -16.6757
| 16> C 	 -48.9563 	 13.0399 	 -14.9588
| 17> H 	 -47.9114 	 13.3411 	 -14.7345
| 18> H 	 -49.4757 	 14.0084 	 -14.9171
| 19> C 	 -49.5508 	 12.2474 	 -13.7107
| 20> H 	 -50.5905 	 12.0154 	 -13.7991
| 21> H 	 -48.9943 	 11.3832 	 -13.5287
| 22> H 	 -49.3515 	 12.6473 	 -12.7269
| 23> S 	 -46.5228 	 16.2477 	 -20.7926
| 24> C 	 -45.3202 	 17.3672 	 -20.4146
| 25> C 	 -44.5912 	 17.061 	 -19.2873
| 26> C 	 -45.1978 	 16.0485 	 -18.5394
| 27> C 	 -46.3281 	 15.5738 	 -19.1672
| 28> H 	 -43.6954 	 17.6666 	 -19.0347
| 29> C 	 -44.7034 	 15.618 	 -17.1439
| 30> H 	 -45.5001 	 15.6786 	 -16.4032
| 31> H 	 -43.9421 	 16.4203 	 -16.8258
| 32> C 	 -43.9696 	 14.212 	 -17.102
| 33> H 	 -44.5034 	 13.389 	 -17.5353
| 34> H 	 -43.8484 	 14.0538 	 -16.0299
| 35> C 	 -42.5696 	 14.1206 	 -17.7214
| 36> H 	 -41.7741 	 14.9044 	 -17.4253
| 37> H 	 -42.6681 	 14.1229 	 -18.7801
| 38> H 	 -42.1296 	 13.1639 	 -17.4953
| 39> H 	 -48.3917 	 11.1215 	 -18.8393
| 40> H 	 -45.0763 	 18.2085 	 -21.0808
| 41> *
| 42>
| 43>                          ****END OF INPUT****

CARTESIAN COORDINATES (ANGSTROEM)
---------------------------------
  S    -47.574200   13.193500  -19.955600
  C    -48.186500   12.195700  -18.705000
  C    -48.320500   12.896500  -17.516200
  C    -47.786600   14.229800  -17.630900
  C    -47.183200   14.477700  -18.813800
  H    -47.884100   15.015900  -16.957900
  C    -49.085200   12.314400  -16.340600
  H    -48.710000   11.281200  -16.273100
  H    -50.150300   12.284300  -16.675700
  C    -48.956300   13.039900  -14.958800
  H    -47.911400   13.341100  -14.734500
  H    -49.475700   14.008400  -14.917100
  C    -49.550800   12.247400  -13.710700
  H    -50.590500   12.015400  -13.799100
  H    -48.994300   11.383200  -13.528700
  H    -49.351500   12.647300  -12.726900
  S    -46.522800   16.247700  -20.792600
  C    -45.320200   17.367200  -20.414600
  C    -44.591200   17.061000  -19.287300
  C    -45.197800   16.048500  -18.539400
  C    -46.328100   15.573800  -19.167200
  H    -43.695400   17.666600  -19.034700
  C    -44.703400   15.618000  -17.143900
  H    -45.500100   15.678600  -16.403200
  H    -43.942100   16.420300  -16.825800
  C    -43.969600   14.212000  -17.102000
  H    -44.503400   13.389000  -17.535300
  H    -43.848400   14.053800  -16.029900
  C    -42.569600   14.120600  -17.721400
  H    -41.774100   14.904400  -17.425300
  H    -42.668100   14.122900  -18.780100
  H    -42.129600   13.163900  -17.495300
  H    -48.391700   11.121500  -18.839300
  H    -45.076300   18.208500  -21.080800

 Total Charge           Charge          ....    0
 Multiplicity           Mult            ....    1
 Number of Electrons    NEL             ....  134
 Basis Dimension        Dim             ....  322

ORBITAL ENERGIES
----------------

  NO   OCC          E(Eh)            E(eV)
   0   2.0000     -88.965633     -2420.8780
   1   2.0000     -88.960316     -2420.7333
   2   2.0000     -10.321390      -280.8593
   3   2.0000     -10.320717      -280.8410
   4   2.0000     -10.313125      -280.6344
   5   2.0000     -10.308898      -280.5194
   6   2.0000     -10.303360      -280.3687
   7   2.0000     -10.301732      -280.3244
   8   2.0000     -10.300850      -280.3004
   9   2.0000     -10.300381      -280.2876
  10   2.0000     -10.297850      -280.2187
  11   2.0000     -10.291964      -280.0586
  12   2.0000     -10.285799      -279.8908
  13   2.0000     -10.284080      -279.8440
  14   2.0000     -10.275688      -279.6157
  15   2.0000     -10.274472      -279.5826
  16   2.0000      -8.081719      -219.9147
  17   2.0000      -8.075935      -219.7574
  18   2.0000      -6.039858      -164.3529
  19   2.0000      -6.036348      -164.2574
  20   2.0000      -6.034455      -164.2059
  21   2.0000      -6.032489      -164.1524
  22   2.0000      -6.030448      -164.0968
  23   2.0000      -6.026511      -163.9897
  24   2.0000      -1.013722       -27.5848
  25   2.0000      -0.989820       -26.9344
  26   2.0000      -0.901872       -24.5412
  27   2.0000      -0.900531       -24.5047
  28   2.0000      -0.869926       -23.6719
  29   2.0000      -0.855123       -23.2691
  30   2.0000      -0.844288       -22.9742
  31   2.0000      -0.815896       -22.2017
  32   2.0000      -0.784685       -21.3524
  33   2.0000      -0.769600       -20.9419
  34   2.0000      -0.714716       -19.4484
  35   2.0000      -0.696991       -18.9661
  36   2.0000      -0.684627       -18.6297
  37   2.0000      -0.659862       -17.9558
  38   2.0000      -0.642451       -17.4820
  39   2.0000      -0.619068       -16.8457
  40   2.0000      -0.594657       -16.1815
  41   2.0000      -0.564986       -15.3741
  42   2.0000      -0.556084       -15.1318
  43   2.0000      -0.544644       -14.8205
  44   2.0000      -0.540237       -14.7006
  45   2.0000      -0.523601       -14.2479
  46   2.0000      -0.517545       -14.0831
  47   2.0000      -0.511373       -13.9152
  48   2.0000      -0.499213       -13.5843
  49   2.0000      -0.497393       -13.5348
  50   2.0000      -0.485083       -13.1998
  51   2.0000      -0.477551       -12.9948
  52   2.0000      -0.470550       -12.8043
  53   2.0000      -0.468783       -12.7562
  54   2.0000      -0.458617       -12.4796
  55   2.0000      -0.453668       -12.3449
  56   2.0000      -0.444689       -12.1006
  57   2.0000      -0.436728       -11.8840
  58   2.0000      -0.433639       -11.7999
  59   2.0000      -0.423555       -11.5255
  60   2.0000      -0.419696       -11.4205
  61   2.0000      -0.417931       -11.3725
  62   2.0000      -0.411635       -11.2011
  63   2.0000      -0.351322        -9.5600
  64   2.0000      -0.336291        -9.1509
  65   2.0000      -0.325481        -8.8568
  66   2.0000      -0.279873        -7.6157
  67   0.0000       0.028804         0.7838
  68   0.0000       0.063975         1.7408
  69   0.0000       0.107379         2.9219
  70   0.0000       0.123440         3.3590
  71   0.0000       0.134204         3.6519

MULLIKEN ATOMIC CHARGES
-----------------------
   0 S :    0.102557
   1 C :   -0.145425
   2 C :   -0.085927
   3 C :    0.019914
   4 C :   -0.117177
   5 H :   -0.008577
   6 C :    0.057061
   7 H :    0.035972
   8 H :    0.057421
   9 C :   -0.105119
  10 H :    0.032079
  11 H :    0.037194
  12 C :   -0.024070
  13 H :    0.036845
  14 H :    0.008315
  15 H :    0.019946
  16 S :    0.113525
  17 C :   -0.093103
  18 C :   -0.054521
  19 C :   -0.015220
  20 C :   -0.177025
  21 H :    0.029801
  22 C :    0.051143
  23 H :    0.034755
  24 H :    0.027545
  25 C :   -0.054995
  26 H :    0.044807
  27 H :    0.027000
  28 C :   -0.069916
  29 H :    0.036507
  30 H :    0.031588
  31 H :    0.027876
  32 H :    0.058475
  33 H :    0.060749
Sum of atomic charges:   -0.0000000

LOEWDIN ATOMIC CHARGES
----------------------
   0 S :    0.400026
   1 C :   -0.216779
   2 C :   -0.062812
   3 C :   -0.066655
   4 C :   -0.182163
   5 H :    0.021215
   6 C :   -0.036140
   7 H :    0.036319
   8 H :    0.042592
   9 C :   -0.045486
  10 H :    0.026057
  11 H :    0.025236
  12 C :   -0.067676
  13 H :    0.023210
  14 H :    0.017596
  15 H :    0.029404
  16 S :    0.420458
  17 C :   -0.199338
  18 C :   -0.080325
  19 C :   -0.055759
  20 C :   -0.193871
  21 H :    0.039217
  22 C :   -0.027607
  23 H :    0.028686
  24 H :    0.037795
  25 C :   -0.034019
  26 H :    0.028406
  27 H :    0.023833
  28 C :   -0.071632
  29 H :    0.030037
  30 H :    0.020457
  31 H :    0.024978
  32 H :    0.033581
  33 H :    0.031157

  Mayer bond orders larger than 0.100000
B(  0-S ,  1-C ) :   1.1402 B(  0-S ,  4-C ) :   1.1340 B(  1-C ,  2-C ) :   1.6136
B(  1-C , 32-H ) :   0.9701 B(  2-C ,  3-C ) :   1.2180 B(  2-C ,  6-C ) :   1.0096
B(  3-C ,  4-C ) :   1.5874 B(  3-C ,  5-H ) :   1.0129 B(  4-C , 20-C ) :   1.0608
B(  6-C ,  7-H ) :   0.9434 B(  6-C ,  8-H ) :   0.9395 B(  6-C ,  9-C ) :   1.0629
B(  9-C , 10-H ) :   0.9605 B(  9-C , 11-H ) :   0.9535 B(  9-C , 12-C ) :   1.0781
B( 12-C , 13-H ) :   0.9789 B( 12-C , 14-H ) :   0.9719 B( 12-C , 15-H ) :   0.9713
B( 16-S , 17-C ) :   1.1789 B( 16-S , 20-C ) :   1.1353 B( 17-C , 18-C ) :   1.5941
B( 17-C , 20-C ) :   0.1040 B( 17-C , 33-H ) :   0.9635 B( 18-C , 19-C ) :   1.2583
B( 18-C , 21-H ) :   0.9876 B( 19-C , 20-C ) :   1.5871 B( 19-C , 22-C ) :   1.0210
B( 22-C , 23-H ) :   0.9450 B( 22-C , 24-H ) :   0.9390 B( 22-C , 25-C ) :   1.0555
B( 25-C , 26-H ) :   0.9593 B( 25-C , 27-H ) :   0.9583 B( 25-C , 28-C ) :   1.0796
B( 28-C , 29-H ) :   0.9739 B( 28-C , 30-H ) :   0.9764 B( 28-C , 31-H ) :   0.9724

Dispersion correction           -0.014595199
FINAL SINGLE POINT ENERGY     -1339.865870189147

DIPOLE MOMENT
-------------
                                X             Y             Z
Electronic contribution:     -4.92479       8.58535     -27.47675
Nuclear contribution   :      5.09158      -8.63387      28.07996
                        -----------------------------------------
Total Dipole Moment    :      0.16679      -0.04852       0.60321
                        -----------------------------------------
Magnitude (a.u.)       :      0.62772
Magnitude (Debye)      :      1.59554

Rotational constants in cm-1:     0.019140     0.008539     0.007081
Rotational constants in MHz :   573.802551   256.006520   212.291202

                             ****ORCA TERMINATED NORMALLY****
TOTAL RUN TIME: 0 days 0 hours 0 minutes 21 seconds 911 msec
