                         Program Version 4.2.1 -  RELEASE  -
|  1> ! wB97X-D3 SP def2-SVP
|  2> %pal
|  3> nprocs 24
|  4> end
|  5>
|  6> * xyz 0 1
|  7> S 	 -105.303 	 11.837 	 -6.85968
|  8> C 	 -105.103 	 11.9824 	 -5.12687
|  9> C 	 -106.209 	 11.3702 	 -4.43541
| 10> C 	 -107.262 	 11.0256 	 -5.39522
| 11> C 	 -106.963 	 11.265 	 -6.67815
| 12> H 	 -108.261 	 10.6256 	 -5.23757
| 13> C 	 -106.352 	 11.2427 	 -2.91988
| 14> H 	 -105.413 	 11.7109 	 -2.49289
| 15> H 	 -106.405 	 10.1329 	 -2.70947
| 16> C 	 -107.655 	 11.7579 	 -2.3534
| 17> H 	 -108.467 	 11.1967 	 -2.72836
| 18> H 	 -107.654 	 11.597 	 -1.32342
| 19> C 	 -107.95 	 13.2862 	 -2.8009
| 20> H 	 -107.981 	 13.4215 	 -3.87873
| 21> H 	 -108.984 	 13.5643 	 -2.50223
| 22> H 	 -107.222 	 13.9532 	 -2.4184
| 23> S 	 -106.823 	 10.0091 	 -9.12909
| 24> C 	 -108.256 	 9.58963 	 -10.0017
| 25> C 	 -109.398 	 10.1095 	 -9.38312
| 26> C 	 -109.083 	 10.7834 	 -8.14582
| 27> C 	 -107.704 	 10.8505 	 -7.89242
| 28> H 	 -110.369 	 10.0097 	 -9.75808
| 29> C 	 -110.194 	 11.3462 	 -7.36277
| 30> H 	 -109.93 	 11.6241 	 -6.41024
| 31> H 	 -110.987 	 10.5687 	 -7.2292
| 32> C 	 -110.956 	 12.3959 	 -8.17644
| 33> H 	 -111.327 	 11.9582 	 -9.15567
| 34> H 	 -110.143 	 13.0857 	 -8.36383
| 35> C 	 -112.147 	 13.0391 	 -7.43614
| 36> H 	 -111.762 	 13.7357 	 -6.69817
| 37> H 	 -112.769 	 12.3619 	 -6.84088
| 38> H 	 -112.594 	 13.8237 	 -8.06995
| 39> H 	 -104.203 	 12.3171 	 -4.64892
| 40> H 	 -108.372 	 9.13473 	 -10.975
| 41> *
| 42>
| 43>                          ****END OF INPUT****

CARTESIAN COORDINATES (ANGSTROEM)
---------------------------------
  S    -105.303000   11.837000   -6.859680
  C    -105.103000   11.982400   -5.126870
  C    -106.209000   11.370200   -4.435410
  C    -107.262000   11.025600   -5.395220
  C    -106.963000   11.265000   -6.678150
  H    -108.261000   10.625600   -5.237570
  C    -106.352000   11.242700   -2.919880
  H    -105.413000   11.710900   -2.492890
  H    -106.405000   10.132900   -2.709470
  C    -107.655000   11.757900   -2.353400
  H    -108.467000   11.196700   -2.728360
  H    -107.654000   11.597000   -1.323420
  C    -107.950000   13.286200   -2.800900
  H    -107.981000   13.421500   -3.878730
  H    -108.984000   13.564300   -2.502230
  H    -107.222000   13.953200   -2.418400
  S    -106.823000   10.009100   -9.129090
  C    -108.256000    9.589630  -10.001700
  C    -109.398000   10.109500   -9.383120
  C    -109.083000   10.783400   -8.145820
  C    -107.704000   10.850500   -7.892420
  H    -110.369000   10.009700   -9.758080
  C    -110.194000   11.346200   -7.362770
  H    -109.930000   11.624100   -6.410240
  H    -110.987000   10.568700   -7.229200
  C    -110.956000   12.395900   -8.176440
  H    -111.327000   11.958200   -9.155670
  H    -110.143000   13.085700   -8.363830
  C    -112.147000   13.039100   -7.436140
  H    -111.762000   13.735700   -6.698170
  H    -112.769000   12.361900   -6.840880
  H    -112.594000   13.823700   -8.069950
  H    -104.203000   12.317100   -4.648920
  H    -108.372000    9.134730  -10.975000

 Total Charge           Charge          ....    0
 Multiplicity           Mult            ....    1
 Number of Electrons    NEL             ....  134
 Basis Dimension        Dim             ....  322

ORBITAL ENERGIES
----------------

  NO   OCC          E(Eh)            E(eV)
   0   2.0000     -88.968837     -2420.9651
   1   2.0000     -88.964568     -2420.8490
   2   2.0000     -10.329440      -281.0784
   3   2.0000     -10.329341      -281.0757
   4   2.0000     -10.320093      -280.8240
   5   2.0000     -10.317416      -280.7512
   6   2.0000     -10.313715      -280.6504
   7   2.0000     -10.302486      -280.3449
   8   2.0000     -10.302362      -280.3415
   9   2.0000     -10.294967      -280.1403
  10   2.0000     -10.291679      -280.0508
  11   2.0000     -10.290573      -280.0207
  12   2.0000     -10.285415      -279.8804
  13   2.0000     -10.284925      -279.8670
  14   2.0000     -10.281657      -279.7781
  15   2.0000     -10.277595      -279.6676
  16   2.0000      -8.083700      -219.9687
  17   2.0000      -8.079190      -219.8459
  18   2.0000      -6.042322      -164.4200
  19   2.0000      -6.038036      -164.3033
  20   2.0000      -6.037773      -164.2961
  21   2.0000      -6.034489      -164.2068
  22   2.0000      -6.033802      -164.1881
  23   2.0000      -6.029802      -164.0793
  24   2.0000      -1.006871       -27.3983
  25   2.0000      -0.981712       -26.7137
  26   2.0000      -0.918154       -24.9842
  27   2.0000      -0.909530       -24.7496
  28   2.0000      -0.866675       -23.5834
  29   2.0000      -0.851753       -23.1774
  30   2.0000      -0.838184       -22.8082
  31   2.0000      -0.815836       -22.2000
  32   2.0000      -0.783436       -21.3184
  33   2.0000      -0.772892       -21.0315
  34   2.0000      -0.712387       -19.3850
  35   2.0000      -0.700810       -19.0700
  36   2.0000      -0.693889       -18.8817
  37   2.0000      -0.662223       -18.0200
  38   2.0000      -0.643987       -17.5238
  39   2.0000      -0.620847       -16.8941
  40   2.0000      -0.600670       -16.3451
  41   2.0000      -0.570115       -15.5136
  42   2.0000      -0.562636       -15.3101
  43   2.0000      -0.548837       -14.9346
  44   2.0000      -0.537115       -14.6156
  45   2.0000      -0.531266       -14.4565
  46   2.0000      -0.524681       -14.2773
  47   2.0000      -0.510238       -13.8843
  48   2.0000      -0.505552       -13.7568
  49   2.0000      -0.499119       -13.5817
  50   2.0000      -0.489436       -13.3182
  51   2.0000      -0.482129       -13.1194
  52   2.0000      -0.474867       -12.9218
  53   2.0000      -0.462420       -12.5831
  54   2.0000      -0.458706       -12.4820
  55   2.0000      -0.453229       -12.3330
  56   2.0000      -0.443931       -12.0800
  57   2.0000      -0.439259       -11.9529
  58   2.0000      -0.429364       -11.6836
  59   2.0000      -0.426421       -11.6035
  60   2.0000      -0.419907       -11.4263
  61   2.0000      -0.415624       -11.3097
  62   2.0000      -0.412402       -11.2220
  63   2.0000      -0.355593        -9.6762
  64   2.0000      -0.329214        -8.9584
  65   2.0000      -0.323300        -8.7974
  66   2.0000      -0.288736        -7.8569
  67   0.0000       0.030543         0.8311
  68   0.0000       0.071831         1.9546
  69   0.0000       0.107341         2.9209
  70   0.0000       0.114016         3.1025
  71   0.0000       0.127781         3.4771

MULLIKEN ATOMIC CHARGES
-----------------------
   0 S :    0.090075
   1 C :   -0.106607
   2 C :   -0.115026
   3 C :    0.011384
   4 C :   -0.136441
   5 H :    0.017568
   6 C :    0.049531
   7 H :    0.034998
   8 H :    0.049643
   9 C :   -0.041959
  10 H :    0.018681
  11 H :    0.023281
  12 C :   -0.065072
  13 H :    0.042137
  14 H :    0.031000
  15 H :    0.031288
  16 S :    0.114841
  17 C :   -0.079018
  18 C :   -0.029693
  19 C :   -0.066756
  20 C :   -0.118028
  21 H :    0.000861
  22 C :    0.107967
  23 H :   -0.015862
  24 H :    0.021340
  25 C :   -0.130711
  26 H :    0.044899
  27 H :    0.036430
  28 C :   -0.017797
  29 H :    0.013095
  30 H :    0.039945
  31 H :    0.038519
  32 H :    0.048182
  33 H :    0.057306
Sum of atomic charges:   -0.0000000

LOEWDIN ATOMIC CHARGES
----------------------
   0 S :    0.388938
   1 C :   -0.199424
   2 C :   -0.052419
   3 C :   -0.070408
   4 C :   -0.181757
   5 H :    0.033179
   6 C :   -0.038665
   7 H :    0.035855
   8 H :    0.043959
   9 C :   -0.032349
  10 H :    0.018703
  11 H :    0.019244
  12 C :   -0.063907
  13 H :    0.027005
  14 H :    0.027101
  15 H :    0.018163
  16 S :    0.425621
  17 C :   -0.195301
  18 C :   -0.058640
  19 C :   -0.055926
  20 C :   -0.207782
  21 H :    0.020152
  22 C :   -0.032807
  23 H :    0.010906
  24 H :    0.034966
  25 C :   -0.038876
  26 H :    0.027792
  27 H :    0.026392
  28 C :   -0.078017
  29 H :    0.026577
  30 H :    0.028330
  31 H :    0.035904
  32 H :    0.024288
  33 H :    0.033204

  Mayer bond orders larger than 0.100000
B(  0-S ,  1-C ) :   1.1354 B(  0-S ,  4-C ) :   1.1311 B(  1-C ,  2-C ) :   1.6116
B(  1-C , 32-H ) :   0.9702 B(  2-C ,  3-C ) :   1.1899 B(  2-C ,  6-C ) :   1.0286
B(  3-C ,  4-C ) :   1.6410 B(  3-C ,  5-H ) :   0.9825 B(  4-C , 20-C ) :   1.0134
B(  6-C ,  7-H ) :   0.9448 B(  6-C ,  8-H ) :   0.9322 B(  6-C ,  9-C ) :   1.0793
B(  9-C , 10-H ) :   0.9488 B(  9-C , 11-H ) :   0.9561 B(  9-C , 12-C ) :   1.0647
B( 12-C , 13-H ) :   0.9734 B( 12-C , 14-H ) :   0.9777 B( 12-C , 15-H ) :   0.9814
B( 16-S , 17-C ) :   1.1626 B( 16-S , 20-C ) :   1.1394 B( 17-C , 18-C ) :   1.5941
B( 17-C , 33-H ) :   0.9655 B( 18-C , 19-C ) :   1.2474 B( 18-C , 21-H ) :   0.9955
B( 19-C , 20-C ) :   1.5808 B( 19-C , 22-C ) :   1.0747 B( 22-C , 23-H ) :   0.9346
B( 22-C , 24-H ) :   0.9197 B( 22-C , 25-C ) :   1.0450 B( 25-C , 26-H ) :   0.9560
B( 25-C , 27-H ) :   0.9578 B( 25-C , 28-C ) :   1.0839 B( 28-C , 29-H ) :   0.9662
B( 28-C , 30-H ) :   0.9728 B( 28-C , 31-H ) :   0.9685

Dispersion correction           -0.014269453
FINAL SINGLE POINT ENERGY     -1339.862469353021

DIPOLE MOMENT
-------------
                                X             Y             Z
Electronic contribution:     21.67031     -10.10801     -17.31174
Nuclear contribution   :    -22.25174      10.09929      17.73494
                        -----------------------------------------
Total Dipole Moment    :     -0.58143      -0.00873       0.42319
                        -----------------------------------------
Magnitude (a.u.)       :      0.71919
Magnitude (Debye)      :      1.82803

Rotational constants in cm-1:     0.016724     0.009799     0.006816
Rotational constants in MHz :   501.374650   293.762763   204.339299

                             ****ORCA TERMINATED NORMALLY****
TOTAL RUN TIME: 0 days 0 hours 0 minutes 20 seconds 775 msec
