                         Program Version 4.2.1 -  RELEASE  -
|  1> ! wB97X-D3 SP def2-SVP
|  2> %pal
|  3> nprocs 24
|  4> end
|  5>
|  6> * xyz 0 1
|  7> S 	 -29.8441 	 -33.6402 	 -94.0016
|  8> C 	 -30.8542 	 -32.2245 	 -94.091
|  9> C 	 -31.0164 	 -31.6242 	 -92.8603
| 10> C 	 -30.2049 	 -32.2427 	 -91.8333
| 11> C 	 -29.5254 	 -33.3044 	 -92.2623
| 12> H 	 -30.0967 	 -31.8809 	 -90.832
| 13> C 	 -31.8535 	 -30.3967 	 -92.5598
| 14> H 	 -32.7941 	 -30.7954 	 -92.1677
| 15> H 	 -32.1593 	 -29.9893 	 -93.5196
| 16> C 	 -31.2353 	 -29.2045 	 -91.7957
| 17> H 	 -31.9976 	 -28.4137 	 -91.6709
| 18> H 	 -30.982 	 -29.4799 	 -90.8323
| 19> C 	 -30.1597 	 -28.4827 	 -92.5607
| 20> H 	 -30.3773 	 -28.3755 	 -93.6071
| 21> H 	 -30.0881 	 -27.4863 	 -92.1329
| 22> H 	 -29.094 	 -28.9712 	 -92.5081
| 23> S 	 -27.176 	 -34.4947 	 -91.8332
| 24> C 	 -26.7196 	 -35.2107 	 -90.3524
| 25> C 	 -27.8462 	 -35.2624 	 -89.583
| 26> C 	 -28.9153 	 -34.5075 	 -90.0431
| 27> C 	 -28.6783 	 -34.0555 	 -91.3684
| 28> H 	 -27.8289 	 -35.8879 	 -88.6962
| 29> C 	 -30.2647 	 -34.4045 	 -89.3675
| 30> H 	 -30.9997 	 -34.7728 	 -90.136
| 31> H 	 -30.3389 	 -33.2839 	 -89.2632
| 32> C 	 -30.5356 	 -35.1972 	 -88.0133
| 33> H 	 -30.2631 	 -36.1753 	 -88.1239
| 34> H 	 -31.5434 	 -35.1647 	 -87.6722
| 35> C 	 -29.7734 	 -34.6 	 -86.7766
| 36> H 	 -29.9512 	 -35.2181 	 -85.8866
| 37> H 	 -30.1084 	 -33.6182 	 -86.5779
| 38> H 	 -28.7026 	 -34.6892 	 -86.8774
| 39> H 	 -31.3598 	 -31.8002 	 -94.9633
| 40> H 	 -25.7984 	 -35.6566 	 -90.0454
| 41> *
| 42>
| 43>                          ****END OF INPUT****

CARTESIAN COORDINATES (ANGSTROEM)
---------------------------------
  S    -29.844100  -33.640200  -94.001600
  C    -30.854200  -32.224500  -94.091000
  C    -31.016400  -31.624200  -92.860300
  C    -30.204900  -32.242700  -91.833300
  C    -29.525400  -33.304400  -92.262300
  H    -30.096700  -31.880900  -90.832000
  C    -31.853500  -30.396700  -92.559800
  H    -32.794100  -30.795400  -92.167700
  H    -32.159300  -29.989300  -93.519600
  C    -31.235300  -29.204500  -91.795700
  H    -31.997600  -28.413700  -91.670900
  H    -30.982000  -29.479900  -90.832300
  C    -30.159700  -28.482700  -92.560700
  H    -30.377300  -28.375500  -93.607100
  H    -30.088100  -27.486300  -92.132900
  H    -29.094000  -28.971200  -92.508100
  S    -27.176000  -34.494700  -91.833200
  C    -26.719600  -35.210700  -90.352400
  C    -27.846200  -35.262400  -89.583000
  C    -28.915300  -34.507500  -90.043100
  C    -28.678300  -34.055500  -91.368400
  H    -27.828900  -35.887900  -88.696200
  C    -30.264700  -34.404500  -89.367500
  H    -30.999700  -34.772800  -90.136000
  H    -30.338900  -33.283900  -89.263200
  C    -30.535600  -35.197200  -88.013300
  H    -30.263100  -36.175300  -88.123900
  H    -31.543400  -35.164700  -87.672200
  C    -29.773400  -34.600000  -86.776600
  H    -29.951200  -35.218100  -85.886600
  H    -30.108400  -33.618200  -86.577900
  H    -28.702600  -34.689200  -86.877400
  H    -31.359800  -31.800200  -94.963300
  H    -25.798400  -35.656600  -90.045400

 Total Charge           Charge          ....    0
 Multiplicity           Mult            ....    1
 Number of Electrons    NEL             ....  134
 Basis Dimension        Dim             ....  322

ORBITAL ENERGIES
----------------

  NO   OCC          E(Eh)            E(eV)
   0   2.0000     -88.967395     -2420.9259
   1   2.0000     -88.963100     -2420.8090
   2   2.0000     -10.326160      -280.9891
   3   2.0000     -10.316490      -280.7260
   4   2.0000     -10.312893      -280.6281
   5   2.0000     -10.305959      -280.4394
   6   2.0000     -10.299944      -280.2757
   7   2.0000     -10.299181      -280.2550
   8   2.0000     -10.297976      -280.2222
   9   2.0000     -10.291213      -280.0381
  10   2.0000     -10.286411      -279.9075
  11   2.0000     -10.285261      -279.8762
  12   2.0000     -10.285185      -279.8741
  13   2.0000     -10.284643      -279.8594
  14   2.0000     -10.280674      -279.7514
  15   2.0000     -10.274170      -279.5744
  16   2.0000      -8.081370      -219.9053
  17   2.0000      -8.080649      -219.8856
  18   2.0000      -6.040140      -164.3606
  19   2.0000      -6.038709      -164.3216
  20   2.0000      -6.036122      -164.2512
  21   2.0000      -6.034462      -164.2061
  22   2.0000      -6.031998      -164.1390
  23   2.0000      -6.031752      -164.1323
  24   2.0000      -1.023086       -27.8396
  25   2.0000      -0.989414       -26.9233
  26   2.0000      -0.912420       -24.8282
  27   2.0000      -0.903113       -24.5750
  28   2.0000      -0.879666       -23.9369
  29   2.0000      -0.853846       -23.2343
  30   2.0000      -0.846056       -23.0224
  31   2.0000      -0.822459       -22.3802
  32   2.0000      -0.779291       -21.2056
  33   2.0000      -0.769115       -20.9287
  34   2.0000      -0.714252       -19.4358
  35   2.0000      -0.705870       -19.2077
  36   2.0000      -0.696750       -18.9595
  37   2.0000      -0.656831       -17.8733
  38   2.0000      -0.636753       -17.3269
  39   2.0000      -0.627509       -17.0754
  40   2.0000      -0.593520       -16.1505
  41   2.0000      -0.569116       -15.4864
  42   2.0000      -0.557424       -15.1683
  43   2.0000      -0.553478       -15.0609
  44   2.0000      -0.541444       -14.7335
  45   2.0000      -0.538433       -14.6515
  46   2.0000      -0.522647       -14.2219
  47   2.0000      -0.511548       -13.9199
  48   2.0000      -0.504612       -13.7312
  49   2.0000      -0.502069       -13.6620
  50   2.0000      -0.493700       -13.4343
  51   2.0000      -0.480461       -13.0740
  52   2.0000      -0.476305       -12.9609
  53   2.0000      -0.469049       -12.7635
  54   2.0000      -0.457511       -12.4495
  55   2.0000      -0.444964       -12.1081
  56   2.0000      -0.442109       -12.0304
  57   2.0000      -0.437914       -11.9163
  58   2.0000      -0.434009       -11.8100
  59   2.0000      -0.427892       -11.6435
  60   2.0000      -0.418855       -11.3976
  61   2.0000      -0.417133       -11.3508
  62   2.0000      -0.410098       -11.1593
  63   2.0000      -0.356951        -9.7131
  64   2.0000      -0.331595        -9.0232
  65   2.0000      -0.322991        -8.7890
  66   2.0000      -0.287939        -7.8352
  67   0.0000       0.032874         0.8946
  68   0.0000       0.081082         2.2064
  69   0.0000       0.118700         3.2300
  70   0.0000       0.129494         3.5237
  71   0.0000       0.134058         3.6479

MULLIKEN ATOMIC CHARGES
-----------------------
   0 S :    0.112309
   1 C :   -0.120568
   2 C :   -0.092450
   3 C :   -0.006439
   4 C :   -0.091612
   5 H :    0.010501
   6 C :    0.071389
   7 H :    0.040213
   8 H :   -0.003014
   9 C :   -0.037051
  10 H :    0.027695
  11 H :    0.014423
  12 C :   -0.069690
  13 H :    0.025983
  14 H :    0.033269
  15 H :    0.053290
  16 S :    0.132344
  17 C :   -0.083222
  18 C :   -0.068490
  19 C :   -0.040214
  20 C :   -0.180155
  21 H :    0.018059
  22 C :    0.019782
  23 H :    0.061504
  24 H :    0.035715
  25 C :   -0.010599
  26 H :    0.012103
  27 H :    0.027993
  28 C :   -0.064940
  29 H :    0.026719
  30 H :    0.029451
  31 H :    0.025088
  32 H :    0.047830
  33 H :    0.042785
Sum of atomic charges:    0.0000000

LOEWDIN ATOMIC CHARGES
----------------------
   0 S :    0.378755
   1 C :   -0.204968
   2 C :   -0.061203
   3 C :   -0.057280
   4 C :   -0.174214
   5 H :    0.028780
   6 C :   -0.034756
   7 H :    0.035926
   8 H :    0.024437
   9 C :   -0.037815
  10 H :    0.033275
  11 H :    0.011228
  12 C :   -0.067906
  13 H :    0.021719
  14 H :    0.026584
  15 H :    0.037564
  16 S :    0.489196
  17 C :   -0.211503
  18 C :   -0.078637
  19 C :   -0.066784
  20 C :   -0.241455
  21 H :    0.030323
  22 C :   -0.037194
  23 H :    0.043927
  24 H :    0.035144
  25 C :   -0.026150
  26 H :    0.010807
  27 H :    0.026642
  28 C :   -0.061788
  29 H :    0.027345
  30 H :    0.018246
  31 H :    0.018405
  32 H :    0.033991
  33 H :    0.029359

  Mayer bond orders larger than 0.100000
B(  0-S ,  1-C ) :   1.1122 B(  0-S ,  4-C ) :   1.1083 B(  1-C ,  2-C ) :   1.6595
B(  1-C , 32-H ) :   0.9581 B(  2-C ,  3-C ) :   1.1963 B(  2-C ,  6-C ) :   1.0220
B(  3-C ,  4-C ) :   1.6206 B(  3-C ,  5-H ) :   0.9984 B(  4-C , 20-C ) :   1.0527
B(  6-C ,  7-H ) :   0.9321 B(  6-C ,  8-H ) :   0.9365 B(  6-C ,  9-C ) :   1.0761
B(  9-C , 10-H ) :   0.9531 B(  9-C , 11-H ) :   0.9545 B(  9-C , 12-C ) :   1.0741
B( 12-C , 13-H ) :   0.9736 B( 12-C , 14-H ) :   0.9764 B( 12-C , 15-H ) :   0.9725
B( 16-S , 17-C ) :   1.1930 B( 16-S , 20-C ) :   1.2116 B( 17-C , 18-C ) :   1.5259
B( 17-C , 20-C ) :   0.1131 B( 17-C , 33-H ) :   0.9723 B( 18-C , 19-C ) :   1.3446
B( 18-C , 21-H ) :   0.9816 B( 19-C , 20-C ) :   1.4792 B( 19-C , 22-C ) :   1.0071
B( 22-C , 23-H ) :   0.9393 B( 22-C , 24-H ) :   0.9317 B( 22-C , 25-C ) :   1.0775
B( 25-C , 26-H ) :   0.9517 B( 25-C , 27-H ) :   0.9578 B( 25-C , 28-C ) :   1.0765
B( 28-C , 29-H ) :   0.9736 B( 28-C , 30-H ) :   0.9777 B( 28-C , 31-H ) :   0.9787

Dispersion correction           -0.014285260
FINAL SINGLE POINT ENERGY     -1339.859627860939

DIPOLE MOMENT
-------------
                                X             Y             Z
Electronic contribution:     11.96538     -14.10663     -18.28362
Nuclear contribution   :    -12.36070      14.36834      18.81287
                        -----------------------------------------
Total Dipole Moment    :     -0.39532       0.26170       0.52926
                        -----------------------------------------
Magnitude (a.u.)       :      0.71055
Magnitude (Debye)      :      1.80606

Rotational constants in cm-1:     0.018014     0.008678     0.006981
Rotational constants in MHz :   540.034689   260.159271   209.286282

                             ****ORCA TERMINATED NORMALLY****
TOTAL RUN TIME: 0 days 0 hours 0 minutes 20 seconds 760 msec
