                         Program Version 4.2.1 -  RELEASE  -
|  1> ! wB97X-D3 SP def2-SVP
|  2> %pal
|  3> nprocs 24
|  4> end
|  5>
|  6> * xyz 0 1
|  7> S 	 -56.3918 	 21.5096 	 24.946
|  8> C 	 -56.1398 	 20.0262 	 26.0211
|  9> C 	 -57.3952 	 19.4122 	 26.1003
| 10> C 	 -58.4234 	 19.9079 	 25.2612
| 11> C 	 -58.0826 	 20.9929 	 24.4698
| 12> H 	 -59.3913 	 19.4989 	 25.1199
| 13> C 	 -57.5534 	 18.1303 	 26.9028
| 14> H 	 -58.6247 	 17.8259 	 26.8419
| 15> H 	 -57.3425 	 18.3976 	 27.9482
| 16> C 	 -56.7419 	 16.982 	 26.3131
| 17> H 	 -56.724 	 17.0675 	 25.221
| 18> H 	 -55.671 	 16.926 	 26.689
| 19> C 	 -57.2916 	 15.5724 	 26.5315
| 20> H 	 -56.9333 	 14.8024 	 25.8254
| 21> H 	 -57.0112 	 15.2971 	 27.5159
| 22> H 	 -58.3912 	 15.6685 	 26.4254
| 23> S 	 -58.9239 	 23.4575 	 23.4542
| 24> C 	 -59.7741 	 23.4817 	 21.9041
| 25> C 	 -60.101 	 22.2092 	 21.5763
| 26> C 	 -59.6646 	 21.1291 	 22.4029
| 27> C 	 -58.7901 	 21.6328 	 23.3799
| 28> H 	 -60.6902 	 22.157 	 20.5962
| 29> C 	 -59.6893 	 19.6729 	 21.9114
| 30> H 	 -60.6943 	 19.5993 	 21.4714
| 31> H 	 -59.598 	 19.1097 	 22.8238
| 32> C 	 -58.4623 	 19.2617 	 20.9738
| 33> H 	 -58.6079 	 19.8568 	 20.0804
| 34> H 	 -58.513 	 18.1753 	 20.7194
| 35> C 	 -56.9882 	 19.5397 	 21.5008
| 36> H 	 -56.2936 	 19.3483 	 20.8237
| 37> H 	 -56.8882 	 18.8032 	 22.2925
| 38> H 	 -56.9215 	 20.5791 	 21.9246
| 39> H 	 -55.2336 	 19.7672 	 26.5674
| 40> H 	 -60.1196 	 24.3735 	 21.4067
| 41> *
| 42>
| 43>                          ****END OF INPUT****

CARTESIAN COORDINATES (ANGSTROEM)
---------------------------------
  S    -56.391800   21.509600   24.946000
  C    -56.139800   20.026200   26.021100
  C    -57.395200   19.412200   26.100300
  C    -58.423400   19.907900   25.261200
  C    -58.082600   20.992900   24.469800
  H    -59.391300   19.498900   25.119900
  C    -57.553400   18.130300   26.902800
  H    -58.624700   17.825900   26.841900
  H    -57.342500   18.397600   27.948200
  C    -56.741900   16.982000   26.313100
  H    -56.724000   17.067500   25.221000
  H    -55.671000   16.926000   26.689000
  C    -57.291600   15.572400   26.531500
  H    -56.933300   14.802400   25.825400
  H    -57.011200   15.297100   27.515900
  H    -58.391200   15.668500   26.425400
  S    -58.923900   23.457500   23.454200
  C    -59.774100   23.481700   21.904100
  C    -60.101000   22.209200   21.576300
  C    -59.664600   21.129100   22.402900
  C    -58.790100   21.632800   23.379900
  H    -60.690200   22.157000   20.596200
  C    -59.689300   19.672900   21.911400
  H    -60.694300   19.599300   21.471400
  H    -59.598000   19.109700   22.823800
  C    -58.462300   19.261700   20.973800
  H    -58.607900   19.856800   20.080400
  H    -58.513000   18.175300   20.719400
  C    -56.988200   19.539700   21.500800
  H    -56.293600   19.348300   20.823700
  H    -56.888200   18.803200   22.292500
  H    -56.921500   20.579100   21.924600
  H    -55.233600   19.767200   26.567400
  H    -60.119600   24.373500   21.406700

 Total Charge           Charge          ....    0
 Multiplicity           Mult            ....    1
 Number of Electrons    NEL             ....  134
 Basis Dimension        Dim             ....  322

ORBITAL ENERGIES
----------------

  NO   OCC          E(Eh)            E(eV)
   0   2.0000     -88.964454     -2420.8459
   1   2.0000     -88.963841     -2420.8292
   2   2.0000     -10.339944      -281.3642
   3   2.0000     -10.339379      -281.3488
   4   2.0000     -10.326505      -280.9985
   5   2.0000     -10.318011      -280.7674
   6   2.0000     -10.311994      -280.6036
   7   2.0000     -10.306469      -280.4533
   8   2.0000     -10.300727      -280.2970
   9   2.0000     -10.298595      -280.2390
  10   2.0000     -10.297385      -280.2061
  11   2.0000     -10.296986      -280.1952
  12   2.0000     -10.294575      -280.1296
  13   2.0000     -10.290312      -280.0136
  14   2.0000     -10.278053      -279.6800
  15   2.0000     -10.267236      -279.3857
  16   2.0000      -8.077464      -219.7990
  17   2.0000      -8.076391      -219.7698
  18   2.0000      -6.036091      -164.2504
  19   2.0000      -6.035188      -164.2258
  20   2.0000      -6.032233      -164.1454
  21   2.0000      -6.031260      -164.1189
  22   2.0000      -6.028026      -164.0309
  23   2.0000      -6.026986      -164.0026
  24   2.0000      -0.997401       -27.1407
  25   2.0000      -0.974566       -26.5193
  26   2.0000      -0.911972       -24.8160
  27   2.0000      -0.897949       -24.4344
  28   2.0000      -0.868745       -23.6397
  29   2.0000      -0.844867       -22.9900
  30   2.0000      -0.838211       -22.8089
  31   2.0000      -0.816644       -22.2220
  32   2.0000      -0.784452       -21.3460
  33   2.0000      -0.768538       -20.9130
  34   2.0000      -0.711842       -19.3702
  35   2.0000      -0.697305       -18.9746
  36   2.0000      -0.692548       -18.8452
  37   2.0000      -0.653311       -17.7775
  38   2.0000      -0.643155       -17.5011
  39   2.0000      -0.615927       -16.7602
  40   2.0000      -0.589761       -16.0482
  41   2.0000      -0.572337       -15.5741
  42   2.0000      -0.560582       -15.2542
  43   2.0000      -0.551270       -15.0008
  44   2.0000      -0.546367       -14.8674
  45   2.0000      -0.529072       -14.3968
  46   2.0000      -0.523711       -14.2509
  47   2.0000      -0.510413       -13.8891
  48   2.0000      -0.504976       -13.7411
  49   2.0000      -0.497459       -13.5366
  50   2.0000      -0.486274       -13.2322
  51   2.0000      -0.474392       -12.9089
  52   2.0000      -0.471046       -12.8178
  53   2.0000      -0.467181       -12.7126
  54   2.0000      -0.459518       -12.5041
  55   2.0000      -0.446065       -12.1381
  56   2.0000      -0.438719       -11.9382
  57   2.0000      -0.431592       -11.7442
  58   2.0000      -0.424792       -11.5592
  59   2.0000      -0.421545       -11.4708
  60   2.0000      -0.414254       -11.2724
  61   2.0000      -0.409565       -11.1448
  62   2.0000      -0.404699       -11.0124
  63   2.0000      -0.350444        -9.5361
  64   2.0000      -0.331662        -9.0250
  65   2.0000      -0.330424        -8.9913
  66   2.0000      -0.290036        -7.8923
  67   0.0000       0.011093         0.3019
  68   0.0000       0.060359         1.6424
  69   0.0000       0.100283         2.7288
  70   0.0000       0.113908         3.0996
  71   0.0000       0.128172         3.4877

MULLIKEN ATOMIC CHARGES
-----------------------
   0 S :    0.077139
   1 C :   -0.123792
   2 C :   -0.093367
   3 C :    0.048453
   4 C :   -0.140921
   5 H :    0.009577
   6 C :    0.065646
   7 H :    0.017711
   8 H :    0.046463
   9 C :   -0.104319
  10 H :    0.038253
  11 H :    0.037565
  12 C :   -0.050918
  13 H :    0.043999
  14 H :    0.025009
  15 H :    0.026350
  16 S :    0.079317
  17 C :   -0.080205
  18 C :   -0.073409
  19 C :   -0.026337
  20 C :   -0.169473
  21 H :    0.041380
  22 C :    0.073504
  23 H :    0.041863
  24 H :    0.008863
  25 C :   -0.092984
  26 H :    0.026513
  27 H :    0.042418
  28 C :   -0.013515
  29 H :    0.009925
  30 H :    0.026732
  31 H :    0.060119
  32 H :    0.064231
  33 H :    0.058209
Sum of atomic charges:    0.0000000

LOEWDIN ATOMIC CHARGES
----------------------
   0 S :    0.336621
   1 C :   -0.165322
   2 C :   -0.061386
   3 C :   -0.063618
   4 C :   -0.160914
   5 H :    0.027614
   6 C :   -0.034959
   7 H :    0.030087
   8 H :    0.035547
   9 C :   -0.050034
  10 H :    0.026721
  11 H :    0.028824
  12 C :   -0.064725
  13 H :    0.030684
  14 H :    0.017294
  15 H :    0.023849
  16 S :    0.361005
  17 C :   -0.175832
  18 C :   -0.084465
  19 C :   -0.058608
  20 C :   -0.169959
  21 H :    0.042498
  22 C :   -0.027678
  23 H :    0.037071
  24 H :    0.022163
  25 C :   -0.032492
  26 H :    0.017606
  27 H :    0.028256
  28 C :   -0.050852
  29 H :    0.004758
  30 H :    0.025850
  31 H :    0.035587
  32 H :    0.036263
  33 H :    0.032545

  Mayer bond orders larger than 0.100000
B(  0-S ,  1-C ) :   1.1091 B(  0-S ,  4-C ) :   1.1281 B(  1-C ,  2-C ) :   1.5950
B(  1-C ,  4-C ) :   0.1100 B(  1-C , 32-H ) :   0.9774 B(  2-C ,  3-C ) :   1.2336
B(  2-C ,  6-C ) :   1.0288 B(  3-C ,  4-C ) :   1.5743 B(  3-C ,  5-H ) :   0.9937
B(  4-C , 20-C ) :   1.0724 B(  6-C ,  7-H ) :   0.9455 B(  6-C ,  8-H ) :   0.9349
B(  6-C ,  9-C ) :   1.0536 B(  9-C , 10-H ) :   0.9625 B(  9-C , 11-H ) :   0.9520
B(  9-C , 12-C ) :   1.0826 B( 12-C , 13-H ) :   0.9766 B( 12-C , 14-H ) :   0.9789
B( 12-C , 15-H ) :   0.9746 B( 16-S , 17-C ) :   1.1211 B( 16-S , 20-C ) :   1.1303
B( 17-C , 18-C ) :   1.6588 B( 17-C , 20-C ) :   0.1016 B( 17-C , 33-H ) :   0.9681
B( 18-C , 19-C ) :   1.2013 B( 18-C , 21-H ) :   0.9716 B( 19-C , 20-C ) :   1.5735
B( 19-C , 22-C ) :   1.0478 B( 22-C , 23-H ) :   0.9391 B( 22-C , 24-H ) :   0.9330
B( 22-C , 25-C ) :   1.0434 B( 25-C , 26-H ) :   0.9600 B( 25-C , 27-H ) :   0.9592
B( 25-C , 28-C ) :   1.0735 B( 28-C , 29-H ) :   0.9731 B( 28-C , 30-H ) :   0.9766
B( 28-C , 31-H ) :   0.9683

Dispersion correction           -0.015671667
FINAL SINGLE POINT ENERGY     -1339.846160041923

DIPOLE MOMENT
-------------
                                X             Y             Z
Electronic contribution:     -1.52561      28.28795       1.58808
Nuclear contribution   :      1.31153     -28.99139      -1.75365
                        -----------------------------------------
Total Dipole Moment    :     -0.21408      -0.70343      -0.16557
                        -----------------------------------------
Magnitude (a.u.)       :      0.75369
Magnitude (Debye)      :      1.91574

Rotational constants in cm-1:     0.021985     0.008554     0.007182
Rotational constants in MHz :   659.083611   256.455236   215.300340

                             ****ORCA TERMINATED NORMALLY****
TOTAL RUN TIME: 0 days 0 hours 0 minutes 21 seconds 353 msec
