                         Program Version 4.2.1 -  RELEASE  -
|  1> ! wB97X-D3 SP def2-SVP
|  2> %pal
|  3> nprocs 24
|  4> end
|  5>
|  6> * xyz 0 1
|  7> S 	 -107.522 	 44.9794 	 -9.41365
|  8> C 	 -108.855 	 45.9306 	 -10.108
|  9> C 	 -108.99 	 45.6984 	 -11.4815
| 10> C 	 -108.073 	 44.6817 	 -11.8806
| 11> C 	 -107.337 	 44.1844 	 -10.8885
| 12> H 	 -107.996 	 44.2875 	 -12.8391
| 13> C 	 -110.018 	 46.3562 	 -12.4882
| 14> H 	 -109.534 	 46.99 	 -13.2104
| 15> H 	 -110.761 	 46.9777 	 -11.9934
| 16> C 	 -110.842 	 45.3287 	 -13.2232
| 17> H 	 -111.562 	 45.853 	 -13.8726
| 18> H 	 -110.233 	 44.606 	 -13.7255
| 19> C 	 -111.783 	 44.443 	 -12.2955
| 20> H 	 -112.354 	 43.6521 	 -12.8443
| 21> H 	 -111.216 	 43.9401 	 -11.5857
| 22> H 	 -112.569 	 45.13 	 -11.9077
| 23> S 	 -104.81 	 43.413 	 -11.7295
| 24> C 	 -104.312 	 41.7978 	 -11.4888
| 25> C 	 -105.352 	 41.0146 	 -11.0177
| 26> C 	 -106.495 	 41.7323 	 -10.6582
| 27> C 	 -106.407 	 43.0451 	 -11.0632
| 28> H 	 -105.24 	 39.9703 	 -10.9874
| 29> C 	 -107.684 	 41.0247 	 -10.0222
| 30> H 	 -108.522 	 41.6928 	 -9.7692
| 31> H 	 -107.402 	 40.7374 	 -9.03965
| 32> C 	 -108.163 	 39.7875 	 -10.7755
| 33> H 	 -107.455 	 39.019 	 -10.6585
| 34> H 	 -108.252 	 40.0241 	 -11.8439
| 35> C 	 -109.459 	 39.2943 	 -10.2584
| 36> H 	 -110.291 	 39.9652 	 -10.5496
| 37> H 	 -109.521 	 39.0436 	 -9.17844
| 38> H 	 -109.725 	 38.3738 	 -10.7734
| 39> H 	 -109.499 	 46.6752 	 -9.604
| 40> H 	 -103.432 	 41.4381 	 -12.0176
| 41> *
| 42>
| 43>                          ****END OF INPUT****

CARTESIAN COORDINATES (ANGSTROEM)
---------------------------------
  S    -107.522000   44.979400   -9.413650
  C    -108.855000   45.930600  -10.108000
  C    -108.990000   45.698400  -11.481500
  C    -108.073000   44.681700  -11.880600
  C    -107.337000   44.184400  -10.888500
  H    -107.996000   44.287500  -12.839100
  C    -110.018000   46.356200  -12.488200
  H    -109.534000   46.990000  -13.210400
  H    -110.761000   46.977700  -11.993400
  C    -110.842000   45.328700  -13.223200
  H    -111.562000   45.853000  -13.872600
  H    -110.233000   44.606000  -13.725500
  C    -111.783000   44.443000  -12.295500
  H    -112.354000   43.652100  -12.844300
  H    -111.216000   43.940100  -11.585700
  H    -112.569000   45.130000  -11.907700
  S    -104.810000   43.413000  -11.729500
  C    -104.312000   41.797800  -11.488800
  C    -105.352000   41.014600  -11.017700
  C    -106.495000   41.732300  -10.658200
  C    -106.407000   43.045100  -11.063200
  H    -105.240000   39.970300  -10.987400
  C    -107.684000   41.024700  -10.022200
  H    -108.522000   41.692800   -9.769200
  H    -107.402000   40.737400   -9.039650
  C    -108.163000   39.787500  -10.775500
  H    -107.455000   39.019000  -10.658500
  H    -108.252000   40.024100  -11.843900
  C    -109.459000   39.294300  -10.258400
  H    -110.291000   39.965200  -10.549600
  H    -109.521000   39.043600   -9.178440
  H    -109.725000   38.373800  -10.773400
  H    -109.499000   46.675200   -9.604000
  H    -103.432000   41.438100  -12.017600

 Total Charge           Charge          ....    0
 Multiplicity           Mult            ....    1
 Number of Electrons    NEL             ....  134
 Basis Dimension        Dim             ....  322

ORBITAL ENERGIES
----------------

  NO   OCC          E(Eh)            E(eV)
   0   2.0000     -88.967760     -2420.9358
   1   2.0000     -88.962393     -2420.7898
   2   2.0000     -10.323206      -280.9087
   3   2.0000     -10.317598      -280.7561
   4   2.0000     -10.317307      -280.7482
   5   2.0000     -10.312036      -280.6048
   6   2.0000     -10.305418      -280.4247
   7   2.0000     -10.299617      -280.2668
   8   2.0000     -10.296630      -280.1855
   9   2.0000     -10.286459      -279.9088
  10   2.0000     -10.286390      -279.9069
  11   2.0000     -10.286321      -279.9050
  12   2.0000     -10.280860      -279.7564
  13   2.0000     -10.280281      -279.7407
  14   2.0000     -10.277302      -279.6596
  15   2.0000     -10.275915      -279.6219
  16   2.0000      -8.083017      -219.9501
  17   2.0000      -8.077857      -219.8097
  18   2.0000      -6.041470      -164.3967
  19   2.0000      -6.037508      -164.2890
  20   2.0000      -6.036213      -164.2537
  21   2.0000      -6.033731      -164.1862
  22   2.0000      -6.032183      -164.1441
  23   2.0000      -6.028839      -164.0531
  24   2.0000      -1.012255       -27.5449
  25   2.0000      -0.989693       -26.9309
  26   2.0000      -0.917032       -24.9537
  27   2.0000      -0.909762       -24.7559
  28   2.0000      -0.863764       -23.5042
  29   2.0000      -0.857317       -23.3288
  30   2.0000      -0.845451       -23.0059
  31   2.0000      -0.809608       -22.0306
  32   2.0000      -0.786620       -21.4050
  33   2.0000      -0.776299       -21.1242
  34   2.0000      -0.703024       -19.1303
  35   2.0000      -0.697108       -18.9693
  36   2.0000      -0.686114       -18.6701
  37   2.0000      -0.660706       -17.9787
  38   2.0000      -0.640346       -17.4247
  39   2.0000      -0.627589       -17.0776
  40   2.0000      -0.605916       -16.4878
  41   2.0000      -0.573969       -15.6185
  42   2.0000      -0.567366       -15.4388
  43   2.0000      -0.552919       -15.0457
  44   2.0000      -0.545223       -14.8363
  45   2.0000      -0.526881       -14.3372
  46   2.0000      -0.516826       -14.0636
  47   2.0000      -0.505249       -13.7485
  48   2.0000      -0.501345       -13.6423
  49   2.0000      -0.493090       -13.4176
  50   2.0000      -0.488457       -13.2916
  51   2.0000      -0.475006       -12.9256
  52   2.0000      -0.474437       -12.9101
  53   2.0000      -0.463753       -12.6194
  54   2.0000      -0.460311       -12.5257
  55   2.0000      -0.450063       -12.2468
  56   2.0000      -0.448054       -12.1922
  57   2.0000      -0.441639       -12.0176
  58   2.0000      -0.432908       -11.7800
  59   2.0000      -0.426867       -11.6156
  60   2.0000      -0.424740       -11.5578
  61   2.0000      -0.418207       -11.3800
  62   2.0000      -0.405626       -11.0377
  63   2.0000      -0.337980        -9.1969
  64   2.0000      -0.330398        -8.9906
  65   2.0000      -0.323774        -8.8103
  66   2.0000      -0.310903        -8.4601
  67   0.0000       0.046480         1.2648
  68   0.0000       0.063428         1.7260
  69   0.0000       0.116327         3.1654
  70   0.0000       0.125691         3.4202
  71   0.0000       0.128176         3.4878

MULLIKEN ATOMIC CHARGES
-----------------------
   0 S :    0.135608
   1 C :   -0.142269
   2 C :   -0.084457
   3 C :    0.040492
   4 C :   -0.142290
   5 H :   -0.017502
   6 C :    0.120424
   7 H :    0.040640
   8 H :    0.010472
   9 C :   -0.110663
  10 H :    0.035927
  11 H :    0.031348
  12 C :   -0.070258
  13 H :    0.034232
  14 H :    0.034409
  15 H :    0.030579
  16 S :    0.111010
  17 C :   -0.093248
  18 C :   -0.040306
  19 C :    0.012808
  20 C :   -0.215081
  21 H :    0.001277
  22 C :    0.099968
  23 H :    0.019419
  24 H :    0.012939
  25 C :   -0.070300
  26 H :    0.019946
  27 H :    0.037498
  28 C :   -0.052529
  29 H :    0.034010
  30 H :    0.036978
  31 H :    0.022211
  32 H :    0.051857
  33 H :    0.064851
Sum of atomic charges:    0.0000000

LOEWDIN ATOMIC CHARGES
----------------------
   0 S :    0.425295
   1 C :   -0.198562
   2 C :   -0.054920
   3 C :   -0.061457
   4 C :   -0.216494
   5 H :    0.020838
   6 C :   -0.024088
   7 H :    0.032721
   8 H :    0.027846
   9 C :   -0.039791
  10 H :    0.027827
  11 H :    0.015845
  12 C :   -0.063690
  13 H :    0.029164
  14 H :    0.012942
  15 H :    0.025495
  16 S :    0.416828
  17 C :   -0.198479
  18 C :   -0.067442
  19 C :   -0.053335
  20 C :   -0.194800
  21 H :    0.022506
  22 C :   -0.028304
  23 H :    0.030806
  24 H :    0.028508
  25 C :   -0.039290
  26 H :    0.016546
  27 H :    0.030700
  28 C :   -0.068587
  29 H :    0.028749
  30 H :    0.028805
  31 H :    0.025787
  32 H :    0.032961
  33 H :    0.029071

  Mayer bond orders larger than 0.100000
B(  0-S ,  1-C ) :   1.1339 B(  0-S ,  4-C ) :   1.1531 B(  1-C ,  2-C ) :   1.6375
B(  1-C , 32-H ) :   0.9621 B(  2-C ,  3-C ) :   1.2154 B(  2-C ,  6-C ) :   1.0074
B(  3-C ,  4-C ) :   1.6158 B(  3-C ,  5-H ) :   1.0049 B(  4-C , 20-C ) :   0.9773
B(  6-C ,  7-H ) :   0.9415 B(  6-C ,  8-H ) :   0.9436 B(  6-C ,  9-C ) :   1.0702
B(  9-C , 10-H ) :   0.9594 B(  9-C , 11-H ) :   0.9599 B(  9-C , 12-C ) :   1.0668
B( 12-C , 13-H ) :   0.9771 B( 12-C , 14-H ) :   0.9791 B( 12-C , 15-H ) :   0.9778
B( 16-S , 17-C ) :   1.1774 B( 16-S , 20-C ) :   1.1605 B( 17-C , 18-C ) :   1.5874
B( 17-C , 20-C ) :   0.1032 B( 17-C , 33-H ) :   0.9621 B( 18-C , 19-C ) :   1.2476
B( 18-C , 21-H ) :   0.9990 B( 19-C , 20-C ) :   1.6006 B( 19-C , 22-C ) :   1.0409
B( 22-C , 23-H ) :   0.9387 B( 22-C , 24-H ) :   0.9171 B( 22-C , 25-C ) :   1.0632
B( 25-C , 26-H ) :   0.9437 B( 25-C , 27-H ) :   0.9559 B( 25-C , 28-C ) :   1.1118
B( 28-C , 29-H ) :   0.9713 B( 28-C , 30-H ) :   0.9698 B( 28-C , 31-H ) :   0.9688

Dispersion correction           -0.014391551
FINAL SINGLE POINT ENERGY     -1339.878010777767

DIPOLE MOMENT
-------------
                                X             Y             Z
Electronic contribution:     24.89716      11.64544       5.95587
Nuclear contribution   :    -25.35050     -11.99142      -6.23708
                        -----------------------------------------
Total Dipole Moment    :     -0.45334      -0.34599      -0.28121
                        -----------------------------------------
Magnitude (a.u.)       :      0.63585
Magnitude (Debye)      :      1.61621

Rotational constants in cm-1:     0.016565     0.009521     0.007420
Rotational constants in MHz :   496.615475   285.425339   222.450418

                             ****ORCA TERMINATED NORMALLY****
TOTAL RUN TIME: 0 days 0 hours 0 minutes 20 seconds 782 msec
