                         Program Version 4.2.1 -  RELEASE  -
|  1> ! wB97X-D3 SP def2-SVP
|  2> %pal
|  3> nprocs 24
|  4> end
|  5>
|  6> * xyz 0 1
|  7> S 	 -53.4676 	 12.959 	 26.6812
|  8> C 	 -55.1791 	 12.5396 	 26.4021
|  9> C 	 -55.9774 	 13.6708 	 26.3774
| 10> C 	 -55.2235 	 14.8773 	 26.6758
| 11> C 	 -53.9088 	 14.647 	 26.9592
| 12> H 	 -55.6219 	 15.876 	 26.8222
| 13> C 	 -57.4877 	 13.6774 	 26.0491
| 14> H 	 -58.0116 	 13.4541 	 27.0025
| 15> H 	 -57.7629 	 12.736 	 25.4162
| 16> C 	 -58.0856 	 14.8935 	 25.3902
| 17> H 	 -57.9372 	 15.7376 	 26.0499
| 18> H 	 -57.5634 	 15.1001 	 24.4549
| 19> C 	 -59.5989 	 14.7928 	 25.168
| 20> H 	 -60.0079 	 15.7409 	 24.7067
| 21> H 	 -59.7574 	 14.0158 	 24.3484
| 22> H 	 -60.0296 	 14.524 	 26.1227
| 23> S 	 -52.535 	 15.3175 	 29.2546
| 24> C 	 -51.394 	 16.6208 	 29.207
| 25> C 	 -51.3609 	 17.2306 	 27.9709
| 26> C 	 -52.0787 	 16.5294 	 26.9793
| 27> C 	 -52.8581 	 15.5265 	 27.5181
| 28> H 	 -50.8175 	 18.1658 	 27.8453
| 29> C 	 -52.1776 	 17.08 	 25.5597
| 30> H 	 -52.375 	 16.3181 	 24.9344
| 31> H 	 -51.1521 	 17.4071 	 25.3087
| 32> C 	 -53.1704 	 18.1688 	 25.2259
| 33> H 	 -54.1633 	 17.7149 	 25.2738
| 34> H 	 -52.9731 	 18.3741 	 24.2033
| 35> C 	 -53.1349 	 19.4401 	 26.1042
| 36> H 	 -53.7817 	 20.2554 	 25.64
| 37> H 	 -52.149 	 19.9383 	 26.2125
| 38> H 	 -53.5245 	 19.175 	 27.0481
| 39> H 	 -55.5902 	 11.5419 	 26.2924
| 40> H 	 -50.9614 	 16.9291 	 30.0993
| 41> *
| 42>
| 43>                          ****END OF INPUT****

CARTESIAN COORDINATES (ANGSTROEM)
---------------------------------
  S    -53.467600   12.959000   26.681200
  C    -55.179100   12.539600   26.402100
  C    -55.977400   13.670800   26.377400
  C    -55.223500   14.877300   26.675800
  C    -53.908800   14.647000   26.959200
  H    -55.621900   15.876000   26.822200
  C    -57.487700   13.677400   26.049100
  H    -58.011600   13.454100   27.002500
  H    -57.762900   12.736000   25.416200
  C    -58.085600   14.893500   25.390200
  H    -57.937200   15.737600   26.049900
  H    -57.563400   15.100100   24.454900
  C    -59.598900   14.792800   25.168000
  H    -60.007900   15.740900   24.706700
  H    -59.757400   14.015800   24.348400
  H    -60.029600   14.524000   26.122700
  S    -52.535000   15.317500   29.254600
  C    -51.394000   16.620800   29.207000
  C    -51.360900   17.230600   27.970900
  C    -52.078700   16.529400   26.979300
  C    -52.858100   15.526500   27.518100
  H    -50.817500   18.165800   27.845300
  C    -52.177600   17.080000   25.559700
  H    -52.375000   16.318100   24.934400
  H    -51.152100   17.407100   25.308700
  C    -53.170400   18.168800   25.225900
  H    -54.163300   17.714900   25.273800
  H    -52.973100   18.374100   24.203300
  C    -53.134900   19.440100   26.104200
  H    -53.781700   20.255400   25.640000
  H    -52.149000   19.938300   26.212500
  H    -53.524500   19.175000   27.048100
  H    -55.590200   11.541900   26.292400
  H    -50.961400   16.929100   30.099300

 Total Charge           Charge          ....    0
 Multiplicity           Mult            ....    1
 Number of Electrons    NEL             ....  134
 Basis Dimension        Dim             ....  322

ORBITAL ENERGIES
----------------

  NO   OCC          E(Eh)            E(eV)
   0   2.0000     -88.962965     -2420.8053
   1   2.0000     -88.962593     -2420.7952
   2   2.0000     -10.329878      -281.0903
   3   2.0000     -10.326817      -281.0070
   4   2.0000     -10.316049      -280.7140
   5   2.0000     -10.311911      -280.6014
   6   2.0000     -10.307202      -280.4732
   7   2.0000     -10.302955      -280.3577
   8   2.0000     -10.301417      -280.3158
   9   2.0000     -10.297456      -280.2080
  10   2.0000     -10.291735      -280.0524
  11   2.0000     -10.290057      -280.0067
  12   2.0000     -10.286220      -279.9023
  13   2.0000     -10.283422      -279.8261
  14   2.0000     -10.281278      -279.7678
  15   2.0000     -10.280673      -279.7513
  16   2.0000      -8.077589      -219.8024
  17   2.0000      -8.077097      -219.7890
  18   2.0000      -6.035932      -164.2461
  19   2.0000      -6.035706      -164.2399
  20   2.0000      -6.032050      -164.1404
  21   2.0000      -6.031761      -164.1326
  22   2.0000      -6.028516      -164.0442
  23   2.0000      -6.027694      -164.0219
  24   2.0000      -1.003250       -27.2998
  25   2.0000      -0.980557       -26.6823
  26   2.0000      -0.912338       -24.8260
  27   2.0000      -0.911747       -24.8099
  28   2.0000      -0.867082       -23.5945
  29   2.0000      -0.848312       -23.0838
  30   2.0000      -0.841526       -22.8991
  31   2.0000      -0.814516       -22.1641
  32   2.0000      -0.788939       -21.4681
  33   2.0000      -0.770962       -20.9789
  34   2.0000      -0.709332       -19.3019
  35   2.0000      -0.696623       -18.9561
  36   2.0000      -0.685052       -18.6412
  37   2.0000      -0.662953       -18.0399
  38   2.0000      -0.642636       -17.4870
  39   2.0000      -0.616050       -16.7636
  40   2.0000      -0.597197       -16.2506
  41   2.0000      -0.574911       -15.6441
  42   2.0000      -0.565898       -15.3989
  43   2.0000      -0.558298       -15.1921
  44   2.0000      -0.541958       -14.7474
  45   2.0000      -0.524948       -14.2846
  46   2.0000      -0.515951       -14.0397
  47   2.0000      -0.506051       -13.7704
  48   2.0000      -0.497756       -13.5446
  49   2.0000      -0.494113       -13.4455
  50   2.0000      -0.493383       -13.4256
  51   2.0000      -0.480179       -13.0663
  52   2.0000      -0.471316       -12.8252
  53   2.0000      -0.463673       -12.6172
  54   2.0000      -0.456502       -12.4221
  55   2.0000      -0.451677       -12.2908
  56   2.0000      -0.443340       -12.0639
  57   2.0000      -0.435740       -11.8571
  58   2.0000      -0.432539       -11.7700
  59   2.0000      -0.428561       -11.6617
  60   2.0000      -0.420620       -11.4456
  61   2.0000      -0.417638       -11.3645
  62   2.0000      -0.413201       -11.2438
  63   2.0000      -0.338218        -9.2034
  64   2.0000      -0.328379        -8.9356
  65   2.0000      -0.319383        -8.6908
  66   2.0000      -0.310011        -8.4358
  67   0.0000       0.040679         1.1069
  68   0.0000       0.056527         1.5382
  69   0.0000       0.113568         3.0904
  70   0.0000       0.120893         3.2897
  71   0.0000       0.130442         3.5495

MULLIKEN ATOMIC CHARGES
-----------------------
   0 S :    0.107373
   1 C :   -0.122647
   2 C :   -0.068649
   3 C :    0.050348
   4 C :   -0.175370
   5 H :    0.016851
   6 C :    0.008702
   7 H :    0.039704
   8 H :    0.031818
   9 C :   -0.078377
  10 H :    0.028524
  11 H :    0.035414
  12 C :   -0.063917
  13 H :    0.048682
  14 H :    0.038956
  15 H :    0.037720
  16 S :    0.109227
  17 C :   -0.067952
  18 C :   -0.043202
  19 C :   -0.022439
  20 C :   -0.194149
  21 H :    0.022718
  22 C :    0.118173
  23 H :   -0.005552
  24 H :    0.016504
  25 C :   -0.034891
  26 H :    0.021698
  27 H :    0.022154
  28 C :   -0.071966
  29 H :    0.040634
  30 H :    0.033574
  31 H :    0.039055
  32 H :    0.046126
  33 H :    0.035156
Sum of atomic charges:   -0.0000000

LOEWDIN ATOMIC CHARGES
----------------------
   0 S :    0.383167
   1 C :   -0.186660
   2 C :   -0.062280
   3 C :   -0.063445
   4 C :   -0.188476
   5 H :    0.032312
   6 C :   -0.042842
   7 H :    0.033858
   8 H :    0.036243
   9 C :   -0.049494
  10 H :    0.020410
  11 H :    0.025680
  12 C :   -0.064891
  13 H :    0.034522
  14 H :    0.030972
  15 H :    0.023826
  16 S :    0.405223
  17 C :   -0.172315
  18 C :   -0.072129
  19 C :   -0.053260
  20 C :   -0.199421
  21 H :    0.033435
  22 C :   -0.021693
  23 H :    0.016820
  24 H :    0.031935
  25 C :   -0.031434
  26 H :    0.025251
  27 H :    0.022023
  28 C :   -0.069728
  29 H :    0.034848
  30 H :    0.025176
  31 H :    0.020217
  32 H :    0.029254
  33 H :    0.012898

  Mayer bond orders larger than 0.100000
B(  0-S ,  1-C ) :   1.1215 B(  0-S ,  4-C ) :   1.1449 B(  1-C ,  2-C ) :   1.6553
B(  1-C , 32-H ) :   0.9691 B(  2-C ,  3-C ) :   1.1973 B(  2-C ,  6-C ) :   1.0042
B(  3-C ,  4-C ) :   1.6386 B(  3-C ,  5-H ) :   0.9885 B(  4-C , 20-C ) :   0.9918
B(  6-C ,  7-H ) :   0.9319 B(  6-C ,  8-H ) :   0.9483 B(  6-C ,  9-C ) :   1.0744
B(  9-C , 10-H ) :   0.9426 B(  9-C , 11-H ) :   0.9569 B(  9-C , 12-C ) :   1.0851
B( 12-C , 13-H ) :   0.9732 B( 12-C , 14-H ) :   0.9754 B( 12-C , 15-H ) :   0.9738
B( 16-S , 17-C ) :   1.1678 B( 16-S , 20-C ) :   1.1515 B( 17-C , 18-C ) :   1.5951
B( 17-C , 20-C ) :   0.1028 B( 17-C , 33-H ) :   0.9771 B( 18-C , 19-C ) :   1.2327
B( 18-C , 21-H ) :   0.9904 B( 19-C , 20-C ) :   1.6031 B( 19-C , 22-C ) :   1.0485
B( 22-C , 23-H ) :   0.9162 B( 22-C , 24-H ) :   0.9289 B( 22-C , 25-C ) :   1.0867
B( 25-C , 26-H ) :   0.9507 B( 25-C , 27-H ) :   0.9504 B( 25-C , 28-C ) :   1.0793
B( 28-C , 29-H ) :   0.9732 B( 28-C , 30-H ) :   0.9751 B( 28-C , 31-H ) :   0.9724

Dispersion correction           -0.014438486
FINAL SINGLE POINT ENERGY     -1339.880768334495

DIPOLE MOMENT
-------------
                                X             Y             Z
Electronic contribution:     18.70088     -15.47001      14.67644
Nuclear contribution   :    -19.11832      15.96151     -14.90843
                        -----------------------------------------
Total Dipole Moment    :     -0.41744       0.49150      -0.23199
                        -----------------------------------------
Magnitude (a.u.)       :      0.68531
Magnitude (Debye)      :      1.74191

Rotational constants in cm-1:     0.018277     0.008475     0.006702
Rotational constants in MHz :   547.929062   254.071227   200.934716

                             ****ORCA TERMINATED NORMALLY****
TOTAL RUN TIME: 0 days 0 hours 0 minutes 21 seconds 488 msec
