                         Program Version 4.2.1 -  RELEASE  -
|  1> ! wB97X-D3 SP def2-SVP
|  2> %pal
|  3> nprocs 24
|  4> end
|  5>
|  6> * xyz 0 1
|  7> S 	 -100.639 	 43.8946 	 -91.5315
|  8> C 	 -100.84 	 42.2333 	 -92.0473
|  9> C 	 -101.671 	 41.5564 	 -91.0925
| 10> C 	 -102.291 	 42.4591 	 -90.2061
| 11> C 	 -101.846 	 43.8012 	 -90.2899
| 12> H 	 -103.101 	 42.1828 	 -89.5829
| 13> C 	 -101.798 	 40.0525 	 -91.0092
| 14> H 	 -101.831 	 39.5469 	 -91.9607
| 15> H 	 -102.779 	 39.8517 	 -90.6145
| 16> C 	 -100.656 	 39.401 	 -90.1495
| 17> H 	 -100.696 	 38.2886 	 -90.1405
| 18> H 	 -99.7561 	 39.6201 	 -90.6617
| 19> C 	 -100.628 	 39.8973 	 -88.7009
| 20> H 	 -100.198 	 40.902 	 -88.7687
| 21> H 	 -101.628 	 40.0519 	 -88.2546
| 22> H 	 -99.8607 	 39.3036 	 -88.1654
| 23> S 	 -102.657 	 46.4821 	 -90.5694
| 24> C 	 -103.458 	 47.3815 	 -89.269
| 25> C 	 -103.571 	 46.5563 	 -88.2196
| 26> C 	 -102.944 	 45.2792 	 -88.3998
| 27> C 	 -102.339 	 45.0543 	 -89.618
| 28> H 	 -104.132 	 46.8968 	 -87.2417
| 29> C 	 -102.898 	 44.2633 	 -87.2183
| 30> H 	 -103.222 	 43.2223 	 -87.3768
| 31> H 	 -103.488 	 44.5666 	 -86.4122
| 32> C 	 -101.431 	 43.9749 	 -86.6285
| 33> H 	 -100.849 	 44.8184 	 -86.3573
| 34> H 	 -100.89 	 43.4045 	 -87.3031
| 35> C 	 -101.495 	 42.9724 	 -85.5043
| 36> H 	 -102.199 	 43.3313 	 -84.6467
| 37> H 	 -100.522 	 42.6754 	 -85.0202
| 38> H 	 -101.935 	 42.0624 	 -85.829
| 39> H 	 -100.186 	 41.6743 	 -92.6453
| 40> H 	 -104.143 	 48.2355 	 -89.3166
| 41> *
| 42>
| 43>                          ****END OF INPUT****

CARTESIAN COORDINATES (ANGSTROEM)
---------------------------------
  S    -100.639000   43.894600  -91.531500
  C    -100.840000   42.233300  -92.047300
  C    -101.671000   41.556400  -91.092500
  C    -102.291000   42.459100  -90.206100
  C    -101.846000   43.801200  -90.289900
  H    -103.101000   42.182800  -89.582900
  C    -101.798000   40.052500  -91.009200
  H    -101.831000   39.546900  -91.960700
  H    -102.779000   39.851700  -90.614500
  C    -100.656000   39.401000  -90.149500
  H    -100.696000   38.288600  -90.140500
  H    -99.756100   39.620100  -90.661700
  C    -100.628000   39.897300  -88.700900
  H    -100.198000   40.902000  -88.768700
  H    -101.628000   40.051900  -88.254600
  H    -99.860700   39.303600  -88.165400
  S    -102.657000   46.482100  -90.569400
  C    -103.458000   47.381500  -89.269000
  C    -103.571000   46.556300  -88.219600
  C    -102.944000   45.279200  -88.399800
  C    -102.339000   45.054300  -89.618000
  H    -104.132000   46.896800  -87.241700
  C    -102.898000   44.263300  -87.218300
  H    -103.222000   43.222300  -87.376800
  H    -103.488000   44.566600  -86.412200
  C    -101.431000   43.974900  -86.628500
  H    -100.849000   44.818400  -86.357300
  H    -100.890000   43.404500  -87.303100
  C    -101.495000   42.972400  -85.504300
  H    -102.199000   43.331300  -84.646700
  H    -100.522000   42.675400  -85.020200
  H    -101.935000   42.062400  -85.829000
  H    -100.186000   41.674300  -92.645300
  H    -104.143000   48.235500  -89.316600

 Total Charge           Charge          ....    0
 Multiplicity           Mult            ....    1
 Number of Electrons    NEL             ....  134
 Basis Dimension        Dim             ....  322

ORBITAL ENERGIES
----------------

  NO   OCC          E(Eh)            E(eV)
   0   2.0000     -88.973469     -2421.0912
   1   2.0000     -88.965753     -2420.8812
   2   2.0000     -10.344425      -281.4861
   3   2.0000     -10.337226      -281.2902
   4   2.0000     -10.319313      -280.8028
   5   2.0000     -10.317212      -280.7456
   6   2.0000     -10.309497      -280.5357
   7   2.0000     -10.308327      -280.5038
   8   2.0000     -10.302945      -280.3574
   9   2.0000     -10.298932      -280.2482
  10   2.0000     -10.294870      -280.1377
  11   2.0000     -10.293944      -280.1125
  12   2.0000     -10.289782      -279.9992
  13   2.0000     -10.281414      -279.7715
  14   2.0000     -10.281100      -279.7630
  15   2.0000     -10.275621      -279.6139
  16   2.0000      -8.087774      -220.0795
  17   2.0000      -8.080315      -219.8765
  18   2.0000      -6.046203      -164.5256
  19   2.0000      -6.042055      -164.4127
  20   2.0000      -6.039042      -164.3307
  21   2.0000      -6.038928      -164.3276
  22   2.0000      -6.034736      -164.2135
  23   2.0000      -6.030872      -164.1084
  24   2.0000      -1.009386       -27.4668
  25   2.0000      -0.988953       -26.9108
  26   2.0000      -0.912905       -24.8414
  27   2.0000      -0.903317       -24.5805
  28   2.0000      -0.870179       -23.6788
  29   2.0000      -0.851052       -23.1583
  30   2.0000      -0.843747       -22.9595
  31   2.0000      -0.821406       -22.3516
  32   2.0000      -0.783091       -21.3090
  33   2.0000      -0.768390       -20.9090
  34   2.0000      -0.708405       -19.2767
  35   2.0000      -0.703441       -19.1416
  36   2.0000      -0.695106       -18.9148
  37   2.0000      -0.658324       -17.9139
  38   2.0000      -0.641933       -17.4679
  39   2.0000      -0.622685       -16.9441
  40   2.0000      -0.596163       -16.2224
  41   2.0000      -0.577102       -15.7037
  42   2.0000      -0.563992       -15.3470
  43   2.0000      -0.551644       -15.0110
  44   2.0000      -0.546984       -14.8842
  45   2.0000      -0.518720       -14.1151
  46   2.0000      -0.516478       -14.0541
  47   2.0000      -0.513342       -13.9687
  48   2.0000      -0.507217       -13.8021
  49   2.0000      -0.500661       -13.6237
  50   2.0000      -0.489059       -13.3080
  51   2.0000      -0.481570       -13.1042
  52   2.0000      -0.473968       -12.8973
  53   2.0000      -0.465873       -12.6770
  54   2.0000      -0.455573       -12.3968
  55   2.0000      -0.447791       -12.1850
  56   2.0000      -0.441403       -12.0112
  57   2.0000      -0.439779       -11.9670
  58   2.0000      -0.429328       -11.6826
  59   2.0000      -0.425656       -11.5827
  60   2.0000      -0.417639       -11.3645
  61   2.0000      -0.414010       -11.2658
  62   2.0000      -0.410252       -11.1635
  63   2.0000      -0.360006        -9.7962
  64   2.0000      -0.334236        -9.0950
  65   2.0000      -0.328526        -8.9396
  66   2.0000      -0.293865        -7.9965
  67   0.0000       0.017124         0.4660
  68   0.0000       0.066187         1.8010
  69   0.0000       0.109985         2.9928
  70   0.0000       0.114063         3.1038
  71   0.0000       0.125039         3.4025

MULLIKEN ATOMIC CHARGES
-----------------------
   0 S :    0.116977
   1 C :   -0.071798
   2 C :   -0.150318
   3 C :    0.039472
   4 C :   -0.149148
   5 H :    0.001405
   6 C :    0.075348
   7 H :    0.024717
   8 H :    0.015918
   9 C :   -0.068869
  10 H :    0.033999
  11 H :    0.014777
  12 C :   -0.069449
  13 H :    0.044882
  14 H :    0.042099
  15 H :    0.044288
  16 S :    0.086945
  17 C :   -0.079162
  18 C :   -0.073453
  19 C :   -0.051352
  20 C :   -0.083888
  21 H :    0.061019
  22 C :    0.053717
  23 H :    0.015381
  24 H :   -0.000973
  25 C :   -0.012576
  26 H :    0.028799
  27 H :    0.014959
  28 C :   -0.101266
  29 H :    0.026865
  30 H :    0.045229
  31 H :    0.015416
  32 H :    0.037593
  33 H :    0.072448
Sum of atomic charges:   -0.0000000

LOEWDIN ATOMIC CHARGES
----------------------
   0 S :    0.431803
   1 C :   -0.199078
   2 C :   -0.055547
   3 C :   -0.063515
   4 C :   -0.192072
   5 H :    0.023810
   6 C :   -0.030871
   7 H :    0.031182
   8 H :    0.025410
   9 C :   -0.035853
  10 H :    0.024362
  11 H :    0.016830
  12 C :   -0.073178
  13 H :    0.028837
  14 H :    0.026998
  15 H :    0.033037
  16 S :    0.401546
  17 C :   -0.188869
  18 C :   -0.084477
  19 C :   -0.064418
  20 C :   -0.196981
  21 H :    0.052234
  22 C :   -0.023714
  23 H :    0.028800
  24 H :    0.016425
  25 C :   -0.030898
  26 H :    0.019135
  27 H :    0.016600
  28 C :   -0.071818
  29 H :    0.024997
  30 H :    0.032719
  31 H :    0.013596
  32 H :    0.017777
  33 H :    0.045193

  Mayer bond orders larger than 0.100000
B(  0-S ,  1-C ) :   1.1610 B(  0-S ,  4-C ) :   1.1913 B(  1-C ,  2-C ) :   1.5463
B(  1-C ,  4-C ) :   0.1185 B(  1-C , 32-H ) :   0.9696 B(  2-C ,  3-C ) :   1.3062
B(  2-C ,  6-C ) :   1.0306 B(  3-C ,  4-C ) :   1.5050 B(  3-C ,  5-H ) :   0.9952
B(  4-C , 20-C ) :   1.0207 B(  6-C ,  7-H ) :   0.9418 B(  6-C ,  8-H ) :   0.9432
B(  6-C ,  9-C ) :   1.0581 B(  9-C , 10-H ) :   0.9602 B(  9-C , 11-H ) :   0.9560
B(  9-C , 12-C ) :   1.0766 B( 12-C , 13-H ) :   0.9698 B( 12-C , 14-H ) :   0.9753
B( 12-C , 15-H ) :   0.9703 B( 16-S , 17-C ) :   1.1423 B( 16-S , 20-C ) :   1.1336
B( 17-C , 18-C ) :   1.6315 B( 17-C , 33-H ) :   0.9563 B( 18-C , 19-C ) :   1.2677
B( 18-C , 21-H ) :   0.9656 B( 19-C , 20-C ) :   1.5966 B( 19-C , 22-C ) :   1.0365
B( 22-C , 23-H ) :   0.9425 B( 22-C , 24-H ) :   0.9452 B( 22-C , 25-C ) :   1.0480
B( 25-C , 26-H ) :   0.9599 B( 25-C , 27-H ) :   0.9519 B( 25-C , 28-C ) :   1.0787
B( 28-C , 29-H ) :   0.9738 B( 28-C , 30-H ) :   0.9721 B( 28-C , 31-H ) :   0.9727

Dispersion correction           -0.015462767
FINAL SINGLE POINT ENERGY     -1339.850584333328

DIPOLE MOMENT
-------------
                                X             Y             Z
Electronic contribution:     -2.52949      22.97384     -20.63624
Nuclear contribution   :      2.34487     -23.51684      21.03961
                        -----------------------------------------
Total Dipole Moment    :     -0.18462      -0.54300       0.40337
                        -----------------------------------------
Magnitude (a.u.)       :      0.70117
Magnitude (Debye)      :      1.78224

Rotational constants in cm-1:     0.018419     0.010079     0.007120
Rotational constants in MHz :   552.189185   302.148451   213.446492

                             ****ORCA TERMINATED NORMALLY****
TOTAL RUN TIME: 0 days 0 hours 0 minutes 22 seconds 615 msec
