                         Program Version 4.2.1 -  RELEASE  -
|  1> ! wB97X-D3 SP def2-SVP
|  2> %pal
|  3> nprocs 24
|  4> end
|  5>
|  6> * xyz 0 1
|  7> S 	 -130.387 	 23.8886 	 -17.025
|  8> C 	 -131.546 	 22.5966 	 -17.4863
|  9> C 	 -132.815 	 23.0533 	 -17.2623
| 10> C 	 -132.851 	 24.3962 	 -16.7704
| 11> C 	 -131.626 	 25.0157 	 -16.6285
| 12> H 	 -133.774 	 24.9615 	 -16.6871
| 13> C 	 -134.08 	 22.3631 	 -17.7801
| 14> H 	 -133.924 	 21.3059 	 -17.8168
| 15> H 	 -134.201 	 22.6261 	 -18.8375
| 16> C 	 -135.344 	 22.5768 	 -17.013
| 17> H 	 -135.697 	 23.6165 	 -16.9333
| 18> H 	 -136.163 	 21.9728 	 -17.3998
| 19> C 	 -135.3 	 22.1285 	 -15.5178
| 20> H 	 -134.718 	 21.1564 	 -15.3724
| 21> H 	 -134.731 	 22.9006 	 -14.9361
| 22> H 	 -136.272 	 22.0671 	 -15.0881
| 23> S 	 -130.478 	 27.2773 	 -17.6114
| 24> C 	 -130.746 	 28.7683 	 -16.7632
| 25> C 	 -131.441 	 28.5704 	 -15.564
| 26> C 	 -131.694 	 27.1878 	 -15.2877
| 27> C 	 -131.373 	 26.412 	 -16.3782
| 28> H 	 -131.745 	 29.3108 	 -14.8319
| 29> C 	 -132.292 	 26.6359 	 -14.0177
| 30> H 	 -131.704 	 27.0818 	 -13.1383
| 31> H 	 -132.207 	 25.5072 	 -13.9791
| 32> C 	 -133.776 	 26.9507 	 -13.8548
| 33> H 	 -134.267 	 26.1223 	 -14.2829
| 34> H 	 -134.099 	 27.8175 	 -14.4573
| 35> C 	 -134.32 	 27.0202 	 -12.4584
| 36> H 	 -133.515 	 26.9704 	 -11.7396
| 37> H 	 -135.111 	 26.2827 	 -12.345
| 38> H 	 -134.901 	 27.9195 	 -12.2546
| 39> H 	 -131.217 	 21.6339 	 -17.8734
| 40> H 	 -130.244 	 29.6619 	 -17.1171
| 41> *
| 42>
| 43>                          ****END OF INPUT****

CARTESIAN COORDINATES (ANGSTROEM)
---------------------------------
  S    -130.387000   23.888600  -17.025000
  C    -131.546000   22.596600  -17.486300
  C    -132.815000   23.053300  -17.262300
  C    -132.851000   24.396200  -16.770400
  C    -131.626000   25.015700  -16.628500
  H    -133.774000   24.961500  -16.687100
  C    -134.080000   22.363100  -17.780100
  H    -133.924000   21.305900  -17.816800
  H    -134.201000   22.626100  -18.837500
  C    -135.344000   22.576800  -17.013000
  H    -135.697000   23.616500  -16.933300
  H    -136.163000   21.972800  -17.399800
  C    -135.300000   22.128500  -15.517800
  H    -134.718000   21.156400  -15.372400
  H    -134.731000   22.900600  -14.936100
  H    -136.272000   22.067100  -15.088100
  S    -130.478000   27.277300  -17.611400
  C    -130.746000   28.768300  -16.763200
  C    -131.441000   28.570400  -15.564000
  C    -131.694000   27.187800  -15.287700
  C    -131.373000   26.412000  -16.378200
  H    -131.745000   29.310800  -14.831900
  C    -132.292000   26.635900  -14.017700
  H    -131.704000   27.081800  -13.138300
  H    -132.207000   25.507200  -13.979100
  C    -133.776000   26.950700  -13.854800
  H    -134.267000   26.122300  -14.282900
  H    -134.099000   27.817500  -14.457300
  C    -134.320000   27.020200  -12.458400
  H    -133.515000   26.970400  -11.739600
  H    -135.111000   26.282700  -12.345000
  H    -134.901000   27.919500  -12.254600
  H    -131.217000   21.633900  -17.873400
  H    -130.244000   29.661900  -17.117100

 Total Charge           Charge          ....    0
 Multiplicity           Mult            ....    1
 Number of Electrons    NEL             ....  134
 Basis Dimension        Dim             ....  322

ORBITAL ENERGIES
----------------

  NO   OCC          E(Eh)            E(eV)
   0   2.0000     -88.965947     -2420.8865
   1   2.0000     -88.962150     -2420.7832
   2   2.0000     -10.326336      -280.9939
   3   2.0000     -10.321985      -280.8755
   4   2.0000     -10.321362      -280.8585
   5   2.0000     -10.316993      -280.7397
   6   2.0000     -10.302242      -280.3383
   7   2.0000     -10.302206      -280.3373
   8   2.0000     -10.300349      -280.2867
   9   2.0000     -10.299315      -280.2586
  10   2.0000     -10.291895      -280.0567
  11   2.0000     -10.291827      -280.0549
  12   2.0000     -10.287662      -279.9415
  13   2.0000     -10.281463      -279.7728
  14   2.0000     -10.277304      -279.6596
  15   2.0000     -10.273072      -279.5445
  16   2.0000      -8.081107      -219.8981
  17   2.0000      -8.076982      -219.7858
  18   2.0000      -6.039495      -164.3430
  19   2.0000      -6.035605      -164.2372
  20   2.0000      -6.035563      -164.2360
  21   2.0000      -6.031915      -164.1367
  22   2.0000      -6.031353      -164.1215
  23   2.0000      -6.027757      -164.0236
  24   2.0000      -1.009477       -27.4693
  25   2.0000      -0.984533       -26.7905
  26   2.0000      -0.914716       -24.8907
  27   2.0000      -0.913505       -24.8577
  28   2.0000      -0.870140       -23.6777
  29   2.0000      -0.857178       -23.3250
  30   2.0000      -0.838160       -22.8075
  31   2.0000      -0.812781       -22.1169
  32   2.0000      -0.785758       -21.3816
  33   2.0000      -0.774884       -21.0857
  34   2.0000      -0.705489       -19.1973
  35   2.0000      -0.694758       -18.9053
  36   2.0000      -0.691076       -18.8051
  37   2.0000      -0.664479       -18.0814
  38   2.0000      -0.640617       -17.4321
  39   2.0000      -0.623749       -16.9731
  40   2.0000      -0.603949       -16.4343
  41   2.0000      -0.565603       -15.3908
  42   2.0000      -0.559904       -15.2358
  43   2.0000      -0.557061       -15.1584
  44   2.0000      -0.538275       -14.6472
  45   2.0000      -0.532002       -14.4765
  46   2.0000      -0.522766       -14.2252
  47   2.0000      -0.512570       -13.9477
  48   2.0000      -0.508017       -13.8238
  49   2.0000      -0.497019       -13.5246
  50   2.0000      -0.489698       -13.3254
  51   2.0000      -0.480250       -13.0683
  52   2.0000      -0.471370       -12.8266
  53   2.0000      -0.462072       -12.5736
  54   2.0000      -0.458420       -12.4742
  55   2.0000      -0.453401       -12.3377
  56   2.0000      -0.447390       -12.1741
  57   2.0000      -0.437064       -11.8931
  58   2.0000      -0.430755       -11.7214
  59   2.0000      -0.425511       -11.5787
  60   2.0000      -0.419387       -11.4121
  61   2.0000      -0.408918       -11.1272
  62   2.0000      -0.406149       -11.0519
  63   2.0000      -0.340335        -9.2610
  64   2.0000      -0.333190        -9.0666
  65   2.0000      -0.327664        -8.9162
  66   2.0000      -0.297691        -8.1006
  67   0.0000       0.032243         0.8774
  68   0.0000       0.067378         1.8334
  69   0.0000       0.113021         3.0755
  70   0.0000       0.118473         3.2238
  71   0.0000       0.126071         3.4306

MULLIKEN ATOMIC CHARGES
-----------------------
   0 S :    0.095678
   1 C :   -0.148987
   2 C :   -0.067604
   3 C :    0.026448
   4 C :   -0.156084
   5 H :    0.012897
   6 C :    0.098902
   7 H :    0.010176
   8 H :    0.050305
   9 C :   -0.092866
  10 H :    0.032838
  11 H :    0.032504
  12 C :   -0.092828
  13 H :    0.039799
  14 H :    0.034580
  15 H :    0.035073
  16 S :    0.117776
  17 C :   -0.093480
  18 C :   -0.016448
  19 C :   -0.034766
  20 C :   -0.175709
  21 H :    0.017629
  22 C :    0.028545
  23 H :    0.043319
  24 H :    0.054301
  25 C :   -0.077937
  26 H :    0.011517
  27 H :    0.036384
  28 C :   -0.021662
  29 H :    0.030354
  30 H :    0.025792
  31 H :    0.022883
  32 H :    0.054449
  33 H :    0.066222
Sum of atomic charges:    0.0000000

LOEWDIN ATOMIC CHARGES
----------------------
   0 S :    0.394729
   1 C :   -0.182354
   2 C :   -0.064139
   3 C :   -0.068852
   4 C :   -0.201918
   5 H :    0.028834
   6 C :   -0.030641
   7 H :    0.027839
   8 H :    0.040659
   9 C :   -0.048275
  10 H :    0.023732
  11 H :    0.027829
  12 C :   -0.071147
  13 H :    0.030187
  14 H :    0.024762
  15 H :    0.019856
  16 S :    0.414082
  17 C :   -0.186133
  18 C :   -0.067045
  19 C :   -0.053165
  20 C :   -0.201779
  21 H :    0.031501
  22 C :   -0.034440
  23 H :    0.036778
  24 H :    0.041876
  25 C :   -0.051934
  26 H :    0.019554
  27 H :    0.026374
  28 C :   -0.066150
  29 H :    0.023460
  30 H :    0.028480
  31 H :    0.028227
  32 H :    0.030661
  33 H :    0.028551

  Mayer bond orders larger than 0.100000
B(  0-S ,  1-C ) :   1.1243 B(  0-S ,  4-C ) :   1.1598 B(  1-C ,  2-C ) :   1.6111
B(  1-C , 32-H ) :   0.9758 B(  2-C ,  3-C ) :   1.2394 B(  2-C ,  6-C ) :   1.0142
B(  3-C ,  4-C ) :   1.5717 B(  3-C ,  5-H ) :   0.9915 B(  4-C , 20-C ) :   1.0305
B(  6-C ,  7-H ) :   0.9344 B(  6-C ,  8-H ) :   0.9379 B(  6-C ,  9-C ) :   1.0850
B(  9-C , 10-H ) :   0.9510 B(  9-C , 11-H ) :   0.9565 B(  9-C , 12-C ) :   1.0710
B( 12-C , 13-H ) :   0.9756 B( 12-C , 14-H ) :   0.9738 B( 12-C , 15-H ) :   0.9771
B( 16-S , 17-C ) :   1.1637 B( 16-S , 20-C ) :   1.1436 B( 17-C , 18-C ) :   1.5760
B( 17-C , 20-C ) :   0.1002 B( 17-C , 33-H ) :   0.9719 B( 18-C , 19-C ) :   1.2486
B( 18-C , 21-H ) :   0.9877 B( 19-C , 20-C ) :   1.6015 B( 19-C , 22-C ) :   1.0541
B( 22-C , 23-H ) :   0.9382 B( 22-C , 24-H ) :   0.9329 B( 22-C , 25-C ) :   1.0488
B( 25-C , 26-H ) :   0.9564 B( 25-C , 27-H ) :   0.9661 B( 25-C , 28-C ) :   1.0679
B( 28-C , 29-H ) :   0.9782 B( 28-C , 30-H ) :   0.9788 B( 28-C , 31-H ) :   0.9734

Dispersion correction           -0.014713029
FINAL SINGLE POINT ENERGY     -1339.881749233998

DIPOLE MOMENT
-------------
                                X             Y             Z
Electronic contribution:     25.47662       6.44550     -15.88105
Nuclear contribution   :    -26.08195      -6.45714      16.01087
                        -----------------------------------------
Total Dipole Moment    :     -0.60534      -0.01164       0.12982
                        -----------------------------------------
Magnitude (a.u.)       :      0.61921
Magnitude (Debye)      :      1.57390

Rotational constants in cm-1:     0.016201     0.010389     0.007121
Rotational constants in MHz :   485.689026   311.456465   213.471277

                             ****ORCA TERMINATED NORMALLY****
TOTAL RUN TIME: 0 days 0 hours 0 minutes 21 seconds 140 msec
