                         Program Version 4.2.1 -  RELEASE  -
|  1> ! wB97X-D3 SP def2-SVP
|  2> %pal
|  3> nprocs 24
|  4> end
|  5>
|  6> * xyz 0 1
|  7> S 	 -30.1982 	 -7.16325 	 1.50387
|  8> C 	 -29.7086 	 -7.0342 	 3.19591
|  9> C 	 -30.8606 	 -7.36352 	 3.90088
| 10> C 	 -32.0152 	 -7.42031 	 3.05092
| 11> C 	 -31.8529 	 -7.09099 	 1.73716
| 12> H 	 -32.9823 	 -7.79141 	 3.32492
| 13> C 	 -30.8952 	 -7.6689 	 5.35157
| 14> H 	 -31.8532 	 -8.23973 	 5.5602
| 15> H 	 -31.1568 	 -6.71889 	 5.76849
| 16> C 	 -29.6727 	 -8.45579 	 5.94736
| 17> H 	 -28.7674 	 -7.91866 	 5.95323
| 18> H 	 -29.9599 	 -8.74203 	 6.95523
| 19> C 	 -29.5006 	 -9.78825 	 5.22959
| 20> H 	 -29.2105 	 -9.64176 	 4.20957
| 21> H 	 -28.6828 	 -10.3437 	 5.81067
| 22> H 	 -30.4448 	 -10.3485 	 5.12378
| 23> S 	 -32.2391 	 -8.0721 	 -0.819163
| 24> C 	 -33.7618 	 -7.79711 	 -1.65136
| 25> C 	 -34.6926 	 -7.14468 	 -0.886817
| 26> C 	 -34.1104 	 -6.74751 	 0.370281
| 27> C 	 -32.8007 	 -7.16338 	 0.569675
| 28> H 	 -35.7839 	 -7.04412 	 -1.18213
| 29> C 	 -34.8892 	 -5.93773 	 1.28276
| 30> H 	 -34.499 	 -6.11612 	 2.29491
| 31> H 	 -35.8947 	 -6.38261 	 1.39256
| 32> C 	 -34.9126 	 -4.41697 	 0.979187
| 33> H 	 -34.9506 	 -4.19375 	 -0.0839802
| 34> H 	 -34.0027 	 -4.00882 	 1.46189
| 35> C 	 -36.1159 	 -3.6692 	 1.51958
| 36> H 	 -36.0491 	 -2.61853 	 1.1995
| 37> H 	 -36.1934 	 -3.6627 	 2.58235
| 38> H 	 -37.0522 	 -4.14429 	 1.09008
| 39> H 	 -28.6894 	 -7.03048 	 3.54041
| 40> H 	 -33.9453 	 -8.05352 	 -2.70494
| 41> *
| 42>
| 43>                          ****END OF INPUT****

CARTESIAN COORDINATES (ANGSTROEM)
---------------------------------
  S    -30.198200   -7.163250    1.503870
  C    -29.708600   -7.034200    3.195910
  C    -30.860600   -7.363520    3.900880
  C    -32.015200   -7.420310    3.050920
  C    -31.852900   -7.090990    1.737160
  H    -32.982300   -7.791410    3.324920
  C    -30.895200   -7.668900    5.351570
  H    -31.853200   -8.239730    5.560200
  H    -31.156800   -6.718890    5.768490
  C    -29.672700   -8.455790    5.947360
  H    -28.767400   -7.918660    5.953230
  H    -29.959900   -8.742030    6.955230
  C    -29.500600   -9.788250    5.229590
  H    -29.210500   -9.641760    4.209570
  H    -28.682800  -10.343700    5.810670
  H    -30.444800  -10.348500    5.123780
  S    -32.239100   -8.072100   -0.819163
  C    -33.761800   -7.797110   -1.651360
  C    -34.692600   -7.144680   -0.886817
  C    -34.110400   -6.747510    0.370281
  C    -32.800700   -7.163380    0.569675
  H    -35.783900   -7.044120   -1.182130
  C    -34.889200   -5.937730    1.282760
  H    -34.499000   -6.116120    2.294910
  H    -35.894700   -6.382610    1.392560
  C    -34.912600   -4.416970    0.979187
  H    -34.950600   -4.193750   -0.083980
  H    -34.002700   -4.008820    1.461890
  C    -36.115900   -3.669200    1.519580
  H    -36.049100   -2.618530    1.199500
  H    -36.193400   -3.662700    2.582350
  H    -37.052200   -4.144290    1.090080
  H    -28.689400   -7.030480    3.540410
  H    -33.945300   -8.053520   -2.704940

 Total Charge           Charge          ....    0
 Multiplicity           Mult            ....    1
 Number of Electrons    NEL             ....  134
 Basis Dimension        Dim             ....  322

ORBITAL ENERGIES
----------------

  NO   OCC          E(Eh)            E(eV)
   0   2.0000     -88.966840     -2420.9108
   1   2.0000     -88.957345     -2420.6524
   2   2.0000     -10.333120      -281.1785
   3   2.0000     -10.329047      -281.0677
   4   2.0000     -10.320493      -280.8349
   5   2.0000     -10.314832      -280.6809
   6   2.0000     -10.302713      -280.3511
   7   2.0000     -10.301734      -280.3244
   8   2.0000     -10.300128      -280.2807
   9   2.0000     -10.293990      -280.1137
  10   2.0000     -10.289068      -279.9798
  11   2.0000     -10.288728      -279.9705
  12   2.0000     -10.286122      -279.8996
  13   2.0000     -10.285581      -279.8849
  14   2.0000     -10.279428      -279.7175
  15   2.0000     -10.278183      -279.6836
  16   2.0000      -8.081517      -219.9093
  17   2.0000      -8.073673      -219.6958
  18   2.0000      -6.040132      -164.3603
  19   2.0000      -6.036069      -164.2498
  20   2.0000      -6.032164      -164.1435
  21   2.0000      -6.032125      -164.1425
  22   2.0000      -6.028036      -164.0312
  23   2.0000      -6.024214      -163.9272
  24   2.0000      -1.015896       -27.6439
  25   2.0000      -0.990789       -26.9607
  26   2.0000      -0.916592       -24.9417
  27   2.0000      -0.911106       -24.7924
  28   2.0000      -0.868865       -23.6430
  29   2.0000      -0.855111       -23.2687
  30   2.0000      -0.843640       -22.9566
  31   2.0000      -0.820196       -22.3187
  32   2.0000      -0.780204       -21.2304
  33   2.0000      -0.770611       -20.9694
  34   2.0000      -0.707902       -19.2630
  35   2.0000      -0.701133       -19.0788
  36   2.0000      -0.689945       -18.7744
  37   2.0000      -0.661790       -18.0082
  38   2.0000      -0.642853       -17.4929
  39   2.0000      -0.614166       -16.7123
  40   2.0000      -0.595446       -16.2029
  41   2.0000      -0.578881       -15.7521
  42   2.0000      -0.562234       -15.2992
  43   2.0000      -0.558234       -15.1903
  44   2.0000      -0.544298       -14.8111
  45   2.0000      -0.528706       -14.3868
  46   2.0000      -0.517016       -14.0687
  47   2.0000      -0.514071       -13.9886
  48   2.0000      -0.508100       -13.8261
  49   2.0000      -0.501043       -13.6341
  50   2.0000      -0.497960       -13.5502
  51   2.0000      -0.480730       -13.0813
  52   2.0000      -0.471241       -12.8231
  53   2.0000      -0.459626       -12.5071
  54   2.0000      -0.454862       -12.3774
  55   2.0000      -0.452564       -12.3149
  56   2.0000      -0.437808       -11.9134
  57   2.0000      -0.433738       -11.8026
  58   2.0000      -0.430943       -11.7265
  59   2.0000      -0.430416       -11.7122
  60   2.0000      -0.422034       -11.4841
  61   2.0000      -0.414382       -11.2759
  62   2.0000      -0.404890       -11.0176
  63   2.0000      -0.352796        -9.6001
  64   2.0000      -0.330816        -9.0020
  65   2.0000      -0.315851        -8.5947
  66   2.0000      -0.293489        -7.9862
  67   0.0000       0.025862         0.7037
  68   0.0000       0.073484         1.9996
  69   0.0000       0.096095         2.6149
  70   0.0000       0.123519         3.3611
  71   0.0000       0.131204         3.5702

MULLIKEN ATOMIC CHARGES
-----------------------
   0 S :    0.069054
   1 C :   -0.110669
   2 C :   -0.113616
   3 C :    0.013774
   4 C :   -0.103803
   5 H :    0.002988
   6 C :    0.049607
   7 H :    0.025168
   8 H :    0.038119
   9 C :   -0.040092
  10 H :    0.030137
  11 H :    0.031496
  12 C :   -0.073638
  13 H :    0.030326
  14 H :    0.048645
  15 H :    0.034077
  16 S :    0.101042
  17 C :   -0.095632
  18 C :   -0.045767
  19 C :   -0.073599
  20 C :   -0.125732
  21 H :    0.050828
  22 C :    0.056607
  23 H :    0.007159
  24 H :    0.018418
  25 C :   -0.056748
  26 H :    0.034241
  27 H :    0.041439
  28 C :   -0.061352
  29 H :    0.038789
  30 H :    0.025596
  31 H :    0.032707
  32 H :    0.054357
  33 H :    0.066073
Sum of atomic charges:   -0.0000000

LOEWDIN ATOMIC CHARGES
----------------------
   0 S :    0.423067
   1 C :   -0.195553
   2 C :   -0.063837
   3 C :   -0.079623
   4 C :   -0.209351
   5 H :    0.022987
   6 C :   -0.040423
   7 H :    0.037922
   8 H :    0.034076
   9 C :   -0.034065
  10 H :    0.016924
  11 H :    0.028760
  12 C :   -0.067642
  13 H :    0.017704
  14 H :    0.036094
  15 H :    0.028339
  16 S :    0.399377
  17 C :   -0.180171
  18 C :   -0.076938
  19 C :   -0.060708
  20 C :   -0.194053
  21 H :    0.048342
  22 C :   -0.044499
  23 H :    0.030140
  24 H :    0.030838
  25 C :   -0.036723
  26 H :    0.025695
  27 H :    0.032317
  28 C :   -0.066485
  29 H :    0.029731
  30 H :    0.016310
  31 H :    0.028178
  32 H :    0.029024
  33 H :    0.034248

  Mayer bond orders larger than 0.100000
B(  0-S ,  1-C ) :   1.1389 B(  0-S ,  4-C ) :   1.1849 B(  1-C ,  2-C ) :   1.5480
B(  1-C ,  4-C ) :   0.1053 B(  1-C , 32-H ) :   0.9814 B(  2-C ,  3-C ) :   1.2766
B(  2-C ,  6-C ) :   1.0101 B(  3-C ,  4-C ) :   1.5315 B(  3-C ,  5-H ) :   0.9930
B(  4-C , 20-C ) :   1.0137 B(  6-C ,  7-H ) :   0.9434 B(  6-C ,  8-H ) :   0.9315
B(  6-C ,  9-C ) :   1.0642 B(  9-C , 10-H ) :   0.9565 B(  9-C , 11-H ) :   0.9569
B(  9-C , 12-C ) :   1.0755 B( 12-C , 13-H ) :   0.9723 B( 12-C , 14-H ) :   0.9738
B( 12-C , 15-H ) :   0.9738 B( 16-S , 17-C ) :   1.1537 B( 16-S , 20-C ) :   1.1266
B( 17-C , 18-C ) :   1.6253 B( 17-C , 33-H ) :   0.9616 B( 18-C , 19-C ) :   1.2250
B( 18-C , 21-H ) :   0.9815 B( 19-C , 20-C ) :   1.6257 B( 19-C , 22-C ) :   1.0791
B( 22-C , 23-H ) :   0.9202 B( 22-C , 24-H ) :   0.9317 B( 22-C , 25-C ) :   1.0439
B( 25-C , 26-H ) :   0.9651 B( 25-C , 27-H ) :   0.9516 B( 25-C , 28-C ) :   1.0864
B( 28-C , 29-H ) :   0.9734 B( 28-C , 30-H ) :   0.9756 B( 28-C , 31-H ) :   0.9748

Dispersion correction           -0.013908336
FINAL SINGLE POINT ENERGY     -1339.856889532181

DIPOLE MOMENT
-------------
                                X             Y             Z
Electronic contribution:      8.96726      -5.10462     -18.87092
Nuclear contribution   :     -9.41374       5.06572      19.32825
                        -----------------------------------------
Total Dipole Moment    :     -0.44648      -0.03890       0.45732
                        -----------------------------------------
Magnitude (a.u.)       :      0.64031
Magnitude (Debye)      :      1.62755

Rotational constants in cm-1:     0.021135     0.007765     0.006311
Rotational constants in MHz :   633.624586   232.791826   189.196313

                             ****ORCA TERMINATED NORMALLY****
TOTAL RUN TIME: 0 days 0 hours 0 minutes 21 seconds 259 msec
