                         Program Version 4.2.1 -  RELEASE  -
|  1> ! wB97X-D3 SP def2-SVP
|  2> %pal
|  3> nprocs 24
|  4> end
|  5>
|  6> * xyz 0 1
|  7> S 	 -103.382 	 60.4784 	 -99.8755
|  8> C 	 -104.631 	 61.0009 	 -100.912
|  9> C 	 -104.185 	 61.5437 	 -102.062
| 10> C 	 -102.752 	 61.5769 	 -102.12
| 11> C 	 -102.16 	 61.0151 	 -101.044
| 12> H 	 -102.184 	 61.8237 	 -102.954
| 13> C 	 -105.109 	 61.9121 	 -103.202
| 14> H 	 -104.449 	 61.999 	 -104.095
| 15> H 	 -105.646 	 62.8302 	 -103.137
| 16> C 	 -106.061 	 60.7796 	 -103.526
| 17> H 	 -105.462 	 59.8491 	 -103.691
| 18> H 	 -106.818 	 60.5815 	 -102.776
| 19> C 	 -106.749 	 61.032 	 -104.94
| 20> H 	 -107.622 	 61.6405 	 -104.807
| 21> H 	 -106.099 	 61.5734 	 -105.701
| 22> H 	 -107.105 	 60.0278 	 -105.292
| 23> S 	 -99.8582 	 62.0024 	 -100.007
| 24> C 	 -98.3362 	 61.2093 	 -100.334
| 25> C 	 -98.5132 	 60.0707 	 -101.115
| 26> C 	 -99.8926 	 59.8036 	 -101.416
| 27> C 	 -100.763 	 60.7276 	 -100.842
| 28> H 	 -97.6141 	 59.5807 	 -101.445
| 29> C 	 -100.435 	 58.5461 	 -102.153
| 30> H 	 -99.6277 	 58.2611 	 -102.889
| 31> H 	 -101.26 	 58.8734 	 -102.748
| 32> C 	 -100.982 	 57.3239 	 -101.308
| 33> H 	 -101.837 	 57.6778 	 -100.624
| 34> H 	 -100.206 	 56.9807 	 -100.683
| 35> C 	 -101.603 	 56.2193 	 -102.122
| 36> H 	 -100.875 	 55.8488 	 -102.82
| 37> H 	 -102.416 	 56.5832 	 -102.796
| 38> H 	 -101.884 	 55.3189 	 -101.606
| 39> H 	 -105.664 	 61.1383 	 -100.727
| 40> H 	 -97.3811 	 61.6274 	 -99.942
| 41> *
| 42>
| 43>                          ****END OF INPUT****

CARTESIAN COORDINATES (ANGSTROEM)
---------------------------------
  S    -103.382000   60.478400  -99.875500
  C    -104.631000   61.000900  -100.912000
  C    -104.185000   61.543700  -102.062000
  C    -102.752000   61.576900  -102.120000
  C    -102.160000   61.015100  -101.044000
  H    -102.184000   61.823700  -102.954000
  C    -105.109000   61.912100  -103.202000
  H    -104.449000   61.999000  -104.095000
  H    -105.646000   62.830200  -103.137000
  C    -106.061000   60.779600  -103.526000
  H    -105.462000   59.849100  -103.691000
  H    -106.818000   60.581500  -102.776000
  C    -106.749000   61.032000  -104.940000
  H    -107.622000   61.640500  -104.807000
  H    -106.099000   61.573400  -105.701000
  H    -107.105000   60.027800  -105.292000
  S    -99.858200   62.002400  -100.007000
  C    -98.336200   61.209300  -100.334000
  C    -98.513200   60.070700  -101.115000
  C    -99.892600   59.803600  -101.416000
  C    -100.763000   60.727600  -100.842000
  H    -97.614100   59.580700  -101.445000
  C    -100.435000   58.546100  -102.153000
  H    -99.627700   58.261100  -102.889000
  H    -101.260000   58.873400  -102.748000
  C    -100.982000   57.323900  -101.308000
  H    -101.837000   57.677800  -100.624000
  H    -100.206000   56.980700  -100.683000
  C    -101.603000   56.219300  -102.122000
  H    -100.875000   55.848800  -102.820000
  H    -102.416000   56.583200  -102.796000
  H    -101.884000   55.318900  -101.606000
  H    -105.664000   61.138300  -100.727000
  H    -97.381100   61.627400  -99.942000

 Total Charge           Charge          ....    0
 Multiplicity           Mult            ....    1
 Number of Electrons    NEL             ....  134
 Basis Dimension        Dim             ....  322

ORBITAL ENERGIES
----------------

  NO   OCC          E(Eh)            E(eV)
   0   2.0000     -88.964461     -2420.8461
   1   2.0000     -88.962347     -2420.7885
   2   2.0000     -10.324506      -280.9441
   3   2.0000     -10.323871      -280.9268
   4   2.0000     -10.322404      -280.8869
   5   2.0000     -10.310726      -280.5691
   6   2.0000     -10.301493      -280.3179
   7   2.0000     -10.297578      -280.2113
   8   2.0000     -10.297191      -280.2008
   9   2.0000     -10.292594      -280.0757
  10   2.0000     -10.290893      -280.0294
  11   2.0000     -10.290614      -280.0218
  12   2.0000     -10.288130      -279.9543
  13   2.0000     -10.287636      -279.9408
  14   2.0000     -10.286603      -279.9127
  15   2.0000     -10.273674      -279.5609
  16   2.0000      -8.079499      -219.8544
  17   2.0000      -8.077100      -219.7891
  18   2.0000      -6.038040      -164.3034
  19   2.0000      -6.035498      -164.2343
  20   2.0000      -6.033928      -164.1915
  21   2.0000      -6.031492      -164.1252
  22   2.0000      -6.030227      -164.0908
  23   2.0000      -6.028085      -164.0325
  24   2.0000      -1.009401       -27.4672
  25   2.0000      -0.984206       -26.7816
  26   2.0000      -0.913071       -24.8459
  27   2.0000      -0.898727       -24.4556
  28   2.0000      -0.871653       -23.7189
  29   2.0000      -0.849492       -23.1159
  30   2.0000      -0.847212       -23.0538
  31   2.0000      -0.815608       -22.1938
  32   2.0000      -0.779498       -21.2112
  33   2.0000      -0.767565       -20.8865
  34   2.0000      -0.708397       -19.2765
  35   2.0000      -0.699136       -19.0245
  36   2.0000      -0.691043       -18.8042
  37   2.0000      -0.659019       -17.9328
  38   2.0000      -0.647369       -17.6158
  39   2.0000      -0.619669       -16.8621
  40   2.0000      -0.592060       -16.1108
  41   2.0000      -0.572911       -15.5897
  42   2.0000      -0.565669       -15.3926
  43   2.0000      -0.557421       -15.1682
  44   2.0000      -0.523785       -14.2529
  45   2.0000      -0.520658       -14.1678
  46   2.0000      -0.517254       -14.0752
  47   2.0000      -0.513707       -13.9787
  48   2.0000      -0.501915       -13.6578
  49   2.0000      -0.498925       -13.5764
  50   2.0000      -0.494666       -13.4605
  51   2.0000      -0.478658       -13.0250
  52   2.0000      -0.467222       -12.7138
  53   2.0000      -0.462798       -12.5934
  54   2.0000      -0.455527       -12.3955
  55   2.0000      -0.449226       -12.2241
  56   2.0000      -0.445673       -12.1274
  57   2.0000      -0.436142       -11.8680
  58   2.0000      -0.429462       -11.6863
  59   2.0000      -0.425202       -11.5703
  60   2.0000      -0.422928       -11.5085
  61   2.0000      -0.415225       -11.2988
  62   2.0000      -0.407063       -11.0768
  63   2.0000      -0.339585        -9.2406
  64   2.0000      -0.329906        -8.9772
  65   2.0000      -0.318108        -8.6562
  66   2.0000      -0.313629        -8.5343
  67   0.0000       0.044282         1.2050
  68   0.0000       0.054588         1.4854
  69   0.0000       0.117536         3.1983
  70   0.0000       0.121888         3.3168
  71   0.0000       0.130935         3.5629

MULLIKEN ATOMIC CHARGES
-----------------------
   0 S :    0.124278
   1 C :   -0.078642
   2 C :   -0.113811
   3 C :    0.097733
   4 C :   -0.189208
   5 H :   -0.013654
   6 C :    0.083500
   7 H :    0.016754
   8 H :    0.034763
   9 C :   -0.116356
  10 H :    0.041424
  11 H :    0.036285
  12 C :   -0.080052
  13 H :    0.028322
  14 H :    0.045330
  15 H :    0.043099
  16 S :    0.103684
  17 C :   -0.116321
  18 C :   -0.036270
  19 C :   -0.010771
  20 C :   -0.171961
  21 H :    0.018202
  22 C :    0.061822
  23 H :    0.027049
  24 H :    0.015072
  25 C :   -0.053615
  26 H :    0.039428
  27 H :    0.022435
  28 C :   -0.039792
  29 H :    0.008846
  30 H :    0.033756
  31 H :    0.036566
  32 H :    0.026460
  33 H :    0.075645
Sum of atomic charges:   -0.0000000

LOEWDIN ATOMIC CHARGES
----------------------
   0 S :    0.415550
   1 C :   -0.202748
   2 C :   -0.067747
   3 C :   -0.044155
   4 C :   -0.193734
   5 H :    0.023416
   6 C :   -0.033760
   7 H :    0.033757
   8 H :    0.026400
   9 C :   -0.039556
  10 H :    0.029546
  11 H :    0.020117
  12 C :   -0.073442
  13 H :    0.017910
  14 H :    0.031508
  15 H :    0.031211
  16 S :    0.403074
  17 C :   -0.186597
  18 C :   -0.077182
  19 C :   -0.049040
  20 C :   -0.200680
  21 H :    0.032128
  22 C :   -0.030990
  23 H :    0.032649
  24 H :    0.024909
  25 C :   -0.038407
  26 H :    0.031204
  27 H :    0.016282
  28 C :   -0.071010
  29 H :    0.019124
  30 H :    0.030723
  31 H :    0.027728
  32 H :    0.024856
  33 H :    0.036952

  Mayer bond orders larger than 0.100000
B(  0-S ,  1-C ) :   1.1395 B(  0-S ,  4-C ) :   1.1372 B(  1-C ,  2-C ) :   1.6480
B(  1-C , 32-H ) :   0.9646 B(  2-C ,  3-C ) :   1.2297 B(  2-C ,  6-C ) :   1.0101
B(  3-C ,  4-C ) :   1.6154 B(  3-C ,  5-H ) :   1.0059 B(  4-C , 20-C ) :   1.0012
B(  6-C ,  7-H ) :   0.9442 B(  6-C ,  8-H ) :   0.9362 B(  6-C ,  9-C ) :   1.0715
B(  9-C , 10-H ) :   0.9643 B(  9-C , 11-H ) :   0.9529 B(  9-C , 12-C ) :   1.0668
B( 12-C , 13-H ) :   0.9773 B( 12-C , 14-H ) :   0.9759 B( 12-C , 15-H ) :   0.9782
B( 16-S , 17-C ) :   1.1713 B( 16-S , 20-C ) :   1.1517 B( 17-C , 18-C ) :   1.5953
B( 17-C , 20-C ) :   0.1044 B( 17-C , 33-H ) :   0.9628 B( 18-C , 19-C ) :   1.2297
B( 18-C , 21-H ) :   0.9989 B( 19-C , 20-C ) :   1.5963 B( 19-C , 22-C ) :   1.0444
B( 22-C , 23-H ) :   0.9373 B( 22-C , 24-H ) :   0.9281 B( 22-C , 25-C ) :   1.0554
B( 25-C , 26-H ) :   0.9512 B( 25-C , 27-H ) :   0.9571 B( 25-C , 28-C ) :   1.0852
B( 28-C , 29-H ) :   0.9706 B( 28-C , 30-H ) :   0.9727 B( 28-C , 31-H ) :   0.9719

Dispersion correction           -0.014306749
FINAL SINGLE POINT ENERGY     -1339.875760155581

DIPOLE MOMENT
-------------
                                X             Y             Z
Electronic contribution:     14.01876      14.25236      20.22964
Nuclear contribution   :    -14.08972     -14.42131     -20.80364
                        -----------------------------------------
Total Dipole Moment    :     -0.07096      -0.16895      -0.57400
                        -----------------------------------------
Magnitude (a.u.)       :      0.60254
Magnitude (Debye)      :      1.53153

Rotational constants in cm-1:     0.018791     0.008275     0.006854
Rotational constants in MHz :   563.330548   248.072605   205.487118

                             ****ORCA TERMINATED NORMALLY****
TOTAL RUN TIME: 0 days 0 hours 0 minutes 21 seconds 471 msec
