                         Program Version 4.2.1 -  RELEASE  -
|  1> ! wB97X-D3 SP def2-SVP
|  2> %pal
|  3> nprocs 24
|  4> end
|  5>
|  6> * xyz 0 1
|  7> S 	 44.0374 	 -36.4047 	 -119.939
|  8> C 	 44.0335 	 -36.6331 	 -121.697
|  9> C 	 45.1528 	 -36.093 	 -122.316
| 10> C 	 46.0998 	 -35.5875 	 -121.36
| 11> C 	 45.5847 	 -35.583 	 -120.067
| 12> H 	 47.0869 	 -35.3194 	 -121.493
| 13> C 	 45.3841 	 -36.0069 	 -123.814
| 14> H 	 44.7279 	 -36.7489 	 -124.286
| 15> H 	 46.4573 	 -36.0499 	 -124.018
| 16> C 	 44.9902 	 -34.6399 	 -124.439
| 17> H 	 45.0213 	 -34.7736 	 -125.566
| 18> H 	 44.031 	 -34.2479 	 -124.02
| 19> C 	 46.0359 	 -33.5454 	 -124.022
| 20> H 	 47.0297 	 -33.7339 	 -124.226
| 21> H 	 45.7831 	 -32.581 	 -124.488
| 22> H 	 45.997 	 -33.3747 	 -122.971
| 23> S 	 46.8199 	 -36.5713 	 -117.826
| 24> C 	 47.815 	 -35.4989 	 -116.936
| 25> C 	 47.7108 	 -34.1752 	 -117.343
| 26> C 	 46.726 	 -34.0366 	 -118.413
| 27> C 	 46.2924 	 -35.2842 	 -118.906
| 28> H 	 48.2914 	 -33.3625 	 -116.737
| 29> C 	 46.3394 	 -32.6178 	 -119.016
| 30> H 	 45.7444 	 -32.2135 	 -118.229
| 31> H 	 45.7226 	 -32.7384 	 -119.819
| 32> C 	 47.4647 	 -31.6328 	 -119.394
| 33> H 	 47.9703 	 -32.1877 	 -120.18
| 34> H 	 48.2234 	 -31.5184 	 -118.638
| 35> C 	 47.0147 	 -30.3095 	 -119.812
| 36> H 	 46.2325 	 -30.4851 	 -120.565
| 37> H 	 47.8095 	 -29.7477 	 -120.224
| 38> H 	 46.5181 	 -29.694 	 -119.044
| 39> H 	 43.2149 	 -37.1285 	 -122.235
| 40> H 	 48.3889 	 -35.7885 	 -116.058
| 41> *
| 42>
| 43>                          ****END OF INPUT****

CARTESIAN COORDINATES (ANGSTROEM)
---------------------------------
  S     44.037400  -36.404700  -119.939000
  C     44.033500  -36.633100  -121.697000
  C     45.152800  -36.093000  -122.316000
  C     46.099800  -35.587500  -121.360000
  C     45.584700  -35.583000  -120.067000
  H     47.086900  -35.319400  -121.493000
  C     45.384100  -36.006900  -123.814000
  H     44.727900  -36.748900  -124.286000
  H     46.457300  -36.049900  -124.018000
  C     44.990200  -34.639900  -124.439000
  H     45.021300  -34.773600  -125.566000
  H     44.031000  -34.247900  -124.020000
  C     46.035900  -33.545400  -124.022000
  H     47.029700  -33.733900  -124.226000
  H     45.783100  -32.581000  -124.488000
  H     45.997000  -33.374700  -122.971000
  S     46.819900  -36.571300  -117.826000
  C     47.815000  -35.498900  -116.936000
  C     47.710800  -34.175200  -117.343000
  C     46.726000  -34.036600  -118.413000
  C     46.292400  -35.284200  -118.906000
  H     48.291400  -33.362500  -116.737000
  C     46.339400  -32.617800  -119.016000
  H     45.744400  -32.213500  -118.229000
  H     45.722600  -32.738400  -119.819000
  C     47.464700  -31.632800  -119.394000
  H     47.970300  -32.187700  -120.180000
  H     48.223400  -31.518400  -118.638000
  C     47.014700  -30.309500  -119.812000
  H     46.232500  -30.485100  -120.565000
  H     47.809500  -29.747700  -120.224000
  H     46.518100  -29.694000  -119.044000
  H     43.214900  -37.128500  -122.235000
  H     48.388900  -35.788500  -116.058000

 Total Charge           Charge          ....    0
 Multiplicity           Mult            ....    1
 Number of Electrons    NEL             ....  134
 Basis Dimension        Dim             ....  322

ORBITAL ENERGIES
----------------

  NO   OCC          E(Eh)            E(eV)
   0   2.0000     -88.967080     -2420.9173
   1   2.0000     -88.963852     -2420.8295
   2   2.0000     -10.323370      -280.9132
   3   2.0000     -10.320244      -280.8281
   4   2.0000     -10.318056      -280.7686
   5   2.0000     -10.315666      -280.7036
   6   2.0000     -10.313036      -280.6320
   7   2.0000     -10.304325      -280.3949
   8   2.0000     -10.303354      -280.3685
   9   2.0000     -10.297792      -280.2172
  10   2.0000     -10.295663      -280.1592
  11   2.0000     -10.292839      -280.0824
  12   2.0000     -10.285070      -279.8710
  13   2.0000     -10.279019      -279.7063
  14   2.0000     -10.273098      -279.5452
  15   2.0000     -10.269697      -279.4527
  16   2.0000      -8.081460      -219.9077
  17   2.0000      -8.079210      -219.8465
  18   2.0000      -6.039890      -164.3538
  19   2.0000      -6.037578      -164.2909
  20   2.0000      -6.036133      -164.2515
  21   2.0000      -6.033652      -164.1840
  22   2.0000      -6.032212      -164.1448
  23   2.0000      -6.030049      -164.0860
  24   2.0000      -1.006246       -27.3814
  25   2.0000      -0.979085       -26.6423
  26   2.0000      -0.913435       -24.8558
  27   2.0000      -0.910889       -24.7865
  28   2.0000      -0.871388       -23.7117
  29   2.0000      -0.851084       -23.1592
  30   2.0000      -0.843854       -22.9624
  31   2.0000      -0.812278       -22.1032
  32   2.0000      -0.787347       -21.4248
  33   2.0000      -0.771355       -20.9896
  34   2.0000      -0.705532       -19.1985
  35   2.0000      -0.698493       -19.0070
  36   2.0000      -0.697747       -18.9867
  37   2.0000      -0.652017       -17.7423
  38   2.0000      -0.642620       -17.4866
  39   2.0000      -0.614569       -16.7233
  40   2.0000      -0.596131       -16.2215
  41   2.0000      -0.574875       -15.6431
  42   2.0000      -0.565450       -15.3867
  43   2.0000      -0.547768       -14.9055
  44   2.0000      -0.539234       -14.6733
  45   2.0000      -0.533172       -14.5083
  46   2.0000      -0.515461       -14.0264
  47   2.0000      -0.511561       -13.9203
  48   2.0000      -0.510007       -13.8780
  49   2.0000      -0.497945       -13.5498
  50   2.0000      -0.487558       -13.2671
  51   2.0000      -0.485096       -13.2001
  52   2.0000      -0.473532       -12.8855
  53   2.0000      -0.460699       -12.5363
  54   2.0000      -0.458300       -12.4710
  55   2.0000      -0.451467       -12.2850
  56   2.0000      -0.446650       -12.1540
  57   2.0000      -0.433297       -11.7906
  58   2.0000      -0.430171       -11.7055
  59   2.0000      -0.426104       -11.5949
  60   2.0000      -0.421940       -11.4816
  61   2.0000      -0.419614       -11.4183
  62   2.0000      -0.413394       -11.2490
  63   2.0000      -0.338270        -9.2048
  64   2.0000      -0.326755        -8.8915
  65   2.0000      -0.325885        -8.8678
  66   2.0000      -0.297487        -8.0950
  67   0.0000       0.033709         0.9173
  68   0.0000       0.060908         1.6574
  69   0.0000       0.112308         3.0560
  70   0.0000       0.120737         3.2854
  71   0.0000       0.122296         3.3278

MULLIKEN ATOMIC CHARGES
-----------------------
   0 S :    0.107664
   1 C :   -0.132646
   2 C :   -0.083207
   3 C :    0.070186
   4 C :   -0.193343
   5 H :   -0.008965
   6 C :    0.086404
   7 H :    0.027217
   8 H :    0.027116
   9 C :   -0.091642
  10 H :    0.051283
  11 H :    0.041336
  12 C :   -0.050284
  13 H :    0.009082
  14 H :    0.031794
  15 H :    0.026988
  16 S :    0.125616
  17 C :   -0.098195
  18 C :   -0.075672
  19 C :   -0.042693
  20 C :   -0.174117
  21 H :    0.060708
  22 C :    0.118587
  23 H :    0.021731
  24 H :   -0.002191
  25 C :   -0.069410
  26 H :    0.021343
  27 H :    0.017023
  28 C :   -0.017223
  29 H :    0.019123
  30 H :    0.030461
  31 H :    0.031389
  32 H :    0.054029
  33 H :    0.060509
Sum of atomic charges:    0.0000000

LOEWDIN ATOMIC CHARGES
----------------------
   0 S :    0.394455
   1 C :   -0.192424
   2 C :   -0.060772
   3 C :   -0.040471
   4 C :   -0.195842
   5 H :    0.021003
   6 C :   -0.031574
   7 H :    0.031899
   8 H :    0.032845
   9 C :   -0.036546
  10 H :    0.031584
  11 H :    0.029922
  12 C :   -0.067211
  13 H :    0.009343
  14 H :    0.029124
  15 H :    0.020711
  16 S :    0.416212
  17 C :   -0.198568
  18 C :   -0.092550
  19 C :   -0.039800
  20 C :   -0.218760
  21 H :    0.050537
  22 C :   -0.015546
  23 H :    0.028972
  24 H :    0.013424
  25 C :   -0.043473
  26 H :    0.025521
  27 H :    0.017849
  28 C :   -0.060936
  29 H :    0.027026
  30 H :    0.024588
  31 H :    0.028345
  32 H :    0.030149
  33 H :    0.030964

  Mayer bond orders larger than 0.100000
B(  0-S ,  1-C ) :   1.1307 B(  0-S ,  4-C ) :   1.1408 B(  1-C ,  2-C ) :   1.6280
B(  1-C , 32-H ) :   0.9639 B(  2-C ,  3-C ) :   1.2093 B(  2-C ,  6-C ) :   1.0393
B(  3-C ,  4-C ) :   1.5876 B(  3-C ,  5-H ) :   0.9988 B(  4-C , 20-C ) :   1.0762
B(  6-C ,  7-H ) :   0.9361 B(  6-C ,  8-H ) :   0.9400 B(  6-C ,  9-C ) :   1.0601
B(  9-C , 10-H ) :   0.9586 B(  9-C , 11-H ) :   0.9544 B(  9-C , 12-C ) :   1.0734
B( 12-C , 13-H ) :   0.9759 B( 12-C , 14-H ) :   0.9720 B( 12-C , 15-H ) :   0.9723
B( 16-S , 17-C ) :   1.1675 B( 16-S , 20-C ) :   1.1273 B( 17-C , 18-C ) :   1.6184
B( 17-C , 33-H ) :   0.9632 B( 18-C , 19-C ) :   1.2341 B( 18-C , 21-H ) :   0.9718
B( 19-C , 20-C ) :   1.5842 B( 19-C , 22-C ) :   1.0314 B( 22-C , 23-H ) :   0.9302
B( 22-C , 24-H ) :   0.9338 B( 22-C , 25-C ) :   1.0596 B( 25-C , 26-H ) :   0.9515
B( 25-C , 27-H ) :   0.9497 B( 25-C , 28-C ) :   1.1026 B( 28-C , 29-H ) :   0.9697
B( 28-C , 30-H ) :   0.9684 B( 28-C , 31-H ) :   0.9706

Dispersion correction           -0.014652439
FINAL SINGLE POINT ENERGY     -1339.863332793720

DIPOLE MOMENT
-------------
                                X             Y             Z
Electronic contribution:     -5.55899     -23.93451      18.31958
Nuclear contribution   :      5.80128      24.39196     -18.64126
                        -----------------------------------------
Total Dipole Moment    :      0.24229       0.45745      -0.32168
                        -----------------------------------------
Magnitude (a.u.)       :      0.60946
Magnitude (Debye)      :      1.54912

Rotational constants in cm-1:     0.015705     0.010468     0.007049
Rotational constants in MHz :   470.832645   313.830158   211.329488

                             ****ORCA TERMINATED NORMALLY****
TOTAL RUN TIME: 0 days 0 hours 0 minutes 20 seconds 978 msec
