                         Program Version 4.2.1 -  RELEASE  -
|  1> ! wB97X-D3 SP def2-SVP
|  2> %pal
|  3> nprocs 24
|  4> end
|  5>
|  6> * xyz 0 1
|  7> S 	 -113.073 	 40.5564 	 -115.15
|  8> C 	 -112.074 	 40.7635 	 -116.632
|  9> C 	 -111.539 	 39.5632 	 -117.026
| 10> C 	 -111.86 	 38.5127 	 -116.148
| 11> C 	 -112.767 	 38.8884 	 -115.132
| 12> H 	 -111.344 	 37.507 	 -116.065
| 13> C 	 -110.604 	 39.3945 	 -118.226
| 14> H 	 -110.322 	 40.419 	 -118.453
| 15> H 	 -111.09 	 38.8997 	 -119.137
| 16> C 	 -109.315 	 38.6792 	 -118.009
| 17> H 	 -108.867 	 38.9048 	 -117.022
| 18> H 	 -109.614 	 37.6542 	 -118.162
| 19> C 	 -108.3 	 38.9647 	 -119.085
| 20> H 	 -108.818 	 38.8371 	 -120.037
| 21> H 	 -107.894 	 39.8759 	 -118.953
| 22> H 	 -107.564 	 38.1653 	 -119.026
| 23> S 	 -113.155 	 38.8097 	 -112.418
| 24> C 	 -113.802 	 37.4376 	 -111.618
| 25> C 	 -113.914 	 36.3826 	 -112.552
| 26> C 	 -113.518 	 36.7354 	 -113.869
| 27> C 	 -113.288 	 38.0787 	 -114.027
| 28> H 	 -114.308 	 35.398 	 -112.272
| 29> C 	 -113.444 	 35.6601 	 -114.986
| 30> H 	 -113.088 	 34.8082 	 -114.432
| 31> H 	 -112.644 	 35.8478 	 -115.762
| 32> C 	 -114.825 	 35.4335 	 -115.718
| 33> H 	 -114.959 	 36.2195 	 -116.485
| 34> H 	 -115.636 	 35.6662 	 -114.982
| 35> C 	 -114.842 	 34.0076 	 -116.24
| 36> H 	 -115.591 	 33.9198 	 -117.037
| 37> H 	 -115.002 	 33.2424 	 -115.418
| 38> H 	 -113.933 	 33.9473 	 -116.823
| 39> H 	 -111.912 	 41.7078 	 -117.144
| 40> H 	 -113.892 	 37.3662 	 -110.537
| 41> *
| 42>
| 43>                          ****END OF INPUT****

CARTESIAN COORDINATES (ANGSTROEM)
---------------------------------
  S    -113.073000   40.556400  -115.150000
  C    -112.074000   40.763500  -116.632000
  C    -111.539000   39.563200  -117.026000
  C    -111.860000   38.512700  -116.148000
  C    -112.767000   38.888400  -115.132000
  H    -111.344000   37.507000  -116.065000
  C    -110.604000   39.394500  -118.226000
  H    -110.322000   40.419000  -118.453000
  H    -111.090000   38.899700  -119.137000
  C    -109.315000   38.679200  -118.009000
  H    -108.867000   38.904800  -117.022000
  H    -109.614000   37.654200  -118.162000
  C    -108.300000   38.964700  -119.085000
  H    -108.818000   38.837100  -120.037000
  H    -107.894000   39.875900  -118.953000
  H    -107.564000   38.165300  -119.026000
  S    -113.155000   38.809700  -112.418000
  C    -113.802000   37.437600  -111.618000
  C    -113.914000   36.382600  -112.552000
  C    -113.518000   36.735400  -113.869000
  C    -113.288000   38.078700  -114.027000
  H    -114.308000   35.398000  -112.272000
  C    -113.444000   35.660100  -114.986000
  H    -113.088000   34.808200  -114.432000
  H    -112.644000   35.847800  -115.762000
  C    -114.825000   35.433500  -115.718000
  H    -114.959000   36.219500  -116.485000
  H    -115.636000   35.666200  -114.982000
  C    -114.842000   34.007600  -116.240000
  H    -115.591000   33.919800  -117.037000
  H    -115.002000   33.242400  -115.418000
  H    -113.933000   33.947300  -116.823000
  H    -111.912000   41.707800  -117.144000
  H    -113.892000   37.366200  -110.537000

 Total Charge           Charge          ....    0
 Multiplicity           Mult            ....    1
 Number of Electrons    NEL             ....  134
 Basis Dimension        Dim             ....  322

ORBITAL ENERGIES
----------------

  NO   OCC          E(Eh)            E(eV)
   0   2.0000     -88.968105     -2420.9452
   1   2.0000     -88.962850     -2420.8022
   2   2.0000     -10.329897      -281.0908
   3   2.0000     -10.325374      -280.9677
   4   2.0000     -10.320789      -280.8430
   5   2.0000     -10.315270      -280.6928
   6   2.0000     -10.303126      -280.3623
   7   2.0000     -10.300484      -280.2904
   8   2.0000     -10.298299      -280.2310
   9   2.0000     -10.297144      -280.1995
  10   2.0000     -10.295697      -280.1602
  11   2.0000     -10.293376      -280.0970
  12   2.0000     -10.290627      -280.0222
  13   2.0000     -10.283219      -279.8206
  14   2.0000     -10.279872      -279.7295
  15   2.0000     -10.269362      -279.4436
  16   2.0000      -8.082951      -219.9483
  17   2.0000      -8.078056      -219.8151
  18   2.0000      -6.041342      -164.3933
  19   2.0000      -6.037440      -164.2871
  20   2.0000      -6.036572      -164.2635
  21   2.0000      -6.033811      -164.1884
  22   2.0000      -6.032389      -164.1497
  23   2.0000      -6.028867      -164.0538
  24   2.0000      -1.009299       -27.4644
  25   2.0000      -0.985514       -26.8172
  26   2.0000      -0.923468       -25.1288
  27   2.0000      -0.904289       -24.6070
  28   2.0000      -0.874051       -23.7841
  29   2.0000      -0.853620       -23.2282
  30   2.0000      -0.841546       -22.8996
  31   2.0000      -0.808336       -21.9959
  32   2.0000      -0.783192       -21.3117
  33   2.0000      -0.772415       -21.0185
  34   2.0000      -0.705709       -19.2033
  35   2.0000      -0.694311       -18.8932
  36   2.0000      -0.687242       -18.7008
  37   2.0000      -0.661816       -18.0089
  38   2.0000      -0.636123       -17.3098
  39   2.0000      -0.616490       -16.7755
  40   2.0000      -0.595804       -16.2126
  41   2.0000      -0.592210       -16.1149
  42   2.0000      -0.562617       -15.3096
  43   2.0000      -0.557825       -15.1792
  44   2.0000      -0.525091       -14.2885
  45   2.0000      -0.523143       -14.2355
  46   2.0000      -0.520773       -14.1710
  47   2.0000      -0.514132       -13.9902
  48   2.0000      -0.500277       -13.6132
  49   2.0000      -0.497065       -13.5258
  50   2.0000      -0.488994       -13.3062
  51   2.0000      -0.487877       -13.2758
  52   2.0000      -0.475158       -12.9297
  53   2.0000      -0.466853       -12.7037
  54   2.0000      -0.460722       -12.5369
  55   2.0000      -0.446817       -12.1585
  56   2.0000      -0.445301       -12.1172
  57   2.0000      -0.437691       -11.9102
  58   2.0000      -0.430570       -11.7164
  59   2.0000      -0.421018       -11.4565
  60   2.0000      -0.419677       -11.4200
  61   2.0000      -0.411284       -11.1916
  62   2.0000      -0.409922       -11.1545
  63   2.0000      -0.350470        -9.5368
  64   2.0000      -0.333741        -9.0816
  65   2.0000      -0.328066        -8.9271
  66   2.0000      -0.285591        -7.7713
  67   0.0000       0.023533         0.6404
  68   0.0000       0.075863         2.0643
  69   0.0000       0.104972         2.8564
  70   0.0000       0.113872         3.0986
  71   0.0000       0.131616         3.5815

MULLIKEN ATOMIC CHARGES
-----------------------
   0 S :    0.109392
   1 C :   -0.134910
   2 C :   -0.062484
   3 C :   -0.027093
   4 C :   -0.145190
   5 H :    0.052830
   6 C :    0.056462
   7 H :    0.000774
   8 H :    0.050916
   9 C :   -0.109312
  10 H :    0.040306
  11 H :    0.021976
  12 C :    0.013118
  13 H :    0.019190
  14 H :    0.017348
  15 H :    0.029579
  16 S :    0.090090
  17 C :   -0.088153
  18 C :   -0.049746
  19 C :   -0.066999
  20 C :   -0.113212
  21 H :    0.023670
  22 C :    0.033689
  23 H :    0.022173
  24 H :    0.029851
  25 C :   -0.082225
  26 H :    0.042032
  27 H :    0.036440
  28 C :   -0.040705
  29 H :    0.027951
  30 H :    0.059880
  31 H :    0.025724
  32 H :    0.048194
  33 H :    0.068445
Sum of atomic charges:   -0.0000000

LOEWDIN ATOMIC CHARGES
----------------------
   0 S :    0.417282
   1 C :   -0.189472
   2 C :   -0.064021
   3 C :   -0.083258
   4 C :   -0.204799
   5 H :    0.041675
   6 C :   -0.034708
   7 H :    0.022441
   8 H :    0.040450
   9 C :   -0.046545
  10 H :    0.027915
  11 H :    0.021174
  12 C :   -0.044885
  13 H :    0.026309
  14 H :    0.008012
  15 H :    0.029807
  16 S :    0.410468
  17 C :   -0.195574
  18 C :   -0.076219
  19 C :   -0.059871
  20 C :   -0.196625
  21 H :    0.031823
  22 C :   -0.031373
  23 H :    0.026372
  24 H :    0.030862
  25 C :   -0.042579
  26 H :    0.029965
  27 H :    0.025143
  28 C :   -0.071090
  29 H :    0.025893
  30 H :    0.037440
  31 H :    0.025923
  32 H :    0.028911
  33 H :    0.033154

  Mayer bond orders larger than 0.100000
B(  0-S ,  1-C ) :   1.1226 B(  0-S ,  4-C ) :   1.1853 B(  1-C ,  2-C ) :   1.6148
B(  1-C ,  4-C ) :   0.1015 B(  1-C , 32-H ) :   0.9677 B(  2-C ,  3-C ) :   1.2593
B(  2-C ,  6-C ) :   1.0139 B(  3-C ,  4-C ) :   1.5443 B(  3-C ,  5-H ) :   0.9699
B(  4-C , 20-C ) :   1.0334 B(  6-C ,  7-H ) :   0.9436 B(  6-C ,  8-H ) :   0.9313
B(  6-C ,  9-C ) :   1.0717 B(  9-C , 10-H ) :   0.9587 B(  9-C , 11-H ) :   0.9474
B(  9-C , 12-C ) :   1.0971 B( 12-C , 13-H ) :   0.9684 B( 12-C , 14-H ) :   0.9765
B( 12-C , 15-H ) :   0.9724 B( 16-S , 17-C ) :   1.1796 B( 16-S , 20-C ) :   1.1393
B( 17-C , 18-C ) :   1.5566 B( 17-C , 20-C ) :   0.1066 B( 17-C , 33-H ) :   0.9716
B( 18-C , 19-C ) :   1.2697 B( 18-C , 21-H ) :   0.9889 B( 19-C , 20-C ) :   1.5956
B( 19-C , 22-C ) :   1.0296 B( 22-C , 23-H ) :   0.9421 B( 22-C , 24-H ) :   0.9366
B( 22-C , 25-C ) :   1.0400 B( 25-C , 26-H ) :   0.9545 B( 25-C , 27-H ) :   0.9637
B( 25-C , 28-C ) :   1.0708 B( 28-C , 29-H ) :   0.9714 B( 28-C , 30-H ) :   0.9752
B( 28-C , 31-H ) :   0.9707

Dispersion correction           -0.013482217
FINAL SINGLE POINT ENERGY     -1339.864317995888

DIPOLE MOMENT
-------------
                                X             Y             Z
Electronic contribution:     -9.03472      17.59926      21.65550
Nuclear contribution   :      9.36628     -18.11696     -21.98119
                        -----------------------------------------
Total Dipole Moment    :      0.33156      -0.51770      -0.32570
                        -----------------------------------------
Magnitude (a.u.)       :      0.69572
Magnitude (Debye)      :      1.76837

Rotational constants in cm-1:     0.017000     0.008464     0.006496
Rotational constants in MHz :   509.651995   253.754874   194.759016

                             ****ORCA TERMINATED NORMALLY****
TOTAL RUN TIME: 0 days 0 hours 0 minutes 21 seconds 255 msec
