                         Program Version 4.2.1 -  RELEASE  -
|  1> ! wB97X-D3 SP def2-SVP
|  2> %pal
|  3> nprocs 24
|  4> end
|  5>
|  6> * xyz 0 1
|  7> S 	 -117.686 	 33.3407 	 -114.23
|  8> C 	 -116.407 	 33.9185 	 -113.177
|  9> C 	 -116.425 	 35.2699 	 -113.066
| 10> C 	 -117.437 	 35.824 	 -113.885
| 11> C 	 -118.248 	 34.9636 	 -114.501
| 12> H 	 -117.596 	 36.9018 	 -113.91
| 13> C 	 -115.439 	 36.1305 	 -112.255
| 14> H 	 -115.527 	 35.9492 	 -111.242
| 15> H 	 -115.602 	 37.2148 	 -112.398
| 16> C 	 -113.939 	 35.7494 	 -112.687
| 17> H 	 -113.797 	 34.6998 	 -112.748
| 18> H 	 -113.951 	 36.1582 	 -113.713
| 19> C 	 -112.808 	 36.4284 	 -111.895
| 20> H 	 -112.996 	 36.0897 	 -110.854
| 21> H 	 -111.836 	 36.2033 	 -112.339
| 22> H 	 -112.82 	 37.5408 	 -111.815
| 23> S 	 -120.906 	 34.4304 	 -114.758
| 24> C 	 -121.83 	 35.5515 	 -115.709
| 25> C 	 -121.063 	 36.4358 	 -116.469
| 26> C 	 -119.649 	 36.3043 	 -116.146
| 27> C 	 -119.438 	 35.2832 	 -115.242
| 28> H 	 -121.626 	 37.1877 	 -117.12
| 29> C 	 -118.589 	 37.265 	 -116.77
| 30> H 	 -118.681 	 37.1957 	 -117.874
| 31> H 	 -117.665 	 36.9446 	 -116.413
| 32> C 	 -118.813 	 38.7585 	 -116.389
| 33> H 	 -118.844 	 38.9616 	 -115.279
| 34> H 	 -119.823 	 39.03 	 -116.811
| 35> C 	 -117.793 	 39.6984 	 -117.024
| 36> H 	 -118.145 	 40.7521 	 -116.999
| 37> H 	 -117.945 	 39.6081 	 -118.138
| 38> H 	 -116.842 	 39.5225 	 -116.614
| 39> H 	 -115.652 	 33.3376 	 -112.666
| 40> H 	 -122.922 	 35.5419 	 -115.83
| 41> *
| 42>
| 43>                          ****END OF INPUT****

CARTESIAN COORDINATES (ANGSTROEM)
---------------------------------
  S    -117.686000   33.340700  -114.230000
  C    -116.407000   33.918500  -113.177000
  C    -116.425000   35.269900  -113.066000
  C    -117.437000   35.824000  -113.885000
  C    -118.248000   34.963600  -114.501000
  H    -117.596000   36.901800  -113.910000
  C    -115.439000   36.130500  -112.255000
  H    -115.527000   35.949200  -111.242000
  H    -115.602000   37.214800  -112.398000
  C    -113.939000   35.749400  -112.687000
  H    -113.797000   34.699800  -112.748000
  H    -113.951000   36.158200  -113.713000
  C    -112.808000   36.428400  -111.895000
  H    -112.996000   36.089700  -110.854000
  H    -111.836000   36.203300  -112.339000
  H    -112.820000   37.540800  -111.815000
  S    -120.906000   34.430400  -114.758000
  C    -121.830000   35.551500  -115.709000
  C    -121.063000   36.435800  -116.469000
  C    -119.649000   36.304300  -116.146000
  C    -119.438000   35.283200  -115.242000
  H    -121.626000   37.187700  -117.120000
  C    -118.589000   37.265000  -116.770000
  H    -118.681000   37.195700  -117.874000
  H    -117.665000   36.944600  -116.413000
  C    -118.813000   38.758500  -116.389000
  H    -118.844000   38.961600  -115.279000
  H    -119.823000   39.030000  -116.811000
  C    -117.793000   39.698400  -117.024000
  H    -118.145000   40.752100  -116.999000
  H    -117.945000   39.608100  -118.138000
  H    -116.842000   39.522500  -116.614000
  H    -115.652000   33.337600  -112.666000
  H    -122.922000   35.541900  -115.830000

 Total Charge           Charge          ....    0
 Multiplicity           Mult            ....    1
 Number of Electrons    NEL             ....  134
 Basis Dimension        Dim             ....  322

ORBITAL ENERGIES
----------------

  NO   OCC          E(Eh)            E(eV)
   0   2.0000     -88.967857     -2420.9385
   1   2.0000     -88.964838     -2420.8563
   2   2.0000     -10.324929      -280.9556
   3   2.0000     -10.320775      -280.8426
   4   2.0000     -10.318936      -280.7925
   5   2.0000     -10.309760      -280.5428
   6   2.0000     -10.309135      -280.5258
   7   2.0000     -10.302697      -280.3506
   8   2.0000     -10.295986      -280.1680
   9   2.0000     -10.295465      -280.1538
  10   2.0000     -10.295377      -280.1514
  11   2.0000     -10.295176      -280.1460
  12   2.0000     -10.289760      -279.9986
  13   2.0000     -10.285707      -279.8883
  14   2.0000     -10.284520      -279.8560
  15   2.0000     -10.282080      -279.7896
  16   2.0000      -8.082664      -219.9405
  17   2.0000      -8.079803      -219.8626
  18   2.0000      -6.041146      -164.3879
  19   2.0000      -6.038377      -164.3126
  20   2.0000      -6.037318      -164.2838
  21   2.0000      -6.034354      -164.2031
  22   2.0000      -6.033282      -164.1739
  23   2.0000      -6.030408      -164.0957
  24   2.0000      -1.012233       -27.5443
  25   2.0000      -0.984915       -26.8009
  26   2.0000      -0.906903       -24.6781
  27   2.0000      -0.906210       -24.6592
  28   2.0000      -0.869587       -23.6627
  29   2.0000      -0.853450       -23.2236
  30   2.0000      -0.844915       -22.9913
  31   2.0000      -0.813664       -22.1409
  32   2.0000      -0.784499       -21.3473
  33   2.0000      -0.773032       -21.0353
  34   2.0000      -0.706904       -19.2358
  35   2.0000      -0.697629       -18.9835
  36   2.0000      -0.689928       -18.7739
  37   2.0000      -0.657260       -17.8850
  38   2.0000      -0.637634       -17.3509
  39   2.0000      -0.622166       -16.9300
  40   2.0000      -0.591767       -16.1028
  41   2.0000      -0.575446       -15.6587
  42   2.0000      -0.568609       -15.4726
  43   2.0000      -0.560499       -15.2520
  44   2.0000      -0.531249       -14.4560
  45   2.0000      -0.526206       -14.3188
  46   2.0000      -0.517587       -14.0843
  47   2.0000      -0.513689       -13.9782
  48   2.0000      -0.498752       -13.5717
  49   2.0000      -0.497845       -13.5471
  50   2.0000      -0.493211       -13.4209
  51   2.0000      -0.479643       -13.0517
  52   2.0000      -0.471709       -12.8359
  53   2.0000      -0.463953       -12.6248
  54   2.0000      -0.459517       -12.5041
  55   2.0000      -0.452599       -12.3158
  56   2.0000      -0.448940       -12.2163
  57   2.0000      -0.431996       -11.7552
  58   2.0000      -0.426383       -11.6025
  59   2.0000      -0.424815       -11.5598
  60   2.0000      -0.421100       -11.4587
  61   2.0000      -0.417645       -11.3647
  62   2.0000      -0.414368       -11.2755
  63   2.0000      -0.350994        -9.5510
  64   2.0000      -0.332441        -9.0462
  65   2.0000      -0.331708        -9.0262
  66   2.0000      -0.291519        -7.9326
  67   0.0000       0.035126         0.9558
  68   0.0000       0.070869         1.9284
  69   0.0000       0.111488         3.0337
  70   0.0000       0.122153         3.3239
  71   0.0000       0.126536         3.4432

MULLIKEN ATOMIC CHARGES
-----------------------
   0 S :    0.109196
   1 C :   -0.132200
   2 C :   -0.080761
   3 C :    0.004433
   4 C :   -0.135795
   5 H :    0.000411
   6 C :    0.103875
   7 H :    0.015316
   8 H :    0.027380
   9 C :   -0.119003
  10 H :    0.031417
  11 H :    0.034047
  12 C :   -0.049262
  13 H :    0.032975
  14 H :    0.046084
  15 H :    0.031843
  16 S :    0.120314
  17 C :   -0.104017
  18 C :   -0.070521
  19 C :   -0.037698
  20 C :   -0.145565
  21 H :    0.050408
  22 C :    0.118983
  23 H :    0.038914
  24 H :    0.004684
  25 C :   -0.141412
  26 H :    0.045004
  27 H :    0.026830
  28 C :   -0.028016
  29 H :    0.034453
  30 H :    0.025755
  31 H :    0.041086
  32 H :    0.040593
  33 H :    0.060247
Sum of atomic charges:   -0.0000000

LOEWDIN ATOMIC CHARGES
----------------------
   0 S :    0.401828
   1 C :   -0.193163
   2 C :   -0.062620
   3 C :   -0.069616
   4 C :   -0.197130
   5 H :    0.029778
   6 C :   -0.018780
   7 H :    0.016153
   8 H :    0.032082
   9 C :   -0.037767
  10 H :    0.016730
  11 H :    0.026519
  12 C :   -0.074243
  13 H :    0.028198
  14 H :    0.030010
  15 H :    0.027457
  16 S :    0.405009
  17 C :   -0.191839
  18 C :   -0.081411
  19 C :   -0.047053
  20 C :   -0.195307
  21 H :    0.045246
  22 C :   -0.019291
  23 H :    0.038601
  24 H :    0.015385
  25 C :   -0.047868
  26 H :    0.025877
  27 H :    0.024164
  28 C :   -0.070501
  29 H :    0.033214
  30 H :    0.032858
  31 H :    0.018704
  32 H :    0.027040
  33 H :    0.031737

  Mayer bond orders larger than 0.100000
B(  0-S ,  1-C ) :   1.1263 B(  0-S ,  4-C ) :   1.1361 B(  1-C ,  2-C ) :   1.6353
B(  1-C , 32-H ) :   0.9656 B(  2-C ,  3-C ) :   1.2548 B(  2-C ,  6-C ) :   1.0105
B(  3-C ,  4-C ) :   1.5940 B(  3-C ,  5-H ) :   0.9953 B(  4-C , 20-C ) :   1.0312
B(  6-C ,  7-H ) :   0.9358 B(  6-C ,  8-H ) :   0.9504 B(  6-C ,  9-C ) :   1.0442
B(  9-C , 10-H ) :   0.9638 B(  9-C , 11-H ) :   0.9603 B(  9-C , 12-C ) :   1.0742
B( 12-C , 13-H ) :   0.9746 B( 12-C , 14-H ) :   0.9734 B( 12-C , 15-H ) :   0.9756
B( 16-S , 17-C ) :   1.1501 B( 16-S , 20-C ) :   1.1262 B( 17-C , 18-C ) :   1.6535
B( 17-C , 33-H ) :   0.9611 B( 18-C , 19-C ) :   1.1928 B( 18-C , 21-H ) :   0.9752
B( 19-C , 20-C ) :   1.6387 B( 19-C , 22-C ) :   1.0371 B( 22-C , 23-H ) :   0.9349
B( 22-C , 24-H ) :   0.9309 B( 22-C , 25-C ) :   1.0576 B( 25-C , 26-H ) :   0.9560
B( 25-C , 27-H ) :   0.9540 B( 25-C , 28-C ) :   1.0900 B( 28-C , 29-H ) :   0.9703
B( 28-C , 30-H ) :   0.9677 B( 28-C , 31-H ) :   0.9769

Dispersion correction           -0.013727522
FINAL SINGLE POINT ENERGY     -1339.871001787402

DIPOLE MOMENT
-------------
                                X             Y             Z
Electronic contribution:    -21.01067     -23.76271      -0.26065
Nuclear contribution   :     21.24699      24.48270       0.22716
                        -----------------------------------------
Total Dipole Moment    :      0.23632       0.71999      -0.03349
                        -----------------------------------------
Magnitude (a.u.)       :      0.75852
Magnitude (Debye)      :      1.92800

Rotational constants in cm-1:     0.017697     0.008571     0.006129
Rotational constants in MHz :   530.528509   256.960478   183.747350

                             ****ORCA TERMINATED NORMALLY****
TOTAL RUN TIME: 0 days 0 hours 0 minutes 21 seconds 98 msec
