                         Program Version 4.2.1 -  RELEASE  -
|  1> ! wB97X-D3 SP def2-SVP
|  2> %pal
|  3> nprocs 24
|  4> end
|  5>
|  6> * xyz 0 1
|  7> S 	 -67.5818 	 10.7804 	 -72.2702
|  8> C 	 -67.7066 	 12.4478 	 -72.527
|  9> C 	 -67.5749 	 13.0908 	 -71.3074
| 10> C 	 -67.4723 	 12.2291 	 -70.1597
| 11> C 	 -67.5961 	 10.9067 	 -70.4864
| 12> H 	 -67.4427 	 12.4413 	 -69.0849
| 13> C 	 -67.3404 	 14.5975 	 -71.2182
| 14> H 	 -66.9585 	 14.7761 	 -70.2567
| 15> H 	 -68.3523 	 15.097 	 -71.308
| 16> C 	 -66.317 	 15.231 	 -72.2161
| 17> H 	 -66.7619 	 15.111 	 -73.2054
| 18> H 	 -66.2672 	 16.2832 	 -71.9732
| 19> C 	 -64.967 	 14.4597 	 -72.3408
| 20> H 	 -64.2937 	 14.9717 	 -73.0494
| 21> H 	 -64.3876 	 14.4772 	 -71.4032
| 22> H 	 -65.1045 	 13.4469 	 -72.6501
| 23> S 	 -66.2609 	 8.86748 	 -69.4173
| 24> C 	 -67.1325 	 7.45767 	 -68.7877
| 25> C 	 -68.5082 	 7.67763 	 -68.7446
| 26> C 	 -68.7987 	 8.98284 	 -69.2822
| 27> C 	 -67.6851 	 9.75684 	 -69.6334
| 28> H 	 -69.1659 	 6.97505 	 -68.2934
| 29> C 	 -70.2392 	 9.42088 	 -69.4337
| 30> H 	 -70.7948 	 8.47638 	 -69.4198
| 31> H 	 -70.4921 	 9.92011 	 -70.3509
| 32> C 	 -70.7571 	 10.3576 	 -68.2991
| 33> H 	 -71.8282 	 10.5677 	 -68.4891
| 34> H 	 -70.1858 	 11.3202 	 -68.3276
| 35> C 	 -70.657 	 9.72044 	 -66.9229
| 36> H 	 -71.1037 	 10.3528 	 -66.1094
| 37> H 	 -69.6587 	 9.74173 	 -66.594
| 38> H 	 -71.0583 	 8.79452 	 -66.866
| 39> H 	 -67.7014 	 12.9245 	 -73.468
| 40> H 	 -66.75 	 6.56939 	 -68.4554
| 41> *
| 42>
| 43>                          ****END OF INPUT****

CARTESIAN COORDINATES (ANGSTROEM)
---------------------------------
  S    -67.581800   10.780400  -72.270200
  C    -67.706600   12.447800  -72.527000
  C    -67.574900   13.090800  -71.307400
  C    -67.472300   12.229100  -70.159700
  C    -67.596100   10.906700  -70.486400
  H    -67.442700   12.441300  -69.084900
  C    -67.340400   14.597500  -71.218200
  H    -66.958500   14.776100  -70.256700
  H    -68.352300   15.097000  -71.308000
  C    -66.317000   15.231000  -72.216100
  H    -66.761900   15.111000  -73.205400
  H    -66.267200   16.283200  -71.973200
  C    -64.967000   14.459700  -72.340800
  H    -64.293700   14.971700  -73.049400
  H    -64.387600   14.477200  -71.403200
  H    -65.104500   13.446900  -72.650100
  S    -66.260900    8.867480  -69.417300
  C    -67.132500    7.457670  -68.787700
  C    -68.508200    7.677630  -68.744600
  C    -68.798700    8.982840  -69.282200
  C    -67.685100    9.756840  -69.633400
  H    -69.165900    6.975050  -68.293400
  C    -70.239200    9.420880  -69.433700
  H    -70.794800    8.476380  -69.419800
  H    -70.492100    9.920110  -70.350900
  C    -70.757100   10.357600  -68.299100
  H    -71.828200   10.567700  -68.489100
  H    -70.185800   11.320200  -68.327600
  C    -70.657000    9.720440  -66.922900
  H    -71.103700   10.352800  -66.109400
  H    -69.658700    9.741730  -66.594000
  H    -71.058300    8.794520  -66.866000
  H    -67.701400   12.924500  -73.468000
  H    -66.750000    6.569390  -68.455400

 Total Charge           Charge          ....    0
 Multiplicity           Mult            ....    1
 Number of Electrons    NEL             ....  134
 Basis Dimension        Dim             ....  322

ORBITAL ENERGIES
----------------

  NO   OCC          E(Eh)            E(eV)
   0   2.0000     -88.967423     -2420.9266
   1   2.0000     -88.961267     -2420.7592
   2   2.0000     -10.326981      -281.0114
   3   2.0000     -10.319270      -280.8016
   4   2.0000     -10.316510      -280.7265
   5   2.0000     -10.309402      -280.5331
   6   2.0000     -10.305451      -280.4256
   7   2.0000     -10.299844      -280.2730
   8   2.0000     -10.296869      -280.1921
   9   2.0000     -10.296593      -280.1845
  10   2.0000     -10.289304      -279.9862
  11   2.0000     -10.288558      -279.9659
  12   2.0000     -10.286995      -279.9234
  13   2.0000     -10.285518      -279.8832
  14   2.0000     -10.276585      -279.6401
  15   2.0000     -10.262554      -279.2583
  16   2.0000      -8.082679      -219.9409
  17   2.0000      -8.076557      -219.7743
  18   2.0000      -6.041164      -164.3884
  19   2.0000      -6.036910      -164.2727
  20   2.0000      -6.034963      -164.2197
  21   2.0000      -6.033612      -164.1829
  22   2.0000      -6.030892      -164.1089
  23   2.0000      -6.027447      -164.0152
  24   2.0000      -1.011067       -27.5125
  25   2.0000      -0.987421       -26.8691
  26   2.0000      -0.906042       -24.6547
  27   2.0000      -0.903657       -24.5898
  28   2.0000      -0.875926       -23.8352
  29   2.0000      -0.847178       -23.0529
  30   2.0000      -0.843656       -22.9571
  31   2.0000      -0.818851       -22.2821
  32   2.0000      -0.781107       -21.2550
  33   2.0000      -0.770035       -20.9537
  34   2.0000      -0.710860       -19.3435
  35   2.0000      -0.701739       -19.0953
  36   2.0000      -0.688097       -18.7241
  37   2.0000      -0.669929       -18.2297
  38   2.0000      -0.649024       -17.6608
  39   2.0000      -0.605783       -16.4842
  40   2.0000      -0.589475       -16.0404
  41   2.0000      -0.577750       -15.7214
  42   2.0000      -0.557391       -15.1674
  43   2.0000      -0.546355       -14.8671
  44   2.0000      -0.544634       -14.8202
  45   2.0000      -0.536124       -14.5887
  46   2.0000      -0.524489       -14.2721
  47   2.0000      -0.521291       -14.1850
  48   2.0000      -0.505721       -13.7614
  49   2.0000      -0.492724       -13.4077
  50   2.0000      -0.487844       -13.2749
  51   2.0000      -0.475351       -12.9349
  52   2.0000      -0.474258       -12.9052
  53   2.0000      -0.471328       -12.8255
  54   2.0000      -0.462653       -12.5894
  55   2.0000      -0.442568       -12.0429
  56   2.0000      -0.440639       -11.9904
  57   2.0000      -0.433890       -11.8068
  58   2.0000      -0.429670       -11.6919
  59   2.0000      -0.423259       -11.5175
  60   2.0000      -0.416284       -11.3277
  61   2.0000      -0.410216       -11.1625
  62   2.0000      -0.409356       -11.1391
  63   2.0000      -0.338160        -9.2018
  64   2.0000      -0.337450        -9.1825
  65   2.0000      -0.315466        -8.5843
  66   2.0000      -0.306477        -8.3397
  67   0.0000       0.042069         1.1448
  68   0.0000       0.049114         1.3365
  69   0.0000       0.117132         3.1873
  70   0.0000       0.123710         3.3663
  71   0.0000       0.124547         3.3891

MULLIKEN ATOMIC CHARGES
-----------------------
   0 S :    0.118380
   1 C :   -0.099510
   2 C :   -0.125712
   3 C :    0.049280
   4 C :   -0.169772
   5 H :    0.023053
   6 C :    0.079663
   7 H :    0.003311
   8 H :    0.049671
   9 C :   -0.081700
  10 H :    0.021319
  11 H :    0.036876
  12 C :   -0.051349
  13 H :    0.033994
  14 H :    0.029083
  15 H :    0.041879
  16 S :    0.121042
  17 C :   -0.054820
  18 C :   -0.024845
  19 C :   -0.055230
  20 C :   -0.173243
  21 H :    0.018180
  22 C :    0.085149
  23 H :    0.014003
  24 H :    0.029573
  25 C :   -0.086099
  26 H :    0.033843
  27 H :    0.036999
  28 C :   -0.018085
  29 H :    0.026268
  30 H :    0.023808
  31 H :    0.007285
  32 H :    0.039794
  33 H :    0.017915
Sum of atomic charges:   -0.0000000

LOEWDIN ATOMIC CHARGES
----------------------
   0 S :    0.413750
   1 C :   -0.204486
   2 C :   -0.071513
   3 C :   -0.060781
   4 C :   -0.190541
   5 H :    0.038956
   6 C :   -0.033970
   7 H :    0.017228
   8 H :    0.040297
   9 C :   -0.038096
  10 H :    0.018803
  11 H :    0.025634
  12 C :   -0.066009
  13 H :    0.028599
  14 H :    0.024808
  15 H :    0.023051
  16 S :    0.435910
  17 C :   -0.160455
  18 C :   -0.062342
  19 C :   -0.044102
  20 C :   -0.239575
  21 H :    0.030261
  22 C :   -0.032179
  23 H :    0.028283
  24 H :    0.029306
  25 C :   -0.035432
  26 H :    0.024577
  27 H :    0.027778
  28 C :   -0.062617
  29 H :    0.033081
  30 H :    0.021409
  31 H :    0.006631
  32 H :    0.023543
  33 H :    0.010197

  Mayer bond orders larger than 0.100000
B(  0-S ,  1-C ) :   1.1545 B(  0-S ,  4-C ) :   1.1381 B(  1-C ,  2-C ) :   1.5877
B(  1-C , 32-H ) :   0.9799 B(  2-C ,  3-C ) :   1.2367 B(  2-C ,  6-C ) :   1.0126
B(  3-C ,  4-C ) :   1.5973 B(  3-C ,  5-H ) :   0.9889 B(  4-C , 20-C ) :   1.0305
B(  6-C ,  7-H ) :   0.9463 B(  6-C ,  8-H ) :   0.9364 B(  6-C ,  9-C ) :   1.0711
B(  9-C , 10-H ) :   0.9545 B(  9-C , 11-H ) :   0.9583 B(  9-C , 12-C ) :   1.0738
B( 12-C , 13-H ) :   0.9745 B( 12-C , 14-H ) :   0.9778 B( 12-C , 15-H ) :   0.9708
B( 16-S , 17-C ) :   1.1733 B( 16-S , 20-C ) :   1.1544 B( 17-C , 18-C ) :   1.5927
B( 17-C , 33-H ) :   0.9751 B( 18-C , 19-C ) :   1.2574 B( 18-C , 21-H ) :   0.9930
B( 19-C , 20-C ) :   1.5667 B( 19-C , 22-C ) :   1.0452 B( 22-C , 23-H ) :   0.9343
B( 22-C , 24-H ) :   0.9317 B( 22-C , 25-C ) :   1.0747 B( 25-C , 26-H ) :   0.9581
B( 25-C , 27-H ) :   0.9555 B( 25-C , 28-C ) :   1.0820 B( 28-C , 29-H ) :   0.9691
B( 28-C , 30-H ) :   0.9693 B( 28-C , 31-H ) :   0.9764

Dispersion correction           -0.015302904
FINAL SINGLE POINT ENERGY     -1339.869335955711

DIPOLE MOMENT
-------------
                                X             Y             Z
Electronic contribution:      7.62168     -15.47775      -5.18874
Nuclear contribution   :     -7.85266      15.65080       5.38724
                        -----------------------------------------
Total Dipole Moment    :     -0.23099       0.17305       0.19850
                        -----------------------------------------
Magnitude (a.u.)       :      0.35029
Magnitude (Debye)      :      0.89037

Rotational constants in cm-1:     0.023812     0.007994     0.006937
Rotational constants in MHz :   713.865794   239.645135   207.977682

                             ****ORCA TERMINATED NORMALLY****
TOTAL RUN TIME: 0 days 0 hours 0 minutes 22 seconds 189 msec
