                         Program Version 4.2.1 -  RELEASE  -
|  1> ! wB97X-D3 SP def2-SVP
|  2> %pal
|  3> nprocs 24
|  4> end
|  5>
|  6> * xyz 0 1
|  7> S 	 -67.1039 	 6.25149 	 -76.6123
|  8> C 	 -66.8984 	 4.58472 	 -77.1854
|  9> C 	 -67.7378 	 4.18442 	 -78.1384
| 10> C 	 -68.783 	 5.15727 	 -78.2735
| 11> C 	 -68.6411 	 6.30691 	 -77.4732
| 12> H 	 -69.6676 	 5.2365 	 -78.9125
| 13> C 	 -67.7439 	 2.81426 	 -78.8074
| 14> H 	 -68.5384 	 2.27461 	 -78.2854
| 15> H 	 -66.8359 	 2.29107 	 -78.58
| 16> C 	 -67.8712 	 2.76118 	 -80.3754
| 17> H 	 -68.1184 	 1.76225 	 -80.7562
| 18> H 	 -68.705 	 3.40622 	 -80.6545
| 19> C 	 -66.5977 	 3.28996 	 -81.0341
| 20> H 	 -66.5831 	 3.09943 	 -82.0771
| 21> H 	 -66.6368 	 4.42179 	 -80.8688
| 22> H 	 -65.7022 	 2.85258 	 -80.5328
| 23> S 	 -68.9307 	 9.09214 	 -78.1007
| 24> C 	 -70.489 	 9.78746 	 -78.0754
| 25> C 	 -71.4337 	 8.91597 	 -77.5667
| 26> C 	 -70.8783 	 7.57122 	 -77.3781
| 27> C 	 -69.5468 	 7.46669 	 -77.5888
| 28> H 	 -72.427 	 9.21946 	 -77.3709
| 29> C 	 -71.7751 	 6.36898 	 -77.0521
| 30> H 	 -72.4191 	 6.57069 	 -76.1021
| 31> H 	 -71.0979 	 5.53109 	 -76.9195
| 32> C 	 -72.5871 	 5.95741 	 -78.3051
| 33> H 	 -71.9208 	 5.85614 	 -79.1859
| 34> H 	 -73.4305 	 6.59923 	 -78.4785
| 35> C 	 -73.1859 	 4.53008 	 -78.0655
| 36> H 	 -73.828 	 4.56276 	 -77.1939
| 37> H 	 -72.3236 	 3.84345 	 -77.8843
| 38> H 	 -73.7115 	 4.27168 	 -78.9534
| 39> H 	 -66.0912 	 4.03961 	 -76.9845
| 40> H 	 -70.7938 	 10.7401 	 -78.542
| 41> *
| 42>
| 43>                          ****END OF INPUT****

CARTESIAN COORDINATES (ANGSTROEM)
---------------------------------
  S    -67.103900    6.251490  -76.612300
  C    -66.898400    4.584720  -77.185400
  C    -67.737800    4.184420  -78.138400
  C    -68.783000    5.157270  -78.273500
  C    -68.641100    6.306910  -77.473200
  H    -69.667600    5.236500  -78.912500
  C    -67.743900    2.814260  -78.807400
  H    -68.538400    2.274610  -78.285400
  H    -66.835900    2.291070  -78.580000
  C    -67.871200    2.761180  -80.375400
  H    -68.118400    1.762250  -80.756200
  H    -68.705000    3.406220  -80.654500
  C    -66.597700    3.289960  -81.034100
  H    -66.583100    3.099430  -82.077100
  H    -66.636800    4.421790  -80.868800
  H    -65.702200    2.852580  -80.532800
  S    -68.930700    9.092140  -78.100700
  C    -70.489000    9.787460  -78.075400
  C    -71.433700    8.915970  -77.566700
  C    -70.878300    7.571220  -77.378100
  C    -69.546800    7.466690  -77.588800
  H    -72.427000    9.219460  -77.370900
  C    -71.775100    6.368980  -77.052100
  H    -72.419100    6.570690  -76.102100
  H    -71.097900    5.531090  -76.919500
  C    -72.587100    5.957410  -78.305100
  H    -71.920800    5.856140  -79.185900
  H    -73.430500    6.599230  -78.478500
  C    -73.185900    4.530080  -78.065500
  H    -73.828000    4.562760  -77.193900
  H    -72.323600    3.843450  -77.884300
  H    -73.711500    4.271680  -78.953400
  H    -66.091200    4.039610  -76.984500
  H    -70.793800   10.740100  -78.542000

 Total Charge           Charge          ....    0
 Multiplicity           Mult            ....    1
 Number of Electrons    NEL             ....  134
 Basis Dimension        Dim             ....  322

ORBITAL ENERGIES
----------------

  NO   OCC          E(Eh)            E(eV)
   0   2.0000     -88.968965     -2420.9686
   1   2.0000     -88.960854     -2420.7479
   2   2.0000     -10.334669      -281.2206
   3   2.0000     -10.327560      -281.0272
   4   2.0000     -10.318847      -280.7901
   5   2.0000     -10.303566      -280.3743
   6   2.0000     -10.303153      -280.3630
   7   2.0000     -10.302618      -280.3485
   8   2.0000     -10.298957      -280.2489
   9   2.0000     -10.297816      -280.2178
  10   2.0000     -10.297214      -280.2014
  11   2.0000     -10.292896      -280.0839
  12   2.0000     -10.292031      -280.0604
  13   2.0000     -10.288943      -279.9764
  14   2.0000     -10.281890      -279.7845
  15   2.0000     -10.277575      -279.6670
  16   2.0000      -8.083138      -219.9534
  17   2.0000      -8.075849      -219.7550
  18   2.0000      -6.041707      -164.4032
  19   2.0000      -6.037973      -164.3016
  20   2.0000      -6.034508      -164.2073
  21   2.0000      -6.033612      -164.1829
  22   2.0000      -6.030357      -164.0944
  23   2.0000      -6.026377      -163.9861
  24   2.0000      -1.004165       -27.3247
  25   2.0000      -0.984935       -26.8014
  26   2.0000      -0.911047       -24.7908
  27   2.0000      -0.906965       -24.6798
  28   2.0000      -0.872367       -23.7383
  29   2.0000      -0.850450       -23.1419
  30   2.0000      -0.841324       -22.8936
  31   2.0000      -0.814407       -22.1611
  32   2.0000      -0.782768       -21.3002
  33   2.0000      -0.770903       -20.9773
  34   2.0000      -0.707126       -19.2419
  35   2.0000      -0.696181       -18.9441
  36   2.0000      -0.691661       -18.8211
  37   2.0000      -0.658780       -17.9263
  38   2.0000      -0.647375       -17.6160
  39   2.0000      -0.616755       -16.7827
  40   2.0000      -0.591164       -16.0864
  41   2.0000      -0.574168       -15.6239
  42   2.0000      -0.568010       -15.4563
  43   2.0000      -0.560244       -15.2450
  44   2.0000      -0.539250       -14.6737
  45   2.0000      -0.525757       -14.3066
  46   2.0000      -0.519339       -14.1319
  47   2.0000      -0.513404       -13.9704
  48   2.0000      -0.504254       -13.7214
  49   2.0000      -0.494762       -13.4632
  50   2.0000      -0.482319       -13.1246
  51   2.0000      -0.477308       -12.9882
  52   2.0000      -0.475438       -12.9373
  53   2.0000      -0.461045       -12.5457
  54   2.0000      -0.456816       -12.4306
  55   2.0000      -0.448167       -12.1952
  56   2.0000      -0.442429       -12.0391
  57   2.0000      -0.439251       -11.9526
  58   2.0000      -0.435225       -11.8431
  59   2.0000      -0.427953       -11.6452
  60   2.0000      -0.424928       -11.5629
  61   2.0000      -0.422594       -11.4994
  62   2.0000      -0.407041       -11.0762
  63   2.0000      -0.347891        -9.4666
  64   2.0000      -0.334081        -9.0908
  65   2.0000      -0.325582        -8.8595
  66   2.0000      -0.296890        -8.0788
  67   0.0000       0.036383         0.9900
  68   0.0000       0.061384         1.6703
  69   0.0000       0.111369         3.0305
  70   0.0000       0.119866         3.2617
  71   0.0000       0.125788         3.4229

MULLIKEN ATOMIC CHARGES
-----------------------
   0 S :    0.112495
   1 C :   -0.059319
   2 C :   -0.051011
   3 C :   -0.000863
   4 C :   -0.159677
   5 H :    0.008859
   6 C :    0.066757
   7 H :    0.048664
   8 H :    0.008091
   9 C :   -0.077698
  10 H :    0.032865
  11 H :    0.029295
  12 C :   -0.068561
  13 H :    0.035282
  14 H :    0.055204
  15 H :    0.035559
  16 S :    0.094920
  17 C :   -0.094618
  18 C :   -0.011821
  19 C :   -0.055906
  20 C :   -0.155649
  21 H :    0.004212
  22 C :    0.040937
  23 H :    0.055199
  24 H :    0.019989
  25 C :   -0.104398
  26 H :    0.043094
  27 H :    0.030867
  28 C :   -0.040391
  29 H :    0.032024
  30 H :    0.033630
  31 H :    0.033569
  32 H :   -0.015614
  33 H :    0.074016
Sum of atomic charges:    0.0000000

LOEWDIN ATOMIC CHARGES
----------------------
   0 S :    0.388790
   1 C :   -0.159783
   2 C :   -0.061190
   3 C :   -0.063121
   4 C :   -0.185951
   5 H :    0.029298
   6 C :   -0.023999
   7 H :    0.037577
   8 H :    0.023152
   9 C :   -0.041006
  10 H :    0.024022
  11 H :    0.021803
  12 C :   -0.067128
  13 H :    0.020060
  14 H :    0.039213
  15 H :    0.026813
  16 S :    0.384374
  17 C :   -0.193683
  18 C :   -0.071101
  19 C :   -0.052740
  20 C :   -0.187947
  21 H :    0.023334
  22 C :   -0.035847
  23 H :    0.042984
  24 H :    0.025137
  25 C :   -0.035837
  26 H :    0.025333
  27 H :    0.018328
  28 C :   -0.060005
  29 H :    0.022389
  30 H :    0.026400
  31 H :    0.020300
  32 H :   -0.000875
  33 H :    0.040907

  Mayer bond orders larger than 0.100000
B(  0-S ,  1-C ) :   1.1220 B(  0-S ,  4-C ) :   1.1316 B(  1-C ,  2-C ) :   1.6636
B(  1-C , 32-H ) :   0.9683 B(  2-C ,  3-C ) :   1.1847 B(  2-C ,  6-C ) :   1.0133
B(  3-C ,  4-C ) :   1.5995 B(  3-C ,  5-H ) :   0.9880 B(  4-C , 20-C ) :   1.0480
B(  6-C ,  7-H ) :   0.9436 B(  6-C ,  8-H ) :   0.9417 B(  6-C ,  9-C ) :   1.0618
B(  9-C , 10-H ) :   0.9587 B(  9-C , 11-H ) :   0.9604 B(  9-C , 12-C ) :   1.0674
B( 12-C , 13-H ) :   0.9751 B( 12-C , 14-H ) :   0.9758 B( 12-C , 15-H ) :   0.9767
B( 16-S , 17-C ) :   1.1635 B( 16-S , 20-C ) :   1.0924 B( 17-C , 18-C ) :   1.6235
B( 17-C , 33-H ) :   0.9599 B( 18-C , 19-C ) :   1.1982 B( 18-C , 21-H ) :   1.0000
B( 19-C , 20-C ) :   1.6629 B( 19-C , 22-C ) :   1.0522 B( 22-C , 23-H ) :   0.9346
B( 22-C , 24-H ) :   0.9310 B( 22-C , 25-C ) :   1.0592 B( 25-C , 26-H ) :   0.9535
B( 25-C , 27-H ) :   0.9547 B( 25-C , 28-C ) :   1.0820 B( 28-C , 29-H ) :   0.9750
B( 28-C , 30-H ) :   0.9764 B( 28-C , 31-H ) :   0.9760

Dispersion correction           -0.014668586
FINAL SINGLE POINT ENERGY     -1339.867933799877

DIPOLE MOMENT
-------------
                                X             Y             Z
Electronic contribution:     11.87097      21.99333      12.18754
Nuclear contribution   :    -12.34763     -22.47305     -12.56284
                        -----------------------------------------
Total Dipole Moment    :     -0.47666      -0.47971      -0.37530
                        -----------------------------------------
Magnitude (a.u.)       :      0.77342
Magnitude (Debye)      :      1.96588

Rotational constants in cm-1:     0.016996     0.009264     0.007247
Rotational constants in MHz :   509.528902   277.714230   217.273878

                             ****ORCA TERMINATED NORMALLY****
TOTAL RUN TIME: 0 days 0 hours 0 minutes 22 seconds 214 msec
