                         Program Version 4.2.1 -  RELEASE  -
|  1> ! wB97X-D3 SP def2-SVP
|  2> %pal
|  3> nprocs 24
|  4> end
|  5>
|  6> * xyz 0 1
|  7> S 	 -107.66 	 60.2304 	 -16.8423
|  8> C 	 -108.601 	 61.0395 	 -15.6154
|  9> C 	 -108.733 	 60.2726 	 -14.4757
| 10> C 	 -108.218 	 58.9557 	 -14.6207
| 11> C 	 -107.608 	 58.7525 	 -15.8574
| 12> H 	 -108.316 	 58.1474 	 -13.8801
| 13> C 	 -109.544 	 60.7374 	 -13.2092
| 14> H 	 -110.345 	 60.0169 	 -13.3728
| 15> H 	 -109.927 	 61.7622 	 -13.4467
| 16> C 	 -108.779 	 60.6945 	 -11.8684
| 17> H 	 -108.263 	 59.7651 	 -11.5756
| 18> H 	 -107.987 	 61.4837 	 -11.9874
| 19> C 	 -109.579 	 61.3533 	 -10.7048
| 20> H 	 -108.84 	 61.6318 	 -9.89518
| 21> H 	 -110.286 	 62.0963 	 -10.9393
| 22> H 	 -110.188 	 60.5471 	 -10.2642
| 23> S 	 -107.389 	 57.2163 	 -18.1643
| 24> C 	 -106.438 	 55.7548 	 -18.0904
| 25> C 	 -105.959 	 55.5017 	 -16.8081
| 26> C 	 -106.265 	 56.5174 	 -15.8458
| 27> C 	 -106.995 	 57.5859 	 -16.4118
| 28> H 	 -105.477 	 54.5125 	 -16.6738
| 29> C 	 -105.648 	 56.4756 	 -14.404
| 30> H 	 -106.335 	 55.8863 	 -13.7653
| 31> H 	 -105.673 	 57.5186 	 -13.9771
| 32> C 	 -104.264 	 55.8462 	 -14.2968
| 33> H 	 -103.613 	 56.3848 	 -14.9512
| 34> H 	 -104.469 	 54.8222 	 -14.6546
| 35> C 	 -103.587 	 55.7927 	 -12.8743
| 36> H 	 -102.655 	 55.2029 	 -12.8457
| 37> H 	 -104.304 	 55.3563 	 -12.15
| 38> H 	 -103.501 	 56.809 	 -12.5883
| 39> H 	 -108.899 	 62.1127 	 -15.6346
| 40> H 	 -106.451 	 55.1072 	 -19.0219
| 41> *
| 42>
| 43>                          ****END OF INPUT****

CARTESIAN COORDINATES (ANGSTROEM)
---------------------------------
  S    -107.660000   60.230400  -16.842300
  C    -108.601000   61.039500  -15.615400
  C    -108.733000   60.272600  -14.475700
  C    -108.218000   58.955700  -14.620700
  C    -107.608000   58.752500  -15.857400
  H    -108.316000   58.147400  -13.880100
  C    -109.544000   60.737400  -13.209200
  H    -110.345000   60.016900  -13.372800
  H    -109.927000   61.762200  -13.446700
  C    -108.779000   60.694500  -11.868400
  H    -108.263000   59.765100  -11.575600
  H    -107.987000   61.483700  -11.987400
  C    -109.579000   61.353300  -10.704800
  H    -108.840000   61.631800   -9.895180
  H    -110.286000   62.096300  -10.939300
  H    -110.188000   60.547100  -10.264200
  S    -107.389000   57.216300  -18.164300
  C    -106.438000   55.754800  -18.090400
  C    -105.959000   55.501700  -16.808100
  C    -106.265000   56.517400  -15.845800
  C    -106.995000   57.585900  -16.411800
  H    -105.477000   54.512500  -16.673800
  C    -105.648000   56.475600  -14.404000
  H    -106.335000   55.886300  -13.765300
  H    -105.673000   57.518600  -13.977100
  C    -104.264000   55.846200  -14.296800
  H    -103.613000   56.384800  -14.951200
  H    -104.469000   54.822200  -14.654600
  C    -103.587000   55.792700  -12.874300
  H    -102.655000   55.202900  -12.845700
  H    -104.304000   55.356300  -12.150000
  H    -103.501000   56.809000  -12.588300
  H    -108.899000   62.112700  -15.634600
  H    -106.451000   55.107200  -19.021900

 Total Charge           Charge          ....    0
 Multiplicity           Mult            ....    1
 Number of Electrons    NEL             ....  134
 Basis Dimension        Dim             ....  322

ORBITAL ENERGIES
----------------

  NO   OCC          E(Eh)            E(eV)
   0   2.0000     -88.965415     -2420.8720
   1   2.0000     -88.964182     -2420.8385
   2   2.0000     -10.334132      -281.2060
   3   2.0000     -10.331901      -281.1453
   4   2.0000     -10.324750      -280.9507
   5   2.0000     -10.315648      -280.7031
   6   2.0000     -10.312630      -280.6209
   7   2.0000     -10.302192      -280.3369
   8   2.0000     -10.302095      -280.3343
   9   2.0000     -10.301321      -280.3132
  10   2.0000     -10.300582      -280.2931
  11   2.0000     -10.298049      -280.2242
  12   2.0000     -10.297943      -280.2213
  13   2.0000     -10.287918      -279.9485
  14   2.0000     -10.283825      -279.8371
  15   2.0000     -10.282172      -279.7921
  16   2.0000      -8.079776      -219.8619
  17   2.0000      -8.078093      -219.8161
  18   2.0000      -6.038300      -164.3105
  19   2.0000      -6.036559      -164.2631
  20   2.0000      -6.034406      -164.2045
  21   2.0000      -6.032754      -164.1596
  22   2.0000      -6.030465      -164.0973
  23   2.0000      -6.028885      -164.0543
  24   2.0000      -1.000477       -27.2244
  25   2.0000      -0.976036       -26.5593
  26   2.0000      -0.905632       -24.6435
  27   2.0000      -0.903615       -24.5886
  28   2.0000      -0.868388       -23.6301
  29   2.0000      -0.850356       -23.1394
  30   2.0000      -0.841428       -22.8964
  31   2.0000      -0.808933       -22.0122
  32   2.0000      -0.783185       -21.3115
  33   2.0000      -0.768292       -20.9063
  34   2.0000      -0.708604       -19.2821
  35   2.0000      -0.695869       -18.9355
  36   2.0000      -0.692959       -18.8564
  37   2.0000      -0.650409       -17.6985
  38   2.0000      -0.632920       -17.2226
  39   2.0000      -0.618946       -16.8424
  40   2.0000      -0.593113       -16.1394
  41   2.0000      -0.570720       -15.5301
  42   2.0000      -0.561550       -15.2806
  43   2.0000      -0.555328       -15.1112
  44   2.0000      -0.531297       -14.4573
  45   2.0000      -0.525467       -14.2987
  46   2.0000      -0.512269       -13.9396
  47   2.0000      -0.503987       -13.7142
  48   2.0000      -0.502045       -13.6613
  49   2.0000      -0.494488       -13.4557
  50   2.0000      -0.483298       -13.1512
  51   2.0000      -0.480774       -13.0825
  52   2.0000      -0.473058       -12.8726
  53   2.0000      -0.469119       -12.7654
  54   2.0000      -0.453127       -12.3302
  55   2.0000      -0.452619       -12.3164
  56   2.0000      -0.448926       -12.2159
  57   2.0000      -0.445529       -12.1235
  58   2.0000      -0.430437       -11.7128
  59   2.0000      -0.422204       -11.4888
  60   2.0000      -0.420947       -11.4545
  61   2.0000      -0.413437       -11.2502
  62   2.0000      -0.398037       -10.8311
  63   2.0000      -0.352727        -9.5982
  64   2.0000      -0.333727        -9.0812
  65   2.0000      -0.328949        -8.9512
  66   2.0000      -0.282745        -7.6939
  67   0.0000       0.019692         0.5359
  68   0.0000       0.072528         1.9736
  69   0.0000       0.104201         2.8355
  70   0.0000       0.122075         3.3218
  71   0.0000       0.131609         3.5813

MULLIKEN ATOMIC CHARGES
-----------------------
   0 S :    0.106109
   1 C :   -0.134775
   2 C :   -0.109297
   3 C :    0.019137
   4 C :   -0.150100
   5 H :    0.022444
   6 C :    0.054880
   7 H :    0.047435
   8 H :    0.025010
   9 C :   -0.096988
  10 H :    0.046064
  11 H :    0.037935
  12 C :   -0.053554
  13 H :    0.046300
  14 H :    0.030914
  15 H :    0.024991
  16 S :    0.085299
  17 C :   -0.123862
  18 C :   -0.061307
  19 C :   -0.005437
  20 C :   -0.147375
  21 H :    0.041527
  22 C :    0.029829
  23 H :    0.033597
  24 H :    0.037104
  25 C :   -0.101988
  26 H :    0.037944
  27 H :    0.034364
  28 C :   -0.031197
  29 H :    0.054368
  30 H :    0.024794
  31 H :    0.026740
  32 H :    0.061237
  33 H :    0.087857
Sum of atomic charges:    0.0000000

LOEWDIN ATOMIC CHARGES
----------------------
   0 S :    0.395890
   1 C :   -0.215578
   2 C :   -0.064770
   3 C :   -0.068423
   4 C :   -0.181539
   5 H :    0.035574
   6 C :   -0.030185
   7 H :    0.033838
   8 H :    0.033650
   9 C :   -0.048468
  10 H :    0.028762
  11 H :    0.032754
  12 C :   -0.068749
  13 H :    0.034934
  14 H :    0.019063
  15 H :    0.024420
  16 S :    0.372674
  17 C :   -0.190813
  18 C :   -0.084067
  19 C :   -0.049072
  20 C :   -0.177633
  21 H :    0.039684
  22 C :   -0.035577
  23 H :    0.030501
  24 H :    0.031687
  25 C :   -0.041685
  26 H :    0.022275
  27 H :    0.022994
  28 C :   -0.061340
  29 H :    0.033970
  30 H :    0.026095
  31 H :    0.020717
  32 H :    0.036353
  33 H :    0.042064

  Mayer bond orders larger than 0.100000
B(  0-S ,  1-C ) :   1.1234 B(  0-S ,  4-C ) :   1.1503 B(  1-C ,  2-C ) :   1.6325
B(  1-C , 32-H ) :   0.9576 B(  2-C ,  3-C ) :   1.2432 B(  2-C ,  6-C ) :   0.9912
B(  3-C ,  4-C ) :   1.5598 B(  3-C ,  5-H ) :   0.9893 B(  4-C , 20-C ) :   1.0881
B(  6-C ,  7-H ) :   0.9471 B(  6-C ,  8-H ) :   0.9454 B(  6-C ,  9-C ) :   1.0488
B(  9-C , 10-H ) :   0.9605 B(  9-C , 11-H ) :   0.9616 B(  9-C , 12-C ) :   1.0710
B( 12-C , 13-H ) :   0.9785 B( 12-C , 14-H ) :   0.9751 B( 12-C , 15-H ) :   0.9757
B( 16-S , 17-C ) :   1.1581 B( 16-S , 20-C ) :   1.1239 B( 17-C , 18-C ) :   1.6044
B( 17-C , 20-C ) :   0.1044 B( 17-C , 33-H ) :   0.9581 B( 18-C , 19-C ) :   1.2287
B( 18-C , 21-H ) :   0.9827 B( 19-C , 20-C ) :   1.5913 B( 19-C , 22-C ) :   1.0243
B( 22-C , 23-H ) :   0.9298 B( 22-C , 24-H ) :   0.9423 B( 22-C , 25-C ) :   1.0669
B( 25-C , 26-H ) :   0.9626 B( 25-C , 27-H ) :   0.9462 B( 25-C , 28-C ) :   1.0776
B( 28-C , 29-H ) :   0.9750 B( 28-C , 30-H ) :   0.9746 B( 28-C , 31-H ) :   0.9761

Dispersion correction           -0.013156803
FINAL SINGLE POINT ENERGY     -1339.870222207160

DIPOLE MOMENT
-------------
                                X             Y             Z
Electronic contribution:     -4.46573       1.07668     -30.97304
Nuclear contribution   :      4.49086      -1.31231      31.66256
                        -----------------------------------------
Total Dipole Moment    :      0.02513      -0.23563       0.68952
                        -----------------------------------------
Magnitude (a.u.)       :      0.72910
Magnitude (Debye)      :      1.85324

Rotational constants in cm-1:     0.016208     0.008322     0.005883
Rotational constants in MHz :   485.891256   249.481328   176.380183

                             ****ORCA TERMINATED NORMALLY****
TOTAL RUN TIME: 0 days 0 hours 0 minutes 19 seconds 829 msec
