                         Program Version 4.2.1 -  RELEASE  -
|  1> ! wB97X-D3 SP def2-SVP
|  2> %pal
|  3> nprocs 24
|  4> end
|  5>
|  6> * xyz 0 1
|  7> S 	 -89.3587 	 -1.4113 	 6.7946
|  8> C 	 -88.4227 	 -0.770249 	 5.41585
|  9> C 	 -87.8245 	 -1.71222 	 4.65131
| 10> C 	 -87.8772 	 -2.98626 	 5.38588
| 11> C 	 -88.5877 	 -2.94692 	 6.55114
| 12> H 	 -87.4345 	 -3.90376 	 5.08571
| 13> C 	 -86.9965 	 -1.39867 	 3.40834
| 14> H 	 -85.9855 	 -1.09187 	 3.73795
| 15> H 	 -87.4207 	 -0.534087 	 2.88769
| 16> C 	 -86.789 	 -2.56751 	 2.39603
| 17> H 	 -86.1953 	 -2.26868 	 1.56745
| 18> H 	 -86.2884 	 -3.35633 	 2.91203
| 19> C 	 -88.123 	 -3.00183 	 1.7558
| 20> H 	 -88.8641 	 -2.32989 	 1.38567
| 21> H 	 -87.9972 	 -3.72055 	 0.932228
| 22> H 	 -88.5923 	 -3.5153 	 2.5653
| 23> S 	 -90.6936 	 -4.31407 	 7.76536
| 24> C 	 -90.3141 	 -5.73223 	 8.6766
| 25> C 	 -88.9542 	 -5.84333 	 8.819
| 26> C 	 -88.1887 	 -4.99546 	 7.9921
| 27> C 	 -88.9638 	 -4.04074 	 7.46031
| 28> H 	 -88.5537 	 -6.58335 	 9.43945
| 29> C 	 -86.6918 	 -4.94573 	 7.97645
| 30> H 	 -86.402 	 -5.16386 	 9.00789
| 31> H 	 -86.2934 	 -3.94683 	 7.75675
| 32> C 	 -85.977 	 -5.81622 	 6.97782
| 33> H 	 -86.4795 	 -5.7332 	 5.99675
| 34> H 	 -86.0809 	 -6.8718 	 7.23599
| 35> C 	 -84.5093 	 -5.48909 	 6.88956
| 36> H 	 -84.2178 	 -4.48545 	 6.5427
| 37> H 	 -83.9819 	 -6.27316 	 6.32203
| 38> H 	 -84.0983 	 -5.49399 	 7.89541
| 39> H 	 -88.4292 	 0.280467 	 5.18024
| 40> H 	 -90.9366 	 -6.36295 	 9.34755
| 41> *
| 42>
| 43>                          ****END OF INPUT****

CARTESIAN COORDINATES (ANGSTROEM)
---------------------------------
  S    -89.358700   -1.411300    6.794600
  C    -88.422700   -0.770249    5.415850
  C    -87.824500   -1.712220    4.651310
  C    -87.877200   -2.986260    5.385880
  C    -88.587700   -2.946920    6.551140
  H    -87.434500   -3.903760    5.085710
  C    -86.996500   -1.398670    3.408340
  H    -85.985500   -1.091870    3.737950
  H    -87.420700   -0.534087    2.887690
  C    -86.789000   -2.567510    2.396030
  H    -86.195300   -2.268680    1.567450
  H    -86.288400   -3.356330    2.912030
  C    -88.123000   -3.001830    1.755800
  H    -88.864100   -2.329890    1.385670
  H    -87.997200   -3.720550    0.932228
  H    -88.592300   -3.515300    2.565300
  S    -90.693600   -4.314070    7.765360
  C    -90.314100   -5.732230    8.676600
  C    -88.954200   -5.843330    8.819000
  C    -88.188700   -4.995460    7.992100
  C    -88.963800   -4.040740    7.460310
  H    -88.553700   -6.583350    9.439450
  C    -86.691800   -4.945730    7.976450
  H    -86.402000   -5.163860    9.007890
  H    -86.293400   -3.946830    7.756750
  C    -85.977000   -5.816220    6.977820
  H    -86.479500   -5.733200    5.996750
  H    -86.080900   -6.871800    7.235990
  C    -84.509300   -5.489090    6.889560
  H    -84.217800   -4.485450    6.542700
  H    -83.981900   -6.273160    6.322030
  H    -84.098300   -5.493990    7.895410
  H    -88.429200    0.280467    5.180240
  H    -90.936600   -6.362950    9.347550

 Total Charge           Charge          ....    0
 Multiplicity           Mult            ....    1
 Number of Electrons    NEL             ....  134
 Basis Dimension        Dim             ....  322

ORBITAL ENERGIES
----------------

  NO   OCC          E(Eh)            E(eV)
   0   2.0000     -88.965783     -2420.8820
   1   2.0000     -88.962905     -2420.8037
   2   2.0000     -10.326782      -281.0060
   3   2.0000     -10.322013      -280.8762
   4   2.0000     -10.315265      -280.6926
   5   2.0000     -10.311569      -280.5921
   6   2.0000     -10.305794      -280.4349
   7   2.0000     -10.300074      -280.2793
   8   2.0000     -10.295909      -280.1659
   9   2.0000     -10.292818      -280.0818
  10   2.0000     -10.288072      -279.9527
  11   2.0000     -10.287653      -279.9413
  12   2.0000     -10.285546      -279.8839
  13   2.0000     -10.285296      -279.8771
  14   2.0000     -10.279542      -279.7206
  15   2.0000     -10.270284      -279.4686
  16   2.0000      -8.080439      -219.8799
  17   2.0000      -8.077856      -219.8096
  18   2.0000      -6.039040      -164.3306
  19   2.0000      -6.036397      -164.2587
  20   2.0000      -6.035073      -164.2227
  21   2.0000      -6.032589      -164.1551
  22   2.0000      -6.030974      -164.1111
  23   2.0000      -6.028319      -164.0389
  24   2.0000      -1.011319       -27.5194
  25   2.0000      -0.986571       -26.8460
  26   2.0000      -0.917997       -24.9800
  27   2.0000      -0.911311       -24.7980
  28   2.0000      -0.870830       -23.6965
  29   2.0000      -0.858176       -23.3521
  30   2.0000      -0.840373       -22.8677
  31   2.0000      -0.817503       -22.2454
  32   2.0000      -0.785587       -21.3769
  33   2.0000      -0.776109       -21.1190
  34   2.0000      -0.711903       -19.3719
  35   2.0000      -0.700409       -19.0591
  36   2.0000      -0.692226       -18.8364
  37   2.0000      -0.663423       -18.0527
  38   2.0000      -0.643676       -17.5153
  39   2.0000      -0.623339       -16.9619
  40   2.0000      -0.600732       -16.3467
  41   2.0000      -0.570042       -15.5116
  42   2.0000      -0.561589       -15.2816
  43   2.0000      -0.550247       -14.9730
  44   2.0000      -0.546191       -14.8626
  45   2.0000      -0.527282       -14.3481
  46   2.0000      -0.520107       -14.1528
  47   2.0000      -0.512536       -13.9468
  48   2.0000      -0.506812       -13.7910
  49   2.0000      -0.494350       -13.4519
  50   2.0000      -0.490886       -13.3577
  51   2.0000      -0.481354       -13.0983
  52   2.0000      -0.473575       -12.8866
  53   2.0000      -0.469391       -12.7728
  54   2.0000      -0.455505       -12.3949
  55   2.0000      -0.452288       -12.3074
  56   2.0000      -0.445222       -12.1151
  57   2.0000      -0.440108       -11.9759
  58   2.0000      -0.434947       -11.8355
  59   2.0000      -0.430557       -11.7160
  60   2.0000      -0.422722       -11.5028
  61   2.0000      -0.413286       -11.2461
  62   2.0000      -0.410874       -11.1804
  63   2.0000      -0.348977        -9.4962
  64   2.0000      -0.333453        -9.0737
  65   2.0000      -0.329429        -8.9642
  66   2.0000      -0.294970        -8.0265
  67   0.0000       0.035256         0.9594
  68   0.0000       0.066814         1.8181
  69   0.0000       0.107993         2.9387
  70   0.0000       0.122834         3.3425
  71   0.0000       0.127272         3.4632

MULLIKEN ATOMIC CHARGES
-----------------------
   0 S :    0.093508
   1 C :   -0.124686
   2 C :   -0.055405
   3 C :    0.032559
   4 C :   -0.143640
   5 H :   -0.018941
   6 C :    0.042584
   7 H :    0.048557
   8 H :    0.028654
   9 C :   -0.051161
  10 H :    0.025538
  11 H :    0.030971
  12 C :   -0.057246
  13 H :    0.031004
  14 H :    0.031404
  15 H :    0.022842
  16 S :    0.109215
  17 C :   -0.085304
  18 C :   -0.027636
  19 C :   -0.014025
  20 C :   -0.137668
  21 H :   -0.008269
  22 C :    0.037325
  23 H :    0.022686
  24 H :    0.027728
  25 C :   -0.066715
  26 H :    0.028353
  27 H :    0.021766
  28 C :   -0.041465
  29 H :    0.034465
  30 H :    0.039923
  31 H :    0.018566
  32 H :    0.038510
  33 H :    0.066004
Sum of atomic charges:    0.0000000

LOEWDIN ATOMIC CHARGES
----------------------
   0 S :    0.384348
   1 C :   -0.173688
   2 C :   -0.059776
   3 C :   -0.060795
   4 C :   -0.186184
   5 H :    0.019795
   6 C :   -0.028093
   7 H :    0.037851
   8 H :    0.031397
   9 C :   -0.032088
  10 H :    0.021554
  11 H :    0.021777
  12 C :   -0.070196
  13 H :    0.024270
  14 H :    0.027089
  15 H :    0.023314
  16 S :    0.397463
  17 C :   -0.200588
  18 C :   -0.063266
  19 C :   -0.063591
  20 C :   -0.182878
  21 H :    0.019407
  22 C :   -0.030788
  23 H :    0.031593
  24 H :    0.032461
  25 C :   -0.043690
  26 H :    0.021742
  27 H :    0.024046
  28 C :   -0.068096
  29 H :    0.025908
  30 H :    0.030540
  31 H :    0.024920
  32 H :    0.022153
  33 H :    0.042089

  Mayer bond orders larger than 0.100000
B(  0-S ,  1-C ) :   1.1182 B(  0-S ,  4-C ) :   1.1313 B(  1-C ,  2-C ) :   1.6734
B(  1-C , 32-H ) :   0.9705 B(  2-C ,  3-C ) :   1.1697 B(  2-C ,  6-C ) :   1.0125
B(  3-C ,  4-C ) :   1.6321 B(  3-C ,  5-H ) :   0.9951 B(  4-C , 20-C ) :   1.0074
B(  6-C ,  7-H ) :   0.9419 B(  6-C ,  8-H ) :   0.9434 B(  6-C ,  9-C ) :   1.0811
B(  9-C , 10-H ) :   0.9588 B(  9-C , 11-H ) :   0.9535 B(  9-C , 12-C ) :   1.0643
B( 12-C , 13-H ) :   0.9780 B( 12-C , 14-H ) :   0.9763 B( 12-C , 15-H ) :   0.9759
B( 16-S , 17-C ) :   1.1396 B( 16-S , 20-C ) :   1.1232 B( 17-C , 18-C ) :   1.6411
B( 17-C , 33-H ) :   0.9566 B( 18-C , 19-C ) :   1.2205 B( 18-C , 21-H ) :   0.9904
B( 19-C , 20-C ) :   1.6455 B( 19-C , 22-C ) :   1.0428 B( 22-C , 23-H ) :   0.9314
B( 22-C , 24-H ) :   0.9418 B( 22-C , 25-C ) :   1.0576 B( 25-C , 26-H ) :   0.9515
B( 25-C , 27-H ) :   0.9447 B( 25-C , 28-C ) :   1.0912 B( 28-C , 29-H ) :   0.9719
B( 28-C , 30-H ) :   0.9730 B( 28-C , 31-H ) :   0.9677

Dispersion correction           -0.014608532
FINAL SINGLE POINT ENERGY     -1339.878124173002

DIPOLE MOMENT
-------------
                                X             Y             Z
Electronic contribution:    -22.35486       7.22748      16.27925
Nuclear contribution   :     22.98667      -7.43479     -16.49762
                        -----------------------------------------
Total Dipole Moment    :      0.63181      -0.20730      -0.21838
                        -----------------------------------------
Magnitude (a.u.)       :      0.69989
Magnitude (Debye)      :      1.77898

Rotational constants in cm-1:     0.016758     0.009864     0.007472
Rotational constants in MHz :   502.388726   295.723918   223.994144

                             ****ORCA TERMINATED NORMALLY****
TOTAL RUN TIME: 0 days 0 hours 0 minutes 22 seconds 161 msec
