                         Program Version 4.2.1 -  RELEASE  -
|  1> ! wB97X-D3 SP def2-SVP
|  2> %pal
|  3> nprocs 24
|  4> end
|  5>
|  6> * xyz 0 1
|  7> S 	 -77.3531 	 -4.11346 	 -57.1533
|  8> C 	 -77.854 	 -2.72797 	 -58.0862
|  9> C 	 -78.5552 	 -3.06608 	 -59.1895
| 10> C 	 -78.5921 	 -4.49208 	 -59.4071
| 11> C 	 -78.0581 	 -5.16109 	 -58.3723
| 12> H 	 -78.9983 	 -5.07013 	 -60.2662
| 13> C 	 -79.1919 	 -2.08929 	 -60.1112
| 14> H 	 -79.4486 	 -1.19561 	 -59.5481
| 15> H 	 -80.1268 	 -2.51552 	 -60.5733
| 16> C 	 -78.2811 	 -1.62551 	 -61.246
| 17> H 	 -77.3519 	 -1.29874 	 -60.7586
| 18> H 	 -78.1857 	 -2.50379 	 -61.8957
| 19> C 	 -78.9601 	 -0.521792 	 -62.0983
| 20> H 	 -78.1891 	 -0.0869249 	 -62.7772
| 21> H 	 -79.8539 	 -0.84844 	 -62.7017
| 22> H 	 -79.4283 	 0.231795 	 -61.4628
| 23> S 	 -76.3976 	 -7.31846 	 -58.8638
| 24> C 	 -76.9191 	 -8.89023 	 -58.3023
| 25> C 	 -78.2288 	 -8.81139 	 -57.7915
| 26> C 	 -78.8255 	 -7.52843 	 -57.7691
| 27> C 	 -77.871 	 -6.58216 	 -58.165
| 28> H 	 -78.5628 	 -9.74143 	 -57.3113
| 29> C 	 -80.196 	 -7.30405 	 -57.2019
| 30> H 	 -80.9294 	 -7.43668 	 -58.0173
| 31> H 	 -80.1718 	 -6.35611 	 -56.7941
| 32> C 	 -80.8447 	 -8.16185 	 -56.1034
| 33> H 	 -81.1568 	 -9.10539 	 -56.461
| 34> H 	 -81.7362 	 -7.65055 	 -55.6235
| 35> C 	 -79.8018 	 -8.40476 	 -55.035
| 36> H 	 -79.0816 	 -7.58067 	 -54.8718
| 37> H 	 -79.0807 	 -9.23192 	 -55.1781
| 38> H 	 -80.4222 	 -8.53331 	 -54.0905
| 39> H 	 -77.8999 	 -1.69096 	 -57.7091
| 40> H 	 -76.3516 	 -9.78678 	 -58.324
| 41> *
| 42>
| 43>                          ****END OF INPUT****

CARTESIAN COORDINATES (ANGSTROEM)
---------------------------------
  S    -77.353100   -4.113460  -57.153300
  C    -77.854000   -2.727970  -58.086200
  C    -78.555200   -3.066080  -59.189500
  C    -78.592100   -4.492080  -59.407100
  C    -78.058100   -5.161090  -58.372300
  H    -78.998300   -5.070130  -60.266200
  C    -79.191900   -2.089290  -60.111200
  H    -79.448600   -1.195610  -59.548100
  H    -80.126800   -2.515520  -60.573300
  C    -78.281100   -1.625510  -61.246000
  H    -77.351900   -1.298740  -60.758600
  H    -78.185700   -2.503790  -61.895700
  C    -78.960100   -0.521792  -62.098300
  H    -78.189100   -0.086925  -62.777200
  H    -79.853900   -0.848440  -62.701700
  H    -79.428300    0.231795  -61.462800
  S    -76.397600   -7.318460  -58.863800
  C    -76.919100   -8.890230  -58.302300
  C    -78.228800   -8.811390  -57.791500
  C    -78.825500   -7.528430  -57.769100
  C    -77.871000   -6.582160  -58.165000
  H    -78.562800   -9.741430  -57.311300
  C    -80.196000   -7.304050  -57.201900
  H    -80.929400   -7.436680  -58.017300
  H    -80.171800   -6.356110  -56.794100
  C    -80.844700   -8.161850  -56.103400
  H    -81.156800   -9.105390  -56.461000
  H    -81.736200   -7.650550  -55.623500
  C    -79.801800   -8.404760  -55.035000
  H    -79.081600   -7.580670  -54.871800
  H    -79.080700   -9.231920  -55.178100
  H    -80.422200   -8.533310  -54.090500
  H    -77.899900   -1.690960  -57.709100
  H    -76.351600   -9.786780  -58.324000

 Total Charge           Charge          ....    0
 Multiplicity           Mult            ....    1
 Number of Electrons    NEL             ....  134
 Basis Dimension        Dim             ....  322

ORBITAL ENERGIES
----------------

  NO   OCC          E(Eh)            E(eV)
   0   2.0000     -88.967129     -2420.9187
   1   2.0000     -88.961748     -2420.7722
   2   2.0000     -10.326437      -280.9966
   3   2.0000     -10.321036      -280.8497
   4   2.0000     -10.316940      -280.7382
   5   2.0000     -10.308916      -280.5199
   6   2.0000     -10.307608      -280.4843
   7   2.0000     -10.295658      -280.1591
   8   2.0000     -10.294534      -280.1285
   9   2.0000     -10.293515      -280.1008
  10   2.0000     -10.289300      -279.9861
  11   2.0000     -10.288430      -279.9624
  12   2.0000     -10.287727      -279.9433
  13   2.0000     -10.285498      -279.8826
  14   2.0000     -10.285420      -279.8805
  15   2.0000     -10.277548      -279.6663
  16   2.0000      -8.081131      -219.8988
  17   2.0000      -8.076875      -219.7829
  18   2.0000      -6.039638      -164.3469
  19   2.0000      -6.035728      -164.2405
  20   2.0000      -6.035430      -164.2324
  21   2.0000      -6.031951      -164.1377
  22   2.0000      -6.031421      -164.1233
  23   2.0000      -6.027468      -164.0157
  24   2.0000      -1.007863       -27.4253
  25   2.0000      -0.983022       -26.7494
  26   2.0000      -0.915674       -24.9167
  27   2.0000      -0.913846       -24.8670
  28   2.0000      -0.868303       -23.6277
  29   2.0000      -0.848975       -23.1018
  30   2.0000      -0.845795       -23.0152
  31   2.0000      -0.813013       -22.1232
  32   2.0000      -0.783922       -21.3316
  33   2.0000      -0.768449       -20.9106
  34   2.0000      -0.706726       -19.2310
  35   2.0000      -0.696422       -18.9506
  36   2.0000      -0.692416       -18.8416
  37   2.0000      -0.654469       -17.8090
  38   2.0000      -0.642977       -17.4963
  39   2.0000      -0.616434       -16.7740
  40   2.0000      -0.597679       -16.2637
  41   2.0000      -0.573909       -15.6169
  42   2.0000      -0.561453       -15.2779
  43   2.0000      -0.556427       -15.1411
  44   2.0000      -0.540503       -14.7078
  45   2.0000      -0.527243       -14.3470
  46   2.0000      -0.518888       -14.1197
  47   2.0000      -0.508813       -13.8455
  48   2.0000      -0.502483       -13.6733
  49   2.0000      -0.500429       -13.6174
  50   2.0000      -0.492733       -13.4080
  51   2.0000      -0.477982       -13.0065
  52   2.0000      -0.462393       -12.5824
  53   2.0000      -0.460387       -12.5278
  54   2.0000      -0.454693       -12.3728
  55   2.0000      -0.450402       -12.2561
  56   2.0000      -0.448028       -12.1915
  57   2.0000      -0.432096       -11.7579
  58   2.0000      -0.428155       -11.6507
  59   2.0000      -0.424913       -11.5625
  60   2.0000      -0.420094       -11.4313
  61   2.0000      -0.419704       -11.4207
  62   2.0000      -0.401062       -10.9134
  63   2.0000      -0.338386        -9.2080
  64   2.0000      -0.328171        -8.9300
  65   2.0000      -0.319081        -8.6826
  66   2.0000      -0.310239        -8.4420
  67   0.0000       0.042401         1.1538
  68   0.0000       0.055411         1.5078
  69   0.0000       0.112724         3.0674
  70   0.0000       0.117255         3.1907
  71   0.0000       0.127261         3.4629

MULLIKEN ATOMIC CHARGES
-----------------------
   0 S :    0.105449
   1 C :   -0.117357
   2 C :   -0.085746
   3 C :    0.042970
   4 C :   -0.191116
   5 H :    0.029688
   6 C :    0.033780
   7 H :    0.012265
   8 H :    0.029595
   9 C :   -0.067305
  10 H :    0.036764
  11 H :    0.032748
  12 C :   -0.060692
  13 H :    0.051266
  14 H :    0.035308
  15 H :    0.022242
  16 S :    0.119339
  17 C :   -0.085712
  18 C :   -0.066522
  19 C :    0.010793
  20 C :   -0.193573
  21 H :    0.025478
  22 C :    0.097153
  23 H :    0.040549
  24 H :    0.019828
  25 C :   -0.053557
  26 H :    0.019001
  27 H :    0.048712
  28 C :   -0.100548
  29 H :    0.035221
  30 H :    0.036088
  31 H :    0.038123
  32 H :    0.053890
  33 H :    0.045878
Sum of atomic charges:    0.0000000

LOEWDIN ATOMIC CHARGES
----------------------
   0 S :    0.398259
   1 C :   -0.203378
   2 C :   -0.065784
   3 C :   -0.058937
   4 C :   -0.194344
   5 H :    0.043420
   6 C :   -0.037736
   7 H :    0.024309
   8 H :    0.033294
   9 C :   -0.037674
  10 H :    0.027167
  11 H :    0.026342
  12 C :   -0.075491
  13 H :    0.032877
  14 H :    0.030819
  15 H :    0.020738
  16 S :    0.398933
  17 C :   -0.182707
  18 C :   -0.076652
  19 C :   -0.046653
  20 C :   -0.200037
  21 H :    0.031414
  22 C :   -0.030074
  23 H :    0.040975
  24 H :    0.023925
  25 C :   -0.038775
  26 H :    0.015894
  27 H :    0.039675
  28 C :   -0.080039
  29 H :    0.026808
  30 H :    0.025170
  31 H :    0.031309
  32 H :    0.033655
  33 H :    0.023297

  Mayer bond orders larger than 0.100000
B(  0-S ,  1-C ) :   1.1194 B(  0-S ,  4-C ) :   1.1433 B(  1-C ,  2-C ) :   1.6705
B(  1-C , 32-H ) :   0.9557 B(  2-C ,  3-C ) :   1.1788 B(  2-C ,  6-C ) :   1.0380
B(  3-C ,  4-C ) :   1.6578 B(  3-C ,  5-H ) :   0.9904 B(  4-C , 20-C ) :   0.9896
B(  6-C ,  7-H ) :   0.9348 B(  6-C ,  8-H ) :   0.9400 B(  6-C ,  9-C ) :   1.0671
B(  9-C , 10-H ) :   0.9557 B(  9-C , 11-H ) :   0.9552 B(  9-C , 12-C ) :   1.0771
B( 12-C , 13-H ) :   0.9749 B( 12-C , 14-H ) :   0.9728 B( 12-C , 15-H ) :   0.9739
B( 16-S , 17-C ) :   1.1535 B( 16-S , 20-C ) :   1.1533 B( 17-C , 18-C ) :   1.6161
B( 17-C , 20-C ) :   0.1110 B( 17-C , 33-H ) :   0.9704 B( 18-C , 19-C ) :   1.2247
B( 18-C , 21-H ) :   0.9811 B( 19-C , 20-C ) :   1.5866 B( 19-C , 22-C ) :   1.0454
B( 22-C , 23-H ) :   0.9197 B( 22-C , 24-H ) :   0.9331 B( 22-C , 25-C ) :   1.0849
B( 25-C , 26-H ) :   0.9445 B( 25-C , 27-H ) :   0.9591 B( 25-C , 28-C ) :   1.0746
B( 28-C , 29-H ) :   0.9762 B( 28-C , 30-H ) :   0.9697 B( 28-C , 31-H ) :   0.9764

Dispersion correction           -0.014180865
FINAL SINGLE POINT ENERGY     -1339.864915797264

DIPOLE MOMENT
-------------
                                X             Y             Z
Electronic contribution:     16.13451      -7.13469       3.29600
Nuclear contribution   :    -16.69339       7.10943      -3.43156
                        -----------------------------------------
Total Dipole Moment    :     -0.55888      -0.02526      -0.13556
                        -----------------------------------------
Magnitude (a.u.)       :      0.57564
Magnitude (Debye)      :      1.46317

Rotational constants in cm-1:     0.023823     0.006961     0.006382
Rotational constants in MHz :   714.202201   208.676884   191.332459

                             ****ORCA TERMINATED NORMALLY****
TOTAL RUN TIME: 0 days 0 hours 0 minutes 21 seconds 330 msec
