                         Program Version 4.2.1 -  RELEASE  -
|  1> ! wB97X-D3 SP def2-SVP
|  2> %pal
|  3> nprocs 24
|  4> end
|  5>
|  6> * xyz 0 1
|  7> S 	 -66.9812 	 19.8265 	 -113.792
|  8> C 	 -67.4515 	 21.5308 	 -113.82
|  9> C 	 -67.5663 	 22.0406 	 -115.14
| 10> C 	 -67.2497 	 21.0062 	 -116.039
| 11> C 	 -66.71 	 19.8525 	 -115.496
| 12> H 	 -67.0951 	 21.1353 	 -117.097
| 13> C 	 -67.8267 	 23.4847 	 -115.439
| 14> H 	 -66.9176 	 23.9062 	 -115.81
| 15> H 	 -67.8916 	 23.963 	 -114.481
| 16> C 	 -69.0777 	 23.8149 	 -116.293
| 17> H 	 -68.8827 	 24.8752 	 -116.433
| 18> H 	 -68.8509 	 23.4209 	 -117.319
| 19> C 	 -70.3818 	 23.4098 	 -115.676
| 20> H 	 -70.4409 	 23.7163 	 -114.61
| 21> H 	 -71.2898 	 23.7067 	 -116.193
| 22> H 	 -70.3883 	 22.3644 	 -115.573
| 23> S 	 -67.4389 	 17.2669 	 -116.409
| 24> C 	 -66.3141 	 16.3363 	 -117.296
| 25> C 	 -65.1122 	 17.0091 	 -117.452
| 26> C 	 -65.062 	 18.2735 	 -116.772
| 27> C 	 -66.2921 	 18.6087 	 -116.216
| 28> H 	 -64.4119 	 16.532 	 -118.075
| 29> C 	 -63.9363 	 19.1973 	 -116.889
| 30> H 	 -64.2423 	 20.1193 	 -116.385
| 31> H 	 -63.9631 	 19.5186 	 -117.934
| 32> C 	 -62.6472 	 18.586 	 -116.5
| 33> H 	 -62.2972 	 17.8541 	 -117.228
| 34> H 	 -62.6012 	 17.88 	 -115.576
| 35> C 	 -61.467 	 19.5603 	 -116.327
| 36> H 	 -61.9255 	 20.4194 	 -115.808
| 37> H 	 -61.0004 	 19.8054 	 -117.318
| 38> H 	 -60.636 	 19.1062 	 -115.674
| 39> H 	 -67.6782 	 22.0528 	 -112.914
| 40> H 	 -66.5724 	 15.3496 	 -117.672
| 41> *
| 42>
| 43>                          ****END OF INPUT****

CARTESIAN COORDINATES (ANGSTROEM)
---------------------------------
  S    -66.981200   19.826500  -113.792000
  C    -67.451500   21.530800  -113.820000
  C    -67.566300   22.040600  -115.140000
  C    -67.249700   21.006200  -116.039000
  C    -66.710000   19.852500  -115.496000
  H    -67.095100   21.135300  -117.097000
  C    -67.826700   23.484700  -115.439000
  H    -66.917600   23.906200  -115.810000
  H    -67.891600   23.963000  -114.481000
  C    -69.077700   23.814900  -116.293000
  H    -68.882700   24.875200  -116.433000
  H    -68.850900   23.420900  -117.319000
  C    -70.381800   23.409800  -115.676000
  H    -70.440900   23.716300  -114.610000
  H    -71.289800   23.706700  -116.193000
  H    -70.388300   22.364400  -115.573000
  S    -67.438900   17.266900  -116.409000
  C    -66.314100   16.336300  -117.296000
  C    -65.112200   17.009100  -117.452000
  C    -65.062000   18.273500  -116.772000
  C    -66.292100   18.608700  -116.216000
  H    -64.411900   16.532000  -118.075000
  C    -63.936300   19.197300  -116.889000
  H    -64.242300   20.119300  -116.385000
  H    -63.963100   19.518600  -117.934000
  C    -62.647200   18.586000  -116.500000
  H    -62.297200   17.854100  -117.228000
  H    -62.601200   17.880000  -115.576000
  C    -61.467000   19.560300  -116.327000
  H    -61.925500   20.419400  -115.808000
  H    -61.000400   19.805400  -117.318000
  H    -60.636000   19.106200  -115.674000
  H    -67.678200   22.052800  -112.914000
  H    -66.572400   15.349600  -117.672000

 Total Charge           Charge          ....    0
 Multiplicity           Mult            ....    1
 Number of Electrons    NEL             ....  134
 Basis Dimension        Dim             ....  322

ORBITAL ENERGIES
----------------

  NO   OCC          E(Eh)            E(eV)
   0   2.0000     -88.965337     -2420.8699
   1   2.0000     -88.960637     -2420.7420
   2   2.0000     -10.327592      -281.0281
   3   2.0000     -10.325187      -280.9626
   4   2.0000     -10.316205      -280.7182
   5   2.0000     -10.315169      -280.6900
   6   2.0000     -10.302212      -280.3374
   7   2.0000     -10.300959      -280.3033
   8   2.0000     -10.290983      -280.0319
   9   2.0000     -10.290903      -280.0297
  10   2.0000     -10.289277      -279.9855
  11   2.0000     -10.288754      -279.9712
  12   2.0000     -10.287557      -279.9387
  13   2.0000     -10.285833      -279.8917
  14   2.0000     -10.285517      -279.8831
  15   2.0000     -10.275445      -279.6091
  16   2.0000      -8.080223      -219.8740
  17   2.0000      -8.075937      -219.7574
  18   2.0000      -6.038500      -164.3159
  19   2.0000      -6.034692      -164.2123
  20   2.0000      -6.034304      -164.2017
  21   2.0000      -6.031242      -164.1184
  22   2.0000      -6.030276      -164.0922
  23   2.0000      -6.026914      -164.0007
  24   2.0000      -1.004416       -27.3316
  25   2.0000      -0.984907       -26.8007
  26   2.0000      -0.918075       -24.9821
  27   2.0000      -0.915918       -24.9234
  28   2.0000      -0.864362       -23.5205
  29   2.0000      -0.851095       -23.1595
  30   2.0000      -0.845168       -22.9982
  31   2.0000      -0.814825       -22.1725
  32   2.0000      -0.787778       -21.4365
  33   2.0000      -0.771744       -21.0002
  34   2.0000      -0.709873       -19.3166
  35   2.0000      -0.697227       -18.9725
  36   2.0000      -0.689638       -18.7660
  37   2.0000      -0.652599       -17.7581
  38   2.0000      -0.643158       -17.5012
  39   2.0000      -0.621160       -16.9026
  40   2.0000      -0.599198       -16.3050
  41   2.0000      -0.569275       -15.4908
  42   2.0000      -0.561939       -15.2911
  43   2.0000      -0.555950       -15.1282
  44   2.0000      -0.539168       -14.6715
  45   2.0000      -0.534370       -14.5409
  46   2.0000      -0.516993       -14.0681
  47   2.0000      -0.512740       -13.9524
  48   2.0000      -0.503815       -13.7095
  49   2.0000      -0.495205       -13.4752
  50   2.0000      -0.485025       -13.1982
  51   2.0000      -0.481577       -13.1044
  52   2.0000      -0.470526       -12.8037
  53   2.0000      -0.465576       -12.6690
  54   2.0000      -0.460132       -12.5208
  55   2.0000      -0.449267       -12.2252
  56   2.0000      -0.446204       -12.1418
  57   2.0000      -0.440826       -11.9955
  58   2.0000      -0.431968       -11.7545
  59   2.0000      -0.421262       -11.4631
  60   2.0000      -0.417347       -11.3566
  61   2.0000      -0.412454       -11.2234
  62   2.0000      -0.401164       -10.9162
  63   2.0000      -0.335469        -9.1286
  64   2.0000      -0.324906        -8.8411
  65   2.0000      -0.320731        -8.7275
  66   2.0000      -0.307991        -8.3809
  67   0.0000       0.042608         1.1594
  68   0.0000       0.056018         1.5243
  69   0.0000       0.121776         3.3137
  70   0.0000       0.124190         3.3794
  71   0.0000       0.126579         3.4444

MULLIKEN ATOMIC CHARGES
-----------------------
   0 S :    0.119393
   1 C :   -0.128740
   2 C :   -0.091476
   3 C :    0.050431
   4 C :   -0.202452
   5 H :    0.007851
   6 C :    0.069250
   7 H :    0.029672
   8 H :    0.000147
   9 C :   -0.065276
  10 H :    0.024860
  11 H :    0.032537
  12 C :   -0.006646
  13 H :    0.023547
  14 H :    0.043746
  15 H :    0.027382
  16 S :    0.111642
  17 C :   -0.103880
  18 C :   -0.022897
  19 C :   -0.021853
  20 C :   -0.180126
  21 H :    0.002688
  22 C :    0.127184
  23 H :    0.022288
  24 H :    0.036533
  25 C :   -0.137198
  26 H :    0.023613
  27 H :    0.045408
  28 C :   -0.067952
  29 H :    0.038166
  30 H :    0.041424
  31 H :    0.046070
  32 H :    0.042803
  33 H :    0.061861
Sum of atomic charges:   -0.0000000

LOEWDIN ATOMIC CHARGES
----------------------
   0 S :    0.416420
   1 C :   -0.188513
   2 C :   -0.063867
   3 C :   -0.062929
   4 C :   -0.208528
   5 H :    0.028137
   6 C :   -0.029273
   7 H :    0.032205
   8 H :    0.026316
   9 C :   -0.042413
  10 H :    0.024622
  11 H :    0.027737
  12 C :   -0.063560
  13 H :    0.032122
  14 H :    0.030075
  15 H :    0.024757
  16 S :    0.408767
  17 C :   -0.189737
  18 C :   -0.073403
  19 C :   -0.046165
  20 C :   -0.206758
  21 H :    0.023285
  22 C :   -0.038419
  23 H :    0.032762
  24 H :    0.042495
  25 C :   -0.059594
  26 H :    0.022513
  27 H :    0.037690
  28 C :   -0.073670
  29 H :    0.026153
  30 H :    0.026847
  31 H :    0.034740
  32 H :    0.018906
  33 H :    0.030280

  Mayer bond orders larger than 0.100000
B(  0-S ,  1-C ) :   1.1663 B(  0-S ,  4-C ) :   1.1688 B(  1-C ,  2-C ) :   1.5585
B(  1-C ,  4-C ) :   0.1078 B(  1-C , 32-H ) :   0.9694 B(  2-C ,  3-C ) :   1.2658
B(  2-C ,  6-C ) :   1.0234 B(  3-C ,  4-C ) :   1.5759 B(  3-C ,  5-H ) :   0.9877
B(  4-C , 20-C ) :   1.0014 B(  6-C ,  7-H ) :   0.9360 B(  6-C ,  8-H ) :   0.9305
B(  6-C ,  9-C ) :   1.0704 B(  9-C , 10-H ) :   0.9552 B(  9-C , 11-H ) :   0.9545
B(  9-C , 12-C ) :   1.0626 B( 12-C , 13-H ) :   0.9703 B( 12-C , 14-H ) :   0.9739
B( 12-C , 15-H ) :   0.9698 B( 16-S , 17-C ) :   1.1769 B( 16-S , 20-C ) :   1.1427
B( 17-C , 18-C ) :   1.6006 B( 17-C , 33-H ) :   0.9664 B( 18-C , 19-C ) :   1.2152
B( 18-C , 21-H ) :   1.0034 B( 19-C , 20-C ) :   1.6005 B( 19-C , 22-C ) :   1.0641
B( 22-C , 23-H ) :   0.9230 B( 22-C , 24-H ) :   0.9206 B( 22-C , 25-C ) :   1.0407
B( 25-C , 26-H ) :   0.9471 B( 25-C , 27-H ) :   0.9644 B( 25-C , 28-C ) :   1.0806
B( 28-C , 29-H ) :   0.9776 B( 28-C , 30-H ) :   0.9746 B( 28-C , 31-H ) :   0.9766

Dispersion correction           -0.013988803
FINAL SINGLE POINT ENERGY     -1339.870833665618

DIPOLE MOMENT
-------------
                                X             Y             Z
Electronic contribution:     -8.35043     -17.46802       6.05271
Nuclear contribution   :      8.57868      17.84651      -6.40321
                        -----------------------------------------
Total Dipole Moment    :      0.22825       0.37849      -0.35049
                        -----------------------------------------
Magnitude (a.u.)       :      0.56409
Magnitude (Debye)      :      1.43381

Rotational constants in cm-1:     0.019415     0.007776     0.006630
Rotational constants in MHz :   582.050230   233.107244   198.759520

                             ****ORCA TERMINATED NORMALLY****
TOTAL RUN TIME: 0 days 0 hours 0 minutes 21 seconds 34 msec
