                         Program Version 4.2.1 -  RELEASE  -
|  1> ! wB97X-D3 SP def2-SVP
|  2> %pal
|  3> nprocs 24
|  4> end
|  5>
|  6> * xyz 0 1
|  7> S 	 -44.6348 	 -51.4692 	 -73.7324
|  8> C 	 -45.0642 	 -53.0443 	 -74.4231
|  9> C 	 -44.4314 	 -54.012 	 -73.5893
| 10> C 	 -43.5674 	 -53.5229 	 -72.5701
| 11> C 	 -43.4513 	 -52.1195 	 -72.6656
| 12> H 	 -42.9944 	 -54.0326 	 -71.8444
| 13> C 	 -44.6765 	 -55.5488 	 -73.545
| 14> H 	 -44.0724 	 -55.9421 	 -72.7489
| 15> H 	 -44.4543 	 -55.9191 	 -74.566
| 16> C 	 -46.1444 	 -55.996 	 -73.2152
| 17> H 	 -46.665 	 -55.2378 	 -73.7634
| 18> H 	 -46.3713 	 -57.0107 	 -73.7139
| 19> C 	 -46.4942 	 -55.9571 	 -71.7788
| 20> H 	 -47.5672 	 -55.9846 	 -71.7263
| 21> H 	 -46.2084 	 -56.8552 	 -71.2342
| 22> H 	 -46.2376 	 -55.1 	 -71.1799
| 23> S 	 -43.7625 	 -49.9133 	 -71.0355
| 24> C 	 -42.3919 	 -49.4497 	 -70.0686
| 25> C 	 -41.2197 	 -50.1448 	 -70.3957
| 26> C 	 -41.4022 	 -51.1575 	 -71.3818
| 27> C 	 -42.7527 	 -51.231 	 -71.7976
| 28> H 	 -40.2625 	 -49.9805 	 -69.8637
| 29> C 	 -40.2867 	 -52.1922 	 -71.8112
| 30> H 	 -40.3153 	 -52.659 	 -72.8321
| 31> H 	 -40.2498 	 -53.0606 	 -71.255
| 32> C 	 -38.8065 	 -51.6929 	 -71.5878
| 33> H 	 -38.564 	 -51.7701 	 -70.5052
| 34> H 	 -38.5729 	 -50.6691 	 -71.9404
| 35> C 	 -37.7786 	 -52.6434 	 -72.2417
| 36> H 	 -37.8606 	 -52.6819 	 -73.3365
| 37> H 	 -37.8847 	 -53.6864 	 -71.9401
| 38> H 	 -36.7715 	 -52.3181 	 -71.984
| 39> H 	 -45.7754 	 -53.296 	 -75.2075
| 40> H 	 -42.4434 	 -48.6046 	 -69.301
| 41> *
| 42>
| 43>                          ****END OF INPUT****

CARTESIAN COORDINATES (ANGSTROEM)
---------------------------------
  S    -44.634800  -51.469200  -73.732400
  C    -45.064200  -53.044300  -74.423100
  C    -44.431400  -54.012000  -73.589300
  C    -43.567400  -53.522900  -72.570100
  C    -43.451300  -52.119500  -72.665600
  H    -42.994400  -54.032600  -71.844400
  C    -44.676500  -55.548800  -73.545000
  H    -44.072400  -55.942100  -72.748900
  H    -44.454300  -55.919100  -74.566000
  C    -46.144400  -55.996000  -73.215200
  H    -46.665000  -55.237800  -73.763400
  H    -46.371300  -57.010700  -73.713900
  C    -46.494200  -55.957100  -71.778800
  H    -47.567200  -55.984600  -71.726300
  H    -46.208400  -56.855200  -71.234200
  H    -46.237600  -55.100000  -71.179900
  S    -43.762500  -49.913300  -71.035500
  C    -42.391900  -49.449700  -70.068600
  C    -41.219700  -50.144800  -70.395700
  C    -41.402200  -51.157500  -71.381800
  C    -42.752700  -51.231000  -71.797600
  H    -40.262500  -49.980500  -69.863700
  C    -40.286700  -52.192200  -71.811200
  H    -40.315300  -52.659000  -72.832100
  H    -40.249800  -53.060600  -71.255000
  C    -38.806500  -51.692900  -71.587800
  H    -38.564000  -51.770100  -70.505200
  H    -38.572900  -50.669100  -71.940400
  C    -37.778600  -52.643400  -72.241700
  H    -37.860600  -52.681900  -73.336500
  H    -37.884700  -53.686400  -71.940100
  H    -36.771500  -52.318100  -71.984000
  H    -45.775400  -53.296000  -75.207500
  H    -42.443400  -48.604600  -69.301000

 Total Charge           Charge          ....    0
 Multiplicity           Mult            ....    1
 Number of Electrons    NEL             ....  134
 Basis Dimension        Dim             ....  322

ORBITAL ENERGIES
----------------

  NO   OCC          E(Eh)            E(eV)
   0   2.0000     -88.969765     -2420.9904
   1   2.0000     -88.968773     -2420.9634
   2   2.0000     -10.332570      -281.1635
   3   2.0000     -10.327813      -281.0341
   4   2.0000     -10.327141      -281.0158
   5   2.0000     -10.321388      -280.8592
   6   2.0000     -10.317078      -280.7420
   7   2.0000     -10.306900      -280.4650
   8   2.0000     -10.301591      -280.3205
   9   2.0000     -10.299983      -280.2768
  10   2.0000     -10.295061      -280.1429
  11   2.0000     -10.293612      -280.1034
  12   2.0000     -10.290342      -280.0144
  13   2.0000     -10.286780      -279.9175
  14   2.0000     -10.280774      -279.7541
  15   2.0000     -10.269221      -279.4397
  16   2.0000      -8.083532      -219.9641
  17   2.0000      -8.083307      -219.9580
  18   2.0000      -6.042002      -164.4112
  19   2.0000      -6.041852      -164.4072
  20   2.0000      -6.038260      -164.3094
  21   2.0000      -6.037734      -164.2951
  22   2.0000      -6.034294      -164.2015
  23   2.0000      -6.034135      -164.1972
  24   2.0000      -1.004005       -27.3204
  25   2.0000      -0.976083       -26.5606
  26   2.0000      -0.908941       -24.7335
  27   2.0000      -0.902903       -24.5692
  28   2.0000      -0.867259       -23.5993
  29   2.0000      -0.853185       -23.2163
  30   2.0000      -0.844707       -22.9856
  31   2.0000      -0.806537       -21.9470
  32   2.0000      -0.784693       -21.3526
  33   2.0000      -0.770359       -20.9625
  34   2.0000      -0.704082       -19.1591
  35   2.0000      -0.699614       -19.0375
  36   2.0000      -0.692028       -18.8310
  37   2.0000      -0.653216       -17.7749
  38   2.0000      -0.639982       -17.4148
  39   2.0000      -0.612378       -16.6637
  40   2.0000      -0.596545       -16.2328
  41   2.0000      -0.567318       -15.4375
  42   2.0000      -0.562624       -15.3098
  43   2.0000      -0.550983       -14.9930
  44   2.0000      -0.542640       -14.7660
  45   2.0000      -0.519752       -14.1432
  46   2.0000      -0.515436       -14.0257
  47   2.0000      -0.506873       -13.7927
  48   2.0000      -0.504775       -13.7356
  49   2.0000      -0.494494       -13.4559
  50   2.0000      -0.485955       -13.2235
  51   2.0000      -0.483499       -13.1567
  52   2.0000      -0.477263       -12.9870
  53   2.0000      -0.463336       -12.6080
  54   2.0000      -0.460204       -12.5228
  55   2.0000      -0.455835       -12.4039
  56   2.0000      -0.443542       -12.0694
  57   2.0000      -0.437305       -11.8997
  58   2.0000      -0.430831       -11.7235
  59   2.0000      -0.421736       -11.4760
  60   2.0000      -0.416276       -11.3274
  61   2.0000      -0.414038       -11.2665
  62   2.0000      -0.403014       -10.9666
  63   2.0000      -0.345131        -9.3915
  64   2.0000      -0.336823        -9.1654
  65   2.0000      -0.328636        -8.9426
  66   2.0000      -0.283233        -7.7072
  67   0.0000       0.018795         0.5114
  68   0.0000       0.058435         1.5901
  69   0.0000       0.100729         2.7410
  70   0.0000       0.123068         3.3488
  71   0.0000       0.125654         3.4192

MULLIKEN ATOMIC CHARGES
-----------------------
   0 S :    0.106814
   1 C :   -0.114529
   2 C :   -0.107482
   3 C :    0.037422
   4 C :   -0.150493
   5 H :    0.005360
   6 C :    0.059818
   7 H :    0.015242
   8 H :    0.037706
   9 C :   -0.075541
  10 H :    0.009926
  11 H :    0.042922
  12 C :   -0.032623
  13 H :    0.019839
  14 H :    0.027885
  15 H :    0.038359
  16 S :    0.104096
  17 C :   -0.110903
  18 C :   -0.055038
  19 C :    0.024760
  20 C :   -0.166998
  21 H :    0.036309
  22 C :    0.061930
  23 H :    0.039974
  24 H :    0.015281
  25 C :   -0.133823
  26 H :    0.038768
  27 H :    0.046582
  28 C :   -0.058572
  29 H :    0.034474
  30 H :    0.024111
  31 H :    0.034698
  32 H :    0.059103
  33 H :    0.084625
Sum of atomic charges:   -0.0000000

LOEWDIN ATOMIC CHARGES
----------------------
   0 S :    0.421722
   1 C :   -0.212827
   2 C :   -0.056577
   3 C :   -0.062196
   4 C :   -0.199617
   5 H :    0.027123
   6 C :   -0.029394
   7 H :    0.021139
   8 H :    0.034688
   9 C :   -0.045559
  10 H :    0.016238
  11 H :    0.034668
  12 C :   -0.071598
  13 H :    0.028640
  14 H :    0.026206
  15 H :    0.028459
  16 S :    0.381911
  17 C :   -0.197869
  18 C :   -0.078839
  19 C :   -0.046596
  20 C :   -0.177756
  21 H :    0.038413
  22 C :   -0.031627
  23 H :    0.039470
  24 H :    0.021466
  25 C :   -0.044434
  26 H :    0.025321
  27 H :    0.025583
  28 C :   -0.067829
  29 H :    0.024358
  30 H :    0.021748
  31 H :    0.027195
  32 H :    0.033967
  33 H :    0.044403

  Mayer bond orders larger than 0.100000
B(  0-S ,  1-C ) :   1.1296 B(  0-S ,  4-C ) :   1.1798 B(  1-C ,  2-C ) :   1.5580
B(  1-C ,  4-C ) :   0.1102 B(  1-C , 32-H ) :   0.9720 B(  2-C ,  3-C ) :   1.2691
B(  2-C ,  6-C ) :   1.0258 B(  3-C ,  4-C ) :   1.5029 B(  3-C ,  5-H ) :   1.0017
B(  4-C , 20-C ) :   1.0862 B(  6-C ,  7-H ) :   0.9502 B(  6-C ,  8-H ) :   0.9369
B(  6-C ,  9-C ) :   1.0576 B(  9-C , 10-H ) :   0.9580 B(  9-C , 11-H ) :   0.9535
B(  9-C , 12-C ) :   1.0904 B( 12-C , 13-H ) :   0.9662 B( 12-C , 14-H ) :   0.9700
B( 12-C , 15-H ) :   0.9735 B( 16-S , 17-C ) :   1.1573 B( 16-S , 20-C ) :   1.1231
B( 17-C , 18-C ) :   1.5998 B( 17-C , 20-C ) :   0.1059 B( 17-C , 33-H ) :   0.9556
B( 18-C , 19-C ) :   1.2535 B( 18-C , 21-H ) :   0.9798 B( 19-C , 20-C ) :   1.5909
B( 19-C , 22-C ) :   1.0166 B( 22-C , 23-H ) :   0.9494 B( 22-C , 24-H ) :   0.9358
B( 22-C , 25-C ) :   1.0496 B( 25-C , 26-H ) :   0.9525 B( 25-C , 27-H ) :   0.9628
B( 25-C , 28-C ) :   1.0847 B( 28-C , 29-H ) :   0.9752 B( 28-C , 30-H ) :   0.9736
B( 28-C , 31-H ) :   0.9735

Dispersion correction           -0.013487837
FINAL SINGLE POINT ENERGY     -1339.852129992052

DIPOLE MOMENT
-------------
                                X             Y             Z
Electronic contribution:    -11.42314      21.64763      -1.33732
Nuclear contribution   :     11.72247     -22.14444       1.59479
                        -----------------------------------------
Total Dipole Moment    :      0.29934      -0.49681       0.25746
                        -----------------------------------------
Magnitude (a.u.)       :      0.63459
Magnitude (Debye)      :      1.61301

Rotational constants in cm-1:     0.018011     0.007902     0.006438
Rotational constants in MHz :   539.962714   236.899477   192.992993

                             ****ORCA TERMINATED NORMALLY****
TOTAL RUN TIME: 0 days 0 hours 0 minutes 20 seconds 661 msec
