                         Program Version 4.2.1 -  RELEASE  -
|  1> ! wB97X-D3 SP def2-SVP
|  2> %pal
|  3> nprocs 24
|  4> end
|  5>
|  6> * xyz 0 1
|  7> S 	 -63.9389 	 0.609604 	 -14.8794
|  8> C 	 -63.794 	 0.855995 	 -13.2086
|  9> C 	 -62.4508 	 0.791212 	 -12.7891
| 10> C 	 -61.549 	 0.513186 	 -13.9005
| 11> C 	 -62.174 	 0.41105 	 -15.1017
| 12> H 	 -60.4584 	 0.327107 	 -13.7774
| 13> C 	 -62.011 	 0.803356 	 -11.3485
| 14> H 	 -60.972 	 0.544195 	 -11.439
| 15> H 	 -62.4612 	 0.00407873 	 -10.7586
| 16> C 	 -61.9729 	 2.1437 	 -10.593
| 17> H 	 -62.9481 	 2.55134 	 -10.7845
| 18> H 	 -61.9271 	 2.11857 	 -9.51492
| 19> C 	 -60.9071 	 3.19959 	 -11.0617
| 20> H 	 -61.1152 	 3.32416 	 -12.1284
| 21> H 	 -61.126 	 4.19585 	 -10.643
| 22> H 	 -59.811 	 3.02529 	 -10.8663
| 23> S 	 -60.8245 	 1.20421 	 -17.3394
| 24> C 	 -60.1186 	 0.0501717 	 -18.3889
| 25> C 	 -60.795 	 -1.14049 	 -18.2156
| 26> C 	 -61.6729 	 -1.15552 	 -17.1059
| 27> C 	 -61.5516 	 0.0092325 	 -16.3803
| 28> H 	 -60.606 	 -1.93303 	 -18.8426
| 29> C 	 -62.5675 	 -2.40004 	 -16.8434
| 30> H 	 -62.989 	 -2.58938 	 -17.8485
| 31> H 	 -63.3086 	 -2.00427 	 -16.1967
| 32> C 	 -61.8888 	 -3.55364 	 -16.0943
| 33> H 	 -62.5403 	 -4.26794 	 -15.7043
| 34> H 	 -61.3271 	 -3.21781 	 -15.2414
| 35> C 	 -60.7596 	 -4.25872 	 -16.9469
| 36> H 	 -59.8983 	 -3.59516 	 -17.1451
| 37> H 	 -61.1098 	 -4.67642 	 -17.8663
| 38> H 	 -60.3341 	 -5.0951 	 -16.3183
| 39> H 	 -64.6217 	 0.84558 	 -12.5411
| 40> H 	 -59.378 	 0.316558 	 -19.0923
| 41> *
| 42>
| 43>                          ****END OF INPUT****

CARTESIAN COORDINATES (ANGSTROEM)
---------------------------------
  S    -63.938900    0.609604  -14.879400
  C    -63.794000    0.855995  -13.208600
  C    -62.450800    0.791212  -12.789100
  C    -61.549000    0.513186  -13.900500
  C    -62.174000    0.411050  -15.101700
  H    -60.458400    0.327107  -13.777400
  C    -62.011000    0.803356  -11.348500
  H    -60.972000    0.544195  -11.439000
  H    -62.461200    0.004079  -10.758600
  C    -61.972900    2.143700  -10.593000
  H    -62.948100    2.551340  -10.784500
  H    -61.927100    2.118570   -9.514920
  C    -60.907100    3.199590  -11.061700
  H    -61.115200    3.324160  -12.128400
  H    -61.126000    4.195850  -10.643000
  H    -59.811000    3.025290  -10.866300
  S    -60.824500    1.204210  -17.339400
  C    -60.118600    0.050172  -18.388900
  C    -60.795000   -1.140490  -18.215600
  C    -61.672900   -1.155520  -17.105900
  C    -61.551600    0.009232  -16.380300
  H    -60.606000   -1.933030  -18.842600
  C    -62.567500   -2.400040  -16.843400
  H    -62.989000   -2.589380  -17.848500
  H    -63.308600   -2.004270  -16.196700
  C    -61.888800   -3.553640  -16.094300
  H    -62.540300   -4.267940  -15.704300
  H    -61.327100   -3.217810  -15.241400
  C    -60.759600   -4.258720  -16.946900
  H    -59.898300   -3.595160  -17.145100
  H    -61.109800   -4.676420  -17.866300
  H    -60.334100   -5.095100  -16.318300
  H    -64.621700    0.845580  -12.541100
  H    -59.378000    0.316558  -19.092300

 Total Charge           Charge          ....    0
 Multiplicity           Mult            ....    1
 Number of Electrons    NEL             ....  134
 Basis Dimension        Dim             ....  322

ORBITAL ENERGIES
----------------

  NO   OCC          E(Eh)            E(eV)
   0   2.0000     -88.967427     -2420.9268
   1   2.0000     -88.959406     -2420.7085
   2   2.0000     -10.329881      -281.0904
   3   2.0000     -10.319894      -280.8186
   4   2.0000     -10.313770      -280.6519
   5   2.0000     -10.309704      -280.5413
   6   2.0000     -10.305316      -280.4219
   7   2.0000     -10.300708      -280.2965
   8   2.0000     -10.299727      -280.2698
   9   2.0000     -10.291774      -280.0534
  10   2.0000     -10.289193      -279.9832
  11   2.0000     -10.285384      -279.8795
  12   2.0000     -10.283802      -279.8365
  13   2.0000     -10.282670      -279.8057
  14   2.0000     -10.281311      -279.7687
  15   2.0000     -10.278633      -279.6958
  16   2.0000      -8.082188      -219.9275
  17   2.0000      -8.076177      -219.7639
  18   2.0000      -6.040642      -164.3742
  19   2.0000      -6.036559      -164.2631
  20   2.0000      -6.034394      -164.2042
  21   2.0000      -6.033129      -164.1698
  22   2.0000      -6.030535      -164.0992
  23   2.0000      -6.026978      -164.0024
  24   2.0000      -1.013827       -27.5876
  25   2.0000      -0.990177       -26.9441
  26   2.0000      -0.907062       -24.6824
  27   2.0000      -0.904193       -24.6043
  28   2.0000      -0.871054       -23.7026
  29   2.0000      -0.845715       -23.0131
  30   2.0000      -0.844153       -22.9706
  31   2.0000      -0.816843       -22.2274
  32   2.0000      -0.781412       -21.2633
  33   2.0000      -0.770827       -20.9753
  34   2.0000      -0.707216       -19.2443
  35   2.0000      -0.703280       -19.1372
  36   2.0000      -0.693066       -18.8593
  37   2.0000      -0.667148       -18.1540
  38   2.0000      -0.645829       -17.5739
  39   2.0000      -0.613078       -16.6827
  40   2.0000      -0.592716       -16.1286
  41   2.0000      -0.571740       -15.5578
  42   2.0000      -0.553153       -15.0521
  43   2.0000      -0.551310       -15.0019
  44   2.0000      -0.543232       -14.7821
  45   2.0000      -0.538152       -14.6439
  46   2.0000      -0.522721       -14.2239
  47   2.0000      -0.509006       -13.8508
  48   2.0000      -0.502611       -13.6767
  49   2.0000      -0.498427       -13.5629
  50   2.0000      -0.484882       -13.1943
  51   2.0000      -0.478646       -13.0246
  52   2.0000      -0.470111       -12.7924
  53   2.0000      -0.468944       -12.7606
  54   2.0000      -0.463655       -12.6167
  55   2.0000      -0.448638       -12.2081
  56   2.0000      -0.442752       -12.0479
  57   2.0000      -0.434784       -11.8311
  58   2.0000      -0.432066       -11.7571
  59   2.0000      -0.419854       -11.4248
  60   2.0000      -0.417442       -11.3592
  61   2.0000      -0.414720       -11.2851
  62   2.0000      -0.407253       -11.0819
  63   2.0000      -0.341553        -9.2941
  64   2.0000      -0.327887        -8.9223
  65   2.0000      -0.318476        -8.6662
  66   2.0000      -0.308735        -8.4011
  67   0.0000       0.034941         0.9508
  68   0.0000       0.062723         1.7068
  69   0.0000       0.106458         2.8969
  70   0.0000       0.118030         3.2118
  71   0.0000       0.131467         3.5774

MULLIKEN ATOMIC CHARGES
-----------------------
   0 S :    0.119570
   1 C :   -0.099350
   2 C :   -0.136889
   3 C :    0.043246
   4 C :   -0.162958
   5 H :    0.037280
   6 C :    0.087222
   7 H :    0.001513
   8 H :    0.042283
   9 C :   -0.050020
  10 H :    0.011722
  11 H :    0.026938
  12 C :   -0.093620
  13 H :    0.038950
  14 H :    0.032630
  15 H :    0.049088
  16 S :    0.119857
  17 C :   -0.078932
  18 C :   -0.016328
  19 C :   -0.049748
  20 C :   -0.202942
  21 H :   -0.014130
  22 C :    0.121122
  23 H :    0.042474
  24 H :    0.004002
  25 C :   -0.016029
  26 H :    0.022118
  27 H :    0.023274
  28 C :   -0.099897
  29 H :    0.045620
  30 H :    0.026986
  31 H :    0.034638
  32 H :    0.045741
  33 H :    0.044569
Sum of atomic charges:    0.0000000

LOEWDIN ATOMIC CHARGES
----------------------
   0 S :    0.416138
   1 C :   -0.204206
   2 C :   -0.068195
   3 C :   -0.055386
   4 C :   -0.193578
   5 H :    0.043118
   6 C :   -0.037309
   7 H :    0.026443
   8 H :    0.036181
   9 C :   -0.039820
  10 H :    0.019434
  11 H :    0.021610
  12 C :   -0.076733
  13 H :    0.027510
  14 H :    0.028541
  15 H :    0.029677
  16 S :    0.444285
  17 C :   -0.186195
  18 C :   -0.065950
  19 C :   -0.051955
  20 C :   -0.223754
  21 H :    0.015059
  22 C :   -0.023495
  23 H :    0.038029
  24 H :    0.018885
  25 C :   -0.029606
  26 H :    0.016681
  27 H :    0.029166
  28 C :   -0.071290
  29 H :    0.026686
  30 H :    0.014081
  31 H :    0.030591
  32 H :    0.024294
  33 H :    0.021062

  Mayer bond orders larger than 0.100000
B(  0-S ,  1-C ) :   1.1677 B(  0-S ,  4-C ) :   1.1344 B(  1-C ,  2-C ) :   1.5858
B(  1-C , 32-H ) :   0.9710 B(  2-C ,  3-C ) :   1.2508 B(  2-C ,  6-C ) :   1.0226
B(  3-C ,  4-C ) :   1.6105 B(  3-C ,  5-H ) :   0.9796 B(  4-C , 20-C ) :   1.0030
B(  6-C ,  7-H ) :   0.9376 B(  6-C ,  8-H ) :   0.9423 B(  6-C ,  9-C ) :   1.0542
B(  9-C , 10-H ) :   0.9585 B(  9-C , 11-H ) :   0.9594 B(  9-C , 12-C ) :   1.0744
B( 12-C , 13-H ) :   0.9770 B( 12-C , 14-H ) :   0.9737 B( 12-C , 15-H ) :   0.9763
B( 16-S , 17-C ) :   1.1770 B( 16-S , 20-C ) :   1.1868 B( 17-C , 18-C ) :   1.5502
B( 17-C , 20-C ) :   0.1056 B( 17-C , 33-H ) :   0.9827 B( 18-C , 19-C ) :   1.2619
B( 18-C , 21-H ) :   1.0080 B( 19-C , 20-C ) :   1.5661 B( 19-C , 22-C ) :   1.0136
B( 22-C , 23-H ) :   0.9444 B( 22-C , 24-H ) :   0.9180 B( 22-C , 25-C ) :   1.0757
B( 25-C , 26-H ) :   0.9604 B( 25-C , 27-H ) :   0.9508 B( 25-C , 28-C ) :   1.0751
B( 28-C , 29-H ) :   0.9728 B( 28-C , 30-H ) :   0.9792 B( 28-C , 31-H ) :   0.9742

Dispersion correction           -0.014615313
FINAL SINGLE POINT ENERGY     -1339.862708526453

DIPOLE MOMENT
-------------
                                X             Y             Z
Electronic contribution:     -6.41149       9.34384     -14.49485
Nuclear contribution   :      6.50308      -9.76329      14.78218
                        -----------------------------------------
Total Dipole Moment    :      0.09159      -0.41944       0.28732
                        -----------------------------------------
Magnitude (a.u.)       :      0.51660
Magnitude (Debye)      :      1.31310

Rotational constants in cm-1:     0.021392     0.007646     0.006859
Rotational constants in MHz :   641.324971   229.206396   205.641294

                             ****ORCA TERMINATED NORMALLY****
TOTAL RUN TIME: 0 days 0 hours 0 minutes 20 seconds 317 msec
