                         Program Version 4.2.1 -  RELEASE  -
|  1> ! wB97X-D3 SP def2-SVP
|  2> %pal
|  3> nprocs 24
|  4> end
|  5>
|  6> * xyz 0 1
|  7> S 	 -51.9213 	 15.2905 	 23.0303
|  8> C 	 -53.5089 	 15.0875 	 23.7948
|  9> C 	 -54.4875 	 14.878 	 22.8182
| 10> C 	 -53.9737 	 14.7298 	 21.504
| 11> C 	 -52.6392 	 15.0752 	 21.4016
| 12> H 	 -54.4788 	 14.5062 	 20.6183
| 13> C 	 -55.9152 	 14.6503 	 23.1841
| 14> H 	 -56.5784 	 15.5285 	 22.9785
| 15> H 	 -55.929 	 14.5963 	 24.2416
| 16> C 	 -56.6388 	 13.4575 	 22.6049
| 17> H 	 -56.5098 	 13.4363 	 21.5254
| 18> H 	 -56.116 	 12.5328 	 22.9423
| 19> C 	 -58.0877 	 13.4682 	 22.9811
| 20> H 	 -58.2606 	 13.1988 	 24.0113
| 21> H 	 -58.5406 	 14.4938 	 22.8353
| 22> H 	 -58.5593 	 12.7032 	 22.2404
| 23> S 	 -50.3171 	 14.3902 	 20.0896
| 24> C 	 -49.8946 	 15.1555 	 18.5915
| 25> C 	 -50.9522 	 15.9509 	 18.1353
| 26> C 	 -52.043 	 15.9914 	 19.0908
| 27> C 	 -51.8621 	 15.2117 	 20.204
| 28> H 	 -50.8815 	 16.4984 	 17.2095
| 29> C 	 -53.3208 	 16.812 	 18.8035
| 30> H 	 -54.2543 	 16.2948 	 19.0993
| 31> H 	 -53.4917 	 16.8443 	 17.7444
| 32> C 	 -53.3647 	 18.2861 	 19.3565
| 33> H 	 -53.4205 	 18.2482 	 20.4572
| 34> H 	 -54.2766 	 18.7531 	 18.8773
| 35> C 	 -52.2698 	 19.2735 	 18.9144
| 36> H 	 -51.3093 	 19.1594 	 19.3335
| 37> H 	 -52.4962 	 20.3038 	 19.0464
| 38> H 	 -52.1676 	 19.3449 	 17.8138
| 39> H 	 -53.7369 	 15.3718 	 24.8621
| 40> H 	 -49.1235 	 14.6883 	 17.9694
| 41> *
| 42>
| 43>                          ****END OF INPUT****

CARTESIAN COORDINATES (ANGSTROEM)
---------------------------------
  S    -51.921300   15.290500   23.030300
  C    -53.508900   15.087500   23.794800
  C    -54.487500   14.878000   22.818200
  C    -53.973700   14.729800   21.504000
  C    -52.639200   15.075200   21.401600
  H    -54.478800   14.506200   20.618300
  C    -55.915200   14.650300   23.184100
  H    -56.578400   15.528500   22.978500
  H    -55.929000   14.596300   24.241600
  C    -56.638800   13.457500   22.604900
  H    -56.509800   13.436300   21.525400
  H    -56.116000   12.532800   22.942300
  C    -58.087700   13.468200   22.981100
  H    -58.260600   13.198800   24.011300
  H    -58.540600   14.493800   22.835300
  H    -58.559300   12.703200   22.240400
  S    -50.317100   14.390200   20.089600
  C    -49.894600   15.155500   18.591500
  C    -50.952200   15.950900   18.135300
  C    -52.043000   15.991400   19.090800
  C    -51.862100   15.211700   20.204000
  H    -50.881500   16.498400   17.209500
  C    -53.320800   16.812000   18.803500
  H    -54.254300   16.294800   19.099300
  H    -53.491700   16.844300   17.744400
  C    -53.364700   18.286100   19.356500
  H    -53.420500   18.248200   20.457200
  H    -54.276600   18.753100   18.877300
  C    -52.269800   19.273500   18.914400
  H    -51.309300   19.159400   19.333500
  H    -52.496200   20.303800   19.046400
  H    -52.167600   19.344900   17.813800
  H    -53.736900   15.371800   24.862100
  H    -49.123500   14.688300   17.969400

 Total Charge           Charge          ....    0
 Multiplicity           Mult            ....    1
 Number of Electrons    NEL             ....  134
 Basis Dimension        Dim             ....  322

ORBITAL ENERGIES
----------------

  NO   OCC          E(Eh)            E(eV)
   0   2.0000     -88.966674     -2420.9063
   1   2.0000     -88.962941     -2420.8047
   2   2.0000     -10.332471      -281.1608
   3   2.0000     -10.325360      -280.9673
   4   2.0000     -10.320907      -280.8462
   5   2.0000     -10.320727      -280.8413
   6   2.0000     -10.308009      -280.4952
   7   2.0000     -10.301956      -280.3305
   8   2.0000     -10.300787      -280.2987
   9   2.0000     -10.295230      -280.1475
  10   2.0000     -10.294548      -280.1289
  11   2.0000     -10.291441      -280.0443
  12   2.0000     -10.288354      -279.9604
  13   2.0000     -10.285193      -279.8743
  14   2.0000     -10.284868      -279.8655
  15   2.0000     -10.269485      -279.4469
  16   2.0000      -8.080325      -219.8768
  17   2.0000      -8.078290      -219.8214
  18   2.0000      -6.038943      -164.3280
  19   2.0000      -6.036748      -164.2683
  20   2.0000      -6.034990      -164.2204
  21   2.0000      -6.032571      -164.1546
  22   2.0000      -6.031011      -164.1122
  23   2.0000      -6.029194      -164.0627
  24   2.0000      -1.005958       -27.3735
  25   2.0000      -0.981229       -26.7006
  26   2.0000      -0.918300       -24.9882
  27   2.0000      -0.898489       -24.4491
  28   2.0000      -0.873002       -23.7556
  29   2.0000      -0.850741       -23.1498
  30   2.0000      -0.843272       -22.9466
  31   2.0000      -0.817306       -22.2400
  32   2.0000      -0.786058       -21.3897
  33   2.0000      -0.767800       -20.8929
  34   2.0000      -0.711620       -19.3642
  35   2.0000      -0.694277       -18.8922
  36   2.0000      -0.686900       -18.6915
  37   2.0000      -0.665330       -18.1045
  38   2.0000      -0.644198       -17.5295
  39   2.0000      -0.622363       -16.9354
  40   2.0000      -0.594064       -16.1653
  41   2.0000      -0.573714       -15.6116
  42   2.0000      -0.563306       -15.3283
  43   2.0000      -0.554198       -15.0805
  44   2.0000      -0.536225       -14.5914
  45   2.0000      -0.520900       -14.1744
  46   2.0000      -0.518913       -14.1203
  47   2.0000      -0.507314       -13.8047
  48   2.0000      -0.504186       -13.7196
  49   2.0000      -0.498795       -13.5729
  50   2.0000      -0.484853       -13.1935
  51   2.0000      -0.478091       -13.0095
  52   2.0000      -0.476051       -12.9540
  53   2.0000      -0.469706       -12.7813
  54   2.0000      -0.456826       -12.4309
  55   2.0000      -0.448673       -12.2090
  56   2.0000      -0.440403       -11.9840
  57   2.0000      -0.436402       -11.8751
  58   2.0000      -0.432083       -11.7576
  59   2.0000      -0.421648       -11.4736
  60   2.0000      -0.415764       -11.3135
  61   2.0000      -0.414063       -11.2672
  62   2.0000      -0.409336       -11.1386
  63   2.0000      -0.349592        -9.5129
  64   2.0000      -0.331883        -9.0310
  65   2.0000      -0.329778        -8.9737
  66   2.0000      -0.291469        -7.9313
  67   0.0000       0.025803         0.7021
  68   0.0000       0.061615         1.6766
  69   0.0000       0.109871         2.9897
  70   0.0000       0.116742         3.1767
  71   0.0000       0.134606         3.6628

MULLIKEN ATOMIC CHARGES
-----------------------
   0 S :    0.105980
   1 C :   -0.142233
   2 C :   -0.070525
   3 C :    0.046286
   4 C :   -0.133759
   5 H :   -0.003251
   6 C :    0.073343
   7 H :    0.027807
   8 H :   -0.005364
   9 C :   -0.088700
  10 H :    0.026601
  11 H :    0.035051
  12 C :   -0.066499
  13 H :    0.038354
  14 H :    0.036513
  15 H :    0.050517
  16 S :    0.096561
  17 C :   -0.102411
  18 C :   -0.031512
  19 C :   -0.025982
  20 C :   -0.174348
  21 H :    0.025842
  22 C :    0.064666
  23 H :    0.022915
  24 H :    0.007591
  25 C :   -0.077151
  26 H :    0.050867
  27 H :    0.035037
  28 C :   -0.040209
  29 H :    0.033719
  30 H :    0.016290
  31 H :    0.010841
  32 H :    0.078332
  33 H :    0.078831
Sum of atomic charges:    0.0000000

LOEWDIN ATOMIC CHARGES
----------------------
   0 S :    0.379975
   1 C :   -0.203969
   2 C :   -0.060274
   3 C :   -0.054510
   4 C :   -0.170782
   5 H :    0.022155
   6 C :   -0.039284
   7 H :    0.032722
   8 H :    0.022150
   9 C :   -0.048608
  10 H :    0.019720
  11 H :    0.030268
  12 C :   -0.068862
  13 H :    0.023183
  14 H :    0.029315
  15 H :    0.041407
  16 S :    0.409314
  17 C :   -0.194055
  18 C :   -0.065235
  19 C :   -0.054622
  20 C :   -0.203153
  21 H :    0.032144
  22 C :   -0.035359
  23 H :    0.032108
  24 H :    0.025120
  25 C :   -0.035989
  26 H :    0.029119
  27 H :    0.033074
  28 C :   -0.075083
  29 H :    0.018897
  30 H :    0.024877
  31 H :    0.026116
  32 H :    0.043202
  33 H :    0.034920

  Mayer bond orders larger than 0.100000
B(  0-S ,  1-C ) :   1.1241 B(  0-S ,  4-C ) :   1.1392 B(  1-C ,  2-C ) :   1.6176
B(  1-C ,  4-C ) :   0.1006 B(  1-C , 32-H ) :   0.9542 B(  2-C ,  3-C ) :   1.2180
B(  2-C ,  6-C ) :   1.0370 B(  3-C ,  4-C ) :   1.5833 B(  3-C ,  5-H ) :   0.9988
B(  4-C , 20-C ) :   1.0606 B(  6-C ,  7-H ) :   0.9251 B(  6-C ,  8-H ) :   0.9356
B(  6-C ,  9-C ) :   1.0697 B(  9-C , 10-H ) :   0.9531 B(  9-C , 11-H ) :   0.9483
B(  9-C , 12-C ) :   1.0837 B( 12-C , 13-H ) :   0.9750 B( 12-C , 14-H ) :   0.9708
B( 12-C , 15-H ) :   0.9727 B( 16-S , 17-C ) :   1.1697 B( 16-S , 20-C ) :   1.1389
B( 17-C , 18-C ) :   1.5839 B( 17-C , 33-H ) :   0.9614 B( 18-C , 19-C ) :   1.2521
B( 18-C , 21-H ) :   0.9916 B( 19-C , 20-C ) :   1.5958 B( 19-C , 22-C ) :   1.0299
B( 22-C , 23-H ) :   0.9422 B( 22-C , 24-H ) :   0.9330 B( 22-C , 25-C ) :   1.0691
B( 25-C , 26-H ) :   0.9597 B( 25-C , 27-H ) :   0.9553 B( 25-C , 28-C ) :   1.0787
B( 28-C , 29-H ) :   0.9754 B( 28-C , 30-H ) :   0.9708 B( 28-C , 31-H ) :   0.9689

Dispersion correction           -0.014189580
FINAL SINGLE POINT ENERGY     -1339.875035470324

DIPOLE MOMENT
-------------
                                X             Y             Z
Electronic contribution:     24.71976      -8.38124       3.63820
Nuclear contribution   :    -25.34191       8.58204      -3.98488
                        -----------------------------------------
Total Dipole Moment    :     -0.62215       0.20080      -0.34668
                        -----------------------------------------
Magnitude (a.u.)       :      0.73999
Magnitude (Debye)      :      1.88090

Rotational constants in cm-1:     0.019509     0.007963     0.006914
Rotational constants in MHz :   584.874557   238.716959   207.267507

                             ****ORCA TERMINATED NORMALLY****
TOTAL RUN TIME: 0 days 0 hours 0 minutes 21 seconds 312 msec
