                         Program Version 4.2.1 -  RELEASE  -
|  1> ! wB97X-D3 SP def2-SVP
|  2> %pal
|  3> nprocs 24
|  4> end
|  5>
|  6> * xyz 0 1
|  7> S 	 -49.8675 	 17.3008 	 25.3098
|  8> C 	 -50.1078 	 17.8975 	 23.7408
|  9> C 	 -48.9884 	 17.9094 	 22.9547
| 10> C 	 -47.8271 	 17.7431 	 23.8296
| 11> C 	 -48.1473 	 17.3616 	 25.1272
| 12> H 	 -46.7998 	 17.9183 	 23.6808
| 13> C 	 -48.8212 	 18.3094 	 21.4828
| 14> H 	 -49.4292 	 17.6711 	 20.8317
| 15> H 	 -47.9615 	 17.8821 	 21.1828
| 16> C 	 -48.7334 	 19.8146 	 21.1781
| 17> H 	 -49.2199 	 20.323 	 21.9563
| 18> H 	 -47.7106 	 20.2757 	 21.1715
| 19> C 	 -49.6938 	 20.2582 	 19.9345
| 20> H 	 -49.3773 	 19.8246 	 19.0308
| 21> H 	 -50.7148 	 19.8908 	 20.1158
| 22> H 	 -49.7529 	 21.3438 	 19.8013
| 23> S 	 -47.4866 	 15.1884 	 26.629
| 24> C 	 -46.2557 	 15.3505 	 27.7949
| 25> C 	 -45.6439 	 16.5648 	 27.6856
| 26> C 	 -46.2064 	 17.4741 	 26.8422
| 27> C 	 -47.2356 	 16.885 	 26.1377
| 28> H 	 -44.7486 	 16.6289 	 28.3501
| 29> C 	 -45.6693 	 18.951 	 26.6996
| 30> H 	 -45.6762 	 19.2141 	 25.5879
| 31> H 	 -44.6335 	 18.9573 	 26.9158
| 32> C 	 -46.4379 	 20.0086 	 27.3916
| 33> H 	 -47.4294 	 19.723 	 27.2466
| 34> H 	 -46.1943 	 20.955 	 26.8486
| 35> C 	 -46.1088 	 19.9264 	 28.9124
| 36> H 	 -46.7576 	 20.6664 	 29.4167
| 37> H 	 -45.0297 	 19.9587 	 29.1802
| 38> H 	 -46.5685 	 19.0145 	 29.2011
| 39> H 	 -51.0372 	 18.0137 	 23.2355
| 40> H 	 -45.8683 	 14.5308 	 28.3823
| 41> *
| 42>
| 43>                          ****END OF INPUT****

CARTESIAN COORDINATES (ANGSTROEM)
---------------------------------
  S    -49.867500   17.300800   25.309800
  C    -50.107800   17.897500   23.740800
  C    -48.988400   17.909400   22.954700
  C    -47.827100   17.743100   23.829600
  C    -48.147300   17.361600   25.127200
  H    -46.799800   17.918300   23.680800
  C    -48.821200   18.309400   21.482800
  H    -49.429200   17.671100   20.831700
  H    -47.961500   17.882100   21.182800
  C    -48.733400   19.814600   21.178100
  H    -49.219900   20.323000   21.956300
  H    -47.710600   20.275700   21.171500
  C    -49.693800   20.258200   19.934500
  H    -49.377300   19.824600   19.030800
  H    -50.714800   19.890800   20.115800
  H    -49.752900   21.343800   19.801300
  S    -47.486600   15.188400   26.629000
  C    -46.255700   15.350500   27.794900
  C    -45.643900   16.564800   27.685600
  C    -46.206400   17.474100   26.842200
  C    -47.235600   16.885000   26.137700
  H    -44.748600   16.628900   28.350100
  C    -45.669300   18.951000   26.699600
  H    -45.676200   19.214100   25.587900
  H    -44.633500   18.957300   26.915800
  C    -46.437900   20.008600   27.391600
  H    -47.429400   19.723000   27.246600
  H    -46.194300   20.955000   26.848600
  C    -46.108800   19.926400   28.912400
  H    -46.757600   20.666400   29.416700
  H    -45.029700   19.958700   29.180200
  H    -46.568500   19.014500   29.201100
  H    -51.037200   18.013700   23.235500
  H    -45.868300   14.530800   28.382300

 Total Charge           Charge          ....    0
 Multiplicity           Mult            ....    1
 Number of Electrons    NEL             ....  134
 Basis Dimension        Dim             ....  322

ORBITAL ENERGIES
----------------

  NO   OCC          E(Eh)            E(eV)
   0   2.0000     -88.966158     -2420.8922
   1   2.0000     -88.964204     -2420.8391
   2   2.0000     -10.325479      -280.9706
   3   2.0000     -10.321818      -280.8710
   4   2.0000     -10.308102      -280.4977
   5   2.0000     -10.306507      -280.4543
   6   2.0000     -10.303262      -280.3660
   7   2.0000     -10.300608      -280.2938
   8   2.0000     -10.292855      -280.0828
   9   2.0000     -10.291255      -280.0393
  10   2.0000     -10.291140      -280.0362
  11   2.0000     -10.287469      -279.9363
  12   2.0000     -10.285960      -279.8952
  13   2.0000     -10.282433      -279.7992
  14   2.0000     -10.278859      -279.7020
  15   2.0000     -10.276004      -279.6243
  16   2.0000      -8.082092      -219.9249
  17   2.0000      -8.079541      -219.8555
  18   2.0000      -6.040450      -164.3690
  19   2.0000      -6.037775      -164.2962
  20   2.0000      -6.036451      -164.2602
  21   2.0000      -6.033955      -164.1923
  22   2.0000      -6.032905      -164.1637
  23   2.0000      -6.030555      -164.0998
  24   2.0000      -1.013772       -27.5861
  25   2.0000      -0.992524       -27.0080
  26   2.0000      -0.914830       -24.8938
  27   2.0000      -0.907374       -24.6909
  28   2.0000      -0.870670       -23.6921
  29   2.0000      -0.851957       -23.1829
  30   2.0000      -0.843571       -22.9547
  31   2.0000      -0.809863       -22.0375
  32   2.0000      -0.786749       -21.4085
  33   2.0000      -0.778878       -21.1944
  34   2.0000      -0.712881       -19.3985
  35   2.0000      -0.708535       -19.2802
  36   2.0000      -0.689554       -18.7637
  37   2.0000      -0.660854       -17.9828
  38   2.0000      -0.645787       -17.5727
  39   2.0000      -0.613647       -16.6982
  40   2.0000      -0.600252       -16.3337
  41   2.0000      -0.573606       -15.6086
  42   2.0000      -0.551113       -14.9965
  43   2.0000      -0.549031       -14.9399
  44   2.0000      -0.540379       -14.7045
  45   2.0000      -0.526162       -14.3176
  46   2.0000      -0.517177       -14.0731
  47   2.0000      -0.510093       -13.8803
  48   2.0000      -0.499619       -13.5953
  49   2.0000      -0.497105       -13.5269
  50   2.0000      -0.490829       -13.3561
  51   2.0000      -0.481665       -13.1068
  52   2.0000      -0.473737       -12.8910
  53   2.0000      -0.468626       -12.7520
  54   2.0000      -0.463920       -12.6239
  55   2.0000      -0.451343       -12.2817
  56   2.0000      -0.442238       -12.0339
  57   2.0000      -0.437748       -11.9117
  58   2.0000      -0.431923       -11.7532
  59   2.0000      -0.420321       -11.4375
  60   2.0000      -0.418503       -11.3881
  61   2.0000      -0.413786       -11.2597
  62   2.0000      -0.410870       -11.1803
  63   2.0000      -0.342130        -9.3098
  64   2.0000      -0.339198        -9.2300
  65   2.0000      -0.327597        -8.9144
  66   2.0000      -0.294510        -8.0140
  67   0.0000       0.037403         1.0178
  68   0.0000       0.063381         1.7247
  69   0.0000       0.117812         3.2058
  70   0.0000       0.120947         3.2911
  71   0.0000       0.131853         3.5879

MULLIKEN ATOMIC CHARGES
-----------------------
   0 S :    0.131590
   1 C :   -0.085244
   2 C :   -0.131983
   3 C :    0.054261
   4 C :   -0.180405
   5 H :   -0.006986
   6 C :    0.137774
   7 H :    0.022606
   8 H :   -0.017976
   9 C :   -0.052448
  10 H :    0.024667
  11 H :    0.044971
  12 C :   -0.077747
  13 H :    0.026964
  14 H :    0.033892
  15 H :    0.038577
  16 S :    0.113865
  17 C :   -0.098130
  18 C :   -0.073393
  19 C :    0.006653
  20 C :   -0.202945
  21 H :    0.025170
  22 C :    0.059362
  23 H :    0.023731
  24 H :    0.007407
  25 C :   -0.023150
  26 H :    0.018616
  27 H :    0.038664
  28 C :   -0.048410
  29 H :    0.033634
  30 H :    0.043984
  31 H :    0.025441
  32 H :    0.033361
  33 H :    0.053627
Sum of atomic charges:   -0.0000000

LOEWDIN ATOMIC CHARGES
----------------------
   0 S :    0.434918
   1 C :   -0.207349
   2 C :   -0.058882
   3 C :   -0.050245
   4 C :   -0.215745
   5 H :    0.021185
   6 C :   -0.035214
   7 H :    0.038385
   8 H :    0.020106
   9 C :   -0.034944
  10 H :    0.018773
  11 H :    0.031985
  12 C :   -0.059416
  13 H :    0.012778
  14 H :    0.026200
  15 H :    0.026247
  16 S :    0.414745
  17 C :   -0.202740
  18 C :   -0.085004
  19 C :   -0.061783
  20 C :   -0.185436
  21 H :    0.038120
  22 C :   -0.023938
  23 H :    0.033942
  24 H :    0.019078
  25 C :   -0.036474
  26 H :    0.021391
  27 H :    0.029379
  28 C :   -0.064897
  29 H :    0.028711
  30 H :    0.028812
  31 H :    0.024159
  32 H :    0.024267
  33 H :    0.028889

  Mayer bond orders larger than 0.100000
B(  0-S ,  1-C ) :   1.1551 B(  0-S ,  4-C ) :   1.1425 B(  1-C ,  2-C ) :   1.6280
B(  1-C , 32-H ) :   0.9650 B(  2-C ,  3-C ) :   1.2119 B(  2-C ,  6-C ) :   1.0423
B(  3-C ,  4-C ) :   1.5976 B(  3-C ,  5-H ) :   0.9958 B(  4-C , 20-C ) :   1.0372
B(  6-C ,  7-H ) :   0.9368 B(  6-C ,  8-H ) :   0.9156 B(  6-C ,  9-C ) :   1.0277
B(  9-C , 10-H ) :   0.9679 B(  9-C , 11-H ) :   0.9604 B(  9-C , 12-C ) :   1.0592
B( 12-C , 13-H ) :   0.9832 B( 12-C , 14-H ) :   0.9809 B( 12-C , 15-H ) :   0.9789
B( 16-S , 17-C ) :   1.1624 B( 16-S , 20-C ) :   1.1667 B( 17-C , 18-C ) :   1.6081
B( 17-C , 20-C ) :   0.1126 B( 17-C , 33-H ) :   0.9646 B( 18-C , 19-C ) :   1.2522
B( 18-C , 21-H ) :   0.9837 B( 19-C , 20-C ) :   1.5845 B( 19-C , 22-C ) :   1.0188
B( 22-C , 23-H ) :   0.9357 B( 22-C , 24-H ) :   0.9364 B( 22-C , 25-C ) :   1.0709
B( 25-C , 26-H ) :   0.9513 B( 25-C , 27-H ) :   0.9546 B( 25-C , 28-C ) :   1.0713
B( 28-C , 29-H ) :   0.9726 B( 28-C , 30-H ) :   0.9781 B( 28-C , 31-H ) :   0.9720

Dispersion correction           -0.014278575
FINAL SINGLE POINT ENERGY     -1339.838776368346

DIPOLE MOMENT
-------------
                                X             Y             Z
Electronic contribution:     -5.59951     -21.77306      10.53133
Nuclear contribution   :      5.92679      22.04195     -10.84599
                        -----------------------------------------
Total Dipole Moment    :      0.32728       0.26889      -0.31466
                        -----------------------------------------
Magnitude (a.u.)       :      0.52766
Magnitude (Debye)      :      1.34121

Rotational constants in cm-1:     0.021455     0.007598     0.006444
Rotational constants in MHz :   643.210460   227.779169   193.177603

                             ****ORCA TERMINATED NORMALLY****
TOTAL RUN TIME: 0 days 0 hours 0 minutes 21 seconds 330 msec
