                         Program Version 4.2.1 -  RELEASE  -
|  1> ! wB97X-D3 SP def2-SVP
|  2> %pal
|  3> nprocs 24
|  4> end
|  5>
|  6> * xyz 0 1
|  7> S 	 -29.8571 	 9.28881 	 3.99344
|  8> C 	 -28.7455 	 10.6755 	 3.83131
|  9> C 	 -28.0983 	 10.8613 	 5.03127
| 10> C 	 -28.4692 	 9.96563 	 6.05006
| 11> C 	 -29.3844 	 9.05307 	 5.70765
| 12> H 	 -28.1259 	 9.93332 	 7.08117
| 13> C 	 -27.1431 	 11.95 	 5.25181
| 14> H 	 -27.1049 	 12.416 	 4.24216
| 15> H 	 -26.1847 	 11.5077 	 5.47007
| 16> C 	 -27.3686 	 12.9726 	 6.32525
| 17> H 	 -28.3533 	 13.4538 	 6.24909
| 18> H 	 -27.3583 	 12.4553 	 7.29585
| 19> C 	 -26.286 	 14.0613 	 6.54654
| 20> H 	 -26.6103 	 14.6456 	 7.42572
| 21> H 	 -25.3063 	 13.5887 	 6.69272
| 22> H 	 -26.1937 	 14.7168 	 5.65444
| 23> S 	 -30.0647 	 6.36343 	 5.97506
| 24> C 	 -30.5368 	 5.73864 	 7.51337
| 25> C 	 -30.4962 	 6.69867 	 8.46088
| 26> C 	 -30.2966 	 8.00801 	 7.9118
| 27> C 	 -29.9795 	 8.04784 	 6.57915
| 28> H 	 -30.6492 	 6.40736 	 9.55676
| 29> C 	 -30.2551 	 9.17587 	 8.86484
| 30> H 	 -29.9599 	 10.1185 	 8.3506
| 31> H 	 -29.4298 	 8.93552 	 9.5799
| 32> C 	 -31.4943 	 9.51364 	 9.67614
| 33> H 	 -31.3914 	 10.5162 	 10.1221
| 34> H 	 -31.5918 	 8.79744 	 10.4719
| 35> C 	 -32.7281 	 9.54804 	 8.77516
| 36> H 	 -33.5735 	 9.6588 	 9.50881
| 37> H 	 -32.9047 	 8.68776 	 8.13979
| 38> H 	 -32.715 	 10.4213 	 8.09275
| 39> H 	 -28.8811 	 11.3003 	 2.96832
| 40> H 	 -30.6182 	 4.62085 	 7.64218
| 41> *
| 42>
| 43>                          ****END OF INPUT****

CARTESIAN COORDINATES (ANGSTROEM)
---------------------------------
  S    -29.857100    9.288810    3.993440
  C    -28.745500   10.675500    3.831310
  C    -28.098300   10.861300    5.031270
  C    -28.469200    9.965630    6.050060
  C    -29.384400    9.053070    5.707650
  H    -28.125900    9.933320    7.081170
  C    -27.143100   11.950000    5.251810
  H    -27.104900   12.416000    4.242160
  H    -26.184700   11.507700    5.470070
  C    -27.368600   12.972600    6.325250
  H    -28.353300   13.453800    6.249090
  H    -27.358300   12.455300    7.295850
  C    -26.286000   14.061300    6.546540
  H    -26.610300   14.645600    7.425720
  H    -25.306300   13.588700    6.692720
  H    -26.193700   14.716800    5.654440
  S    -30.064700    6.363430    5.975060
  C    -30.536800    5.738640    7.513370
  C    -30.496200    6.698670    8.460880
  C    -30.296600    8.008010    7.911800
  C    -29.979500    8.047840    6.579150
  H    -30.649200    6.407360    9.556760
  C    -30.255100    9.175870    8.864840
  H    -29.959900   10.118500    8.350600
  H    -29.429800    8.935520    9.579900
  C    -31.494300    9.513640    9.676140
  H    -31.391400   10.516200   10.122100
  H    -31.591800    8.797440   10.471900
  C    -32.728100    9.548040    8.775160
  H    -33.573500    9.658800    9.508810
  H    -32.904700    8.687760    8.139790
  H    -32.715000   10.421300    8.092750
  H    -28.881100   11.300300    2.968320
  H    -30.618200    4.620850    7.642180

 Total Charge           Charge          ....    0
 Multiplicity           Mult            ....    1
 Number of Electrons    NEL             ....  134
 Basis Dimension        Dim             ....  322

ORBITAL ENERGIES
----------------

  NO   OCC          E(Eh)            E(eV)
   0   2.0000     -88.960777     -2420.7458
   1   2.0000     -88.959271     -2420.7048
   2   2.0000     -10.331106      -281.1237
   3   2.0000     -10.329858      -281.0897
   4   2.0000     -10.320946      -280.8472
   5   2.0000     -10.318041      -280.7682
   6   2.0000     -10.305785      -280.4347
   7   2.0000     -10.299636      -280.2674
   8   2.0000     -10.299085      -280.2523
   9   2.0000     -10.291513      -280.0463
  10   2.0000     -10.288818      -279.9730
  11   2.0000     -10.288082      -279.9530
  12   2.0000     -10.286667      -279.9145
  13   2.0000     -10.286443      -279.9083
  14   2.0000     -10.284637      -279.8592
  15   2.0000     -10.275406      -279.6080
  16   2.0000      -8.074915      -219.7296
  17   2.0000      -8.074564      -219.7201
  18   2.0000      -6.033491      -164.1796
  19   2.0000      -6.033141      -164.1701
  20   2.0000      -6.029567      -164.0728
  21   2.0000      -6.028984      -164.0570
  22   2.0000      -6.025564      -163.9639
  23   2.0000      -6.025211      -163.9543
  24   2.0000      -1.009001       -27.4563
  25   2.0000      -0.988906       -26.9095
  26   2.0000      -0.917137       -24.9566
  27   2.0000      -0.911825       -24.8120
  28   2.0000      -0.875259       -23.8170
  29   2.0000      -0.850929       -23.1550
  30   2.0000      -0.842696       -22.9309
  31   2.0000      -0.822255       -22.3747
  32   2.0000      -0.780689       -21.2436
  33   2.0000      -0.771517       -20.9940
  34   2.0000      -0.711175       -19.3521
  35   2.0000      -0.694920       -18.9097
  36   2.0000      -0.691996       -18.8302
  37   2.0000      -0.655913       -17.8483
  38   2.0000      -0.646910       -17.6033
  39   2.0000      -0.623568       -16.9682
  40   2.0000      -0.597138       -16.2489
  41   2.0000      -0.578542       -15.7429
  42   2.0000      -0.558932       -15.2093
  43   2.0000      -0.551322       -15.0022
  44   2.0000      -0.546835       -14.8801
  45   2.0000      -0.532225       -14.4826
  46   2.0000      -0.520452       -14.1622
  47   2.0000      -0.516762       -14.0618
  48   2.0000      -0.506269       -13.7763
  49   2.0000      -0.496491       -13.5102
  50   2.0000      -0.491743       -13.3810
  51   2.0000      -0.477883       -13.0039
  52   2.0000      -0.471265       -12.8238
  53   2.0000      -0.464809       -12.6481
  54   2.0000      -0.459925       -12.5152
  55   2.0000      -0.450201       -12.2506
  56   2.0000      -0.444194       -12.0871
  57   2.0000      -0.435923       -11.8621
  58   2.0000      -0.422780       -11.5044
  59   2.0000      -0.420790       -11.4503
  60   2.0000      -0.415003       -11.2928
  61   2.0000      -0.412746       -11.2314
  62   2.0000      -0.410346       -11.1661
  63   2.0000      -0.357322        -9.7232
  64   2.0000      -0.330867        -9.0033
  65   2.0000      -0.328284        -8.9331
  66   2.0000      -0.295044        -8.0285
  67   0.0000       0.028363         0.7718
  68   0.0000       0.071798         1.9537
  69   0.0000       0.109397         2.9769
  70   0.0000       0.118444         3.2230
  71   0.0000       0.130224         3.5436

MULLIKEN ATOMIC CHARGES
-----------------------
   0 S :    0.079185
   1 C :   -0.135346
   2 C :   -0.062808
   3 C :    0.005471
   4 C :   -0.114881
   5 H :    0.016810
   6 C :    0.106294
   7 H :    0.011906
   8 H :    0.022097
   9 C :   -0.102853
  10 H :    0.030714
  11 H :    0.022158
  12 C :   -0.057983
  13 H :    0.047605
  14 H :    0.032110
  15 H :    0.036151
  16 S :    0.077228
  17 C :   -0.104369
  18 C :   -0.054060
  19 C :   -0.064299
  20 C :   -0.123347
  21 H :    0.051363
  22 C :    0.018059
  23 H :    0.027068
  24 H :    0.038564
  25 C :   -0.047765
  26 H :    0.034871
  27 H :    0.020387
  28 C :   -0.076492
  29 H :    0.035684
  30 H :    0.051099
  31 H :    0.035211
  32 H :    0.060554
  33 H :    0.083613
Sum of atomic charges:   -0.0000000

LOEWDIN ATOMIC CHARGES
----------------------
   0 S :    0.361913
   1 C :   -0.177592
   2 C :   -0.063812
   3 C :   -0.065061
   4 C :   -0.168606
   5 H :    0.035684
   6 C :   -0.037535
   7 H :    0.032812
   8 H :    0.032593
   9 C :   -0.046925
  10 H :    0.024090
  11 H :    0.023044
  12 C :   -0.063885
  13 H :    0.033054
  14 H :    0.024436
  15 H :    0.024727
  16 S :    0.387221
  17 C :   -0.188481
  18 C :   -0.086515
  19 C :   -0.060638
  20 C :   -0.183405
  21 H :    0.047434
  22 C :   -0.043477
  23 H :    0.029575
  24 H :    0.035641
  25 C :   -0.041072
  26 H :    0.031594
  27 H :    0.015790
  28 C :   -0.068640
  29 H :    0.030502
  30 H :    0.025476
  31 H :    0.028191
  32 H :    0.028761
  33 H :    0.043105

  Mayer bond orders larger than 0.100000
B(  0-S ,  1-C ) :   1.1197 B(  0-S ,  4-C ) :   1.1309 B(  1-C ,  2-C ) :   1.6104
B(  1-C , 32-H ) :   0.9728 B(  2-C ,  3-C ) :   1.2026 B(  2-C ,  6-C ) :   1.0435
B(  3-C ,  4-C ) :   1.6207 B(  3-C ,  5-H ) :   0.9955 B(  4-C , 20-C ) :   1.0301
B(  6-C ,  7-H ) :   0.9349 B(  6-C ,  8-H ) :   0.9205 B(  6-C ,  9-C ) :   1.0728
B(  9-C , 10-H ) :   0.9556 B(  9-C , 11-H ) :   0.9484 B(  9-C , 12-C ) :   1.0848
B( 12-C , 13-H ) :   0.9746 B( 12-C , 14-H ) :   0.9735 B( 12-C , 15-H ) :   0.9770
B( 16-S , 17-C ) :   1.1612 B( 16-S , 20-C ) :   1.1165 B( 17-C , 18-C ) :   1.6222
B( 17-C , 33-H ) :   0.9586 B( 18-C , 19-C ) :   1.2097 B( 18-C , 21-H ) :   0.9827
B( 19-C , 20-C ) :   1.6306 B( 19-C , 22-C ) :   1.0426 B( 22-C , 23-H ) :   0.9378
B( 22-C , 24-H ) :   0.9343 B( 22-C , 25-C ) :   1.0783 B( 25-C , 26-H ) :   0.9541
B( 25-C , 27-H ) :   0.9536 B( 25-C , 28-C ) :   1.0777 B( 28-C , 29-H ) :   0.9751
B( 28-C , 30-H ) :   0.9714 B( 28-C , 31-H ) :   0.9763

Dispersion correction           -0.014178446
FINAL SINGLE POINT ENERGY     -1339.885169345260

DIPOLE MOMENT
-------------
                                X             Y             Z
Electronic contribution:     -3.90539     -22.69483     -16.74340
Nuclear contribution   :      4.14929      23.10721      17.43062
                        -----------------------------------------
Total Dipole Moment    :      0.24391       0.41237       0.68722
                        -----------------------------------------
Magnitude (a.u.)       :      0.83774
Magnitude (Debye)      :      2.12937

Rotational constants in cm-1:     0.018675     0.008551     0.006743
Rotational constants in MHz :   559.863878   256.359611   202.136776

                             ****ORCA TERMINATED NORMALLY****
TOTAL RUN TIME: 0 days 0 hours 0 minutes 21 seconds 632 msec
