                         Program Version 4.2.1 -  RELEASE  -
|  1> ! wB97X-D3 SP def2-SVP
|  2> %pal
|  3> nprocs 24
|  4> end
|  5>
|  6> * xyz 0 1
|  7> S 	 -48.156 	 15.5561 	 -103.085
|  8> C 	 -49.5968 	 16.4506 	 -102.9
|  9> C 	 -49.4893 	 17.4701 	 -102.056
| 10> C 	 -48.1304 	 17.5726 	 -101.518
| 11> C 	 -47.246 	 16.6175 	 -102.025
| 12> H 	 -47.7081 	 18.342 	 -100.893
| 13> C 	 -50.6478 	 18.3719 	 -101.477
| 14> H 	 -51.2218 	 17.8477 	 -100.75
| 15> H 	 -51.3347 	 18.5532 	 -102.352
| 16> C 	 -50.0506 	 19.709 	 -100.847
| 17> H 	 -49.3046 	 20.1914 	 -101.338
| 18> H 	 -50.7817 	 20.5144 	 -100.964
| 19> C 	 -49.5042 	 19.5839 	 -99.4055
| 20> H 	 -50.3584 	 19.6216 	 -98.8293
| 21> H 	 -49.1417 	 18.5982 	 -99.1723
| 22> H 	 -48.8808 	 20.3864 	 -99.0734
| 23> S 	 -45.3236 	 16.6594 	 -100.02
| 24> C 	 -43.7129 	 15.9776 	 -100.372
| 25> C 	 -43.5502 	 15.8734 	 -101.739
| 26> C 	 -44.7808 	 16.082 	 -102.489
| 27> C 	 -45.8954 	 16.3431 	 -101.67
| 28> H 	 -42.5465 	 15.6951 	 -102.197
| 29> C 	 -44.7285 	 16.3098 	 -104.001
| 30> H 	 -45.7803 	 16.5006 	 -104.263
| 31> H 	 -44.5535 	 15.3813 	 -104.638
| 32> C 	 -44.0134 	 17.5492 	 -104.411
| 33> H 	 -44.1905 	 17.674 	 -105.486
| 34> H 	 -42.912 	 17.4893 	 -104.319
| 35> C 	 -44.5848 	 18.7953 	 -103.709
| 36> H 	 -44.1511 	 19.5784 	 -104.284
| 37> H 	 -44.296 	 18.8161 	 -102.628
| 38> H 	 -45.6868 	 18.8988 	 -103.762
| 39> H 	 -50.5652 	 16.362 	 -103.358
| 40> H 	 -42.8474 	 15.8923 	 -99.7446
| 41> *
| 42>
| 43>                          ****END OF INPUT****

CARTESIAN COORDINATES (ANGSTROEM)
---------------------------------
  S    -48.156000   15.556100  -103.085000
  C    -49.596800   16.450600  -102.900000
  C    -49.489300   17.470100  -102.056000
  C    -48.130400   17.572600  -101.518000
  C    -47.246000   16.617500  -102.025000
  H    -47.708100   18.342000  -100.893000
  C    -50.647800   18.371900  -101.477000
  H    -51.221800   17.847700  -100.750000
  H    -51.334700   18.553200  -102.352000
  C    -50.050600   19.709000  -100.847000
  H    -49.304600   20.191400  -101.338000
  H    -50.781700   20.514400  -100.964000
  C    -49.504200   19.583900  -99.405500
  H    -50.358400   19.621600  -98.829300
  H    -49.141700   18.598200  -99.172300
  H    -48.880800   20.386400  -99.073400
  S    -45.323600   16.659400  -100.020000
  C    -43.712900   15.977600  -100.372000
  C    -43.550200   15.873400  -101.739000
  C    -44.780800   16.082000  -102.489000
  C    -45.895400   16.343100  -101.670000
  H    -42.546500   15.695100  -102.197000
  C    -44.728500   16.309800  -104.001000
  H    -45.780300   16.500600  -104.263000
  H    -44.553500   15.381300  -104.638000
  C    -44.013400   17.549200  -104.411000
  H    -44.190500   17.674000  -105.486000
  H    -42.912000   17.489300  -104.319000
  C    -44.584800   18.795300  -103.709000
  H    -44.151100   19.578400  -104.284000
  H    -44.296000   18.816100  -102.628000
  H    -45.686800   18.898800  -103.762000
  H    -50.565200   16.362000  -103.358000
  H    -42.847400   15.892300  -99.744600

 Total Charge           Charge          ....    0
 Multiplicity           Mult            ....    1
 Number of Electrons    NEL             ....  134
 Basis Dimension        Dim             ....  322

ORBITAL ENERGIES
----------------

  NO   OCC          E(Eh)            E(eV)
   0   2.0000     -88.968355     -2420.9520
   1   2.0000     -88.966097     -2420.8906
   2   2.0000     -10.331414      -281.1321
   3   2.0000     -10.329353      -281.0760
   4   2.0000     -10.321165      -280.8532
   5   2.0000     -10.307824      -280.4901
   6   2.0000     -10.307101      -280.4705
   7   2.0000     -10.303796      -280.3805
   8   2.0000     -10.299782      -280.2713
   9   2.0000     -10.299561      -280.2653
  10   2.0000     -10.294210      -280.1197
  11   2.0000     -10.289061      -279.9796
  12   2.0000     -10.284784      -279.8632
  13   2.0000     -10.283686      -279.8333
  14   2.0000     -10.273205      -279.5481
  15   2.0000     -10.268440      -279.4185
  16   2.0000      -8.081799      -219.9169
  17   2.0000      -8.081111      -219.8982
  18   2.0000      -6.040636      -164.3741
  19   2.0000      -6.039746      -164.3498
  20   2.0000      -6.036644      -164.2654
  21   2.0000      -6.035526      -164.2350
  22   2.0000      -6.032129      -164.1426
  23   2.0000      -6.031734      -164.1318
  24   2.0000      -1.007810       -27.4239
  25   2.0000      -0.982352       -26.7312
  26   2.0000      -0.910285       -24.7701
  27   2.0000      -0.904928       -24.6243
  28   2.0000      -0.878300       -23.8998
  29   2.0000      -0.845212       -22.9994
  30   2.0000      -0.836305       -22.7570
  31   2.0000      -0.815845       -22.2003
  32   2.0000      -0.785349       -21.3704
  33   2.0000      -0.772474       -21.0201
  34   2.0000      -0.718644       -19.5553
  35   2.0000      -0.705129       -19.1875
  36   2.0000      -0.690060       -18.7775
  37   2.0000      -0.658789       -17.9266
  38   2.0000      -0.635149       -17.2833
  39   2.0000      -0.613357       -16.6903
  40   2.0000      -0.593313       -16.1449
  41   2.0000      -0.575975       -15.6731
  42   2.0000      -0.554794       -15.0967
  43   2.0000      -0.548541       -14.9266
  44   2.0000      -0.538997       -14.6668
  45   2.0000      -0.523277       -14.2391
  46   2.0000      -0.517986       -14.0951
  47   2.0000      -0.511434       -13.9168
  48   2.0000      -0.505532       -13.7562
  49   2.0000      -0.496964       -13.5231
  50   2.0000      -0.495177       -13.4744
  51   2.0000      -0.486073       -13.2267
  52   2.0000      -0.467893       -12.7320
  53   2.0000      -0.460304       -12.5255
  54   2.0000      -0.456710       -12.4277
  55   2.0000      -0.447612       -12.1801
  56   2.0000      -0.446218       -12.1422
  57   2.0000      -0.439151       -11.9499
  58   2.0000      -0.432200       -11.7607
  59   2.0000      -0.422909       -11.5079
  60   2.0000      -0.414527       -11.2799
  61   2.0000      -0.407008       -11.0753
  62   2.0000      -0.404288       -11.0012
  63   2.0000      -0.357890        -9.7387
  64   2.0000      -0.327728        -8.9179
  65   2.0000      -0.326882        -8.8949
  66   2.0000      -0.289107        -7.8670
  67   0.0000       0.020109         0.5472
  68   0.0000       0.074427         2.0253
  69   0.0000       0.099779         2.7151
  70   0.0000       0.120389         3.2759
  71   0.0000       0.138053         3.7566

MULLIKEN ATOMIC CHARGES
-----------------------
   0 S :    0.125485
   1 C :   -0.099868
   2 C :   -0.093978
   3 C :   -0.011643
   4 C :   -0.150036
   5 H :    0.018932
   6 C :    0.069170
   7 H :    0.044950
   8 H :    0.037311
   9 C :   -0.067458
  10 H :   -0.001570
  11 H :    0.019291
  12 C :   -0.022690
  13 H :    0.004931
  14 H :    0.035517
  15 H :    0.037693
  16 S :    0.093838
  17 C :   -0.073582
  18 C :   -0.046453
  19 C :   -0.071374
  20 C :   -0.123678
  21 H :    0.040673
  22 C :    0.051515
  23 H :    0.007838
  24 H :    0.044892
  25 C :   -0.080149
  26 H :    0.030410
  27 H :    0.032918
  28 C :   -0.054440
  29 H :    0.025973
  30 H :    0.052267
  31 H :    0.040031
  32 H :    0.028785
  33 H :    0.054499
Sum of atomic charges:   -0.0000000

LOEWDIN ATOMIC CHARGES
----------------------
   0 S :    0.429105
   1 C :   -0.214491
   2 C :   -0.065341
   3 C :   -0.068631
   4 C :   -0.191140
   5 H :    0.027181
   6 C :   -0.017258
   7 H :    0.028532
   8 H :    0.036826
   9 C :   -0.040656
  10 H :    0.009464
  11 H :    0.026746
  12 C :   -0.061396
  13 H :    0.017357
  14 H :    0.026859
  15 H :    0.028033
  16 S :    0.383706
  17 C :   -0.174834
  18 C :   -0.070815
  19 C :   -0.054002
  20 C :   -0.193381
  21 H :    0.039710
  22 C :   -0.050843
  23 H :    0.021558
  24 H :    0.036558
  25 C :   -0.043660
  26 H :    0.028576
  27 H :    0.022334
  28 C :   -0.062915
  29 H :    0.021769
  30 H :    0.031724
  31 H :    0.029694
  32 H :    0.032705
  33 H :    0.030924

  Mayer bond orders larger than 0.100000
B(  0-S ,  1-C ) :   1.1291 B(  0-S ,  4-C ) :   1.1337 B(  1-C ,  2-C ) :   1.6801
B(  1-C , 32-H ) :   0.9579 B(  2-C ,  3-C ) :   1.2254 B(  2-C ,  6-C ) :   0.9991
B(  3-C ,  4-C ) :   1.5757 B(  3-C ,  5-H ) :   0.9866 B(  4-C , 20-C ) :   1.0953
B(  6-C ,  7-H ) :   0.9501 B(  6-C ,  8-H ) :   0.9440 B(  6-C ,  9-C ) :   1.0534
B(  9-C , 10-H ) :   0.9650 B(  9-C , 11-H ) :   0.9580 B(  9-C , 12-C ) :   1.0542
B( 12-C , 13-H ) :   0.9688 B( 12-C , 14-H ) :   0.9745 B( 12-C , 15-H ) :   0.9751
B( 16-S , 17-C ) :   1.1299 B( 16-S , 20-C ) :   1.1158 B( 17-C , 18-C ) :   1.6294
B( 17-C , 33-H ) :   0.9681 B( 18-C , 19-C ) :   1.2324 B( 18-C , 21-H ) :   0.9805
B( 19-C , 20-C ) :   1.5601 B( 19-C , 22-C ) :   1.0447 B( 22-C , 23-H ) :   0.9227
B( 22-C , 24-H ) :   0.9354 B( 22-C , 25-C ) :   1.0776 B( 25-C , 26-H ) :   0.9531
B( 25-C , 27-H ) :   0.9526 B( 25-C , 28-C ) :   1.0709 B( 28-C , 29-H ) :   0.9742
B( 28-C , 30-H ) :   0.9708 B( 28-C , 31-H ) :   0.9747

Dispersion correction           -0.015804084
FINAL SINGLE POINT ENERGY     -1339.846475072058

DIPOLE MOMENT
-------------
                                X             Y             Z
Electronic contribution:      3.00847     -17.30531       3.09859
Nuclear contribution   :     -3.03359      17.80492      -3.23999
                        -----------------------------------------
Total Dipole Moment    :     -0.02512       0.49960      -0.14140
                        -----------------------------------------
Magnitude (a.u.)       :      0.51983
Magnitude (Debye)      :      1.32131

Rotational constants in cm-1:     0.020026     0.009127     0.008134
Rotational constants in MHz :   600.378781   273.630484   243.841251

                             ****ORCA TERMINATED NORMALLY****
TOTAL RUN TIME: 0 days 0 hours 0 minutes 21 seconds 956 msec
