                         Program Version 4.2.1 -  RELEASE  -
|  1> ! wB97X-D3 SP def2-SVP
|  2> %pal
|  3> nprocs 24
|  4> end
|  5>
|  6> * xyz 0 1
|  7> S 	 -140.501 	 9.96049 	 8.40313
|  8> C 	 -141.469 	 9.18918 	 7.15215
|  9> C 	 -142.155 	 8.14566 	 7.62982
| 10> C 	 -141.926 	 7.90891 	 8.99725
| 11> C 	 -141.221 	 8.8929 	 9.62666
| 12> H 	 -142.4 	 7.14775 	 9.56795
| 13> C 	 -143.345 	 7.52304 	 6.9001
| 14> H 	 -143.877 	 6.88241 	 7.60665
| 15> H 	 -143.044 	 6.85704 	 6.07476
| 16> C 	 -144.468 	 8.49744 	 6.32216
| 17> H 	 -144.632 	 9.22594 	 7.11974
| 18> H 	 -144.229 	 9.19993 	 5.555
| 19> C 	 -145.784 	 7.94691 	 5.94151
| 20> H 	 -146.225 	 7.25748 	 6.76649
| 21> H 	 -146.554 	 8.72315 	 5.74378
| 22> H 	 -145.695 	 7.3921 	 5.00175
| 23> S 	 -139.203 	 9.21955 	 11.4915
| 24> C 	 -139.678 	 9.30474 	 13.2073
| 25> C 	 -141.028 	 9.21177 	 13.3828
| 26> C 	 -141.715 	 8.91871 	 12.1799
| 27> C 	 -140.906 	 8.99615 	 11.0247
| 28> H 	 -141.397 	 9.27021 	 14.3747
| 29> C 	 -143.244 	 8.839 	 12.1735
| 30> H 	 -143.574 	 8.43785 	 13.132
| 31> H 	 -143.532 	 8.08574 	 11.454
| 32> C 	 -143.979 	 10.1378 	 11.8646
| 33> H 	 -143.755 	 10.2883 	 10.8362
| 34> H 	 -143.533 	 11.0033 	 12.3324
| 35> C 	 -145.526 	 10.0221 	 12.2792
| 36> H 	 -146.094 	 10.9474 	 12.1091
| 37> H 	 -145.826 	 9.43524 	 13.1684
| 38> H 	 -146.034 	 9.34454 	 11.5556
| 39> H 	 -141.747 	 9.65269 	 6.2283
| 40> H 	 -139.094 	 9.47893 	 14.111
| 41> *
| 42>
| 43>                          ****END OF INPUT****

CARTESIAN COORDINATES (ANGSTROEM)
---------------------------------
  S    -140.501000    9.960490    8.403130
  C    -141.469000    9.189180    7.152150
  C    -142.155000    8.145660    7.629820
  C    -141.926000    7.908910    8.997250
  C    -141.221000    8.892900    9.626660
  H    -142.400000    7.147750    9.567950
  C    -143.345000    7.523040    6.900100
  H    -143.877000    6.882410    7.606650
  H    -143.044000    6.857040    6.074760
  C    -144.468000    8.497440    6.322160
  H    -144.632000    9.225940    7.119740
  H    -144.229000    9.199930    5.555000
  C    -145.784000    7.946910    5.941510
  H    -146.225000    7.257480    6.766490
  H    -146.554000    8.723150    5.743780
  H    -145.695000    7.392100    5.001750
  S    -139.203000    9.219550   11.491500
  C    -139.678000    9.304740   13.207300
  C    -141.028000    9.211770   13.382800
  C    -141.715000    8.918710   12.179900
  C    -140.906000    8.996150   11.024700
  H    -141.397000    9.270210   14.374700
  C    -143.244000    8.839000   12.173500
  H    -143.574000    8.437850   13.132000
  H    -143.532000    8.085740   11.454000
  C    -143.979000   10.137800   11.864600
  H    -143.755000   10.288300   10.836200
  H    -143.533000   11.003300   12.332400
  C    -145.526000   10.022100   12.279200
  H    -146.094000   10.947400   12.109100
  H    -145.826000    9.435240   13.168400
  H    -146.034000    9.344540   11.555600
  H    -141.747000    9.652690    6.228300
  H    -139.094000    9.478930   14.111000

 Total Charge           Charge          ....    0
 Multiplicity           Mult            ....    1
 Number of Electrons    NEL             ....  134
 Basis Dimension        Dim             ....  322

ORBITAL ENERGIES
----------------

  NO   OCC          E(Eh)            E(eV)
   0   2.0000     -88.969787     -2420.9910
   1   2.0000     -88.966205     -2420.8935
   2   2.0000     -10.331913      -281.1457
   3   2.0000     -10.331637      -281.1381
   4   2.0000     -10.318110      -280.7701
   5   2.0000     -10.308646      -280.5125
   6   2.0000     -10.307108      -280.4707
   7   2.0000     -10.301759      -280.3251
   8   2.0000     -10.297039      -280.1967
   9   2.0000     -10.290794      -280.0267
  10   2.0000     -10.289633      -279.9951
  11   2.0000     -10.289231      -279.9842
  12   2.0000     -10.288029      -279.9515
  13   2.0000     -10.287714      -279.9429
  14   2.0000     -10.287147      -279.9275
  15   2.0000     -10.286059      -279.8979
  16   2.0000      -8.083262      -219.9567
  17   2.0000      -8.080668      -219.8862
  18   2.0000      -6.041960      -164.4101
  19   2.0000      -6.039372      -164.3397
  20   2.0000      -6.037983      -164.3019
  21   2.0000      -6.035274      -164.2282
  22   2.0000      -6.033846      -164.1893
  23   2.0000      -6.031174      -164.1166
  24   2.0000      -1.009520       -27.4704
  25   2.0000      -0.984864       -26.7995
  26   2.0000      -0.909925       -24.7603
  27   2.0000      -0.904173       -24.6038
  28   2.0000      -0.877707       -23.8836
  29   2.0000      -0.853964       -23.2375
  30   2.0000      -0.843255       -22.9461
  31   2.0000      -0.819018       -22.2866
  32   2.0000      -0.782057       -21.2808
  33   2.0000      -0.770430       -20.9645
  34   2.0000      -0.718027       -19.5385
  35   2.0000      -0.704085       -19.1591
  36   2.0000      -0.697379       -18.9766
  37   2.0000      -0.662944       -18.0396
  38   2.0000      -0.642426       -17.4813
  39   2.0000      -0.622785       -16.9468
  40   2.0000      -0.592021       -16.1097
  41   2.0000      -0.574561       -15.6346
  42   2.0000      -0.563392       -15.3307
  43   2.0000      -0.556705       -15.1487
  44   2.0000      -0.525314       -14.2945
  45   2.0000      -0.524675       -14.2771
  46   2.0000      -0.515761       -14.0346
  47   2.0000      -0.513900       -13.9839
  48   2.0000      -0.504373       -13.7247
  49   2.0000      -0.501285       -13.6407
  50   2.0000      -0.489165       -13.3109
  51   2.0000      -0.483399       -13.1540
  52   2.0000      -0.472423       -12.8553
  53   2.0000      -0.466081       -12.6827
  54   2.0000      -0.457887       -12.4597
  55   2.0000      -0.452363       -12.3094
  56   2.0000      -0.446864       -12.1598
  57   2.0000      -0.442617       -12.0442
  58   2.0000      -0.431657       -11.7460
  59   2.0000      -0.427283       -11.6270
  60   2.0000      -0.418544       -11.3892
  61   2.0000      -0.409519       -11.1436
  62   2.0000      -0.408293       -11.1102
  63   2.0000      -0.353911        -9.6304
  64   2.0000      -0.334936        -9.1141
  65   2.0000      -0.333451        -9.0737
  66   2.0000      -0.290178        -7.8961
  67   0.0000       0.023517         0.6399
  68   0.0000       0.063107         1.7172
  69   0.0000       0.104657         2.8479
  70   0.0000       0.120683         3.2839
  71   0.0000       0.129805         3.5322

MULLIKEN ATOMIC CHARGES
-----------------------
   0 S :    0.098259
   1 C :   -0.101025
   2 C :   -0.065621
   3 C :    0.040397
   4 C :   -0.157908
   5 H :    0.005013
   6 C :    0.074592
   7 H :    0.013747
   8 H :    0.041719
   9 C :   -0.076537
  10 H :    0.019614
  11 H :    0.016651
  12 C :   -0.085763
  13 H :    0.039293
  14 H :    0.042704
  15 H :    0.034675
  16 S :    0.107736
  17 C :   -0.081375
  18 C :   -0.033473
  19 C :   -0.034981
  20 C :   -0.152398
  21 H :    0.009958
  22 C :    0.063330
  23 H :    0.009987
  24 H :    0.009400
  25 C :   -0.017150
  26 H :    0.026948
  27 H :    0.027610
  28 C :   -0.077102
  29 H :    0.045358
  30 H :    0.041380
  31 H :    0.015428
  32 H :    0.045534
  33 H :    0.054002
Sum of atomic charges:   -0.0000000

LOEWDIN ATOMIC CHARGES
----------------------
   0 S :    0.383279
   1 C :   -0.180960
   2 C :   -0.069449
   3 C :   -0.055908
   4 C :   -0.179521
   5 H :    0.026346
   6 C :   -0.023761
   7 H :    0.028280
   8 H :    0.032639
   9 C :   -0.055815
  10 H :    0.024761
  11 H :    0.020066
  12 C :   -0.072434
  13 H :    0.031191
  14 H :    0.033757
  15 H :    0.023574
  16 S :    0.385001
  17 C :   -0.176231
  18 C :   -0.067745
  19 C :   -0.050726
  20 C :   -0.191313
  21 H :    0.030153
  22 C :   -0.030557
  23 H :    0.024239
  24 H :    0.024323
  25 C :   -0.029649
  26 H :    0.025161
  27 H :    0.022393
  28 C :   -0.083465
  29 H :    0.029914
  30 H :    0.031757
  31 H :    0.028161
  32 H :    0.027213
  33 H :    0.035323

  Mayer bond orders larger than 0.100000
B(  0-S ,  1-C ) :   1.1194 B(  0-S ,  4-C ) :   1.1297 B(  1-C ,  2-C ) :   1.6557
B(  1-C , 32-H ) :   0.9638 B(  2-C ,  3-C ) :   1.2271 B(  2-C ,  6-C ) :   1.0222
B(  3-C ,  4-C ) :   1.5965 B(  3-C ,  5-H ) :   0.9938 B(  4-C , 20-C ) :   1.0711
B(  6-C ,  7-H ) :   0.9479 B(  6-C ,  8-H ) :   0.9363 B(  6-C ,  9-C ) :   1.0413
B(  9-C , 10-H ) :   0.9533 B(  9-C , 11-H ) :   0.9480 B(  9-C , 12-C ) :   1.1058
B( 12-C , 13-H ) :   0.9711 B( 12-C , 14-H ) :   0.9694 B( 12-C , 15-H ) :   0.9736
B( 16-S , 17-C ) :   1.1336 B( 16-S , 20-C ) :   1.1271 B( 17-C , 18-C ) :   1.6487
B( 17-C , 20-C ) :   0.1009 B( 17-C , 33-H ) :   0.9596 B( 18-C , 19-C ) :   1.2337
B( 18-C , 21-H ) :   0.9920 B( 19-C , 20-C ) :   1.5783 B( 19-C , 22-C ) :   1.0569
B( 22-C , 23-H ) :   0.9360 B( 22-C , 24-H ) :   0.9294 B( 22-C , 25-C ) :   1.0523
B( 25-C , 26-H ) :   0.9551 B( 25-C , 27-H ) :   0.9630 B( 25-C , 28-C ) :   1.0548
B( 28-C , 29-H ) :   0.9768 B( 28-C , 30-H ) :   0.9779 B( 28-C , 31-H ) :   0.9714

Dispersion correction           -0.014204916
FINAL SINGLE POINT ENERGY     -1339.857375571149

DIPOLE MOMENT
-------------
                                X             Y             Z
Electronic contribution:     32.42761       3.43537       5.13217
Nuclear contribution   :    -33.24033      -3.51972      -5.02700
                        -----------------------------------------
Total Dipole Moment    :     -0.81272      -0.08435       0.10517
                        -----------------------------------------
Magnitude (a.u.)       :      0.82382
Magnitude (Debye)      :      2.09399

Rotational constants in cm-1:     0.018380     0.008926     0.006562
Rotational constants in MHz :   551.027663   267.590060   196.724542

                             ****ORCA TERMINATED NORMALLY****
TOTAL RUN TIME: 0 days 0 hours 0 minutes 21 seconds 679 msec
