                         Program Version 4.2.1 -  RELEASE  -
|  1> ! wB97X-D3 SP def2-SVP
|  2> %pal
|  3> nprocs 24
|  4> end
|  5>
|  6> * xyz 0 1
|  7> S 	 -57.8458 	 13.2112 	 -101.022
|  8> C 	 -59.0585 	 14.4649 	 -101.005
|  9> C 	 -59.0226 	 15.2229 	 -99.8302
| 10> C 	 -58.2408 	 14.4508 	 -98.8553
| 11> C 	 -57.7185 	 13.2828 	 -99.3469
| 12> H 	 -57.9529 	 14.8222 	 -97.8918
| 13> C 	 -59.9409 	 16.4572 	 -99.6071
| 14> H 	 -59.7941 	 16.7614 	 -98.6139
| 15> H 	 -60.8954 	 15.9456 	 -99.633
| 16> C 	 -59.9 	 17.619 	 -100.64
| 17> H 	 -58.8749 	 17.7357 	 -100.703
| 18> H 	 -60.2451 	 17.3852 	 -101.608
| 19> C 	 -60.5628 	 18.9281 	 -100.119
| 20> H 	 -60.56 	 19.5412 	 -101.027
| 21> H 	 -61.6817 	 18.6461 	 -99.9792
| 22> H 	 -60.1777 	 19.5136 	 -99.2553
| 23> S 	 -58.3001 	 11.1404 	 -97.6726
| 24> C 	 -56.9535 	 10.3156 	 -96.905
| 25> C 	 -55.7301 	 10.7363 	 -97.4352
| 26> C 	 -55.8106 	 11.8225 	 -98.3162
| 27> C 	 -57.1015 	 12.2329 	 -98.5576
| 28> H 	 -54.7884 	 10.177 	 -97.1482
| 29> C 	 -54.6154 	 12.582 	 -98.8831
| 30> H 	 -54.8704 	 13.6216 	 -98.7554
| 31> H 	 -54.5073 	 12.2631 	 -99.9287
| 32> C 	 -53.1692 	 12.1528 	 -98.4074
| 33> H 	 -52.8403 	 11.0681 	 -98.5861
| 34> H 	 -53.1662 	 12.4172 	 -97.3415
| 35> C 	 -52.0642 	 13.0066 	 -99.0952
| 36> H 	 -52.16 	 12.886 	 -100.187
| 37> H 	 -51.0792 	 12.743 	 -98.7658
| 38> H 	 -52.233 	 14.0633 	 -98.8542
| 39> H 	 -59.6811 	 14.6799 	 -101.914
| 40> H 	 -56.9915 	 9.37259 	 -96.4272
| 41> *
| 42>
| 43>                          ****END OF INPUT****

CARTESIAN COORDINATES (ANGSTROEM)
---------------------------------
  S    -57.845800   13.211200  -101.022000
  C    -59.058500   14.464900  -101.005000
  C    -59.022600   15.222900  -99.830200
  C    -58.240800   14.450800  -98.855300
  C    -57.718500   13.282800  -99.346900
  H    -57.952900   14.822200  -97.891800
  C    -59.940900   16.457200  -99.607100
  H    -59.794100   16.761400  -98.613900
  H    -60.895400   15.945600  -99.633000
  C    -59.900000   17.619000  -100.640000
  H    -58.874900   17.735700  -100.703000
  H    -60.245100   17.385200  -101.608000
  C    -60.562800   18.928100  -100.119000
  H    -60.560000   19.541200  -101.027000
  H    -61.681700   18.646100  -99.979200
  H    -60.177700   19.513600  -99.255300
  S    -58.300100   11.140400  -97.672600
  C    -56.953500   10.315600  -96.905000
  C    -55.730100   10.736300  -97.435200
  C    -55.810600   11.822500  -98.316200
  C    -57.101500   12.232900  -98.557600
  H    -54.788400   10.177000  -97.148200
  C    -54.615400   12.582000  -98.883100
  H    -54.870400   13.621600  -98.755400
  H    -54.507300   12.263100  -99.928700
  C    -53.169200   12.152800  -98.407400
  H    -52.840300   11.068100  -98.586100
  H    -53.166200   12.417200  -97.341500
  C    -52.064200   13.006600  -99.095200
  H    -52.160000   12.886000  -100.187000
  H    -51.079200   12.743000  -98.765800
  H    -52.233000   14.063300  -98.854200
  H    -59.681100   14.679900  -101.914000
  H    -56.991500    9.372590  -96.427200

 Total Charge           Charge          ....    0
 Multiplicity           Mult            ....    1
 Number of Electrons    NEL             ....  134
 Basis Dimension        Dim             ....  322

ORBITAL ENERGIES
----------------

  NO   OCC          E(Eh)            E(eV)
   0   2.0000     -88.962823     -2420.8015
   1   2.0000     -88.962081     -2420.7813
   2   2.0000     -10.326646      -281.0023
   3   2.0000     -10.319880      -280.8182
   4   2.0000     -10.314277      -280.6657
   5   2.0000     -10.312980      -280.6305
   6   2.0000     -10.307393      -280.4784
   7   2.0000     -10.301499      -280.3180
   8   2.0000     -10.298396      -280.2336
   9   2.0000     -10.295650      -280.1589
  10   2.0000     -10.294356      -280.1237
  11   2.0000     -10.294171      -280.1186
  12   2.0000     -10.292622      -280.0765
  13   2.0000     -10.291871      -280.0560
  14   2.0000     -10.284777      -279.8630
  15   2.0000     -10.280093      -279.7356
  16   2.0000      -8.078490      -219.8269
  17   2.0000      -8.076024      -219.7598
  18   2.0000      -6.036799      -164.2697
  19   2.0000      -6.034524      -164.2077
  20   2.0000      -6.032994      -164.1661
  21   2.0000      -6.030844      -164.1076
  22   2.0000      -6.029140      -164.0612
  23   2.0000      -6.026770      -163.9968
  24   2.0000      -1.007284       -27.4096
  25   2.0000      -0.978558       -26.6279
  26   2.0000      -0.909829       -24.7577
  27   2.0000      -0.901763       -24.5382
  28   2.0000      -0.865667       -23.5560
  29   2.0000      -0.848169       -23.0799
  30   2.0000      -0.846219       -23.0268
  31   2.0000      -0.807809       -21.9816
  32   2.0000      -0.782538       -21.2939
  33   2.0000      -0.769130       -20.9291
  34   2.0000      -0.709765       -19.3137
  35   2.0000      -0.697380       -18.9767
  36   2.0000      -0.695354       -18.9215
  37   2.0000      -0.647744       -17.6260
  38   2.0000      -0.641221       -17.4485
  39   2.0000      -0.606815       -16.5123
  40   2.0000      -0.590168       -16.0593
  41   2.0000      -0.575486       -15.6598
  42   2.0000      -0.574152       -15.6235
  43   2.0000      -0.559842       -15.2341
  44   2.0000      -0.530388       -14.4326
  45   2.0000      -0.522458       -14.2168
  46   2.0000      -0.516843       -14.0640
  47   2.0000      -0.509250       -13.8574
  48   2.0000      -0.506154       -13.7731
  49   2.0000      -0.495807       -13.4916
  50   2.0000      -0.484364       -13.1802
  51   2.0000      -0.476370       -12.9627
  52   2.0000      -0.467104       -12.7105
  53   2.0000      -0.462795       -12.5933
  54   2.0000      -0.457126       -12.4390
  55   2.0000      -0.450360       -12.2549
  56   2.0000      -0.446630       -12.1534
  57   2.0000      -0.437722       -11.9110
  58   2.0000      -0.435271       -11.8443
  59   2.0000      -0.423625       -11.5274
  60   2.0000      -0.417637       -11.3645
  61   2.0000      -0.414660       -11.2835
  62   2.0000      -0.409820       -11.1518
  63   2.0000      -0.332494        -9.0476
  64   2.0000      -0.324829        -8.8390
  65   2.0000      -0.321218        -8.7408
  66   2.0000      -0.299162        -8.1406
  67   0.0000       0.039391         1.0719
  68   0.0000       0.046680         1.2702
  69   0.0000       0.101434         2.7602
  70   0.0000       0.115669         3.1475
  71   0.0000       0.130951         3.5634

MULLIKEN ATOMIC CHARGES
-----------------------
   0 S :    0.133934
   1 C :   -0.169525
   2 C :   -0.098460
   3 C :    0.037437
   4 C :   -0.188680
   5 H :    0.008230
   6 C :    0.087948
   7 H :    0.005140
   8 H :    0.041679
   9 C :   -0.030392
  10 H :    0.017631
  11 H :    0.021733
  12 C :   -0.094878
  13 H :    0.036987
  14 H :    0.040718
  15 H :    0.060891
  16 S :    0.099784
  17 C :   -0.059233
  18 C :   -0.098822
  19 C :    0.010111
  20 C :   -0.186179
  21 H :    0.041952
  22 C :    0.070865
  23 H :    0.048585
  24 H :    0.035075
  25 C :   -0.145501
  26 H :    0.055817
  27 H :    0.037501
  28 C :   -0.032172
  29 H :    0.032773
  30 H :    0.034065
  31 H :    0.029890
  32 H :    0.066686
  33 H :    0.048412
Sum of atomic charges:    0.0000000

LOEWDIN ATOMIC CHARGES
----------------------
   0 S :    0.433168
   1 C :   -0.207042
   2 C :   -0.059251
   3 C :   -0.059127
   4 C :   -0.230927
   5 H :    0.027062
   6 C :   -0.026394
   7 H :    0.022294
   8 H :    0.037023
   9 C :   -0.030875
  10 H :    0.017402
  11 H :    0.020601
  12 C :   -0.074932
  13 H :    0.029196
  14 H :    0.034828
  15 H :    0.032455
  16 S :    0.372259
  17 C :   -0.183588
  18 C :   -0.081348
  19 C :   -0.059314
  20 C :   -0.170383
  21 H :    0.041557
  22 C :   -0.031220
  23 H :    0.035724
  24 H :    0.037413
  25 C :   -0.049081
  26 H :    0.034185
  27 H :    0.021738
  28 C :   -0.063189
  29 H :    0.025206
  30 H :    0.022749
  31 H :    0.025430
  32 H :    0.032658
  33 H :    0.023722

  Mayer bond orders larger than 0.100000
B(  0-S ,  1-C ) :   1.1562 B(  0-S ,  4-C ) :   1.1602 B(  1-C ,  2-C ) :   1.5845
B(  1-C , 32-H ) :   0.9680 B(  2-C ,  3-C ) :   1.2304 B(  2-C ,  6-C ) :   1.0103
B(  3-C ,  4-C ) :   1.5729 B(  3-C ,  5-H ) :   1.0013 B(  4-C , 20-C ) :   1.0279
B(  6-C ,  7-H ) :   0.9437 B(  6-C ,  8-H ) :   0.9381 B(  6-C ,  9-C ) :   1.0471
B(  9-C , 10-H ) :   0.9606 B(  9-C , 11-H ) :   0.9544 B(  9-C , 12-C ) :   1.0805
B( 12-C , 13-H ) :   0.9752 B( 12-C , 14-H ) :   0.9745 B( 12-C , 15-H ) :   0.9760
B( 16-S , 17-C ) :   1.1562 B( 16-S , 20-C ) :   1.1240 B( 17-C , 18-C ) :   1.6149
B( 17-C , 20-C ) :   0.1120 B( 17-C , 33-H ) :   0.9586 B( 18-C , 19-C ) :   1.2560
B( 18-C , 21-H ) :   0.9714 B( 19-C , 20-C ) :   1.6175 B( 19-C , 22-C ) :   1.0196
B( 22-C , 23-H ) :   0.9400 B( 22-C , 24-H ) :   0.9277 B( 22-C , 25-C ) :   1.0648
B( 25-C , 26-H ) :   0.9552 B( 25-C , 27-H ) :   0.9546 B( 25-C , 28-C ) :   1.0809
B( 28-C , 29-H ) :   0.9754 B( 28-C , 30-H ) :   0.9744 B( 28-C , 31-H ) :   0.9755

Dispersion correction           -0.013386003
FINAL SINGLE POINT ENERGY     -1339.838103610032

DIPOLE MOMENT
-------------
                                X             Y             Z
Electronic contribution:     -8.98736     -19.87548       1.61513
Nuclear contribution   :      9.25733      20.30078      -1.69433
                        -----------------------------------------
Total Dipole Moment    :      0.26997       0.42529      -0.07920
                        -----------------------------------------
Magnitude (a.u.)       :      0.50993
Magnitude (Debye)      :      1.29614

Rotational constants in cm-1:     0.020241     0.006717     0.005724
Rotational constants in MHz :   606.815248   201.381178   171.603436

                             ****ORCA TERMINATED NORMALLY****
TOTAL RUN TIME: 0 days 0 hours 0 minutes 19 seconds 240 msec
