                         Program Version 4.2.1 -  RELEASE  -
|  1> ! wB97X-D3 SP def2-SVP
|  2> %pal
|  3> nprocs 24
|  4> end
|  5>
|  6> * xyz 0 1
|  7> S 	 -109.281 	 33.3699 	 -16.0187
|  8> C 	 -108.924 	 32.1188 	 -14.8777
|  9> C 	 -108.323 	 31.0763 	 -15.5283
| 10> C 	 -108.439 	 31.1863 	 -16.949
| 11> C 	 -108.945 	 32.4104 	 -17.3754
| 12> H 	 -108.092 	 30.4733 	 -17.6789
| 13> C 	 -107.81 	 29.8237 	 -14.8964
| 14> H 	 -107.225 	 30.171 	 -14.0746
| 15> H 	 -107.097 	 29.4746 	 -15.5536
| 16> C 	 -108.813 	 28.7122 	 -14.4683
| 17> H 	 -109.245 	 29.1528 	 -13.6011
| 18> H 	 -109.603 	 28.5346 	 -15.0967
| 19> C 	 -107.985 	 27.4744 	 -14.0833
| 20> H 	 -108.648 	 26.7157 	 -13.6461
| 21> H 	 -107.195 	 27.059 	 -14.7787
| 22> H 	 -107.431 	 27.7157 	 -13.2619
| 23> S 	 -109.053 	 34.4756 	 -19.0969
| 24> C 	 -109.547 	 34.3334 	 -20.7813
| 25> C 	 -109.674 	 32.9799 	 -21.011
| 26> C 	 -109.471 	 32.0902 	 -19.9104
| 27> C 	 -109.24 	 32.8324 	 -18.7524
| 28> H 	 -109.872 	 32.5796 	 -22.0178
| 29> C 	 -109.516 	 30.5494 	 -20.1447
| 30> H 	 -110.377 	 30.4771 	 -20.8598
| 31> H 	 -109.698 	 29.8864 	 -19.2572
| 32> C 	 -108.307 	 29.9711 	 -20.8583
| 33> H 	 -107.471 	 30.0393 	 -20.1871
| 34> H 	 -107.876 	 30.503 	 -21.7015
| 35> C 	 -108.489 	 28.405 	 -21.1391
| 36> H 	 -108.681 	 27.8175 	 -20.2095
| 37> H 	 -107.505 	 27.9004 	 -21.4255
| 38> H 	 -109.373 	 28.1908 	 -21.8223
| 39> H 	 -108.891 	 32.1721 	 -13.8144
| 40> H 	 -109.631 	 35.11 	 -21.5338
| 41> *
| 42>
| 43>                          ****END OF INPUT****

CARTESIAN COORDINATES (ANGSTROEM)
---------------------------------
  S    -109.281000   33.369900  -16.018700
  C    -108.924000   32.118800  -14.877700
  C    -108.323000   31.076300  -15.528300
  C    -108.439000   31.186300  -16.949000
  C    -108.945000   32.410400  -17.375400
  H    -108.092000   30.473300  -17.678900
  C    -107.810000   29.823700  -14.896400
  H    -107.225000   30.171000  -14.074600
  H    -107.097000   29.474600  -15.553600
  C    -108.813000   28.712200  -14.468300
  H    -109.245000   29.152800  -13.601100
  H    -109.603000   28.534600  -15.096700
  C    -107.985000   27.474400  -14.083300
  H    -108.648000   26.715700  -13.646100
  H    -107.195000   27.059000  -14.778700
  H    -107.431000   27.715700  -13.261900
  S    -109.053000   34.475600  -19.096900
  C    -109.547000   34.333400  -20.781300
  C    -109.674000   32.979900  -21.011000
  C    -109.471000   32.090200  -19.910400
  C    -109.240000   32.832400  -18.752400
  H    -109.872000   32.579600  -22.017800
  C    -109.516000   30.549400  -20.144700
  H    -110.377000   30.477100  -20.859800
  H    -109.698000   29.886400  -19.257200
  C    -108.307000   29.971100  -20.858300
  H    -107.471000   30.039300  -20.187100
  H    -107.876000   30.503000  -21.701500
  C    -108.489000   28.405000  -21.139100
  H    -108.681000   27.817500  -20.209500
  H    -107.505000   27.900400  -21.425500
  H    -109.373000   28.190800  -21.822300
  H    -108.891000   32.172100  -13.814400
  H    -109.631000   35.110000  -21.533800

 Total Charge           Charge          ....    0
 Multiplicity           Mult            ....    1
 Number of Electrons    NEL             ....  134
 Basis Dimension        Dim             ....  322

ORBITAL ENERGIES
----------------

  NO   OCC          E(Eh)            E(eV)
   0   2.0000     -88.965204     -2420.8663
   1   2.0000     -88.965007     -2420.8609
   2   2.0000     -10.328709      -281.0585
   3   2.0000     -10.327274      -281.0194
   4   2.0000     -10.319628      -280.8113
   5   2.0000     -10.307786      -280.4891
   6   2.0000     -10.306694      -280.4594
   7   2.0000     -10.305521      -280.4275
   8   2.0000     -10.297378      -280.2059
   9   2.0000     -10.296117      -280.1716
  10   2.0000     -10.294968      -280.1403
  11   2.0000     -10.291497      -280.0459
  12   2.0000     -10.289734      -279.9979
  13   2.0000     -10.282874      -279.8112
  14   2.0000     -10.280504      -279.7467
  15   2.0000     -10.277410      -279.6625
  16   2.0000      -8.081114      -219.8983
  17   2.0000      -8.080743      -219.8882
  18   2.0000      -6.039654      -164.3473
  19   2.0000      -6.039298      -164.3377
  20   2.0000      -6.035328      -164.2296
  21   2.0000      -6.034994      -164.2205
  22   2.0000      -6.031876      -164.1357
  23   2.0000      -6.031494      -164.1253
  24   2.0000      -1.016684       -27.6654
  25   2.0000      -0.993059       -27.0225
  26   2.0000      -0.917526       -24.9671
  27   2.0000      -0.906068       -24.6554
  28   2.0000      -0.874051       -23.7841
  29   2.0000      -0.851492       -23.1703
  30   2.0000      -0.843968       -22.9655
  31   2.0000      -0.816077       -22.2066
  32   2.0000      -0.781350       -21.2616
  33   2.0000      -0.772017       -21.0076
  34   2.0000      -0.720875       -19.6160
  35   2.0000      -0.707098       -19.2411
  36   2.0000      -0.697880       -18.9903
  37   2.0000      -0.666723       -18.1425
  38   2.0000      -0.639387       -17.3986
  39   2.0000      -0.621325       -16.9071
  40   2.0000      -0.599548       -16.3145
  41   2.0000      -0.572353       -15.5745
  42   2.0000      -0.563488       -15.3333
  43   2.0000      -0.556159       -15.1339
  44   2.0000      -0.531284       -14.4570
  45   2.0000      -0.520699       -14.1689
  46   2.0000      -0.518393       -14.1062
  47   2.0000      -0.514845       -14.0096
  48   2.0000      -0.505227       -13.7479
  49   2.0000      -0.500092       -13.6082
  50   2.0000      -0.494579       -13.4582
  51   2.0000      -0.484541       -13.1850
  52   2.0000      -0.472567       -12.8592
  53   2.0000      -0.467684       -12.7263
  54   2.0000      -0.457060       -12.4372
  55   2.0000      -0.454061       -12.3556
  56   2.0000      -0.444753       -12.1024
  57   2.0000      -0.441592       -12.0163
  58   2.0000      -0.439448       -11.9580
  59   2.0000      -0.427531       -11.6337
  60   2.0000      -0.420834       -11.4515
  61   2.0000      -0.417204       -11.3527
  62   2.0000      -0.408384       -11.1127
  63   2.0000      -0.359472        -9.7817
  64   2.0000      -0.330722        -8.9994
  65   2.0000      -0.326577        -8.8866
  66   2.0000      -0.289160        -7.8685
  67   0.0000       0.025678         0.6987
  68   0.0000       0.085274         2.3204
  69   0.0000       0.106415         2.8957
  70   0.0000       0.125948         3.4272
  71   0.0000       0.132716         3.6114

MULLIKEN ATOMIC CHARGES
-----------------------
   0 S :    0.116745
   1 C :   -0.099888
   2 C :   -0.108594
   3 C :   -0.010172
   4 C :   -0.110386
   5 H :   -0.002634
   6 C :    0.078837
   7 H :    0.011263
   8 H :   -0.007529
   9 C :    0.012014
  10 H :    0.012746
  11 H :    0.017100
  12 C :   -0.032358
  13 H :    0.030988
  14 H :    0.045747
  15 H :   -0.003893
  16 S :    0.096934
  17 C :   -0.083930
  18 C :   -0.046902
  19 C :   -0.035807
  20 C :   -0.123141
  21 H :    0.020757
  22 C :    0.024900
  23 H :    0.034182
  24 H :    0.043791
  25 C :   -0.047301
  26 H :    0.012883
  27 H :    0.031450
  28 C :   -0.105335
  29 H :    0.030070
  30 H :    0.048042
  31 H :    0.052352
  32 H :    0.035106
  33 H :    0.061960
Sum of atomic charges:    0.0000000

LOEWDIN ATOMIC CHARGES
----------------------
   0 S :    0.438005
   1 C :   -0.204620
   2 C :   -0.061650
   3 C :   -0.070153
   4 C :   -0.207545
   5 H :    0.025957
   6 C :   -0.027185
   7 H :    0.028740
   8 H :    0.016942
   9 C :   -0.017418
  10 H :    0.025317
  11 H :    0.012611
  12 C :   -0.067847
  13 H :    0.030364
  14 H :    0.035098
  15 H :    0.013100
  16 S :    0.427059
  17 C :   -0.192401
  18 C :   -0.069613
  19 C :   -0.065998
  20 C :   -0.207917
  21 H :    0.031058
  22 C :   -0.034605
  23 H :    0.035272
  24 H :    0.036802
  25 C :   -0.045881
  26 H :    0.019403
  27 H :    0.025545
  28 C :   -0.082529
  29 H :    0.025584
  30 H :    0.035584
  31 H :    0.031354
  32 H :    0.025592
  33 H :    0.035976

  Mayer bond orders larger than 0.100000
B(  0-S ,  1-C ) :   1.1391 B(  0-S ,  4-C ) :   1.1750 B(  1-C ,  2-C ) :   1.5939
B(  1-C , 32-H ) :   0.9712 B(  2-C ,  3-C ) :   1.2575 B(  2-C ,  6-C ) :   1.0318
B(  3-C ,  4-C ) :   1.5449 B(  3-C ,  5-H ) :   0.9963 B(  4-C , 20-C ) :   1.0312
B(  6-C ,  7-H ) :   0.9298 B(  6-C ,  8-H ) :   0.9374 B(  6-C ,  9-C ) :   1.0481
B(  9-C , 10-H ) :   0.9487 B(  9-C , 11-H ) :   0.9664 B(  9-C , 12-C ) :   1.0758
B( 12-C , 13-H ) :   0.9704 B( 12-C , 14-H ) :   0.9774 B( 12-C , 15-H ) :   0.9675
B( 16-S , 17-C ) :   1.1385 B( 16-S , 20-C ) :   1.1751 B( 17-C , 18-C ) :   1.5858
B( 17-C , 20-C ) :   0.1006 B( 17-C , 33-H ) :   0.9752 B( 18-C , 19-C ) :   1.2768
B( 18-C , 21-H ) :   0.9787 B( 19-C , 20-C ) :   1.5664 B( 19-C , 22-C ) :   1.0190
B( 22-C , 23-H ) :   0.9368 B( 22-C , 24-H ) :   0.9430 B( 22-C , 25-C ) :   1.0598
B( 25-C , 26-H ) :   0.9483 B( 25-C , 27-H ) :   0.9552 B( 25-C , 28-C ) :   1.0654
B( 28-C , 29-H ) :   0.9732 B( 28-C , 30-H ) :   0.9745 B( 28-C , 31-H ) :   0.9773

Dispersion correction           -0.013576458
FINAL SINGLE POINT ENERGY     -1339.855810758111

DIPOLE MOMENT
-------------
                                X             Y             Z
Electronic contribution:     -5.48496      32.97321      -0.15717
Nuclear contribution   :      5.73853     -33.64839       0.10923
                        -----------------------------------------
Total Dipole Moment    :      0.25357      -0.67518      -0.04794
                        -----------------------------------------
Magnitude (a.u.)       :      0.72282
Magnitude (Debye)      :      1.83726

Rotational constants in cm-1:     0.017101     0.009052     0.006109
Rotational constants in MHz :   512.671270   271.361014   183.152795

                             ****ORCA TERMINATED NORMALLY****
TOTAL RUN TIME: 0 days 0 hours 0 minutes 21 seconds 312 msec
