                         Program Version 4.2.1 -  RELEASE  -
|  1> ! wB97X-D3 SP def2-SVP
|  2> %pal
|  3> nprocs 24
|  4> end
|  5>
|  6> * xyz 0 1
|  7> S 	 -86.3007 	 2.07104 	 5.21781
|  8> C 	 -84.7603 	 2.06028 	 6.04223
|  9> C 	 -83.7225 	 2.3657 	 5.17007
| 10> C 	 -84.149 	 2.56946 	 3.80476
| 11> C 	 -85.5175 	 2.30547 	 3.64297
| 12> H 	 -83.6175 	 2.84278 	 2.94078
| 13> C 	 -82.2876 	 2.60389 	 5.62515
| 14> H 	 -81.5565 	 1.97258 	 5.08183
| 15> H 	 -82.3387 	 2.34246 	 6.65127
| 16> C 	 -81.6924 	 4.06384 	 5.58507
| 17> H 	 -80.7173 	 4.15288 	 6.06598
| 18> H 	 -81.6276 	 4.30121 	 4.48602
| 19> C 	 -82.6596 	 4.9534 	 6.30697
| 20> H 	 -82.5886 	 4.70281 	 7.47047
| 21> H 	 -82.361 	 5.97738 	 6.13309
| 22> H 	 -83.7264 	 4.97217 	 6.01571
| 23> S 	 -87.9084 	 3.08705 	 2.50645
| 24> C 	 -87.9558 	 3.26832 	 0.783746
| 25> C 	 -87.0173 	 2.5365 	 0.174032
| 26> C 	 -86.053 	 1.94933 	 1.11178
| 27> C 	 -86.3305 	 2.33826 	 2.42806
| 28> H 	 -87.0107 	 2.47908 	 -0.89159
| 29> C 	 -84.7866 	 1.14227 	 0.662724
| 30> H 	 -83.9444 	 1.45506 	 1.17796
| 31> H 	 -84.5865 	 1.32586 	 -0.433286
| 32> C 	 -84.8489 	 -0.33908 	 0.819047
| 33> H 	 -85.7393 	 -0.762862 	 0.412091
| 34> H 	 -84.8861 	 -0.488606 	 1.91315
| 35> C 	 -83.6731 	 -1.16909 	 0.283582
| 36> H 	 -83.619 	 -1.07769 	 -0.819067
| 37> H 	 -83.8626 	 -2.23119 	 0.432936
| 38> H 	 -82.7679 	 -0.92159 	 0.73238
| 39> H 	 -84.5494 	 1.80089 	 7.09049
| 40> H 	 -88.7506 	 3.851 	 0.249268
| 41> *
| 42>
| 43>                          ****END OF INPUT****

CARTESIAN COORDINATES (ANGSTROEM)
---------------------------------
  S    -86.300700    2.071040    5.217810
  C    -84.760300    2.060280    6.042230
  C    -83.722500    2.365700    5.170070
  C    -84.149000    2.569460    3.804760
  C    -85.517500    2.305470    3.642970
  H    -83.617500    2.842780    2.940780
  C    -82.287600    2.603890    5.625150
  H    -81.556500    1.972580    5.081830
  H    -82.338700    2.342460    6.651270
  C    -81.692400    4.063840    5.585070
  H    -80.717300    4.152880    6.065980
  H    -81.627600    4.301210    4.486020
  C    -82.659600    4.953400    6.306970
  H    -82.588600    4.702810    7.470470
  H    -82.361000    5.977380    6.133090
  H    -83.726400    4.972170    6.015710
  S    -87.908400    3.087050    2.506450
  C    -87.955800    3.268320    0.783746
  C    -87.017300    2.536500    0.174032
  C    -86.053000    1.949330    1.111780
  C    -86.330500    2.338260    2.428060
  H    -87.010700    2.479080   -0.891590
  C    -84.786600    1.142270    0.662724
  H    -83.944400    1.455060    1.177960
  H    -84.586500    1.325860   -0.433286
  C    -84.848900   -0.339080    0.819047
  H    -85.739300   -0.762862    0.412091
  H    -84.886100   -0.488606    1.913150
  C    -83.673100   -1.169090    0.283582
  H    -83.619000   -1.077690   -0.819067
  H    -83.862600   -2.231190    0.432936
  H    -82.767900   -0.921590    0.732380
  H    -84.549400    1.800890    7.090490
  H    -88.750600    3.851000    0.249268

 Total Charge           Charge          ....    0
 Multiplicity           Mult            ....    1
 Number of Electrons    NEL             ....  134
 Basis Dimension        Dim             ....  322

ORBITAL ENERGIES
----------------

  NO   OCC          E(Eh)            E(eV)
   0   2.0000     -88.968593     -2420.9585
   1   2.0000     -88.963146     -2420.8103
   2   2.0000     -10.337181      -281.2890
   3   2.0000     -10.331098      -281.1235
   4   2.0000     -10.318514      -280.7810
   5   2.0000     -10.317765      -280.7606
   6   2.0000     -10.314233      -280.6645
   7   2.0000     -10.305993      -280.4403
   8   2.0000     -10.296987      -280.1953
   9   2.0000     -10.294807      -280.1359
  10   2.0000     -10.292285      -280.0673
  11   2.0000     -10.291271      -280.0397
  12   2.0000     -10.290263      -280.0123
  13   2.0000     -10.280407      -279.7441
  14   2.0000     -10.277264      -279.6586
  15   2.0000     -10.274220      -279.5757
  16   2.0000      -8.082982      -219.9491
  17   2.0000      -8.078900      -219.8380
  18   2.0000      -6.041612      -164.4006
  19   2.0000      -6.037606      -164.2916
  20   2.0000      -6.037478      -164.2881
  21   2.0000      -6.033568      -164.1817
  22   2.0000      -6.033486      -164.1795
  23   2.0000      -6.029295      -164.0655
  24   2.0000      -1.007424       -27.4134
  25   2.0000      -0.983901       -26.7733
  26   2.0000      -0.911253       -24.7964
  27   2.0000      -0.909891       -24.7594
  28   2.0000      -0.871559       -23.7163
  29   2.0000      -0.850703       -23.1488
  30   2.0000      -0.842072       -22.9139
  31   2.0000      -0.818625       -22.2759
  32   2.0000      -0.784525       -21.3480
  33   2.0000      -0.769964       -20.9518
  34   2.0000      -0.709201       -19.2983
  35   2.0000      -0.691078       -18.8052
  36   2.0000      -0.687895       -18.7186
  37   2.0000      -0.659742       -17.9525
  38   2.0000      -0.639889       -17.4123
  39   2.0000      -0.620556       -16.8862
  40   2.0000      -0.598769       -16.2933
  41   2.0000      -0.571586       -15.5537
  42   2.0000      -0.559914       -15.2360
  43   2.0000      -0.556458       -15.1420
  44   2.0000      -0.544726       -14.8228
  45   2.0000      -0.523393       -14.2423
  46   2.0000      -0.516325       -14.0499
  47   2.0000      -0.513661       -13.9774
  48   2.0000      -0.504067       -13.7164
  49   2.0000      -0.502543       -13.6749
  50   2.0000      -0.490539       -13.3482
  51   2.0000      -0.483762       -13.1638
  52   2.0000      -0.468200       -12.7404
  53   2.0000      -0.463538       -12.6135
  54   2.0000      -0.456448       -12.4206
  55   2.0000      -0.455252       -12.3880
  56   2.0000      -0.447604       -12.1799
  57   2.0000      -0.433889       -11.8067
  58   2.0000      -0.427668       -11.6374
  59   2.0000      -0.421179       -11.4609
  60   2.0000      -0.420691       -11.4476
  61   2.0000      -0.410458       -11.1691
  62   2.0000      -0.407125       -11.0784
  63   2.0000      -0.358772        -9.7627
  64   2.0000      -0.334496        -9.1021
  65   2.0000      -0.326489        -8.8842
  66   2.0000      -0.286883        -7.8065
  67   0.0000       0.021916         0.5964
  68   0.0000       0.070274         1.9123
  69   0.0000       0.099780         2.7152
  70   0.0000       0.115763         3.1501
  71   0.0000       0.140025         3.8103

MULLIKEN ATOMIC CHARGES
-----------------------
   0 S :    0.101444
   1 C :   -0.109744
   2 C :   -0.116026
   3 C :    0.040281
   4 C :   -0.142235
   5 H :    0.005181
   6 C :    0.081899
   7 H :    0.037559
   8 H :   -0.006731
   9 C :   -0.069831
  10 H :    0.043977
  11 H :    0.036079
  12 C :   -0.095867
  13 H :    0.039132
  14 H :    0.026532
  15 H :    0.058631
  16 S :    0.095579
  17 C :   -0.102116
  18 C :   -0.018390
  19 C :   -0.045753
  20 C :   -0.138843
  21 H :    0.012208
  22 C :    0.104507
  23 H :   -0.008972
  24 H :    0.014985
  25 C :   -0.080042
  26 H :    0.017630
  27 H :    0.030895
  28 C :   -0.026826
  29 H :    0.025930
  30 H :    0.034747
  31 H :    0.020283
  32 H :    0.059253
  33 H :    0.074645
Sum of atomic charges:    0.0000000

LOEWDIN ATOMIC CHARGES
----------------------
   0 S :    0.393694
   1 C :   -0.203420
   2 C :   -0.060736
   3 C :   -0.059655
   4 C :   -0.173184
   5 H :    0.024074
   6 C :   -0.032197
   7 H :    0.030285
   8 H :    0.018348
   9 C :   -0.041497
  10 H :    0.030453
  11 H :    0.025546
  12 C :   -0.078858
  13 H :    0.035416
  14 H :    0.020778
  15 H :    0.031193
  16 S :    0.397640
  17 C :   -0.188109
  18 C :   -0.070800
  19 C :   -0.045828
  20 C :   -0.198563
  21 H :    0.030087
  22 C :   -0.027637
  23 H :    0.015838
  24 H :    0.030674
  25 C :   -0.041880
  26 H :    0.018565
  27 H :    0.027754
  28 C :   -0.057826
  29 H :    0.025730
  30 H :    0.031187
  31 H :    0.013838
  32 H :    0.036966
  33 H :    0.042122

  Mayer bond orders larger than 0.100000
B(  0-S ,  1-C ) :   1.1269 B(  0-S ,  4-C ) :   1.1447 B(  1-C ,  2-C ) :   1.6277
B(  1-C , 32-H ) :   0.9585 B(  2-C ,  3-C ) :   1.2051 B(  2-C ,  6-C ) :   1.0342
B(  3-C ,  4-C ) :   1.5815 B(  3-C ,  5-H ) :   0.9989 B(  4-C , 20-C ) :   1.0567
B(  6-C ,  7-H ) :   0.9413 B(  6-C ,  8-H ) :   0.9353 B(  6-C ,  9-C ) :   1.0609
B(  9-C , 10-H ) :   0.9555 B(  9-C , 11-H ) :   0.9544 B(  9-C , 12-C ) :   1.0772
B( 12-C , 13-H ) :   0.9727 B( 12-C , 14-H ) :   0.9722 B( 12-C , 15-H ) :   0.9716
B( 16-S , 17-C ) :   1.1405 B( 16-S , 20-C ) :   1.1268 B( 17-C , 18-C ) :   1.6489
B( 17-C , 33-H ) :   0.9600 B( 18-C , 19-C ) :   1.2063 B( 18-C , 21-H ) :   0.9983
B( 19-C , 20-C ) :   1.6054 B( 19-C , 22-C ) :   1.0336 B( 22-C , 23-H ) :   0.9328
B( 22-C , 24-H ) :   0.9365 B( 22-C , 25-C ) :   1.0705 B( 25-C , 26-H ) :   0.9544
B( 25-C , 27-H ) :   0.9526 B( 25-C , 28-C ) :   1.0922 B( 28-C , 29-H ) :   0.9726
B( 28-C , 30-H ) :   0.9728 B( 28-C , 31-H ) :   0.9752

Dispersion correction           -0.014211589
FINAL SINGLE POINT ENERGY     -1339.867468951174

DIPOLE MOMENT
-------------
                                X             Y             Z
Electronic contribution:    -23.92704       4.07714       3.14806
Nuclear contribution   :     24.45313      -4.06235      -3.50274
                        -----------------------------------------
Total Dipole Moment    :      0.52609       0.01479      -0.35468
                        -----------------------------------------
Magnitude (a.u.)       :      0.63466
Magnitude (Debye)      :      1.61317

Rotational constants in cm-1:     0.017390     0.008859     0.007041
Rotational constants in MHz :   521.331945   265.592262   211.077331

                             ****ORCA TERMINATED NORMALLY****
TOTAL RUN TIME: 0 days 0 hours 0 minutes 21 seconds 528 msec
