                         Program Version 4.2.1 -  RELEASE  -
|  1> ! wB97X-D3 SP def2-SVP
|  2> %pal
|  3> nprocs 24
|  4> end
|  5>
|  6> * xyz 0 1
|  7> S 	 -85.3204 	 -38.0941 	 -72.7654
|  8> C 	 -84.5257 	 -37.46 	 -74.1481
|  9> C 	 -83.8174 	 -38.4763 	 -74.8246
| 10> C 	 -83.8604 	 -39.7313 	 -74.1005
| 11> C 	 -84.5762 	 -39.687 	 -72.8903
| 12> H 	 -83.4645 	 -40.7191 	 -74.419
| 13> C 	 -83.115 	 -38.2084 	 -76.1081
| 14> H 	 -83.6145 	 -37.6021 	 -76.8843
| 15> H 	 -83.0149 	 -39.1983 	 -76.5449
| 16> C 	 -81.7509 	 -37.6252 	 -76.0088
| 17> H 	 -81.3504 	 -37.28 	 -76.9045
| 18> H 	 -81.7307 	 -36.724 	 -75.3788
| 19> C 	 -80.6863 	 -38.5631 	 -75.3652
| 20> H 	 -79.7112 	 -38.0268 	 -75.4414
| 21> H 	 -80.8376 	 -38.8024 	 -74.2972
| 22> H 	 -80.5758 	 -39.4863 	 -75.9184
| 23> S 	 -83.809 	 -40.2431 	 -70.3653
| 24> C 	 -83.7031 	 -41.8424 	 -69.7707
| 25> C 	 -84.3227 	 -42.6917 	 -70.6885
| 26> C 	 -84.6614 	 -42.1059 	 -71.9489
| 27> C 	 -84.5431 	 -40.7063 	 -71.8594
| 28> H 	 -84.4345 	 -43.7047 	 -70.3641
| 29> C 	 -85.362 	 -42.9505 	 -72.9687
| 30> H 	 -85.5975 	 -42.3301 	 -73.8705
| 31> H 	 -86.2333 	 -43.2423 	 -72.4447
| 32> C 	 -84.7583 	 -44.2316 	 -73.5658
| 33> H 	 -85.2988 	 -44.6538 	 -74.4006
| 34> H 	 -84.574 	 -45.0777 	 -72.8935
| 35> C 	 -83.2841 	 -43.9615 	 -73.971
| 36> H 	 -83.226 	 -42.9432 	 -74.4579
| 37> H 	 -82.7866 	 -44.7121 	 -74.5241
| 38> H 	 -82.6186 	 -43.8513 	 -73.1292
| 39> H 	 -84.7098 	 -36.5383 	 -74.6044
| 40> H 	 -83.4318 	 -42.1681 	 -68.7278
| 41> *
| 42>
| 43>                          ****END OF INPUT****

CARTESIAN COORDINATES (ANGSTROEM)
---------------------------------
  S    -85.320400  -38.094100  -72.765400
  C    -84.525700  -37.460000  -74.148100
  C    -83.817400  -38.476300  -74.824600
  C    -83.860400  -39.731300  -74.100500
  C    -84.576200  -39.687000  -72.890300
  H    -83.464500  -40.719100  -74.419000
  C    -83.115000  -38.208400  -76.108100
  H    -83.614500  -37.602100  -76.884300
  H    -83.014900  -39.198300  -76.544900
  C    -81.750900  -37.625200  -76.008800
  H    -81.350400  -37.280000  -76.904500
  H    -81.730700  -36.724000  -75.378800
  C    -80.686300  -38.563100  -75.365200
  H    -79.711200  -38.026800  -75.441400
  H    -80.837600  -38.802400  -74.297200
  H    -80.575800  -39.486300  -75.918400
  S    -83.809000  -40.243100  -70.365300
  C    -83.703100  -41.842400  -69.770700
  C    -84.322700  -42.691700  -70.688500
  C    -84.661400  -42.105900  -71.948900
  C    -84.543100  -40.706300  -71.859400
  H    -84.434500  -43.704700  -70.364100
  C    -85.362000  -42.950500  -72.968700
  H    -85.597500  -42.330100  -73.870500
  H    -86.233300  -43.242300  -72.444700
  C    -84.758300  -44.231600  -73.565800
  H    -85.298800  -44.653800  -74.400600
  H    -84.574000  -45.077700  -72.893500
  C    -83.284100  -43.961500  -73.971000
  H    -83.226000  -42.943200  -74.457900
  H    -82.786600  -44.712100  -74.524100
  H    -82.618600  -43.851300  -73.129200
  H    -84.709800  -36.538300  -74.604400
  H    -83.431800  -42.168100  -68.727800

 Total Charge           Charge          ....    0
 Multiplicity           Mult            ....    1
 Number of Electrons    NEL             ....  134
 Basis Dimension        Dim             ....  322

ORBITAL ENERGIES
----------------

  NO   OCC          E(Eh)            E(eV)
   0   2.0000     -88.968126     -2420.9458
   1   2.0000     -88.965653     -2420.8785
   2   2.0000     -10.332043      -281.1492
   3   2.0000     -10.329428      -281.0780
   4   2.0000     -10.319486      -280.8075
   5   2.0000     -10.311126      -280.5800
   6   2.0000     -10.309417      -280.5335
   7   2.0000     -10.304907      -280.4108
   8   2.0000     -10.302449      -280.3439
   9   2.0000     -10.294899      -280.1384
  10   2.0000     -10.292303      -280.0678
  11   2.0000     -10.290462      -280.0177
  12   2.0000     -10.287520      -279.9376
  13   2.0000     -10.277617      -279.6682
  14   2.0000     -10.274508      -279.5836
  15   2.0000     -10.274328      -279.5787
  16   2.0000      -8.082808      -219.9444
  17   2.0000      -8.081392      -219.9059
  18   2.0000      -6.041252      -164.3908
  19   2.0000      -6.039858      -164.3529
  20   2.0000      -6.037130      -164.2787
  21   2.0000      -6.035537      -164.2353
  22   2.0000      -6.033826      -164.1888
  23   2.0000      -6.032326      -164.1479
  24   2.0000      -1.010044       -27.4847
  25   2.0000      -0.986140       -26.8342
  26   2.0000      -0.916541       -24.9404
  27   2.0000      -0.913518       -24.8581
  28   2.0000      -0.871273       -23.7086
  29   2.0000      -0.851655       -23.1747
  30   2.0000      -0.842258       -22.9190
  31   2.0000      -0.813308       -22.1312
  32   2.0000      -0.783812       -21.3286
  33   2.0000      -0.773385       -21.0449
  34   2.0000      -0.711790       -19.3688
  35   2.0000      -0.703055       -19.1311
  36   2.0000      -0.693811       -18.8796
  37   2.0000      -0.660319       -17.9682
  38   2.0000      -0.640839       -17.4381
  39   2.0000      -0.614150       -16.7119
  40   2.0000      -0.593328       -16.1453
  41   2.0000      -0.575572       -15.6621
  42   2.0000      -0.564174       -15.3520
  43   2.0000      -0.549822       -14.9614
  44   2.0000      -0.545774       -14.8513
  45   2.0000      -0.539318       -14.6756
  46   2.0000      -0.517272       -14.0757
  47   2.0000      -0.511393       -13.9157
  48   2.0000      -0.508819       -13.8457
  49   2.0000      -0.497467       -13.5368
  50   2.0000      -0.494142       -13.4463
  51   2.0000      -0.478843       -13.0300
  52   2.0000      -0.470163       -12.7938
  53   2.0000      -0.461936       -12.5699
  54   2.0000      -0.460120       -12.5205
  55   2.0000      -0.447070       -12.1654
  56   2.0000      -0.440992       -12.0000
  57   2.0000      -0.434480       -11.8228
  58   2.0000      -0.431681       -11.7466
  59   2.0000      -0.425595       -11.5810
  60   2.0000      -0.424097       -11.5403
  61   2.0000      -0.408327       -11.1111
  62   2.0000      -0.405233       -11.0269
  63   2.0000      -0.348466        -9.4822
  64   2.0000      -0.327611        -8.9148
  65   2.0000      -0.327036        -8.8991
  66   2.0000      -0.292512        -7.9596
  67   0.0000       0.029390         0.7997
  68   0.0000       0.066374         1.8061
  69   0.0000       0.110915         3.0182
  70   0.0000       0.113752         3.0954
  71   0.0000       0.135165         3.6780

MULLIKEN ATOMIC CHARGES
-----------------------
   0 S :    0.121596
   1 C :   -0.083390
   2 C :   -0.107026
   3 C :    0.044523
   4 C :   -0.175348
   5 H :    0.009709
   6 C :    0.075009
   7 H :    0.033360
   8 H :    0.011964
   9 C :   -0.037507
  10 H :    0.009382
  11 H :    0.020106
  12 C :   -0.090969
  13 H :    0.032175
  14 H :    0.053046
  15 H :    0.023627
  16 S :    0.122571
  17 C :   -0.117653
  18 C :   -0.043005
  19 C :   -0.035228
  20 C :   -0.138462
  21 H :    0.011677
  22 C :    0.054134
  23 H :    0.041329
  24 H :    0.039459
  25 C :   -0.056258
  26 H :    0.038605
  27 H :    0.025582
  28 C :   -0.071354
  29 H :    0.021850
  30 H :    0.025339
  31 H :    0.028662
  32 H :    0.032892
  33 H :    0.079601
Sum of atomic charges:   -0.0000000

LOEWDIN ATOMIC CHARGES
----------------------
   0 S :    0.422064
   1 C :   -0.197294
   2 C :   -0.060189
   3 C :   -0.060695
   4 C :   -0.205406
   5 H :    0.031896
   6 C :   -0.041092
   7 H :    0.036467
   8 H :    0.030266
   9 C :   -0.037846
  10 H :    0.015000
  11 H :    0.025517
  12 C :   -0.069875
  13 H :    0.029484
  14 H :    0.029124
  15 H :    0.017504
  16 S :    0.443580
  17 C :   -0.213141
  18 C :   -0.071633
  19 C :   -0.055244
  20 C :   -0.209485
  21 H :    0.025817
  22 C :   -0.031799
  23 H :    0.039853
  24 H :    0.036089
  25 C :   -0.039987
  26 H :    0.027460
  27 H :    0.023642
  28 C :   -0.069714
  29 H :    0.022339
  30 H :    0.018194
  31 H :    0.024557
  32 H :    0.019775
  33 H :    0.044773

  Mayer bond orders larger than 0.100000
B(  0-S ,  1-C ) :   1.1622 B(  0-S ,  4-C ) :   1.1603 B(  1-C ,  2-C ) :   1.5627
B(  1-C , 32-H ) :   0.9736 B(  2-C ,  3-C ) :   1.2742 B(  2-C ,  6-C ) :   1.0296
B(  3-C ,  4-C ) :   1.5404 B(  3-C ,  5-H ) :   0.9831 B(  4-C , 20-C ) :   1.0310
B(  6-C ,  7-H ) :   0.9403 B(  6-C ,  8-H ) :   0.9345 B(  6-C ,  9-C ) :   1.0834
B(  9-C , 10-H ) :   0.9532 B(  9-C , 11-H ) :   0.9506 B(  9-C , 12-C ) :   1.0786
B( 12-C , 13-H ) :   0.9746 B( 12-C , 14-H ) :   0.9760 B( 12-C , 15-H ) :   0.9764
B( 16-S , 17-C ) :   1.1749 B( 16-S , 20-C ) :   1.1674 B( 17-C , 18-C ) :   1.5859
B( 17-C , 20-C ) :   0.1008 B( 17-C , 33-H ) :   0.9601 B( 18-C , 19-C ) :   1.2450
B( 18-C , 21-H ) :   0.9941 B( 19-C , 20-C ) :   1.5497 B( 19-C , 22-C ) :   1.0451
B( 22-C , 23-H ) :   0.9379 B( 22-C , 24-H ) :   0.9361 B( 22-C , 25-C ) :   1.0691
B( 25-C , 26-H ) :   0.9608 B( 25-C , 27-H ) :   0.9533 B( 25-C , 28-C ) :   1.0686
B( 28-C , 29-H ) :   0.9753 B( 28-C , 30-H ) :   0.9722 B( 28-C , 31-H ) :   0.9682

Dispersion correction           -0.014990654
FINAL SINGLE POINT ENERGY     -1339.864770314440

DIPOLE MOMENT
-------------
                                X             Y             Z
Electronic contribution:    -12.76152      11.39167      19.34199
Nuclear contribution   :     12.89082     -11.82864     -19.70340
                        -----------------------------------------
Total Dipole Moment    :      0.12929      -0.43697      -0.36140
                        -----------------------------------------
Magnitude (a.u.)       :      0.58161
Magnitude (Debye)      :      1.47833

Rotational constants in cm-1:     0.018119     0.009083     0.007532
Rotational constants in MHz :   543.179627   272.312166   225.812095

                             ****ORCA TERMINATED NORMALLY****
TOTAL RUN TIME: 0 days 0 hours 0 minutes 22 seconds 146 msec
