                         Program Version 4.2.1 -  RELEASE  -
|  1> ! wB97X-D3 SP def2-SVP
|  2> %pal
|  3> nprocs 24
|  4> end
|  5>
|  6> * xyz 0 1
|  7> S 	 -118.271 	 27.8589 	 -18.6521
|  8> C 	 -118.459 	 27.6542 	 -20.3929
|  9> C 	 -118.989 	 28.8169 	 -20.9998
| 10> C 	 -118.882 	 29.8975 	 -20.0582
| 11> C 	 -118.614 	 29.5428 	 -18.7979
| 12> H 	 -119.007 	 30.9625 	 -20.2969
| 13> C 	 -119.342 	 29.083 	 -22.4292
| 14> H 	 -119.256 	 28.2178 	 -23.0719
| 15> H 	 -118.632 	 29.7496 	 -22.8219
| 16> C 	 -120.572 	 30.01 	 -22.5969
| 17> H 	 -120.257 	 31.0114 	 -22.2306
| 18> H 	 -120.818 	 30.1718 	 -23.691
| 19> C 	 -121.77 	 29.4266 	 -21.8865
| 20> H 	 -122.613 	 30.0311 	 -22.092
| 21> H 	 -122.01 	 28.4752 	 -22.3621
| 22> H 	 -121.574 	 29.3743 	 -20.7932
| 23> S 	 -119.093 	 29.9806 	 -16.1748
| 24> C 	 -118.775 	 31.5572 	 -15.3783
| 25> C 	 -118.048 	 32.4048 	 -16.234
| 26> C 	 -117.831 	 31.7891 	 -17.5336
| 27> C 	 -118.429 	 30.4799 	 -17.6477
| 28> H 	 -117.669 	 33.3147 	 -15.8925
| 29> C 	 -116.899 	 32.3928 	 -18.5658
| 30> H 	 -117.014 	 33.4504 	 -18.6169
| 31> H 	 -117.268 	 32.2279 	 -19.5782
| 32> C 	 -115.44 	 31.9056 	 -18.6221
| 33> H 	 -114.88 	 32.4795 	 -19.4005
| 34> H 	 -115.482 	 30.8493 	 -18.9955
| 35> C 	 -114.773 	 31.9332 	 -17.2219
| 36> H 	 -115.171 	 31.2124 	 -16.4997
| 37> H 	 -114.694 	 32.8735 	 -16.7401
| 38> H 	 -113.671 	 31.7999 	 -17.3462
| 39> H 	 -118.352 	 26.643 	 -20.8466
| 40> H 	 -119.117 	 31.749 	 -14.4269
| 41> *
| 42>
| 43>                          ****END OF INPUT****

CARTESIAN COORDINATES (ANGSTROEM)
---------------------------------
  S    -118.271000   27.858900  -18.652100
  C    -118.459000   27.654200  -20.392900
  C    -118.989000   28.816900  -20.999800
  C    -118.882000   29.897500  -20.058200
  C    -118.614000   29.542800  -18.797900
  H    -119.007000   30.962500  -20.296900
  C    -119.342000   29.083000  -22.429200
  H    -119.256000   28.217800  -23.071900
  H    -118.632000   29.749600  -22.821900
  C    -120.572000   30.010000  -22.596900
  H    -120.257000   31.011400  -22.230600
  H    -120.818000   30.171800  -23.691000
  C    -121.770000   29.426600  -21.886500
  H    -122.613000   30.031100  -22.092000
  H    -122.010000   28.475200  -22.362100
  H    -121.574000   29.374300  -20.793200
  S    -119.093000   29.980600  -16.174800
  C    -118.775000   31.557200  -15.378300
  C    -118.048000   32.404800  -16.234000
  C    -117.831000   31.789100  -17.533600
  C    -118.429000   30.479900  -17.647700
  H    -117.669000   33.314700  -15.892500
  C    -116.899000   32.392800  -18.565800
  H    -117.014000   33.450400  -18.616900
  H    -117.268000   32.227900  -19.578200
  C    -115.440000   31.905600  -18.622100
  H    -114.880000   32.479500  -19.400500
  H    -115.482000   30.849300  -18.995500
  C    -114.773000   31.933200  -17.221900
  H    -115.171000   31.212400  -16.499700
  H    -114.694000   32.873500  -16.740100
  H    -113.671000   31.799900  -17.346200
  H    -118.352000   26.643000  -20.846600
  H    -119.117000   31.749000  -14.426900

 Total Charge           Charge          ....    0
 Multiplicity           Mult            ....    1
 Number of Electrons    NEL             ....  134
 Basis Dimension        Dim             ....  322

ORBITAL ENERGIES
----------------

  NO   OCC          E(Eh)            E(eV)
   0   2.0000     -88.966752     -2420.9084
   1   2.0000     -88.966237     -2420.8944
   2   2.0000     -10.332025      -281.1487
   3   2.0000     -10.326580      -281.0005
   4   2.0000     -10.322203      -280.8814
   5   2.0000     -10.318149      -280.7711
   6   2.0000     -10.310451      -280.5616
   7   2.0000     -10.308780      -280.5162
   8   2.0000     -10.299868      -280.2737
   9   2.0000     -10.293777      -280.1079
  10   2.0000     -10.292534      -280.0741
  11   2.0000     -10.290511      -280.0190
  12   2.0000     -10.287138      -279.9273
  13   2.0000     -10.284656      -279.8597
  14   2.0000     -10.271989      -279.5150
  15   2.0000     -10.269709      -279.4530
  16   2.0000      -8.081869      -219.9188
  17   2.0000      -8.081458      -219.9077
  18   2.0000      -6.040257      -164.3637
  19   2.0000      -6.040027      -164.3575
  20   2.0000      -6.036137      -164.2516
  21   2.0000      -6.036030      -164.2487
  22   2.0000      -6.032950      -164.1649
  23   2.0000      -6.031992      -164.1389
  24   2.0000      -1.008538       -27.4437
  25   2.0000      -0.981718       -26.7139
  26   2.0000      -0.918348       -24.9895
  27   2.0000      -0.902336       -24.5538
  28   2.0000      -0.867015       -23.5927
  29   2.0000      -0.847851       -23.0712
  30   2.0000      -0.839873       -22.8541
  31   2.0000      -0.816259       -22.2115
  32   2.0000      -0.786568       -21.4036
  33   2.0000      -0.773725       -21.0541
  34   2.0000      -0.704888       -19.1810
  35   2.0000      -0.694113       -18.8878
  36   2.0000      -0.686976       -18.6936
  37   2.0000      -0.666148       -18.1268
  38   2.0000      -0.640595       -17.4315
  39   2.0000      -0.627376       -17.0718
  40   2.0000      -0.594673       -16.1819
  41   2.0000      -0.567375       -15.4391
  42   2.0000      -0.553229       -15.0541
  43   2.0000      -0.550311       -14.9747
  44   2.0000      -0.545822       -14.8526
  45   2.0000      -0.534787       -14.5523
  46   2.0000      -0.514841       -14.0095
  47   2.0000      -0.512710       -13.9515
  48   2.0000      -0.498399       -13.5621
  49   2.0000      -0.494382       -13.4528
  50   2.0000      -0.488332       -13.2882
  51   2.0000      -0.484363       -13.1802
  52   2.0000      -0.471733       -12.8365
  53   2.0000      -0.464531       -12.6405
  54   2.0000      -0.460656       -12.5351
  55   2.0000      -0.447883       -12.1875
  56   2.0000      -0.441952       -12.0261
  57   2.0000      -0.432082       -11.7576
  58   2.0000      -0.427709       -11.6385
  59   2.0000      -0.422174       -11.4879
  60   2.0000      -0.420974       -11.4553
  61   2.0000      -0.416083       -11.3222
  62   2.0000      -0.405955       -11.0466
  63   2.0000      -0.351673        -9.5695
  64   2.0000      -0.332825        -9.0566
  65   2.0000      -0.324062        -8.8182
  66   2.0000      -0.287033        -7.8106
  67   0.0000       0.029901         0.8137
  68   0.0000       0.067932         1.8485
  69   0.0000       0.104611         2.8466
  70   0.0000       0.109728         2.9859
  71   0.0000       0.128899         3.5075

MULLIKEN ATOMIC CHARGES
-----------------------
   0 S :    0.105960
   1 C :   -0.152070
   2 C :   -0.079573
   3 C :   -0.040135
   4 C :   -0.084413
   5 H :    0.025075
   6 C :    0.122844
   7 H :    0.018436
   8 H :    0.018590
   9 C :   -0.150587
  10 H :    0.031465
  11 H :    0.038811
  12 C :   -0.014891
  13 H :    0.018992
  14 H :    0.026893
  15 H :    0.061636
  16 S :    0.097248
  17 C :   -0.080869
  18 C :    0.010053
  19 C :   -0.066447
  20 C :   -0.142969
  21 H :    0.003269
  22 C :    0.074855
  23 H :    0.007060
  24 H :   -0.004039
  25 C :   -0.061330
  26 H :    0.035211
  27 H :    0.044961
  28 C :   -0.058445
  29 H :    0.058776
  30 H :    0.011271
  31 H :    0.023932
  32 H :    0.067493
  33 H :    0.032936
Sum of atomic charges:    0.0000000

LOEWDIN ATOMIC CHARGES
----------------------
   0 S :    0.402325
   1 C :   -0.198225
   2 C :   -0.053793
   3 C :   -0.068685
   4 C :   -0.201617
   5 H :    0.033652
   6 C :   -0.035507
   7 H :    0.028136
   8 H :    0.032707
   9 C :   -0.042201
  10 H :    0.021325
  11 H :    0.031074
  12 C :   -0.065675
  13 H :    0.018362
  14 H :    0.027847
  15 H :    0.035333
  16 S :    0.419889
  17 C :   -0.165498
  18 C :   -0.049026
  19 C :   -0.061754
  20 C :   -0.209254
  21 H :    0.024172
  22 C :   -0.047168
  23 H :    0.023942
  24 H :    0.027868
  25 C :   -0.035997
  26 H :    0.029623
  27 H :    0.032933
  28 C :   -0.078051
  29 H :    0.032634
  30 H :    0.016734
  31 H :    0.030868
  32 H :    0.033185
  33 H :    0.009844

  Mayer bond orders larger than 0.100000
B(  0-S ,  1-C ) :   1.1381 B(  0-S ,  4-C ) :   1.1381 B(  1-C ,  2-C ) :   1.6063
B(  1-C , 32-H ) :   0.9633 B(  2-C ,  3-C ) :   1.1913 B(  2-C ,  6-C ) :   1.0387
B(  3-C ,  4-C ) :   1.6419 B(  3-C ,  5-H ) :   0.9856 B(  4-C , 20-C ) :   0.9991
B(  6-C ,  7-H ) :   0.9442 B(  6-C ,  8-H ) :   0.9316 B(  6-C ,  9-C ) :   1.0546
B(  9-C , 10-H ) :   0.9513 B(  9-C , 11-H ) :   0.9546 B(  9-C , 12-C ) :   1.0873
B( 12-C , 13-H ) :   0.9722 B( 12-C , 14-H ) :   0.9719 B( 12-C , 15-H ) :   0.9662
B( 16-S , 17-C ) :   1.1572 B( 16-S , 20-C ) :   1.1804 B( 17-C , 18-C ) :   1.5649
B( 17-C , 20-C ) :   0.1083 B( 17-C , 33-H ) :   0.9841 B( 18-C , 19-C ) :   1.2618
B( 18-C , 21-H ) :   1.0025 B( 19-C , 20-C ) :   1.5343 B( 19-C , 22-C ) :   1.0549
B( 22-C , 23-H ) :   0.9276 B( 22-C , 24-H ) :   0.9265 B( 22-C , 25-C ) :   1.0679
B( 25-C , 26-H ) :   0.9540 B( 25-C , 27-H ) :   0.9554 B( 25-C , 28-C ) :   1.0776
B( 28-C , 29-H ) :   0.9721 B( 28-C , 30-H ) :   0.9738 B( 28-C , 31-H ) :   0.9711

Dispersion correction           -0.015282160
FINAL SINGLE POINT ENERGY     -1339.862489191599

DIPOLE MOMENT
-------------
                                X             Y             Z
Electronic contribution:     -3.72987     -11.40899      16.42665
Nuclear contribution   :      3.83798      11.85554     -16.94701
                        -----------------------------------------
Total Dipole Moment    :      0.10811       0.44655      -0.52036
                        -----------------------------------------
Magnitude (a.u.)       :      0.69417
Magnitude (Debye)      :      1.76443

Rotational constants in cm-1:     0.020254     0.008579     0.007901
Rotational constants in MHz :   607.204472   257.198014   236.860463

                             ****ORCA TERMINATED NORMALLY****
TOTAL RUN TIME: 0 days 0 hours 0 minutes 22 seconds 361 msec
