                         Program Version 4.2.1 -  RELEASE  -
|  1> ! wB97X-D3 SP def2-SVP
|  2> %pal
|  3> nprocs 24
|  4> end
|  5>
|  6> * xyz 0 1
|  7> S 	 -105.937 	 18.8691 	 -121.371
|  8> C 	 -105.573 	 20.2194 	 -120.313
|  9> C 	 -104.722 	 19.7774 	 -119.317
| 10> C 	 -104.384 	 18.4127 	 -119.443
| 11> C 	 -105.068 	 17.7209 	 -120.391
| 12> H 	 -103.611 	 17.9533 	 -118.886
| 13> C 	 -103.984 	 20.7297 	 -118.444
| 14> H 	 -104.192 	 21.7639 	 -118.688
| 15> H 	 -102.915 	 20.5575 	 -118.645
| 16> C 	 -104.212 	 20.3406 	 -116.954
| 17> H 	 -104.105 	 19.2428 	 -116.867
| 18> H 	 -103.41 	 20.7971 	 -116.316
| 19> C 	 -105.669 	 20.502 	 -116.523
| 20> H 	 -106.366 	 19.8427 	 -117.083
| 21> H 	 -105.711 	 20.2875 	 -115.454
| 22> H 	 -105.948 	 21.5532 	 -116.597
| 23> S 	 -104.403 	 15.9592 	 -122.366
| 24> C 	 -104.398 	 14.2796 	 -122.02
| 25> C 	 -104.913 	 14.0592 	 -120.788
| 26> C 	 -105.164 	 15.1907 	 -120.003
| 27> C 	 -104.91 	 16.3359 	 -120.746
| 28> H 	 -104.982 	 13.0361 	 -120.443
| 29> C 	 -105.566 	 15.0574 	 -118.509
| 30> H 	 -106.253 	 14.2193 	 -118.359
| 31> H 	 -106.204 	 15.9209 	 -118.341
| 32> C 	 -104.456 	 15.1216 	 -117.527
| 33> H 	 -103.883 	 16.0181 	 -117.784
| 34> H 	 -103.856 	 14.2526 	 -117.686
| 35> C 	 -105.017 	 15.3266 	 -116.093
| 36> H 	 -105.709 	 16.1459 	 -116.099
| 37> H 	 -104.229 	 15.5738 	 -115.413
| 38> H 	 -105.499 	 14.5178 	 -115.63
| 39> H 	 -105.94 	 21.2551 	 -120.489
| 40> H 	 -104.155 	 13.5406 	 -122.693
| 41> *
| 42>
| 43>                          ****END OF INPUT****

CARTESIAN COORDINATES (ANGSTROEM)
---------------------------------
  S    -105.937000   18.869100  -121.371000
  C    -105.573000   20.219400  -120.313000
  C    -104.722000   19.777400  -119.317000
  C    -104.384000   18.412700  -119.443000
  C    -105.068000   17.720900  -120.391000
  H    -103.611000   17.953300  -118.886000
  C    -103.984000   20.729700  -118.444000
  H    -104.192000   21.763900  -118.688000
  H    -102.915000   20.557500  -118.645000
  C    -104.212000   20.340600  -116.954000
  H    -104.105000   19.242800  -116.867000
  H    -103.410000   20.797100  -116.316000
  C    -105.669000   20.502000  -116.523000
  H    -106.366000   19.842700  -117.083000
  H    -105.711000   20.287500  -115.454000
  H    -105.948000   21.553200  -116.597000
  S    -104.403000   15.959200  -122.366000
  C    -104.398000   14.279600  -122.020000
  C    -104.913000   14.059200  -120.788000
  C    -105.164000   15.190700  -120.003000
  C    -104.910000   16.335900  -120.746000
  H    -104.982000   13.036100  -120.443000
  C    -105.566000   15.057400  -118.509000
  H    -106.253000   14.219300  -118.359000
  H    -106.204000   15.920900  -118.341000
  C    -104.456000   15.121600  -117.527000
  H    -103.883000   16.018100  -117.784000
  H    -103.856000   14.252600  -117.686000
  C    -105.017000   15.326600  -116.093000
  H    -105.709000   16.145900  -116.099000
  H    -104.229000   15.573800  -115.413000
  H    -105.499000   14.517800  -115.630000
  H    -105.940000   21.255100  -120.489000
  H    -104.155000   13.540600  -122.693000

 Total Charge           Charge          ....    0
 Multiplicity           Mult            ....    1
 Number of Electrons    NEL             ....  134
 Basis Dimension        Dim             ....  322

ORBITAL ENERGIES
----------------

  NO   OCC          E(Eh)            E(eV)
   0   2.0000     -88.965435     -2420.8726
   1   2.0000     -88.961796     -2420.7735
   2   2.0000     -10.325146      -280.9615
   3   2.0000     -10.324391      -280.9410
   4   2.0000     -10.316099      -280.7153
   5   2.0000     -10.305606      -280.4298
   6   2.0000     -10.301665      -280.3226
   7   2.0000     -10.295801      -280.1630
   8   2.0000     -10.289944      -280.0036
   9   2.0000     -10.289818      -280.0002
  10   2.0000     -10.288574      -279.9663
  11   2.0000     -10.287157      -279.9278
  12   2.0000     -10.284835      -279.8646
  13   2.0000     -10.284135      -279.8455
  14   2.0000     -10.276529      -279.6386
  15   2.0000     -10.272317      -279.5239
  16   2.0000      -8.081100      -219.8979
  17   2.0000      -8.076853      -219.7824
  18   2.0000      -6.039433      -164.3413
  19   2.0000      -6.035467      -164.2334
  20   2.0000      -6.035447      -164.2329
  21   2.0000      -6.031997      -164.1390
  22   2.0000      -6.031217      -164.1178
  23   2.0000      -6.027595      -164.0192
  24   2.0000      -1.015284       -27.6273
  25   2.0000      -0.992484       -27.0069
  26   2.0000      -0.916119       -24.9289
  27   2.0000      -0.914428       -24.8829
  28   2.0000      -0.872583       -23.7442
  29   2.0000      -0.853704       -23.2305
  30   2.0000      -0.843715       -22.9586
  31   2.0000      -0.818457       -22.2714
  32   2.0000      -0.786829       -21.4107
  33   2.0000      -0.773841       -21.0573
  34   2.0000      -0.712997       -19.4016
  35   2.0000      -0.702343       -19.1117
  36   2.0000      -0.688160       -18.7258
  37   2.0000      -0.661348       -17.9962
  38   2.0000      -0.643549       -17.5119
  39   2.0000      -0.628103       -17.0915
  40   2.0000      -0.603054       -16.4099
  41   2.0000      -0.572757       -15.5855
  42   2.0000      -0.570404       -15.5215
  43   2.0000      -0.545992       -14.8572
  44   2.0000      -0.537275       -14.6200
  45   2.0000      -0.524911       -14.2836
  46   2.0000      -0.523012       -14.2319
  47   2.0000      -0.515726       -14.0336
  48   2.0000      -0.511809       -13.9270
  49   2.0000      -0.504376       -13.7248
  50   2.0000      -0.492551       -13.4030
  51   2.0000      -0.480147       -13.0655
  52   2.0000      -0.473961       -12.8971
  53   2.0000      -0.467816       -12.7299
  54   2.0000      -0.463079       -12.6010
  55   2.0000      -0.449416       -12.2292
  56   2.0000      -0.443314       -12.0632
  57   2.0000      -0.441161       -12.0046
  58   2.0000      -0.429457       -11.6861
  59   2.0000      -0.422587       -11.4992
  60   2.0000      -0.421265       -11.4632
  61   2.0000      -0.416556       -11.3351
  62   2.0000      -0.411388       -11.1944
  63   2.0000      -0.347452        -9.4547
  64   2.0000      -0.334633        -9.1058
  65   2.0000      -0.325893        -8.8680
  66   2.0000      -0.295859        -8.0507
  67   0.0000       0.033777         0.9191
  68   0.0000       0.069350         1.8871
  69   0.0000       0.114178         3.1070
  70   0.0000       0.122580         3.3356
  71   0.0000       0.129909         3.5350

MULLIKEN ATOMIC CHARGES
-----------------------
   0 S :    0.097258
   1 C :   -0.152100
   2 C :   -0.081272
   3 C :    0.019760
   4 C :   -0.135000
   5 H :    0.008625
   6 C :    0.084343
   7 H :    0.020179
   8 H :    0.035600
   9 C :   -0.113887
  10 H :    0.025112
  11 H :    0.039247
  12 C :   -0.052076
  13 H :    0.058493
  14 H :    0.032026
  15 H :    0.024224
  16 S :    0.120025
  17 C :   -0.058370
  18 C :   -0.035902
  19 C :   -0.014839
  20 C :   -0.189599
  21 H :    0.009501
  22 C :    0.063411
  23 H :    0.023534
  24 H :    0.013055
  25 C :   -0.028858
  26 H :    0.015366
  27 H :    0.022298
  28 C :   -0.008877
  29 H :    0.019900
  30 H :    0.024526
  31 H :    0.021018
  32 H :    0.068365
  33 H :    0.024913
Sum of atomic charges:    0.0000000

LOEWDIN ATOMIC CHARGES
----------------------
   0 S :    0.401401
   1 C :   -0.200381
   2 C :   -0.069714
   3 C :   -0.062748
   4 C :   -0.194068
   5 H :    0.023201
   6 C :   -0.028931
   7 H :    0.025545
   8 H :    0.036778
   9 C :   -0.048904
  10 H :    0.024435
  11 H :    0.026445
  12 C :   -0.068032
  13 H :    0.033654
  14 H :    0.026990
  15 H :    0.020162
  16 S :    0.428554
  17 C :   -0.183438
  18 C :   -0.072959
  19 C :   -0.050646
  20 C :   -0.203604
  21 H :    0.029369
  22 C :   -0.030143
  23 H :    0.029717
  24 H :    0.027900
  25 C :   -0.033079
  26 H :    0.025218
  27 H :    0.020680
  28 C :   -0.055239
  29 H :    0.024174
  30 H :    0.025084
  31 H :    0.018948
  32 H :    0.038678
  33 H :    0.014954

  Mayer bond orders larger than 0.100000
B(  0-S ,  1-C ) :   1.1400 B(  0-S ,  4-C ) :   1.1504 B(  1-C ,  2-C ) :   1.5770
B(  1-C , 32-H ) :   0.9689 B(  2-C ,  3-C ) :   1.2488 B(  2-C ,  6-C ) :   1.0301
B(  3-C ,  4-C ) :   1.5719 B(  3-C ,  5-H ) :   0.9919 B(  4-C , 20-C ) :   1.0408
B(  6-C ,  7-H ) :   0.9515 B(  6-C ,  8-H ) :   0.9385 B(  6-C ,  9-C ) :   1.0563
B(  9-C , 10-H ) :   0.9582 B(  9-C , 11-H ) :   0.9585 B(  9-C , 12-C ) :   1.0661
B( 12-C , 13-H ) :   0.9706 B( 12-C , 14-H ) :   0.9724 B( 12-C , 15-H ) :   0.9774
B( 16-S , 17-C ) :   1.1583 B( 16-S , 20-C ) :   1.1635 B( 17-C , 18-C ) :   1.5984
B( 17-C , 20-C ) :   0.1027 B( 17-C , 33-H ) :   0.9785 B( 18-C , 19-C ) :   1.2648
B( 18-C , 21-H ) :   0.9903 B( 19-C , 20-C ) :   1.5766 B( 19-C , 22-C ) :   1.0329
B( 22-C , 23-H ) :   0.9386 B( 22-C , 24-H ) :   0.9213 B( 22-C , 25-C ) :   1.0781
B( 25-C , 26-H ) :   0.9468 B( 25-C , 27-H ) :   0.9526 B( 25-C , 28-C ) :   1.0785
B( 28-C , 29-H ) :   0.9726 B( 28-C , 30-H ) :   0.9734 B( 28-C , 31-H ) :   0.9759

Dispersion correction           -0.015103325
FINAL SINGLE POINT ENERGY     -1339.884715704271

DIPOLE MOMENT
-------------
                                X             Y             Z
Electronic contribution:     -1.54710      -3.30400     -30.68683
Nuclear contribution   :      1.79622       3.21649      31.25884
                        -----------------------------------------
Total Dipole Moment    :      0.24913      -0.08751       0.57200
                        -----------------------------------------
Magnitude (a.u.)       :      0.63001
Magnitude (Debye)      :      1.60135

Rotational constants in cm-1:     0.017952     0.010427     0.007187
Rotational constants in MHz :   538.189581   312.589730   215.459458

                             ****ORCA TERMINATED NORMALLY****
TOTAL RUN TIME: 0 days 0 hours 0 minutes 21 seconds 747 msec
