                         Program Version 4.2.1 -  RELEASE  -
|  1> ! wB97X-D3 SP def2-SVP
|  2> %pal
|  3> nprocs 24
|  4> end
|  5>
|  6> * xyz 0 1
|  7> S 	 -103.402 	 23.1398 	 -108.985
|  8> C 	 -104.052 	 21.8792 	 -110.077
|  9> C 	 -104.565 	 22.4438 	 -111.225
| 10> C 	 -104.475 	 23.9036 	 -111.189
| 11> C 	 -103.825 	 24.4403 	 -110.108
| 12> H 	 -104.877 	 24.6031 	 -111.914
| 13> C 	 -105.097 	 21.688 	 -112.432
| 14> H 	 -106.03 	 22.2081 	 -112.568
| 15> H 	 -105.362 	 20.7062 	 -112.128
| 16> C 	 -104.221 	 21.8213 	 -113.695
| 17> H 	 -104.789 	 21.1548 	 -114.329
| 18> H 	 -104.286 	 22.9169 	 -113.935
| 19> C 	 -102.783 	 21.2051 	 -113.562
| 20> H 	 -102.182 	 21.364 	 -112.712
| 21> H 	 -102.903 	 20.1004 	 -113.648
| 22> H 	 -102.148 	 21.4499 	 -114.448
| 23> S 	 -104.314 	 26.2955 	 -108.128
| 24> C 	 -104.048 	 27.9648 	 -108.434
| 25> C 	 -103.651 	 28.2049 	 -109.73
| 26> C 	 -103.598 	 27.0349 	 -110.522
| 27> C 	 -103.8 	 25.8581 	 -109.782
| 28> H 	 -103.408 	 29.1371 	 -110.088
| 29> C 	 -103.307 	 27.2318 	 -112.016
| 30> H 	 -103.013 	 26.3239 	 -112.447
| 31> H 	 -102.479 	 27.9 	 -112.126
| 32> C 	 -104.565 	 27.7673 	 -112.97
| 33> H 	 -105.196 	 28.556 	 -112.502
| 34> H 	 -105.407 	 27.0148 	 -112.97
| 35> C 	 -104.238 	 27.9397 	 -114.426
| 36> H 	 -105.063 	 28.4234 	 -114.998
| 37> H 	 -103.949 	 26.949 	 -114.875
| 38> H 	 -103.332 	 28.5622 	 -114.485
| 39> H 	 -103.772 	 20.8315 	 -110.014
| 40> H 	 -103.937 	 28.7147 	 -107.721
| 41> *
| 42>
| 43>                          ****END OF INPUT****

CARTESIAN COORDINATES (ANGSTROEM)
---------------------------------
  S    -103.402000   23.139800  -108.985000
  C    -104.052000   21.879200  -110.077000
  C    -104.565000   22.443800  -111.225000
  C    -104.475000   23.903600  -111.189000
  C    -103.825000   24.440300  -110.108000
  H    -104.877000   24.603100  -111.914000
  C    -105.097000   21.688000  -112.432000
  H    -106.030000   22.208100  -112.568000
  H    -105.362000   20.706200  -112.128000
  C    -104.221000   21.821300  -113.695000
  H    -104.789000   21.154800  -114.329000
  H    -104.286000   22.916900  -113.935000
  C    -102.783000   21.205100  -113.562000
  H    -102.182000   21.364000  -112.712000
  H    -102.903000   20.100400  -113.648000
  H    -102.148000   21.449900  -114.448000
  S    -104.314000   26.295500  -108.128000
  C    -104.048000   27.964800  -108.434000
  C    -103.651000   28.204900  -109.730000
  C    -103.598000   27.034900  -110.522000
  C    -103.800000   25.858100  -109.782000
  H    -103.408000   29.137100  -110.088000
  C    -103.307000   27.231800  -112.016000
  H    -103.013000   26.323900  -112.447000
  H    -102.479000   27.900000  -112.126000
  C    -104.565000   27.767300  -112.970000
  H    -105.196000   28.556000  -112.502000
  H    -105.407000   27.014800  -112.970000
  C    -104.238000   27.939700  -114.426000
  H    -105.063000   28.423400  -114.998000
  H    -103.949000   26.949000  -114.875000
  H    -103.332000   28.562200  -114.485000
  H    -103.772000   20.831500  -110.014000
  H    -103.937000   28.714700  -107.721000

 Total Charge           Charge          ....    0
 Multiplicity           Mult            ....    1
 Number of Electrons    NEL             ....  134
 Basis Dimension        Dim             ....  322

ORBITAL ENERGIES
----------------

  NO   OCC          E(Eh)            E(eV)
   0   2.0000     -88.965752     -2420.8812
   1   2.0000     -88.964017     -2420.8340
   2   2.0000     -10.333223      -281.1813
   3   2.0000     -10.331665      -281.1389
   4   2.0000     -10.316433      -280.7244
   5   2.0000     -10.309039      -280.5232
   6   2.0000     -10.306359      -280.4503
   7   2.0000     -10.304650      -280.4038
   8   2.0000     -10.300107      -280.2802
   9   2.0000     -10.299347      -280.2595
  10   2.0000     -10.298835      -280.2456
  11   2.0000     -10.295321      -280.1499
  12   2.0000     -10.290055      -280.0066
  13   2.0000     -10.288678      -279.9692
  14   2.0000     -10.284358      -279.8516
  15   2.0000     -10.283355      -279.8243
  16   2.0000      -8.080480      -219.8810
  17   2.0000      -8.077876      -219.8102
  18   2.0000      -6.039027      -164.3303
  19   2.0000      -6.036725      -164.2676
  20   2.0000      -6.034946      -164.2192
  21   2.0000      -6.032479      -164.1521
  22   2.0000      -6.031230      -164.1181
  23   2.0000      -6.028339      -164.0394
  24   2.0000      -1.003507       -27.3068
  25   2.0000      -0.980567       -26.6826
  26   2.0000      -0.912502       -24.8304
  27   2.0000      -0.898623       -24.4528
  28   2.0000      -0.869312       -23.6552
  29   2.0000      -0.856514       -23.3069
  30   2.0000      -0.838918       -22.8281
  31   2.0000      -0.814597       -22.1663
  32   2.0000      -0.785870       -21.3846
  33   2.0000      -0.775116       -21.0920
  34   2.0000      -0.709497       -19.3064
  35   2.0000      -0.700156       -19.0522
  36   2.0000      -0.696958       -18.9652
  37   2.0000      -0.666591       -18.1389
  38   2.0000      -0.639473       -17.4009
  39   2.0000      -0.619761       -16.8646
  40   2.0000      -0.597753       -16.2657
  41   2.0000      -0.571340       -15.5469
  42   2.0000      -0.552047       -15.0220
  43   2.0000      -0.549581       -14.9549
  44   2.0000      -0.538017       -14.6402
  45   2.0000      -0.527034       -14.3413
  46   2.0000      -0.518848       -14.1186
  47   2.0000      -0.514380       -13.9970
  48   2.0000      -0.507232       -13.8025
  49   2.0000      -0.502827       -13.6826
  50   2.0000      -0.492132       -13.3916
  51   2.0000      -0.478371       -13.0171
  52   2.0000      -0.470609       -12.8059
  53   2.0000      -0.464306       -12.6344
  54   2.0000      -0.459792       -12.5116
  55   2.0000      -0.454098       -12.3566
  56   2.0000      -0.443396       -12.0654
  57   2.0000      -0.436357       -11.8739
  58   2.0000      -0.434280       -11.8173
  59   2.0000      -0.430004       -11.7010
  60   2.0000      -0.423336       -11.5196
  61   2.0000      -0.409201       -11.1349
  62   2.0000      -0.405431       -11.0323
  63   2.0000      -0.353196        -9.6109
  64   2.0000      -0.331530        -9.0214
  65   2.0000      -0.325878        -8.8676
  66   2.0000      -0.290429        -7.9030
  67   0.0000       0.023685         0.6445
  68   0.0000       0.074002         2.0137
  69   0.0000       0.110018         2.9937
  70   0.0000       0.119232         3.2445
  71   0.0000       0.120026         3.2661

MULLIKEN ATOMIC CHARGES
-----------------------
   0 S :    0.082878
   1 C :   -0.121432
   2 C :   -0.107206
   3 C :    0.005040
   4 C :   -0.124451
   5 H :    0.009117
   6 C :    0.081838
   7 H :    0.028428
   8 H :    0.005636
   9 C :   -0.056195
  10 H :    0.038456
  11 H :    0.047302
  12 C :   -0.062594
  13 H :    0.041840
  14 H :    0.024852
  15 H :    0.040124
  16 S :    0.106339
  17 C :   -0.047399
  18 C :   -0.009662
  19 C :   -0.040769
  20 C :   -0.152009
  21 H :   -0.016424
  22 C :    0.092857
  23 H :    0.004154
  24 H :    0.025098
  25 C :   -0.114229
  26 H :    0.032734
  27 H :    0.021763
  28 C :   -0.054762
  29 H :    0.054042
  30 H :    0.039880
  31 H :    0.029750
  32 H :    0.058659
  33 H :    0.036344
Sum of atomic charges:    0.0000000

LOEWDIN ATOMIC CHARGES
----------------------
   0 S :    0.370138
   1 C :   -0.191094
   2 C :   -0.056634
   3 C :   -0.064196
   4 C :   -0.187583
   5 H :    0.028404
   6 C :   -0.029889
   7 H :    0.034972
   8 H :    0.021250
   9 C :   -0.034345
  10 H :    0.029892
  11 H :    0.031032
  12 C :   -0.071800
  13 H :    0.019103
  14 H :    0.030196
  15 H :    0.033264
  16 S :    0.409462
  17 C :   -0.184590
  18 C :   -0.057557
  19 C :   -0.055079
  20 C :   -0.182585
  21 H :    0.017594
  22 C :   -0.017894
  23 H :    0.018286
  24 H :    0.027367
  25 C :   -0.055224
  26 H :    0.026241
  27 H :    0.024197
  28 C :   -0.073938
  29 H :    0.036439
  30 H :    0.031010
  31 H :    0.023416
  32 H :    0.031569
  33 H :    0.018576

  Mayer bond orders larger than 0.100000
B(  0-S ,  1-C ) :   1.1106 B(  0-S ,  4-C ) :   1.1281 B(  1-C ,  2-C ) :   1.6472
B(  1-C , 32-H ) :   0.9617 B(  2-C ,  3-C ) :   1.2015 B(  2-C ,  6-C ) :   1.0151
B(  3-C ,  4-C ) :   1.6015 B(  3-C ,  5-H ) :   0.9879 B(  4-C , 20-C ) :   1.0523
B(  6-C ,  7-H ) :   0.9334 B(  6-C ,  8-H ) :   0.9418 B(  6-C ,  9-C ) :   1.0625
B(  9-C , 10-H ) :   0.9596 B(  9-C , 11-H ) :   0.9559 B(  9-C , 12-C ) :   1.0604
B( 12-C , 13-H ) :   0.9818 B( 12-C , 14-H ) :   0.9748 B( 12-C , 15-H ) :   0.9756
B( 16-S , 17-C ) :   1.1581 B( 16-S , 20-C ) :   1.1393 B( 17-C , 18-C ) :   1.5957
B( 17-C , 33-H ) :   0.9682 B( 18-C , 19-C ) :   1.2575 B( 18-C , 21-H ) :   1.0023
B( 19-C , 20-C ) :   1.5799 B( 19-C , 22-C ) :   1.0545 B( 22-C , 23-H ) :   0.9339
B( 22-C , 24-H ) :   0.9414 B( 22-C , 25-C ) :   1.0274 B( 25-C , 26-H ) :   0.9590
B( 25-C , 27-H ) :   0.9527 B( 25-C , 28-C ) :   1.0768 B( 28-C , 29-H ) :   0.9703
B( 28-C , 30-H ) :   0.9730 B( 28-C , 31-H ) :   0.9758

Dispersion correction           -0.014259419
FINAL SINGLE POINT ENERGY     -1339.858138554427

DIPOLE MOMENT
-------------
                                X             Y             Z
Electronic contribution:      0.48419       1.00690      30.91323
Nuclear contribution   :     -0.55427      -0.95318     -31.72508
                        -----------------------------------------
Total Dipole Moment    :     -0.07009       0.05372      -0.81186
                        -----------------------------------------
Magnitude (a.u.)       :      0.81664
Magnitude (Debye)      :      2.07574

Rotational constants in cm-1:     0.016290     0.009798     0.006554
Rotational constants in MHz :   488.355010   293.737529   196.489572

                             ****ORCA TERMINATED NORMALLY****
TOTAL RUN TIME: 0 days 0 hours 0 minutes 21 seconds 597 msec
