                         Program Version 4.2.1 -  RELEASE  -
|  1> ! wB97X-D3 SP def2-SVP
|  2> %pal
|  3> nprocs 24
|  4> end
|  5>
|  6> * xyz 0 1
|  7> S 	 20.9114 	 -1.52258 	 -113.578
|  8> C 	 19.3918 	 -1.84273 	 -114.198
|  9> C 	 18.641 	 -0.676875 	 -114.188
| 10> C 	 19.3241 	 0.499736 	 -113.741
| 11> C 	 20.6131 	 0.202056 	 -113.257
| 12> H 	 18.9006 	 1.50175 	 -113.64
| 13> C 	 17.1799 	 -0.697358 	 -114.712
| 14> H 	 17.0717 	 -1.28058 	 -115.653
| 15> H 	 16.8463 	 0.31116 	 -114.995
| 16> C 	 16.1772 	 -1.35283 	 -113.775
| 17> H 	 15.1348 	 -1.23117 	 -114.123
| 18> H 	 16.4417 	 -2.40603 	 -113.765
| 19> C 	 16.3128 	 -0.767383 	 -112.346
| 20> H 	 16.3115 	 0.355668 	 -112.362
| 21> H 	 15.5996 	 -1.40411 	 -111.757
| 22> H 	 17.2202 	 -1.06669 	 -111.864
| 23> S 	 23.2809 	 0.995305 	 -113.421
| 24> C 	 23.7479 	 2.40786 	 -112.558
| 25> C 	 22.7824 	 2.8246 	 -111.671
| 26> C 	 21.5661 	 2.05744 	 -111.699
| 27> C 	 21.6552 	 1.0489 	 -112.691
| 28> H 	 22.8874 	 3.71961 	 -111.107
| 29> C 	 20.3808 	 2.39629 	 -110.711
| 30> H 	 19.6091 	 1.63985 	 -110.723
| 31> H 	 19.9031 	 3.16152 	 -111.341
| 32> C 	 20.6442 	 2.87477 	 -109.249
| 33> H 	 19.6812 	 3.139 	 -108.818
| 34> H 	 21.1098 	 3.87465 	 -109.246
| 35> C 	 21.5494 	 1.93955 	 -108.383
| 36> H 	 21.3453 	 0.935169 	 -108.576
| 37> H 	 21.3916 	 2.10277 	 -107.279
| 38> H 	 22.598 	 1.98611 	 -108.688
| 39> H 	 19.0689 	 -2.76643 	 -114.545
| 40> H 	 24.63 	 3.0523 	 -112.785
| 41> *
| 42>
| 43>                          ****END OF INPUT****

CARTESIAN COORDINATES (ANGSTROEM)
---------------------------------
  S     20.911400   -1.522580  -113.578000
  C     19.391800   -1.842730  -114.198000
  C     18.641000   -0.676875  -114.188000
  C     19.324100    0.499736  -113.741000
  C     20.613100    0.202056  -113.257000
  H     18.900600    1.501750  -113.640000
  C     17.179900   -0.697358  -114.712000
  H     17.071700   -1.280580  -115.653000
  H     16.846300    0.311160  -114.995000
  C     16.177200   -1.352830  -113.775000
  H     15.134800   -1.231170  -114.123000
  H     16.441700   -2.406030  -113.765000
  C     16.312800   -0.767383  -112.346000
  H     16.311500    0.355668  -112.362000
  H     15.599600   -1.404110  -111.757000
  H     17.220200   -1.066690  -111.864000
  S     23.280900    0.995305  -113.421000
  C     23.747900    2.407860  -112.558000
  C     22.782400    2.824600  -111.671000
  C     21.566100    2.057440  -111.699000
  C     21.655200    1.048900  -112.691000
  H     22.887400    3.719610  -111.107000
  C     20.380800    2.396290  -110.711000
  H     19.609100    1.639850  -110.723000
  H     19.903100    3.161520  -111.341000
  C     20.644200    2.874770  -109.249000
  H     19.681200    3.139000  -108.818000
  H     21.109800    3.874650  -109.246000
  C     21.549400    1.939550  -108.383000
  H     21.345300    0.935169  -108.576000
  H     21.391600    2.102770  -107.279000
  H     22.598000    1.986110  -108.688000
  H     19.068900   -2.766430  -114.545000
  H     24.630000    3.052300  -112.785000

 Total Charge           Charge          ....    0
 Multiplicity           Mult            ....    1
 Number of Electrons    NEL             ....  134
 Basis Dimension        Dim             ....  322

ORBITAL ENERGIES
----------------

  NO   OCC          E(Eh)            E(eV)
   0   2.0000     -88.968406     -2420.9534
   1   2.0000     -88.963138     -2420.8101
   2   2.0000     -10.334693      -281.2213
   3   2.0000     -10.332936      -281.1735
   4   2.0000     -10.319636      -280.8116
   5   2.0000     -10.315855      -280.7087
   6   2.0000     -10.305995      -280.4404
   7   2.0000     -10.302966      -280.3580
   8   2.0000     -10.302008      -280.3319
   9   2.0000     -10.301092      -280.3070
  10   2.0000     -10.297525      -280.2099
  11   2.0000     -10.291809      -280.0543
  12   2.0000     -10.289979      -280.0046
  13   2.0000     -10.284634      -279.8591
  14   2.0000     -10.278871      -279.7023
  15   2.0000     -10.277316      -279.6600
  16   2.0000      -8.083132      -219.9532
  17   2.0000      -8.078920      -219.8386
  18   2.0000      -6.041652      -164.4017
  19   2.0000      -6.037683      -164.2937
  20   2.0000      -6.037228      -164.2813
  21   2.0000      -6.033819      -164.1886
  22   2.0000      -6.033060      -164.1679
  23   2.0000      -6.030038      -164.0857
  24   2.0000      -1.005646       -27.3650
  25   2.0000      -0.985716       -26.8227
  26   2.0000      -0.907331       -24.6897
  27   2.0000      -0.900900       -24.5147
  28   2.0000      -0.869916       -23.6716
  29   2.0000      -0.848227       -23.0814
  30   2.0000      -0.841030       -22.8856
  31   2.0000      -0.811798       -22.0901
  32   2.0000      -0.786317       -21.3968
  33   2.0000      -0.770212       -20.9585
  34   2.0000      -0.711916       -19.3722
  35   2.0000      -0.697031       -18.9672
  36   2.0000      -0.691402       -18.8140
  37   2.0000      -0.657657       -17.8958
  38   2.0000      -0.644597       -17.5404
  39   2.0000      -0.611529       -16.6406
  40   2.0000      -0.592223       -16.1152
  41   2.0000      -0.573639       -15.6095
  42   2.0000      -0.551061       -14.9951
  43   2.0000      -0.546018       -14.8579
  44   2.0000      -0.542314       -14.7571
  45   2.0000      -0.534459       -14.5434
  46   2.0000      -0.514594       -14.0028
  47   2.0000      -0.512929       -13.9575
  48   2.0000      -0.506817       -13.7912
  49   2.0000      -0.493785       -13.4366
  50   2.0000      -0.492996       -13.4151
  51   2.0000      -0.479505       -13.0480
  52   2.0000      -0.470500       -12.8030
  53   2.0000      -0.469371       -12.7722
  54   2.0000      -0.457366       -12.4456
  55   2.0000      -0.451474       -12.2852
  56   2.0000      -0.439765       -11.9666
  57   2.0000      -0.433161       -11.7869
  58   2.0000      -0.431579       -11.7439
  59   2.0000      -0.425569       -11.5803
  60   2.0000      -0.416084       -11.3222
  61   2.0000      -0.412309       -11.2195
  62   2.0000      -0.404905       -11.0180
  63   2.0000      -0.352029        -9.5792
  64   2.0000      -0.331379        -9.0173
  65   2.0000      -0.328373        -8.9355
  66   2.0000      -0.286442        -7.7945
  67   0.0000       0.027047         0.7360
  68   0.0000       0.065797         1.7904
  69   0.0000       0.115020         3.1299
  70   0.0000       0.121956         3.3186
  71   0.0000       0.130522         3.5517

MULLIKEN ATOMIC CHARGES
-----------------------
   0 S :    0.107718
   1 C :   -0.078372
   2 C :   -0.113412
   3 C :    0.047020
   4 C :   -0.171978
   5 H :    0.018078
   6 C :    0.042463
   7 H :    0.030988
   8 H :    0.017841
   9 C :   -0.082100
  10 H :    0.040069
  11 H :    0.021815
  12 C :   -0.057111
  13 H :    0.041986
  14 H :    0.034372
  15 H :    0.031900
  16 S :    0.120629
  17 C :   -0.097181
  18 C :   -0.040169
  19 C :   -0.034654
  20 C :   -0.169322
  21 H :    0.009187
  22 C :    0.043584
  23 H :    0.026850
  24 H :    0.039583
  25 C :   -0.053527
  26 H :    0.028317
  27 H :    0.023509
  28 C :   -0.037250
  29 H :    0.018994
  30 H :    0.049042
  31 H :    0.039281
  32 H :    0.026219
  33 H :    0.075630
Sum of atomic charges:   -0.0000000

LOEWDIN ATOMIC CHARGES
----------------------
   0 S :    0.428903
   1 C :   -0.209572
   2 C :   -0.065617
   3 C :   -0.065425
   4 C :   -0.187321
   5 H :    0.034326
   6 C :   -0.039248
   7 H :    0.031786
   8 H :    0.023727
   9 C :   -0.043447
  10 H :    0.026569
  11 H :    0.019910
  12 C :   -0.075606
  13 H :    0.030263
  14 H :    0.033483
  15 H :    0.021415
  16 S :    0.409117
  17 C :   -0.199266
  18 C :   -0.076233
  19 C :   -0.043152
  20 C :   -0.203391
  21 H :    0.025532
  22 C :   -0.035072
  23 H :    0.028052
  24 H :    0.040288
  25 C :   -0.042102
  26 H :    0.028793
  27 H :    0.023550
  28 C :   -0.066807
  29 H :    0.017970
  30 H :    0.036519
  31 H :    0.031196
  32 H :    0.017969
  33 H :    0.042892

  Mayer bond orders larger than 0.100000
B(  0-S ,  1-C ) :   1.1656 B(  0-S ,  4-C ) :   1.1717 B(  1-C ,  2-C ) :   1.5582
B(  1-C ,  4-C ) :   0.1030 B(  1-C , 32-H ) :   0.9837 B(  2-C ,  3-C ) :   1.2752
B(  2-C ,  6-C ) :   1.0125 B(  3-C ,  4-C ) :   1.5278 B(  3-C ,  5-H ) :   0.9940
B(  4-C , 20-C ) :   1.0533 B(  6-C ,  7-H ) :   0.9500 B(  6-C ,  8-H ) :   0.9465
B(  6-C ,  9-C ) :   1.0724 B(  9-C , 10-H ) :   0.9590 B(  9-C , 11-H ) :   0.9536
B(  9-C , 12-C ) :   1.0796 B( 12-C , 13-H ) :   0.9761 B( 12-C , 14-H ) :   0.9719
B( 12-C , 15-H ) :   0.9664 B( 16-S , 17-C ) :   1.1575 B( 16-S , 20-C ) :   1.1373
B( 17-C , 18-C ) :   1.6119 B( 17-C , 33-H ) :   0.9585 B( 18-C , 19-C ) :   1.2458
B( 18-C , 21-H ) :   0.9896 B( 19-C , 20-C ) :   1.5823 B( 19-C , 22-C ) :   1.0060
B( 22-C , 23-H ) :   0.9422 B( 22-C , 24-H ) :   0.9319 B( 22-C , 25-C ) :   1.0751
B( 25-C , 26-H ) :   0.9532 B( 25-C , 27-H ) :   0.9516 B( 25-C , 28-C ) :   1.0632
B( 28-C , 29-H ) :   0.9780 B( 28-C , 30-H ) :   0.9761 B( 28-C , 31-H ) :   0.9714

Dispersion correction           -0.014730012
FINAL SINGLE POINT ENERGY     -1339.868110166630

DIPOLE MOMENT
-------------
                                X             Y             Z
Electronic contribution:     21.09199      -5.54034     -14.62873
Nuclear contribution   :    -21.52949       5.94170      14.84865
                        -----------------------------------------
Total Dipole Moment    :     -0.43750       0.40136       0.21992
                        -----------------------------------------
Magnitude (a.u.)       :      0.63314
Magnitude (Debye)      :      1.60930

Rotational constants in cm-1:     0.019314     0.008615     0.006662
Rotational constants in MHz :   579.023061   258.271055   199.735322

                             ****ORCA TERMINATED NORMALLY****
TOTAL RUN TIME: 0 days 0 hours 0 minutes 21 seconds 543 msec
