                         Program Version 4.2.1 -  RELEASE  -
|  1> ! wB97X-D3 SP def2-SVP
|  2> %pal
|  3> nprocs 24
|  4> end
|  5>
|  6> * xyz 0 1
|  7> S 	 -66.3676 	 1.26971 	 -71.3997
|  8> C 	 -65.8307 	 2.66413 	 -72.327
|  9> C 	 -65.1868 	 2.21424 	 -73.4728
| 10> C 	 -65.2211 	 0.806668 	 -73.6745
| 11> C 	 -65.803 	 0.110838 	 -72.5924
| 12> H 	 -64.7507 	 0.247726 	 -74.4558
| 13> C 	 -64.7492 	 3.10696 	 -74.5269
| 14> H 	 -64.4658 	 4.08717 	 -74.1684
| 15> H 	 -65.6638 	 3.25191 	 -75.184
| 16> C 	 -63.6204 	 2.5583 	 -75.4187
| 17> H 	 -62.8687 	 2.06297 	 -74.7654
| 18> H 	 -64.0377 	 1.7225 	 -76.0173
| 19> C 	 -63.0068 	 3.65311 	 -76.2513
| 20> H 	 -62.4292 	 4.36457 	 -75.683
| 21> H 	 -62.3413 	 3.22094 	 -76.9255
| 22> H 	 -63.6848 	 4.29495 	 -76.7674
| 23> S 	 -65.8231 	 -2.29945 	 -73.9442
| 24> C 	 -66.1052 	 -3.75129 	 -73.0515
| 25> C 	 -66.1901 	 -3.52731 	 -71.6615
| 26> C 	 -66.071 	 -2.14003 	 -71.3014
| 27> C 	 -65.9343 	 -1.34278 	 -72.4524
| 28> H 	 -66.2424 	 -4.29765 	 -70.9718
| 29> C 	 -66.0553 	 -1.68319 	 -69.8703
| 30> H 	 -66.4817 	 -2.52079 	 -69.2431
| 31> H 	 -66.8063 	 -0.931241 	 -69.96
| 32> C 	 -64.7143 	 -1.07501 	 -69.354
| 33> H 	 -64.1892 	 -0.469812 	 -70.1182
| 34> H 	 -64.1188 	 -1.95555 	 -69.0486
| 35> C 	 -65.0126 	 -0.252175 	 -68.1099
| 36> H 	 -64.0057 	 0.0210538 	 -67.6789
| 37> H 	 -65.3693 	 -0.851064 	 -67.2716
| 38> H 	 -65.5215 	 0.727525 	 -68.2649
| 39> H 	 -65.8037 	 3.75392 	 -72.0683
| 40> H 	 -66.2819 	 -4.74866 	 -73.5362
| 41> *
| 42>
| 43>                          ****END OF INPUT****

CARTESIAN COORDINATES (ANGSTROEM)
---------------------------------
  S    -66.367600    1.269710  -71.399700
  C    -65.830700    2.664130  -72.327000
  C    -65.186800    2.214240  -73.472800
  C    -65.221100    0.806668  -73.674500
  C    -65.803000    0.110838  -72.592400
  H    -64.750700    0.247726  -74.455800
  C    -64.749200    3.106960  -74.526900
  H    -64.465800    4.087170  -74.168400
  H    -65.663800    3.251910  -75.184000
  C    -63.620400    2.558300  -75.418700
  H    -62.868700    2.062970  -74.765400
  H    -64.037700    1.722500  -76.017300
  C    -63.006800    3.653110  -76.251300
  H    -62.429200    4.364570  -75.683000
  H    -62.341300    3.220940  -76.925500
  H    -63.684800    4.294950  -76.767400
  S    -65.823100   -2.299450  -73.944200
  C    -66.105200   -3.751290  -73.051500
  C    -66.190100   -3.527310  -71.661500
  C    -66.071000   -2.140030  -71.301400
  C    -65.934300   -1.342780  -72.452400
  H    -66.242400   -4.297650  -70.971800
  C    -66.055300   -1.683190  -69.870300
  H    -66.481700   -2.520790  -69.243100
  H    -66.806300   -0.931241  -69.960000
  C    -64.714300   -1.075010  -69.354000
  H    -64.189200   -0.469812  -70.118200
  H    -64.118800   -1.955550  -69.048600
  C    -65.012600   -0.252175  -68.109900
  H    -64.005700    0.021054  -67.678900
  H    -65.369300   -0.851064  -67.271600
  H    -65.521500    0.727525  -68.264900
  H    -65.803700    3.753920  -72.068300
  H    -66.281900   -4.748660  -73.536200

 Total Charge           Charge          ....    0
 Multiplicity           Mult            ....    1
 Number of Electrons    NEL             ....  134
 Basis Dimension        Dim             ....  322

ORBITAL ENERGIES
----------------

  NO   OCC          E(Eh)            E(eV)
   0   2.0000     -88.971336     -2421.0331
   1   2.0000     -88.969734     -2420.9895
   2   2.0000     -10.335679      -281.2481
   3   2.0000     -10.330420      -281.1050
   4   2.0000     -10.323669      -280.9213
   5   2.0000     -10.313220      -280.6370
   6   2.0000     -10.305394      -280.4240
   7   2.0000     -10.294886      -280.1381
   8   2.0000     -10.292668      -280.0777
   9   2.0000     -10.292567      -280.0750
  10   2.0000     -10.291165      -280.0368
  11   2.0000     -10.290748      -280.0255
  12   2.0000     -10.287811      -279.9456
  13   2.0000     -10.286384      -279.9067
  14   2.0000     -10.278704      -279.6978
  15   2.0000     -10.268567      -279.4219
  16   2.0000      -8.085565      -220.0194
  17   2.0000      -8.083007      -219.9498
  18   2.0000      -6.044116      -164.4688
  19   2.0000      -6.041733      -164.4039
  20   2.0000      -6.040196      -164.3621
  21   2.0000      -6.037556      -164.2902
  22   2.0000      -6.036299      -164.2561
  23   2.0000      -6.033808      -164.1883
  24   2.0000      -1.003164       -27.2975
  25   2.0000      -0.981473       -26.7072
  26   2.0000      -0.917201       -24.9583
  27   2.0000      -0.908663       -24.7260
  28   2.0000      -0.868054       -23.6210
  29   2.0000      -0.855274       -23.2732
  30   2.0000      -0.847704       -23.0672
  31   2.0000      -0.810005       -22.0413
  32   2.0000      -0.781421       -21.2636
  33   2.0000      -0.768048       -20.8997
  34   2.0000      -0.712626       -19.3915
  35   2.0000      -0.697306       -18.9747
  36   2.0000      -0.682906       -18.5828
  37   2.0000      -0.671530       -18.2733
  38   2.0000      -0.629245       -17.1226
  39   2.0000      -0.618867       -16.8402
  40   2.0000      -0.590895       -16.0791
  41   2.0000      -0.570881       -15.5345
  42   2.0000      -0.568566       -15.4715
  43   2.0000      -0.562512       -15.3067
  44   2.0000      -0.527775       -14.3615
  45   2.0000      -0.520218       -14.1558
  46   2.0000      -0.517391       -14.0789
  47   2.0000      -0.508349       -13.8329
  48   2.0000      -0.504829       -13.7371
  49   2.0000      -0.495223       -13.4757
  50   2.0000      -0.488562       -13.2945
  51   2.0000      -0.484166       -13.1748
  52   2.0000      -0.477030       -12.9806
  53   2.0000      -0.470400       -12.8002
  54   2.0000      -0.459844       -12.5130
  55   2.0000      -0.452371       -12.3097
  56   2.0000      -0.444569       -12.0973
  57   2.0000      -0.435977       -11.8635
  58   2.0000      -0.429969       -11.7000
  59   2.0000      -0.427909       -11.6440
  60   2.0000      -0.417160       -11.3515
  61   2.0000      -0.412439       -11.2230
  62   2.0000      -0.407374       -11.0852
  63   2.0000      -0.356357        -9.6970
  64   2.0000      -0.332233        -9.0405
  65   2.0000      -0.326943        -8.8966
  66   2.0000      -0.276015        -7.5107
  67   0.0000       0.016467         0.4481
  68   0.0000       0.081488         2.2174
  69   0.0000       0.103384         2.8132
  70   0.0000       0.121896         3.3170
  71   0.0000       0.129890         3.5345

MULLIKEN ATOMIC CHARGES
-----------------------
   0 S :    0.090679
   1 C :   -0.126153
   2 C :   -0.069773
   3 C :   -0.023890
   4 C :   -0.106472
   5 H :    0.013839
   6 C :    0.035166
   7 H :    0.009478
   8 H :    0.057570
   9 C :   -0.135100
  10 H :    0.037965
  11 H :    0.041330
  12 C :    0.028154
  13 H :    0.018764
  14 H :    0.016555
  15 H :    0.017970
  16 S :    0.107153
  17 C :   -0.104783
  18 C :   -0.006776
  19 C :   -0.069800
  20 C :   -0.143249
  21 H :   -0.012940
  22 C :    0.047226
  23 H :    0.034011
  24 H :    0.028344
  25 C :   -0.058785
  26 H :    0.056914
  27 H :    0.035843
  28 C :   -0.063794
  29 H :    0.021488
  30 H :    0.030465
  31 H :    0.050533
  32 H :    0.063548
  33 H :    0.078518
Sum of atomic charges:    0.0000000

LOEWDIN ATOMIC CHARGES
----------------------
   0 S :    0.415370
   1 C :   -0.220268
   2 C :   -0.065368
   3 C :   -0.080608
   4 C :   -0.178067
   5 H :    0.021524
   6 C :   -0.038824
   7 H :    0.023048
   8 H :    0.047068
   9 C :   -0.044820
  10 H :    0.027990
  11 H :    0.025420
  12 C :   -0.057331
  13 H :    0.025694
  14 H :    0.020409
  15 H :    0.022956
  16 S :    0.415245
  17 C :   -0.198812
  18 C :   -0.064548
  19 C :   -0.050085
  20 C :   -0.194716
  21 H :    0.017170
  22 C :   -0.041450
  23 H :    0.039071
  24 H :    0.019356
  25 C :   -0.038271
  26 H :    0.031007
  27 H :    0.030665
  28 C :   -0.076689
  29 H :    0.029247
  30 H :    0.025324
  31 H :    0.028593
  32 H :    0.044174
  33 H :    0.040525

  Mayer bond orders larger than 0.100000
B(  0-S ,  1-C ) :   1.1131 B(  0-S ,  4-C ) :   1.1557 B(  1-C ,  2-C ) :   1.5965
B(  1-C , 32-H ) :   0.9617 B(  2-C ,  3-C ) :   1.2553 B(  2-C ,  6-C ) :   1.0532
B(  3-C ,  4-C ) :   1.5252 B(  3-C ,  5-H ) :   0.9853 B(  4-C , 20-C ) :   1.0926
B(  6-C ,  7-H ) :   0.9435 B(  6-C ,  8-H ) :   0.9247 B(  6-C ,  9-C ) :   1.0623
B(  9-C , 10-H ) :   0.9629 B(  9-C , 11-H ) :   0.9433 B(  9-C , 12-C ) :   1.0889
B( 12-C , 13-H ) :   0.9690 B( 12-C , 14-H ) :   0.9689 B( 12-C , 15-H ) :   0.9700
B( 16-S , 17-C ) :   1.1662 B( 16-S , 20-C ) :   1.1388 B( 17-C , 18-C ) :   1.5772
B( 17-C , 33-H ) :   0.9606 B( 18-C , 19-C ) :   1.2692 B( 18-C , 21-H ) :   0.9984
B( 19-C , 20-C ) :   1.5379 B( 19-C , 22-C ) :   1.0239 B( 22-C , 23-H ) :   0.9307
B( 22-C , 24-H ) :   0.9329 B( 22-C , 25-C ) :   1.0449 B( 25-C , 26-H ) :   0.9593
B( 25-C , 27-H ) :   0.9512 B( 25-C , 28-C ) :   1.0888 B( 28-C , 29-H ) :   0.9696
B( 28-C , 30-H ) :   0.9702 B( 28-C , 31-H ) :   0.9729

Dispersion correction           -0.014268004
FINAL SINGLE POINT ENERGY     -1339.877440524363

DIPOLE MOMENT
-------------
                                X             Y             Z
Electronic contribution:    -11.60577     -11.58131      -2.48081
Nuclear contribution   :     11.90707      11.59305       2.49540
                        -----------------------------------------
Total Dipole Moment    :      0.30129       0.01174       0.01459
                        -----------------------------------------
Magnitude (a.u.)       :      0.30187
Magnitude (Debye)      :      0.76730

Rotational constants in cm-1:     0.019175     0.008832     0.006676
Rotational constants in MHz :   574.865685   264.772054   200.127762

                             ****ORCA TERMINATED NORMALLY****
TOTAL RUN TIME: 0 days 0 hours 0 minutes 20 seconds 435 msec
