                         Program Version 4.2.1 -  RELEASE  -
|  1> ! wB97X-D3 SP def2-SVP
|  2> %pal
|  3> nprocs 24
|  4> end
|  5>
|  6> * xyz 0 1
|  7> S 	 -51.8155 	 11.9478 	 21.2574
|  8> C 	 -51.1901 	 10.3412 	 21.416
|  9> C 	 -52.0599 	 9.50891 	 22.1667
| 10> C 	 -53.2661 	 10.2269 	 22.6166
| 11> C 	 -53.2151 	 11.5098 	 22.1713
| 12> H 	 -54.0618 	 9.79636 	 23.128
| 13> C 	 -51.8955 	 7.96616 	 22.3593
| 14> H 	 -50.8241 	 7.76533 	 22.5166
| 15> H 	 -52.0642 	 7.48938 	 21.4291
| 16> C 	 -52.7007 	 7.41424 	 23.4971
| 17> H 	 -52.4694 	 8.1231 	 24.2988
| 18> H 	 -53.7471 	 7.57901 	 23.3697
| 19> C 	 -52.3121 	 5.96341 	 23.7272
| 20> H 	 -52.9214 	 5.62377 	 24.5238
| 21> H 	 -52.3812 	 5.40055 	 22.812
| 22> H 	 -51.2108 	 5.81515 	 23.8292
| 23> S 	 -54.9841 	 13.4107 	 21.2195
| 24> C 	 -56.0207 	 14.2624 	 22.2917
| 25> C 	 -55.8027 	 13.9665 	 23.6341
| 26> C 	 -54.8003 	 12.9076 	 23.7293
| 27> C 	 -54.1707 	 12.532 	 22.542
| 28> H 	 -56.2875 	 14.4508 	 24.4308
| 29> C 	 -54.4141 	 12.4828 	 25.1496
| 30> H 	 -54.4405 	 11.3319 	 25.2187
| 31> H 	 -55.1905 	 12.7004 	 25.9145
| 32> C 	 -53.1301 	 13.0566 	 25.5995
| 33> H 	 -53.1108 	 14.1644 	 25.4271
| 34> H 	 -52.3666 	 12.6376 	 24.9712
| 35> C 	 -52.7158 	 12.7614 	 27.0585
| 36> H 	 -52.7941 	 11.7433 	 27.2642
| 37> H 	 -53.4052 	 13.3495 	 27.7746
| 38> H 	 -51.6932 	 13.1723 	 27.2485
| 39> H 	 -50.309 	 10.05 	 20.8761
| 40> H 	 -56.677 	 15.0294 	 21.9914
| 41> *
| 42>
| 43>                          ****END OF INPUT****

CARTESIAN COORDINATES (ANGSTROEM)
---------------------------------
  S    -51.815500   11.947800   21.257400
  C    -51.190100   10.341200   21.416000
  C    -52.059900    9.508910   22.166700
  C    -53.266100   10.226900   22.616600
  C    -53.215100   11.509800   22.171300
  H    -54.061800    9.796360   23.128000
  C    -51.895500    7.966160   22.359300
  H    -50.824100    7.765330   22.516600
  H    -52.064200    7.489380   21.429100
  C    -52.700700    7.414240   23.497100
  H    -52.469400    8.123100   24.298800
  H    -53.747100    7.579010   23.369700
  C    -52.312100    5.963410   23.727200
  H    -52.921400    5.623770   24.523800
  H    -52.381200    5.400550   22.812000
  H    -51.210800    5.815150   23.829200
  S    -54.984100   13.410700   21.219500
  C    -56.020700   14.262400   22.291700
  C    -55.802700   13.966500   23.634100
  C    -54.800300   12.907600   23.729300
  C    -54.170700   12.532000   22.542000
  H    -56.287500   14.450800   24.430800
  C    -54.414100   12.482800   25.149600
  H    -54.440500   11.331900   25.218700
  H    -55.190500   12.700400   25.914500
  C    -53.130100   13.056600   25.599500
  H    -53.110800   14.164400   25.427100
  H    -52.366600   12.637600   24.971200
  C    -52.715800   12.761400   27.058500
  H    -52.794100   11.743300   27.264200
  H    -53.405200   13.349500   27.774600
  H    -51.693200   13.172300   27.248500
  H    -50.309000   10.050000   20.876100
  H    -56.677000   15.029400   21.991400

 Total Charge           Charge          ....    0
 Multiplicity           Mult            ....    1
 Number of Electrons    NEL             ....  134
 Basis Dimension        Dim             ....  322

ORBITAL ENERGIES
----------------

  NO   OCC          E(Eh)            E(eV)
   0   2.0000     -88.968645     -2420.9599
   1   2.0000     -88.962283     -2420.7868
   2   2.0000     -10.326839      -281.0076
   3   2.0000     -10.326341      -280.9940
   4   2.0000     -10.314755      -280.6788
   5   2.0000     -10.313804      -280.6529
   6   2.0000     -10.310814      -280.5715
   7   2.0000     -10.307707      -280.4870
   8   2.0000     -10.293702      -280.1059
   9   2.0000     -10.293114      -280.0899
  10   2.0000     -10.292956      -280.0856
  11   2.0000     -10.289293      -279.9859
  12   2.0000     -10.283167      -279.8192
  13   2.0000     -10.280032      -279.7339
  14   2.0000     -10.279342      -279.7151
  15   2.0000     -10.278084      -279.6809
  16   2.0000      -8.084063      -219.9785
  17   2.0000      -8.077307      -219.7947
  18   2.0000      -6.042485      -164.4244
  19   2.0000      -6.038488      -164.3156
  20   2.0000      -6.035761      -164.2414
  21   2.0000      -6.034869      -164.2171
  22   2.0000      -6.031677      -164.1303
  23   2.0000      -6.028215      -164.0361
  24   2.0000      -1.006525       -27.3889
  25   2.0000      -0.980996       -26.6942
  26   2.0000      -0.919094       -25.0098
  27   2.0000      -0.909142       -24.7390
  28   2.0000      -0.870764       -23.6947
  29   2.0000      -0.852054       -23.1856
  30   2.0000      -0.842987       -22.9388
  31   2.0000      -0.814012       -22.1504
  32   2.0000      -0.780869       -21.2485
  33   2.0000      -0.768985       -20.9252
  34   2.0000      -0.717027       -19.5113
  35   2.0000      -0.695222       -18.9180
  36   2.0000      -0.683139       -18.5892
  37   2.0000      -0.665823       -18.1180
  38   2.0000      -0.649095       -17.6628
  39   2.0000      -0.625002       -17.0072
  40   2.0000      -0.595463       -16.2034
  41   2.0000      -0.569973       -15.5097
  42   2.0000      -0.568400       -15.4669
  43   2.0000      -0.558890       -15.2082
  44   2.0000      -0.541653       -14.7391
  45   2.0000      -0.524685       -14.2774
  46   2.0000      -0.515524       -14.0281
  47   2.0000      -0.511572       -13.9206
  48   2.0000      -0.505592       -13.7579
  49   2.0000      -0.498165       -13.5558
  50   2.0000      -0.491275       -13.3683
  51   2.0000      -0.480865       -13.0850
  52   2.0000      -0.477432       -12.9916
  53   2.0000      -0.464174       -12.6308
  54   2.0000      -0.456544       -12.4232
  55   2.0000      -0.454212       -12.3597
  56   2.0000      -0.444216       -12.0877
  57   2.0000      -0.442212       -12.0332
  58   2.0000      -0.433548       -11.7974
  59   2.0000      -0.418247       -11.3811
  60   2.0000      -0.416698       -11.3389
  61   2.0000      -0.411889       -11.2081
  62   2.0000      -0.400718       -10.9041
  63   2.0000      -0.345736        -9.4080
  64   2.0000      -0.331061        -9.0086
  65   2.0000      -0.327982        -8.9248
  66   2.0000      -0.293453        -7.9853
  67   0.0000       0.032657         0.8886
  68   0.0000       0.069582         1.8934
  69   0.0000       0.116743         3.1767
  70   0.0000       0.119108         3.2411
  71   0.0000       0.129117         3.5134

MULLIKEN ATOMIC CHARGES
-----------------------
   0 S :    0.127066
   1 C :   -0.121151
   2 C :   -0.098895
   3 C :    0.027757
   4 C :   -0.123883
   5 H :   -0.004266
   6 C :    0.055699
   7 H :    0.020344
   8 H :    0.028092
   9 C :   -0.102308
  10 H :    0.027524
  11 H :    0.031594
  12 C :    0.019025
  13 H :    0.038443
  14 H :    0.016860
  15 H :    0.024339
  16 S :    0.095320
  17 C :   -0.063347
  18 C :   -0.014019
  19 C :   -0.047848
  20 C :   -0.142956
  21 H :    0.007236
  22 C :    0.026927
  23 H :    0.023493
  24 H :    0.011236
  25 C :   -0.067918
  26 H :    0.032282
  27 H :    0.030031
  28 C :   -0.046337
  29 H :    0.023671
  30 H :    0.032344
  31 H :    0.044395
  32 H :    0.045233
  33 H :    0.044017
Sum of atomic charges:    0.0000000

LOEWDIN ATOMIC CHARGES
----------------------
   0 S :    0.427454
   1 C :   -0.208562
   2 C :   -0.047955
   3 C :   -0.053354
   4 C :   -0.201191
   5 H :    0.022995
   6 C :   -0.031868
   7 H :    0.031731
   8 H :    0.024058
   9 C :   -0.046866
  10 H :    0.027641
  11 H :    0.019666
  12 C :   -0.058753
  13 H :    0.024670
  14 H :    0.026360
  15 H :    0.032910
  16 S :    0.403347
  17 C :   -0.181556
  18 C :   -0.064941
  19 C :   -0.048573
  20 C :   -0.197161
  21 H :    0.025705
  22 C :   -0.044890
  23 H :    0.031359
  24 H :    0.026235
  25 C :   -0.048145
  26 H :    0.029691
  27 H :    0.023576
  28 C :   -0.063146
  29 H :    0.013129
  30 H :    0.029450
  31 H :    0.033329
  32 H :    0.023166
  33 H :    0.020488

  Mayer bond orders larger than 0.100000
B(  0-S ,  1-C ) :   1.1367 B(  0-S ,  4-C ) :   1.1671 B(  1-C ,  2-C ) :   1.6133
B(  1-C , 32-H ) :   0.9766 B(  2-C ,  3-C ) :   1.2185 B(  2-C ,  6-C ) :   1.0003
B(  3-C ,  4-C ) :   1.5761 B(  3-C ,  5-H ) :   1.0101 B(  4-C , 20-C ) :   1.0120
B(  6-C ,  7-H ) :   0.9426 B(  6-C ,  8-H ) :   0.9370 B(  6-C ,  9-C ) :   1.0755
B(  9-C , 10-H ) :   0.9567 B(  9-C , 11-H ) :   0.9428 B(  9-C , 12-C ) :   1.0807
B( 12-C , 13-H ) :   0.9711 B( 12-C , 14-H ) :   0.9675 B( 12-C , 15-H ) :   0.9697
B( 16-S , 17-C ) :   1.1779 B( 16-S , 20-C ) :   1.1206 B( 17-C , 18-C ) :   1.5890
B( 17-C , 33-H ) :   0.9691 B( 18-C , 19-C ) :   1.2382 B( 18-C , 21-H ) :   1.0001
B( 19-C , 20-C ) :   1.6073 B( 19-C , 22-C ) :   1.0461 B( 22-C , 23-H ) :   0.9282
B( 22-C , 24-H ) :   0.9371 B( 22-C , 25-C ) :   1.0714 B( 25-C , 26-H ) :   0.9513
B( 25-C , 27-H ) :   0.9501 B( 25-C , 28-C ) :   1.0847 B( 28-C , 29-H ) :   0.9752
B( 28-C , 30-H ) :   0.9744 B( 28-C , 31-H ) :   0.9737

Dispersion correction           -0.014083045
FINAL SINGLE POINT ENERGY     -1339.870897974075

DIPOLE MOMENT
-------------
                                X             Y             Z
Electronic contribution:     -4.64074      17.90142     -22.54781
Nuclear contribution   :      4.64087     -18.31156      22.92394
                        -----------------------------------------
Total Dipole Moment    :      0.00013      -0.41014       0.37613
                        -----------------------------------------
Magnitude (a.u.)       :      0.55649
Magnitude (Debye)      :      1.41450

Rotational constants in cm-1:     0.017220     0.008716     0.007082
Rotational constants in MHz :   516.255378   261.290883   212.298971

                             ****ORCA TERMINATED NORMALLY****
TOTAL RUN TIME: 0 days 0 hours 0 minutes 20 seconds 531 msec
