                         Program Version 4.2.1 -  RELEASE  -
|  1> ! wB97X-D3 SP def2-SVP
|  2> %pal
|  3> nprocs 24
|  4> end
|  5>
|  6> * xyz 0 1
|  7> S 	 -41.5708 	 16.848 	 -99.5597
|  8> C 	 -41.2394 	 15.6793 	 -100.787
|  9> C 	 -41.336 	 14.3908 	 -100.274
| 10> C 	 -41.7309 	 14.339 	 -98.8774
| 11> C 	 -41.9577 	 15.6057 	 -98.3484
| 12> H 	 -41.7881 	 13.4143 	 -98.3006
| 13> C 	 -40.8588 	 13.1263 	 -100.922
| 14> H 	 -40.5694 	 13.3271 	 -101.945
| 15> H 	 -41.6619 	 12.3617 	 -100.821
| 16> C 	 -39.6161 	 12.513 	 -100.278
| 17> H 	 -39.9513 	 12.1187 	 -99.3306
| 18> H 	 -39.3275 	 11.5824 	 -100.798
| 19> C 	 -38.4605 	 13.5453 	 -100.131
| 20> H 	 -38.1622 	 13.7836 	 -101.169
| 21> H 	 -38.7412 	 14.4945 	 -99.6878
| 22> H 	 -37.6346 	 13.1085 	 -99.6185
| 23> S 	 -41.2398 	 16.9947 	 -96.0705
| 24> C 	 -42.2995 	 16.8727 	 -94.6882
| 25> C 	 -43.3585 	 16.0217 	 -94.8917
| 26> C 	 -43.3923 	 15.5455 	 -96.238
| 27> C 	 -42.3262 	 15.9579 	 -97.0103
| 28> H 	 -44.1317 	 15.8933 	 -94.1444
| 29> C 	 -44.4496 	 14.6737 	 -96.784
| 30> H 	 -43.9886 	 13.7442 	 -97.2971
| 31> H 	 -44.814 	 15.1868 	 -97.6487
| 32> C 	 -45.6351 	 14.2337 	 -95.9008
| 33> H 	 -46.0992 	 15.1223 	 -95.5694
| 34> H 	 -45.3311 	 13.6145 	 -95.0686
| 35> C 	 -46.6114 	 13.2718 	 -96.6973
| 36> H 	 -46.276 	 12.3273 	 -97.0011
| 37> H 	 -46.9637 	 13.7552 	 -97.6732
| 38> H 	 -47.4326 	 13.0597 	 -96.084
| 39> H 	 -40.8521 	 15.9065 	 -101.803
| 40> H 	 -42.3198 	 17.4621 	 -93.7769
| 41> *
| 42>
| 43>                          ****END OF INPUT****

CARTESIAN COORDINATES (ANGSTROEM)
---------------------------------
  S    -41.570800   16.848000  -99.559700
  C    -41.239400   15.679300  -100.787000
  C    -41.336000   14.390800  -100.274000
  C    -41.730900   14.339000  -98.877400
  C    -41.957700   15.605700  -98.348400
  H    -41.788100   13.414300  -98.300600
  C    -40.858800   13.126300  -100.922000
  H    -40.569400   13.327100  -101.945000
  H    -41.661900   12.361700  -100.821000
  C    -39.616100   12.513000  -100.278000
  H    -39.951300   12.118700  -99.330600
  H    -39.327500   11.582400  -100.798000
  C    -38.460500   13.545300  -100.131000
  H    -38.162200   13.783600  -101.169000
  H    -38.741200   14.494500  -99.687800
  H    -37.634600   13.108500  -99.618500
  S    -41.239800   16.994700  -96.070500
  C    -42.299500   16.872700  -94.688200
  C    -43.358500   16.021700  -94.891700
  C    -43.392300   15.545500  -96.238000
  C    -42.326200   15.957900  -97.010300
  H    -44.131700   15.893300  -94.144400
  C    -44.449600   14.673700  -96.784000
  H    -43.988600   13.744200  -97.297100
  H    -44.814000   15.186800  -97.648700
  C    -45.635100   14.233700  -95.900800
  H    -46.099200   15.122300  -95.569400
  H    -45.331100   13.614500  -95.068600
  C    -46.611400   13.271800  -96.697300
  H    -46.276000   12.327300  -97.001100
  H    -46.963700   13.755200  -97.673200
  H    -47.432600   13.059700  -96.084000
  H    -40.852100   15.906500  -101.803000
  H    -42.319800   17.462100  -93.776900

 Total Charge           Charge          ....    0
 Multiplicity           Mult            ....    1
 Number of Electrons    NEL             ....  134
 Basis Dimension        Dim             ....  322

ORBITAL ENERGIES
----------------

  NO   OCC          E(Eh)            E(eV)
   0   2.0000     -88.966476     -2420.9009
   1   2.0000     -88.966309     -2420.8964
   2   2.0000     -10.331967      -281.1471
   3   2.0000     -10.320397      -280.8323
   4   2.0000     -10.318319      -280.7757
   5   2.0000     -10.316049      -280.7140
   6   2.0000     -10.301362      -280.3143
   7   2.0000     -10.300109      -280.2802
   8   2.0000     -10.299253      -280.2569
   9   2.0000     -10.292138      -280.0633
  10   2.0000     -10.289944      -280.0036
  11   2.0000     -10.289938      -280.0034
  12   2.0000     -10.288884      -279.9748
  13   2.0000     -10.286188      -279.9014
  14   2.0000     -10.278249      -279.6854
  15   2.0000     -10.273951      -279.5684
  16   2.0000      -8.081014      -219.8956
  17   2.0000      -8.080806      -219.8899
  18   2.0000      -6.039621      -164.3464
  19   2.0000      -6.039373      -164.3397
  20   2.0000      -6.035430      -164.2324
  21   2.0000      -6.035369      -164.2307
  22   2.0000      -6.031746      -164.1321
  23   2.0000      -6.031527      -164.1262
  24   2.0000      -1.006281       -27.3823
  25   2.0000      -0.983392       -26.7595
  26   2.0000      -0.913251       -24.8508
  27   2.0000      -0.907449       -24.6929
  28   2.0000      -0.872122       -23.7316
  29   2.0000      -0.850492       -23.1431
  30   2.0000      -0.841085       -22.8871
  31   2.0000      -0.814479       -22.1631
  32   2.0000      -0.782063       -21.2810
  33   2.0000      -0.771498       -20.9935
  34   2.0000      -0.715302       -19.4644
  35   2.0000      -0.705607       -19.2005
  36   2.0000      -0.693553       -18.8725
  37   2.0000      -0.652479       -17.7549
  38   2.0000      -0.637196       -17.3390
  39   2.0000      -0.623335       -16.9618
  40   2.0000      -0.596220       -16.2240
  41   2.0000      -0.567354       -15.4385
  42   2.0000      -0.562571       -15.3083
  43   2.0000      -0.555038       -15.1034
  44   2.0000      -0.541792       -14.7429
  45   2.0000      -0.524721       -14.2784
  46   2.0000      -0.513553       -13.9745
  47   2.0000      -0.511367       -13.9150
  48   2.0000      -0.505203       -13.7473
  49   2.0000      -0.497930       -13.5494
  50   2.0000      -0.491009       -13.3610
  51   2.0000      -0.478565       -13.0224
  52   2.0000      -0.469474       -12.7750
  53   2.0000      -0.464299       -12.6342
  54   2.0000      -0.457062       -12.4373
  55   2.0000      -0.454312       -12.3625
  56   2.0000      -0.449275       -12.2254
  57   2.0000      -0.435417       -11.8483
  58   2.0000      -0.431589       -11.7441
  59   2.0000      -0.427727       -11.6390
  60   2.0000      -0.422974       -11.5097
  61   2.0000      -0.415540       -11.3074
  62   2.0000      -0.410982       -11.1834
  63   2.0000      -0.346220        -9.4211
  64   2.0000      -0.330846        -9.0028
  65   2.0000      -0.325030        -8.8445
  66   2.0000      -0.292391        -7.9564
  67   0.0000       0.026361         0.7173
  68   0.0000       0.069290         1.8855
  69   0.0000       0.115397         3.1401
  70   0.0000       0.119267         3.2454
  71   0.0000       0.131165         3.5692

MULLIKEN ATOMIC CHARGES
-----------------------
   0 S :    0.112241
   1 C :   -0.128965
   2 C :   -0.109544
   3 C :    0.028919
   4 C :   -0.175545
   5 H :    0.030565
   6 C :    0.067204
   7 H :    0.012543
   8 H :    0.035713
   9 C :   -0.081140
  10 H :    0.008238
  11 H :    0.032376
  12 C :   -0.033143
  13 H :    0.018925
  14 H :    0.052244
  15 H :    0.033986
  16 S :    0.115829
  17 C :   -0.068083
  18 C :   -0.064601
  19 C :   -0.005996
  20 C :   -0.154834
  21 H :    0.021090
  22 C :    0.021317
  23 H :    0.029896
  24 H :    0.029091
  25 C :   -0.050366
  26 H :    0.029504
  27 H :    0.034274
  28 C :   -0.030776
  29 H :    0.019828
  30 H :    0.032222
  31 H :    0.020429
  32 H :    0.064236
  33 H :    0.052323
Sum of atomic charges:    0.0000000

LOEWDIN ATOMIC CHARGES
----------------------
   0 S :    0.404377
   1 C :   -0.212620
   2 C :   -0.068060
   3 C :   -0.053379
   4 C :   -0.187321
   5 H :    0.034473
   6 C :   -0.034248
   7 H :    0.023404
   8 H :    0.035886
   9 C :   -0.040731
  10 H :    0.012329
  11 H :    0.027595
  12 C :   -0.059783
  13 H :    0.025711
  14 H :    0.029119
  15 H :    0.022625
  16 S :    0.401066
  17 C :   -0.184261
  18 C :   -0.075870
  19 C :   -0.051506
  20 C :   -0.205659
  21 H :    0.032481
  22 C :   -0.044974
  23 H :    0.039489
  24 H :    0.034279
  25 C :   -0.030024
  26 H :    0.019385
  27 H :    0.024938
  28 C :   -0.058470
  29 H :    0.016999
  30 H :    0.031962
  31 H :    0.018907
  32 H :    0.038568
  33 H :    0.033313

  Mayer bond orders larger than 0.100000
B(  0-S ,  1-C ) :   1.1361 B(  0-S ,  4-C ) :   1.1441 B(  1-C ,  2-C ) :   1.6068
B(  1-C , 32-H ) :   0.9616 B(  2-C ,  3-C ) :   1.2264 B(  2-C ,  6-C ) :   1.0434
B(  3-C ,  4-C ) :   1.5701 B(  3-C ,  5-H ) :   0.9878 B(  4-C , 20-C ) :   1.0624
B(  6-C ,  7-H ) :   0.9432 B(  6-C ,  8-H ) :   0.9343 B(  6-C ,  9-C ) :   1.0743
B(  9-C , 10-H ) :   0.9509 B(  9-C , 11-H ) :   0.9560 B(  9-C , 12-C ) :   1.0646
B( 12-C , 13-H ) :   0.9757 B( 12-C , 14-H ) :   0.9736 B( 12-C , 15-H ) :   0.9754
B( 16-S , 17-C ) :   1.1579 B( 16-S , 20-C ) :   1.1205 B( 17-C , 18-C ) :   1.6139
B( 17-C , 33-H ) :   0.9566 B( 18-C , 19-C ) :   1.2479 B( 18-C , 21-H ) :   0.9851
B( 19-C , 20-C ) :   1.5988 B( 19-C , 22-C ) :   1.0488 B( 22-C , 23-H ) :   0.9263
B( 22-C , 24-H ) :   0.9164 B( 22-C , 25-C ) :   1.0812 B( 25-C , 26-H ) :   0.9498
B( 25-C , 27-H ) :   0.9522 B( 25-C , 28-C ) :   1.0816 B( 28-C , 29-H ) :   0.9765
B( 28-C , 30-H ) :   0.9757 B( 28-C , 31-H ) :   0.9740

Dispersion correction           -0.014514492
FINAL SINGLE POINT ENERGY     -1339.882115556854

DIPOLE MOMENT
-------------
                                X             Y             Z
Electronic contribution:      6.84806      21.59151       4.24882
Nuclear contribution   :     -7.08507     -22.16141      -4.19895
                        -----------------------------------------
Total Dipole Moment    :     -0.23701      -0.56990       0.04986
                        -----------------------------------------
Magnitude (a.u.)       :      0.61923
Magnitude (Debye)      :      1.57395

Rotational constants in cm-1:     0.017871     0.008762     0.007055
Rotational constants in MHz :   535.769516   262.689453   211.498990

                             ****ORCA TERMINATED NORMALLY****
TOTAL RUN TIME: 0 days 0 hours 0 minutes 21 seconds 759 msec
