                         Program Version 4.2.1 -  RELEASE  -
|  1> ! wB97X-D3 SP def2-SVP
|  2> %pal
|  3> nprocs 24
|  4> end
|  5>
|  6> * xyz 0 1
|  7> S 	 -33.1777 	 15.6036 	 -0.0173164
|  8> C 	 -34.5128 	 15.0518 	 -0.875055
|  9> C 	 -34.6625 	 13.6234 	 -0.782356
| 10> C 	 -33.7768 	 12.9851 	 0.179028
| 11> C 	 -32.8151 	 13.9286 	 0.561949
| 12> H 	 -33.6988 	 11.9029 	 0.321215
| 13> C 	 -35.7504 	 12.8889 	 -1.52375
| 14> H 	 -35.2518 	 12.0346 	 -1.86798
| 15> H 	 -35.9284 	 13.1783 	 -2.58407
| 16> C 	 -37.0816 	 12.4677 	 -0.841499
| 17> H 	 -37.7056 	 13.2786 	 -0.492379
| 18> H 	 -37.7941 	 11.9093 	 -1.47726
| 19> C 	 -36.7831 	 11.5973 	 0.414668
| 20> H 	 -36.2379 	 12.2035 	 1.17861
| 21> H 	 -37.6729 	 11.3084 	 0.986918
| 22> H 	 -36.1495 	 10.7559 	 0.176214
| 23> S 	 -29.9936 	 14.0793 	 0.720187
| 24> C 	 -29.1727 	 13.196 	 2.01836
| 25> C 	 -30.0502 	 12.4967 	 2.74284
| 26> C 	 -31.409 	 12.6502 	 2.32039
| 27> C 	 -31.5888 	 13.6221 	 1.32638
| 28> H 	 -29.773 	 11.7695 	 3.49773
| 29> C 	 -32.5474 	 11.9064 	 2.94598
| 30> H 	 -32.6187 	 10.8814 	 2.48681
| 31> H 	 -33.4687 	 12.4178 	 2.56947
| 32> C 	 -32.4397 	 11.9037 	 4.41866
| 33> H 	 -32.5182 	 12.9189 	 4.91038
| 34> H 	 -31.5585 	 11.4135 	 4.68338
| 35> C 	 -33.5926 	 11.0654 	 5.0166
| 36> H 	 -33.4282 	 10.0404 	 4.68917
| 37> H 	 -34.5615 	 11.3594 	 4.66284
| 38> H 	 -33.483 	 10.891 	 6.05256
| 39> H 	 -35.1491 	 15.7638 	 -1.40599
| 40> H 	 -28.1208 	 13.0921 	 2.13918
| 41> *
| 42>
| 43>                          ****END OF INPUT****

CARTESIAN COORDINATES (ANGSTROEM)
---------------------------------
  S    -33.177700   15.603600   -0.017316
  C    -34.512800   15.051800   -0.875055
  C    -34.662500   13.623400   -0.782356
  C    -33.776800   12.985100    0.179028
  C    -32.815100   13.928600    0.561949
  H    -33.698800   11.902900    0.321215
  C    -35.750400   12.888900   -1.523750
  H    -35.251800   12.034600   -1.867980
  H    -35.928400   13.178300   -2.584070
  C    -37.081600   12.467700   -0.841499
  H    -37.705600   13.278600   -0.492379
  H    -37.794100   11.909300   -1.477260
  C    -36.783100   11.597300    0.414668
  H    -36.237900   12.203500    1.178610
  H    -37.672900   11.308400    0.986918
  H    -36.149500   10.755900    0.176214
  S    -29.993600   14.079300    0.720187
  C    -29.172700   13.196000    2.018360
  C    -30.050200   12.496700    2.742840
  C    -31.409000   12.650200    2.320390
  C    -31.588800   13.622100    1.326380
  H    -29.773000   11.769500    3.497730
  C    -32.547400   11.906400    2.945980
  H    -32.618700   10.881400    2.486810
  H    -33.468700   12.417800    2.569470
  C    -32.439700   11.903700    4.418660
  H    -32.518200   12.918900    4.910380
  H    -31.558500   11.413500    4.683380
  C    -33.592600   11.065400    5.016600
  H    -33.428200   10.040400    4.689170
  H    -34.561500   11.359400    4.662840
  H    -33.483000   10.891000    6.052560
  H    -35.149100   15.763800   -1.405990
  H    -28.120800   13.092100    2.139180

 Total Charge           Charge          ....    0
 Multiplicity           Mult            ....    1
 Number of Electrons    NEL             ....  134
 Basis Dimension        Dim             ....  322

ORBITAL ENERGIES
----------------

  NO   OCC          E(Eh)            E(eV)
   0   2.0000     -88.971980     -2421.0506
   1   2.0000     -88.961798     -2420.7736
   2   2.0000     -10.339761      -281.3592
   3   2.0000     -10.326667      -281.0029
   4   2.0000     -10.318479      -280.7801
   5   2.0000     -10.313007      -280.6312
   6   2.0000     -10.311802      -280.5984
   7   2.0000     -10.307651      -280.4854
   8   2.0000     -10.297292      -280.2036
   9   2.0000     -10.291874      -280.0561
  10   2.0000     -10.289598      -279.9942
  11   2.0000     -10.289263      -279.9851
  12   2.0000     -10.288317      -279.9593
  13   2.0000     -10.281739      -279.7803
  14   2.0000     -10.278264      -279.6858
  15   2.0000     -10.269645      -279.4513
  16   2.0000      -8.086899      -220.0557
  17   2.0000      -8.076036      -219.7601
  18   2.0000      -6.045222      -164.4988
  19   2.0000      -6.041281      -164.3916
  20   2.0000      -6.037944      -164.3008
  21   2.0000      -6.034752      -164.2140
  22   2.0000      -6.030681      -164.1032
  23   2.0000      -6.026529      -163.9902
  24   2.0000      -1.002740       -27.2859
  25   2.0000      -0.983022       -26.7494
  26   2.0000      -0.917681       -24.9714
  27   2.0000      -0.906272       -24.6609
  28   2.0000      -0.873493       -23.7689
  29   2.0000      -0.850477       -23.1427
  30   2.0000      -0.844259       -22.9735
  31   2.0000      -0.817033       -22.2326
  32   2.0000      -0.780001       -21.2249
  33   2.0000      -0.765222       -20.8227
  34   2.0000      -0.707595       -19.2546
  35   2.0000      -0.703444       -19.1417
  36   2.0000      -0.697560       -18.9816
  37   2.0000      -0.656120       -17.8539
  38   2.0000      -0.643447       -17.5091
  39   2.0000      -0.618094       -16.8192
  40   2.0000      -0.599984       -16.3264
  41   2.0000      -0.571868       -15.5613
  42   2.0000      -0.567895       -15.4532
  43   2.0000      -0.546901       -14.8819
  44   2.0000      -0.539609       -14.6835
  45   2.0000      -0.532732       -14.4964
  46   2.0000      -0.515470       -14.0266
  47   2.0000      -0.511312       -13.9135
  48   2.0000      -0.506369       -13.7790
  49   2.0000      -0.499639       -13.5959
  50   2.0000      -0.484853       -13.1935
  51   2.0000      -0.478767       -13.0279
  52   2.0000      -0.468179       -12.7398
  53   2.0000      -0.464548       -12.6410
  54   2.0000      -0.458972       -12.4893
  55   2.0000      -0.447379       -12.1738
  56   2.0000      -0.444585       -12.0978
  57   2.0000      -0.441780       -12.0214
  58   2.0000      -0.431981       -11.7548
  59   2.0000      -0.424183       -11.5426
  60   2.0000      -0.419228       -11.4078
  61   2.0000      -0.409906       -11.1541
  62   2.0000      -0.403833       -10.9889
  63   2.0000      -0.359148        -9.7729
  64   2.0000      -0.332606        -9.0507
  65   2.0000      -0.324169        -8.8211
  66   2.0000      -0.284935        -7.7535
  67   0.0000       0.025605         0.6968
  68   0.0000       0.071838         1.9548
  69   0.0000       0.107277         2.9192
  70   0.0000       0.111495         3.0339
  71   0.0000       0.121895         3.3169

MULLIKEN ATOMIC CHARGES
-----------------------
   0 S :    0.128848
   1 C :   -0.108998
   2 C :   -0.107057
   3 C :    0.012702
   4 C :   -0.167843
   5 H :    0.042475
   6 C :    0.060493
   7 H :    0.001513
   8 H :    0.020131
   9 C :   -0.033227
  10 H :    0.026022
  11 H :    0.030370
  12 C :   -0.092779
  13 H :    0.040726
  14 H :    0.033963
  15 H :    0.026272
  16 S :    0.085944
  17 C :   -0.068418
  18 C :   -0.014868
  19 C :   -0.079423
  20 C :   -0.104581
  21 H :    0.017261
  22 C :    0.017219
  23 H :    0.039385
  24 H :    0.037528
  25 C :   -0.063548
  26 H :    0.052480
  27 H :    0.011926
  28 C :   -0.004902
  29 H :    0.001803
  30 H :    0.029986
  31 H :    0.020064
  32 H :    0.063430
  33 H :    0.045101
Sum of atomic charges:   -0.0000000

LOEWDIN ATOMIC CHARGES
----------------------
   0 S :    0.423913
   1 C :   -0.216924
   2 C :   -0.060316
   3 C :   -0.056741
   4 C :   -0.175552
   5 H :    0.041907
   6 C :   -0.052626
   7 H :    0.027167
   8 H :    0.039280
   9 C :   -0.036449
  10 H :    0.022426
  11 H :    0.027351
  12 C :   -0.074038
  13 H :    0.028071
  14 H :    0.026164
  15 H :    0.017138
  16 S :    0.381949
  17 C :   -0.168414
  18 C :   -0.073704
  19 C :   -0.057474
  20 C :   -0.200587
  21 H :    0.032211
  22 C :   -0.044615
  23 H :    0.035804
  24 H :    0.035830
  25 C :   -0.035820
  26 H :    0.037476
  27 H :    0.013522
  28 C :   -0.060685
  29 H :    0.022379
  30 H :    0.021677
  31 H :    0.020207
  32 H :    0.032012
  33 H :    0.027460

  Mayer bond orders larger than 0.100000
B(  0-S ,  1-C ) :   1.1675 B(  0-S ,  4-C ) :   1.1585 B(  1-C ,  2-C ) :   1.5633
B(  1-C , 32-H ) :   0.9706 B(  2-C ,  3-C ) :   1.2588 B(  2-C ,  6-C ) :   1.0293
B(  3-C ,  4-C ) :   1.5383 B(  3-C ,  5-H ) :   0.9804 B(  4-C , 20-C ) :   1.0426
B(  6-C ,  7-H ) :   0.9264 B(  6-C ,  8-H ) :   0.9376 B(  6-C ,  9-C ) :   1.0576
B(  9-C , 10-H ) :   0.9588 B(  9-C , 11-H ) :   0.9557 B(  9-C , 12-C ) :   1.0779
B( 12-C , 13-H ) :   0.9710 B( 12-C , 14-H ) :   0.9718 B( 12-C , 15-H ) :   0.9767
B( 16-S , 17-C ) :   1.1395 B( 16-S , 20-C ) :   1.1227 B( 17-C , 18-C ) :   1.6232
B( 17-C , 33-H ) :   0.9672 B( 18-C , 19-C ) :   1.2437 B( 18-C , 21-H ) :   0.9874
B( 19-C , 20-C ) :   1.5986 B( 19-C , 22-C ) :   1.0409 B( 22-C , 23-H ) :   0.9223
B( 22-C , 24-H ) :   0.9299 B( 22-C , 25-C ) :   1.0807 B( 25-C , 26-H ) :   0.9543
B( 25-C , 27-H ) :   0.9451 B( 25-C , 28-C ) :   1.0944 B( 28-C , 29-H ) :   0.9680
B( 28-C , 30-H ) :   0.9753 B( 28-C , 31-H ) :   0.9703

Dispersion correction           -0.014491656
FINAL SINGLE POINT ENERGY     -1339.858753260598

DIPOLE MOMENT
-------------
                                X             Y             Z
Electronic contribution:     20.85450      20.00052     -10.49148
Nuclear contribution   :    -21.18274     -20.62308      10.57010
                        -----------------------------------------
Total Dipole Moment    :     -0.32824      -0.62256       0.07862
                        -----------------------------------------
Magnitude (a.u.)       :      0.70817
Magnitude (Debye)      :      1.80002

Rotational constants in cm-1:     0.016705     0.009844     0.006817
Rotational constants in MHz :   500.812616   295.114921   204.353740

                             ****ORCA TERMINATED NORMALLY****
TOTAL RUN TIME: 0 days 0 hours 0 minutes 22 seconds 101 msec
