                         Program Version 4.2.1 -  RELEASE  -
|  1> ! wB97X-D3 SP def2-SVP
|  2> %pal
|  3> nprocs 24
|  4> end
|  5>
|  6> * xyz 0 1
|  7> S 	 -45.7706 	 9.90854 	 26.9171
|  8> C 	 -45.2307 	 11.2928 	 27.8494
|  9> C 	 -46.2871 	 12.0015 	 28.4793
| 10> C 	 -47.5337 	 11.4226 	 28.0821
| 11> C 	 -47.452 	 10.2788 	 27.2235
| 12> H 	 -48.4985 	 11.7195 	 28.5033
| 13> C 	 -46.0772 	 13.0789 	 29.4201
| 14> H 	 -45.0259 	 13.2354 	 29.695
| 15> H 	 -46.6716 	 12.8289 	 30.3645
| 16> C 	 -46.5684 	 14.4562 	 28.9516
| 17> H 	 -47.6396 	 14.4151 	 28.5791
| 18> H 	 -46.5787 	 15.2149 	 29.8151
| 19> C 	 -45.7588 	 15.0276 	 27.7613
| 20> H 	 -45.8825 	 16.0749 	 27.6129
| 21> H 	 -44.6624 	 14.922 	 27.9918
| 22> H 	 -46.0762 	 14.5016 	 26.8408
| 23> S 	 -48.7402 	 8.11346 	 28.0782
| 24> C 	 -50.2098 	 7.56349 	 27.1692
| 25> C 	 -50.5128 	 8.36563 	 26.0926
| 26> C 	 -49.5228 	 9.40472 	 25.9286
| 27> C 	 -48.4749 	 9.33479 	 26.8735
| 28> H 	 -51.4463 	 8.36399 	 25.6376
| 29> C 	 -49.6626 	 10.5671 	 24.945
| 30> H 	 -49.6913 	 10.1895 	 23.9498
| 31> H 	 -48.6885 	 11.0363 	 24.8707
| 32> C 	 -50.707 	 11.6263 	 25.2595
| 33> H 	 -51.7155 	 11.1319 	 25.1958
| 34> H 	 -50.7336 	 12.3363 	 24.4666
| 35> C 	 -50.4734 	 12.3265 	 26.5949
| 36> H 	 -50.3506 	 11.519 	 27.3639
| 37> H 	 -51.3498 	 12.9631 	 26.7713
| 38> H 	 -49.5438 	 12.9538 	 26.5339
| 39> H 	 -44.1406 	 11.5391 	 27.9453
| 40> H 	 -51.1054 	 7.02357 	 27.5765
| 41> *
| 42>
| 43>                          ****END OF INPUT****

CARTESIAN COORDINATES (ANGSTROEM)
---------------------------------
  S    -45.770600    9.908540   26.917100
  C    -45.230700   11.292800   27.849400
  C    -46.287100   12.001500   28.479300
  C    -47.533700   11.422600   28.082100
  C    -47.452000   10.278800   27.223500
  H    -48.498500   11.719500   28.503300
  C    -46.077200   13.078900   29.420100
  H    -45.025900   13.235400   29.695000
  H    -46.671600   12.828900   30.364500
  C    -46.568400   14.456200   28.951600
  H    -47.639600   14.415100   28.579100
  H    -46.578700   15.214900   29.815100
  C    -45.758800   15.027600   27.761300
  H    -45.882500   16.074900   27.612900
  H    -44.662400   14.922000   27.991800
  H    -46.076200   14.501600   26.840800
  S    -48.740200    8.113460   28.078200
  C    -50.209800    7.563490   27.169200
  C    -50.512800    8.365630   26.092600
  C    -49.522800    9.404720   25.928600
  C    -48.474900    9.334790   26.873500
  H    -51.446300    8.363990   25.637600
  C    -49.662600   10.567100   24.945000
  H    -49.691300   10.189500   23.949800
  H    -48.688500   11.036300   24.870700
  C    -50.707000   11.626300   25.259500
  H    -51.715500   11.131900   25.195800
  H    -50.733600   12.336300   24.466600
  C    -50.473400   12.326500   26.594900
  H    -50.350600   11.519000   27.363900
  H    -51.349800   12.963100   26.771300
  H    -49.543800   12.953800   26.533900
  H    -44.140600   11.539100   27.945300
  H    -51.105400    7.023570   27.576500

 Total Charge           Charge          ....    0
 Multiplicity           Mult            ....    1
 Number of Electrons    NEL             ....  134
 Basis Dimension        Dim             ....  322

ORBITAL ENERGIES
----------------

  NO   OCC          E(Eh)            E(eV)
   0   2.0000     -88.969026     -2420.9703
   1   2.0000     -88.967995     -2420.9422
   2   2.0000     -10.331287      -281.1286
   3   2.0000     -10.325687      -280.9762
   4   2.0000     -10.323060      -280.9047
   5   2.0000     -10.321052      -280.8501
   6   2.0000     -10.308330      -280.5039
   7   2.0000     -10.304503      -280.3998
   8   2.0000     -10.302275      -280.3392
   9   2.0000     -10.297746      -280.2159
  10   2.0000     -10.297529      -280.2100
  11   2.0000     -10.293631      -280.1039
  12   2.0000     -10.285973      -279.8955
  13   2.0000     -10.283312      -279.8231
  14   2.0000     -10.282795      -279.8091
  15   2.0000     -10.279373      -279.7160
  16   2.0000      -8.082898      -219.9468
  17   2.0000      -8.082468      -219.9351
  18   2.0000      -6.041515      -164.3980
  19   2.0000      -6.040799      -164.3785
  20   2.0000      -6.037618      -164.2919
  21   2.0000      -6.036862      -164.2714
  22   2.0000      -6.033592      -164.1824
  23   2.0000      -6.033460      -164.1788
  24   2.0000      -1.002763       -27.2866
  25   2.0000      -0.977443       -26.5976
  26   2.0000      -0.916641       -24.9431
  27   2.0000      -0.908453       -24.7203
  28   2.0000      -0.870266       -23.6812
  29   2.0000      -0.846871       -23.0445
  30   2.0000      -0.841182       -22.8897
  31   2.0000      -0.812548       -22.1106
  32   2.0000      -0.783434       -21.3183
  33   2.0000      -0.767807       -20.8931
  34   2.0000      -0.709390       -19.3035
  35   2.0000      -0.691276       -18.8106
  36   2.0000      -0.685169       -18.6444
  37   2.0000      -0.659873       -17.9560
  38   2.0000      -0.638323       -17.3697
  39   2.0000      -0.621020       -16.8988
  40   2.0000      -0.591455       -16.0943
  41   2.0000      -0.569523       -15.4975
  42   2.0000      -0.555720       -15.1219
  43   2.0000      -0.551381       -15.0038
  44   2.0000      -0.545032       -14.8311
  45   2.0000      -0.537486       -14.6257
  46   2.0000      -0.513481       -13.9725
  47   2.0000      -0.509807       -13.8726
  48   2.0000      -0.496328       -13.5058
  49   2.0000      -0.494270       -13.4498
  50   2.0000      -0.488829       -13.3017
  51   2.0000      -0.468557       -12.7501
  52   2.0000      -0.466409       -12.6916
  53   2.0000      -0.464263       -12.6332
  54   2.0000      -0.459033       -12.4909
  55   2.0000      -0.449671       -12.2362
  56   2.0000      -0.441947       -12.0260
  57   2.0000      -0.436564       -11.8795
  58   2.0000      -0.434961       -11.8359
  59   2.0000      -0.421787       -11.4774
  60   2.0000      -0.419194       -11.4069
  61   2.0000      -0.415027       -11.2935
  62   2.0000      -0.412341       -11.2204
  63   2.0000      -0.343002        -9.3336
  64   2.0000      -0.327664        -8.9162
  65   2.0000      -0.314808        -8.5664
  66   2.0000      -0.304503        -8.2859
  67   0.0000       0.039028         1.0620
  68   0.0000       0.041820         1.1380
  69   0.0000       0.103310         2.8112
  70   0.0000       0.108857         2.9621
  71   0.0000       0.127609         3.4724

MULLIKEN ATOMIC CHARGES
-----------------------
   0 S :    0.123450
   1 C :   -0.145358
   2 C :   -0.078829
   3 C :    0.048191
   4 C :   -0.194697
   5 H :    0.016956
   6 C :    0.062964
   7 H :    0.025156
   8 H :    0.050753
   9 C :   -0.137041
  10 H :    0.038728
  11 H :    0.041862
  12 C :   -0.056567
  13 H :    0.029483
  14 H :    0.026691
  15 H :    0.052458
  16 S :    0.117372
  17 C :   -0.095876
  18 C :   -0.014784
  19 C :   -0.069194
  20 C :   -0.165684
  21 H :    0.006087
  22 C :    0.094057
  23 H :    0.015954
  24 H :    0.010590
  25 C :   -0.058527
  26 H :    0.023465
  27 H :    0.019918
  28 C :   -0.075717
  29 H :    0.057010
  30 H :    0.040742
  31 H :    0.047189
  32 H :    0.067494
  33 H :    0.075704
Sum of atomic charges:   -0.0000000

LOEWDIN ATOMIC CHARGES
----------------------
   0 S :    0.418410
   1 C :   -0.203115
   2 C :   -0.069633
   3 C :   -0.052979
   4 C :   -0.214090
   5 H :    0.030149
   6 C :   -0.040516
   7 H :    0.033012
   8 H :    0.046679
   9 C :   -0.051479
  10 H :    0.025974
  11 H :    0.028441
  12 C :   -0.071185
  13 H :    0.021060
  14 H :    0.025903
  15 H :    0.031966
  16 S :    0.400805
  17 C :   -0.182070
  18 C :   -0.059695
  19 C :   -0.045205
  20 C :   -0.218634
  21 H :    0.023495
  22 C :   -0.038055
  23 H :    0.028046
  24 H :    0.030233
  25 C :   -0.039763
  26 H :    0.023364
  27 H :    0.019816
  28 C :   -0.067211
  29 H :    0.029516
  30 H :    0.028079
  31 H :    0.030542
  32 H :    0.034918
  33 H :    0.043222

  Mayer bond orders larger than 0.100000
B(  0-S ,  1-C ) :   1.1697 B(  0-S ,  4-C ) :   1.1648 B(  1-C ,  2-C ) :   1.5497
B(  1-C ,  4-C ) :   0.1092 B(  1-C , 32-H ) :   0.9605 B(  2-C ,  3-C ) :   1.2711
B(  2-C ,  6-C ) :   1.0514 B(  3-C ,  4-C ) :   1.5379 B(  3-C ,  5-H ) :   0.9848
B(  4-C , 20-C ) :   1.0232 B(  6-C ,  7-H ) :   0.9409 B(  6-C ,  8-H ) :   0.9289
B(  6-C ,  9-C ) :   1.0644 B(  9-C , 10-H ) :   0.9581 B(  9-C , 11-H ) :   0.9581
B(  9-C , 12-C ) :   1.0623 B( 12-C , 13-H ) :   0.9752 B( 12-C , 14-H ) :   0.9750
B( 12-C , 15-H ) :   0.9758 B( 16-S , 17-C ) :   1.1351 B( 16-S , 20-C ) :   1.1483
B( 17-C , 18-C ) :   1.6430 B( 17-C , 33-H ) :   0.9513 B( 18-C , 19-C ) :   1.2360
B( 18-C , 21-H ) :   0.9917 B( 19-C , 20-C ) :   1.5959 B( 19-C , 22-C ) :   1.0446
B( 22-C , 23-H ) :   0.9305 B( 22-C , 24-H ) :   0.9240 B( 22-C , 25-C ) :   1.0709
B( 25-C , 26-H ) :   0.9558 B( 25-C , 27-H ) :   0.9508 B( 25-C , 28-C ) :   1.0749
B( 28-C , 29-H ) :   0.9691 B( 28-C , 30-H ) :   0.9686 B( 28-C , 31-H ) :   0.9701

Dispersion correction           -0.016150637
FINAL SINGLE POINT ENERGY     -1339.869825636648

DIPOLE MOMENT
-------------
                                X             Y             Z
Electronic contribution:      5.91417     -26.66905       1.15105
Nuclear contribution   :     -6.30619      27.33210      -1.06398
                        -----------------------------------------
Total Dipole Moment    :     -0.39202       0.66305       0.08708
                        -----------------------------------------
Magnitude (a.u.)       :      0.77517
Magnitude (Debye)      :      1.97032

Rotational constants in cm-1:     0.020691     0.009346     0.007599
Rotational constants in MHz :   620.296667   280.188971   227.811377

                             ****ORCA TERMINATED NORMALLY****
TOTAL RUN TIME: 0 days 0 hours 0 minutes 22 seconds 879 msec
