                         Program Version 4.2.1 -  RELEASE  -
|  1> ! wB97X-D3 SP def2-SVP
|  2> %pal
|  3> nprocs 24
|  4> end
|  5>
|  6> * xyz 0 1
|  7> S 	 -53.5321 	 -46.8688 	 -77.4762
|  8> C 	 -53.8298 	 -45.3458 	 -76.7059
|  9> C 	 -53.0297 	 -44.3609 	 -77.2534
| 10> C 	 -52.3508 	 -44.878 	 -78.3985
| 11> C 	 -52.3313 	 -46.2288 	 -78.5287
| 12> H 	 -51.7942 	 -44.2977 	 -79.0934
| 13> C 	 -52.9195 	 -42.9132 	 -76.7801
| 14> H 	 -52.4802 	 -42.2794 	 -77.6521
| 15> H 	 -52.1395 	 -42.7001 	 -76.0023
| 16> C 	 -54.2628 	 -42.2391 	 -76.4229
| 17> H 	 -54.8197 	 -42.123 	 -77.3387
| 18> H 	 -54.7466 	 -42.8116 	 -75.5784
| 19> C 	 -54.0544 	 -40.8213 	 -75.8441
| 20> H 	 -53.6996 	 -40.2493 	 -76.7391
| 21> H 	 -55.0058 	 -40.4147 	 -75.5057
| 22> H 	 -53.3436 	 -40.8009 	 -74.9134
| 23> S 	 -51.8484 	 -48.8239 	 -79.2801
| 24> C 	 -50.7233 	 -49.147 	 -80.5092
| 25> C 	 -50.0756 	 -48.0441 	 -80.9294
| 26> C 	 -50.4665 	 -46.8406 	 -80.3162
| 27> C 	 -51.4811 	 -47.0866 	 -79.3608
| 28> H 	 -49.2131 	 -48.1925 	 -81.5646
| 29> C 	 -49.7378 	 -45.5745 	 -80.5778
| 30> H 	 -50.5433 	 -44.8236 	 -80.7205
| 31> H 	 -49.1096 	 -45.7421 	 -81.4068
| 32> C 	 -48.7727 	 -44.9728 	 -79.5329
| 33> H 	 -49.2064 	 -44.9012 	 -78.5457
| 34> H 	 -48.4629 	 -43.9625 	 -79.8076
| 35> C 	 -47.5508 	 -45.7864 	 -79.3602
| 36> H 	 -46.9759 	 -45.8878 	 -80.2549
| 37> H 	 -47.8328 	 -46.8909 	 -79.0491
| 38> H 	 -46.9152 	 -45.3517 	 -78.6266
| 39> H 	 -54.5597 	 -45.1735 	 -75.8641
| 40> H 	 -50.5209 	 -50.1044 	 -80.9639
| 41> *
| 42>
| 43>                          ****END OF INPUT****

CARTESIAN COORDINATES (ANGSTROEM)
---------------------------------
  S    -53.532100  -46.868800  -77.476200
  C    -53.829800  -45.345800  -76.705900
  C    -53.029700  -44.360900  -77.253400
  C    -52.350800  -44.878000  -78.398500
  C    -52.331300  -46.228800  -78.528700
  H    -51.794200  -44.297700  -79.093400
  C    -52.919500  -42.913200  -76.780100
  H    -52.480200  -42.279400  -77.652100
  H    -52.139500  -42.700100  -76.002300
  C    -54.262800  -42.239100  -76.422900
  H    -54.819700  -42.123000  -77.338700
  H    -54.746600  -42.811600  -75.578400
  C    -54.054400  -40.821300  -75.844100
  H    -53.699600  -40.249300  -76.739100
  H    -55.005800  -40.414700  -75.505700
  H    -53.343600  -40.800900  -74.913400
  S    -51.848400  -48.823900  -79.280100
  C    -50.723300  -49.147000  -80.509200
  C    -50.075600  -48.044100  -80.929400
  C    -50.466500  -46.840600  -80.316200
  C    -51.481100  -47.086600  -79.360800
  H    -49.213100  -48.192500  -81.564600
  C    -49.737800  -45.574500  -80.577800
  H    -50.543300  -44.823600  -80.720500
  H    -49.109600  -45.742100  -81.406800
  C    -48.772700  -44.972800  -79.532900
  H    -49.206400  -44.901200  -78.545700
  H    -48.462900  -43.962500  -79.807600
  C    -47.550800  -45.786400  -79.360200
  H    -46.975900  -45.887800  -80.254900
  H    -47.832800  -46.890900  -79.049100
  H    -46.915200  -45.351700  -78.626600
  H    -54.559700  -45.173500  -75.864100
  H    -50.520900  -50.104400  -80.963900

 Total Charge           Charge          ....    0
 Multiplicity           Mult            ....    1
 Number of Electrons    NEL             ....  134
 Basis Dimension        Dim             ....  322

ORBITAL ENERGIES
----------------

  NO   OCC          E(Eh)            E(eV)
   0   2.0000     -88.967867     -2420.9387
   1   2.0000     -88.963533     -2420.8208
   2   2.0000     -10.334095      -281.2050
   3   2.0000     -10.326592      -281.0009
   4   2.0000     -10.316186      -280.7177
   5   2.0000     -10.310396      -280.5602
   6   2.0000     -10.305004      -280.4134
   7   2.0000     -10.304513      -280.4001
   8   2.0000     -10.302838      -280.3545
   9   2.0000     -10.292704      -280.0787
  10   2.0000     -10.291280      -280.0400
  11   2.0000     -10.290898      -280.0296
  12   2.0000     -10.286591      -279.9124
  13   2.0000     -10.286183      -279.9013
  14   2.0000     -10.282416      -279.7988
  15   2.0000     -10.274530      -279.5842
  16   2.0000      -8.083239      -219.9561
  17   2.0000      -8.079196      -219.8461
  18   2.0000      -6.041677      -164.4024
  19   2.0000      -6.037772      -164.2961
  20   2.0000      -6.037668      -164.2933
  21   2.0000      -6.034045      -164.1947
  22   2.0000      -6.033577      -164.1820
  23   2.0000      -6.029834      -164.0801
  24   2.0000      -1.014870       -27.6160
  25   2.0000      -0.993376       -27.0311
  26   2.0000      -0.919735       -25.0273
  27   2.0000      -0.909633       -24.7524
  28   2.0000      -0.871331       -23.7101
  29   2.0000      -0.861121       -23.4323
  30   2.0000      -0.846149       -23.0249
  31   2.0000      -0.817005       -22.2318
  32   2.0000      -0.784600       -21.3500
  33   2.0000      -0.769698       -20.9446
  34   2.0000      -0.709543       -19.3077
  35   2.0000      -0.694133       -18.8883
  36   2.0000      -0.686633       -18.6842
  37   2.0000      -0.666936       -18.1482
  38   2.0000      -0.635608       -17.2958
  39   2.0000      -0.619795       -16.8655
  40   2.0000      -0.597561       -16.2605
  41   2.0000      -0.576019       -15.6743
  42   2.0000      -0.567343       -15.4382
  43   2.0000      -0.561977       -15.2922
  44   2.0000      -0.552821       -15.0430
  45   2.0000      -0.524023       -14.2594
  46   2.0000      -0.518449       -14.1077
  47   2.0000      -0.508472       -13.8362
  48   2.0000      -0.504634       -13.7318
  49   2.0000      -0.495486       -13.4829
  50   2.0000      -0.493405       -13.4262
  51   2.0000      -0.481733       -13.1086
  52   2.0000      -0.476928       -12.9779
  53   2.0000      -0.470139       -12.7931
  54   2.0000      -0.456521       -12.4226
  55   2.0000      -0.447808       -12.1855
  56   2.0000      -0.439200       -11.9512
  57   2.0000      -0.434835       -11.8325
  58   2.0000      -0.432666       -11.7734
  59   2.0000      -0.429419       -11.6851
  60   2.0000      -0.420497       -11.4423
  61   2.0000      -0.415710       -11.3121
  62   2.0000      -0.408269       -11.1096
  63   2.0000      -0.364192        -9.9102
  64   2.0000      -0.337119        -9.1735
  65   2.0000      -0.325823        -8.8661
  66   2.0000      -0.279117        -7.5952
  67   0.0000       0.017654         0.4804
  68   0.0000       0.090197         2.4544
  69   0.0000       0.096844         2.6352
  70   0.0000       0.121733         3.3125
  71   0.0000       0.131928         3.5899

MULLIKEN ATOMIC CHARGES
-----------------------
   0 S :    0.094565
   1 C :   -0.132945
   2 C :   -0.055716
   3 C :   -0.006072
   4 C :   -0.082049
   5 H :   -0.021823
   6 C :    0.007578
   7 H :    0.024700
   8 H :    0.048425
   9 C :   -0.105928
  10 H :    0.045697
  11 H :    0.042073
  12 C :   -0.084128
  13 H :    0.039219
  14 H :    0.038785
  15 H :    0.049759
  16 S :    0.102129
  17 C :   -0.068306
  18 C :   -0.043304
  19 C :   -0.065558
  20 C :   -0.122268
  21 H :    0.014288
  22 C :    0.074416
  23 H :    0.042922
  24 H :    0.001612
  25 C :   -0.031527
  26 H :    0.030256
  27 H :    0.023656
  28 C :   -0.076042
  29 H :    0.014833
  30 H :    0.050623
  31 H :    0.029569
  32 H :    0.070675
  33 H :    0.049887
Sum of atomic charges:    0.0000000

LOEWDIN ATOMIC CHARGES
----------------------
   0 S :    0.413709
   1 C :   -0.208022
   2 C :   -0.067005
   3 C :   -0.072145
   4 C :   -0.196189
   5 H :    0.019263
   6 C :   -0.043697
   7 H :    0.035096
   8 H :    0.035708
   9 C :   -0.045472
  10 H :    0.028012
  11 H :    0.025804
  12 C :   -0.075347
  13 H :    0.028597
  14 H :    0.023505
  15 H :    0.034974
  16 S :    0.416679
  17 C :   -0.195811
  18 C :   -0.079498
  19 C :   -0.055650
  20 C :   -0.179564
  21 H :    0.032302
  22 C :   -0.028569
  23 H :    0.036796
  24 H :    0.025564
  25 C :   -0.039009
  26 H :    0.024568
  27 H :    0.025578
  28 C :   -0.068373
  29 H :    0.014238
  30 H :    0.038855
  31 H :    0.022199
  32 H :    0.041063
  33 H :    0.031843

  Mayer bond orders larger than 0.100000
B(  0-S ,  1-C ) :   1.1386 B(  0-S ,  4-C ) :   1.1429 B(  1-C ,  2-C ) :   1.6063
B(  1-C , 32-H ) :   0.9619 B(  2-C ,  3-C ) :   1.2597 B(  2-C ,  6-C ) :   1.0089
B(  3-C ,  4-C ) :   1.5750 B(  3-C ,  5-H ) :   0.9925 B(  4-C , 20-C ) :   1.0828
B(  6-C ,  7-H ) :   0.9451 B(  6-C ,  8-H ) :   0.9408 B(  6-C ,  9-C ) :   1.0613
B(  9-C , 10-H ) :   0.9605 B(  9-C , 11-H ) :   0.9525 B(  9-C , 12-C ) :   1.0795
B( 12-C , 13-H ) :   0.9751 B( 12-C , 14-H ) :   0.9743 B( 12-C , 15-H ) :   0.9729
B( 16-S , 17-C ) :   1.1645 B( 16-S , 20-C ) :   1.1438 B( 17-C , 18-C ) :   1.6144
B( 17-C , 33-H ) :   0.9615 B( 18-C , 19-C ) :   1.2664 B( 18-C , 21-H ) :   0.9868
B( 19-C , 20-C ) :   1.5393 B( 19-C , 22-C ) :   1.0596 B( 22-C , 23-H ) :   0.9210
B( 22-C , 24-H ) :   0.9263 B( 22-C , 25-C ) :   1.0753 B( 25-C , 26-H ) :   0.9501
B( 25-C , 27-H ) :   0.9495 B( 25-C , 28-C ) :   1.0902 B( 28-C , 29-H ) :   0.9725
B( 28-C , 30-H ) :   0.9730 B( 28-C , 31-H ) :   0.9702

Dispersion correction           -0.013975151
FINAL SINGLE POINT ENERGY     -1339.868120859537

DIPOLE MOMENT
-------------
                                X             Y             Z
Electronic contribution:    -10.18060     -26.88893      -3.72749
Nuclear contribution   :     10.57241      27.42275       3.63095
                        -----------------------------------------
Total Dipole Moment    :      0.39181       0.53382      -0.09654
                        -----------------------------------------
Magnitude (a.u.)       :      0.66918
Magnitude (Debye)      :      1.70093

Rotational constants in cm-1:     0.021611     0.007918     0.006093
Rotational constants in MHz :   647.873018   237.367116   182.677568

                             ****ORCA TERMINATED NORMALLY****
TOTAL RUN TIME: 0 days 0 hours 0 minutes 21 seconds 658 msec
