                         Program Version 4.2.1 -  RELEASE  -
|  1> ! wB97X-D3 SP def2-SVP
|  2> %pal
|  3> nprocs 24
|  4> end
|  5>
|  6> * xyz 0 1
|  7> S 	 -40.3671 	 -49.1058 	 -74.626
|  8> C 	 -40.2537 	 -47.4733 	 -75.266
|  9> C 	 -39.3511 	 -46.7056 	 -74.5714
| 10> C 	 -38.6096 	 -47.4523 	 -73.6443
| 11> C 	 -39.0192 	 -48.8022 	 -73.5514
| 12> H 	 -37.8138 	 -47.1012 	 -73.0171
| 13> C 	 -39.1507 	 -45.2052 	 -74.7061
| 14> H 	 -40.0417 	 -44.8183 	 -75.2065
| 15> H 	 -38.321 	 -44.9885 	 -75.4379
| 16> C 	 -38.8992 	 -44.3738 	 -73.4489
| 17> H 	 -38.0933 	 -44.7686 	 -72.843
| 18> H 	 -38.6016 	 -43.3339 	 -73.6465
| 19> C 	 -40.2109 	 -44.2199 	 -72.6511
| 20> H 	 -40.7759 	 -43.4249 	 -73.1417
| 21> H 	 -40.7301 	 -45.161 	 -72.4575
| 22> H 	 -39.9602 	 -43.8334 	 -71.7073
| 23> S 	 -39.5741 	 -50.3757 	 -71.4535
| 24> C 	 -38.2872 	 -51.3536 	 -70.7688
| 25> C 	 -37.0681 	 -51.0933 	 -71.3389
| 26> C 	 -37.1856 	 -50.2045 	 -72.4592
| 27> C 	 -38.4423 	 -49.7366 	 -72.5877
| 28> H 	 -36.1888 	 -51.5814 	 -70.9966
| 29> C 	 -35.931 	 -49.7437 	 -73.1686
| 30> H 	 -35.0732 	 -50.3009 	 -72.7955
| 31> H 	 -35.5872 	 -48.7695 	 -72.8405
| 32> C 	 -35.9821 	 -49.8516 	 -74.7067
| 33> H 	 -36.6634 	 -49.103 	 -75.1104
| 34> H 	 -36.3585 	 -50.7776 	 -75.1317
| 35> C 	 -34.6121 	 -49.6885 	 -75.343
| 36> H 	 -34.7035 	 -49.54 	 -76.4488
| 37> H 	 -34.0708 	 -50.6083 	 -75.0832
| 38> H 	 -34.0762 	 -48.7976 	 -74.949
| 39> H 	 -40.8893 	 -47.2447 	 -76.0699
| 40> H 	 -38.4561 	 -52.1383 	 -70.003
| 41> *
| 42>
| 43>                          ****END OF INPUT****

CARTESIAN COORDINATES (ANGSTROEM)
---------------------------------
  S    -40.367100  -49.105800  -74.626000
  C    -40.253700  -47.473300  -75.266000
  C    -39.351100  -46.705600  -74.571400
  C    -38.609600  -47.452300  -73.644300
  C    -39.019200  -48.802200  -73.551400
  H    -37.813800  -47.101200  -73.017100
  C    -39.150700  -45.205200  -74.706100
  H    -40.041700  -44.818300  -75.206500
  H    -38.321000  -44.988500  -75.437900
  C    -38.899200  -44.373800  -73.448900
  H    -38.093300  -44.768600  -72.843000
  H    -38.601600  -43.333900  -73.646500
  C    -40.210900  -44.219900  -72.651100
  H    -40.775900  -43.424900  -73.141700
  H    -40.730100  -45.161000  -72.457500
  H    -39.960200  -43.833400  -71.707300
  S    -39.574100  -50.375700  -71.453500
  C    -38.287200  -51.353600  -70.768800
  C    -37.068100  -51.093300  -71.338900
  C    -37.185600  -50.204500  -72.459200
  C    -38.442300  -49.736600  -72.587700
  H    -36.188800  -51.581400  -70.996600
  C    -35.931000  -49.743700  -73.168600
  H    -35.073200  -50.300900  -72.795500
  H    -35.587200  -48.769500  -72.840500
  C    -35.982100  -49.851600  -74.706700
  H    -36.663400  -49.103000  -75.110400
  H    -36.358500  -50.777600  -75.131700
  C    -34.612100  -49.688500  -75.343000
  H    -34.703500  -49.540000  -76.448800
  H    -34.070800  -50.608300  -75.083200
  H    -34.076200  -48.797600  -74.949000
  H    -40.889300  -47.244700  -76.069900
  H    -38.456100  -52.138300  -70.003000

 Total Charge           Charge          ....    0
 Multiplicity           Mult            ....    1
 Number of Electrons    NEL             ....  134
 Basis Dimension        Dim             ....  322

ORBITAL ENERGIES
----------------

  NO   OCC          E(Eh)            E(eV)
   0   2.0000     -88.968287     -2420.9502
   1   2.0000     -88.963699     -2420.8253
   2   2.0000     -10.328188      -281.0443
   3   2.0000     -10.318333      -280.7761
   4   2.0000     -10.315925      -280.7106
   5   2.0000     -10.311763      -280.5973
   6   2.0000     -10.300868      -280.3009
   7   2.0000     -10.297104      -280.1985
   8   2.0000     -10.294378      -280.1243
   9   2.0000     -10.291160      -280.0367
  10   2.0000     -10.290729      -280.0250
  11   2.0000     -10.289532      -279.9924
  12   2.0000     -10.287404      -279.9345
  13   2.0000     -10.278428      -279.6902
  14   2.0000     -10.277336      -279.6605
  15   2.0000     -10.270091      -279.4634
  16   2.0000      -8.082773      -219.9434
  17   2.0000      -8.079134      -219.8444
  18   2.0000      -6.041119      -164.3872
  19   2.0000      -6.037562      -164.2904
  20   2.0000      -6.037306      -164.2835
  21   2.0000      -6.033744      -164.1865
  22   2.0000      -6.033664      -164.1843
  23   2.0000      -6.029821      -164.0798
  24   2.0000      -1.009652       -27.4740
  25   2.0000      -0.986216       -26.8363
  26   2.0000      -0.910895       -24.7867
  27   2.0000      -0.906820       -24.6758
  28   2.0000      -0.869591       -23.6628
  29   2.0000      -0.852513       -23.1981
  30   2.0000      -0.847974       -23.0745
  31   2.0000      -0.811847       -22.0915
  32   2.0000      -0.780968       -21.2512
  33   2.0000      -0.771222       -20.9860
  34   2.0000      -0.706645       -19.2288
  35   2.0000      -0.697972       -18.9928
  36   2.0000      -0.688012       -18.7218
  37   2.0000      -0.663840       -18.0640
  38   2.0000      -0.644567       -17.5396
  39   2.0000      -0.621791       -16.9198
  40   2.0000      -0.598839       -16.2952
  41   2.0000      -0.564772       -15.3682
  42   2.0000      -0.558446       -15.1961
  43   2.0000      -0.552827       -15.0432
  44   2.0000      -0.541830       -14.7439
  45   2.0000      -0.525463       -14.2986
  46   2.0000      -0.522154       -14.2085
  47   2.0000      -0.506357       -13.7787
  48   2.0000      -0.504016       -13.7150
  49   2.0000      -0.495773       -13.4907
  50   2.0000      -0.491510       -13.3747
  51   2.0000      -0.481500       -13.1023
  52   2.0000      -0.466202       -12.6860
  53   2.0000      -0.462455       -12.5840
  54   2.0000      -0.458178       -12.4677
  55   2.0000      -0.449197       -12.2233
  56   2.0000      -0.444768       -12.1028
  57   2.0000      -0.434172       -11.8144
  58   2.0000      -0.430592       -11.7170
  59   2.0000      -0.426244       -11.5987
  60   2.0000      -0.422498       -11.4967
  61   2.0000      -0.416283       -11.3276
  62   2.0000      -0.407947       -11.1008
  63   2.0000      -0.339967        -9.2510
  64   2.0000      -0.332442        -9.0462
  65   2.0000      -0.330413        -8.9910
  66   2.0000      -0.295025        -8.0280
  67   0.0000       0.035013         0.9528
  68   0.0000       0.067559         1.8384
  69   0.0000       0.109463         2.9786
  70   0.0000       0.127348         3.4653
  71   0.0000       0.131462         3.5773

MULLIKEN ATOMIC CHARGES
-----------------------
   0 S :    0.118603
   1 C :   -0.136020
   2 C :   -0.034004
   3 C :    0.021285
   4 C :   -0.162976
   5 H :    0.007235
   6 C :    0.069211
   7 H :    0.012151
   8 H :    0.045943
   9 C :   -0.086594
  10 H :    0.027744
  11 H :    0.027181
  12 C :   -0.039720
  13 H :    0.032999
  14 H :    0.049705
  15 H :    0.012409
  16 S :    0.110718
  17 C :   -0.104695
  18 C :   -0.020521
  19 C :   -0.007050
  20 C :   -0.177653
  21 H :    0.007496
  22 C :    0.081332
  23 H :   -0.005436
  24 H :    0.025222
  25 C :   -0.078402
  26 H :    0.040297
  27 H :    0.026787
  28 C :   -0.069993
  29 H :    0.043451
  30 H :    0.036900
  31 H :    0.028403
  32 H :    0.033347
  33 H :    0.064645
Sum of atomic charges:    0.0000000

LOEWDIN ATOMIC CHARGES
----------------------
   0 S :    0.409024
   1 C :   -0.184707
   2 C :   -0.064906
   3 C :   -0.058106
   4 C :   -0.198219
   5 H :    0.028334
   6 C :   -0.035571
   7 H :    0.028201
   8 H :    0.037844
   9 C :   -0.041697
  10 H :    0.017927
  11 H :    0.029413
  12 C :   -0.060874
  13 H :    0.027485
  14 H :    0.029040
  15 H :    0.017509
  16 S :    0.409783
  17 C :   -0.185524
  18 C :   -0.064295
  19 C :   -0.058977
  20 C :   -0.201836
  21 H :    0.027304
  22 C :   -0.029111
  23 H :    0.026647
  24 H :    0.030890
  25 C :   -0.044232
  26 H :    0.024001
  27 H :    0.025676
  28 C :   -0.069863
  29 H :    0.031581
  30 H :    0.024916
  31 H :    0.022399
  32 H :    0.016077
  33 H :    0.033868

  Mayer bond orders larger than 0.100000
B(  0-S ,  1-C ) :   1.1469 B(  0-S ,  4-C ) :   1.1677 B(  1-C ,  2-C ) :   1.5729
B(  1-C ,  4-C ) :   0.1052 B(  1-C , 32-H ) :   0.9821 B(  2-C ,  3-C ) :   1.2584
B(  2-C ,  6-C ) :   1.0155 B(  3-C ,  4-C ) :   1.5400 B(  3-C ,  5-H ) :   0.9993
B(  4-C , 20-C ) :   1.0274 B(  6-C ,  7-H ) :   0.9424 B(  6-C ,  8-H ) :   0.9328
B(  6-C ,  9-C ) :   1.0765 B(  9-C , 10-H ) :   0.9561 B(  9-C , 11-H ) :   0.9541
B(  9-C , 12-C ) :   1.0756 B( 12-C , 13-H ) :   0.9764 B( 12-C , 14-H ) :   0.9790
B( 12-C , 15-H ) :   0.9719 B( 16-S , 17-C ) :   1.1427 B( 16-S , 20-C ) :   1.1422
B( 17-C , 18-C ) :   1.6346 B( 17-C , 33-H ) :   0.9624 B( 18-C , 19-C ) :   1.2163
B( 18-C , 21-H ) :   0.9937 B( 19-C , 20-C ) :   1.6461 B( 19-C , 22-C ) :   1.0378
B( 22-C , 23-H ) :   0.9329 B( 22-C , 24-H ) :   0.9298 B( 22-C , 25-C ) :   1.0484
B( 25-C , 26-H ) :   0.9519 B( 25-C , 27-H ) :   0.9614 B( 25-C , 28-C ) :   1.0866
B( 28-C , 29-H ) :   0.9733 B( 28-C , 30-H ) :   0.9768 B( 28-C , 31-H ) :   0.9728

Dispersion correction           -0.014746603
FINAL SINGLE POINT ENERGY     -1339.886881968558

DIPOLE MOMENT
-------------
                                X             Y             Z
Electronic contribution:    -15.59504     -17.07780       6.02033
Nuclear contribution   :     16.02649      17.46343      -6.02853
                        -----------------------------------------
Total Dipole Moment    :      0.43145       0.38563      -0.00819
                        -----------------------------------------
Magnitude (a.u.)       :      0.57873
Magnitude (Debye)      :      1.47101

Rotational constants in cm-1:     0.016876     0.009408     0.007890
Rotational constants in MHz :   505.928181   282.048106   236.529463

                             ****ORCA TERMINATED NORMALLY****
TOTAL RUN TIME: 0 days 0 hours 0 minutes 22 seconds 206 msec
