                         Program Version 4.2.1 -  RELEASE  -
|  1> ! wB97X-D3 SP def2-SVP
|  2> %pal
|  3> nprocs 24
|  4> end
|  5>
|  6> * xyz 0 1
|  7> S 	 -108.633 	 -0.323077 	 -108.546
|  8> C 	 -108.704 	 1.21973 	 -107.733
|  9> C 	 -107.716 	 2.02584 	 -108.16
| 10> C 	 -106.857 	 1.43538 	 -109.051
| 11> C 	 -107.195 	 0.120822 	 -109.405
| 12> H 	 -105.854 	 1.76691 	 -109.466
| 13> C 	 -107.432 	 3.31097 	 -107.525
| 14> H 	 -108.384 	 3.85352 	 -107.391
| 15> H 	 -106.866 	 3.86269 	 -108.226
| 16> C 	 -106.596 	 3.27737 	 -106.186
| 17> H 	 -106.179 	 4.26433 	 -105.977
| 18> H 	 -107.197 	 3.05562 	 -105.346
| 19> C 	 -105.369 	 2.31559 	 -106.13
| 20> H 	 -104.867 	 2.11925 	 -105.153
| 21> H 	 -105.701 	 1.30594 	 -106.352
| 22> H 	 -104.567 	 2.60241 	 -106.73
| 23> S 	 -104.776 	 -1.22866 	 -109.546
| 24> C 	 -104.232 	 -2.08155 	 -111.037
| 25> C 	 -105.199 	 -2.14015 	 -111.969
| 26> C 	 -106.377 	 -1.44439 	 -111.473
| 27> C 	 -106.312 	 -0.809417 	 -110.226
| 28> H 	 -104.977 	 -2.51228 	 -112.921
| 29> C 	 -107.582 	 -1.40332 	 -112.4
| 30> H 	 -108.378 	 -1.15177 	 -111.675
| 31> H 	 -107.78 	 -2.3964 	 -112.689
| 32> C 	 -107.468 	 -0.624843 	 -113.674
| 33> H 	 -108.335 	 -0.859879 	 -114.316
| 34> H 	 -106.566 	 -0.949297 	 -114.174
| 35> C 	 -107.216 	 0.864301 	 -113.394
| 36> H 	 -107.48 	 1.33458 	 -114.365
| 37> H 	 -106.138 	 1.00142 	 -113.244
| 38> H 	 -107.816 	 1.18359 	 -112.513
| 39> H 	 -109.184 	 1.37993 	 -106.849
| 40> H 	 -103.216 	 -2.40303 	 -111.15
| 41> *
| 42>
| 43>                          ****END OF INPUT****

CARTESIAN COORDINATES (ANGSTROEM)
---------------------------------
  S    -108.633000   -0.323077  -108.546000
  C    -108.704000    1.219730  -107.733000
  C    -107.716000    2.025840  -108.160000
  C    -106.857000    1.435380  -109.051000
  C    -107.195000    0.120822  -109.405000
  H    -105.854000    1.766910  -109.466000
  C    -107.432000    3.310970  -107.525000
  H    -108.384000    3.853520  -107.391000
  H    -106.866000    3.862690  -108.226000
  C    -106.596000    3.277370  -106.186000
  H    -106.179000    4.264330  -105.977000
  H    -107.197000    3.055620  -105.346000
  C    -105.369000    2.315590  -106.130000
  H    -104.867000    2.119250  -105.153000
  H    -105.701000    1.305940  -106.352000
  H    -104.567000    2.602410  -106.730000
  S    -104.776000   -1.228660  -109.546000
  C    -104.232000   -2.081550  -111.037000
  C    -105.199000   -2.140150  -111.969000
  C    -106.377000   -1.444390  -111.473000
  C    -106.312000   -0.809417  -110.226000
  H    -104.977000   -2.512280  -112.921000
  C    -107.582000   -1.403320  -112.400000
  H    -108.378000   -1.151770  -111.675000
  H    -107.780000   -2.396400  -112.689000
  C    -107.468000   -0.624843  -113.674000
  H    -108.335000   -0.859879  -114.316000
  H    -106.566000   -0.949297  -114.174000
  C    -107.216000    0.864301  -113.394000
  H    -107.480000    1.334580  -114.365000
  H    -106.138000    1.001420  -113.244000
  H    -107.816000    1.183590  -112.513000
  H    -109.184000    1.379930  -106.849000
  H    -103.216000   -2.403030  -111.150000

 Total Charge           Charge          ....    0
 Multiplicity           Mult            ....    1
 Number of Electrons    NEL             ....  134
 Basis Dimension        Dim             ....  322

ORBITAL ENERGIES
----------------

  NO   OCC          E(Eh)            E(eV)
   0   2.0000     -88.969667     -2420.9877
   1   2.0000     -88.960864     -2420.7482
   2   2.0000     -10.337329      -281.2930
   3   2.0000     -10.334037      -281.2034
   4   2.0000     -10.318571      -280.7826
   5   2.0000     -10.305605      -280.4298
   6   2.0000     -10.304059      -280.3877
   7   2.0000     -10.296569      -280.1839
   8   2.0000     -10.292525      -280.0739
   9   2.0000     -10.290243      -280.0117
  10   2.0000     -10.289342      -279.9872
  11   2.0000     -10.289239      -279.9844
  12   2.0000     -10.279942      -279.7314
  13   2.0000     -10.276238      -279.6307
  14   2.0000     -10.274084      -279.5721
  15   2.0000     -10.272528      -279.5297
  16   2.0000      -8.084382      -219.9872
  17   2.0000      -8.075420      -219.7433
  18   2.0000      -6.042729      -164.4310
  19   2.0000      -6.038731      -164.3222
  20   2.0000      -6.035457      -164.2331
  21   2.0000      -6.034014      -164.1939
  22   2.0000      -6.029924      -164.0826
  23   2.0000      -6.026112      -163.9788
  24   2.0000      -1.011686       -27.5294
  25   2.0000      -0.989556       -26.9272
  26   2.0000      -0.912778       -24.8380
  27   2.0000      -0.909595       -24.7513
  28   2.0000      -0.871248       -23.7079
  29   2.0000      -0.850740       -23.1498
  30   2.0000      -0.837380       -22.7863
  31   2.0000      -0.824291       -22.4301
  32   2.0000      -0.786063       -21.3899
  33   2.0000      -0.768843       -20.9213
  34   2.0000      -0.711248       -19.3540
  35   2.0000      -0.706304       -19.2195
  36   2.0000      -0.689332       -18.7577
  37   2.0000      -0.661849       -18.0098
  38   2.0000      -0.642557       -17.4849
  39   2.0000      -0.616501       -16.7758
  40   2.0000      -0.592982       -16.1359
  41   2.0000      -0.581743       -15.8300
  42   2.0000      -0.556458       -15.1420
  43   2.0000      -0.548963       -14.9380
  44   2.0000      -0.542857       -14.7719
  45   2.0000      -0.541653       -14.7391
  46   2.0000      -0.522183       -14.2093
  47   2.0000      -0.517022       -14.0689
  48   2.0000      -0.508579       -13.8391
  49   2.0000      -0.501029       -13.6337
  50   2.0000      -0.484446       -13.1824
  51   2.0000      -0.476995       -12.9797
  52   2.0000      -0.470424       -12.8009
  53   2.0000      -0.463363       -12.6087
  54   2.0000      -0.449851       -12.2411
  55   2.0000      -0.445331       -12.1181
  56   2.0000      -0.444963       -12.1080
  57   2.0000      -0.440300       -11.9812
  58   2.0000      -0.433250       -11.7893
  59   2.0000      -0.419350       -11.4111
  60   2.0000      -0.417317       -11.3558
  61   2.0000      -0.410646       -11.1742
  62   2.0000      -0.399481       -10.8704
  63   2.0000      -0.345212        -9.3937
  64   2.0000      -0.337034        -9.1712
  65   2.0000      -0.325262        -8.8508
  66   2.0000      -0.302160        -8.2222
  67   0.0000       0.035408         0.9635
  68   0.0000       0.059797         1.6272
  69   0.0000       0.115853         3.1525
  70   0.0000       0.118431         3.2227
  71   0.0000       0.125999         3.4286

MULLIKEN ATOMIC CHARGES
-----------------------
   0 S :    0.121503
   1 C :   -0.086054
   2 C :   -0.082491
   3 C :    0.003931
   4 C :   -0.163452
   5 H :    0.038405
   6 C :    0.094306
   7 H :    0.036480
   8 H :    0.010390
   9 C :   -0.043536
  10 H :    0.028261
  11 H :    0.018382
  12 C :   -0.067183
  13 H :    0.030328
  14 H :    0.036548
  15 H :    0.022219
  16 S :    0.080557
  17 C :   -0.089903
  18 C :    0.009835
  19 C :   -0.097608
  20 C :   -0.143246
  21 H :    0.010064
  22 C :    0.088955
  23 H :    0.015169
  24 H :    0.006076
  25 C :   -0.071368
  26 H :    0.039316
  27 H :    0.015371
  28 C :   -0.059391
  29 H :    0.036130
  30 H :    0.040647
  31 H :    0.050653
  32 H :    0.018235
  33 H :    0.052471
Sum of atomic charges:   -0.0000000

LOEWDIN ATOMIC CHARGES
----------------------
   0 S :    0.425480
   1 C :   -0.180145
   2 C :   -0.077133
   3 C :   -0.065236
   4 C :   -0.206105
   5 H :    0.044269
   6 C :   -0.026305
   7 H :    0.038518
   8 H :    0.025867
   9 C :   -0.029553
  10 H :    0.025806
  11 H :    0.016437
  12 C :   -0.070623
  13 H :    0.033717
  14 H :    0.025642
  15 H :    0.014123
  16 S :    0.384926
  17 C :   -0.153214
  18 C :   -0.065441
  19 C :   -0.053078
  20 C :   -0.208960
  21 H :    0.028440
  22 C :   -0.039457
  23 H :    0.026232
  24 H :    0.023281
  25 C :   -0.043714
  26 H :    0.026794
  27 H :    0.021023
  28 C :   -0.066506
  29 H :    0.029518
  30 H :    0.027808
  31 H :    0.030079
  32 H :    0.012839
  33 H :    0.024672

  Mayer bond orders larger than 0.100000
B(  0-S ,  1-C ) :   1.1527 B(  0-S ,  4-C ) :   1.1775 B(  1-C ,  2-C ) :   1.5766
B(  1-C ,  4-C ) :   0.1013 B(  1-C , 32-H ) :   0.9801 B(  2-C ,  3-C ) :   1.2648
B(  2-C ,  6-C ) :   1.0380 B(  3-C ,  4-C ) :   1.5497 B(  3-C ,  5-H ) :   0.9888
B(  4-C , 20-C ) :   0.9887 B(  6-C ,  7-H ) :   0.9390 B(  6-C ,  8-H ) :   0.9317
B(  6-C ,  9-C ) :   1.0561 B(  9-C , 10-H ) :   0.9602 B(  9-C , 11-H ) :   0.9599
B(  9-C , 12-C ) :   1.0774 B( 12-C , 13-H ) :   0.9736 B( 12-C , 14-H ) :   0.9698
B( 12-C , 15-H ) :   0.9793 B( 16-S , 17-C ) :   1.1457 B( 16-S , 20-C ) :   1.1274
B( 17-C , 18-C ) :   1.6322 B( 17-C , 33-H ) :   0.9666 B( 18-C , 19-C ) :   1.2026
B( 18-C , 21-H ) :   1.0039 B( 19-C , 20-C ) :   1.6273 B( 19-C , 22-C ) :   1.0388
B( 22-C , 23-H ) :   0.9362 B( 22-C , 24-H ) :   0.9264 B( 22-C , 25-C ) :   1.0836
B( 25-C , 26-H ) :   0.9568 B( 25-C , 27-H ) :   0.9517 B( 25-C , 28-C ) :   1.0601
B( 28-C , 29-H ) :   0.9745 B( 28-C , 30-H ) :   0.9748 B( 28-C , 31-H ) :   0.9802

Dispersion correction           -0.015691137
FINAL SINGLE POINT ENERGY     -1339.851744807642

DIPOLE MOMENT
-------------
                                X             Y             Z
Electronic contribution:     -1.10793     -13.46678       4.07944
Nuclear contribution   :      1.35746      13.68718      -4.21412
                        -----------------------------------------
Total Dipole Moment    :      0.24953       0.22040      -0.13467
                        -----------------------------------------
Magnitude (a.u.)       :      0.35914
Magnitude (Debye)      :      0.91285

Rotational constants in cm-1:     0.021558     0.008657     0.007524
Rotational constants in MHz :   646.307456   259.524901   225.570120

                             ****ORCA TERMINATED NORMALLY****
TOTAL RUN TIME: 0 days 0 hours 0 minutes 22 seconds 281 msec
