                         Program Version 4.2.1 -  RELEASE  -
|  1> ! wB97X-D3 SP def2-SVP
|  2> %pal
|  3> nprocs 24
|  4> end
|  5>
|  6> * xyz 0 1
|  7> S 	 -129.812 	 3.05063 	 2.89266
|  8> C 	 -128.547 	 1.89948 	 2.44656
|  9> C 	 -127.536 	 1.88913 	 3.37921
| 10> C 	 -127.845 	 2.71753 	 4.53316
| 11> C 	 -129.02 	 3.38849 	 4.42134
| 12> H 	 -127.196 	 2.82115 	 5.3757
| 13> C 	 -126.352 	 0.938213 	 3.31973
| 14> H 	 -125.674 	 1.31082 	 4.15448
| 15> H 	 -125.624 	 1.03645 	 2.51224
| 16> C 	 -126.799 	 -0.458121 	 3.47946
| 17> H 	 -127.31 	 -0.484195 	 4.45717
| 18> H 	 -127.485 	 -0.720422 	 2.68378
| 19> C 	 -125.578 	 -1.36182 	 3.4596
| 20> H 	 -125.703 	 -2.47466 	 3.59036
| 21> H 	 -125.133 	 -1.25187 	 2.46005
| 22> H 	 -124.723 	 -1.0805 	 4.10603
| 23> S 	 -129.566 	 6.07861 	 4.62484
| 24> C 	 -130.501 	 6.55245 	 6.03772
| 25> C 	 -130.523 	 5.57089 	 6.99938
| 26> C 	 -129.856 	 4.35753 	 6.65858
| 27> C 	 -129.502 	 4.40831 	 5.3177
| 28> H 	 -131.078 	 5.84705 	 7.9174
| 29> C 	 -129.939 	 3.11358 	 7.50573
| 30> H 	 -129.782 	 3.35623 	 8.51682
| 31> H 	 -129.035 	 2.56289 	 7.20653
| 32> C 	 -131.149 	 2.23684 	 7.28416
| 33> H 	 -131.334 	 2.3187 	 6.26017
| 34> H 	 -131.998 	 2.61779 	 7.80748
| 35> C 	 -130.904 	 0.768476 	 7.66451
| 36> H 	 -131.649 	 0.128882 	 7.29309
| 37> H 	 -130.683 	 0.600718 	 8.71116
| 38> H 	 -130.032 	 0.419526 	 7.12012
| 39> H 	 -128.41 	 1.35334 	 1.52354
| 40> H 	 -130.978 	 7.54679 	 6.199
| 41> *
| 42>
| 43>                          ****END OF INPUT****

CARTESIAN COORDINATES (ANGSTROEM)
---------------------------------
  S    -129.812000    3.050630    2.892660
  C    -128.547000    1.899480    2.446560
  C    -127.536000    1.889130    3.379210
  C    -127.845000    2.717530    4.533160
  C    -129.020000    3.388490    4.421340
  H    -127.196000    2.821150    5.375700
  C    -126.352000    0.938213    3.319730
  H    -125.674000    1.310820    4.154480
  H    -125.624000    1.036450    2.512240
  C    -126.799000   -0.458121    3.479460
  H    -127.310000   -0.484195    4.457170
  H    -127.485000   -0.720422    2.683780
  C    -125.578000   -1.361820    3.459600
  H    -125.703000   -2.474660    3.590360
  H    -125.133000   -1.251870    2.460050
  H    -124.723000   -1.080500    4.106030
  S    -129.566000    6.078610    4.624840
  C    -130.501000    6.552450    6.037720
  C    -130.523000    5.570890    6.999380
  C    -129.856000    4.357530    6.658580
  C    -129.502000    4.408310    5.317700
  H    -131.078000    5.847050    7.917400
  C    -129.939000    3.113580    7.505730
  H    -129.782000    3.356230    8.516820
  H    -129.035000    2.562890    7.206530
  C    -131.149000    2.236840    7.284160
  H    -131.334000    2.318700    6.260170
  H    -131.998000    2.617790    7.807480
  C    -130.904000    0.768476    7.664510
  H    -131.649000    0.128882    7.293090
  H    -130.683000    0.600718    8.711160
  H    -130.032000    0.419526    7.120120
  H    -128.410000    1.353340    1.523540
  H    -130.978000    7.546790    6.199000

 Total Charge           Charge          ....    0
 Multiplicity           Mult            ....    1
 Number of Electrons    NEL             ....  134
 Basis Dimension        Dim             ....  322

ORBITAL ENERGIES
----------------

  NO   OCC          E(Eh)            E(eV)
   0   2.0000     -88.968391     -2420.9530
   1   2.0000     -88.964849     -2420.8566
   2   2.0000     -10.328211      -281.0449
   3   2.0000     -10.326199      -280.9902
   4   2.0000     -10.316318      -280.7213
   5   2.0000     -10.314222      -280.6642
   6   2.0000     -10.304592      -280.4022
   7   2.0000     -10.301141      -280.3083
   8   2.0000     -10.293711      -280.1061
   9   2.0000     -10.293360      -280.0966
  10   2.0000     -10.292704      -280.0787
  11   2.0000     -10.286518      -279.9104
  12   2.0000     -10.284435      -279.8537
  13   2.0000     -10.283350      -279.8242
  14   2.0000     -10.275169      -279.6016
  15   2.0000     -10.269876      -279.4575
  16   2.0000      -8.082578      -219.9381
  17   2.0000      -8.078705      -219.8327
  18   2.0000      -6.041223      -164.3900
  19   2.0000      -6.037265      -164.2823
  20   2.0000      -6.037152      -164.2793
  21   2.0000      -6.033554      -164.1814
  22   2.0000      -6.033215      -164.1721
  23   2.0000      -6.029246      -164.0641
  24   2.0000      -1.005534       -27.3620
  25   2.0000      -0.980828       -26.6897
  26   2.0000      -0.923693       -25.1350
  27   2.0000      -0.913377       -24.8543
  28   2.0000      -0.869681       -23.6652
  29   2.0000      -0.851920       -23.1819
  30   2.0000      -0.845145       -22.9976
  31   2.0000      -0.812155       -22.0999
  32   2.0000      -0.783538       -21.3211
  33   2.0000      -0.770391       -20.9634
  34   2.0000      -0.712117       -19.3777
  35   2.0000      -0.705830       -19.2066
  36   2.0000      -0.696242       -18.9457
  37   2.0000      -0.655862       -17.8469
  38   2.0000      -0.641941       -17.4681
  39   2.0000      -0.620834       -16.8938
  40   2.0000      -0.594408       -16.1747
  41   2.0000      -0.572736       -15.5849
  42   2.0000      -0.569374       -15.4935
  43   2.0000      -0.562228       -15.2990
  44   2.0000      -0.527991       -14.3674
  45   2.0000      -0.526540       -14.3279
  46   2.0000      -0.522067       -14.2062
  47   2.0000      -0.505402       -13.7527
  48   2.0000      -0.499849       -13.6016
  49   2.0000      -0.499408       -13.5896
  50   2.0000      -0.492862       -13.4114
  51   2.0000      -0.482973       -13.1424
  52   2.0000      -0.466417       -12.6918
  53   2.0000      -0.461391       -12.5551
  54   2.0000      -0.455367       -12.3912
  55   2.0000      -0.447434       -12.1753
  56   2.0000      -0.440335       -11.9821
  57   2.0000      -0.438912       -11.9434
  58   2.0000      -0.437399       -11.9022
  59   2.0000      -0.425745       -11.5851
  60   2.0000      -0.424993       -11.5647
  61   2.0000      -0.421062       -11.4577
  62   2.0000      -0.412381       -11.2215
  63   2.0000      -0.341876        -9.3029
  64   2.0000      -0.335413        -9.1270
  65   2.0000      -0.326224        -8.8770
  66   2.0000      -0.296536        -8.0692
  67   0.0000       0.029534         0.8037
  68   0.0000       0.062601         1.7035
  69   0.0000       0.107702         2.9307
  70   0.0000       0.116853         3.1797
  71   0.0000       0.127842         3.4787

MULLIKEN ATOMIC CHARGES
-----------------------
   0 S :    0.119651
   1 C :   -0.116777
   2 C :   -0.084522
   3 C :    0.054015
   4 C :   -0.163187
   5 H :    0.010398
   6 C :    0.003056
   7 H :    0.021400
   8 H :    0.025596
   9 C :   -0.025484
  10 H :    0.035530
  11 H :    0.034358
  12 C :   -0.067540
  13 H :    0.044952
  14 H :    0.017740
  15 H :    0.030041
  16 S :    0.105670
  17 C :   -0.106585
  18 C :   -0.057826
  19 C :   -0.016440
  20 C :   -0.188328
  21 H :    0.027397
  22 C :    0.096479
  23 H :    0.009578
  24 H :    0.003281
  25 C :   -0.006411
  26 H :    0.014086
  27 H :    0.020479
  28 C :   -0.028534
  29 H :    0.024260
  30 H :    0.032167
  31 H :    0.016216
  32 H :    0.048407
  33 H :    0.066875
Sum of atomic charges:    0.0000000

LOEWDIN ATOMIC CHARGES
----------------------
   0 S :    0.400816
   1 C :   -0.192329
   2 C :   -0.060631
   3 C :   -0.056109
   4 C :   -0.200114
   5 H :    0.028354
   6 C :   -0.042676
   7 H :    0.034765
   8 H :    0.026617
   9 C :   -0.039114
  10 H :    0.030442
  11 H :    0.026668
  12 C :   -0.078522
  13 H :    0.030261
  14 H :    0.024672
  15 H :    0.027227
  16 S :    0.373404
  17 C :   -0.190431
  18 C :   -0.078063
  19 C :   -0.051110
  20 C :   -0.174233
  21 H :    0.037053
  22 C :   -0.027298
  23 H :    0.022740
  24 H :    0.031189
  25 C :   -0.026406
  26 H :    0.020668
  27 H :    0.021131
  28 C :   -0.058180
  29 H :    0.021692
  30 H :    0.024250
  31 H :    0.025150
  32 H :    0.030725
  33 H :    0.037390

  Mayer bond orders larger than 0.100000
B(  0-S ,  1-C ) :   1.1236 B(  0-S ,  4-C ) :   1.1348 B(  1-C ,  2-C ) :   1.6371
B(  1-C , 32-H ) :   0.9661 B(  2-C ,  3-C ) :   1.2299 B(  2-C ,  6-C ) :   1.0123
B(  3-C ,  4-C ) :   1.5971 B(  3-C ,  5-H ) :   0.9918 B(  4-C , 20-C ) :   1.0441
B(  6-C ,  7-H ) :   0.9414 B(  6-C ,  8-H ) :   0.9430 B(  6-C ,  9-C ) :   1.0604
B(  9-C , 10-H ) :   0.9508 B(  9-C , 11-H ) :   0.9547 B(  9-C , 12-C ) :   1.0734
B( 12-C , 13-H ) :   0.9744 B( 12-C , 14-H ) :   0.9691 B( 12-C , 15-H ) :   0.9743
B( 16-S , 17-C ) :   1.1240 B( 16-S , 20-C ) :   1.1379 B( 17-C , 18-C ) :   1.6658
B( 17-C , 33-H ) :   0.9597 B( 18-C , 19-C ) :   1.1907 B( 18-C , 21-H ) :   0.9843
B( 19-C , 20-C ) :   1.6025 B( 19-C , 22-C ) :   1.0711 B( 22-C , 23-H ) :   0.9207
B( 22-C , 24-H ) :   0.9221 B( 22-C , 25-C ) :   1.0636 B( 25-C , 26-H ) :   0.9516
B( 25-C , 27-H ) :   0.9509 B( 25-C , 28-C ) :   1.0902 B( 28-C , 29-H ) :   0.9724
B( 28-C , 30-H ) :   0.9770 B( 28-C , 31-H ) :   0.9716

Dispersion correction           -0.014371514
FINAL SINGLE POINT ENERGY     -1339.872931966509

DIPOLE MOMENT
-------------
                                X             Y             Z
Electronic contribution:     -8.31585      26.04092      -9.95435
Nuclear contribution   :      8.54974     -26.45819      10.26929
                        -----------------------------------------
Total Dipole Moment    :      0.23389      -0.41727       0.31494
                        -----------------------------------------
Magnitude (a.u.)       :      0.57272
Magnitude (Debye)      :      1.45574

Rotational constants in cm-1:     0.019808     0.008474     0.006799
Rotational constants in MHz :   593.820294   254.036667   203.835458

                             ****ORCA TERMINATED NORMALLY****
TOTAL RUN TIME: 0 days 0 hours 0 minutes 20 seconds 728 msec
