                         Program Version 4.2.1 -  RELEASE  -
|  1> ! wB97X-D3 SP def2-SVP
|  2> %pal
|  3> nprocs 24
|  4> end
|  5>
|  6> * xyz 0 1
|  7> S 	 -48.7378 	 11.3174 	 -22.8499
|  8> C 	 -47.4447 	 10.608 	 -21.8776
|  9> C 	 -47.899 	 10.0064 	 -20.8039
| 10> C 	 -49.3315 	 10.1945 	 -20.6895
| 11> C 	 -49.9623 	 10.9077 	 -21.7219
| 12> H 	 -49.9722 	 9.76445 	 -19.9547
| 13> C 	 -47.0826 	 9.28652 	 -19.756
| 14> H 	 -46.1142 	 8.97872 	 -20.0592
| 15> H 	 -47.5011 	 8.27025 	 -19.5835
| 16> C 	 -47.0367 	 9.89997 	 -18.3683
| 17> H 	 -47.9071 	 10.5117 	 -18.2442
| 18> H 	 -47.0821 	 9.32515 	 -17.5126
| 19> C 	 -45.8155 	 10.7708 	 -18.291
| 20> H 	 -44.8697 	 10.1605 	 -18.2763
| 21> H 	 -45.7741 	 11.3683 	 -19.1737
| 22> H 	 -45.9191 	 11.4421 	 -17.3947
| 23> S 	 -52.59 	 10.4131 	 -20.8944
| 24> C 	 -53.8803 	 11.3403 	 -21.4599
| 25> C 	 -53.484 	 12.2249 	 -22.4279
| 26> C 	 -52.0493 	 12.2126 	 -22.6538
| 27> C 	 -51.3886 	 11.3075 	 -21.8528
| 28> H 	 -54.174 	 12.8796 	 -22.8697
| 29> C 	 -51.5096 	 13.203 	 -23.5825
| 30> H 	 -50.4952 	 13.5454 	 -23.1986
| 31> H 	 -52.1771 	 14.0391 	 -23.7154
| 32> C 	 -51.0891 	 12.7284 	 -25.0182
| 33> H 	 -52.0359 	 12.6298 	 -25.5184
| 34> H 	 -50.7065 	 11.758 	 -25.0655
| 35> C 	 -50.293 	 13.7783 	 -25.8572
| 36> H 	 -50.4601 	 14.8617 	 -25.7153
| 37> H 	 -50.3586 	 13.5194 	 -26.9043
| 38> H 	 -49.2411 	 13.739 	 -25.6314
| 39> H 	 -46.4688 	 10.4701 	 -22.2868
| 40> H 	 -54.9292 	 11.2167 	 -21.2701
| 41> *
| 42>
| 43>                          ****END OF INPUT****

CARTESIAN COORDINATES (ANGSTROEM)
---------------------------------
  S    -48.737800   11.317400  -22.849900
  C    -47.444700   10.608000  -21.877600
  C    -47.899000   10.006400  -20.803900
  C    -49.331500   10.194500  -20.689500
  C    -49.962300   10.907700  -21.721900
  H    -49.972200    9.764450  -19.954700
  C    -47.082600    9.286520  -19.756000
  H    -46.114200    8.978720  -20.059200
  H    -47.501100    8.270250  -19.583500
  C    -47.036700    9.899970  -18.368300
  H    -47.907100   10.511700  -18.244200
  H    -47.082100    9.325150  -17.512600
  C    -45.815500   10.770800  -18.291000
  H    -44.869700   10.160500  -18.276300
  H    -45.774100   11.368300  -19.173700
  H    -45.919100   11.442100  -17.394700
  S    -52.590000   10.413100  -20.894400
  C    -53.880300   11.340300  -21.459900
  C    -53.484000   12.224900  -22.427900
  C    -52.049300   12.212600  -22.653800
  C    -51.388600   11.307500  -21.852800
  H    -54.174000   12.879600  -22.869700
  C    -51.509600   13.203000  -23.582500
  H    -50.495200   13.545400  -23.198600
  H    -52.177100   14.039100  -23.715400
  C    -51.089100   12.728400  -25.018200
  H    -52.035900   12.629800  -25.518400
  H    -50.706500   11.758000  -25.065500
  C    -50.293000   13.778300  -25.857200
  H    -50.460100   14.861700  -25.715300
  H    -50.358600   13.519400  -26.904300
  H    -49.241100   13.739000  -25.631400
  H    -46.468800   10.470100  -22.286800
  H    -54.929200   11.216700  -21.270100

 Total Charge           Charge          ....    0
 Multiplicity           Mult            ....    1
 Number of Electrons    NEL             ....  134
 Basis Dimension        Dim             ....  322

ORBITAL ENERGIES
----------------

  NO   OCC          E(Eh)            E(eV)
   0   2.0000     -88.967633     -2420.9324
   1   2.0000     -88.964597     -2420.8498
   2   2.0000     -10.337290      -281.2920
   3   2.0000     -10.335366      -281.2396
   4   2.0000     -10.314168      -280.6628
   5   2.0000     -10.308301      -280.5031
   6   2.0000     -10.304771      -280.4071
   7   2.0000     -10.301778      -280.3256
   8   2.0000     -10.293603      -280.1032
   9   2.0000     -10.291576      -280.0480
  10   2.0000     -10.291030      -280.0332
  11   2.0000     -10.289645      -279.9955
  12   2.0000     -10.281773      -279.7813
  13   2.0000     -10.276823      -279.6466
  14   2.0000     -10.274734      -279.5897
  15   2.0000     -10.272417      -279.5267
  16   2.0000      -8.082960      -219.9485
  17   2.0000      -8.079531      -219.8552
  18   2.0000      -6.041626      -164.4010
  19   2.0000      -6.038228      -164.3085
  20   2.0000      -6.037301      -164.2833
  21   2.0000      -6.033918      -164.1913
  22   2.0000      -6.033620      -164.1831
  23   2.0000      -6.030165      -164.0891
  24   2.0000      -1.012459       -27.5504
  25   2.0000      -0.994078       -27.0502
  26   2.0000      -0.921410       -25.0728
  27   2.0000      -0.909369       -24.7452
  28   2.0000      -0.876697       -23.8561
  29   2.0000      -0.852847       -23.2071
  30   2.0000      -0.845564       -23.0090
  31   2.0000      -0.815855       -22.2005
  32   2.0000      -0.784606       -21.3502
  33   2.0000      -0.777273       -21.1507
  34   2.0000      -0.715443       -19.4682
  35   2.0000      -0.703926       -19.1548
  36   2.0000      -0.692989       -18.8572
  37   2.0000      -0.675173       -18.3724
  38   2.0000      -0.641071       -17.4444
  39   2.0000      -0.622677       -16.9439
  40   2.0000      -0.601618       -16.3709
  41   2.0000      -0.581042       -15.8110
  42   2.0000      -0.563308       -15.3284
  43   2.0000      -0.561896       -15.2900
  44   2.0000      -0.529875       -14.4186
  45   2.0000      -0.523230       -14.2378
  46   2.0000      -0.520068       -14.1518
  47   2.0000      -0.519055       -14.1242
  48   2.0000      -0.504262       -13.7217
  49   2.0000      -0.501796       -13.6546
  50   2.0000      -0.492142       -13.3919
  51   2.0000      -0.482234       -13.1223
  52   2.0000      -0.476693       -12.9715
  53   2.0000      -0.472222       -12.8498
  54   2.0000      -0.462371       -12.5818
  55   2.0000      -0.449927       -12.2431
  56   2.0000      -0.446426       -12.1479
  57   2.0000      -0.438196       -11.9239
  58   2.0000      -0.429168       -11.6782
  59   2.0000      -0.426301       -11.6002
  60   2.0000      -0.417218       -11.3531
  61   2.0000      -0.411039       -11.1849
  62   2.0000      -0.405278       -11.0282
  63   2.0000      -0.366854        -9.9826
  64   2.0000      -0.329838        -8.9753
  65   2.0000      -0.328429        -8.9370
  66   2.0000      -0.289764        -7.8849
  67   0.0000       0.023221         0.6319
  68   0.0000       0.089726         2.4416
  69   0.0000       0.111761         3.0412
  70   0.0000       0.121737         3.3126
  71   0.0000       0.125083         3.4037

MULLIKEN ATOMIC CHARGES
-----------------------
   0 S :    0.079808
   1 C :   -0.124098
   2 C :   -0.029927
   3 C :   -0.009593
   4 C :   -0.107407
   5 H :    0.000327
   6 C :    0.071345
   7 H :   -0.000330
   8 H :    0.025941
   9 C :   -0.014959
  10 H :    0.017780
  11 H :    0.007783
  12 C :   -0.074566
  13 H :    0.036835
  14 H :    0.023707
  15 H :    0.037345
  16 S :    0.097800
  17 C :   -0.055740
  18 C :   -0.033316
  19 C :   -0.038088
  20 C :   -0.100754
  21 H :   -0.001071
  22 C :    0.003568
  23 H :    0.035738
  24 H :    0.024247
  25 C :   -0.039010
  26 H :    0.011337
  27 H :    0.020871
  28 C :   -0.050939
  29 H :    0.033775
  30 H :    0.035170
  31 H :    0.022493
  32 H :    0.041164
  33 H :    0.052764
Sum of atomic charges:   -0.0000000

LOEWDIN ATOMIC CHARGES
----------------------
   0 S :    0.415711
   1 C :   -0.183218
   2 C :   -0.059998
   3 C :   -0.071940
   4 C :   -0.190435
   5 H :    0.016817
   6 C :   -0.028666
   7 H :    0.022098
   8 H :    0.040179
   9 C :   -0.038778
  10 H :    0.025371
  11 H :    0.014276
  12 C :   -0.062744
  13 H :    0.026465
  14 H :    0.018151
  15 H :    0.029093
  16 S :    0.422576
  17 C :   -0.195580
  18 C :   -0.067497
  19 C :   -0.056862
  20 C :   -0.184502
  21 H :    0.022525
  22 C :   -0.040046
  23 H :    0.031296
  24 H :    0.029838
  25 C :   -0.034256
  26 H :    0.019136
  27 H :    0.012196
  28 C :   -0.070654
  29 H :    0.030205
  30 H :    0.028022
  31 H :    0.022132
  32 H :    0.025963
  33 H :    0.033127

  Mayer bond orders larger than 0.100000
B(  0-S ,  1-C ) :   1.1180 B(  0-S ,  4-C ) :   1.1485 B(  1-C ,  2-C ) :   1.6519
B(  1-C , 32-H ) :   0.9656 B(  2-C ,  3-C ) :   1.2146 B(  2-C ,  6-C ) :   1.0408
B(  3-C ,  4-C ) :   1.5744 B(  3-C ,  5-H ) :   0.9910 B(  4-C , 20-C ) :   1.0608
B(  6-C ,  7-H ) :   0.9453 B(  6-C ,  8-H ) :   0.9268 B(  6-C ,  9-C ) :   1.0512
B(  9-C , 10-H ) :   0.9535 B(  9-C , 11-H ) :   0.9541 B(  9-C , 12-C ) :   1.0822
B( 12-C , 13-H ) :   0.9764 B( 12-C , 14-H ) :   0.9768 B( 12-C , 15-H ) :   0.9728
B( 16-S , 17-C ) :   1.1682 B( 16-S , 20-C ) :   1.1223 B( 17-C , 18-C ) :   1.6132
B( 17-C , 33-H ) :   0.9642 B( 18-C , 19-C ) :   1.2334 B( 18-C , 21-H ) :   0.9977
B( 19-C , 20-C ) :   1.5850 B( 19-C , 22-C ) :   1.0659 B( 22-C , 23-H ) :   0.9357
B( 22-C , 24-H ) :   0.9349 B( 22-C , 25-C ) :   1.0485 B( 25-C , 26-H ) :   0.9545
B( 25-C , 27-H ) :   0.9571 B( 25-C , 28-C ) :   1.0711 B( 28-C , 29-H ) :   0.9759
B( 28-C , 30-H ) :   0.9756 B( 28-C , 31-H ) :   0.9732

Dispersion correction           -0.013987520
FINAL SINGLE POINT ENERGY     -1339.864103560649

DIPOLE MOMENT
-------------
                                X             Y             Z
Electronic contribution:    -13.57089      -6.12965       0.32238
Nuclear contribution   :     13.52387       6.10331      -0.34027
                        -----------------------------------------
Total Dipole Moment    :     -0.04702      -0.02634      -0.01789
                        -----------------------------------------
Magnitude (a.u.)       :      0.05679
Magnitude (Debye)      :      0.14435

Rotational constants in cm-1:     0.020261     0.008336     0.006294
Rotational constants in MHz :   607.422213   249.912201   188.675373

                             ****ORCA TERMINATED NORMALLY****
TOTAL RUN TIME: 0 days 0 hours 0 minutes 21 seconds 214 msec
