                         Program Version 4.2.1 -  RELEASE  -
|  1> ! wB97X-D3 SP def2-SVP
|  2> %pal
|  3> nprocs 24
|  4> end
|  5>
|  6> * xyz 0 1
|  7> S 	 -71.6225 	 16.7989 	 -74.6071
|  8> C 	 -70.2534 	 16.3958 	 -73.5674
|  9> C 	 -69.0491 	 16.9964 	 -74.0157
| 10> C 	 -69.2335 	 17.635 	 -75.2776
| 11> C 	 -70.5451 	 17.74 	 -75.6545
| 12> H 	 -68.4864 	 18.1909 	 -75.7921
| 13> C 	 -67.7445 	 16.8782 	 -73.253
| 14> H 	 -67.2229 	 16.0478 	 -73.6579
| 15> H 	 -68.0669 	 16.6614 	 -72.2272
| 16> C 	 -66.8285 	 18.0634 	 -73.2604
| 17> H 	 -65.9533 	 17.8868 	 -72.6684
| 18> H 	 -66.4479 	 18.3005 	 -74.2566
| 19> C 	 -67.4334 	 19.4436 	 -72.6767
| 20> H 	 -67.9637 	 19.3916 	 -71.7846
| 21> H 	 -66.4884 	 20.0399 	 -72.588
| 22> H 	 -68.0495 	 19.9247 	 -73.3524
| 23> S 	 -72.0225 	 17.455 	 -77.8939
| 24> C 	 -72.2124 	 18.8084 	 -78.9408
| 25> C 	 -71.4863 	 19.8768 	 -78.6161
| 26> C 	 -70.7387 	 19.6331 	 -77.4144
| 27> C 	 -70.9816 	 18.3768 	 -76.8923
| 28> H 	 -71.4489 	 20.8543 	 -79.0598
| 29> C 	 -70.0095 	 20.7768 	 -76.7128
| 30> H 	 -69.9865 	 20.465 	 -75.6317
| 31> H 	 -70.7123 	 21.631 	 -76.7921
| 32> C 	 -68.5732 	 21.0441 	 -77.2717
| 33> H 	 -68.3976 	 21.1932 	 -78.3272
| 34> H 	 -67.9189 	 20.2729 	 -76.9161
| 35> C 	 -67.993 	 22.3237 	 -76.6947
| 36> H 	 -68.1149 	 22.4051 	 -75.6623
| 37> H 	 -68.4246 	 23.2558 	 -77.0867
| 38> H 	 -66.9436 	 22.441 	 -76.9107
| 39> H 	 -70.3144 	 15.8572 	 -72.6053
| 40> H 	 -73.0009 	 18.917 	 -79.7118
| 41> *
| 42>
| 43>                          ****END OF INPUT****

CARTESIAN COORDINATES (ANGSTROEM)
---------------------------------
  S    -71.622500   16.798900  -74.607100
  C    -70.253400   16.395800  -73.567400
  C    -69.049100   16.996400  -74.015700
  C    -69.233500   17.635000  -75.277600
  C    -70.545100   17.740000  -75.654500
  H    -68.486400   18.190900  -75.792100
  C    -67.744500   16.878200  -73.253000
  H    -67.222900   16.047800  -73.657900
  H    -68.066900   16.661400  -72.227200
  C    -66.828500   18.063400  -73.260400
  H    -65.953300   17.886800  -72.668400
  H    -66.447900   18.300500  -74.256600
  C    -67.433400   19.443600  -72.676700
  H    -67.963700   19.391600  -71.784600
  H    -66.488400   20.039900  -72.588000
  H    -68.049500   19.924700  -73.352400
  S    -72.022500   17.455000  -77.893900
  C    -72.212400   18.808400  -78.940800
  C    -71.486300   19.876800  -78.616100
  C    -70.738700   19.633100  -77.414400
  C    -70.981600   18.376800  -76.892300
  H    -71.448900   20.854300  -79.059800
  C    -70.009500   20.776800  -76.712800
  H    -69.986500   20.465000  -75.631700
  H    -70.712300   21.631000  -76.792100
  C    -68.573200   21.044100  -77.271700
  H    -68.397600   21.193200  -78.327200
  H    -67.918900   20.272900  -76.916100
  C    -67.993000   22.323700  -76.694700
  H    -68.114900   22.405100  -75.662300
  H    -68.424600   23.255800  -77.086700
  H    -66.943600   22.441000  -76.910700
  H    -70.314400   15.857200  -72.605300
  H    -73.000900   18.917000  -79.711800

 Total Charge           Charge          ....    0
 Multiplicity           Mult            ....    1
 Number of Electrons    NEL             ....  134
 Basis Dimension        Dim             ....  322

ORBITAL ENERGIES
----------------

  NO   OCC          E(Eh)            E(eV)
   0   2.0000     -88.970514     -2421.0108
   1   2.0000     -88.962383     -2420.7895
   2   2.0000     -10.328730      -281.0590
   3   2.0000     -10.319194      -280.7995
   4   2.0000     -10.318544      -280.7819
   5   2.0000     -10.309533      -280.5367
   6   2.0000     -10.303653      -280.3767
   7   2.0000     -10.300143      -280.2811
   8   2.0000     -10.296578      -280.1841
   9   2.0000     -10.290486      -280.0184
  10   2.0000     -10.290357      -280.0148
  11   2.0000     -10.289415      -279.9892
  12   2.0000     -10.288010      -279.9510
  13   2.0000     -10.285610      -279.8857
  14   2.0000     -10.273335      -279.5517
  15   2.0000     -10.268762      -279.4272
  16   2.0000      -8.084215      -219.9827
  17   2.0000      -8.078631      -219.8307
  18   2.0000      -6.042740      -164.4313
  19   2.0000      -6.038920      -164.3274
  20   2.0000      -6.037103      -164.2779
  21   2.0000      -6.034974      -164.2200
  22   2.0000      -6.032977      -164.1656
  23   2.0000      -6.029291      -164.0654
  24   2.0000      -1.011567       -27.5261
  25   2.0000      -0.983970       -26.7752
  26   2.0000      -0.912179       -24.8216
  27   2.0000      -0.907780       -24.7020
  28   2.0000      -0.869721       -23.6663
  29   2.0000      -0.856841       -23.3158
  30   2.0000      -0.844067       -22.9682
  31   2.0000      -0.818493       -22.2723
  32   2.0000      -0.785845       -21.3839
  33   2.0000      -0.769251       -20.9324
  34   2.0000      -0.711718       -19.3668
  35   2.0000      -0.703279       -19.1372
  36   2.0000      -0.690739       -18.7960
  37   2.0000      -0.664495       -18.0818
  38   2.0000      -0.637402       -17.3446
  39   2.0000      -0.622412       -16.9367
  40   2.0000      -0.593298       -16.1445
  41   2.0000      -0.565510       -15.3883
  42   2.0000      -0.559493       -15.2246
  43   2.0000      -0.557738       -15.1768
  44   2.0000      -0.543522       -14.7900
  45   2.0000      -0.530554       -14.4371
  46   2.0000      -0.519283       -14.1304
  47   2.0000      -0.516053       -14.0425
  48   2.0000      -0.502159       -13.6644
  49   2.0000      -0.495081       -13.4718
  50   2.0000      -0.491594       -13.3770
  51   2.0000      -0.482796       -13.1375
  52   2.0000      -0.467763       -12.7285
  53   2.0000      -0.464598       -12.6424
  54   2.0000      -0.459006       -12.4902
  55   2.0000      -0.453724       -12.3465
  56   2.0000      -0.447987       -12.1903
  57   2.0000      -0.438759       -11.9392
  58   2.0000      -0.434295       -11.8178
  59   2.0000      -0.425640       -11.5823
  60   2.0000      -0.424016       -11.5380
  61   2.0000      -0.418619       -11.3912
  62   2.0000      -0.414991       -11.2925
  63   2.0000      -0.349545        -9.5116
  64   2.0000      -0.331852        -9.0301
  65   2.0000      -0.328713        -8.9447
  66   2.0000      -0.290631        -7.9085
  67   0.0000       0.031487         0.8568
  68   0.0000       0.077425         2.1068
  69   0.0000       0.111522         3.0347
  70   0.0000       0.117031         3.1846
  71   0.0000       0.126204         3.4342

MULLIKEN ATOMIC CHARGES
-----------------------
   0 S :    0.117522
   1 C :   -0.140671
   2 C :   -0.116287
   3 C :    0.049476
   4 C :   -0.149574
   5 H :   -0.009355
   6 C :    0.126568
   7 H :    0.038365
   8 H :    0.017252
   9 C :   -0.099919
  10 H :    0.028285
  11 H :    0.026002
  12 C :   -0.038495
  13 H :    0.026791
  14 H :    0.035684
  15 H :    0.019489
  16 S :    0.113818
  17 C :   -0.077100
  18 C :   -0.016223
  19 C :   -0.048279
  20 C :   -0.164655
  21 H :    0.009185
  22 C :    0.009597
  23 H :    0.048079
  24 H :    0.036616
  25 C :   -0.040236
  26 H :    0.035546
  27 H :    0.024815
  28 C :   -0.037184
  29 H :    0.010287
  30 H :    0.021042
  31 H :    0.023636
  32 H :    0.059442
  33 H :    0.060481
Sum of atomic charges:   -0.0000000

LOEWDIN ATOMIC CHARGES
----------------------
   0 S :    0.391997
   1 C :   -0.204999
   2 C :   -0.056159
   3 C :   -0.058430
   4 C :   -0.185988
   5 H :    0.024871
   6 C :   -0.032405
   7 H :    0.033541
   8 H :    0.032611
   9 C :   -0.036734
  10 H :    0.023888
  11 H :    0.022524
  12 C :   -0.054937
  13 H :    0.016074
  14 H :    0.035010
  15 H :    0.011612
  16 S :    0.423928
  17 C :   -0.195356
  18 C :   -0.069762
  19 C :   -0.060289
  20 C :   -0.211224
  21 H :    0.031467
  22 C :   -0.032313
  23 H :    0.039660
  24 H :    0.033427
  25 C :   -0.036046
  26 H :    0.027824
  27 H :    0.022017
  28 C :   -0.064474
  29 H :    0.012924
  30 H :    0.023656
  31 H :    0.023707
  32 H :    0.032796
  33 H :    0.035580

  Mayer bond orders larger than 0.100000
B(  0-S ,  1-C ) :   1.1341 B(  0-S ,  4-C ) :   1.1405 B(  1-C ,  2-C ) :   1.6088
B(  1-C , 32-H ) :   0.9606 B(  2-C ,  3-C ) :   1.2379 B(  2-C ,  6-C ) :   1.0122
B(  3-C ,  4-C ) :   1.5810 B(  3-C ,  5-H ) :   0.9921 B(  4-C , 20-C ) :   1.0340
B(  6-C ,  7-H ) :   0.9298 B(  6-C ,  8-H ) :   0.9374 B(  6-C ,  9-C ) :   1.0915
B(  9-C , 10-H ) :   0.9592 B(  9-C , 11-H ) :   0.9506 B(  9-C , 12-C ) :   1.0625
B( 12-C , 13-H ) :   0.9794 B( 12-C , 14-H ) :   0.9785 B( 12-C , 15-H ) :   0.9784
B( 16-S , 17-C ) :   1.1438 B( 16-S , 20-C ) :   1.1428 B( 17-C , 18-C ) :   1.6294
B( 17-C , 33-H ) :   0.9566 B( 18-C , 19-C ) :   1.2407 B( 18-C , 21-H ) :   0.9930
B( 19-C , 20-C ) :   1.6180 B( 19-C , 22-C ) :   1.0322 B( 22-C , 23-H ) :   0.9338
B( 22-C , 24-H ) :   0.9499 B( 22-C , 25-C ) :   1.0521 B( 25-C , 26-H ) :   0.9622
B( 25-C , 27-H ) :   0.9502 B( 25-C , 28-C ) :   1.0874 B( 28-C , 29-H ) :   0.9710
B( 28-C , 30-H ) :   0.9741 B( 28-C , 31-H ) :   0.9733

Dispersion correction           -0.015074313
FINAL SINGLE POINT ENERGY     -1339.873810468556

DIPOLE MOMENT
-------------
                                X             Y             Z
Electronic contribution:    -24.53103     -19.54216      -9.16694
Nuclear contribution   :     25.05708      20.01600       9.35418
                        -----------------------------------------
Total Dipole Moment    :      0.52605       0.47385       0.18724
                        -----------------------------------------
Magnitude (a.u.)       :      0.73233
Magnitude (Debye)      :      1.86145

Rotational constants in cm-1:     0.016213     0.011069     0.007044
Rotational constants in MHz :   486.039330   331.854365   211.166031

                             ****ORCA TERMINATED NORMALLY****
TOTAL RUN TIME: 0 days 0 hours 0 minutes 21 seconds 391 msec
