                         Program Version 4.2.1 -  RELEASE  -
|  1> ! wB97X-D3 SP def2-SVP
|  2> %pal
|  3> nprocs 24
|  4> end
|  5>
|  6> * xyz 0 1
|  7> S 	 -56.1007 	 2.71086 	 -19.9071
|  8> C 	 -57.7418 	 2.0591 	 -19.5856
|  9> C 	 -58.4158 	 2.96952 	 -18.8202
| 10> C 	 -57.6331 	 4.11715 	 -18.415
| 11> C 	 -56.3246 	 4.09874 	 -18.829
| 12> H 	 -58.0132 	 4.92325 	 -17.8249
| 13> C 	 -59.859 	 2.91284 	 -18.3589
| 14> H 	 -60.4596 	 2.43471 	 -19.1224
| 15> H 	 -60.3407 	 3.88154 	 -18.271
| 16> C 	 -60.0433 	 2.06056 	 -17.0794
| 17> H 	 -59.9399 	 0.991341 	 -17.3191
| 18> H 	 -59.32 	 2.4078 	 -16.4058
| 19> C 	 -61.4971 	 2.1092 	 -16.5284
| 20> H 	 -61.5793 	 1.71223 	 -15.4768
| 21> H 	 -62.0321 	 3.11143 	 -16.5042
| 22> H 	 -62.143 	 1.50089 	 -17.1395
| 23> S 	 -53.7434 	 4.30281 	 -17.8565
| 24> C 	 -53.0249 	 5.83091 	 -17.3674
| 25> C 	 -53.9208 	 6.84885 	 -17.7762
| 26> C 	 -55.0592 	 6.36622 	 -18.4479
| 27> C 	 -55.2263 	 4.98635 	 -18.407
| 28> H 	 -53.7068 	 7.8502 	 -17.5418
| 29> C 	 -55.9575 	 7.3964 	 -19.0651
| 30> H 	 -55.5584 	 8.36627 	 -18.962
| 31> H 	 -56.8105 	 7.40845 	 -18.3551
| 32> C 	 -56.4484 	 7.04193 	 -20.4128
| 33> H 	 -56.9684 	 6.06182 	 -20.436
| 34> H 	 -55.5497 	 6.86594 	 -21.0283
| 35> C 	 -57.4579 	 8.06163 	 -20.9223
| 36> H 	 -56.9932 	 9.04628 	 -21.2808
| 37> H 	 -58.2699 	 8.21627 	 -20.1503
| 38> H 	 -57.8502 	 7.5302 	 -21.7665
| 39> H 	 -58.0936 	 1.08325 	 -19.9747
| 40> H 	 -51.9741 	 5.9851 	 -16.9842
| 41> *
| 42>
| 43>                          ****END OF INPUT****

CARTESIAN COORDINATES (ANGSTROEM)
---------------------------------
  S    -56.100700    2.710860  -19.907100
  C    -57.741800    2.059100  -19.585600
  C    -58.415800    2.969520  -18.820200
  C    -57.633100    4.117150  -18.415000
  C    -56.324600    4.098740  -18.829000
  H    -58.013200    4.923250  -17.824900
  C    -59.859000    2.912840  -18.358900
  H    -60.459600    2.434710  -19.122400
  H    -60.340700    3.881540  -18.271000
  C    -60.043300    2.060560  -17.079400
  H    -59.939900    0.991341  -17.319100
  H    -59.320000    2.407800  -16.405800
  C    -61.497100    2.109200  -16.528400
  H    -61.579300    1.712230  -15.476800
  H    -62.032100    3.111430  -16.504200
  H    -62.143000    1.500890  -17.139500
  S    -53.743400    4.302810  -17.856500
  C    -53.024900    5.830910  -17.367400
  C    -53.920800    6.848850  -17.776200
  C    -55.059200    6.366220  -18.447900
  C    -55.226300    4.986350  -18.407000
  H    -53.706800    7.850200  -17.541800
  C    -55.957500    7.396400  -19.065100
  H    -55.558400    8.366270  -18.962000
  H    -56.810500    7.408450  -18.355100
  C    -56.448400    7.041930  -20.412800
  H    -56.968400    6.061820  -20.436000
  H    -55.549700    6.865940  -21.028300
  C    -57.457900    8.061630  -20.922300
  H    -56.993200    9.046280  -21.280800
  H    -58.269900    8.216270  -20.150300
  H    -57.850200    7.530200  -21.766500
  H    -58.093600    1.083250  -19.974700
  H    -51.974100    5.985100  -16.984200

 Total Charge           Charge          ....    0
 Multiplicity           Mult            ....    1
 Number of Electrons    NEL             ....  134
 Basis Dimension        Dim             ....  322

ORBITAL ENERGIES
----------------

  NO   OCC          E(Eh)            E(eV)
   0   2.0000     -88.964906     -2420.8582
   1   2.0000     -88.964456     -2420.8459
   2   2.0000     -10.336308      -281.2652
   3   2.0000     -10.327698      -281.0309
   4   2.0000     -10.326674      -281.0031
   5   2.0000     -10.323110      -280.9061
   6   2.0000     -10.304744      -280.4063
   7   2.0000     -10.299518      -280.2641
   8   2.0000     -10.294390      -280.1246
   9   2.0000     -10.291351      -280.0419
  10   2.0000     -10.290614      -280.0218
  11   2.0000     -10.287189      -279.9286
  12   2.0000     -10.285899      -279.8935
  13   2.0000     -10.282060      -279.7891
  14   2.0000     -10.280649      -279.7507
  15   2.0000     -10.278106      -279.6815
  16   2.0000      -8.079734      -219.8607
  17   2.0000      -8.078326      -219.8224
  18   2.0000      -6.038192      -164.3076
  19   2.0000      -6.037083      -164.2774
  20   2.0000      -6.034006      -164.1936
  21   2.0000      -6.032890      -164.1633
  22   2.0000      -6.030732      -164.1046
  23   2.0000      -6.028913      -164.0551
  24   2.0000      -1.006942       -27.4003
  25   2.0000      -0.984015       -26.7764
  26   2.0000      -0.916914       -24.9505
  27   2.0000      -0.909333       -24.7442
  28   2.0000      -0.868197       -23.6249
  29   2.0000      -0.850772       -23.1507
  30   2.0000      -0.841814       -22.9069
  31   2.0000      -0.815494       -22.1907
  32   2.0000      -0.777839       -21.1661
  33   2.0000      -0.770247       -20.9595
  34   2.0000      -0.706147       -19.2152
  35   2.0000      -0.701783       -19.0965
  36   2.0000      -0.688269       -18.7287
  37   2.0000      -0.664267       -18.0756
  38   2.0000      -0.643051       -17.4983
  39   2.0000      -0.622461       -16.9380
  40   2.0000      -0.594900       -16.1881
  41   2.0000      -0.570291       -15.5184
  42   2.0000      -0.568052       -15.4575
  43   2.0000      -0.563144       -15.3239
  44   2.0000      -0.528327       -14.3765
  45   2.0000      -0.520046       -14.1512
  46   2.0000      -0.516785       -14.0624
  47   2.0000      -0.514587       -14.0026
  48   2.0000      -0.509296       -13.8587
  49   2.0000      -0.501862       -13.6563
  50   2.0000      -0.495728       -13.4895
  51   2.0000      -0.487863       -13.2754
  52   2.0000      -0.465047       -12.6546
  53   2.0000      -0.463642       -12.6163
  54   2.0000      -0.460783       -12.5385
  55   2.0000      -0.448317       -12.1993
  56   2.0000      -0.441901       -12.0247
  57   2.0000      -0.430862       -11.7243
  58   2.0000      -0.427700       -11.6383
  59   2.0000      -0.424347       -11.5471
  60   2.0000      -0.416267       -11.3272
  61   2.0000      -0.410361       -11.1665
  62   2.0000      -0.410135       -11.1604
  63   2.0000      -0.344436        -9.3726
  64   2.0000      -0.328376        -8.9356
  65   2.0000      -0.326007        -8.8711
  66   2.0000      -0.296308        -8.0629
  67   0.0000       0.025764         0.7011
  68   0.0000       0.066395         1.8067
  69   0.0000       0.108140         2.9426
  70   0.0000       0.124696         3.3931
  71   0.0000       0.132600         3.6082

MULLIKEN ATOMIC CHARGES
-----------------------
   0 S :    0.091425
   1 C :   -0.143057
   2 C :   -0.063267
   3 C :    0.041597
   4 C :   -0.152521
   5 H :    0.004331
   6 C :    0.051073
   7 H :    0.012028
   8 H :    0.023706
   9 C :   -0.045745
  10 H :    0.037900
  11 H :    0.027885
  12 C :   -0.084332
  13 H :    0.046011
  14 H :    0.033454
  15 H :    0.024921
  16 S :    0.109904
  17 C :   -0.124790
  18 C :   -0.032894
  19 C :   -0.044417
  20 C :   -0.141937
  21 H :    0.003687
  22 C :    0.119411
  23 H :   -0.001840
  24 H :    0.018582
  25 C :   -0.125757
  26 H :    0.050408
  27 H :    0.034371
  28 C :   -0.038332
  29 H :    0.045999
  30 H :    0.038474
  31 H :    0.029612
  32 H :    0.065643
  33 H :    0.088467
Sum of atomic charges:   -0.0000000

LOEWDIN ATOMIC CHARGES
----------------------
   0 S :    0.372201
   1 C :   -0.183636
   2 C :   -0.062279
   3 C :   -0.061452
   4 C :   -0.180518
   5 H :    0.027853
   6 C :   -0.033046
   7 H :    0.026475
   8 H :    0.028514
   9 C :   -0.030972
  10 H :    0.031224
  11 H :    0.016437
  12 C :   -0.077789
  13 H :    0.033179
  14 H :    0.026673
  15 H :    0.019915
  16 S :    0.426210
  17 C :   -0.196148
  18 C :   -0.069797
  19 C :   -0.055227
  20 C :   -0.216914
  21 H :    0.022431
  22 C :   -0.033989
  23 H :    0.022275
  24 H :    0.033707
  25 C :   -0.051744
  26 H :    0.032139
  27 H :    0.027901
  28 C :   -0.067960
  29 H :    0.031451
  30 H :    0.031302
  31 H :    0.025122
  32 H :    0.039155
  33 H :    0.047309

  Mayer bond orders larger than 0.100000
B(  0-S ,  1-C ) :   1.1118 B(  0-S ,  4-C ) :   1.1391 B(  1-C ,  2-C ) :   1.6269
B(  1-C , 32-H ) :   0.9701 B(  2-C ,  3-C ) :   1.2192 B(  2-C ,  6-C ) :   1.0270
B(  3-C ,  4-C ) :   1.5876 B(  3-C ,  5-H ) :   1.0006 B(  4-C , 20-C ) :   1.0398
B(  6-C ,  7-H ) :   0.9377 B(  6-C ,  8-H ) :   0.9489 B(  6-C ,  9-C ) :   1.0575
B(  9-C , 10-H ) :   0.9576 B(  9-C , 11-H ) :   0.9638 B(  9-C , 12-C ) :   1.0692
B( 12-C , 13-H ) :   0.9751 B( 12-C , 14-H ) :   0.9765 B( 12-C , 15-H ) :   0.9771
B( 16-S , 17-C ) :   1.1849 B( 16-S , 20-C ) :   1.1473 B( 17-C , 18-C ) :   1.5378
B( 17-C , 20-C ) :   0.1126 B( 17-C , 33-H ) :   0.9626 B( 18-C , 19-C ) :   1.2940
B( 18-C , 21-H ) :   1.0016 B( 19-C , 20-C ) :   1.5298 B( 19-C , 22-C ) :   1.0403
B( 22-C , 23-H ) :   0.9344 B( 22-C , 24-H ) :   0.9143 B( 22-C , 25-C ) :   1.0667
B( 25-C , 26-H ) :   0.9466 B( 25-C , 27-H ) :   0.9544 B( 25-C , 28-C ) :   1.0787
B( 28-C , 29-H ) :   0.9726 B( 28-C , 30-H ) :   0.9705 B( 28-C , 31-H ) :   0.9756

Dispersion correction           -0.014223740
FINAL SINGLE POINT ENERGY     -1339.868788025944

DIPOLE MOMENT
-------------
                                X             Y             Z
Electronic contribution:     25.16639      -8.17314      -1.03154
Nuclear contribution   :    -25.64517       8.51353       1.14338
                        -----------------------------------------
Total Dipole Moment    :     -0.47877       0.34039       0.11184
                        -----------------------------------------
Magnitude (a.u.)       :      0.59799
Magnitude (Debye)      :      1.51998

Rotational constants in cm-1:     0.018439     0.008035     0.006967
Rotational constants in MHz :   552.800742   240.871807   208.869408

                             ****ORCA TERMINATED NORMALLY****
TOTAL RUN TIME: 0 days 0 hours 0 minutes 21 seconds 478 msec
