                         Program Version 4.2.1 -  RELEASE  -
|  1> ! wB97X-D3 SP def2-SVP
|  2> %pal
|  3> nprocs 24
|  4> end
|  5>
|  6> * xyz 0 1
|  7> S 	 -105.531 	 27.6995 	 -117.8
|  8> C 	 -105.601 	 29.4411 	 -117.865
|  9> C 	 -106.675 	 29.9231 	 -118.538
| 10> C 	 -107.393 	 28.8682 	 -119.173
| 11> C 	 -106.834 	 27.6247 	 -118.944
| 12> H 	 -108.305 	 28.9987 	 -119.8
| 13> C 	 -107.121 	 31.3904 	 -118.651
| 14> H 	 -107.597 	 31.6315 	 -119.578
| 15> H 	 -106.127 	 31.8325 	 -118.744
| 16> C 	 -107.909 	 31.9327 	 -117.464
| 17> H 	 -107.351 	 31.7216 	 -116.505
| 18> H 	 -107.886 	 33.0099 	 -117.479
| 19> C 	 -109.325 	 31.3758 	 -117.241
| 20> H 	 -109.143 	 30.3747 	 -116.908
| 21> H 	 -109.849 	 31.8049 	 -116.408
| 22> H 	 -109.895 	 31.5328 	 -118.153
| 23> S 	 -105.751 	 25.4309 	 -120.004
| 24> C 	 -106.793 	 24.2809 	 -120.788
| 25> C 	 -108.121 	 24.4867 	 -120.445
| 26> C 	 -108.341 	 25.7474 	 -119.745
| 27> C 	 -107.115 	 26.3213 	 -119.508
| 28> H 	 -108.857 	 23.8509 	 -120.734
| 29> C 	 -109.729 	 26.2605 	 -119.32
| 30> H 	 -110.448 	 26.0482 	 -120.098
| 31> H 	 -109.704 	 27.3407 	 -118.999
| 32> C 	 -110.163 	 25.5047 	 -118.073
| 33> H 	 -110.219 	 24.4471 	 -118.324
| 34> H 	 -111.19 	 25.8165 	 -117.831
| 35> C 	 -109.28 	 25.7343 	 -116.898
| 36> H 	 -108.999 	 26.7435 	 -116.609
| 37> H 	 -108.357 	 25.148 	 -117.001
| 38> H 	 -109.766 	 25.1181 	 -116.117
| 39> H 	 -105.087 	 30.0656 	 -117.214
| 40> H 	 -106.404 	 23.5275 	 -121.499
| 41> *
| 42>
| 43>                          ****END OF INPUT****

CARTESIAN COORDINATES (ANGSTROEM)
---------------------------------
  S    -105.531000   27.699500  -117.800000
  C    -105.601000   29.441100  -117.865000
  C    -106.675000   29.923100  -118.538000
  C    -107.393000   28.868200  -119.173000
  C    -106.834000   27.624700  -118.944000
  H    -108.305000   28.998700  -119.800000
  C    -107.121000   31.390400  -118.651000
  H    -107.597000   31.631500  -119.578000
  H    -106.127000   31.832500  -118.744000
  C    -107.909000   31.932700  -117.464000
  H    -107.351000   31.721600  -116.505000
  H    -107.886000   33.009900  -117.479000
  C    -109.325000   31.375800  -117.241000
  H    -109.143000   30.374700  -116.908000
  H    -109.849000   31.804900  -116.408000
  H    -109.895000   31.532800  -118.153000
  S    -105.751000   25.430900  -120.004000
  C    -106.793000   24.280900  -120.788000
  C    -108.121000   24.486700  -120.445000
  C    -108.341000   25.747400  -119.745000
  C    -107.115000   26.321300  -119.508000
  H    -108.857000   23.850900  -120.734000
  C    -109.729000   26.260500  -119.320000
  H    -110.448000   26.048200  -120.098000
  H    -109.704000   27.340700  -118.999000
  C    -110.163000   25.504700  -118.073000
  H    -110.219000   24.447100  -118.324000
  H    -111.190000   25.816500  -117.831000
  C    -109.280000   25.734300  -116.898000
  H    -108.999000   26.743500  -116.609000
  H    -108.357000   25.148000  -117.001000
  H    -109.766000   25.118100  -116.117000
  H    -105.087000   30.065600  -117.214000
  H    -106.404000   23.527500  -121.499000

 Total Charge           Charge          ....    0
 Multiplicity           Mult            ....    1
 Number of Electrons    NEL             ....  134
 Basis Dimension        Dim             ....  322

ORBITAL ENERGIES
----------------

  NO   OCC          E(Eh)            E(eV)
   0   2.0000     -88.964833     -2420.8562
   1   2.0000     -88.964674     -2420.8519
   2   2.0000     -10.324247      -280.9370
   3   2.0000     -10.318086      -280.7694
   4   2.0000     -10.317058      -280.7414
   5   2.0000     -10.302766      -280.3525
   6   2.0000     -10.301617      -280.3212
   7   2.0000     -10.296936      -280.1939
   8   2.0000     -10.294665      -280.1321
   9   2.0000     -10.292340      -280.0688
  10   2.0000     -10.291402      -280.0433
  11   2.0000     -10.291388      -280.0429
  12   2.0000     -10.288354      -279.9604
  13   2.0000     -10.281058      -279.7618
  14   2.0000     -10.275010      -279.5972
  15   2.0000     -10.269567      -279.4491
  16   2.0000      -8.080805      -219.8899
  17   2.0000      -8.079915      -219.8657
  18   2.0000      -6.039210      -164.3353
  19   2.0000      -6.038334      -164.3114
  20   2.0000      -6.035208      -164.2264
  21   2.0000      -6.034512      -164.2074
  22   2.0000      -6.031510      -164.1257
  23   2.0000      -6.030612      -164.1013
  24   2.0000      -1.013924       -27.5903
  25   2.0000      -0.987059       -26.8592
  26   2.0000      -0.916260       -24.9327
  27   2.0000      -0.911685       -24.8082
  28   2.0000      -0.870352       -23.6835
  29   2.0000      -0.851092       -23.1594
  30   2.0000      -0.843728       -22.9590
  31   2.0000      -0.813774       -22.1439
  32   2.0000      -0.788376       -21.4528
  33   2.0000      -0.777026       -21.1440
  34   2.0000      -0.701909       -19.0999
  35   2.0000      -0.700100       -19.0507
  36   2.0000      -0.687850       -18.7173
  37   2.0000      -0.666388       -18.1334
  38   2.0000      -0.636877       -17.3303
  39   2.0000      -0.614642       -16.7253
  40   2.0000      -0.598214       -16.2782
  41   2.0000      -0.575907       -15.6712
  42   2.0000      -0.560929       -15.2636
  43   2.0000      -0.552137       -15.0244
  44   2.0000      -0.547976       -14.9112
  45   2.0000      -0.536522       -14.5995
  46   2.0000      -0.519317       -14.1313
  47   2.0000      -0.511052       -13.9064
  48   2.0000      -0.506810       -13.7910
  49   2.0000      -0.494599       -13.4587
  50   2.0000      -0.486953       -13.2507
  51   2.0000      -0.479667       -13.0524
  52   2.0000      -0.470330       -12.7983
  53   2.0000      -0.464205       -12.6317
  54   2.0000      -0.456757       -12.4290
  55   2.0000      -0.451559       -12.2876
  56   2.0000      -0.445392       -12.1197
  57   2.0000      -0.441150       -12.0043
  58   2.0000      -0.431826       -11.7506
  59   2.0000      -0.422580       -11.4990
  60   2.0000      -0.418807       -11.3963
  61   2.0000      -0.411606       -11.2004
  62   2.0000      -0.407428       -11.0867
  63   2.0000      -0.351007        -9.5514
  64   2.0000      -0.332275        -9.0417
  65   2.0000      -0.329639        -8.9699
  66   2.0000      -0.285611        -7.7719
  67   0.0000       0.033806         0.9199
  68   0.0000       0.070101         1.9076
  69   0.0000       0.106075         2.8865
  70   0.0000       0.120858         3.2887
  71   0.0000       0.134770         3.6673

MULLIKEN ATOMIC CHARGES
-----------------------
   0 S :    0.099702
   1 C :   -0.083069
   2 C :   -0.121516
   3 C :    0.013930
   4 C :   -0.159849
   5 H :    0.026572
   6 C :    0.091344
   7 H :    0.019133
   8 H :    0.027609
   9 C :   -0.089106
  10 H :    0.020271
  11 H :    0.024843
  12 C :   -0.023591
  13 H :    0.034329
  14 H :    0.029193
  15 H :    0.035103
  16 S :    0.123297
  17 C :   -0.107505
  18 C :    0.009545
  19 C :   -0.062898
  20 C :   -0.150417
  21 H :   -0.024318
  22 C :    0.097642
  23 H :    0.024357
  24 H :    0.033613
  25 C :   -0.085636
  26 H :    0.020945
  27 H :    0.027343
  28 C :   -0.042208
  29 H :    0.047177
  30 H :    0.033400
  31 H :    0.026286
  32 H :    0.013791
  33 H :    0.070686
Sum of atomic charges:   -0.0000000

LOEWDIN ATOMIC CHARGES
----------------------
   0 S :    0.405436
   1 C :   -0.195808
   2 C :   -0.058978
   3 C :   -0.076778
   4 C :   -0.185755
   5 H :    0.036182
   6 C :   -0.028520
   7 H :    0.025917
   8 H :    0.038952
   9 C :   -0.044238
  10 H :    0.026721
  11 H :    0.018347
  12 C :   -0.062113
  13 H :    0.026900
  14 H :    0.026339
  15 H :    0.024417
  16 S :    0.426969
  17 C :   -0.191836
  18 C :   -0.053369
  19 C :   -0.050740
  20 C :   -0.220480
  21 H :    0.010827
  22 C :   -0.029784
  23 H :    0.028941
  24 H :    0.036493
  25 C :   -0.042871
  26 H :    0.022555
  27 H :    0.021903
  28 C :   -0.070854
  29 H :    0.026434
  30 H :    0.029212
  31 H :    0.032868
  32 H :    0.011192
  33 H :    0.035518

  Mayer bond orders larger than 0.100000
B(  0-S ,  1-C ) :   1.1201 B(  0-S ,  4-C ) :   1.1586 B(  1-C ,  2-C ) :   1.6575
B(  1-C , 32-H ) :   0.9647 B(  2-C ,  3-C ) :   1.2305 B(  2-C ,  6-C ) :   0.9968
B(  3-C ,  4-C ) :   1.5882 B(  3-C ,  5-H ) :   0.9876 B(  4-C , 20-C ) :   1.0166
B(  6-C ,  7-H ) :   0.9468 B(  6-C ,  8-H ) :   0.9350 B(  6-C ,  9-C ) :   1.0721
B(  9-C , 10-H ) :   0.9565 B(  9-C , 11-H ) :   0.9561 B(  9-C , 12-C ) :   1.0735
B( 12-C , 13-H ) :   0.9749 B( 12-C , 14-H ) :   0.9714 B( 12-C , 15-H ) :   0.9766
B( 16-S , 17-C ) :   1.1457 B( 16-S , 20-C ) :   1.1533 B( 17-C , 18-C ) :   1.6062
B( 17-C , 33-H ) :   0.9686 B( 18-C , 19-C ) :   1.2162 B( 18-C , 21-H ) :   1.0026
B( 19-C , 20-C ) :   1.6084 B( 19-C , 22-C ) :   1.0412 B( 22-C , 23-H ) :   0.9280
B( 22-C , 24-H ) :   0.9342 B( 22-C , 25-C ) :   1.0822 B( 25-C , 26-H ) :   0.9506
B( 25-C , 27-H ) :   0.9554 B( 25-C , 28-C ) :   1.0853 B( 28-C , 29-H ) :   0.9750
B( 28-C , 30-H ) :   0.9655 B( 28-C , 31-H ) :   0.9656

Dispersion correction           -0.015798832
FINAL SINGLE POINT ENERGY     -1339.873787613570

DIPOLE MOMENT
-------------
                                X             Y             Z
Electronic contribution:     20.74934     -12.94878      -9.06876
Nuclear contribution   :    -21.32836      13.13802       9.05555
                        -----------------------------------------
Total Dipole Moment    :     -0.57901       0.18923      -0.01321
                        -----------------------------------------
Magnitude (a.u.)       :      0.60930
Magnitude (Debye)      :      1.54871

Rotational constants in cm-1:     0.021190     0.009478     0.007628
Rotational constants in MHz :   635.273411   284.129020   228.693909

                             ****ORCA TERMINATED NORMALLY****
TOTAL RUN TIME: 0 days 0 hours 0 minutes 22 seconds 906 msec
