                         Program Version 4.2.1 -  RELEASE  -
|  1> ! wB97X-D3 SP def2-SVP
|  2> %pal
|  3> nprocs 24
|  4> end
|  5>
|  6> * xyz 0 1
|  7> S 	 -106.397 	 58.437 	 -5.10916
|  8> C 	 -104.98 	 59.4577 	 -5.36336
|  9> C 	 -105.306 	 60.6352 	 -6.10719
| 10> C 	 -106.676 	 60.6258 	 -6.55341
| 11> C 	 -107.413 	 59.6028 	 -5.97844
| 12> H 	 -107.101 	 61.3149 	 -7.28545
| 13> C 	 -104.241 	 61.5074 	 -6.71709
| 14> H 	 -104.123 	 61.1156 	 -7.71859
| 15> H 	 -103.42 	 61.3618 	 -6.04877
| 16> C 	 -104.507 	 63.0661 	 -6.67185
| 17> H 	 -105.367 	 63.252 	 -7.28293
| 18> H 	 -104.741 	 63.1875 	 -5.65091
| 19> C 	 -103.344 	 63.8886 	 -7.10554
| 20> H 	 -103.529 	 64.9274 	 -6.91144
| 21> H 	 -102.383 	 63.6604 	 -6.6781
| 22> H 	 -103.265 	 63.9152 	 -8.19511
| 23> S 	 -109.355 	 57.7041 	 -6.30834
| 24> C 	 -111.063 	 58.1378 	 -6.46993
| 25> C 	 -111.193 	 59.5059 	 -6.43922
| 26> C 	 -109.949 	 60.1934 	 -6.18745
| 27> C 	 -108.856 	 59.3548 	 -6.10365
| 28> H 	 -112.211 	 59.8134 	 -6.5518
| 29> C 	 -109.891 	 61.7412 	 -6.14216
| 30> H 	 -109.012 	 62.0641 	 -5.69628
| 31> H 	 -110.758 	 62.0672 	 -5.60052
| 32> C 	 -110.208 	 62.2928 	 -7.55577
| 33> H 	 -111.103 	 61.9999 	 -7.88966
| 34> H 	 -109.563 	 61.8444 	 -8.34819
| 35> C 	 -110.011 	 63.8187 	 -7.61064
| 36> H 	 -108.925 	 64.0248 	 -7.44493
| 37> H 	 -110.596 	 64.2968 	 -6.87326
| 38> H 	 -110.29 	 64.3032 	 -8.53168
| 39> H 	 -103.978 	 59.1323 	 -5.25933
| 40> H 	 -111.731 	 57.4482 	 -6.80459
| 41> *
| 42>
| 43>                          ****END OF INPUT****

CARTESIAN COORDINATES (ANGSTROEM)
---------------------------------
  S    -106.397000   58.437000   -5.109160
  C    -104.980000   59.457700   -5.363360
  C    -105.306000   60.635200   -6.107190
  C    -106.676000   60.625800   -6.553410
  C    -107.413000   59.602800   -5.978440
  H    -107.101000   61.314900   -7.285450
  C    -104.241000   61.507400   -6.717090
  H    -104.123000   61.115600   -7.718590
  H    -103.420000   61.361800   -6.048770
  C    -104.507000   63.066100   -6.671850
  H    -105.367000   63.252000   -7.282930
  H    -104.741000   63.187500   -5.650910
  C    -103.344000   63.888600   -7.105540
  H    -103.529000   64.927400   -6.911440
  H    -102.383000   63.660400   -6.678100
  H    -103.265000   63.915200   -8.195110
  S    -109.355000   57.704100   -6.308340
  C    -111.063000   58.137800   -6.469930
  C    -111.193000   59.505900   -6.439220
  C    -109.949000   60.193400   -6.187450
  C    -108.856000   59.354800   -6.103650
  H    -112.211000   59.813400   -6.551800
  C    -109.891000   61.741200   -6.142160
  H    -109.012000   62.064100   -5.696280
  H    -110.758000   62.067200   -5.600520
  C    -110.208000   62.292800   -7.555770
  H    -111.103000   61.999900   -7.889660
  H    -109.563000   61.844400   -8.348190
  C    -110.011000   63.818700   -7.610640
  H    -108.925000   64.024800   -7.444930
  H    -110.596000   64.296800   -6.873260
  H    -110.290000   64.303200   -8.531680
  H    -103.978000   59.132300   -5.259330
  H    -111.731000   57.448200   -6.804590

 Total Charge           Charge          ....    0
 Multiplicity           Mult            ....    1
 Number of Electrons    NEL             ....  134
 Basis Dimension        Dim             ....  322

ORBITAL ENERGIES
----------------

  NO   OCC          E(Eh)            E(eV)
   0   2.0000     -88.969331     -2420.9786
   1   2.0000     -88.959942     -2420.7231
   2   2.0000     -10.335061      -281.2313
   3   2.0000     -10.326871      -281.0084
   4   2.0000     -10.315256      -280.6924
   5   2.0000     -10.312746      -280.6241
   6   2.0000     -10.308041      -280.4961
   7   2.0000     -10.305481      -280.4264
   8   2.0000     -10.298239      -280.2293
   9   2.0000     -10.296775      -280.1895
  10   2.0000     -10.288588      -279.9667
  11   2.0000     -10.288491      -279.9641
  12   2.0000     -10.282809      -279.8094
  13   2.0000     -10.280940      -279.7586
  14   2.0000     -10.276484      -279.6374
  15   2.0000     -10.274721      -279.5894
  16   2.0000      -8.083086      -219.9519
  17   2.0000      -8.075143      -219.7358
  18   2.0000      -6.041684      -164.4026
  19   2.0000      -6.037762      -164.2959
  20   2.0000      -6.033789      -164.1877
  21   2.0000      -6.033655      -164.1841
  22   2.0000      -6.029550      -164.0724
  23   2.0000      -6.025908      -163.9733
  24   2.0000      -1.004266       -27.3275
  25   2.0000      -0.978957       -26.6388
  26   2.0000      -0.913584       -24.8599
  27   2.0000      -0.910303       -24.7706
  28   2.0000      -0.871618       -23.7179
  29   2.0000      -0.853054       -23.2128
  30   2.0000      -0.844645       -22.9840
  31   2.0000      -0.820704       -22.3325
  32   2.0000      -0.781439       -21.2640
  33   2.0000      -0.771765       -21.0008
  34   2.0000      -0.713565       -19.4171
  35   2.0000      -0.709268       -19.3002
  36   2.0000      -0.695840       -18.9348
  37   2.0000      -0.665395       -18.1063
  38   2.0000      -0.638295       -17.3689
  39   2.0000      -0.623141       -16.9565
  40   2.0000      -0.597799       -16.2669
  41   2.0000      -0.581706       -15.8290
  42   2.0000      -0.569954       -15.5092
  43   2.0000      -0.561683       -15.2842
  44   2.0000      -0.532704       -14.4956
  45   2.0000      -0.524310       -14.2672
  46   2.0000      -0.515577       -14.0296
  47   2.0000      -0.512047       -13.9335
  48   2.0000      -0.508909       -13.8481
  49   2.0000      -0.501019       -13.6334
  50   2.0000      -0.498923       -13.5764
  51   2.0000      -0.483510       -13.1570
  52   2.0000      -0.474432       -12.9100
  53   2.0000      -0.473241       -12.8775
  54   2.0000      -0.459524       -12.5043
  55   2.0000      -0.449645       -12.2355
  56   2.0000      -0.447025       -12.1642
  57   2.0000      -0.441023       -12.0008
  58   2.0000      -0.432870       -11.7790
  59   2.0000      -0.426889       -11.6162
  60   2.0000      -0.420973       -11.4553
  61   2.0000      -0.414871       -11.2892
  62   2.0000      -0.410950       -11.1825
  63   2.0000      -0.352680        -9.5969
  64   2.0000      -0.332243        -9.0408
  65   2.0000      -0.326076        -8.8730
  66   2.0000      -0.287425        -7.8212
  67   0.0000       0.022663         0.6167
  68   0.0000       0.073995         2.0135
  69   0.0000       0.101782         2.7696
  70   0.0000       0.117225         3.1899
  71   0.0000       0.124029         3.3750

MULLIKEN ATOMIC CHARGES
-----------------------
   0 S :    0.108002
   1 C :   -0.098883
   2 C :   -0.117797
   3 C :    0.004850
   4 C :   -0.126597
   5 H :    0.025834
   6 C :    0.047928
   7 H :    0.049084
   8 H :    0.012131
   9 C :   -0.066302
  10 H :    0.024014
  11 H :    0.022715
  12 C :   -0.009138
  13 H :    0.022476
  14 H :    0.028830
  15 H :    0.022469
  16 S :    0.074493
  17 C :   -0.065702
  18 C :   -0.037866
  19 C :   -0.058502
  20 C :   -0.120901
  21 H :    0.019258
  22 C :    0.124906
  23 H :    0.014116
  24 H :    0.017590
  25 C :   -0.060724
  26 H :   -0.009625
  27 H :    0.022139
  28 C :   -0.020499
  29 H :    0.032207
  30 H :    0.016861
  31 H :    0.028087
  32 H :    0.043184
  33 H :    0.031363
Sum of atomic charges:    0.0000000

LOEWDIN ATOMIC CHARGES
----------------------
   0 S :    0.393895
   1 C :   -0.197228
   2 C :   -0.057043
   3 C :   -0.067710
   4 C :   -0.177286
   5 H :    0.034648
   6 C :   -0.028534
   7 H :    0.033344
   8 H :    0.025812
   9 C :   -0.033434
  10 H :    0.019780
  11 H :    0.021062
  12 C :   -0.064163
  13 H :    0.027161
  14 H :    0.023793
  15 H :    0.028180
  16 S :    0.391330
  17 C :   -0.158103
  18 C :   -0.067670
  19 C :   -0.050912
  20 C :   -0.202288
  21 H :    0.032222
  22 C :   -0.012096
  23 H :    0.018031
  24 H :    0.031546
  25 C :   -0.030874
  26 H :    0.003085
  27 H :    0.024550
  28 C :   -0.060686
  29 H :    0.029560
  30 H :    0.016691
  31 H :    0.023388
  32 H :    0.020402
  33 H :    0.009548

  Mayer bond orders larger than 0.100000
B(  0-S ,  1-C ) :   1.1324 B(  0-S ,  4-C ) :   1.1503 B(  1-C ,  2-C ) :   1.5970
B(  1-C ,  4-C ) :   0.1025 B(  1-C , 32-H ) :   0.9701 B(  2-C ,  3-C ) :   1.2347
B(  2-C ,  6-C ) :   1.0345 B(  3-C ,  4-C ) :   1.5706 B(  3-C ,  5-H ) :   0.9890
B(  4-C , 20-C ) :   1.0383 B(  6-C ,  7-H ) :   0.9429 B(  6-C ,  8-H ) :   0.9381
B(  6-C ,  9-C ) :   1.0568 B(  9-C , 10-H ) :   0.9540 B(  9-C , 11-H ) :   0.9589
B(  9-C , 12-C ) :   1.1030 B( 12-C , 13-H ) :   0.9681 B( 12-C , 14-H ) :   0.9731
B( 12-C , 15-H ) :   0.9689 B( 16-S , 17-C ) :   1.1497 B( 16-S , 20-C ) :   1.1368
B( 17-C , 18-C ) :   1.6239 B( 17-C , 33-H ) :   0.9792 B( 18-C , 19-C ) :   1.2029
B( 18-C , 21-H ) :   0.9970 B( 19-C , 20-C ) :   1.6142 B( 19-C , 22-C ) :   1.0510
B( 22-C , 23-H ) :   0.9441 B( 22-C , 24-H ) :   0.9247 B( 22-C , 25-C ) :   1.0501
B( 25-C , 26-H ) :   0.9529 B( 25-C , 27-H ) :   0.9539 B( 25-C , 28-C ) :   1.0824
B( 28-C , 29-H ) :   0.9771 B( 28-C , 30-H ) :   0.9728 B( 28-C , 31-H ) :   0.9740

Dispersion correction           -0.013964515
FINAL SINGLE POINT ENERGY     -1339.860925608178

DIPOLE MOMENT
-------------
                                X             Y             Z
Electronic contribution:     -6.38372     -31.19872       9.72473
Nuclear contribution   :      6.29914      31.84553     -10.21545
                        -----------------------------------------
Total Dipole Moment    :     -0.08458       0.64680      -0.49072
                        -----------------------------------------
Magnitude (a.u.)       :      0.81628
Magnitude (Debye)      :      2.07483

Rotational constants in cm-1:     0.017185     0.009311     0.006256
Rotational constants in MHz :   515.183728   279.150943   187.540978

                             ****ORCA TERMINATED NORMALLY****
TOTAL RUN TIME: 0 days 0 hours 0 minutes 20 seconds 464 msec
