                         Program Version 4.2.1 -  RELEASE  -
|  1> ! wB97X-D3 SP def2-SVP
|  2> %pal
|  3> nprocs 24
|  4> end
|  5>
|  6> * xyz 0 1
|  7> S 	 -93.9111 	 -25.5008 	 -67.1992
|  8> C 	 -95.5166 	 -25.9363 	 -67.7091
|  9> C 	 -96.2987 	 -26.0523 	 -66.6516
| 10> C 	 -95.7049 	 -25.6362 	 -65.4361
| 11> C 	 -94.37 	 -25.2634 	 -65.5393
| 12> H 	 -96.2445 	 -25.7366 	 -64.5005
| 13> C 	 -97.7567 	 -26.5561 	 -66.807
| 14> H 	 -98.1359 	 -26.7909 	 -65.8669
| 15> H 	 -97.7143 	 -27.4422 	 -67.4732
| 16> C 	 -98.7074 	 -25.5461 	 -67.4795
| 17> H 	 -98.3683 	 -25.3164 	 -68.5018
| 18> H 	 -99.6485 	 -25.9472 	 -67.7638
| 19> C 	 -99.0454 	 -24.3688 	 -66.6388
| 20> H 	 -99.454 	 -23.5432 	 -67.054
| 21> H 	 -99.675 	 -24.7032 	 -65.8897
| 22> H 	 -98.1107 	 -24.0265 	 -66.1402
| 23> S 	 -91.7876 	 -25.0349 	 -64.6817
| 24> C 	 -91.5771 	 -24.7935 	 -62.9535
| 25> C 	 -92.6633 	 -24.4301 	 -62.2555
| 26> C 	 -93.8047 	 -24.3862 	 -63.1116
| 27> C 	 -93.5182 	 -24.8228 	 -64.3999
| 28> H 	 -92.6051 	 -24.0236 	 -61.2375
| 29> C 	 -95.1447 	 -23.7974 	 -62.5883
| 30> H 	 -95.6745 	 -23.2821 	 -63.3663
| 31> H 	 -94.8323 	 -22.9309 	 -62.0397
| 32> C 	 -95.9808 	 -24.7356 	 -61.707
| 33> H 	 -95.3858 	 -25.623 	 -61.2728
| 34> H 	 -96.832 	 -25.2174 	 -62.2844
| 35> C 	 -96.5919 	 -23.9902 	 -60.6093
| 36> H 	 -97.0238 	 -24.7338 	 -59.9445
| 37> H 	 -97.3958 	 -23.3316 	 -60.8918
| 38> H 	 -95.8187 	 -23.4397 	 -60.1599
| 39> H 	 -95.6854 	 -26.1271 	 -68.7828
| 40> H 	 -90.5839 	 -24.9553 	 -62.4681
| 41> *
| 42>
| 43>                          ****END OF INPUT****

CARTESIAN COORDINATES (ANGSTROEM)
---------------------------------
  S    -93.911100  -25.500800  -67.199200
  C    -95.516600  -25.936300  -67.709100
  C    -96.298700  -26.052300  -66.651600
  C    -95.704900  -25.636200  -65.436100
  C    -94.370000  -25.263400  -65.539300
  H    -96.244500  -25.736600  -64.500500
  C    -97.756700  -26.556100  -66.807000
  H    -98.135900  -26.790900  -65.866900
  H    -97.714300  -27.442200  -67.473200
  C    -98.707400  -25.546100  -67.479500
  H    -98.368300  -25.316400  -68.501800
  H    -99.648500  -25.947200  -67.763800
  C    -99.045400  -24.368800  -66.638800
  H    -99.454000  -23.543200  -67.054000
  H    -99.675000  -24.703200  -65.889700
  H    -98.110700  -24.026500  -66.140200
  S    -91.787600  -25.034900  -64.681700
  C    -91.577100  -24.793500  -62.953500
  C    -92.663300  -24.430100  -62.255500
  C    -93.804700  -24.386200  -63.111600
  C    -93.518200  -24.822800  -64.399900
  H    -92.605100  -24.023600  -61.237500
  C    -95.144700  -23.797400  -62.588300
  H    -95.674500  -23.282100  -63.366300
  H    -94.832300  -22.930900  -62.039700
  C    -95.980800  -24.735600  -61.707000
  H    -95.385800  -25.623000  -61.272800
  H    -96.832000  -25.217400  -62.284400
  C    -96.591900  -23.990200  -60.609300
  H    -97.023800  -24.733800  -59.944500
  H    -97.395800  -23.331600  -60.891800
  H    -95.818700  -23.439700  -60.159900
  H    -95.685400  -26.127100  -68.782800
  H    -90.583900  -24.955300  -62.468100

 Total Charge           Charge          ....    0
 Multiplicity           Mult            ....    1
 Number of Electrons    NEL             ....  134
 Basis Dimension        Dim             ....  322

ORBITAL ENERGIES
----------------

  NO   OCC          E(Eh)            E(eV)
   0   2.0000     -88.965489     -2420.8740
   1   2.0000     -88.961162     -2420.7563
   2   2.0000     -10.332010      -281.1483
   3   2.0000     -10.331741      -281.1410
   4   2.0000     -10.318067      -280.7689
   5   2.0000     -10.308030      -280.4958
   6   2.0000     -10.306762      -280.4612
   7   2.0000     -10.293603      -280.1032
   8   2.0000     -10.293191      -280.0920
   9   2.0000     -10.292100      -280.0623
  10   2.0000     -10.291557      -280.0475
  11   2.0000     -10.290991      -280.0321
  12   2.0000     -10.288743      -279.9709
  13   2.0000     -10.278632      -279.6958
  14   2.0000     -10.268825      -279.4289
  15   2.0000     -10.258694      -279.1533
  16   2.0000      -8.080505      -219.8817
  17   2.0000      -8.076585      -219.7750
  18   2.0000      -6.038920      -164.3274
  19   2.0000      -6.035393      -164.2314
  20   2.0000      -6.035192      -164.2259
  21   2.0000      -6.030966      -164.1109
  22   2.0000      -6.030925      -164.1098
  23   2.0000      -6.027245      -164.0097
  24   2.0000      -1.009586       -27.4722
  25   2.0000      -0.990161       -26.9436
  26   2.0000      -0.918038       -24.9811
  27   2.0000      -0.913843       -24.8669
  28   2.0000      -0.872394       -23.7390
  29   2.0000      -0.857853       -23.3434
  30   2.0000      -0.845310       -23.0021
  31   2.0000      -0.818032       -22.2598
  32   2.0000      -0.786552       -21.4032
  33   2.0000      -0.775045       -21.0900
  34   2.0000      -0.705763       -19.2048
  35   2.0000      -0.700923       -19.0731
  36   2.0000      -0.691490       -18.8164
  37   2.0000      -0.664423       -18.0799
  38   2.0000      -0.637291       -17.3416
  39   2.0000      -0.617503       -16.8031
  40   2.0000      -0.596359       -16.2278
  41   2.0000      -0.575084       -15.6488
  42   2.0000      -0.570554       -15.5256
  43   2.0000      -0.559313       -15.2197
  44   2.0000      -0.541441       -14.7334
  45   2.0000      -0.536753       -14.6058
  46   2.0000      -0.518608       -14.1120
  47   2.0000      -0.513276       -13.9669
  48   2.0000      -0.505543       -13.7565
  49   2.0000      -0.497547       -13.5389
  50   2.0000      -0.495334       -13.4787
  51   2.0000      -0.477319       -12.9885
  52   2.0000      -0.472823       -12.8662
  53   2.0000      -0.463487       -12.6121
  54   2.0000      -0.461903       -12.5690
  55   2.0000      -0.449560       -12.2331
  56   2.0000      -0.446115       -12.1394
  57   2.0000      -0.440969       -11.9994
  58   2.0000      -0.432410       -11.7665
  59   2.0000      -0.428030       -11.6473
  60   2.0000      -0.417131       -11.3507
  61   2.0000      -0.411946       -11.2096
  62   2.0000      -0.402644       -10.9565
  63   2.0000      -0.362789        -9.8720
  64   2.0000      -0.336566        -9.1584
  65   2.0000      -0.327675        -8.9165
  66   2.0000      -0.282823        -7.6960
  67   0.0000       0.023271         0.6332
  68   0.0000       0.081053         2.2056
  69   0.0000       0.098530         2.6811
  70   0.0000       0.122936         3.3453
  71   0.0000       0.133256         3.6261

MULLIKEN ATOMIC CHARGES
-----------------------
   0 S :    0.086785
   1 C :   -0.163959
   2 C :   -0.063365
   3 C :   -0.006790
   4 C :   -0.074591
   5 H :   -0.011498
   6 C :    0.105369
   7 H :   -0.003503
   8 H :    0.036509
   9 C :   -0.056945
  10 H :    0.010329
  11 H :    0.007206
  12 C :    0.015338
  13 H :    0.009333
  14 H :    0.005542
  15 H :    0.023119
  16 S :    0.095138
  17 C :   -0.095627
  18 C :   -0.022375
  19 C :   -0.084172
  20 C :   -0.131736
  21 H :    0.031385
  22 C :    0.073132
  23 H :    0.024953
  24 H :    0.012957
  25 C :   -0.110555
  26 H :    0.052741
  27 H :    0.042185
  28 C :   -0.013509
  29 H :    0.027877
  30 H :    0.031065
  31 H :    0.016925
  32 H :    0.064638
  33 H :    0.066100
Sum of atomic charges:   -0.0000000

LOEWDIN ATOMIC CHARGES
----------------------
   0 S :    0.399948
   1 C :   -0.192985
   2 C :   -0.073052
   3 C :   -0.075552
   4 C :   -0.191583
   5 H :    0.027427
   6 C :   -0.012659
   7 H :    0.015628
   8 H :    0.038121
   9 C :   -0.042560
  10 H :    0.020172
  11 H :    0.017719
  12 C :   -0.053391
  13 H :    0.012614
  14 H :    0.017128
  15 H :    0.030374
  16 S :    0.385410
  17 C :   -0.174646
  18 C :   -0.078012
  19 C :   -0.051966
  20 C :   -0.180643
  21 H :    0.041378
  22 C :   -0.030818
  23 H :    0.031781
  24 H :    0.028827
  25 C :   -0.050701
  26 H :    0.036147
  27 H :    0.027355
  28 C :   -0.060161
  29 H :    0.028640
  30 H :    0.024390
  31 H :    0.015593
  32 H :    0.036073
  33 H :    0.034007

  Mayer bond orders larger than 0.100000
B(  0-S ,  1-C ) :   1.1321 B(  0-S ,  4-C ) :   1.1576 B(  1-C ,  2-C ) :   1.6027
B(  1-C , 32-H ) :   0.9725 B(  2-C ,  3-C ) :   1.2691 B(  2-C ,  6-C ) :   1.0125
B(  3-C ,  4-C ) :   1.5388 B(  3-C ,  5-H ) :   0.9981 B(  4-C , 20-C ) :   1.0574
B(  6-C ,  7-H ) :   0.9405 B(  6-C ,  8-H ) :   0.9401 B(  6-C ,  9-C ) :   1.0814
B(  9-C , 10-H ) :   0.9521 B(  9-C , 11-H ) :   0.9525 B(  9-C , 12-C ) :   1.0725
B( 12-C , 13-H ) :   0.9698 B( 12-C , 14-H ) :   0.9702 B( 12-C , 15-H ) :   0.9756
B( 16-S , 17-C ) :   1.1449 B( 16-S , 20-C ) :   1.1184 B( 17-C , 18-C ) :   1.6540
B( 17-C , 33-H ) :   0.9562 B( 18-C , 19-C ) :   1.2180 B( 18-C , 21-H ) :   0.9848
B( 19-C , 20-C ) :   1.6390 B( 19-C , 22-C ) :   1.0200 B( 22-C , 23-H ) :   0.9339
B( 22-C , 24-H ) :   0.9493 B( 22-C , 25-C ) :   1.0310 B( 25-C , 26-H ) :   0.9657
B( 25-C , 27-H ) :   0.9451 B( 25-C , 28-C ) :   1.0882 B( 28-C , 29-H ) :   0.9683
B( 28-C , 30-H ) :   0.9722 B( 28-C , 31-H ) :   0.9753

Dispersion correction           -0.014259663
FINAL SINGLE POINT ENERGY     -1339.854918990374

DIPOLE MOMENT
-------------
                                X             Y             Z
Electronic contribution:     28.81086      -3.82430     -11.23450
Nuclear contribution   :    -29.40630       3.88670      11.67347
                        -----------------------------------------
Total Dipole Moment    :     -0.59544       0.06240       0.43897
                        -----------------------------------------
Magnitude (a.u.)       :      0.74239
Magnitude (Debye)      :      1.88699

Rotational constants in cm-1:     0.017039     0.009806     0.006520
Rotational constants in MHz :   510.825701   293.971487   195.454718

                             ****ORCA TERMINATED NORMALLY****
TOTAL RUN TIME: 0 days 0 hours 0 minutes 22 seconds 245 msec
