                         Program Version 4.2.1 -  RELEASE  -
|  1> ! wB97X-D3 SP def2-SVP
|  2> %pal
|  3> nprocs 24
|  4> end
|  5>
|  6> * xyz 0 1
|  7> S 	 -104.278 	 58.2653 	 -102.353
|  8> C 	 -105.214 	 59.6096 	 -101.75
|  9> C 	 -104.36 	 60.6637 	 -101.509
| 10> C 	 -102.997 	 60.496 	 -101.84
| 11> C 	 -102.785 	 59.2062 	 -102.227
| 12> H 	 -102.291 	 61.2397 	 -101.819
| 13> C 	 -104.871 	 61.9647 	 -100.882
| 14> H 	 -104.474 	 62.0427 	 -99.8584
| 15> H 	 -105.902 	 61.8171 	 -100.635
| 16> C 	 -104.797 	 63.2617 	 -101.731
| 17> H 	 -103.903 	 63.3445 	 -102.368
| 18> H 	 -105.621 	 63.2149 	 -102.462
| 19> C 	 -105.019 	 64.5528 	 -100.856
| 20> H 	 -106.073 	 64.688 	 -100.599
| 21> H 	 -104.358 	 64.6288 	 -100.022
| 22> H 	 -104.818 	 65.4359 	 -101.438
| 23> S 	 -100.206 	 58.9563 	 -101.562
| 24> C 	 -99.0381 	 58.2707 	 -102.685
| 25> C 	 -99.6524 	 57.7133 	 -103.776
| 26> C 	 -101.061 	 57.9653 	 -103.792
| 27> C 	 -101.482 	 58.7474 	 -102.712
| 28> H 	 -99.0589 	 57.1543 	 -104.55
| 29> C 	 -101.909 	 57.6386 	 -105.067
| 30> H 	 -102.249 	 58.5033 	 -105.604
| 31> H 	 -102.808 	 57.2717 	 -104.621
| 32> C 	 -101.246 	 56.6443 	 -106.023
| 33> H 	 -100.978 	 55.7146 	 -105.439
| 34> H 	 -100.262 	 56.9556 	 -106.329
| 35> C 	 -102.154 	 56.1814 	 -107.134
| 36> H 	 -102.506 	 57.0129 	 -107.723
| 37> H 	 -103.044 	 55.6964 	 -106.725
| 38> H 	 -101.681 	 55.4042 	 -107.767
| 39> H 	 -106.275 	 59.775 	 -101.664
| 40> H 	 -97.9719 	 58.2107 	 -102.526
| 41> *
| 42>
| 43>                          ****END OF INPUT****

CARTESIAN COORDINATES (ANGSTROEM)
---------------------------------
  S    -104.278000   58.265300  -102.353000
  C    -105.214000   59.609600  -101.750000
  C    -104.360000   60.663700  -101.509000
  C    -102.997000   60.496000  -101.840000
  C    -102.785000   59.206200  -102.227000
  H    -102.291000   61.239700  -101.819000
  C    -104.871000   61.964700  -100.882000
  H    -104.474000   62.042700  -99.858400
  H    -105.902000   61.817100  -100.635000
  C    -104.797000   63.261700  -101.731000
  H    -103.903000   63.344500  -102.368000
  H    -105.621000   63.214900  -102.462000
  C    -105.019000   64.552800  -100.856000
  H    -106.073000   64.688000  -100.599000
  H    -104.358000   64.628800  -100.022000
  H    -104.818000   65.435900  -101.438000
  S    -100.206000   58.956300  -101.562000
  C    -99.038100   58.270700  -102.685000
  C    -99.652400   57.713300  -103.776000
  C    -101.061000   57.965300  -103.792000
  C    -101.482000   58.747400  -102.712000
  H    -99.058900   57.154300  -104.550000
  C    -101.909000   57.638600  -105.067000
  H    -102.249000   58.503300  -105.604000
  H    -102.808000   57.271700  -104.621000
  C    -101.246000   56.644300  -106.023000
  H    -100.978000   55.714600  -105.439000
  H    -100.262000   56.955600  -106.329000
  C    -102.154000   56.181400  -107.134000
  H    -102.506000   57.012900  -107.723000
  H    -103.044000   55.696400  -106.725000
  H    -101.681000   55.404200  -107.767000
  H    -106.275000   59.775000  -101.664000
  H    -97.971900   58.210700  -102.526000

 Total Charge           Charge          ....    0
 Multiplicity           Mult            ....    1
 Number of Electrons    NEL             ....  134
 Basis Dimension        Dim             ....  322

ORBITAL ENERGIES
----------------

  NO   OCC          E(Eh)            E(eV)
   0   2.0000     -88.970415     -2421.0081
   1   2.0000     -88.965091     -2420.8632
   2   2.0000     -10.330786      -281.1150
   3   2.0000     -10.324206      -280.9359
   4   2.0000     -10.313791      -280.6525
   5   2.0000     -10.311999      -280.6037
   6   2.0000     -10.305033      -280.4142
   7   2.0000     -10.296554      -280.1835
   8   2.0000     -10.295628      -280.1583
   9   2.0000     -10.293666      -280.1049
  10   2.0000     -10.288231      -279.9570
  11   2.0000     -10.287629      -279.9406
  12   2.0000     -10.286605      -279.9128
  13   2.0000     -10.286363      -279.9062
  14   2.0000     -10.277501      -279.6650
  15   2.0000     -10.277008      -279.6516
  16   2.0000      -8.084262      -219.9840
  17   2.0000      -8.079929      -219.8661
  18   2.0000      -6.042946      -164.4369
  19   2.0000      -6.038915      -164.3272
  20   2.0000      -6.038463      -164.3149
  21   2.0000      -6.034868      -164.2171
  22   2.0000      -6.034367      -164.2035
  23   2.0000      -6.030714      -164.1041
  24   2.0000      -1.009041       -27.4574
  25   2.0000      -0.985479       -26.8163
  26   2.0000      -0.908087       -24.7103
  27   2.0000      -0.902909       -24.5694
  28   2.0000      -0.872091       -23.7308
  29   2.0000      -0.851671       -23.1751
  30   2.0000      -0.844440       -22.9784
  31   2.0000      -0.818032       -22.2598
  32   2.0000      -0.780567       -21.2403
  33   2.0000      -0.768262       -20.9055
  34   2.0000      -0.709783       -19.3142
  35   2.0000      -0.705469       -19.1968
  36   2.0000      -0.696487       -18.9524
  37   2.0000      -0.656016       -17.8511
  38   2.0000      -0.640912       -17.4401
  39   2.0000      -0.618890       -16.8409
  40   2.0000      -0.597597       -16.2614
  41   2.0000      -0.567876       -15.4527
  42   2.0000      -0.562767       -15.3137
  43   2.0000      -0.554140       -15.0789
  44   2.0000      -0.529496       -14.4083
  45   2.0000      -0.521624       -14.1941
  46   2.0000      -0.515414       -14.0251
  47   2.0000      -0.508409       -13.8345
  48   2.0000      -0.507664       -13.8142
  49   2.0000      -0.497224       -13.5302
  50   2.0000      -0.492350       -13.3975
  51   2.0000      -0.479481       -13.0473
  52   2.0000      -0.473154       -12.8752
  53   2.0000      -0.466021       -12.6811
  54   2.0000      -0.462958       -12.5977
  55   2.0000      -0.455440       -12.3931
  56   2.0000      -0.447305       -12.1718
  57   2.0000      -0.439821       -11.9681
  58   2.0000      -0.433481       -11.7956
  59   2.0000      -0.421411       -11.4672
  60   2.0000      -0.414616       -11.2823
  61   2.0000      -0.414116       -11.2687
  62   2.0000      -0.409777       -11.1506
  63   2.0000      -0.349698        -9.5158
  64   2.0000      -0.334633        -9.1058
  65   2.0000      -0.327428        -8.9098
  66   2.0000      -0.291584        -7.9344
  67   0.0000       0.027563         0.7500
  68   0.0000       0.078118         2.1257
  69   0.0000       0.113451         3.0872
  70   0.0000       0.115748         3.1497
  71   0.0000       0.130022         3.5381

MULLIKEN ATOMIC CHARGES
-----------------------
   0 S :    0.111620
   1 C :   -0.103307
   2 C :   -0.097059
   3 C :    0.048616
   4 C :   -0.099447
   5 H :   -0.012910
   6 C :    0.069381
   7 H :    0.037121
   8 H :   -0.007452
   9 C :   -0.087755
  10 H :    0.036484
  11 H :    0.029084
  12 C :   -0.042009
  13 H :    0.034893
  14 H :    0.032840
  15 H :    0.022042
  16 S :    0.108174
  17 C :   -0.080470
  18 C :   -0.070319
  19 C :   -0.051299
  20 C :   -0.173907
  21 H :    0.042435
  22 C :    0.105968
  23 H :    0.036197
  24 H :    0.004502
  25 C :   -0.120769
  26 H :    0.027406
  27 H :    0.027541
  28 C :   -0.014651
  29 H :    0.028035
  30 H :    0.027947
  31 H :    0.037655
  32 H :    0.043860
  33 H :    0.049553
Sum of atomic charges:   -0.0000000

LOEWDIN ATOMIC CHARGES
----------------------
   0 S :    0.404885
   1 C :   -0.205744
   2 C :   -0.059253
   3 C :   -0.049315
   4 C :   -0.182178
   5 H :    0.019836
   6 C :   -0.037866
   7 H :    0.033369
   8 H :    0.022750
   9 C :   -0.039991
  10 H :    0.022411
  11 H :    0.027457
  12 C :   -0.064561
  13 H :    0.027828
  14 H :    0.020856
  15 H :    0.025219
  16 S :    0.419129
  17 C :   -0.185615
  18 C :   -0.078637
  19 C :   -0.058198
  20 C :   -0.202330
  21 H :    0.042542
  22 C :   -0.027142
  23 H :    0.030676
  24 H :    0.019349
  25 C :   -0.050064
  26 H :    0.029957
  27 H :    0.016808
  28 C :   -0.062752
  29 H :    0.021568
  30 H :    0.027605
  31 H :    0.031093
  32 H :    0.032743
  33 H :    0.027564

  Mayer bond orders larger than 0.100000
B(  0-S ,  1-C ) :   1.1153 B(  0-S ,  4-C ) :   1.1399 B(  1-C ,  2-C ) :   1.6346
B(  1-C , 32-H ) :   0.9639 B(  2-C ,  3-C ) :   1.2318 B(  2-C ,  6-C ) :   1.0283
B(  3-C ,  4-C ) :   1.5466 B(  3-C ,  5-H ) :   1.0146 B(  4-C , 20-C ) :   1.0393
B(  6-C ,  7-H ) :   0.9467 B(  6-C ,  8-H ) :   0.9357 B(  6-C ,  9-C ) :   1.0372
B(  9-C , 10-H ) :   0.9689 B(  9-C , 11-H ) :   0.9560 B(  9-C , 12-C ) :   1.0747
B( 12-C , 13-H ) :   0.9773 B( 12-C , 14-H ) :   0.9796 B( 12-C , 15-H ) :   0.9734
B( 16-S , 17-C ) :   1.1508 B( 16-S , 20-C ) :   1.1571 B( 17-C , 18-C ) :   1.6105
B( 17-C , 20-C ) :   0.1005 B( 17-C , 33-H ) :   0.9644 B( 18-C , 19-C ) :   1.2520
B( 18-C , 21-H ) :   0.9764 B( 19-C , 20-C ) :   1.5881 B( 19-C , 22-C ) :   1.0072
B( 22-C , 23-H ) :   0.9411 B( 22-C , 24-H ) :   0.9231 B( 22-C , 25-C ) :   1.0772
B( 25-C , 26-H ) :   0.9538 B( 25-C , 27-H ) :   0.9468 B( 25-C , 28-C ) :   1.0864
B( 28-C , 29-H ) :   0.9728 B( 28-C , 30-H ) :   0.9720 B( 28-C , 31-H ) :   0.9716

Dispersion correction           -0.013359155
FINAL SINGLE POINT ENERGY     -1339.876697770895

DIPOLE MOMENT
-------------
                                X             Y             Z
Electronic contribution:      7.82684      -9.83058      11.36396
Nuclear contribution   :     -7.91912      10.14029     -11.65910
                        -----------------------------------------
Total Dipole Moment    :     -0.09229       0.30971      -0.29514
                        -----------------------------------------
Magnitude (a.u.)       :      0.43766
Magnitude (Debye)      :      1.11244

Rotational constants in cm-1:     0.020855     0.007076     0.006063
Rotational constants in MHz :   625.231146   212.119054   181.766191

                             ****ORCA TERMINATED NORMALLY****
TOTAL RUN TIME: 0 days 0 hours 0 minutes 19 seconds 450 msec
