                         Program Version 4.2.1 -  RELEASE  -
|  1> ! wB97X-D3 SP def2-SVP
|  2> %pal
|  3> nprocs 24
|  4> end
|  5>
|  6> * xyz 0 1
|  7> S 	 20.3574 	 -25.043 	 -119.704
|  8> C 	 20.7464 	 -26.3345 	 -120.843
|  9> C 	 21.3068 	 -27.3776 	 -120.159
| 10> C 	 21.5884 	 -27.0506 	 -118.823
| 11> C 	 21.116 	 -25.8279 	 -118.355
| 12> H 	 21.8551 	 -27.8385 	 -118.037
| 13> C 	 21.5517 	 -28.7281 	 -120.811
| 14> H 	 22.5413 	 -28.7373 	 -121.278
| 15> H 	 20.7323 	 -28.9292 	 -121.482
| 16> C 	 21.5406 	 -29.9007 	 -119.801
| 17> H 	 22.275 	 -29.8318 	 -118.958
| 18> H 	 20.5518 	 -29.9534 	 -119.448
| 19> C 	 21.8258 	 -31.2484 	 -120.374
| 20> H 	 21.3084 	 -31.3747 	 -121.301
| 21> H 	 22.8851 	 -31.4507 	 -120.536
| 22> H 	 21.475 	 -31.9478 	 -119.583
| 23> S 	 22.7239 	 -24.9728 	 -116.257
| 24> C 	 21.9707 	 -24.5724 	 -114.678
| 25> C 	 20.663 	 -24.9503 	 -114.734
| 26> C 	 20.1543 	 -25.1504 	 -116.036
| 27> C 	 21.1486 	 -25.357 	 -116.959
| 28> H 	 20.145 	 -24.8362 	 -113.806
| 29> C 	 18.6543 	 -25.2372 	 -116.383
| 30> H 	 18.1807 	 -26.1277 	 -115.934
| 31> H 	 18.4753 	 -25.2853 	 -117.476
| 32> C 	 17.8463 	 -24.0916 	 -115.793
| 33> H 	 18.3754 	 -23.1423 	 -115.893
| 34> H 	 17.6827 	 -24.2448 	 -114.732
| 35> C 	 16.408 	 -24.0185 	 -116.426
| 36> H 	 15.8996 	 -23.2064 	 -116.029
| 37> H 	 15.7978 	 -24.9554 	 -116.271
| 38> H 	 16.4918 	 -23.8277 	 -117.502
| 39> H 	 20.3563 	 -26.4895 	 -121.777
| 40> H 	 22.4334 	 -24.2627 	 -113.744
| 41> *
| 42>
| 43>                          ****END OF INPUT****

CARTESIAN COORDINATES (ANGSTROEM)
---------------------------------
  S     20.357400  -25.043000  -119.704000
  C     20.746400  -26.334500  -120.843000
  C     21.306800  -27.377600  -120.159000
  C     21.588400  -27.050600  -118.823000
  C     21.116000  -25.827900  -118.355000
  H     21.855100  -27.838500  -118.037000
  C     21.551700  -28.728100  -120.811000
  H     22.541300  -28.737300  -121.278000
  H     20.732300  -28.929200  -121.482000
  C     21.540600  -29.900700  -119.801000
  H     22.275000  -29.831800  -118.958000
  H     20.551800  -29.953400  -119.448000
  C     21.825800  -31.248400  -120.374000
  H     21.308400  -31.374700  -121.301000
  H     22.885100  -31.450700  -120.536000
  H     21.475000  -31.947800  -119.583000
  S     22.723900  -24.972800  -116.257000
  C     21.970700  -24.572400  -114.678000
  C     20.663000  -24.950300  -114.734000
  C     20.154300  -25.150400  -116.036000
  C     21.148600  -25.357000  -116.959000
  H     20.145000  -24.836200  -113.806000
  C     18.654300  -25.237200  -116.383000
  H     18.180700  -26.127700  -115.934000
  H     18.475300  -25.285300  -117.476000
  C     17.846300  -24.091600  -115.793000
  H     18.375400  -23.142300  -115.893000
  H     17.682700  -24.244800  -114.732000
  C     16.408000  -24.018500  -116.426000
  H     15.899600  -23.206400  -116.029000
  H     15.797800  -24.955400  -116.271000
  H     16.491800  -23.827700  -117.502000
  H     20.356300  -26.489500  -121.777000
  H     22.433400  -24.262700  -113.744000

 Total Charge           Charge          ....    0
 Multiplicity           Mult            ....    1
 Number of Electrons    NEL             ....  134
 Basis Dimension        Dim             ....  322

ORBITAL ENERGIES
----------------

  NO   OCC          E(Eh)            E(eV)
   0   2.0000     -88.967201     -2420.9206
   1   2.0000     -88.963895     -2420.8307
   2   2.0000     -10.332186      -281.1531
   3   2.0000     -10.329551      -281.0814
   4   2.0000     -10.320192      -280.8267
   5   2.0000     -10.306142      -280.4444
   6   2.0000     -10.305191      -280.4185
   7   2.0000     -10.296491      -280.1818
   8   2.0000     -10.293892      -280.1110
   9   2.0000     -10.293396      -280.0976
  10   2.0000     -10.292771      -280.0805
  11   2.0000     -10.291214      -280.0382
  12   2.0000     -10.284575      -279.8575
  13   2.0000     -10.281400      -279.7711
  14   2.0000     -10.277559      -279.6666
  15   2.0000     -10.274864      -279.5933
  16   2.0000      -8.081283      -219.9029
  17   2.0000      -8.077688      -219.8051
  18   2.0000      -6.039811      -164.3516
  19   2.0000      -6.036360      -164.2577
  20   2.0000      -6.035756      -164.2413
  21   2.0000      -6.032343      -164.1484
  22   2.0000      -6.032157      -164.1433
  23   2.0000      -6.028285      -164.0380
  24   2.0000      -1.007047       -27.4031
  25   2.0000      -0.987334       -26.8667
  26   2.0000      -0.916736       -24.9457
  27   2.0000      -0.904685       -24.6177
  28   2.0000      -0.875668       -23.8281
  29   2.0000      -0.848437       -23.0871
  30   2.0000      -0.842516       -22.9260
  31   2.0000      -0.818622       -22.2758
  32   2.0000      -0.782323       -21.2881
  33   2.0000      -0.773052       -21.0358
  34   2.0000      -0.712788       -19.3960
  35   2.0000      -0.696132       -18.9427
  36   2.0000      -0.687914       -18.7191
  37   2.0000      -0.659447       -17.9445
  38   2.0000      -0.633056       -17.2263
  39   2.0000      -0.616228       -16.7684
  40   2.0000      -0.596431       -16.2297
  41   2.0000      -0.581025       -15.8105
  42   2.0000      -0.575970       -15.6729
  43   2.0000      -0.566552       -15.4167
  44   2.0000      -0.529549       -14.4098
  45   2.0000      -0.527085       -14.3427
  46   2.0000      -0.518011       -14.0958
  47   2.0000      -0.512661       -13.9502
  48   2.0000      -0.504547       -13.7294
  49   2.0000      -0.499497       -13.5920
  50   2.0000      -0.488833       -13.3018
  51   2.0000      -0.479826       -13.0567
  52   2.0000      -0.472581       -12.8596
  53   2.0000      -0.466142       -12.6844
  54   2.0000      -0.463023       -12.5995
  55   2.0000      -0.444332       -12.0909
  56   2.0000      -0.440653       -11.9908
  57   2.0000      -0.436786       -11.8856
  58   2.0000      -0.429939       -11.6992
  59   2.0000      -0.421108       -11.4589
  60   2.0000      -0.419013       -11.4019
  61   2.0000      -0.415883       -11.3168
  62   2.0000      -0.409627       -11.1465
  63   2.0000      -0.340512        -9.2658
  64   2.0000      -0.332667        -9.0523
  65   2.0000      -0.327749        -8.9185
  66   2.0000      -0.300632        -8.1806
  67   0.0000       0.034139         0.9290
  68   0.0000       0.061647         1.6775
  69   0.0000       0.111694         3.0393
  70   0.0000       0.123947         3.3728
  71   0.0000       0.128136         3.4868

MULLIKEN ATOMIC CHARGES
-----------------------
   0 S :    0.108164
   1 C :   -0.078919
   2 C :   -0.118409
   3 C :    0.010086
   4 C :   -0.159571
   5 H :    0.044201
   6 C :    0.104508
   7 H :    0.046908
   8 H :    0.023678
   9 C :   -0.139859
  10 H :    0.043946
  11 H :    0.022474
  12 C :   -0.028107
  13 H :    0.018702
  14 H :    0.031877
  15 H :    0.038586
  16 S :    0.102982
  17 C :   -0.101436
  18 C :   -0.023632
  19 C :   -0.014999
  20 C :   -0.158528
  21 H :    0.014934
  22 C :    0.081487
  23 H :    0.031381
  24 H :    0.024581
  25 C :   -0.118545
  26 H :    0.037427
  27 H :    0.028972
  28 C :   -0.042245
  29 H :    0.020975
  30 H :    0.039615
  31 H :    0.034315
  32 H :    0.012854
  33 H :    0.061596
Sum of atomic charges:    0.0000000

LOEWDIN ATOMIC CHARGES
----------------------
   0 S :    0.415300
   1 C :   -0.184108
   2 C :   -0.066396
   3 C :   -0.078888
   4 C :   -0.201883
   5 H :    0.043177
   6 C :   -0.024538
   7 H :    0.036227
   8 H :    0.030009
   9 C :   -0.046737
  10 H :    0.028931
  11 H :    0.018019
  12 C :   -0.061343
  13 H :    0.017556
  14 H :    0.022774
  15 H :    0.034994
  16 S :    0.382944
  17 C :   -0.168826
  18 C :   -0.069713
  19 C :   -0.054069
  20 C :   -0.190295
  21 H :    0.029423
  22 C :   -0.033036
  23 H :    0.035302
  24 H :    0.024678
  25 C :   -0.041630
  26 H :    0.023854
  27 H :    0.019937
  28 C :   -0.061960
  29 H :    0.015512
  30 H :    0.031390
  31 H :    0.025925
  32 H :    0.012349
  33 H :    0.035122

  Mayer bond orders larger than 0.100000
B(  0-S ,  1-C ) :   1.1414 B(  0-S ,  4-C ) :   1.1586 B(  1-C ,  2-C ) :   1.6038
B(  1-C ,  4-C ) :   0.1033 B(  1-C , 32-H ) :   0.9755 B(  2-C ,  3-C ) :   1.2908
B(  2-C ,  6-C ) :   1.0119 B(  3-C ,  4-C ) :   1.5610 B(  3-C ,  5-H ) :   0.9674
B(  4-C , 20-C ) :   1.0149 B(  6-C ,  7-H ) :   0.9359 B(  6-C ,  8-H ) :   0.9398
B(  6-C ,  9-C ) :   1.0815 B(  9-C , 10-H ) :   0.9471 B(  9-C , 11-H ) :   0.9601
B(  9-C , 12-C ) :   1.0953 B( 12-C , 13-H ) :   0.9700 B( 12-C , 14-H ) :   0.9749
B( 12-C , 15-H ) :   0.9732 B( 16-S , 17-C ) :   1.1332 B( 16-S , 20-C ) :   1.1342
B( 17-C , 18-C ) :   1.6541 B( 17-C , 33-H ) :   0.9652 B( 18-C , 19-C ) :   1.2114
B( 18-C , 21-H ) :   0.9846 B( 19-C , 20-C ) :   1.6201 B( 19-C , 22-C ) :   1.0437
B( 22-C , 23-H ) :   0.9302 B( 22-C , 24-H ) :   0.9416 B( 22-C , 25-C ) :   1.0512
B( 25-C , 26-H ) :   0.9623 B( 25-C , 27-H ) :   0.9520 B( 25-C , 28-C ) :   1.0865
B( 28-C , 29-H ) :   0.9745 B( 28-C , 30-H ) :   0.9737 B( 28-C , 31-H ) :   0.9758

Dispersion correction           -0.013575917
FINAL SINGLE POINT ENERGY     -1339.865521636317

DIPOLE MOMENT
-------------
                                X             Y             Z
Electronic contribution:     13.73988      15.18218       1.60412
Nuclear contribution   :    -14.20093     -15.66637      -1.37289
                        -----------------------------------------
Total Dipole Moment    :     -0.46105      -0.48418       0.23123
                        -----------------------------------------
Magnitude (a.u.)       :      0.70744
Magnitude (Debye)      :      1.79817

Rotational constants in cm-1:     0.018309     0.007660     0.006653
Rotational constants in MHz :   548.904382   229.648947   199.453828

                             ****ORCA TERMINATED NORMALLY****
TOTAL RUN TIME: 0 days 0 hours 0 minutes 21 seconds 70 msec
