                         Program Version 4.2.1 -  RELEASE  -
|  1> ! wB97X-D3 SP def2-SVP
|  2> %pal
|  3> nprocs 24
|  4> end
|  5>
|  6> * xyz 0 1
|  7> S 	 -97.7714 	 1.24788 	 -107.959
|  8> C 	 -98.1254 	 2.33556 	 -109.294
|  9> C 	 -98.1312 	 3.65771 	 -108.909
| 10> C 	 -97.6223 	 3.72775 	 -107.575
| 11> C 	 -97.3805 	 2.5345 	 -106.878
| 12> H 	 -97.4093 	 4.6739 	 -107.069
| 13> C 	 -98.392 	 4.81085 	 -109.853
| 14> H 	 -97.9506 	 4.7019 	 -110.8
| 15> H 	 -97.8247 	 5.64576 	 -109.436
| 16> C 	 -99.9427 	 5.09676 	 -110.111
| 17> H 	 -100.405 	 4.20419 	 -110.474
| 18> H 	 -100.442 	 5.36416 	 -109.232
| 19> C 	 -100.296 	 6.09048 	 -111.211
| 20> H 	 -99.6023 	 6.92072 	 -111.436
| 21> H 	 -100.504 	 5.563 	 -112.236
| 22> H 	 -101.343 	 6.44271 	 -111.033
| 23> S 	 -95.7177 	 0.980101 	 -105.256
| 24> C 	 -95.5017 	 1.4992 	 -103.586
| 25> C 	 -96.2307 	 2.61387 	 -103.309
| 26> C 	 -96.9246 	 3.26314 	 -104.434
| 27> C 	 -96.7976 	 2.41125 	 -105.585
| 28> H 	 -96.2291 	 3.03583 	 -102.358
| 29> C 	 -97.7947 	 4.47325 	 -104.221
| 30> H 	 -98.3973 	 4.32194 	 -103.452
| 31> H 	 -98.5422 	 4.60086 	 -105.004
| 32> C 	 -96.9533 	 5.71526 	 -104.083
| 33> H 	 -96.8835 	 6.24875 	 -105.057
| 34> H 	 -95.8908 	 5.4741 	 -103.859
| 35> C 	 -97.4581 	 6.63066 	 -102.971
| 36> H 	 -96.7287 	 7.33084 	 -102.59
| 37> H 	 -97.7158 	 6.02803 	 -102.172
| 38> H 	 -98.3569 	 7.15503 	 -103.235
| 39> H 	 -98.302 	 2.09957 	 -110.382
| 40> H 	 -94.875 	 1.10761 	 -102.805
| 41> *
| 42>
| 43>                          ****END OF INPUT****

CARTESIAN COORDINATES (ANGSTROEM)
---------------------------------
  S    -97.771400    1.247880  -107.959000
  C    -98.125400    2.335560  -109.294000
  C    -98.131200    3.657710  -108.909000
  C    -97.622300    3.727750  -107.575000
  C    -97.380500    2.534500  -106.878000
  H    -97.409300    4.673900  -107.069000
  C    -98.392000    4.810850  -109.853000
  H    -97.950600    4.701900  -110.800000
  H    -97.824700    5.645760  -109.436000
  C    -99.942700    5.096760  -110.111000
  H    -100.405000    4.204190  -110.474000
  H    -100.442000    5.364160  -109.232000
  C    -100.296000    6.090480  -111.211000
  H    -99.602300    6.920720  -111.436000
  H    -100.504000    5.563000  -112.236000
  H    -101.343000    6.442710  -111.033000
  S    -95.717700    0.980101  -105.256000
  C    -95.501700    1.499200  -103.586000
  C    -96.230700    2.613870  -103.309000
  C    -96.924600    3.263140  -104.434000
  C    -96.797600    2.411250  -105.585000
  H    -96.229100    3.035830  -102.358000
  C    -97.794700    4.473250  -104.221000
  H    -98.397300    4.321940  -103.452000
  H    -98.542200    4.600860  -105.004000
  C    -96.953300    5.715260  -104.083000
  H    -96.883500    6.248750  -105.057000
  H    -95.890800    5.474100  -103.859000
  C    -97.458100    6.630660  -102.971000
  H    -96.728700    7.330840  -102.590000
  H    -97.715800    6.028030  -102.172000
  H    -98.356900    7.155030  -103.235000
  H    -98.302000    2.099570  -110.382000
  H    -94.875000    1.107610  -102.805000

 Total Charge           Charge          ....    0
 Multiplicity           Mult            ....    1
 Number of Electrons    NEL             ....  134
 Basis Dimension        Dim             ....  322

ORBITAL ENERGIES
----------------

  NO   OCC          E(Eh)            E(eV)
   0   2.0000     -88.968201     -2420.9478
   1   2.0000     -88.967714     -2420.9346
   2   2.0000     -10.337881      -281.3081
   3   2.0000     -10.327239      -281.0185
   4   2.0000     -10.317251      -280.7467
   5   2.0000     -10.316016      -280.7131
   6   2.0000     -10.313747      -280.6513
   7   2.0000     -10.300491      -280.2906
   8   2.0000     -10.295550      -280.1562
   9   2.0000     -10.294003      -280.1141
  10   2.0000     -10.290977      -280.0317
  11   2.0000     -10.290382      -280.0155
  12   2.0000     -10.288722      -279.9704
  13   2.0000     -10.285864      -279.8926
  14   2.0000     -10.282643      -279.8049
  15   2.0000     -10.270473      -279.4738
  16   2.0000      -8.082384      -219.9329
  17   2.0000      -8.081464      -219.9078
  18   2.0000      -6.041022      -164.3846
  19   2.0000      -6.040229      -164.3630
  20   2.0000      -6.036829      -164.2705
  21   2.0000      -6.036303      -164.2562
  22   2.0000      -6.033063      -164.1680
  23   2.0000      -6.031907      -164.1365
  24   2.0000      -1.003700       -27.3121
  25   2.0000      -0.976880       -26.5822
  26   2.0000      -0.919745       -25.0275
  27   2.0000      -0.908811       -24.7300
  28   2.0000      -0.872117       -23.7315
  29   2.0000      -0.852499       -23.1977
  30   2.0000      -0.844112       -22.9695
  31   2.0000      -0.812471       -22.1084
  32   2.0000      -0.788120       -21.4458
  33   2.0000      -0.774213       -21.0674
  34   2.0000      -0.711849       -19.3704
  35   2.0000      -0.703269       -19.1369
  36   2.0000      -0.701522       -19.0894
  37   2.0000      -0.661818       -18.0090
  38   2.0000      -0.634651       -17.2697
  39   2.0000      -0.618855       -16.8399
  40   2.0000      -0.602841       -16.4041
  41   2.0000      -0.567664       -15.4469
  42   2.0000      -0.563939       -15.3456
  43   2.0000      -0.555706       -15.1215
  44   2.0000      -0.532938       -14.5020
  45   2.0000      -0.527979       -14.3671
  46   2.0000      -0.526433       -14.3250
  47   2.0000      -0.518496       -14.1090
  48   2.0000      -0.506787       -13.7904
  49   2.0000      -0.499166       -13.5830
  50   2.0000      -0.493910       -13.4400
  51   2.0000      -0.479818       -13.0565
  52   2.0000      -0.469892       -12.7864
  53   2.0000      -0.461361       -12.5543
  54   2.0000      -0.453723       -12.3464
  55   2.0000      -0.448762       -12.2114
  56   2.0000      -0.445600       -12.1254
  57   2.0000      -0.444150       -12.0859
  58   2.0000      -0.438218       -11.9245
  59   2.0000      -0.430085       -11.7032
  60   2.0000      -0.417047       -11.3484
  61   2.0000      -0.415846       -11.3157
  62   2.0000      -0.409373       -11.1396
  63   2.0000      -0.356989        -9.7142
  64   2.0000      -0.331325        -9.0158
  65   2.0000      -0.329725        -8.9723
  66   2.0000      -0.280237        -7.6256
  67   0.0000       0.018587         0.5058
  68   0.0000       0.079562         2.1650
  69   0.0000       0.105949         2.8830
  70   0.0000       0.120392         3.2760
  71   0.0000       0.128505         3.4968

MULLIKEN ATOMIC CHARGES
-----------------------
   0 S :    0.116893
   1 C :   -0.140192
   2 C :   -0.076941
   3 C :   -0.006376
   4 C :   -0.131767
   5 H :   -0.003257
   6 C :    0.085488
   7 H :    0.014093
   8 H :    0.020611
   9 C :   -0.031665
  10 H :    0.022941
  11 H :    0.023893
  12 C :   -0.104811
  13 H :    0.046973
  14 H :    0.033545
  15 H :    0.037901
  16 S :    0.099474
  17 C :   -0.063576
  18 C :   -0.013962
  19 C :   -0.064891
  20 C :   -0.142856
  21 H :   -0.008437
  22 C :    0.135193
  23 H :   -0.012126
  24 H :    0.021329
  25 C :   -0.107141
  26 H :    0.039236
  27 H :    0.044007
  28 C :   -0.016392
  29 H :    0.032525
  30 H :    0.006227
  31 H :    0.027239
  32 H :    0.064131
  33 H :    0.052695
Sum of atomic charges:    0.0000000

LOEWDIN ATOMIC CHARGES
----------------------
   0 S :    0.414275
   1 C :   -0.201662
   2 C :   -0.068364
   3 C :   -0.066818
   4 C :   -0.210905
   5 H :    0.025021
   6 C :   -0.024374
   7 H :    0.024901
   8 H :    0.031922
   9 C :   -0.033344
  10 H :    0.026530
  11 H :    0.016932
  12 C :   -0.083141
  13 H :    0.024952
  14 H :    0.032163
  15 H :    0.033532
  16 S :    0.368066
  17 C :   -0.180668
  18 C :   -0.062153
  19 C :   -0.035120
  20 C :   -0.172094
  21 H :    0.017945
  22 C :   -0.024799
  23 H :    0.012764
  24 H :    0.036357
  25 C :   -0.040222
  26 H :    0.025918
  27 H :    0.029412
  28 C :   -0.058244
  29 H :    0.027261
  30 H :    0.013796
  31 H :    0.023889
  32 H :    0.041877
  33 H :    0.034395

  Mayer bond orders larger than 0.100000
B(  0-S ,  1-C ) :   1.1467 B(  0-S ,  4-C ) :   1.1343 B(  1-C ,  2-C ) :   1.5911
B(  1-C , 32-H ) :   0.9560 B(  2-C ,  3-C ) :   1.2740 B(  2-C ,  6-C ) :   1.0268
B(  3-C ,  4-C ) :   1.5357 B(  3-C ,  5-H ) :   0.9872 B(  4-C , 20-C ) :   1.1234
B(  6-C ,  7-H ) :   0.9444 B(  6-C ,  8-H ) :   0.9406 B(  6-C ,  9-C ) :   1.0450
B(  9-C , 10-H ) :   0.9583 B(  9-C , 11-H ) :   0.9658 B(  9-C , 12-C ) :   1.0713
B( 12-C , 13-H ) :   0.9769 B( 12-C , 14-H ) :   0.9789 B( 12-C , 15-H ) :   0.9725
B( 16-S , 17-C ) :   1.1152 B( 16-S , 20-C ) :   1.1127 B( 17-C , 18-C ) :   1.6622
B( 17-C , 33-H ) :   0.9648 B( 18-C , 19-C ) :   1.2102 B( 18-C , 21-H ) :   0.9886
B( 19-C , 20-C ) :   1.5753 B( 19-C , 22-C ) :   1.0506 B( 22-C , 23-H ) :   0.9417
B( 22-C , 24-H ) :   0.9214 B( 22-C , 25-C ) :   1.0259 B( 25-C , 26-H ) :   0.9518
B( 25-C , 27-H ) :   0.9686 B( 25-C , 28-C ) :   1.0755 B( 28-C , 29-H ) :   0.9739
B( 28-C , 30-H ) :   0.9763 B( 28-C , 31-H ) :   0.9733

Dispersion correction           -0.013506145
FINAL SINGLE POINT ENERGY     -1339.848945215598

DIPOLE MOMENT
-------------
                                X             Y             Z
Electronic contribution:     11.81778     -29.24333       3.74812
Nuclear contribution   :    -12.03540      29.99106      -3.60774
                        -----------------------------------------
Total Dipole Moment    :     -0.21762       0.74773       0.14038
                        -----------------------------------------
Magnitude (a.u.)       :      0.79131
Magnitude (Debye)      :      2.01134

Rotational constants in cm-1:     0.017907     0.008147     0.005786
Rotational constants in MHz :   536.845885   244.254641   173.470930

                             ****ORCA TERMINATED NORMALLY****
TOTAL RUN TIME: 0 days 0 hours 0 minutes 20 seconds 971 msec
