                         Program Version 4.2.1 -  RELEASE  -
|  1> ! wB97X-D3 SP def2-SVP
|  2> %pal
|  3> nprocs 24
|  4> end
|  5>
|  6> * xyz 0 1
|  7> S 	 -41.9918 	 9.71559 	 27.9987
|  8> C 	 -43.6704 	 9.82308 	 28.0651
|  9> C 	 -44.202 	 10.6789 	 27.0955
| 10> C 	 -43.1199 	 11.2206 	 26.3041
| 11> C 	 -41.8679 	 10.7698 	 26.6714
| 12> H 	 -43.2573 	 11.8613 	 25.494
| 13> C 	 -45.6111 	 11.2469 	 27.0733
| 14> H 	 -46.2239 	 10.308 	 27.1014
| 15> H 	 -45.7962 	 11.6981 	 26.1098
| 16> C 	 -45.8699 	 12.2861 	 28.1179
| 17> H 	 -46.9086 	 12.562 	 28.0252
| 18> H 	 -45.7453 	 11.8856 	 29.0968
| 19> C 	 -45.0504 	 13.5649 	 27.8519
| 20> H 	 -45.143 	 13.8832 	 26.8329
| 21> H 	 -45.2351 	 14.3761 	 28.5103
| 22> H 	 -43.9498 	 13.3577 	 28.0336
| 23> S 	 -39.5501 	 9.79474 	 25.478
| 24> C 	 -38.4217 	 11.0431 	 25.0384
| 25> C 	 -38.9133 	 12.3186 	 24.9394
| 26> C 	 -40.1973 	 12.3695 	 25.5471
| 27> C 	 -40.6774 	 11.1167 	 25.9131
| 28> H 	 -38.3735 	 13.1699 	 24.4822
| 29> C 	 -40.9418 	 13.7123 	 25.6328
| 30> H 	 -40.4661 	 14.3859 	 26.3958
| 31> H 	 -41.9876 	 13.7251 	 25.9462
| 32> C 	 -40.9276 	 14.54 	 24.3812
| 33> H 	 -39.9283 	 14.7932 	 23.9588
| 34> H 	 -41.3495 	 15.5607 	 24.5623
| 35> C 	 -41.7433 	 13.8896 	 23.2417
| 36> H 	 -41.6107 	 14.3519 	 22.2532
| 37> H 	 -42.8395 	 13.8622 	 23.4915
| 38> H 	 -41.4891 	 12.8313 	 23.0866
| 39> H 	 -44.1982 	 9.45706 	 28.9003
| 40> H 	 -37.3354 	 10.8788 	 24.7773
| 41> *
| 42>
| 43>                          ****END OF INPUT****

CARTESIAN COORDINATES (ANGSTROEM)
---------------------------------
  S    -41.991800    9.715590   27.998700
  C    -43.670400    9.823080   28.065100
  C    -44.202000   10.678900   27.095500
  C    -43.119900   11.220600   26.304100
  C    -41.867900   10.769800   26.671400
  H    -43.257300   11.861300   25.494000
  C    -45.611100   11.246900   27.073300
  H    -46.223900   10.308000   27.101400
  H    -45.796200   11.698100   26.109800
  C    -45.869900   12.286100   28.117900
  H    -46.908600   12.562000   28.025200
  H    -45.745300   11.885600   29.096800
  C    -45.050400   13.564900   27.851900
  H    -45.143000   13.883200   26.832900
  H    -45.235100   14.376100   28.510300
  H    -43.949800   13.357700   28.033600
  S    -39.550100    9.794740   25.478000
  C    -38.421700   11.043100   25.038400
  C    -38.913300   12.318600   24.939400
  C    -40.197300   12.369500   25.547100
  C    -40.677400   11.116700   25.913100
  H    -38.373500   13.169900   24.482200
  C    -40.941800   13.712300   25.632800
  H    -40.466100   14.385900   26.395800
  H    -41.987600   13.725100   25.946200
  C    -40.927600   14.540000   24.381200
  H    -39.928300   14.793200   23.958800
  H    -41.349500   15.560700   24.562300
  C    -41.743300   13.889600   23.241700
  H    -41.610700   14.351900   22.253200
  H    -42.839500   13.862200   23.491500
  H    -41.489100   12.831300   23.086600
  H    -44.198200    9.457060   28.900300
  H    -37.335400   10.878800   24.777300

 Total Charge           Charge          ....    0
 Multiplicity           Mult            ....    1
 Number of Electrons    NEL             ....  134
 Basis Dimension        Dim             ....  322

ORBITAL ENERGIES
----------------

  NO   OCC          E(Eh)            E(eV)
   0   2.0000     -88.968941     -2420.9680
   1   2.0000     -88.966400     -2420.8988
   2   2.0000     -10.326915      -281.0097
   3   2.0000     -10.319671      -280.8125
   4   2.0000     -10.319046      -280.7955
   5   2.0000     -10.306134      -280.4442
   6   2.0000     -10.305578      -280.4290
   7   2.0000     -10.298895      -280.2472
   8   2.0000     -10.295359      -280.1510
   9   2.0000     -10.294503      -280.1277
  10   2.0000     -10.292186      -280.0646
  11   2.0000     -10.291685      -280.0510
  12   2.0000     -10.284432      -279.8536
  13   2.0000     -10.283640      -279.8321
  14   2.0000     -10.279158      -279.7101
  15   2.0000     -10.277365      -279.6613
  16   2.0000      -8.083348      -219.9591
  17   2.0000      -8.082984      -219.9492
  18   2.0000      -6.041769      -164.4049
  19   2.0000      -6.041255      -164.3909
  20   2.0000      -6.038268      -164.3096
  21   2.0000      -6.037064      -164.2769
  22   2.0000      -6.034072      -164.1955
  23   2.0000      -6.033841      -164.1892
  24   2.0000      -1.011818       -27.5330
  25   2.0000      -0.987760       -26.8783
  26   2.0000      -0.918915       -25.0050
  27   2.0000      -0.911070       -24.7915
  28   2.0000      -0.869875       -23.6705
  29   2.0000      -0.850233       -23.1360
  30   2.0000      -0.844168       -22.9710
  31   2.0000      -0.809695       -22.0329
  32   2.0000      -0.785122       -21.3643
  33   2.0000      -0.773372       -21.0445
  34   2.0000      -0.708193       -19.2709
  35   2.0000      -0.701666       -19.0933
  36   2.0000      -0.687249       -18.7010
  37   2.0000      -0.659314       -17.9408
  38   2.0000      -0.645564       -17.5667
  39   2.0000      -0.614517       -16.7218
  40   2.0000      -0.597572       -16.2608
  41   2.0000      -0.579564       -15.7707
  42   2.0000      -0.557527       -15.1711
  43   2.0000      -0.551513       -15.0074
  44   2.0000      -0.545162       -14.8346
  45   2.0000      -0.532394       -14.4872
  46   2.0000      -0.511846       -13.9280
  47   2.0000      -0.507323       -13.8050
  48   2.0000      -0.496659       -13.5148
  49   2.0000      -0.492407       -13.3991
  50   2.0000      -0.489974       -13.3329
  51   2.0000      -0.476266       -12.9599
  52   2.0000      -0.467581       -12.7235
  53   2.0000      -0.467199       -12.7131
  54   2.0000      -0.460894       -12.5416
  55   2.0000      -0.452936       -12.3250
  56   2.0000      -0.450373       -12.2553
  57   2.0000      -0.442822       -12.0498
  58   2.0000      -0.434198       -11.8151
  59   2.0000      -0.427057       -11.6208
  60   2.0000      -0.421996       -11.4831
  61   2.0000      -0.414866       -11.2891
  62   2.0000      -0.409189       -11.1346
  63   2.0000      -0.345993        -9.4149
  64   2.0000      -0.335680        -9.1343
  65   2.0000      -0.325867        -8.8673
  66   2.0000      -0.287339        -7.8189
  67   0.0000       0.031270         0.8509
  68   0.0000       0.074009         2.0139
  69   0.0000       0.101800         2.7701
  70   0.0000       0.123681         3.3655
  71   0.0000       0.126880         3.4526

MULLIKEN ATOMIC CHARGES
-----------------------
   0 S :    0.137067
   1 C :   -0.122064
   2 C :   -0.099722
   3 C :    0.026739
   4 C :   -0.134609
   5 H :   -0.023875
   6 C :    0.055809
   7 H :    0.040375
   8 H :    0.011047
   9 C :   -0.008895
  10 H :    0.026505
  11 H :    0.019157
  12 C :   -0.069428
  13 H :    0.021896
  14 H :    0.028964
  15 H :    0.052935
  16 S :    0.121507
  17 C :   -0.105994
  18 C :   -0.044839
  19 C :   -0.017709
  20 C :   -0.174735
  21 H :    0.038040
  22 C :    0.074627
  23 H :    0.038809
  24 H :    0.020936
  25 C :   -0.106058
  26 H :    0.027561
  27 H :    0.033827
  28 C :   -0.083169
  29 H :    0.038082
  30 H :    0.031329
  31 H :    0.041632
  32 H :    0.035944
  33 H :    0.068308
Sum of atomic charges:   -0.0000000

LOEWDIN ATOMIC CHARGES
----------------------
   0 S :    0.460198
   1 C :   -0.215398
   2 C :   -0.061676
   3 C :   -0.054120
   4 C :   -0.222158
   5 H :    0.015009
   6 C :   -0.034309
   7 H :    0.038815
   8 H :    0.025547
   9 C :   -0.032848
  10 H :    0.024826
  11 H :    0.019311
  12 C :   -0.063621
  13 H :    0.019469
  14 H :    0.021328
  15 H :    0.035318
  16 S :    0.390701
  17 C :   -0.188912
  18 C :   -0.075643
  19 C :   -0.050843
  20 C :   -0.184241
  21 H :    0.041021
  22 C :   -0.036362
  23 H :    0.040352
  24 H :    0.030482
  25 C :   -0.048700
  26 H :    0.020427
  27 H :    0.030295
  28 C :   -0.077864
  29 H :    0.026688
  30 H :    0.024757
  31 H :    0.026873
  32 H :    0.017598
  33 H :    0.037679

  Mayer bond orders larger than 0.100000
B(  0-S ,  1-C ) :   1.1778 B(  0-S ,  4-C ) :   1.1711 B(  1-C ,  2-C ) :   1.5539
B(  1-C , 32-H ) :   0.9747 B(  2-C ,  3-C ) :   1.2809 B(  2-C ,  6-C ) :   1.0228
B(  3-C ,  4-C ) :   1.5231 B(  3-C ,  5-H ) :   1.0063 B(  4-C , 20-C ) :   1.0522
B(  6-C ,  7-H ) :   0.9358 B(  6-C ,  8-H ) :   0.9402 B(  6-C ,  9-C ) :   1.0749
B(  9-C , 10-H ) :   0.9517 B(  9-C , 11-H ) :   0.9554 B(  9-C , 12-C ) :   1.0730
B( 12-C , 13-H ) :   0.9750 B( 12-C , 14-H ) :   0.9725 B( 12-C , 15-H ) :   0.9712
B( 16-S , 17-C ) :   1.1512 B( 16-S , 20-C ) :   1.1172 B( 17-C , 18-C ) :   1.6381
B( 17-C , 33-H ) :   0.9533 B( 18-C , 19-C ) :   1.2222 B( 18-C , 21-H ) :   0.9821
B( 19-C , 20-C ) :   1.6284 B( 19-C , 22-C ) :   1.0294 B( 22-C , 23-H ) :   0.9266
B( 22-C , 24-H ) :   0.9411 B( 22-C , 25-C ) :   1.0784 B( 25-C , 26-H ) :   0.9514
B( 25-C , 27-H ) :   0.9512 B( 25-C , 28-C ) :   1.0687 B( 28-C , 29-H ) :   0.9748
B( 28-C , 30-H ) :   0.9717 B( 28-C , 31-H ) :   0.9752

Dispersion correction           -0.015900820
FINAL SINGLE POINT ENERGY     -1339.879969516481

DIPOLE MOMENT
-------------
                                X             Y             Z
Electronic contribution:     16.27627     -23.45156       5.52083
Nuclear contribution   :    -16.55817      24.08727      -5.55600
                        -----------------------------------------
Total Dipole Moment    :     -0.28190       0.63571      -0.03516
                        -----------------------------------------
Magnitude (a.u.)       :      0.69630
Magnitude (Debye)      :      1.76985

Rotational constants in cm-1:     0.018840     0.010311     0.007298
Rotational constants in MHz :   564.806384   309.118494   218.798365

                             ****ORCA TERMINATED NORMALLY****
TOTAL RUN TIME: 0 days 0 hours 0 minutes 23 seconds 104 msec
