                         Program Version 4.2.1 -  RELEASE  -
|  1> ! wB97X-D3 SP def2-SVP
|  2> %pal
|  3> nprocs 24
|  4> end
|  5>
|  6> * xyz 0 1
|  7> S 	 -52.6952 	 20.4902 	 33.0694
|  8> C 	 -51.199 	 21.2919 	 32.9729
|  9> C 	 -50.1453 	 20.3953 	 32.8486
| 10> C 	 -50.6203 	 19.0367 	 32.7493
| 11> C 	 -51.9345 	 18.9229 	 33.0059
| 12> H 	 -50.1239 	 18.0941 	 32.5314
| 13> C 	 -48.7431 	 20.8002 	 32.4563
| 14> H 	 -48.1944 	 20.1569 	 32.9932
| 15> H 	 -48.6254 	 21.8045 	 32.7327
| 16> C 	 -48.3886 	 20.5181 	 30.9584
| 17> H 	 -49.2097 	 20.8445 	 30.2739
| 18> H 	 -47.4717 	 21.0286 	 30.8107
| 19> C 	 -48.2124 	 18.9673 	 30.7284
| 20> H 	 -49.1671 	 18.5002 	 30.738
| 21> H 	 -47.7993 	 18.7412 	 29.6881
| 22> H 	 -47.5486 	 18.5082 	 31.4683
| 23> S 	 -54.1522 	 17.8556 	 31.9369
| 24> C 	 -54.6106 	 16.1894 	 32.3986
| 25> C 	 -53.6945 	 15.5151 	 33.2115
| 26> C 	 -52.5905 	 16.4032 	 33.4423
| 27> C 	 -52.7607 	 17.7146 	 32.9543
| 28> H 	 -53.8086 	 14.5479 	 33.4932
| 29> C 	 -51.4522 	 15.8069 	 34.2034
| 30> H 	 -51.9312 	 15.0462 	 34.8575
| 31> H 	 -50.9294 	 16.5826 	 34.7725
| 32> C 	 -50.5152 	 15.0543 	 33.2971
| 33> H 	 -49.9866 	 15.6971 	 32.5482
| 34> H 	 -51.1632 	 14.4126 	 32.7612
| 35> C 	 -49.4517 	 14.3159 	 34.0192
| 36> H 	 -48.7967 	 13.9107 	 33.2157
| 37> H 	 -49.8827 	 13.4647 	 34.6655
| 38> H 	 -48.7159 	 14.8192 	 34.5756
| 39> H 	 -51.0831 	 22.3547 	 33.1514
| 40> H 	 -55.4238 	 15.5651 	 31.9581
| 41> *
| 42>
| 43>                          ****END OF INPUT****

CARTESIAN COORDINATES (ANGSTROEM)
---------------------------------
  S    -52.695200   20.490200   33.069400
  C    -51.199000   21.291900   32.972900
  C    -50.145300   20.395300   32.848600
  C    -50.620300   19.036700   32.749300
  C    -51.934500   18.922900   33.005900
  H    -50.123900   18.094100   32.531400
  C    -48.743100   20.800200   32.456300
  H    -48.194400   20.156900   32.993200
  H    -48.625400   21.804500   32.732700
  C    -48.388600   20.518100   30.958400
  H    -49.209700   20.844500   30.273900
  H    -47.471700   21.028600   30.810700
  C    -48.212400   18.967300   30.728400
  H    -49.167100   18.500200   30.738000
  H    -47.799300   18.741200   29.688100
  H    -47.548600   18.508200   31.468300
  S    -54.152200   17.855600   31.936900
  C    -54.610600   16.189400   32.398600
  C    -53.694500   15.515100   33.211500
  C    -52.590500   16.403200   33.442300
  C    -52.760700   17.714600   32.954300
  H    -53.808600   14.547900   33.493200
  C    -51.452200   15.806900   34.203400
  H    -51.931200   15.046200   34.857500
  H    -50.929400   16.582600   34.772500
  C    -50.515200   15.054300   33.297100
  H    -49.986600   15.697100   32.548200
  H    -51.163200   14.412600   32.761200
  C    -49.451700   14.315900   34.019200
  H    -48.796700   13.910700   33.215700
  H    -49.882700   13.464700   34.665500
  H    -48.715900   14.819200   34.575600
  H    -51.083100   22.354700   33.151400
  H    -55.423800   15.565100   31.958100

 Total Charge           Charge          ....    0
 Multiplicity           Mult            ....    1
 Number of Electrons    NEL             ....  134
 Basis Dimension        Dim             ....  322

ORBITAL ENERGIES
----------------

  NO   OCC          E(Eh)            E(eV)
   0   2.0000     -88.970241     -2421.0033
   1   2.0000     -88.961820     -2420.7742
   2   2.0000     -10.326213      -280.9906
   3   2.0000     -10.322960      -280.9020
   4   2.0000     -10.322620      -280.8928
   5   2.0000     -10.309506      -280.5359
   6   2.0000     -10.302850      -280.3548
   7   2.0000     -10.299505      -280.2638
   8   2.0000     -10.291363      -280.0422
   9   2.0000     -10.291267      -280.0396
  10   2.0000     -10.289210      -279.9836
  11   2.0000     -10.287412      -279.9347
  12   2.0000     -10.283823      -279.8370
  13   2.0000     -10.282667      -279.8056
  14   2.0000     -10.280007      -279.7332
  15   2.0000     -10.277951      -279.6773
  16   2.0000      -8.084394      -219.9875
  17   2.0000      -8.077973      -219.8128
  18   2.0000      -6.042950      -164.4370
  19   2.0000      -6.039052      -164.3310
  20   2.0000      -6.036429      -164.2596
  21   2.0000      -6.035055      -164.2222
  22   2.0000      -6.032307      -164.1474
  23   2.0000      -6.028671      -164.0485
  24   2.0000      -1.011860       -27.5341
  25   2.0000      -0.985184       -26.8082
  26   2.0000      -0.922132       -25.0925
  27   2.0000      -0.911650       -24.8072
  28   2.0000      -0.872633       -23.7455
  29   2.0000      -0.856411       -23.3041
  30   2.0000      -0.841742       -22.9050
  31   2.0000      -0.820238       -22.3198
  32   2.0000      -0.783382       -21.3169
  33   2.0000      -0.767501       -20.8848
  34   2.0000      -0.705870       -19.2077
  35   2.0000      -0.701763       -19.0959
  36   2.0000      -0.687768       -18.7151
  37   2.0000      -0.674049       -18.3418
  38   2.0000      -0.648514       -17.6470
  39   2.0000      -0.617730       -16.8093
  40   2.0000      -0.590540       -16.0694
  41   2.0000      -0.579516       -15.7694
  42   2.0000      -0.574975       -15.6459
  43   2.0000      -0.551983       -15.0202
  44   2.0000      -0.538091       -14.6422
  45   2.0000      -0.530273       -14.4295
  46   2.0000      -0.520558       -14.1651
  47   2.0000      -0.510605       -13.8943
  48   2.0000      -0.500208       -13.6113
  49   2.0000      -0.498689       -13.5700
  50   2.0000      -0.494647       -13.4600
  51   2.0000      -0.484669       -13.1885
  52   2.0000      -0.477183       -12.9848
  53   2.0000      -0.465164       -12.6578
  54   2.0000      -0.462214       -12.5775
  55   2.0000      -0.451539       -12.2870
  56   2.0000      -0.435904       -11.8616
  57   2.0000      -0.434531       -11.8242
  58   2.0000      -0.431989       -11.7550
  59   2.0000      -0.429339       -11.6829
  60   2.0000      -0.423689       -11.5292
  61   2.0000      -0.417292       -11.3551
  62   2.0000      -0.412835       -11.2338
  63   2.0000      -0.355013        -9.6604
  64   2.0000      -0.332194        -9.0395
  65   2.0000      -0.325158        -8.8480
  66   2.0000      -0.285606        -7.7717
  67   0.0000       0.031897         0.8679
  68   0.0000       0.070916         1.9297
  69   0.0000       0.101333         2.7574
  70   0.0000       0.123867         3.3706
  71   0.0000       0.128423         3.4946

MULLIKEN ATOMIC CHARGES
-----------------------
   0 S :    0.103445
   1 C :   -0.117019
   2 C :   -0.120901
   3 C :    0.004905
   4 C :   -0.137415
   5 H :    0.000214
   6 C :    0.160609
   7 H :   -0.012272
   8 H :    0.005183
   9 C :   -0.057983
  10 H :    0.046654
  11 H :    0.031714
  12 C :   -0.094540
  13 H :    0.041916
  14 H :    0.042123
  15 H :    0.033613
  16 S :    0.112433
  17 C :   -0.093499
  18 C :   -0.007341
  19 C :   -0.049540
  20 C :   -0.139823
  21 H :   -0.013668
  22 C :    0.057278
  23 H :    0.022964
  24 H :    0.026773
  25 C :   -0.060574
  26 H :    0.033205
  27 H :    0.008397
  28 C :   -0.035184
  29 H :    0.027905
  30 H :    0.039996
  31 H :    0.022145
  32 H :    0.055226
  33 H :    0.063061
Sum of atomic charges:   -0.0000000

LOEWDIN ATOMIC CHARGES
----------------------
   0 S :    0.416958
   1 C :   -0.213173
   2 C :   -0.058339
   3 C :   -0.072557
   4 C :   -0.193969
   5 H :    0.032251
   6 C :   -0.015788
   7 H :    0.012359
   8 H :    0.022287
   9 C :   -0.024841
  10 H :    0.032457
  11 H :    0.019263
  12 C :   -0.070683
  13 H :    0.019603
  14 H :    0.033763
  15 H :    0.021845
  16 S :    0.405344
  17 C :   -0.177846
  18 C :   -0.055538
  19 C :   -0.051520
  20 C :   -0.208289
  21 H :    0.016438
  22 C :   -0.034384
  23 H :    0.034321
  24 H :    0.027779
  25 C :   -0.042424
  26 H :    0.026673
  27 H :    0.019877
  28 C :   -0.070171
  29 H :    0.033233
  30 H :    0.032730
  31 H :    0.017649
  32 H :    0.029849
  33 H :    0.034842

  Mayer bond orders larger than 0.100000
B(  0-S ,  1-C ) :   1.1465 B(  0-S ,  4-C ) :   1.1487 B(  1-C ,  2-C ) :   1.6069
B(  1-C , 32-H ) :   0.9660 B(  2-C ,  3-C ) :   1.2057 B(  2-C ,  6-C ) :   1.0391
B(  3-C ,  4-C ) :   1.6115 B(  3-C ,  5-H ) :   0.9854 B(  4-C , 20-C ) :   1.0214
B(  6-C ,  7-H ) :   0.9219 B(  6-C ,  8-H ) :   0.9388 B(  6-C ,  9-C ) :   1.0580
B(  9-C , 10-H ) :   0.9589 B(  9-C , 11-H ) :   0.9590 B(  9-C , 12-C ) :   1.0740
B( 12-C , 13-H ) :   0.9689 B( 12-C , 14-H ) :   0.9702 B( 12-C , 15-H ) :   0.9771
B( 16-S , 17-C ) :   1.1483 B( 16-S , 20-C ) :   1.1371 B( 17-C , 18-C ) :   1.6190
B( 17-C , 33-H ) :   0.9573 B( 18-C , 19-C ) :   1.2303 B( 18-C , 21-H ) :   1.0016
B( 19-C , 20-C ) :   1.6006 B( 19-C , 22-C ) :   1.0574 B( 22-C , 23-H ) :   0.9322
B( 22-C , 24-H ) :   0.9299 B( 22-C , 25-C ) :   1.0734 B( 25-C , 26-H ) :   0.9457
B( 25-C , 27-H ) :   0.9457 B( 25-C , 28-C ) :   1.0968 B( 28-C , 29-H ) :   0.9688
B( 28-C , 30-H ) :   0.9694 B( 28-C , 31-H ) :   0.9718

Dispersion correction           -0.014715971
FINAL SINGLE POINT ENERGY     -1339.850636429073

DIPOLE MOMENT
-------------
                                X             Y             Z
Electronic contribution:    -26.03935      12.52097       1.38705
Nuclear contribution   :     26.63017     -12.89546      -1.49568
                        -----------------------------------------
Total Dipole Moment    :      0.59082      -0.37450      -0.10862
                        -----------------------------------------
Magnitude (a.u.)       :      0.70790
Magnitude (Debye)      :      1.79933

Rotational constants in cm-1:     0.016614     0.010436     0.007353
Rotational constants in MHz :   498.071916   312.874410   220.423462

                             ****ORCA TERMINATED NORMALLY****
TOTAL RUN TIME: 0 days 0 hours 0 minutes 22 seconds 321 msec
