                         Program Version 4.2.1 -  RELEASE  -
|  1> ! wB97X-D3 SP def2-SVP
|  2> %pal
|  3> nprocs 24
|  4> end
|  5>
|  6> * xyz 0 1
|  7> S 	 45.859 	 -32.8653 	 -119.144
|  8> C 	 46.4457 	 -31.7482 	 -120.385
|  9> C 	 45.8745 	 -31.9267 	 -121.65
| 10> C 	 44.9462 	 -33.0158 	 -121.551
| 11> C 	 44.767 	 -33.5942 	 -120.266
| 12> H 	 44.444 	 -33.4581 	 -122.387
| 13> C 	 46.1976 	 -31.2505 	 -122.956
| 14> H 	 46.8559 	 -30.4642 	 -122.639
| 15> H 	 45.2972 	 -30.9474 	 -123.481
| 16> C 	 47.0331 	 -32.0922 	 -123.945
| 17> H 	 47.878 	 -31.5944 	 -124.36
| 18> H 	 47.5588 	 -32.8219 	 -123.328
| 19> C 	 46.2165 	 -32.7783 	 -125.092
| 20> H 	 46.9226 	 -33.3728 	 -125.634
| 21> H 	 45.433 	 -33.4547 	 -124.89
| 22> H 	 45.8661 	 -32.0326 	 -125.807
| 23> S 	 44.9264 	 -36.2012 	 -119.403
| 24> C 	 43.4652 	 -37.1456 	 -119.355
| 25> C 	 42.3222 	 -36.3369 	 -119.643
| 26> C 	 42.6574 	 -34.9701 	 -120.018
| 27> C 	 44.0255 	 -34.7634 	 -119.976
| 28> H 	 41.3041 	 -36.7016 	 -119.619
| 29> C 	 41.56 	 -33.9183 	 -120.219
| 30> H 	 41.9228 	 -33.0391 	 -120.866
| 31> H 	 41.2768 	 -33.4823 	 -119.24
| 32> C 	 40.264 	 -34.3809 	 -120.9
| 33> H 	 39.8352 	 -35.1436 	 -120.277
| 34> H 	 40.5424 	 -34.8718 	 -121.855
| 35> C 	 39.1156 	 -33.3299 	 -120.977
| 36> H 	 38.1926 	 -33.7687 	 -121.311
| 37> H 	 39.393 	 -32.6527 	 -121.729
| 38> H 	 38.8647 	 -32.8402 	 -120.026
| 39> H 	 47.2795 	 -31.1004 	 -120.313
| 40> H 	 43.3888 	 -38.0833 	 -118.869
| 41> *
| 42>
| 43>                          ****END OF INPUT****

CARTESIAN COORDINATES (ANGSTROEM)
---------------------------------
  S     45.859000  -32.865300  -119.144000
  C     46.445700  -31.748200  -120.385000
  C     45.874500  -31.926700  -121.650000
  C     44.946200  -33.015800  -121.551000
  C     44.767000  -33.594200  -120.266000
  H     44.444000  -33.458100  -122.387000
  C     46.197600  -31.250500  -122.956000
  H     46.855900  -30.464200  -122.639000
  H     45.297200  -30.947400  -123.481000
  C     47.033100  -32.092200  -123.945000
  H     47.878000  -31.594400  -124.360000
  H     47.558800  -32.821900  -123.328000
  C     46.216500  -32.778300  -125.092000
  H     46.922600  -33.372800  -125.634000
  H     45.433000  -33.454700  -124.890000
  H     45.866100  -32.032600  -125.807000
  S     44.926400  -36.201200  -119.403000
  C     43.465200  -37.145600  -119.355000
  C     42.322200  -36.336900  -119.643000
  C     42.657400  -34.970100  -120.018000
  C     44.025500  -34.763400  -119.976000
  H     41.304100  -36.701600  -119.619000
  C     41.560000  -33.918300  -120.219000
  H     41.922800  -33.039100  -120.866000
  H     41.276800  -33.482300  -119.240000
  C     40.264000  -34.380900  -120.900000
  H     39.835200  -35.143600  -120.277000
  H     40.542400  -34.871800  -121.855000
  C     39.115600  -33.329900  -120.977000
  H     38.192600  -33.768700  -121.311000
  H     39.393000  -32.652700  -121.729000
  H     38.864700  -32.840200  -120.026000
  H     47.279500  -31.100400  -120.313000
  H     43.388800  -38.083300  -118.869000

 Total Charge           Charge          ....    0
 Multiplicity           Mult            ....    1
 Number of Electrons    NEL             ....  134
 Basis Dimension        Dim             ....  322

ORBITAL ENERGIES
----------------

  NO   OCC          E(Eh)            E(eV)
   0   2.0000     -88.969674     -2420.9879
   1   2.0000     -88.966712     -2420.9073
   2   2.0000     -10.324963      -280.9565
   3   2.0000     -10.323555      -280.9182
   4   2.0000     -10.319939      -280.8198
   5   2.0000     -10.313633      -280.6482
   6   2.0000     -10.307884      -280.4918
   7   2.0000     -10.301891      -280.3287
   8   2.0000     -10.300138      -280.2810
   9   2.0000     -10.299505      -280.2638
  10   2.0000     -10.292452      -280.0719
  11   2.0000     -10.291441      -280.0443
  12   2.0000     -10.287832      -279.9461
  13   2.0000     -10.287152      -279.9276
  14   2.0000     -10.277375      -279.6616
  15   2.0000     -10.275879      -279.6209
  16   2.0000      -8.084052      -219.9782
  17   2.0000      -8.080981      -219.8947
  18   2.0000      -6.042498      -164.4247
  19   2.0000      -6.039514      -164.3435
  20   2.0000      -6.038596      -164.3185
  21   2.0000      -6.035565      -164.2361
  22   2.0000      -6.034917      -164.2184
  23   2.0000      -6.031723      -164.1315
  24   2.0000      -1.002050       -27.2672
  25   2.0000      -0.975679       -26.5496
  26   2.0000      -0.912894       -24.8411
  27   2.0000      -0.904827       -24.6216
  28   2.0000      -0.868062       -23.6212
  29   2.0000      -0.850705       -23.1489
  30   2.0000      -0.841843       -22.9077
  31   2.0000      -0.806582       -21.9482
  32   2.0000      -0.786851       -21.4113
  33   2.0000      -0.775861       -21.1123
  34   2.0000      -0.710177       -19.3249
  35   2.0000      -0.704043       -19.1580
  36   2.0000      -0.697343       -18.9757
  37   2.0000      -0.656083       -17.8529
  38   2.0000      -0.638466       -17.3735
  39   2.0000      -0.613836       -16.7033
  40   2.0000      -0.596145       -16.2219
  41   2.0000      -0.572710       -15.5842
  42   2.0000      -0.569002       -15.4833
  43   2.0000      -0.548917       -14.9368
  44   2.0000      -0.539019       -14.6675
  45   2.0000      -0.520101       -14.1527
  46   2.0000      -0.514723       -14.0063
  47   2.0000      -0.512114       -13.9353
  48   2.0000      -0.505400       -13.7526
  49   2.0000      -0.496483       -13.5100
  50   2.0000      -0.490521       -13.3478
  51   2.0000      -0.477991       -13.0068
  52   2.0000      -0.466629       -12.6976
  53   2.0000      -0.463999       -12.6260
  54   2.0000      -0.460513       -12.5312
  55   2.0000      -0.455409       -12.3923
  56   2.0000      -0.443712       -12.0740
  57   2.0000      -0.440927       -11.9982
  58   2.0000      -0.431928       -11.7534
  59   2.0000      -0.431559       -11.7433
  60   2.0000      -0.424373       -11.5478
  61   2.0000      -0.411127       -11.1873
  62   2.0000      -0.407971       -11.1014
  63   2.0000      -0.334439        -9.1005
  64   2.0000      -0.332793        -9.0558
  65   2.0000      -0.327541        -8.9128
  66   2.0000      -0.291942        -7.9441
  67   0.0000       0.028518         0.7760
  68   0.0000       0.061656         1.6778
  69   0.0000       0.113026         3.0756
  70   0.0000       0.122677         3.3382
  71   0.0000       0.123795         3.3686

MULLIKEN ATOMIC CHARGES
-----------------------
   0 S :    0.124465
   1 C :   -0.100673
   2 C :   -0.123491
   3 C :    0.046359
   4 C :   -0.183938
   5 H :   -0.001538
   6 C :    0.123958
   7 H :    0.009014
   8 H :    0.037312
   9 C :   -0.067788
  10 H :    0.021960
  11 H :    0.023271
  12 C :   -0.044398
  13 H :    0.021474
  14 H :    0.031428
  15 H :    0.032851
  16 S :    0.112601
  17 C :   -0.080742
  18 C :   -0.050509
  19 C :   -0.003935
  20 C :   -0.169279
  21 H :    0.023550
  22 C :    0.042953
  23 H :    0.040356
  24 H :    0.043253
  25 C :   -0.127573
  26 H :    0.024013
  27 H :    0.038523
  28 C :   -0.011126
  29 H :    0.026124
  30 H :    0.022646
  31 H :    0.036897
  32 H :    0.026012
  33 H :    0.055974
Sum of atomic charges:   -0.0000000

LOEWDIN ATOMIC CHARGES
----------------------
   0 S :    0.416696
   1 C :   -0.192446
   2 C :   -0.059495
   3 C :   -0.052349
   4 C :   -0.213376
   5 H :    0.022869
   6 C :   -0.026823
   7 H :    0.031776
   8 H :    0.034272
   9 C :   -0.036696
  10 H :    0.023139
  11 H :    0.026689
  12 C :   -0.064676
  13 H :    0.026991
  14 H :    0.018668
  15 H :    0.026365
  16 S :    0.398073
  17 C :   -0.188257
  18 C :   -0.065346
  19 C :   -0.052154
  20 C :   -0.193696
  21 H :    0.027620
  22 C :   -0.037205
  23 H :    0.037776
  24 H :    0.036483
  25 C :   -0.046275
  26 H :    0.015035
  27 H :    0.028053
  28 C :   -0.057369
  29 H :    0.026452
  30 H :    0.018207
  31 H :    0.030270
  32 H :    0.017423
  33 H :    0.023306

  Mayer bond orders larger than 0.100000
B(  0-S ,  1-C ) :   1.1453 B(  0-S ,  4-C ) :   1.1483 B(  1-C ,  2-C ) :   1.6027
B(  1-C , 32-H ) :   0.9611 B(  2-C ,  3-C ) :   1.2506 B(  2-C ,  6-C ) :   1.0480
B(  3-C ,  4-C ) :   1.5558 B(  3-C ,  5-H ) :   0.9924 B(  4-C , 20-C ) :   1.0740
B(  6-C ,  7-H ) :   0.9228 B(  6-C ,  8-H ) :   0.9438 B(  6-C ,  9-C ) :   1.0517
B(  9-C , 10-H ) :   0.9583 B(  9-C , 11-H ) :   0.9577 B(  9-C , 12-C ) :   1.0745
B( 12-C , 13-H ) :   0.9705 B( 12-C , 14-H ) :   0.9796 B( 12-C , 15-H ) :   0.9748
B( 16-S , 17-C ) :   1.1592 B( 16-S , 20-C ) :   1.1295 B( 17-C , 18-C ) :   1.5960
B( 17-C , 20-C ) :   0.1014 B( 17-C , 33-H ) :   0.9688 B( 18-C , 19-C ) :   1.2398
B( 18-C , 21-H ) :   0.9847 B( 19-C , 20-C ) :   1.6033 B( 19-C , 22-C ) :   1.0400
B( 22-C , 23-H ) :   0.9371 B( 22-C , 24-H ) :   0.9339 B( 22-C , 25-C ) :   1.0598
B( 25-C , 26-H ) :   0.9497 B( 25-C , 27-H ) :   0.9612 B( 25-C , 28-C ) :   1.0806
B( 28-C , 29-H ) :   0.9736 B( 28-C , 30-H ) :   0.9764 B( 28-C , 31-H ) :   0.9725

Dispersion correction           -0.013651979
FINAL SINGLE POINT ENERGY     -1339.866614576857

DIPOLE MOMENT
-------------
                                X             Y             Z
Electronic contribution:     13.40116      -8.95902      20.93239
Nuclear contribution   :    -13.66837       9.08872     -21.38929
                        -----------------------------------------
Total Dipole Moment    :     -0.26722       0.12970      -0.45690
                        -----------------------------------------
Magnitude (a.u.)       :      0.54496
Magnitude (Debye)      :      1.38518

Rotational constants in cm-1:     0.015892     0.008404     0.006928
Rotational constants in MHz :   476.426943   251.940177   207.710338

                             ****ORCA TERMINATED NORMALLY****
TOTAL RUN TIME: 0 days 0 hours 0 minutes 21 seconds 98 msec
