                         Program Version 4.2.1 -  RELEASE  -
|  1> ! wB97X-D3 SP def2-SVP
|  2> %pal
|  3> nprocs 24
|  4> end
|  5>
|  6> * xyz 0 1
|  7> S 	 -133.232 	 58.5652 	 -63.9925
|  8> C 	 -133.704 	 59.7948 	 -65.1491
|  9> C 	 -133.816 	 59.2961 	 -66.4365
| 10> C 	 -133.553 	 57.9094 	 -66.4295
| 11> C 	 -133.351 	 57.2761 	 -65.2306
| 12> H 	 -133.589 	 57.2401 	 -67.3116
| 13> C 	 -134.102 	 60.056 	 -67.7089
| 14> H 	 -134.697 	 61.0016 	 -67.5278
| 15> H 	 -134.708 	 59.4099 	 -68.3422
| 16> C 	 -132.84 	 60.5299 	 -68.5604
| 17> H 	 -132.178 	 61.2049 	 -67.9419
| 18> H 	 -132.192 	 59.7069 	 -68.8733
| 19> C 	 -133.149 	 61.3114 	 -69.8984
| 20> H 	 -133.776 	 62.21 	 -69.7443
| 21> H 	 -132.165 	 61.5399 	 -70.3445
| 22> H 	 -133.715 	 60.7528 	 -70.6837
| 23> S 	 -134.657 	 55.1024 	 -64.1328
| 24> C 	 -133.743 	 53.6103 	 -63.8902
| 25> C 	 -132.466 	 53.6996 	 -64.4085
| 26> C 	 -132.229 	 54.9271 	 -65.0588
| 27> C 	 -133.273 	 55.8646 	 -64.8633
| 28> H 	 -131.79 	 52.8461 	 -64.3077
| 29> C 	 -130.997 	 55.1384 	 -65.9679
| 30> H 	 -131.03 	 56.1496 	 -66.219
| 31> H 	 -131.2 	 54.6569 	 -66.881
| 32> C 	 -129.667 	 54.8815 	 -65.2741
| 33> H 	 -129.699 	 53.8681 	 -64.8836
| 34> H 	 -129.567 	 55.5586 	 -64.3545
| 35> C 	 -128.502 	 55.0297 	 -66.2779
| 36> H 	 -128.544 	 55.9099 	 -66.9372
| 37> H 	 -128.308 	 54.145 	 -66.8438
| 38> H 	 -127.593 	 55.2603 	 -65.6675
| 39> H 	 -133.796 	 60.809 	 -64.9361
| 40> H 	 -134.021 	 52.8112 	 -63.2443
| 41> *
| 42>
| 43>                          ****END OF INPUT****

CARTESIAN COORDINATES (ANGSTROEM)
---------------------------------
  S    -133.232000   58.565200  -63.992500
  C    -133.704000   59.794800  -65.149100
  C    -133.816000   59.296100  -66.436500
  C    -133.553000   57.909400  -66.429500
  C    -133.351000   57.276100  -65.230600
  H    -133.589000   57.240100  -67.311600
  C    -134.102000   60.056000  -67.708900
  H    -134.697000   61.001600  -67.527800
  H    -134.708000   59.409900  -68.342200
  C    -132.840000   60.529900  -68.560400
  H    -132.178000   61.204900  -67.941900
  H    -132.192000   59.706900  -68.873300
  C    -133.149000   61.311400  -69.898400
  H    -133.776000   62.210000  -69.744300
  H    -132.165000   61.539900  -70.344500
  H    -133.715000   60.752800  -70.683700
  S    -134.657000   55.102400  -64.132800
  C    -133.743000   53.610300  -63.890200
  C    -132.466000   53.699600  -64.408500
  C    -132.229000   54.927100  -65.058800
  C    -133.273000   55.864600  -64.863300
  H    -131.790000   52.846100  -64.307700
  C    -130.997000   55.138400  -65.967900
  H    -131.030000   56.149600  -66.219000
  H    -131.200000   54.656900  -66.881000
  C    -129.667000   54.881500  -65.274100
  H    -129.699000   53.868100  -64.883600
  H    -129.567000   55.558600  -64.354500
  C    -128.502000   55.029700  -66.277900
  H    -128.544000   55.909900  -66.937200
  H    -128.308000   54.145000  -66.843800
  H    -127.593000   55.260300  -65.667500
  H    -133.796000   60.809000  -64.936100
  H    -134.021000   52.811200  -63.244300

 Total Charge           Charge          ....    0
 Multiplicity           Mult            ....    1
 Number of Electrons    NEL             ....  134
 Basis Dimension        Dim             ....  322

ORBITAL ENERGIES
----------------

  NO   OCC          E(Eh)            E(eV)
   0   2.0000     -88.967283     -2420.9229
   1   2.0000     -88.963011     -2420.8066
   2   2.0000     -10.329304      -281.0746
   3   2.0000     -10.327507      -281.0257
   4   2.0000     -10.315492      -280.6988
   5   2.0000     -10.312904      -280.6284
   6   2.0000     -10.304098      -280.3888
   7   2.0000     -10.303484      -280.3721
   8   2.0000     -10.301202      -280.3100
   9   2.0000     -10.299819      -280.2723
  10   2.0000     -10.294450      -280.1262
  11   2.0000     -10.292566      -280.0750
  12   2.0000     -10.291936      -280.0578
  13   2.0000     -10.288835      -279.9734
  14   2.0000     -10.279955      -279.7318
  15   2.0000     -10.279869      -279.7295
  16   2.0000      -8.081735      -219.9152
  17   2.0000      -8.077279      -219.7939
  18   2.0000      -6.040241      -164.3633
  19   2.0000      -6.036225      -164.2540
  20   2.0000      -6.035846      -164.2437
  21   2.0000      -6.032567      -164.1545
  22   2.0000      -6.031797      -164.1335
  23   2.0000      -6.028042      -164.0314
  24   2.0000      -1.002935       -27.2913
  25   2.0000      -0.982804       -26.7434
  26   2.0000      -0.907921       -24.7058
  27   2.0000      -0.899688       -24.4818
  28   2.0000      -0.866809       -23.5871
  29   2.0000      -0.846539       -23.0355
  30   2.0000      -0.844114       -22.9695
  31   2.0000      -0.815408       -22.1884
  32   2.0000      -0.781629       -21.2692
  33   2.0000      -0.769187       -20.9307
  34   2.0000      -0.705255       -19.1910
  35   2.0000      -0.701362       -19.0850
  36   2.0000      -0.697472       -18.9792
  37   2.0000      -0.653913       -17.7939
  38   2.0000      -0.645915       -17.5763
  39   2.0000      -0.617867       -16.8130
  40   2.0000      -0.594985       -16.1904
  41   2.0000      -0.567832       -15.4515
  42   2.0000      -0.565048       -15.3757
  43   2.0000      -0.552344       -15.0300
  44   2.0000      -0.525883       -14.3100
  45   2.0000      -0.521589       -14.1932
  46   2.0000      -0.517246       -14.0750
  47   2.0000      -0.506795       -13.7906
  48   2.0000      -0.502831       -13.6827
  49   2.0000      -0.495997       -13.4968
  50   2.0000      -0.493514       -13.4292
  51   2.0000      -0.477439       -12.9918
  52   2.0000      -0.474299       -12.9063
  53   2.0000      -0.463803       -12.6207
  54   2.0000      -0.460375       -12.5274
  55   2.0000      -0.445294       -12.1171
  56   2.0000      -0.441532       -12.0147
  57   2.0000      -0.437245       -11.8980
  58   2.0000      -0.433353       -11.7921
  59   2.0000      -0.421404       -11.4670
  60   2.0000      -0.420508       -11.4426
  61   2.0000      -0.419431       -11.4133
  62   2.0000      -0.412938       -11.2366
  63   2.0000      -0.340211        -9.2576
  64   2.0000      -0.328980        -8.9520
  65   2.0000      -0.321253        -8.7417
  66   2.0000      -0.304249        -8.2790
  67   0.0000       0.034296         0.9332
  68   0.0000       0.056402         1.5348
  69   0.0000       0.115215         3.1351
  70   0.0000       0.121803         3.3144
  71   0.0000       0.128993         3.5101

MULLIKEN ATOMIC CHARGES
-----------------------
   0 S :    0.105380
   1 C :   -0.091617
   2 C :   -0.061609
   3 C :    0.041697
   4 C :   -0.191762
   5 H :    0.015165
   6 C :    0.055638
   7 H :    0.034144
   8 H :    0.027887
   9 C :   -0.091542
  10 H :    0.038023
  11 H :    0.031738
  12 C :   -0.084425
  13 H :    0.037552
  14 H :    0.044343
  15 H :    0.035782
  16 S :    0.125530
  17 C :   -0.087847
  18 C :   -0.048911
  19 C :   -0.039493
  20 C :   -0.185183
  21 H :    0.028644
  22 C :    0.146021
  23 H :   -0.005036
  24 H :    0.027804
  25 C :   -0.119594
  26 H :    0.026798
  27 H :    0.050999
  28 C :   -0.038043
  29 H :    0.032085
  30 H :    0.037206
  31 H :    0.031175
  32 H :    0.021830
  33 H :    0.049621
Sum of atomic charges:    0.0000000

LOEWDIN ATOMIC CHARGES
----------------------
   0 S :    0.388454
   1 C :   -0.173771
   2 C :   -0.073036
   3 C :   -0.059255
   4 C :   -0.192007
   5 H :    0.034214
   6 C :   -0.034233
   7 H :    0.037228
   8 H :    0.030272
   9 C :   -0.042034
  10 H :    0.028716
  11 H :    0.022528
  12 C :   -0.076674
  13 H :    0.024430
  14 H :    0.031677
  15 H :    0.026092
  16 S :    0.415369
  17 C :   -0.177804
  18 C :   -0.075308
  19 C :   -0.044929
  20 C :   -0.218064
  21 H :    0.035079
  22 C :   -0.025051
  23 H :    0.021047
  24 H :    0.028271
  25 C :   -0.040925
  26 H :    0.019211
  27 H :    0.037384
  28 C :   -0.068942
  29 H :    0.026606
  30 H :    0.022906
  31 H :    0.032449
  32 H :    0.015426
  33 H :    0.024675

  Mayer bond orders larger than 0.100000
B(  0-S ,  1-C ) :   1.1549 B(  0-S ,  4-C ) :   1.1291 B(  1-C ,  2-C ) :   1.5970
B(  1-C ,  4-C ) :   0.1015 B(  1-C , 32-H ) :   0.9752 B(  2-C ,  3-C ) :   1.2412
B(  2-C ,  6-C ) :   1.0348 B(  3-C ,  4-C ) :   1.6066 B(  3-C ,  5-H ) :   0.9869
B(  4-C , 20-C ) :   1.0306 B(  6-C ,  7-H ) :   0.9430 B(  6-C ,  8-H ) :   0.9396
B(  6-C ,  9-C ) :   1.0497 B(  9-C , 10-H ) :   0.9588 B(  9-C , 11-H ) :   0.9594
B(  9-C , 12-C ) :   1.0709 B( 12-C , 13-H ) :   0.9767 B( 12-C , 14-H ) :   0.9751
B( 12-C , 15-H ) :   0.9767 B( 16-S , 17-C ) :   1.1608 B( 16-S , 20-C ) :   1.1566
B( 17-C , 18-C ) :   1.6080 B( 17-C , 20-C ) :   0.1072 B( 17-C , 33-H ) :   0.9659
B( 18-C , 19-C ) :   1.2559 B( 18-C , 21-H ) :   0.9853 B( 19-C , 20-C ) :   1.5705
B( 19-C , 22-C ) :   1.0272 B( 22-C , 23-H ) :   0.9156 B( 22-C , 24-H ) :   0.9378
B( 22-C , 25-C ) :   1.0567 B( 25-C , 26-H ) :   0.9590 B( 25-C , 27-H ) :   0.9588
B( 25-C , 28-C ) :   1.0750 B( 28-C , 29-H ) :   0.9752 B( 28-C , 30-H ) :   0.9765
B( 28-C , 31-H ) :   0.9747

Dispersion correction           -0.013513939
FINAL SINGLE POINT ENERGY     -1339.877328183354

DIPOLE MOMENT
-------------
                                X             Y             Z
Electronic contribution:    -17.07470      -7.59073      21.83883
Nuclear contribution   :     17.44588       7.56059     -22.36463
                        -----------------------------------------
Total Dipole Moment    :      0.37119      -0.03014      -0.52580
                        -----------------------------------------
Magnitude (a.u.)       :      0.64432
Magnitude (Debye)      :      1.63774

Rotational constants in cm-1:     0.017262     0.007797     0.006221
Rotational constants in MHz :   517.506940   233.752833   186.486998

                             ****ORCA TERMINATED NORMALLY****
TOTAL RUN TIME: 0 days 0 hours 0 minutes 20 seconds 721 msec
