                         Program Version 4.2.1 -  RELEASE  -
|  1> ! wB97X-D3 SP def2-SVP
|  2> %pal
|  3> nprocs 24
|  4> end
|  5>
|  6> * xyz 0 1
|  7> S 	 -111.438 	 17.9057 	 -120.944
|  8> C 	 -112.334 	 18.8763 	 -119.792
|  9> C 	 -111.512 	 19.3382 	 -118.79
| 10> C 	 -110.216 	 18.712 	 -118.84
| 11> C 	 -109.974 	 17.8337 	 -119.912
| 12> H 	 -109.407 	 18.8695 	 -118.201
| 13> C 	 -111.811 	 20.5468 	 -117.906
| 14> H 	 -112.824 	 20.9369 	 -118.141
| 15> H 	 -110.998 	 21.2917 	 -118.056
| 16> C 	 -111.816 	 20.1759 	 -116.445
| 17> H 	 -110.899 	 19.8027 	 -116.121
| 18> H 	 -111.884 	 21.1168 	 -115.928
| 19> C 	 -113.028 	 19.2241 	 -115.992
| 20> H 	 -112.871 	 18.1493 	 -116.129
| 21> H 	 -113.238 	 19.3355 	 -114.929
| 22> H 	 -113.902 	 19.4353 	 -116.636
| 23> S 	 -108.837 	 16.1264 	 -121.858
| 24> C 	 -107.179 	 15.648 	 -121.733
| 25> C 	 -106.575 	 16.2636 	 -120.578
| 26> C 	 -107.488 	 17.0393 	 -119.833
| 27> C 	 -108.739 	 17.1355 	 -120.385
| 28> H 	 -105.565 	 16.0949 	 -120.378
| 29> C 	 -107.029 	 17.5862 	 -118.457
| 30> H 	 -107.417 	 18.5657 	 -118.162
| 31> H 	 -105.94 	 17.7264 	 -118.536
| 32> C 	 -107.273 	 16.6248 	 -117.252
| 33> H 	 -106.699 	 15.6645 	 -117.394
| 34> H 	 -108.305 	 16.2762 	 -117.146
| 35> C 	 -106.746 	 17.1518 	 -115.918
| 36> H 	 -105.694 	 16.9697 	 -115.78
| 37> H 	 -107.178 	 16.7131 	 -115.015
| 38> H 	 -106.719 	 18.2426 	 -115.736
| 39> H 	 -113.367 	 19.0761 	 -119.935
| 40> H 	 -106.727 	 15.0842 	 -122.456
| 41> *
| 42>
| 43>                          ****END OF INPUT****

CARTESIAN COORDINATES (ANGSTROEM)
---------------------------------
  S    -111.438000   17.905700  -120.944000
  C    -112.334000   18.876300  -119.792000
  C    -111.512000   19.338200  -118.790000
  C    -110.216000   18.712000  -118.840000
  C    -109.974000   17.833700  -119.912000
  H    -109.407000   18.869500  -118.201000
  C    -111.811000   20.546800  -117.906000
  H    -112.824000   20.936900  -118.141000
  H    -110.998000   21.291700  -118.056000
  C    -111.816000   20.175900  -116.445000
  H    -110.899000   19.802700  -116.121000
  H    -111.884000   21.116800  -115.928000
  C    -113.028000   19.224100  -115.992000
  H    -112.871000   18.149300  -116.129000
  H    -113.238000   19.335500  -114.929000
  H    -113.902000   19.435300  -116.636000
  S    -108.837000   16.126400  -121.858000
  C    -107.179000   15.648000  -121.733000
  C    -106.575000   16.263600  -120.578000
  C    -107.488000   17.039300  -119.833000
  C    -108.739000   17.135500  -120.385000
  H    -105.565000   16.094900  -120.378000
  C    -107.029000   17.586200  -118.457000
  H    -107.417000   18.565700  -118.162000
  H    -105.940000   17.726400  -118.536000
  C    -107.273000   16.624800  -117.252000
  H    -106.699000   15.664500  -117.394000
  H    -108.305000   16.276200  -117.146000
  C    -106.746000   17.151800  -115.918000
  H    -105.694000   16.969700  -115.780000
  H    -107.178000   16.713100  -115.015000
  H    -106.719000   18.242600  -115.736000
  H    -113.367000   19.076100  -119.935000
  H    -106.727000   15.084200  -122.456000

 Total Charge           Charge          ....    0
 Multiplicity           Mult            ....    1
 Number of Electrons    NEL             ....  134
 Basis Dimension        Dim             ....  322

ORBITAL ENERGIES
----------------

  NO   OCC          E(Eh)            E(eV)
   0   2.0000     -88.970814     -2421.0189
   1   2.0000     -88.961015     -2420.7523
   2   2.0000     -10.340310      -281.3741
   3   2.0000     -10.336738      -281.2770
   4   2.0000     -10.321256      -280.8556
   5   2.0000     -10.312799      -280.6255
   6   2.0000     -10.308161      -280.4993
   7   2.0000     -10.303834      -280.3816
   8   2.0000     -10.302385      -280.3422
   9   2.0000     -10.298643      -280.2403
  10   2.0000     -10.298341      -280.2321
  11   2.0000     -10.294677      -280.1324
  12   2.0000     -10.293540      -280.1015
  13   2.0000     -10.281957      -279.7863
  14   2.0000     -10.281599      -279.7765
  15   2.0000     -10.278823      -279.7010
  16   2.0000      -8.085079      -220.0062
  17   2.0000      -8.075307      -219.7403
  18   2.0000      -6.043567      -164.4538
  19   2.0000      -6.039528      -164.3439
  20   2.0000      -6.036021      -164.2485
  21   2.0000      -6.033953      -164.1922
  22   2.0000      -6.029948      -164.0832
  23   2.0000      -6.025892      -163.9729
  24   2.0000      -1.001823       -27.2610
  25   2.0000      -0.981101       -26.6971
  26   2.0000      -0.909668       -24.7533
  27   2.0000      -0.906383       -24.6639
  28   2.0000      -0.864446       -23.5228
  29   2.0000      -0.855646       -23.2833
  30   2.0000      -0.836030       -22.7495
  31   2.0000      -0.811282       -22.0761
  32   2.0000      -0.785324       -21.3698
  33   2.0000      -0.776489       -21.1293
  34   2.0000      -0.710051       -19.3215
  35   2.0000      -0.701525       -19.0895
  36   2.0000      -0.697425       -18.9779
  37   2.0000      -0.671132       -18.2624
  38   2.0000      -0.646170       -17.5832
  39   2.0000      -0.623304       -16.9610
  40   2.0000      -0.601502       -16.3677
  41   2.0000      -0.567440       -15.4408
  42   2.0000      -0.559735       -15.2312
  43   2.0000      -0.553377       -15.0581
  44   2.0000      -0.532730       -14.4963
  45   2.0000      -0.522694       -14.2232
  46   2.0000      -0.520705       -14.1691
  47   2.0000      -0.516991       -14.0680
  48   2.0000      -0.501650       -13.6506
  49   2.0000      -0.499274       -13.5859
  50   2.0000      -0.487869       -13.2756
  51   2.0000      -0.485774       -13.2186
  52   2.0000      -0.471387       -12.8271
  53   2.0000      -0.463402       -12.6098
  54   2.0000      -0.459411       -12.5012
  55   2.0000      -0.451666       -12.2905
  56   2.0000      -0.444227       -12.0880
  57   2.0000      -0.438661       -11.9366
  58   2.0000      -0.436409       -11.8753
  59   2.0000      -0.428127       -11.6499
  60   2.0000      -0.421638       -11.4734
  61   2.0000      -0.411682       -11.2024
  62   2.0000      -0.406137       -11.0515
  63   2.0000      -0.361081        -9.8255
  64   2.0000      -0.337367        -9.1802
  65   2.0000      -0.324286        -8.8243
  66   2.0000      -0.281644        -7.6639
  67   0.0000       0.015542         0.4229
  68   0.0000       0.083595         2.2747
  69   0.0000       0.089844         2.4448
  70   0.0000       0.112726         3.0674
  71   0.0000       0.130992         3.5645

MULLIKEN ATOMIC CHARGES
-----------------------
   0 S :    0.069762
   1 C :   -0.120244
   2 C :   -0.046350
   3 C :    0.020356
   4 C :   -0.105496
   5 H :   -0.039836
   6 C :    0.048535
   7 H :    0.027178
   8 H :    0.049774
   9 C :   -0.046909
  10 H :    0.013062
  11 H :    0.018703
  12 C :   -0.070906
  13 H :    0.042335
  14 H :    0.040726
  15 H :    0.025480
  16 S :    0.106816
  17 C :   -0.066648
  18 C :   -0.015332
  19 C :   -0.044144
  20 C :   -0.102898
  21 H :    0.000751
  22 C :    0.032786
  23 H :    0.032483
  24 H :    0.023230
  25 C :   -0.062844
  26 H :    0.034239
  27 H :    0.041988
  28 C :   -0.055843
  29 H :    0.017026
  30 H :    0.035175
  31 H :    0.020858
  32 H :    0.042734
  33 H :    0.033456
Sum of atomic charges:    0.0000000

LOEWDIN ATOMIC CHARGES
----------------------
   0 S :    0.373867
   1 C :   -0.185478
   2 C :   -0.063251
   3 C :   -0.065029
   4 C :   -0.165345
   5 H :    0.013327
   6 C :   -0.025891
   7 H :    0.031979
   8 H :    0.041388
   9 C :   -0.036859
  10 H :    0.012071
  11 H :    0.021893
  12 C :   -0.068913
  13 H :    0.028339
  14 H :    0.027006
  15 H :    0.024613
  16 S :    0.409220
  17 C :   -0.170815
  18 C :   -0.058170
  19 C :   -0.059235
  20 C :   -0.184253
  21 H :    0.021842
  22 C :   -0.026766
  23 H :    0.024862
  24 H :    0.033205
  25 C :   -0.044078
  26 H :    0.032773
  27 H :    0.027126
  28 C :   -0.079415
  29 H :    0.022747
  30 H :    0.030287
  31 H :    0.024388
  32 H :    0.022356
  33 H :    0.010209

  Mayer bond orders larger than 0.100000
B(  0-S ,  1-C ) :   1.1378 B(  0-S ,  4-C ) :   1.1386 B(  1-C ,  2-C ) :   1.6029
B(  1-C , 32-H ) :   0.9742 B(  2-C ,  3-C ) :   1.2298 B(  2-C ,  6-C ) :   1.0222
B(  3-C ,  4-C ) :   1.5795 B(  3-C ,  5-H ) :   0.9970 B(  4-C , 20-C ) :   1.0663
B(  6-C ,  7-H ) :   0.9436 B(  6-C ,  8-H ) :   0.9425 B(  6-C ,  9-C ) :   1.0846
B(  9-C , 10-H ) :   0.9576 B(  9-C , 11-H ) :   0.9562 B(  9-C , 12-C ) :   1.0504
B( 12-C , 13-H ) :   0.9773 B( 12-C , 14-H ) :   0.9792 B( 12-C , 15-H ) :   0.9792
B( 16-S , 17-C ) :   1.1845 B( 16-S , 20-C ) :   1.1347 B( 17-C , 18-C ) :   1.5456
B( 17-C , 20-C ) :   0.1074 B( 17-C , 33-H ) :   0.9834 B( 18-C , 19-C ) :   1.2758
B( 18-C , 21-H ) :   1.0019 B( 19-C , 20-C ) :   1.5923 B( 19-C , 22-C ) :   1.0332
B( 22-C , 23-H ) :   0.9425 B( 22-C , 24-H ) :   0.9342 B( 22-C , 25-C ) :   1.0552
B( 25-C , 26-H ) :   0.9552 B( 25-C , 27-H ) :   0.9626 B( 25-C , 28-C ) :   1.0644
B( 28-C , 29-H ) :   0.9750 B( 28-C , 30-H ) :   0.9746 B( 28-C , 31-H ) :   0.9756

Dispersion correction           -0.014049900
FINAL SINGLE POINT ENERGY     -1339.868956888570

DIPOLE MOMENT
-------------
                                X             Y             Z
Electronic contribution:     -2.52039      -8.59598     -30.31761
Nuclear contribution   :      2.93981       8.82867      30.90287
                        -----------------------------------------
Total Dipole Moment    :      0.41942       0.23269       0.58526
                        -----------------------------------------
Magnitude (a.u.)       :      0.75669
Magnitude (Debye)      :      1.92335

Rotational constants in cm-1:     0.017431     0.009451     0.006492
Rotational constants in MHz :   522.553552   283.338033   194.620474

                             ****ORCA TERMINATED NORMALLY****
TOTAL RUN TIME: 0 days 0 hours 0 minutes 21 seconds 422 msec
