                         Program Version 4.2.1 -  RELEASE  -
|  1> ! wB97X-D3 SP def2-SVP
|  2> %pal
|  3> nprocs 24
|  4> end
|  5>
|  6> * xyz 0 1
|  7> S 	 -135.46 	 11.7877 	 -15.4179
|  8> C 	 -135.238 	 10.2069 	 -14.598
|  9> C 	 -133.933 	 9.7178 	 -14.7629
| 10> C 	 -133.121 	 10.7525 	 -15.3667
| 11> C 	 -133.793 	 11.8692 	 -15.9183
| 12> H 	 -132.076 	 10.6293 	 -15.5355
| 13> C 	 -133.338 	 8.42266 	 -14.3891
| 14> H 	 -132.909 	 7.92192 	 -15.2556
| 15> H 	 -134.245 	 7.8149 	 -14.0796
| 16> C 	 -132.359 	 8.36833 	 -13.2138
| 17> H 	 -131.392 	 8.92206 	 -13.3827
| 18> H 	 -132.869 	 9.04005 	 -12.5286
| 19> C 	 -132.232 	 7.07277 	 -12.4505
| 20> H 	 -133.141 	 6.48438 	 -12.2828
| 21> H 	 -131.539 	 6.39945 	 -12.8535
| 22> H 	 -131.782 	 7.25821 	 -11.4695
| 23> S 	 -133.505 	 14.5816 	 -15.5539
| 24> C 	 -132.542 	 15.509 	 -16.6255
| 25> C 	 -131.989 	 14.6533 	 -17.5748
| 26> C 	 -132.305 	 13.2582 	 -17.4239
| 27> C 	 -133.214 	 13.0696 	 -16.4013
| 28> H 	 -131.404 	 14.9726 	 -18.3931
| 29> C 	 -131.852 	 12.2367 	 -18.4789
| 30> H 	 -131.794 	 12.7862 	 -19.4636
| 31> H 	 -132.668 	 11.5064 	 -18.6565
| 32> C 	 -130.497 	 11.6665 	 -18.1712
| 33> H 	 -130.247 	 11.4481 	 -17.1579
| 34> H 	 -129.783 	 12.4181 	 -18.4441
| 35> C 	 -130.212 	 10.4311 	 -19.1328
| 36> H 	 -129.271 	 9.94221 	 -18.9101
| 37> H 	 -130.236 	 10.7681 	 -20.1748
| 38> H 	 -130.989 	 9.70673 	 -18.9948
| 39> H 	 -135.978 	 9.61995 	 -14.0875
| 40> H 	 -132.626 	 16.5961 	 -16.7489
| 41> *
| 42>
| 43>                          ****END OF INPUT****

CARTESIAN COORDINATES (ANGSTROEM)
---------------------------------
  S    -135.460000   11.787700  -15.417900
  C    -135.238000   10.206900  -14.598000
  C    -133.933000    9.717800  -14.762900
  C    -133.121000   10.752500  -15.366700
  C    -133.793000   11.869200  -15.918300
  H    -132.076000   10.629300  -15.535500
  C    -133.338000    8.422660  -14.389100
  H    -132.909000    7.921920  -15.255600
  H    -134.245000    7.814900  -14.079600
  C    -132.359000    8.368330  -13.213800
  H    -131.392000    8.922060  -13.382700
  H    -132.869000    9.040050  -12.528600
  C    -132.232000    7.072770  -12.450500
  H    -133.141000    6.484380  -12.282800
  H    -131.539000    6.399450  -12.853500
  H    -131.782000    7.258210  -11.469500
  S    -133.505000   14.581600  -15.553900
  C    -132.542000   15.509000  -16.625500
  C    -131.989000   14.653300  -17.574800
  C    -132.305000   13.258200  -17.423900
  C    -133.214000   13.069600  -16.401300
  H    -131.404000   14.972600  -18.393100
  C    -131.852000   12.236700  -18.478900
  H    -131.794000   12.786200  -19.463600
  H    -132.668000   11.506400  -18.656500
  C    -130.497000   11.666500  -18.171200
  H    -130.247000   11.448100  -17.157900
  H    -129.783000   12.418100  -18.444100
  C    -130.212000   10.431100  -19.132800
  H    -129.271000    9.942210  -18.910100
  H    -130.236000   10.768100  -20.174800
  H    -130.989000    9.706730  -18.994800
  H    -135.978000    9.619950  -14.087500
  H    -132.626000   16.596100  -16.748900

 Total Charge           Charge          ....    0
 Multiplicity           Mult            ....    1
 Number of Electrons    NEL             ....  134
 Basis Dimension        Dim             ....  322

ORBITAL ENERGIES
----------------

  NO   OCC          E(Eh)            E(eV)
   0   2.0000     -88.969381     -2420.9799
   1   2.0000     -88.962792     -2420.8006
   2   2.0000     -10.328628      -281.0562
   3   2.0000     -10.323369      -280.9131
   4   2.0000     -10.322148      -280.8799
   5   2.0000     -10.316585      -280.7286
   6   2.0000     -10.305087      -280.4157
   7   2.0000     -10.301108      -280.3074
   8   2.0000     -10.297739      -280.2157
   9   2.0000     -10.297047      -280.1969
  10   2.0000     -10.294986      -280.1408
  11   2.0000     -10.290840      -280.0280
  12   2.0000     -10.290608      -280.0217
  13   2.0000     -10.283974      -279.8412
  14   2.0000     -10.278479      -279.6916
  15   2.0000     -10.277054      -279.6529
  16   2.0000      -8.083207      -219.9552
  17   2.0000      -8.078122      -219.8169
  18   2.0000      -6.041811      -164.4060
  19   2.0000      -6.037767      -164.2960
  20   2.0000      -6.036643      -164.2654
  21   2.0000      -6.033979      -164.1929
  22   2.0000      -6.032382      -164.1495
  23   2.0000      -6.028979      -164.0569
  24   2.0000      -1.006907       -27.3993
  25   2.0000      -0.980500       -26.6808
  26   2.0000      -0.917837       -24.9756
  27   2.0000      -0.910081       -24.7646
  28   2.0000      -0.873398       -23.7664
  29   2.0000      -0.850984       -23.1564
  30   2.0000      -0.843787       -22.9606
  31   2.0000      -0.808661       -22.0048
  32   2.0000      -0.784881       -21.3577
  33   2.0000      -0.774698       -21.0806
  34   2.0000      -0.711138       -19.3510
  35   2.0000      -0.704510       -19.1707
  36   2.0000      -0.698800       -19.0153
  37   2.0000      -0.664315       -18.0769
  38   2.0000      -0.639279       -17.3957
  39   2.0000      -0.617739       -16.8095
  40   2.0000      -0.597196       -16.2505
  41   2.0000      -0.572905       -15.5895
  42   2.0000      -0.563580       -15.3358
  43   2.0000      -0.558967       -15.2103
  44   2.0000      -0.528802       -14.3894
  45   2.0000      -0.523565       -14.2469
  46   2.0000      -0.517087       -14.0707
  47   2.0000      -0.511884       -13.9291
  48   2.0000      -0.511438       -13.9169
  49   2.0000      -0.505402       -13.7527
  50   2.0000      -0.494513       -13.4564
  51   2.0000      -0.475643       -12.9429
  52   2.0000      -0.473391       -12.8816
  53   2.0000      -0.469134       -12.7658
  54   2.0000      -0.458319       -12.4715
  55   2.0000      -0.452350       -12.3091
  56   2.0000      -0.447577       -12.1792
  57   2.0000      -0.440015       -11.9734
  58   2.0000      -0.429919       -11.6987
  59   2.0000      -0.426517       -11.6061
  60   2.0000      -0.416244       -11.3266
  61   2.0000      -0.413172       -11.2430
  62   2.0000      -0.408498       -11.1158
  63   2.0000      -0.342713        -9.3257
  64   2.0000      -0.331630        -9.0241
  65   2.0000      -0.326735        -8.8909
  66   2.0000      -0.293614        -7.9896
  67   0.0000       0.023784         0.6472
  68   0.0000       0.070771         1.9258
  69   0.0000       0.108015         2.9392
  70   0.0000       0.123401         3.3579
  71   0.0000       0.125235         3.4078

MULLIKEN ATOMIC CHARGES
-----------------------
   0 S :    0.106996
   1 C :   -0.109847
   2 C :   -0.098393
   3 C :    0.040954
   4 C :   -0.161096
   5 H :   -0.004621
   6 C :    0.059466
   7 H :    0.042227
   8 H :    0.017034
   9 C :   -0.081875
  10 H :    0.042267
  11 H :    0.022350
  12 C :   -0.026718
  13 H :    0.032257
  14 H :    0.016028
  15 H :    0.030304
  16 S :    0.111774
  17 C :   -0.092494
  18 C :   -0.024014
  19 C :   -0.030090
  20 C :   -0.148021
  21 H :   -0.000997
  22 C :    0.024470
  23 H :    0.031215
  24 H :    0.041102
  25 C :   -0.062418
  26 H :    0.032085
  27 H :    0.019516
  28 C :   -0.039747
  29 H :    0.034266
  30 H :    0.031476
  31 H :    0.026818
  32 H :    0.041527
  33 H :    0.076198
Sum of atomic charges:   -0.0000000

LOEWDIN ATOMIC CHARGES
----------------------
   0 S :    0.400434
   1 C :   -0.181224
   2 C :   -0.063379
   3 C :   -0.047714
   4 C :   -0.204964
   5 H :    0.020667
   6 C :   -0.038995
   7 H :    0.031800
   8 H :    0.037580
   9 C :   -0.050308
  10 H :    0.032121
  11 H :    0.027239
  12 C :   -0.065483
  13 H :    0.029219
  14 H :    0.016321
  15 H :    0.033185
  16 S :    0.418686
  17 C :   -0.206968
  18 C :   -0.065984
  19 C :   -0.054337
  20 C :   -0.203616
  21 H :    0.019845
  22 C :   -0.032489
  23 H :    0.037559
  24 H :    0.032477
  25 C :   -0.037336
  26 H :    0.017803
  27 H :    0.023628
  28 C :   -0.059578
  29 H :    0.023628
  30 H :    0.026326
  31 H :    0.019527
  32 H :    0.025584
  33 H :    0.038748

  Mayer bond orders larger than 0.100000
B(  0-S ,  1-C ) :   1.1407 B(  0-S ,  4-C ) :   1.1359 B(  1-C ,  2-C ) :   1.5943
B(  1-C , 32-H ) :   0.9632 B(  2-C ,  3-C ) :   1.2459 B(  2-C ,  6-C ) :   1.0495
B(  3-C ,  4-C ) :   1.5601 B(  3-C ,  5-H ) :   0.9883 B(  4-C , 20-C ) :   1.0661
B(  6-C ,  7-H ) :   0.9328 B(  6-C ,  8-H ) :   0.9326 B(  6-C ,  9-C ) :   1.0543
B(  9-C , 10-H ) :   0.9495 B(  9-C , 11-H ) :   0.9539 B(  9-C , 12-C ) :   1.0915
B( 12-C , 13-H ) :   0.9713 B( 12-C , 14-H ) :   0.9735 B( 12-C , 15-H ) :   0.9711
B( 16-S , 17-C ) :   1.1616 B( 16-S , 20-C ) :   1.1448 B( 17-C , 18-C ) :   1.5793
B( 17-C , 33-H ) :   0.9637 B( 18-C , 19-C ) :   1.2723 B( 18-C , 21-H ) :   0.9894
B( 19-C , 20-C ) :   1.5810 B( 19-C , 22-C ) :   1.0330 B( 22-C , 23-H ) :   0.9411
B( 22-C , 24-H ) :   0.9491 B( 22-C , 25-C ) :   1.0423 B( 25-C , 26-H ) :   0.9644
B( 25-C , 27-H ) :   0.9503 B( 25-C , 28-C ) :   1.0745 B( 28-C , 29-H ) :   0.9768
B( 28-C , 30-H ) :   0.9746 B( 28-C , 31-H ) :   0.9806

Dispersion correction           -0.013817634
FINAL SINGLE POINT ENERGY     -1339.871489280340

DIPOLE MOMENT
-------------
                                X             Y             Z
Electronic contribution:    -18.26401      23.66716       2.05709
Nuclear contribution   :     18.71814     -24.13317      -2.20009
                        -----------------------------------------
Total Dipole Moment    :      0.45413      -0.46601      -0.14300
                        -----------------------------------------
Magnitude (a.u.)       :      0.66622
Magnitude (Debye)      :      1.69339

Rotational constants in cm-1:     0.016960     0.008676     0.006601
Rotational constants in MHz :   508.438966   260.101209   197.884229

                             ****ORCA TERMINATED NORMALLY****
TOTAL RUN TIME: 0 days 0 hours 0 minutes 20 seconds 155 msec
