                         Program Version 4.2.1 -  RELEASE  -
|  1> ! wB97X-D3 SP def2-SVP
|  2> %pal
|  3> nprocs 24
|  4> end
|  5>
|  6> * xyz 0 1
|  7> S 	 -33.0109 	 -37.4648 	 -92.11
|  8> C 	 -32.743 	 -38.0237 	 -90.4261
|  9> C 	 -33.6995 	 -37.4918 	 -89.5563
| 10> C 	 -34.7224 	 -36.833 	 -90.2704
| 11> C 	 -34.5305 	 -36.6025 	 -91.6101
| 12> H 	 -35.5842 	 -36.3556 	 -89.7904
| 13> C 	 -33.7506 	 -37.6515 	 -88.1078
| 14> H 	 -34.1534 	 -36.7472 	 -87.6895
| 15> H 	 -32.7624 	 -37.6477 	 -87.5762
| 16> C 	 -34.5846 	 -38.8817 	 -87.6746
| 17> H 	 -34.1233 	 -39.7849 	 -88.0747
| 18> H 	 -34.335 	 -39.0374 	 -86.5964
| 19> C 	 -36.1461 	 -38.7201 	 -87.7587
| 20> H 	 -36.6665 	 -37.8237 	 -87.3612
| 21> H 	 -36.5 	 -38.7396 	 -88.7592
| 22> H 	 -36.4672 	 -39.5926 	 -87.2995
| 23> S 	 -36.6968 	 -36.9388 	 -93.2128
| 24> C 	 -37.1339 	 -35.7457 	 -94.3983
| 25> C 	 -36.1552 	 -34.7746 	 -94.5312
| 26> C 	 -35.0785 	 -34.9614 	 -93.5687
| 27> C 	 -35.333 	 -36.015 	 -92.7105
| 28> H 	 -36.1754 	 -33.9969 	 -95.2894
| 29> C 	 -33.9165 	 -34.0098 	 -93.5616
| 30> H 	 -33.6234 	 -33.7346 	 -92.5351
| 31> H 	 -34.2646 	 -33.0219 	 -93.9698
| 32> C 	 -32.7111 	 -34.4922 	 -94.3469
| 33> H 	 -32.9573 	 -34.7259 	 -95.3291
| 34> H 	 -32.3313 	 -35.3772 	 -93.8819
| 35> C 	 -31.5699 	 -33.4583 	 -94.5167
| 36> H 	 -31.0613 	 -33.7283 	 -95.4781
| 37> H 	 -30.7978 	 -33.5743 	 -93.7615
| 38> H 	 -31.8755 	 -32.4211 	 -94.6094
| 39> H 	 -31.9063 	 -38.5925 	 -90.054
| 40> H 	 -38.0278 	 -35.8553 	 -94.9686
| 41> *
| 42>
| 43>                          ****END OF INPUT****

CARTESIAN COORDINATES (ANGSTROEM)
---------------------------------
  S    -33.010900  -37.464800  -92.110000
  C    -32.743000  -38.023700  -90.426100
  C    -33.699500  -37.491800  -89.556300
  C    -34.722400  -36.833000  -90.270400
  C    -34.530500  -36.602500  -91.610100
  H    -35.584200  -36.355600  -89.790400
  C    -33.750600  -37.651500  -88.107800
  H    -34.153400  -36.747200  -87.689500
  H    -32.762400  -37.647700  -87.576200
  C    -34.584600  -38.881700  -87.674600
  H    -34.123300  -39.784900  -88.074700
  H    -34.335000  -39.037400  -86.596400
  C    -36.146100  -38.720100  -87.758700
  H    -36.666500  -37.823700  -87.361200
  H    -36.500000  -38.739600  -88.759200
  H    -36.467200  -39.592600  -87.299500
  S    -36.696800  -36.938800  -93.212800
  C    -37.133900  -35.745700  -94.398300
  C    -36.155200  -34.774600  -94.531200
  C    -35.078500  -34.961400  -93.568700
  C    -35.333000  -36.015000  -92.710500
  H    -36.175400  -33.996900  -95.289400
  C    -33.916500  -34.009800  -93.561600
  H    -33.623400  -33.734600  -92.535100
  H    -34.264600  -33.021900  -93.969800
  C    -32.711100  -34.492200  -94.346900
  H    -32.957300  -34.725900  -95.329100
  H    -32.331300  -35.377200  -93.881900
  C    -31.569900  -33.458300  -94.516700
  H    -31.061300  -33.728300  -95.478100
  H    -30.797800  -33.574300  -93.761500
  H    -31.875500  -32.421100  -94.609400
  H    -31.906300  -38.592500  -90.054000
  H    -38.027800  -35.855300  -94.968600

 Total Charge           Charge          ....    0
 Multiplicity           Mult            ....    1
 Number of Electrons    NEL             ....  134
 Basis Dimension        Dim             ....  322

ORBITAL ENERGIES
----------------

  NO   OCC          E(Eh)            E(eV)
   0   2.0000     -88.963708     -2420.8256
   1   2.0000     -88.963630     -2420.8235
   2   2.0000     -10.334844      -281.2254
   3   2.0000     -10.325590      -280.9736
   4   2.0000     -10.317419      -280.7512
   5   2.0000     -10.316399      -280.7235
   6   2.0000     -10.304103      -280.3889
   7   2.0000     -10.297690      -280.2144
   8   2.0000     -10.297627      -280.2127
   9   2.0000     -10.295599      -280.1575
  10   2.0000     -10.294334      -280.1231
  11   2.0000     -10.290631      -280.0223
  12   2.0000     -10.289543      -279.9927
  13   2.0000     -10.275609      -279.6135
  14   2.0000     -10.275539      -279.6116
  15   2.0000     -10.272952      -279.5412
  16   2.0000      -8.079399      -219.8516
  17   2.0000      -8.076319      -219.7678
  18   2.0000      -6.037830      -164.2977
  19   2.0000      -6.034966      -164.2198
  20   2.0000      -6.033774      -164.1873
  21   2.0000      -6.031081      -164.1141
  22   2.0000      -6.030173      -164.0893
  23   2.0000      -6.027076      -164.0051
  24   2.0000      -1.004198       -27.3256
  25   2.0000      -0.980171       -26.6718
  26   2.0000      -0.909962       -24.7613
  27   2.0000      -0.908086       -24.7103
  28   2.0000      -0.863638       -23.5008
  29   2.0000      -0.848868       -23.0989
  30   2.0000      -0.841200       -22.8902
  31   2.0000      -0.816601       -22.2208
  32   2.0000      -0.784158       -21.3380
  33   2.0000      -0.770700       -20.9718
  34   2.0000      -0.709263       -19.3000
  35   2.0000      -0.701627       -19.0923
  36   2.0000      -0.692050       -18.8316
  37   2.0000      -0.667505       -18.1637
  38   2.0000      -0.638791       -17.3824
  39   2.0000      -0.615810       -16.7571
  40   2.0000      -0.599260       -16.3067
  41   2.0000      -0.570757       -15.5311
  42   2.0000      -0.563798       -15.3417
  43   2.0000      -0.545123       -14.8336
  44   2.0000      -0.535101       -14.5609
  45   2.0000      -0.522184       -14.2094
  46   2.0000      -0.513962       -13.9856
  47   2.0000      -0.511535       -13.9196
  48   2.0000      -0.507589       -13.8122
  49   2.0000      -0.496413       -13.5081
  50   2.0000      -0.492793       -13.4096
  51   2.0000      -0.477829       -13.0024
  52   2.0000      -0.471874       -12.8403
  53   2.0000      -0.468202       -12.7404
  54   2.0000      -0.457772       -12.4566
  55   2.0000      -0.448131       -12.1943
  56   2.0000      -0.440229       -11.9792
  57   2.0000      -0.433996       -11.8096
  58   2.0000      -0.431088       -11.7305
  59   2.0000      -0.420661       -11.4468
  60   2.0000      -0.417527       -11.3615
  61   2.0000      -0.414839       -11.2883
  62   2.0000      -0.409062       -11.1311
  63   2.0000      -0.335334        -9.1249
  64   2.0000      -0.332634        -9.0514
  65   2.0000      -0.322469        -8.7748
  66   2.0000      -0.302737        -8.2379
  67   0.0000       0.035500         0.9660
  68   0.0000       0.059267         1.6127
  69   0.0000       0.105556         2.8723
  70   0.0000       0.114506         3.1159
  71   0.0000       0.130576         3.5532

MULLIKEN ATOMIC CHARGES
-----------------------
   0 S :    0.085026
   1 C :   -0.108347
   2 C :   -0.076058
   3 C :    0.025529
   4 C :   -0.145109
   5 H :    0.016320
   6 C :    0.049761
   7 H :    0.013242
   8 H :    0.028656
   9 C :   -0.078217
  10 H :    0.027918
  11 H :    0.024023
  12 C :   -0.020692
  13 H :    0.040118
  14 H :    0.029645
  15 H :    0.024223
  16 S :    0.120152
  17 C :   -0.087718
  18 C :   -0.020652
  19 C :   -0.034395
  20 C :   -0.163572
  21 H :    0.022005
  22 C :    0.051648
  23 H :    0.031949
  24 H :    0.014737
  25 C :   -0.027907
  26 H :    0.006969
  27 H :    0.017772
  28 C :   -0.055820
  29 H :    0.029623
  30 H :    0.034683
  31 H :    0.030558
  32 H :    0.041837
  33 H :    0.052091
Sum of atomic charges:   -0.0000000

LOEWDIN ATOMIC CHARGES
----------------------
   0 S :    0.367907
   1 C :   -0.177897
   2 C :   -0.067883
   3 C :   -0.061219
   4 C :   -0.171549
   5 H :    0.035230
   6 C :   -0.043482
   7 H :    0.028684
   8 H :    0.037277
   9 C :   -0.034250
  10 H :    0.026924
  11 H :    0.025711
  12 C :   -0.062888
  13 H :    0.033354
  14 H :    0.021592
  15 H :    0.021517
  16 S :    0.427602
  17 C :   -0.181570
  18 C :   -0.066472
  19 C :   -0.052397
  20 C :   -0.219582
  21 H :    0.032072
  22 C :   -0.035931
  23 H :    0.033358
  24 H :    0.030687
  25 C :   -0.034576
  26 H :    0.014677
  27 H :    0.012712
  28 C :   -0.066125
  29 H :    0.031840
  30 H :    0.023821
  31 H :    0.021878
  32 H :    0.026054
  33 H :    0.022925

  Mayer bond orders larger than 0.100000
B(  0-S ,  1-C ) :   1.1376 B(  0-S ,  4-C ) :   1.1217 B(  1-C ,  2-C ) :   1.6116
B(  1-C ,  4-C ) :   0.1051 B(  1-C , 32-H ) :   0.9662 B(  2-C ,  3-C ) :   1.2306
B(  2-C ,  6-C ) :   1.0435 B(  3-C ,  4-C ) :   1.6269 B(  3-C ,  5-H ) :   0.9855
B(  4-C , 20-C ) :   0.9957 B(  6-C ,  7-H ) :   0.9330 B(  6-C ,  8-H ) :   0.9386
B(  6-C ,  9-C ) :   1.0713 B(  9-C , 10-H ) :   0.9557 B(  9-C , 11-H ) :   0.9572
B(  9-C , 12-C ) :   1.0615 B( 12-C , 13-H ) :   0.9765 B( 12-C , 14-H ) :   0.9730
B( 12-C , 15-H ) :   0.9728 B( 16-S , 17-C ) :   1.1654 B( 16-S , 20-C ) :   1.1575
B( 17-C , 18-C ) :   1.5903 B( 17-C , 33-H ) :   0.9740 B( 18-C , 19-C ) :   1.2441
B( 18-C , 21-H ) :   0.9908 B( 19-C , 20-C ) :   1.5977 B( 19-C , 22-C ) :   1.0529
B( 22-C , 23-H ) :   0.9336 B( 22-C , 24-H ) :   0.9337 B( 22-C , 25-C ) :   1.0675
B( 25-C , 26-H ) :   0.9594 B( 25-C , 27-H ) :   0.9457 B( 25-C , 28-C ) :   1.0790
B( 28-C , 29-H ) :   0.9792 B( 28-C , 30-H ) :   0.9779 B( 28-C , 31-H ) :   0.9756

Dispersion correction           -0.014569950
FINAL SINGLE POINT ENERGY     -1339.874306553654

DIPOLE MOMENT
-------------
                                X             Y             Z
Electronic contribution:     -7.23771      -5.64605      -9.89264
Nuclear contribution   :      7.22863       5.80420      10.17774
                        -----------------------------------------
Total Dipole Moment    :     -0.00908       0.15815       0.28510
                        -----------------------------------------
Magnitude (a.u.)       :      0.32615
Magnitude (Debye)      :      0.82901

Rotational constants in cm-1:     0.020468     0.008542     0.006663
Rotational constants in MHz :   613.616780   256.075982   199.758730

                             ****ORCA TERMINATED NORMALLY****
TOTAL RUN TIME: 0 days 0 hours 0 minutes 21 seconds 196 msec
