                         Program Version 4.2.1 -  RELEASE  -
|  1> ! wB97X-D3 SP def2-SVP
|  2> %pal
|  3> nprocs 24
|  4> end
|  5>
|  6> * xyz 0 1
|  7> S 	 -125.349 	 63.266 	 -37.1575
|  8> C 	 -124.963 	 63.5575 	 -38.7607
|  9> C 	 -125.92 	 64.1387 	 -39.5133
| 10> C 	 -127.023 	 64.5274 	 -38.6754
| 11> C 	 -126.698 	 64.3062 	 -37.3374
| 12> H 	 -127.816 	 65.1566 	 -38.9447
| 13> C 	 -125.714 	 64.4931 	 -40.9406
| 14> H 	 -126.556 	 64.3341 	 -41.6271
| 15> H 	 -124.927 	 63.8594 	 -41.3757
| 16> C 	 -125.327 	 65.9862 	 -40.9481
| 17> H 	 -126.191 	 66.528 	 -40.6581
| 18> H 	 -124.535 	 66.1012 	 -40.1883
| 19> C 	 -124.641 	 66.56 	 -42.2819
| 20> H 	 -123.643 	 66.1012 	 -42.6057
| 21> H 	 -125.173 	 66.3516 	 -43.2239
| 22> H 	 -124.666 	 67.6808 	 -42.2485
| 23> S 	 -128.269 	 63.6532 	 -35.0806
| 24> C 	 -129.095 	 64.9174 	 -34.2464
| 25> C 	 -128.847 	 66.1475 	 -34.8041
| 26> C 	 -127.994 	 66.1065 	 -35.9182
| 27> C 	 -127.549 	 64.7878 	 -36.1778
| 28> H 	 -129.26 	 67.0302 	 -34.3361
| 29> C 	 -127.463 	 67.3346 	 -36.6614
| 30> H 	 -128.261 	 68.0407 	 -36.5706
| 31> H 	 -127.284 	 67.0507 	 -37.6493
| 32> C 	 -126.125 	 67.9704 	 -36.1478
| 33> H 	 -125.286 	 67.3055 	 -36.2028
| 34> H 	 -126.213 	 68.1778 	 -35.0778
| 35> C 	 -125.748 	 69.1828 	 -36.9068
| 36> H 	 -126.593 	 69.8575 	 -36.9527
| 37> H 	 -125.479 	 68.9577 	 -37.965
| 38> H 	 -124.888 	 69.7469 	 -36.5147
| 39> H 	 -124.081 	 63.0776 	 -39.1462
| 40> H 	 -129.505 	 64.7877 	 -33.2429
| 41> *
| 42>
| 43>                          ****END OF INPUT****

CARTESIAN COORDINATES (ANGSTROEM)
---------------------------------
  S    -125.349000   63.266000  -37.157500
  C    -124.963000   63.557500  -38.760700
  C    -125.920000   64.138700  -39.513300
  C    -127.023000   64.527400  -38.675400
  C    -126.698000   64.306200  -37.337400
  H    -127.816000   65.156600  -38.944700
  C    -125.714000   64.493100  -40.940600
  H    -126.556000   64.334100  -41.627100
  H    -124.927000   63.859400  -41.375700
  C    -125.327000   65.986200  -40.948100
  H    -126.191000   66.528000  -40.658100
  H    -124.535000   66.101200  -40.188300
  C    -124.641000   66.560000  -42.281900
  H    -123.643000   66.101200  -42.605700
  H    -125.173000   66.351600  -43.223900
  H    -124.666000   67.680800  -42.248500
  S    -128.269000   63.653200  -35.080600
  C    -129.095000   64.917400  -34.246400
  C    -128.847000   66.147500  -34.804100
  C    -127.994000   66.106500  -35.918200
  C    -127.549000   64.787800  -36.177800
  H    -129.260000   67.030200  -34.336100
  C    -127.463000   67.334600  -36.661400
  H    -128.261000   68.040700  -36.570600
  H    -127.284000   67.050700  -37.649300
  C    -126.125000   67.970400  -36.147800
  H    -125.286000   67.305500  -36.202800
  H    -126.213000   68.177800  -35.077800
  C    -125.748000   69.182800  -36.906800
  H    -126.593000   69.857500  -36.952700
  H    -125.479000   68.957700  -37.965000
  H    -124.888000   69.746900  -36.514700
  H    -124.081000   63.077600  -39.146200
  H    -129.505000   64.787700  -33.242900

 Total Charge           Charge          ....    0
 Multiplicity           Mult            ....    1
 Number of Electrons    NEL             ....  134
 Basis Dimension        Dim             ....  322

ORBITAL ENERGIES
----------------

  NO   OCC          E(Eh)            E(eV)
   0   2.0000     -88.966216     -2420.8938
   1   2.0000     -88.965581     -2420.8765
   2   2.0000     -10.329483      -281.0795
   3   2.0000     -10.326746      -281.0050
   4   2.0000     -10.311931      -280.6019
   5   2.0000     -10.301625      -280.3215
   6   2.0000     -10.301141      -280.3083
   7   2.0000     -10.297246      -280.2023
   8   2.0000     -10.293551      -280.1018
   9   2.0000     -10.293065      -280.0885
  10   2.0000     -10.292770      -280.0805
  11   2.0000     -10.292672      -280.0778
  12   2.0000     -10.290118      -280.0084
  13   2.0000     -10.286143      -279.9002
  14   2.0000     -10.279468      -279.7185
  15   2.0000     -10.274775      -279.5909
  16   2.0000      -8.083459      -219.9621
  17   2.0000      -8.080910      -219.8927
  18   2.0000      -6.041569      -164.3995
  19   2.0000      -6.039178      -164.3344
  20   2.0000      -6.037824      -164.2976
  21   2.0000      -6.035251      -164.2275
  22   2.0000      -6.034291      -164.2014
  23   2.0000      -6.031998      -164.1390
  24   2.0000      -1.015892       -27.6438
  25   2.0000      -0.993022       -27.0215
  26   2.0000      -0.914003       -24.8713
  27   2.0000      -0.909054       -24.7366
  28   2.0000      -0.863688       -23.5021
  29   2.0000      -0.856114       -23.2960
  30   2.0000      -0.847229       -23.0543
  31   2.0000      -0.814613       -22.1668
  32   2.0000      -0.782100       -21.2820
  33   2.0000      -0.769265       -20.9328
  34   2.0000      -0.706506       -19.2250
  35   2.0000      -0.698634       -19.0108
  36   2.0000      -0.688944       -18.7471
  37   2.0000      -0.662899       -18.0384
  38   2.0000      -0.647907       -17.6305
  39   2.0000      -0.622443       -16.9375
  40   2.0000      -0.595962       -16.2169
  41   2.0000      -0.574881       -15.6433
  42   2.0000      -0.567996       -15.4560
  43   2.0000      -0.553466       -15.0606
  44   2.0000      -0.526393       -14.3239
  45   2.0000      -0.522947       -14.2301
  46   2.0000      -0.514217       -13.9925
  47   2.0000      -0.510404       -13.8888
  48   2.0000      -0.505237       -13.7482
  49   2.0000      -0.493597       -13.4314
  50   2.0000      -0.491177       -13.3656
  51   2.0000      -0.486365       -13.2347
  52   2.0000      -0.468497       -12.7485
  53   2.0000      -0.464642       -12.6435
  54   2.0000      -0.460100       -12.5200
  55   2.0000      -0.449789       -12.2394
  56   2.0000      -0.446372       -12.1464
  57   2.0000      -0.440231       -11.9793
  58   2.0000      -0.432014       -11.7557
  59   2.0000      -0.430821       -11.7232
  60   2.0000      -0.424634       -11.5549
  61   2.0000      -0.417825       -11.3696
  62   2.0000      -0.414712       -11.2849
  63   2.0000      -0.343156        -9.3377
  64   2.0000      -0.333924        -9.0865
  65   2.0000      -0.328125        -8.9287
  66   2.0000      -0.293729        -7.9928
  67   0.0000       0.033085         0.9003
  68   0.0000       0.070995         1.9319
  69   0.0000       0.114910         3.1269
  70   0.0000       0.123614         3.3637
  71   0.0000       0.134011         3.6466

MULLIKEN ATOMIC CHARGES
-----------------------
   0 S :    0.134806
   1 C :   -0.110710
   2 C :   -0.091008
   3 C :    0.067473
   4 C :   -0.194492
   5 H :    0.003719
   6 C :    0.076845
   7 H :    0.032172
   8 H :    0.016997
   9 C :   -0.077530
  10 H :    0.028773
  11 H :    0.043158
  12 C :   -0.083387
  13 H :    0.045290
  14 H :    0.019998
  15 H :    0.046874
  16 S :    0.115138
  17 C :   -0.104409
  18 C :   -0.041962
  19 C :   -0.054621
  20 C :   -0.154389
  21 H :    0.015076
  22 C :    0.123199
  23 H :    0.012623
  24 H :   -0.007244
  25 C :   -0.039535
  26 H :    0.022640
  27 H :    0.020154
  28 C :   -0.050770
  29 H :    0.017892
  30 H :    0.028721
  31 H :    0.037950
  32 H :    0.035573
  33 H :    0.064988
Sum of atomic charges:   -0.0000000

LOEWDIN ATOMIC CHARGES
----------------------
   0 S :    0.448685
   1 C :   -0.214441
   2 C :   -0.062608
   3 C :   -0.049643
   4 C :   -0.200587
   5 H :    0.021972
   6 C :   -0.033351
   7 H :    0.031337
   8 H :    0.029573
   9 C :   -0.032483
  10 H :    0.018911
  11 H :    0.030098
  12 C :   -0.088345
  13 H :    0.034796
  14 H :    0.020625
  15 H :    0.033168
  16 S :    0.424138
  17 C :   -0.202286
  18 C :   -0.072503
  19 C :   -0.059097
  20 C :   -0.206565
  21 H :    0.032047
  22 C :   -0.017428
  23 H :    0.026341
  24 H :    0.018251
  25 C :   -0.037272
  26 H :    0.023153
  27 H :    0.022924
  28 C :   -0.068927
  29 H :    0.019572
  30 H :    0.027262
  31 H :    0.029883
  32 H :    0.020263
  33 H :    0.032539

  Mayer bond orders larger than 0.100000
B(  0-S ,  1-C ) :   1.1557 B(  0-S ,  4-C ) :   1.1822 B(  1-C ,  2-C ) :   1.6214
B(  1-C , 32-H ) :   0.9653 B(  2-C ,  3-C ) :   1.2279 B(  2-C ,  6-C ) :   1.0444
B(  3-C ,  4-C ) :   1.5658 B(  3-C ,  5-H ) :   0.9992 B(  4-C , 20-C ) :   0.9960
B(  6-C ,  7-H ) :   0.9381 B(  6-C ,  8-H ) :   0.9395 B(  6-C ,  9-C ) :   1.0441
B(  9-C , 10-H ) :   0.9606 B(  9-C , 11-H ) :   0.9607 B(  9-C , 12-C ) :   1.0628
B( 12-C , 13-H ) :   0.9760 B( 12-C , 14-H ) :   0.9748 B( 12-C , 15-H ) :   0.9758
B( 16-S , 17-C ) :   1.1692 B( 16-S , 20-C ) :   1.1774 B( 17-C , 18-C ) :   1.5841
B( 17-C , 20-C ) :   0.1049 B( 17-C , 33-H ) :   0.9613 B( 18-C , 19-C ) :   1.2811
B( 18-C , 21-H ) :   0.9922 B( 19-C , 20-C ) :   1.5564 B( 19-C , 22-C ) :   1.0475
B( 22-C , 23-H ) :   0.9303 B( 22-C , 24-H ) :   0.9205 B( 22-C , 25-C ) :   1.0697
B( 25-C , 26-H ) :   0.9522 B( 25-C , 27-H ) :   0.9526 B( 25-C , 28-C ) :   1.0926
B( 28-C , 29-H ) :   0.9725 B( 28-C , 30-H ) :   0.9714 B( 28-C , 31-H ) :   0.9707

Dispersion correction           -0.014714140
FINAL SINGLE POINT ENERGY     -1339.874086535237

DIPOLE MOMENT
-------------
                                X             Y             Z
Electronic contribution:     -8.70654     -24.41596      19.22502
Nuclear contribution   :      8.83248      24.88148     -19.54336
                        -----------------------------------------
Total Dipole Moment    :      0.12594       0.46552      -0.31834
                        -----------------------------------------
Magnitude (a.u.)       :      0.57785
Magnitude (Debye)      :      1.46878

Rotational constants in cm-1:     0.018444     0.009314     0.007001
Rotational constants in MHz :   552.934878   279.212226   209.882242

                             ****ORCA TERMINATED NORMALLY****
TOTAL RUN TIME: 0 days 0 hours 0 minutes 22 seconds 142 msec
