                         Program Version 4.2.1 -  RELEASE  -
|  1> ! wB97X-D3 SP def2-SVP
|  2> %pal
|  3> nprocs 24
|  4> end
|  5>
|  6> * xyz 0 1
|  7> S 	 -130.836 	 62.1833 	 -57.3632
|  8> C 	 -131.796 	 62.1296 	 -58.8335
|  9> C 	 -131.123 	 61.5884 	 -59.8988
| 10> C 	 -129.768 	 61.2507 	 -59.5036
| 11> C 	 -129.441 	 61.5253 	 -58.1866
| 12> H 	 -128.951 	 61.1014 	 -60.2849
| 13> C 	 -131.631 	 61.4374 	 -61.3104
| 14> H 	 -132.711 	 61.4251 	 -61.4308
| 15> H 	 -131.433 	 60.4058 	 -61.6234
| 16> C 	 -131.117 	 62.4694 	 -62.3488
| 17> H 	 -131.296 	 63.4871 	 -61.9945
| 18> H 	 -129.999 	 62.3223 	 -62.44
| 19> C 	 -131.749 	 62.4192 	 -63.7388
| 20> H 	 -132.813 	 62.3672 	 -63.7905
| 21> H 	 -131.575 	 63.3709 	 -64.2764
| 22> H 	 -131.237 	 61.6947 	 -64.3794
| 23> S 	 -127.437 	 63.1078 	 -57.026
| 24> C 	 -125.931 	 62.2488 	 -56.6761
| 25> C 	 -126.07 	 60.8507 	 -56.693
| 26> C 	 -127.243 	 60.4669 	 -57.3344
| 27> C 	 -128.092 	 61.5774 	 -57.6643
| 28> H 	 -125.207 	 60.3061 	 -56.4046
| 29> C 	 -127.488 	 58.9963 	 -57.489
| 30> H 	 -128.492 	 58.7414 	 -57.331
| 31> H 	 -126.955 	 58.504 	 -56.7294
| 32> C 	 -126.861 	 58.4858 	 -58.8627
| 33> H 	 -125.883 	 58.8859 	 -59.0267
| 34> H 	 -127.57 	 58.7942 	 -59.6564
| 35> C 	 -126.811 	 57.01 	 -58.9583
| 36> H 	 -127.789 	 56.5969 	 -58.7215
| 37> H 	 -126.129 	 56.6687 	 -58.1897
| 38> H 	 -126.494 	 56.6142 	 -59.9327
| 39> H 	 -132.75 	 62.604 	 -58.9405
| 40> H 	 -124.962 	 62.729 	 -56.4345
| 41> *
| 42>
| 43>                          ****END OF INPUT****

CARTESIAN COORDINATES (ANGSTROEM)
---------------------------------
  S    -130.836000   62.183300  -57.363200
  C    -131.796000   62.129600  -58.833500
  C    -131.123000   61.588400  -59.898800
  C    -129.768000   61.250700  -59.503600
  C    -129.441000   61.525300  -58.186600
  H    -128.951000   61.101400  -60.284900
  C    -131.631000   61.437400  -61.310400
  H    -132.711000   61.425100  -61.430800
  H    -131.433000   60.405800  -61.623400
  C    -131.117000   62.469400  -62.348800
  H    -131.296000   63.487100  -61.994500
  H    -129.999000   62.322300  -62.440000
  C    -131.749000   62.419200  -63.738800
  H    -132.813000   62.367200  -63.790500
  H    -131.575000   63.370900  -64.276400
  H    -131.237000   61.694700  -64.379400
  S    -127.437000   63.107800  -57.026000
  C    -125.931000   62.248800  -56.676100
  C    -126.070000   60.850700  -56.693000
  C    -127.243000   60.466900  -57.334400
  C    -128.092000   61.577400  -57.664300
  H    -125.207000   60.306100  -56.404600
  C    -127.488000   58.996300  -57.489000
  H    -128.492000   58.741400  -57.331000
  H    -126.955000   58.504000  -56.729400
  C    -126.861000   58.485800  -58.862700
  H    -125.883000   58.885900  -59.026700
  H    -127.570000   58.794200  -59.656400
  C    -126.811000   57.010000  -58.958300
  H    -127.789000   56.596900  -58.721500
  H    -126.129000   56.668700  -58.189700
  H    -126.494000   56.614200  -59.932700
  H    -132.750000   62.604000  -58.940500
  H    -124.962000   62.729000  -56.434500

 Total Charge           Charge          ....    0
 Multiplicity           Mult            ....    1
 Number of Electrons    NEL             ....  134
 Basis Dimension        Dim             ....  322

ORBITAL ENERGIES
----------------

  NO   OCC          E(Eh)            E(eV)
   0   2.0000     -88.971124     -2421.0274
   1   2.0000     -88.964472     -2420.8464
   2   2.0000     -10.329291      -281.0743
   3   2.0000     -10.326451      -280.9970
   4   2.0000     -10.322577      -280.8916
   5   2.0000     -10.311249      -280.5834
   6   2.0000     -10.305079      -280.4155
   7   2.0000     -10.301787      -280.3259
   8   2.0000     -10.297219      -280.2016
   9   2.0000     -10.293444      -280.0989
  10   2.0000     -10.292569      -280.0751
  11   2.0000     -10.290374      -280.0153
  12   2.0000     -10.283794      -279.8363
  13   2.0000     -10.283028      -279.8154
  14   2.0000     -10.278859      -279.7020
  15   2.0000     -10.271880      -279.5121
  16   2.0000      -8.084680      -219.9953
  17   2.0000      -8.079240      -219.8473
  18   2.0000      -6.043086      -164.4407
  19   2.0000      -6.039534      -164.3441
  20   2.0000      -6.037796      -164.2968
  21   2.0000      -6.035443      -164.2328
  22   2.0000      -6.033793      -164.1878
  23   2.0000      -6.029891      -164.0817
  24   2.0000      -1.001439       -27.2505
  25   2.0000      -0.979670       -26.6582
  26   2.0000      -0.911443       -24.8016
  27   2.0000      -0.907566       -24.6961
  28   2.0000      -0.868232       -23.6258
  29   2.0000      -0.857099       -23.3228
  30   2.0000      -0.844853       -22.9896
  31   2.0000      -0.810831       -22.0638
  32   2.0000      -0.784483       -21.3469
  33   2.0000      -0.768675       -20.9167
  34   2.0000      -0.703296       -19.1377
  35   2.0000      -0.697884       -18.9904
  36   2.0000      -0.691882       -18.8271
  37   2.0000      -0.658739       -17.9252
  38   2.0000      -0.638986       -17.3877
  39   2.0000      -0.616952       -16.7881
  40   2.0000      -0.595218       -16.1967
  41   2.0000      -0.571409       -15.5488
  42   2.0000      -0.566660       -15.4196
  43   2.0000      -0.559840       -15.2340
  44   2.0000      -0.528309       -14.3760
  45   2.0000      -0.523356       -14.2412
  46   2.0000      -0.512151       -13.9363
  47   2.0000      -0.509756       -13.8712
  48   2.0000      -0.504035       -13.7155
  49   2.0000      -0.499796       -13.6001
  50   2.0000      -0.495287       -13.4774
  51   2.0000      -0.477557       -12.9950
  52   2.0000      -0.470218       -12.7953
  53   2.0000      -0.463734       -12.6188
  54   2.0000      -0.459062       -12.4917
  55   2.0000      -0.449015       -12.2183
  56   2.0000      -0.440781       -11.9943
  57   2.0000      -0.437076       -11.8934
  58   2.0000      -0.430885       -11.7250
  59   2.0000      -0.426879       -11.6160
  60   2.0000      -0.423832       -11.5331
  61   2.0000      -0.412879       -11.2350
  62   2.0000      -0.411374       -11.1941
  63   2.0000      -0.341389        -9.2897
  64   2.0000      -0.331711        -9.0263
  65   2.0000      -0.327231        -8.9044
  66   2.0000      -0.288093        -7.8394
  67   0.0000       0.028704         0.7811
  68   0.0000       0.057627         1.5681
  69   0.0000       0.109283         2.9738
  70   0.0000       0.121761         3.3133
  71   0.0000       0.126984         3.4554

MULLIKEN ATOMIC CHARGES
-----------------------
   0 S :    0.103423
   1 C :   -0.121083
   2 C :   -0.067458
   3 C :   -0.001720
   4 C :   -0.160849
   5 H :    0.049107
   6 C :    0.063603
   7 H :    0.008171
   8 H :    0.027136
   9 C :   -0.089870
  10 H :    0.032533
  11 H :    0.037675
  12 C :   -0.046814
  13 H :    0.028192
  14 H :    0.027828
  15 H :    0.034824
  16 S :    0.122011
  17 C :   -0.121487
  18 C :   -0.021281
  19 C :   -0.030950
  20 C :   -0.163740
  21 H :    0.013677
  22 C :    0.123816
  23 H :    0.017683
  24 H :   -0.001564
  25 C :   -0.086576
  26 H :    0.026446
  27 H :    0.032017
  28 C :   -0.019978
  29 H :    0.021986
  30 H :    0.017331
  31 H :    0.037837
  32 H :    0.041547
  33 H :    0.066526
Sum of atomic charges:    0.0000000

LOEWDIN ATOMIC CHARGES
----------------------
   0 S :    0.395044
   1 C :   -0.188600
   2 C :   -0.063581
   3 C :   -0.069701
   4 C :   -0.202977
   5 H :    0.041364
   6 C :   -0.039450
   7 H :    0.027397
   8 H :    0.033775
   9 C :   -0.041965
  10 H :    0.025263
  11 H :    0.029507
  12 C :   -0.071643
  13 H :    0.020673
  14 H :    0.032900
  15 H :    0.026728
  16 S :    0.395608
  17 C :   -0.177561
  18 C :   -0.069288
  19 C :   -0.040021
  20 C :   -0.201293
  21 H :    0.029146
  22 C :   -0.015778
  23 H :    0.024463
  24 H :    0.022824
  25 C :   -0.033131
  26 H :    0.019827
  27 H :    0.026188
  28 C :   -0.065410
  29 H :    0.024029
  30 H :    0.019641
  31 H :    0.027615
  32 H :    0.025041
  33 H :    0.033365

  Mayer bond orders larger than 0.100000
B(  0-S ,  1-C ) :   1.1292 B(  0-S ,  4-C ) :   1.1354 B(  1-C ,  2-C ) :   1.6388
B(  1-C , 32-H ) :   0.9668 B(  2-C ,  3-C ) :   1.2307 B(  2-C ,  6-C ) :   1.0317
B(  3-C ,  4-C ) :   1.6039 B(  3-C ,  5-H ) :   0.9700 B(  4-C , 20-C ) :   1.0655
B(  6-C ,  7-H ) :   0.9415 B(  6-C ,  8-H ) :   0.9371 B(  6-C ,  9-C ) :   1.0529
B(  9-C , 10-H ) :   0.9605 B(  9-C , 11-H ) :   0.9562 B(  9-C , 12-C ) :   1.0864
B( 12-C , 13-H ) :   0.9729 B( 12-C , 14-H ) :   0.9726 B( 12-C , 15-H ) :   0.9761
B( 16-S , 17-C ) :   1.1698 B( 16-S , 20-C ) :   1.1333 B( 17-C , 18-C ) :   1.5872
B( 17-C , 20-C ) :   0.1131 B( 17-C , 33-H ) :   0.9618 B( 18-C , 19-C ) :   1.2712
B( 18-C , 21-H ) :   0.9919 B( 19-C , 20-C ) :   1.5425 B( 19-C , 22-C ) :   1.0528
B( 22-C , 23-H ) :   0.9225 B( 22-C , 24-H ) :   0.9368 B( 22-C , 25-C ) :   1.0516
B( 25-C , 26-H ) :   0.9614 B( 25-C , 27-H ) :   0.9509 B( 25-C , 28-C ) :   1.0962
B( 28-C , 29-H ) :   0.9681 B( 28-C , 30-H ) :   0.9725 B( 28-C , 31-H ) :   0.9717

Dispersion correction           -0.013741398
FINAL SINGLE POINT ENERGY     -1339.865680789246

DIPOLE MOMENT
-------------
                                X             Y             Z
Electronic contribution:      0.54003      15.60706      23.25026
Nuclear contribution   :     -0.32755     -15.84633     -23.72398
                        -----------------------------------------
Total Dipole Moment    :      0.21248      -0.23927      -0.47373
                        -----------------------------------------
Magnitude (a.u.)       :      0.57168
Magnitude (Debye)      :      1.45309

Rotational constants in cm-1:     0.016906     0.008127     0.006588
Rotational constants in MHz :   506.826247   243.634349   197.496251

                             ****ORCA TERMINATED NORMALLY****
TOTAL RUN TIME: 0 days 0 hours 0 minutes 21 seconds 72 msec
