                         Program Version 4.2.1 -  RELEASE  -
|  1> ! wB97X-D3 SP def2-SVP
|  2> %pal
|  3> nprocs 24
|  4> end
|  5>
|  6> * xyz 0 1
|  7> S 	 -34.1439 	 4.36953 	 1.70063
|  8> C 	 -35.5522 	 3.29218 	 1.36996
|  9> C 	 -35.8806 	 2.67365 	 2.56462
| 10> C 	 -34.8831 	 2.85621 	 3.61196
| 11> C 	 -33.8298 	 3.69414 	 3.24116
| 12> H 	 -34.9338 	 2.26737 	 4.53096
| 13> C 	 -37.117 	 1.74652 	 2.75185
| 14> H 	 -37.6026 	 1.79152 	 1.77982
| 15> H 	 -37.8929 	 2.10551 	 3.42294
| 16> C 	 -36.6578 	 0.334122 	 2.99064
| 17> H 	 -36.6058 	 -0.199403 	 2.05806
| 18> H 	 -35.6743 	 0.271241 	 3.5702
| 19> C 	 -37.7323 	 -0.432456 	 3.75323
| 20> H 	 -37.7985 	 -0.101792 	 4.75946
| 21> H 	 -38.7762 	 -0.27218 	 3.37737
| 22> H 	 -37.4276 	 -1.48378 	 3.6754
| 23> S 	 -32.3283 	 5.91614 	 3.77287
| 24> C 	 -31.8566 	 6.12759 	 5.3839
| 25> C 	 -31.6877 	 4.87951 	 5.99213
| 26> C 	 -32.306 	 3.80053 	 5.26807
| 27> C 	 -32.8374 	 4.27426 	 4.10801
| 28> H 	 -31.1209 	 4.86932 	 6.87007
| 29> C 	 -32.3035 	 2.43174 	 5.82192
| 30> H 	 -32.6403 	 1.65165 	 5.06904
| 31> H 	 -33.0293 	 2.38788 	 6.61084
| 32> C 	 -30.9395 	 1.89957 	 6.42516
| 33> H 	 -31.0497 	 0.983383 	 6.97181
| 34> H 	 -30.5677 	 2.56223 	 7.19506
| 35> C 	 -29.8227 	 1.73034 	 5.39629
| 36> H 	 -28.9138 	 1.24112 	 5.86369
| 37> H 	 -29.5929 	 2.68402 	 4.93932
| 38> H 	 -30.3487 	 1.12182 	 4.70607
| 39> H 	 -36.1726 	 3.23291 	 0.482282
| 40> H 	 -31.4665 	 7.05332 	 5.84567
| 41> *
| 42>
| 43>                          ****END OF INPUT****

CARTESIAN COORDINATES (ANGSTROEM)
---------------------------------
  S    -34.143900    4.369530    1.700630
  C    -35.552200    3.292180    1.369960
  C    -35.880600    2.673650    2.564620
  C    -34.883100    2.856210    3.611960
  C    -33.829800    3.694140    3.241160
  H    -34.933800    2.267370    4.530960
  C    -37.117000    1.746520    2.751850
  H    -37.602600    1.791520    1.779820
  H    -37.892900    2.105510    3.422940
  C    -36.657800    0.334122    2.990640
  H    -36.605800   -0.199403    2.058060
  H    -35.674300    0.271241    3.570200
  C    -37.732300   -0.432456    3.753230
  H    -37.798500   -0.101792    4.759460
  H    -38.776200   -0.272180    3.377370
  H    -37.427600   -1.483780    3.675400
  S    -32.328300    5.916140    3.772870
  C    -31.856600    6.127590    5.383900
  C    -31.687700    4.879510    5.992130
  C    -32.306000    3.800530    5.268070
  C    -32.837400    4.274260    4.108010
  H    -31.120900    4.869320    6.870070
  C    -32.303500    2.431740    5.821920
  H    -32.640300    1.651650    5.069040
  H    -33.029300    2.387880    6.610840
  C    -30.939500    1.899570    6.425160
  H    -31.049700    0.983383    6.971810
  H    -30.567700    2.562230    7.195060
  C    -29.822700    1.730340    5.396290
  H    -28.913800    1.241120    5.863690
  H    -29.592900    2.684020    4.939320
  H    -30.348700    1.121820    4.706070
  H    -36.172600    3.232910    0.482282
  H    -31.466500    7.053320    5.845670

 Total Charge           Charge          ....    0
 Multiplicity           Mult            ....    1
 Number of Electrons    NEL             ....  134
 Basis Dimension        Dim             ....  322

ORBITAL ENERGIES
----------------

  NO   OCC          E(Eh)            E(eV)
   0   2.0000     -88.964752     -2420.8540
   1   2.0000     -88.962770     -2420.8000
   2   2.0000     -10.330406      -281.1046
   3   2.0000     -10.324485      -280.9435
   4   2.0000     -10.317587      -280.7558
   5   2.0000     -10.316896      -280.7370
   6   2.0000     -10.304269      -280.3934
   7   2.0000     -10.303304      -280.3671
   8   2.0000     -10.299391      -280.2607
   9   2.0000     -10.295301      -280.1494
  10   2.0000     -10.291358      -280.0421
  11   2.0000     -10.290691      -280.0239
  12   2.0000     -10.286275      -279.9038
  13   2.0000     -10.286116      -279.8994
  14   2.0000     -10.276519      -279.6383
  15   2.0000     -10.274552      -279.5848
  16   2.0000      -8.080990      -219.8949
  17   2.0000      -8.077512      -219.8003
  18   2.0000      -6.039452      -164.3418
  19   2.0000      -6.036224      -164.2540
  20   2.0000      -6.035585      -164.2366
  21   2.0000      -6.032093      -164.1416
  22   2.0000      -6.031397      -164.1227
  23   2.0000      -6.027978      -164.0296
  24   2.0000      -1.015335       -27.6287
  25   2.0000      -0.984141       -26.7798
  26   2.0000      -0.916820       -24.9479
  27   2.0000      -0.912926       -24.8420
  28   2.0000      -0.872927       -23.7536
  29   2.0000      -0.857613       -23.3368
  30   2.0000      -0.836651       -22.7664
  31   2.0000      -0.812478       -22.1087
  32   2.0000      -0.785085       -21.3633
  33   2.0000      -0.774269       -21.0689
  34   2.0000      -0.709071       -19.2948
  35   2.0000      -0.697897       -18.9908
  36   2.0000      -0.692051       -18.8317
  37   2.0000      -0.661500       -18.0003
  38   2.0000      -0.634681       -17.2705
  39   2.0000      -0.622726       -16.9452
  40   2.0000      -0.600989       -16.3537
  41   2.0000      -0.568358       -15.4658
  42   2.0000      -0.563788       -15.3414
  43   2.0000      -0.557966       -15.1830
  44   2.0000      -0.542836       -14.7713
  45   2.0000      -0.529534       -14.4093
  46   2.0000      -0.528203       -14.3731
  47   2.0000      -0.513082       -13.9617
  48   2.0000      -0.507893       -13.8205
  49   2.0000      -0.495824       -13.4921
  50   2.0000      -0.492974       -13.4145
  51   2.0000      -0.481646       -13.1062
  52   2.0000      -0.467509       -12.7216
  53   2.0000      -0.465127       -12.6567
  54   2.0000      -0.457700       -12.4546
  55   2.0000      -0.450795       -12.2668
  56   2.0000      -0.446522       -12.1505
  57   2.0000      -0.440530       -11.9874
  58   2.0000      -0.434969       -11.8361
  59   2.0000      -0.423299       -11.5186
  60   2.0000      -0.416261       -11.3270
  61   2.0000      -0.413715       -11.2578
  62   2.0000      -0.406072       -11.0498
  63   2.0000      -0.360454        -9.8084
  64   2.0000      -0.331856        -9.0303
  65   2.0000      -0.320420        -8.7191
  66   2.0000      -0.281063        -7.6481
  67   0.0000       0.019624         0.5340
  68   0.0000       0.073005         1.9866
  69   0.0000       0.100795         2.7428
  70   0.0000       0.114098         3.1048
  71   0.0000       0.134293         3.6543

MULLIKEN ATOMIC CHARGES
-----------------------
   0 S :    0.074794
   1 C :   -0.108656
   2 C :   -0.119934
   3 C :   -0.004434
   4 C :   -0.092054
   5 H :    0.015576
   6 C :    0.082806
   7 H :    0.006483
   8 H :    0.041918
   9 C :   -0.093778
  10 H :    0.031936
  11 H :    0.051186
  12 C :   -0.063906
  13 H :    0.025125
  14 H :    0.032849
  15 H :    0.038391
  16 S :    0.115636
  17 C :   -0.099119
  18 C :   -0.041965
  19 C :   -0.022031
  20 C :   -0.129243
  21 H :    0.000402
  22 C :    0.031418
  23 H :    0.039292
  24 H :    0.037046
  25 C :   -0.083003
  26 H :    0.021478
  27 H :    0.016066
  28 C :   -0.034479
  29 H :    0.050459
  30 H :    0.042338
  31 H :    0.019303
  32 H :    0.050187
  33 H :    0.067913
Sum of atomic charges:    0.0000000

LOEWDIN ATOMIC CHARGES
----------------------
   0 S :    0.390732
   1 C :   -0.191408
   2 C :   -0.053485
   3 C :   -0.077637
   4 C :   -0.190991
   5 H :    0.027878
   6 C :   -0.032508
   7 H :    0.030930
   8 H :    0.030848
   9 C :   -0.044412
  10 H :    0.026046
  11 H :    0.032443
  12 C :   -0.067166
  13 H :    0.015930
  14 H :    0.027696
  15 H :    0.027882
  16 S :    0.420185
  17 C :   -0.199877
  18 C :   -0.064869
  19 C :   -0.057154
  20 C :   -0.192279
  21 H :    0.019863
  22 C :   -0.033901
  23 H :    0.035395
  24 H :    0.032797
  25 C :   -0.037847
  26 H :    0.022082
  27 H :    0.014678
  28 C :   -0.061813
  29 H :    0.035751
  30 H :    0.025499
  31 H :    0.019904
  32 H :    0.031762
  33 H :    0.037049

  Mayer bond orders larger than 0.100000
B(  0-S ,  1-C ) :   1.1049 B(  0-S ,  4-C ) :   1.1505 B(  1-C ,  2-C ) :   1.6401
B(  1-C , 32-H ) :   0.9676 B(  2-C ,  3-C ) :   1.2373 B(  2-C ,  6-C ) :   1.0173
B(  3-C ,  4-C ) :   1.5446 B(  3-C ,  5-H ) :   0.9849 B(  4-C , 20-C ) :   1.0849
B(  6-C ,  7-H ) :   0.9304 B(  6-C ,  8-H ) :   0.9539 B(  6-C ,  9-C ) :   1.0483
B(  9-C , 10-H ) :   0.9558 B(  9-C , 11-H ) :   0.9644 B(  9-C , 12-C ) :   1.0744
B( 12-C , 13-H ) :   0.9789 B( 12-C , 14-H ) :   0.9714 B( 12-C , 15-H ) :   0.9751
B( 16-S , 17-C ) :   1.1672 B( 16-S , 20-C ) :   1.1254 B( 17-C , 18-C ) :   1.6056
B( 17-C , 33-H ) :   0.9644 B( 18-C , 19-C ) :   1.2080 B( 18-C , 21-H ) :   1.0025
B( 19-C , 20-C ) :   1.5969 B( 19-C , 22-C ) :   1.0549 B( 22-C , 23-H ) :   0.9377
B( 22-C , 24-H ) :   0.9206 B( 22-C , 25-C ) :   1.0725 B( 25-C , 26-H ) :   0.9555
B( 25-C , 27-H ) :   0.9518 B( 25-C , 28-C ) :   1.0658 B( 28-C , 29-H ) :   0.9729
B( 28-C , 30-H ) :   0.9757 B( 28-C , 31-H ) :   0.9774

Dispersion correction           -0.013861372
FINAL SINGLE POINT ENERGY     -1339.853398018438

DIPOLE MOMENT
-------------
                                X             Y             Z
Electronic contribution:      4.92322      25.73723     -11.28797
Nuclear contribution   :     -5.09381     -26.18979      11.82194
                        -----------------------------------------
Total Dipole Moment    :     -0.17059      -0.45256       0.53397
                        -----------------------------------------
Magnitude (a.u.)       :      0.72044
Magnitude (Debye)      :      1.83121

Rotational constants in cm-1:     0.018417     0.008687     0.006550
Rotational constants in MHz :   552.121439   260.415549   196.355833

                             ****ORCA TERMINATED NORMALLY****
TOTAL RUN TIME: 0 days 0 hours 0 minutes 20 seconds 359 msec
