                         Program Version 4.2.1 -  RELEASE  -
|  1> ! wB97X-D3 SP def2-SVP
|  2> %pal
|  3> nprocs 24
|  4> end
|  5>
|  6> * xyz 0 1
|  7> S 	 -127.391 	 25.1769 	 -23.4712
|  8> C 	 -128.275 	 25.5783 	 -21.9736
|  9> C 	 -129.538 	 26.0865 	 -22.31
| 10> C 	 -129.701 	 26.3393 	 -23.7285
| 11> C 	 -128.621 	 25.9725 	 -24.4974
| 12> H 	 -130.639 	 26.7553 	 -24.2352
| 13> C 	 -130.781 	 26.2515 	 -21.4777
| 14> H 	 -131.372 	 26.9812 	 -22.0731
| 15> H 	 -130.554 	 26.7792 	 -20.5795
| 16> C 	 -131.482 	 24.9657 	 -21.0739
| 17> H 	 -131.808 	 24.46 	 -21.9577
| 18> H 	 -130.779 	 24.3695 	 -20.4634
| 19> C 	 -132.683 	 25.2791 	 -20.1964
| 20> H 	 -132.209 	 25.7718 	 -19.3707
| 21> H 	 -133.363 	 25.8632 	 -20.7325
| 22> H 	 -133.167 	 24.3552 	 -19.9393
| 23> S 	 -128.113 	 27.7454 	 -26.4718
| 24> C 	 -128.041 	 27.1805 	 -28.1622
| 25> C 	 -128.208 	 25.8498 	 -28.2804
| 26> C 	 -128.329 	 25.2031 	 -27.01
| 27> C 	 -128.377 	 26.0671 	 -25.9033
| 28> H 	 -128.088 	 25.2794 	 -29.2272
| 29> C 	 -128.35 	 23.7091 	 -26.9806
| 30> H 	 -127.928 	 23.4979 	 -26.0241
| 31> H 	 -127.662 	 23.1685 	 -27.6231
| 32> C 	 -129.85 	 23.2044 	 -27.1374
| 33> H 	 -129.912 	 22.0979 	 -27.2122
| 34> H 	 -130.144 	 23.7568 	 -28.0188
| 35> C 	 -130.823 	 23.7084 	 -26.102
| 36> H 	 -131.811 	 23.4863 	 -26.4341
| 37> H 	 -130.823 	 24.8071 	 -26.0663
| 38> H 	 -130.658 	 23.3534 	 -25.1187
| 39> H 	 -128.05 	 25.1722 	 -21.0796
| 40> H 	 -127.919 	 27.8772 	 -29.0115
| 41> *
| 42>
| 43>                          ****END OF INPUT****

CARTESIAN COORDINATES (ANGSTROEM)
---------------------------------
  S    -127.391000   25.176900  -23.471200
  C    -128.275000   25.578300  -21.973600
  C    -129.538000   26.086500  -22.310000
  C    -129.701000   26.339300  -23.728500
  C    -128.621000   25.972500  -24.497400
  H    -130.639000   26.755300  -24.235200
  C    -130.781000   26.251500  -21.477700
  H    -131.372000   26.981200  -22.073100
  H    -130.554000   26.779200  -20.579500
  C    -131.482000   24.965700  -21.073900
  H    -131.808000   24.460000  -21.957700
  H    -130.779000   24.369500  -20.463400
  C    -132.683000   25.279100  -20.196400
  H    -132.209000   25.771800  -19.370700
  H    -133.363000   25.863200  -20.732500
  H    -133.167000   24.355200  -19.939300
  S    -128.113000   27.745400  -26.471800
  C    -128.041000   27.180500  -28.162200
  C    -128.208000   25.849800  -28.280400
  C    -128.329000   25.203100  -27.010000
  C    -128.377000   26.067100  -25.903300
  H    -128.088000   25.279400  -29.227200
  C    -128.350000   23.709100  -26.980600
  H    -127.928000   23.497900  -26.024100
  H    -127.662000   23.168500  -27.623100
  C    -129.850000   23.204400  -27.137400
  H    -129.912000   22.097900  -27.212200
  H    -130.144000   23.756800  -28.018800
  C    -130.823000   23.708400  -26.102000
  H    -131.811000   23.486300  -26.434100
  H    -130.823000   24.807100  -26.066300
  H    -130.658000   23.353400  -25.118700
  H    -128.050000   25.172200  -21.079600
  H    -127.919000   27.877200  -29.011500

 Total Charge           Charge          ....    0
 Multiplicity           Mult            ....    1
 Number of Electrons    NEL             ....  134
 Basis Dimension        Dim             ....  322

ORBITAL ENERGIES
----------------

  NO   OCC          E(Eh)            E(eV)
   0   2.0000     -88.964201     -2420.8390
   1   2.0000     -88.963824     -2420.8287
   2   2.0000     -10.332448      -281.1602
   3   2.0000     -10.330212      -281.0993
   4   2.0000     -10.320957      -280.8475
   5   2.0000     -10.313322      -280.6398
   6   2.0000     -10.306467      -280.4532
   7   2.0000     -10.305887      -280.4375
   8   2.0000     -10.302689      -280.3504
   9   2.0000     -10.294187      -280.1191
  10   2.0000     -10.288888      -279.9749
  11   2.0000     -10.286847      -279.9193
  12   2.0000     -10.285623      -279.8860
  13   2.0000     -10.284443      -279.8539
  14   2.0000     -10.270094      -279.4635
  15   2.0000     -10.263775      -279.2915
  16   2.0000      -8.077696      -219.8053
  17   2.0000      -8.077682      -219.8049
  18   2.0000      -6.036394      -164.2586
  19   2.0000      -6.036365      -164.2578
  20   2.0000      -6.032341      -164.1483
  21   2.0000      -6.032327      -164.1480
  22   2.0000      -6.028363      -164.0401
  23   2.0000      -6.028278      -164.0378
  24   2.0000      -1.001054       -27.2401
  25   2.0000      -0.977779       -26.6067
  26   2.0000      -0.919167       -25.0118
  27   2.0000      -0.906300       -24.6617
  28   2.0000      -0.875275       -23.8174
  29   2.0000      -0.850255       -23.1366
  30   2.0000      -0.843788       -22.9606
  31   2.0000      -0.816256       -22.2115
  32   2.0000      -0.782553       -21.2943
  33   2.0000      -0.769627       -20.9426
  34   2.0000      -0.708930       -19.2910
  35   2.0000      -0.701301       -19.0834
  36   2.0000      -0.691301       -18.8113
  37   2.0000      -0.662711       -18.0333
  38   2.0000      -0.643317       -17.5056
  39   2.0000      -0.618133       -16.8203
  40   2.0000      -0.601011       -16.3543
  41   2.0000      -0.576465       -15.6864
  42   2.0000      -0.565072       -15.3764
  43   2.0000      -0.550297       -14.9743
  44   2.0000      -0.541654       -14.7392
  45   2.0000      -0.527612       -14.3571
  46   2.0000      -0.522693       -14.2232
  47   2.0000      -0.517941       -14.0939
  48   2.0000      -0.509268       -13.8579
  49   2.0000      -0.495732       -13.4895
  50   2.0000      -0.494648       -13.4601
  51   2.0000      -0.471760       -12.8372
  52   2.0000      -0.467942       -12.7333
  53   2.0000      -0.462451       -12.5839
  54   2.0000      -0.453153       -12.3309
  55   2.0000      -0.447577       -12.1792
  56   2.0000      -0.441698       -12.0192
  57   2.0000      -0.436760       -11.8849
  58   2.0000      -0.431207       -11.7337
  59   2.0000      -0.426673       -11.6104
  60   2.0000      -0.417108       -11.3501
  61   2.0000      -0.413243       -11.2449
  62   2.0000      -0.412397       -11.2219
  63   2.0000      -0.336893        -9.1673
  64   2.0000      -0.333995        -9.0885
  65   2.0000      -0.322845        -8.7851
  66   2.0000      -0.301598        -8.2069
  67   0.0000       0.030673         0.8347
  68   0.0000       0.054996         1.4965
  69   0.0000       0.101276         2.7559
  70   0.0000       0.107019         2.9121
  71   0.0000       0.128508         3.4969

MULLIKEN ATOMIC CHARGES
-----------------------
   0 S :    0.091020
   1 C :   -0.059458
   2 C :   -0.099780
   3 C :    0.015923
   4 C :   -0.167329
   5 H :    0.049852
   6 C :    0.043887
   7 H :    0.022686
   8 H :    0.009697
   9 C :   -0.066098
  10 H :    0.022867
  11 H :    0.029855
  12 C :    0.010859
  13 H :    0.023832
  14 H :    0.018215
  15 H :    0.031497
  16 S :    0.096842
  17 C :   -0.092668
  18 C :   -0.024521
  19 C :   -0.070056
  20 C :   -0.168358
  21 H :    0.039000
  22 C :    0.101370
  23 H :   -0.003761
  24 H :    0.027508
  25 C :   -0.070641
  26 H :    0.042732
  27 H :    0.016118
  28 C :   -0.018434
  29 H :    0.018181
  30 H :    0.023789
  31 H :    0.029723
  32 H :    0.008457
  33 H :    0.067193
Sum of atomic charges:    0.0000000

LOEWDIN ATOMIC CHARGES
----------------------
   0 S :    0.380106
   1 C :   -0.170863
   2 C :   -0.053517
   3 C :   -0.068217
   4 C :   -0.188719
   5 H :    0.046304
   6 C :   -0.037491
   7 H :    0.032490
   8 H :    0.023901
   9 C :   -0.030887
  10 H :    0.018345
  11 H :    0.026551
  12 C :   -0.049312
  13 H :    0.024162
  14 H :    0.016597
  15 H :    0.025668
  16 S :    0.380406
  17 C :   -0.168776
  18 C :   -0.080946
  19 C :   -0.047913
  20 C :   -0.195932
  21 H :    0.042813
  22 C :   -0.035463
  23 H :    0.017585
  24 H :    0.031379
  25 C :   -0.032050
  26 H :    0.026724
  27 H :    0.023504
  28 C :   -0.060801
  29 H :    0.022774
  30 H :    0.026581
  31 H :    0.017538
  32 H :    0.002924
  33 H :    0.034534

  Mayer bond orders larger than 0.100000
B(  0-S ,  1-C ) :   1.1265 B(  0-S ,  4-C ) :   1.1343 B(  1-C ,  2-C ) :   1.6156
B(  1-C ,  4-C ) :   0.1023 B(  1-C , 32-H ) :   0.9823 B(  2-C ,  3-C ) :   1.2237
B(  2-C ,  6-C ) :   1.0252 B(  3-C ,  4-C ) :   1.6103 B(  3-C ,  5-H ) :   0.9726
B(  4-C , 20-C ) :   1.0357 B(  6-C ,  7-H ) :   0.9415 B(  6-C ,  8-H ) :   0.9299
B(  6-C ,  9-C ) :   1.0675 B(  9-C , 10-H ) :   0.9533 B(  9-C , 11-H ) :   0.9557
B(  9-C , 12-C ) :   1.0815 B( 12-C , 13-H ) :   0.9760 B( 12-C , 14-H ) :   0.9756
B( 12-C , 15-H ) :   0.9726 B( 16-S , 17-C ) :   1.1447 B( 16-S , 20-C ) :   1.1245
B( 17-C , 18-C ) :   1.6313 B( 17-C , 33-H ) :   0.9600 B( 18-C , 19-C ) :   1.2303
B( 18-C , 21-H ) :   0.9787 B( 19-C , 20-C ) :   1.6033 B( 19-C , 22-C ) :   1.0383
B( 22-C , 23-H ) :   0.9295 B( 22-C , 24-H ) :   0.9450 B( 22-C , 25-C ) :   1.0424
B( 25-C , 26-H ) :   0.9588 B( 25-C , 27-H ) :   0.9569 B( 25-C , 28-C ) :   1.0947
B( 28-C , 29-H ) :   0.9667 B( 28-C , 30-H ) :   0.9650 B( 28-C , 31-H ) :   0.9750

Dispersion correction           -0.015571528
FINAL SINGLE POINT ENERGY     -1339.861280309287

DIPOLE MOMENT
-------------
                                X             Y             Z
Electronic contribution:     20.90028      12.27856      -8.65770
Nuclear contribution   :    -21.41372     -12.62302       8.61623
                        -----------------------------------------
Total Dipole Moment    :     -0.51344      -0.34446      -0.04147
                        -----------------------------------------
Magnitude (a.u.)       :      0.61967
Magnitude (Debye)      :      1.57508

Rotational constants in cm-1:     0.021815     0.008145     0.007325
Rotational constants in MHz :   653.999479   244.191500   219.595978

                             ****ORCA TERMINATED NORMALLY****
TOTAL RUN TIME: 0 days 0 hours 0 minutes 22 seconds 595 msec
