                         Program Version 4.2.1 -  RELEASE  -
|  1> ! wB97X-D3 SP def2-SVP
|  2> %pal
|  3> nprocs 24
|  4> end
|  5>
|  6> * xyz 0 1
|  7> S 	 -27.0481 	 -4.12341 	 -4.8188
|  8> C 	 -25.9944 	 -5.36974 	 -4.08032
|  9> C 	 -26.8151 	 -6.41757 	 -3.60052
| 10> C 	 -28.2088 	 -6.06026 	 -3.56354
| 11> C 	 -28.5299 	 -4.8348 	 -4.17944
| 12> H 	 -29.025 	 -6.6648 	 -3.24026
| 13> C 	 -26.3272 	 -7.62172 	 -2.88368
| 14> H 	 -25.3286 	 -7.86167 	 -3.26097
| 15> H 	 -27.0805 	 -8.31885 	 -3.19917
| 16> C 	 -26.5315 	 -7.63687 	 -1.40381
| 17> H 	 -25.8416 	 -6.94377 	 -0.878319
| 18> H 	 -27.4535 	 -7.23315 	 -1.15622
| 19> C 	 -26.2849 	 -9.03861 	 -0.904898
| 20> H 	 -25.3046 	 -9.2645 	 -1.39812
| 21> H 	 -26.1689 	 -9.05164 	 0.195127
| 22> H 	 -27.1535 	 -9.66349 	 -1.11287
| 23> S 	 -30.0034 	 -3.71275 	 -6.11537
| 24> C 	 -31.6801 	 -3.34952 	 -5.85125
| 25> C 	 -32.1139 	 -4.0323 	 -4.75809
| 26> C 	 -31.1037 	 -4.64354 	 -4.00154
| 27> C 	 -29.8446 	 -4.52532 	 -4.56946
| 28> H 	 -33.0762 	 -4.02971 	 -4.43508
| 29> C 	 -31.4231 	 -5.27473 	 -2.68211
| 30> H 	 -32.0966 	 -4.64872 	 -2.16138
| 31> H 	 -30.5089 	 -5.239 	 -2.1697
| 32> C 	 -31.9809 	 -6.78067 	 -2.59383
| 33> H 	 -31.1759 	 -7.46017 	 -3.05567
| 34> H 	 -32.9149 	 -6.90534 	 -3.09804
| 35> C 	 -32.2275 	 -7.10877 	 -1.10271
| 36> H 	 -32.964 	 -6.32072 	 -0.875144
| 37> H 	 -31.2906 	 -6.80947 	 -0.71272
| 38> H 	 -32.5302 	 -8.15748 	 -0.971994
| 39> H 	 -24.8925 	 -5.38751 	 -4.22561
| 40> H 	 -32.3224 	 -2.59922 	 -6.33346
| 41> *
| 42>
| 43>                          ****END OF INPUT****

CARTESIAN COORDINATES (ANGSTROEM)
---------------------------------
  S    -27.048100   -4.123410   -4.818800
  C    -25.994400   -5.369740   -4.080320
  C    -26.815100   -6.417570   -3.600520
  C    -28.208800   -6.060260   -3.563540
  C    -28.529900   -4.834800   -4.179440
  H    -29.025000   -6.664800   -3.240260
  C    -26.327200   -7.621720   -2.883680
  H    -25.328600   -7.861670   -3.260970
  H    -27.080500   -8.318850   -3.199170
  C    -26.531500   -7.636870   -1.403810
  H    -25.841600   -6.943770   -0.878319
  H    -27.453500   -7.233150   -1.156220
  C    -26.284900   -9.038610   -0.904898
  H    -25.304600   -9.264500   -1.398120
  H    -26.168900   -9.051640    0.195127
  H    -27.153500   -9.663490   -1.112870
  S    -30.003400   -3.712750   -6.115370
  C    -31.680100   -3.349520   -5.851250
  C    -32.113900   -4.032300   -4.758090
  C    -31.103700   -4.643540   -4.001540
  C    -29.844600   -4.525320   -4.569460
  H    -33.076200   -4.029710   -4.435080
  C    -31.423100   -5.274730   -2.682110
  H    -32.096600   -4.648720   -2.161380
  H    -30.508900   -5.239000   -2.169700
  C    -31.980900   -6.780670   -2.593830
  H    -31.175900   -7.460170   -3.055670
  H    -32.914900   -6.905340   -3.098040
  C    -32.227500   -7.108770   -1.102710
  H    -32.964000   -6.320720   -0.875144
  H    -31.290600   -6.809470   -0.712720
  H    -32.530200   -8.157480   -0.971994
  H    -24.892500   -5.387510   -4.225610
  H    -32.322400   -2.599220   -6.333460

 Total Charge           Charge          ....    0
 Multiplicity           Mult            ....    1
 Number of Electrons    NEL             ....  134
 Basis Dimension        Dim             ....  322

ORBITAL ENERGIES
----------------

  NO   OCC          E(Eh)            E(eV)
   0   2.0000     -88.969234     -2420.9759
   1   2.0000     -88.961778     -2420.7731
   2   2.0000     -10.332478      -281.1610
   3   2.0000     -10.326404      -280.9957
   4   2.0000     -10.324573      -280.9459
   5   2.0000     -10.313292      -280.6389
   6   2.0000     -10.307017      -280.4682
   7   2.0000     -10.296741      -280.1886
   8   2.0000     -10.296696      -280.1873
   9   2.0000     -10.296356      -280.1781
  10   2.0000     -10.287404      -279.9345
  11   2.0000     -10.287245      -279.9302
  12   2.0000     -10.282979      -279.8141
  13   2.0000     -10.281586      -279.7762
  14   2.0000     -10.279491      -279.7192
  15   2.0000     -10.278755      -279.6991
  16   2.0000      -8.082766      -219.9432
  17   2.0000      -8.077067      -219.7882
  18   2.0000      -6.041475      -164.3969
  19   2.0000      -6.037326      -164.2840
  20   2.0000      -6.035688      -164.2394
  21   2.0000      -6.033469      -164.1790
  22   2.0000      -6.031454      -164.1242
  23   2.0000      -6.027692      -164.0218
  24   2.0000      -1.011403       -27.5217
  25   2.0000      -0.982729       -26.7414
  26   2.0000      -0.928181       -25.2571
  27   2.0000      -0.910222       -24.7684
  28   2.0000      -0.878838       -23.9144
  29   2.0000      -0.859084       -23.3769
  30   2.0000      -0.848683       -23.0938
  31   2.0000      -0.815188       -22.1824
  32   2.0000      -0.779507       -21.2115
  33   2.0000      -0.769047       -20.9268
  34   2.0000      -0.710900       -19.3446
  35   2.0000      -0.702239       -19.1089
  36   2.0000      -0.696279       -18.9467
  37   2.0000      -0.672278       -18.2936
  38   2.0000      -0.642212       -17.4755
  39   2.0000      -0.624231       -16.9862
  40   2.0000      -0.597193       -16.2505
  41   2.0000      -0.579572       -15.7709
  42   2.0000      -0.572975       -15.5914
  43   2.0000      -0.569229       -15.4895
  44   2.0000      -0.538242       -14.6463
  45   2.0000      -0.532652       -14.4942
  46   2.0000      -0.519370       -14.1328
  47   2.0000      -0.514323       -13.9954
  48   2.0000      -0.511336       -13.9142
  49   2.0000      -0.506424       -13.7805
  50   2.0000      -0.497331       -13.5331
  51   2.0000      -0.476502       -12.9663
  52   2.0000      -0.470109       -12.7923
  53   2.0000      -0.464905       -12.6507
  54   2.0000      -0.457607       -12.4521
  55   2.0000      -0.447795       -12.1851
  56   2.0000      -0.444505       -12.0956
  57   2.0000      -0.442493       -12.0408
  58   2.0000      -0.431303       -11.7363
  59   2.0000      -0.429871       -11.6974
  60   2.0000      -0.424276       -11.5451
  61   2.0000      -0.419794       -11.4232
  62   2.0000      -0.407094       -11.0776
  63   2.0000      -0.357873        -9.7382
  64   2.0000      -0.329936        -8.9780
  65   2.0000      -0.327561        -8.9134
  66   2.0000      -0.281061        -7.6481
  67   0.0000       0.012630         0.3437
  68   0.0000       0.078758         2.1431
  69   0.0000       0.104943         2.8556
  70   0.0000       0.119918         3.2631
  71   0.0000       0.121947         3.3183

MULLIKEN ATOMIC CHARGES
-----------------------
   0 S :    0.097392
   1 C :   -0.133695
   2 C :   -0.068930
   3 C :   -0.006450
   4 C :   -0.101578
   5 H :   -0.012312
   6 C :    0.063826
   7 H :    0.026171
   8 H :    0.016376
   9 C :   -0.038416
  10 H :    0.021579
  11 H :    0.000706
  12 C :   -0.052725
  13 H :    0.042752
  14 H :    0.034760
  15 H :    0.041194
  16 S :    0.092728
  17 C :   -0.088809
  18 C :    0.015227
  19 C :   -0.042561
  20 C :   -0.139820
  21 H :   -0.031186
  22 C :    0.046179
  23 H :    0.007216
  24 H :    0.006408
  25 C :   -0.099583
  26 H :    0.042712
  27 H :    0.026792
  28 C :   -0.013671
  29 H :    0.032594
  30 H :    0.018059
  31 H :    0.056659
  32 H :    0.073210
  33 H :    0.067199
Sum of atomic charges:    0.0000000

LOEWDIN ATOMIC CHARGES
----------------------
   0 S :    0.388071
   1 C :   -0.194103
   2 C :   -0.056401
   3 C :   -0.058134
   4 C :   -0.191792
   5 H :    0.022074
   6 C :   -0.035723
   7 H :    0.030512
   8 H :    0.035073
   9 C :   -0.038956
  10 H :    0.025309
  11 H :    0.011256
  12 C :   -0.063274
  13 H :    0.035592
  14 H :    0.027609
  15 H :    0.025912
  16 S :    0.404970
  17 C :   -0.191950
  18 C :   -0.060141
  19 C :   -0.062754
  20 C :   -0.185747
  21 H :    0.013256
  22 C :   -0.029652
  23 H :    0.023068
  24 H :    0.021602
  25 C :   -0.033533
  26 H :    0.023139
  27 H :    0.014951
  28 C :   -0.060759
  29 H :    0.030658
  30 H :    0.018582
  31 H :    0.032256
  32 H :    0.039056
  33 H :    0.039972

  Mayer bond orders larger than 0.100000
B(  0-S ,  1-C ) :   1.1286 B(  0-S ,  4-C ) :   1.1388 B(  1-C ,  2-C ) :   1.5672
B(  1-C , 32-H ) :   0.9662 B(  2-C ,  3-C ) :   1.2536 B(  2-C ,  6-C ) :   1.0467
B(  3-C ,  4-C ) :   1.5108 B(  3-C ,  5-H ) :   0.9907 B(  4-C , 20-C ) :   1.1266
B(  6-C ,  7-H ) :   0.9379 B(  6-C ,  8-H ) :   0.9265 B(  6-C ,  9-C ) :   1.0709
B(  9-C , 10-H ) :   0.9478 B(  9-C , 11-H ) :   0.9480 B(  9-C , 12-C ) :   1.0762
B( 12-C , 13-H ) :   0.9729 B( 12-C , 14-H ) :   0.9730 B( 12-C , 15-H ) :   0.9766
B( 16-S , 17-C ) :   1.1469 B( 16-S , 20-C ) :   1.1237 B( 17-C , 18-C ) :   1.5860
B( 17-C , 33-H ) :   0.9646 B( 18-C , 19-C ) :   1.2734 B( 18-C , 21-H ) :   1.0044
B( 19-C , 20-C ) :   1.5573 B( 19-C , 22-C ) :   1.0555 B( 22-C , 23-H ) :   0.9308
B( 22-C , 24-H ) :   0.9227 B( 22-C , 25-C ) :   1.0538 B( 25-C , 26-H ) :   0.9523
B( 25-C , 27-H ) :   0.9576 B( 25-C , 28-C ) :   1.0536 B( 28-C , 29-H ) :   0.9764
B( 28-C , 30-H ) :   0.9778 B( 28-C , 31-H ) :   0.9720

Dispersion correction           -0.013823698
FINAL SINGLE POINT ENERGY     -1339.842849952984

DIPOLE MOMENT
-------------
                                X             Y             Z
Electronic contribution:      3.85127      22.35759     -23.99725
Nuclear contribution   :     -4.06047     -22.81857      24.51135
                        -----------------------------------------
Total Dipole Moment    :     -0.20920      -0.46099       0.51409
                        -----------------------------------------
Magnitude (a.u.)       :      0.72150
Magnitude (Debye)      :      1.83391

Rotational constants in cm-1:     0.016674     0.009941     0.006454
Rotational constants in MHz :   499.880725   298.014386   193.492420

                             ****ORCA TERMINATED NORMALLY****
TOTAL RUN TIME: 0 days 0 hours 0 minutes 20 seconds 985 msec
