                         Program Version 4.2.1 -  RELEASE  -
|  1> ! wB97X-D3 SP def2-SVP
|  2> %pal
|  3> nprocs 24
|  4> end
|  5>
|  6> * xyz 0 1
|  7> S 	 -50.0716 	 18.441 	 -88.069
|  8> C 	 -51.029 	 19.5495 	 -87.1182
|  9> C 	 -52.3268 	 19.6907 	 -87.5937
| 10> C 	 -52.6201 	 18.7103 	 -88.5934
| 11> C 	 -51.5219 	 17.9555 	 -88.9622
| 12> H 	 -53.571 	 18.5755 	 -89.112
| 13> C 	 -53.3913 	 20.6181 	 -86.9753
| 14> H 	 -53.1791 	 20.7397 	 -85.8679
| 15> H 	 -54.3319 	 19.9681 	 -86.9525
| 16> C 	 -53.5559 	 21.9855 	 -87.6743
| 17> H 	 -53.4855 	 21.866 	 -88.7467
| 18> H 	 -54.5283 	 22.3555 	 -87.3376
| 19> C 	 -52.4354 	 22.8914 	 -87.2661
| 20> H 	 -52.5364 	 23.2097 	 -86.2242
| 21> H 	 -51.5026 	 22.298 	 -87.2764
| 22> H 	 -52.1671 	 23.8319 	 -87.8397
| 23> S 	 -52.2313 	 15.489 	 -90.0099
| 24> C 	 -52.0269 	 15.1853 	 -91.6546
| 25> C 	 -51.218 	 16.1161 	 -92.2021
| 26> C 	 -50.9132 	 17.2155 	 -91.3263
| 27> C 	 -51.4464 	 17.0443 	 -90.095
| 28> H 	 -50.905 	 16.0837 	 -93.2858
| 29> C 	 -50.1277 	 18.4726 	 -91.7987
| 30> H 	 -49.7521 	 18.8594 	 -90.8934
| 31> H 	 -50.8454 	 19.1544 	 -92.2484
| 32> C 	 -48.9611 	 18.2455 	 -92.7905
| 33> H 	 -49.3613 	 18.2992 	 -93.8047
| 34> H 	 -48.5467 	 17.302 	 -92.5927
| 35> C 	 -47.8383 	 19.3239 	 -92.7289
| 36> H 	 -47.3161 	 19.4189 	 -91.7828
| 37> H 	 -48.2947 	 20.3376 	 -92.991
| 38> H 	 -47.1693 	 19.1263 	 -93.5571
| 39> H 	 -50.6109 	 20.3088 	 -86.4775
| 40> H 	 -52.3296 	 14.2188 	 -92.0765
| 41> *
| 42>
| 43>                          ****END OF INPUT****

CARTESIAN COORDINATES (ANGSTROEM)
---------------------------------
  S    -50.071600   18.441000  -88.069000
  C    -51.029000   19.549500  -87.118200
  C    -52.326800   19.690700  -87.593700
  C    -52.620100   18.710300  -88.593400
  C    -51.521900   17.955500  -88.962200
  H    -53.571000   18.575500  -89.112000
  C    -53.391300   20.618100  -86.975300
  H    -53.179100   20.739700  -85.867900
  H    -54.331900   19.968100  -86.952500
  C    -53.555900   21.985500  -87.674300
  H    -53.485500   21.866000  -88.746700
  H    -54.528300   22.355500  -87.337600
  C    -52.435400   22.891400  -87.266100
  H    -52.536400   23.209700  -86.224200
  H    -51.502600   22.298000  -87.276400
  H    -52.167100   23.831900  -87.839700
  S    -52.231300   15.489000  -90.009900
  C    -52.026900   15.185300  -91.654600
  C    -51.218000   16.116100  -92.202100
  C    -50.913200   17.215500  -91.326300
  C    -51.446400   17.044300  -90.095000
  H    -50.905000   16.083700  -93.285800
  C    -50.127700   18.472600  -91.798700
  H    -49.752100   18.859400  -90.893400
  H    -50.845400   19.154400  -92.248400
  C    -48.961100   18.245500  -92.790500
  H    -49.361300   18.299200  -93.804700
  H    -48.546700   17.302000  -92.592700
  C    -47.838300   19.323900  -92.728900
  H    -47.316100   19.418900  -91.782800
  H    -48.294700   20.337600  -92.991000
  H    -47.169300   19.126300  -93.557100
  H    -50.610900   20.308800  -86.477500
  H    -52.329600   14.218800  -92.076500

 Total Charge           Charge          ....    0
 Multiplicity           Mult            ....    1
 Number of Electrons    NEL             ....  134
 Basis Dimension        Dim             ....  322

ORBITAL ENERGIES
----------------

  NO   OCC          E(Eh)            E(eV)
   0   2.0000     -88.969441     -2420.9816
   1   2.0000     -88.957892     -2420.6673
   2   2.0000     -10.329772      -281.0874
   3   2.0000     -10.318312      -280.7756
   4   2.0000     -10.314286      -280.6660
   5   2.0000     -10.311180      -280.5815
   6   2.0000     -10.304915      -280.4110
   7   2.0000     -10.304062      -280.3878
   8   2.0000     -10.298940      -280.2484
   9   2.0000     -10.297332      -280.2047
  10   2.0000     -10.291804      -280.0542
  11   2.0000     -10.289670      -279.9961
  12   2.0000     -10.285816      -279.8913
  13   2.0000     -10.283851      -279.8378
  14   2.0000     -10.282578      -279.8032
  15   2.0000     -10.280671      -279.7513
  16   2.0000      -8.083444      -219.9617
  17   2.0000      -8.074596      -219.7209
  18   2.0000      -6.041891      -164.4082
  19   2.0000      -6.038059      -164.3039
  20   2.0000      -6.034309      -164.2019
  21   2.0000      -6.032971      -164.1655
  22   2.0000      -6.028818      -164.0525
  23   2.0000      -6.025371      -163.9587
  24   2.0000      -1.012390       -27.5485
  25   2.0000      -0.987975       -26.8842
  26   2.0000      -0.913643       -24.8615
  27   2.0000      -0.904102       -24.6019
  28   2.0000      -0.871735       -23.7211
  29   2.0000      -0.849803       -23.1243
  30   2.0000      -0.846084       -23.0231
  31   2.0000      -0.811303       -22.0767
  32   2.0000      -0.780277       -21.2324
  33   2.0000      -0.771801       -21.0018
  34   2.0000      -0.704805       -19.1787
  35   2.0000      -0.701213       -19.0810
  36   2.0000      -0.692616       -18.8470
  37   2.0000      -0.653357       -17.7788
  38   2.0000      -0.638596       -17.3771
  39   2.0000      -0.616498       -16.7758
  40   2.0000      -0.598403       -16.2834
  41   2.0000      -0.574758       -15.6399
  42   2.0000      -0.572494       -15.5784
  43   2.0000      -0.544249       -14.8098
  44   2.0000      -0.540188       -14.6993
  45   2.0000      -0.523324       -14.2404
  46   2.0000      -0.517425       -14.0798
  47   2.0000      -0.510427       -13.8894
  48   2.0000      -0.504407       -13.7256
  49   2.0000      -0.490837       -13.3564
  50   2.0000      -0.482354       -13.1255
  51   2.0000      -0.481158       -13.0930
  52   2.0000      -0.471754       -12.8371
  53   2.0000      -0.464640       -12.6435
  54   2.0000      -0.462411       -12.5828
  55   2.0000      -0.446906       -12.1609
  56   2.0000      -0.445729       -12.1289
  57   2.0000      -0.435894       -11.8613
  58   2.0000      -0.431211       -11.7339
  59   2.0000      -0.427697       -11.6382
  60   2.0000      -0.423502       -11.5241
  61   2.0000      -0.414076       -11.2676
  62   2.0000      -0.411162       -11.1883
  63   2.0000      -0.340771        -9.2728
  64   2.0000      -0.330067        -8.9816
  65   2.0000      -0.327564        -8.9135
  66   2.0000      -0.306653        -8.3445
  67   0.0000       0.038761         1.0547
  68   0.0000       0.066678         1.8144
  69   0.0000       0.111942         3.0461
  70   0.0000       0.117287         3.1915
  71   0.0000       0.132197         3.5973

MULLIKEN ATOMIC CHARGES
-----------------------
   0 S :    0.111338
   1 C :   -0.096487
   2 C :   -0.107051
   3 C :    0.052544
   4 C :   -0.175001
   5 H :    0.020858
   6 C :   -0.034760
   7 H :    0.040922
   8 H :    0.045095
   9 C :    0.010127
  10 H :    0.035118
  11 H :    0.035824
  12 C :   -0.083472
  13 H :    0.022803
  14 H :    0.014337
  15 H :    0.047680
  16 S :    0.107682
  17 C :   -0.093346
  18 C :   -0.053101
  19 C :   -0.061813
  20 C :   -0.191853
  21 H :    0.036299
  22 C :    0.140622
  23 H :   -0.004106
  24 H :    0.038335
  25 C :   -0.080428
  26 H :    0.030961
  27 H :    0.024946
  28 C :   -0.064397
  29 H :    0.046683
  30 H :    0.030721
  31 H :    0.033830
  32 H :    0.052137
  33 H :    0.066953
Sum of atomic charges:   -0.0000000

LOEWDIN ATOMIC CHARGES
----------------------
   0 S :    0.405241
   1 C :   -0.199163
   2 C :   -0.066629
   3 C :   -0.053507
   4 C :   -0.188113
   5 H :    0.036474
   6 C :   -0.038149
   7 H :    0.036141
   8 H :    0.038689
   9 C :   -0.037540
  10 H :    0.027611
  11 H :    0.026811
  12 C :   -0.077900
  13 H :    0.022567
  14 H :    0.024205
  15 H :    0.032844
  16 S :    0.427060
  17 C :   -0.203196
  18 C :   -0.087650
  19 C :   -0.055063
  20 C :   -0.213602
  21 H :    0.039133
  22 C :   -0.022491
  23 H :    0.012321
  24 H :    0.034940
  25 C :   -0.036587
  26 H :    0.025650
  27 H :    0.016265
  28 C :   -0.064979
  29 H :    0.024043
  30 H :    0.030350
  31 H :    0.025924
  32 H :    0.023619
  33 H :    0.034683

  Mayer bond orders larger than 0.100000
B(  0-S ,  1-C ) :   1.1417 B(  0-S ,  4-C ) :   1.1444 B(  1-C ,  2-C ) :   1.6241
B(  1-C , 32-H ) :   0.9571 B(  2-C ,  3-C ) :   1.2400 B(  2-C ,  6-C ) :   1.0061
B(  3-C ,  4-C ) :   1.5990 B(  3-C ,  5-H ) :   0.9889 B(  4-C , 20-C ) :   1.0080
B(  6-C ,  7-H ) :   0.9522 B(  6-C ,  8-H ) :   0.9497 B(  6-C ,  9-C ) :   1.0432
B(  9-C , 10-H ) :   0.9573 B(  9-C , 11-H ) :   0.9565 B(  9-C , 12-C ) :   1.0676
B( 12-C , 13-H ) :   0.9736 B( 12-C , 14-H ) :   0.9730 B( 12-C , 15-H ) :   0.9735
B( 16-S , 17-C ) :   1.1754 B( 16-S , 20-C ) :   1.1450 B( 17-C , 18-C ) :   1.5947
B( 17-C , 33-H ) :   0.9646 B( 18-C , 19-C ) :   1.2429 B( 18-C , 21-H ) :   0.9838
B( 19-C , 20-C ) :   1.6330 B( 19-C , 22-C ) :   1.0240 B( 22-C , 23-H ) :   0.9278
B( 22-C , 24-H ) :   0.9278 B( 22-C , 25-C ) :   1.0678 B( 25-C , 26-H ) :   0.9499
B( 25-C , 27-H ) :   0.9634 B( 25-C , 28-C ) :   1.0916 B( 28-C , 29-H ) :   0.9765
B( 28-C , 30-H ) :   0.9744 B( 28-C , 31-H ) :   0.9745

Dispersion correction           -0.014145366
FINAL SINGLE POINT ENERGY     -1339.885589714560

DIPOLE MOMENT
-------------
                                X             Y             Z
Electronic contribution:     -3.02557     -22.99088       5.66853
Nuclear contribution   :      2.91217      23.45078      -5.98232
                        -----------------------------------------
Total Dipole Moment    :     -0.11340       0.45990      -0.31379
                        -----------------------------------------
Magnitude (a.u.)       :      0.56818
Magnitude (Debye)      :      1.44420

Rotational constants in cm-1:     0.018320     0.008274     0.006702
Rotational constants in MHz :   549.222999   248.052669   200.924910

                             ****ORCA TERMINATED NORMALLY****
TOTAL RUN TIME: 0 days 0 hours 0 minutes 21 seconds 218 msec
