                         Program Version 4.2.1 -  RELEASE  -
|  1> ! wB97X-D3 SP def2-SVP
|  2> %pal
|  3> nprocs 24
|  4> end
|  5>
|  6> * xyz 0 1
|  7> S 	 -64.9899 	 -52.0782 	 -82.3297
|  8> C 	 -63.5729 	 -53.173 	 -82.2512
|  9> C 	 -63.2622 	 -53.5387 	 -80.9471
| 10> C 	 -64.3271 	 -53.0907 	 -80.0549
| 11> C 	 -65.2763 	 -52.2541 	 -80.5932
| 12> H 	 -64.3333 	 -53.2608 	 -79.0186
| 13> C 	 -62.2568 	 -54.4623 	 -80.4759
| 14> H 	 -62.6226 	 -55.4159 	 -80.053
| 15> H 	 -61.721 	 -54.0334 	 -79.6097
| 16> C 	 -61.173 	 -54.9244 	 -81.5291
| 17> H 	 -60.6867 	 -55.775 	 -81.038
| 18> H 	 -61.6119 	 -55.2668 	 -82.523
| 19> C 	 -60.1195 	 -53.7565 	 -81.7779
| 20> H 	 -60.442 	 -52.9552 	 -82.3309
| 21> H 	 -59.5629 	 -53.2758 	 -80.9476
| 22> H 	 -59.3263 	 -54.1721 	 -82.4542
| 23> S 	 -65.997 	 -49.6235 	 -79.9124
| 24> C 	 -67.3782 	 -49.3907 	 -78.8617
| 25> C 	 -67.7512 	 -50.6034 	 -78.3595
| 26> C 	 -67.0416 	 -51.7428 	 -78.813
| 27> C 	 -66.2352 	 -51.3879 	 -79.8829
| 28> H 	 -68.5975 	 -50.6946 	 -77.645
| 29> C 	 -67.3867 	 -53.0766 	 -78.2943
| 30> H 	 -67.0122 	 -53.6934 	 -79.1465
| 31> H 	 -68.5124 	 -53.2294 	 -78.3311
| 32> C 	 -66.7201 	 -53.5286 	 -76.9417
| 33> H 	 -65.6572 	 -53.4285 	 -76.9925
| 34> H 	 -66.8987 	 -54.6325 	 -76.8796
| 35> C 	 -67.1531 	 -52.7817 	 -75.6256
| 36> H 	 -68.1343 	 -53.094 	 -75.2041
| 37> H 	 -67.0888 	 -51.7276 	 -75.7258
| 38> H 	 -66.3551 	 -52.9373 	 -74.8903
| 39> H 	 -62.9332 	 -53.5278 	 -83.0447
| 40> H 	 -67.7851 	 -48.5112 	 -78.5495
| 41> *
| 42>
| 43>                          ****END OF INPUT****

CARTESIAN COORDINATES (ANGSTROEM)
---------------------------------
  S    -64.989900  -52.078200  -82.329700
  C    -63.572900  -53.173000  -82.251200
  C    -63.262200  -53.538700  -80.947100
  C    -64.327100  -53.090700  -80.054900
  C    -65.276300  -52.254100  -80.593200
  H    -64.333300  -53.260800  -79.018600
  C    -62.256800  -54.462300  -80.475900
  H    -62.622600  -55.415900  -80.053000
  H    -61.721000  -54.033400  -79.609700
  C    -61.173000  -54.924400  -81.529100
  H    -60.686700  -55.775000  -81.038000
  H    -61.611900  -55.266800  -82.523000
  C    -60.119500  -53.756500  -81.777900
  H    -60.442000  -52.955200  -82.330900
  H    -59.562900  -53.275800  -80.947600
  H    -59.326300  -54.172100  -82.454200
  S    -65.997000  -49.623500  -79.912400
  C    -67.378200  -49.390700  -78.861700
  C    -67.751200  -50.603400  -78.359500
  C    -67.041600  -51.742800  -78.813000
  C    -66.235200  -51.387900  -79.882900
  H    -68.597500  -50.694600  -77.645000
  C    -67.386700  -53.076600  -78.294300
  H    -67.012200  -53.693400  -79.146500
  H    -68.512400  -53.229400  -78.331100
  C    -66.720100  -53.528600  -76.941700
  H    -65.657200  -53.428500  -76.992500
  H    -66.898700  -54.632500  -76.879600
  C    -67.153100  -52.781700  -75.625600
  H    -68.134300  -53.094000  -75.204100
  H    -67.088800  -51.727600  -75.725800
  H    -66.355100  -52.937300  -74.890300
  H    -62.933200  -53.527800  -83.044700
  H    -67.785100  -48.511200  -78.549500

 Total Charge           Charge          ....    0
 Multiplicity           Mult            ....    1
 Number of Electrons    NEL             ....  134
 Basis Dimension        Dim             ....  322

ORBITAL ENERGIES
----------------

  NO   OCC          E(Eh)            E(eV)
   0   2.0000     -88.966133     -2420.8915
   1   2.0000     -88.964553     -2420.8486
   2   2.0000     -10.330814      -281.1157
   3   2.0000     -10.329544      -281.0812
   4   2.0000     -10.318546      -280.7819
   5   2.0000     -10.308799      -280.5167
   6   2.0000     -10.305668      -280.4315
   7   2.0000     -10.302071      -280.3336
   8   2.0000     -10.298428      -280.2345
   9   2.0000     -10.297445      -280.2077
  10   2.0000     -10.297227      -280.2018
  11   2.0000     -10.296161      -280.1728
  12   2.0000     -10.292287      -280.0674
  13   2.0000     -10.288620      -279.9676
  14   2.0000     -10.282687      -279.8061
  15   2.0000     -10.279289      -279.7137
  16   2.0000      -8.079753      -219.8613
  17   2.0000      -8.078808      -219.8355
  18   2.0000      -6.038504      -164.3160
  19   2.0000      -6.037467      -164.2878
  20   2.0000      -6.034405      -164.2045
  21   2.0000      -6.033547      -164.1812
  22   2.0000      -6.030319      -164.0933
  23   2.0000      -6.029251      -164.0642
  24   2.0000      -1.003853       -27.3162
  25   2.0000      -0.981116       -26.6975
  26   2.0000      -0.911032       -24.7905
  27   2.0000      -0.904520       -24.6132
  28   2.0000      -0.863435       -23.4953
  29   2.0000      -0.849012       -23.1028
  30   2.0000      -0.842849       -22.9351
  31   2.0000      -0.811945       -22.0941
  32   2.0000      -0.785295       -21.3690
  33   2.0000      -0.777298       -21.1514
  34   2.0000      -0.715468       -19.4689
  35   2.0000      -0.709087       -19.2952
  36   2.0000      -0.697184       -18.9713
  37   2.0000      -0.659775       -17.9534
  38   2.0000      -0.636213       -17.3122
  39   2.0000      -0.609894       -16.5961
  40   2.0000      -0.593707       -16.1556
  41   2.0000      -0.580112       -15.7857
  42   2.0000      -0.552828       -15.0432
  43   2.0000      -0.546927       -14.8826
  44   2.0000      -0.537875       -14.6363
  45   2.0000      -0.531203       -14.4548
  46   2.0000      -0.517115       -14.0714
  47   2.0000      -0.511128       -13.9085
  48   2.0000      -0.498413       -13.5625
  49   2.0000      -0.495713       -13.4890
  50   2.0000      -0.493695       -13.4341
  51   2.0000      -0.482806       -13.1378
  52   2.0000      -0.474029       -12.8990
  53   2.0000      -0.465435       -12.6651
  54   2.0000      -0.461808       -12.5664
  55   2.0000      -0.443000       -12.0546
  56   2.0000      -0.439121       -11.9491
  57   2.0000      -0.437284       -11.8991
  58   2.0000      -0.435640       -11.8544
  59   2.0000      -0.426989       -11.6190
  60   2.0000      -0.420917       -11.4537
  61   2.0000      -0.417367       -11.3571
  62   2.0000      -0.409674       -11.1478
  63   2.0000      -0.346068        -9.4170
  64   2.0000      -0.328825        -8.9478
  65   2.0000      -0.323875        -8.8131
  66   2.0000      -0.295509        -8.0412
  67   0.0000       0.028872         0.7856
  68   0.0000       0.066690         1.8147
  69   0.0000       0.112065         3.0494
  70   0.0000       0.115370         3.1394
  71   0.0000       0.118647         3.2286

MULLIKEN ATOMIC CHARGES
-----------------------
   0 S :    0.103155
   1 C :   -0.102098
   2 C :   -0.062890
   3 C :    0.051925
   4 C :   -0.165386
   5 H :   -0.022864
   6 C :    0.017341
   7 H :    0.043967
   8 H :    0.034704
   9 C :   -0.094663
  10 H :    0.036797
  11 H :    0.048766
  12 C :   -0.060366
  13 H :    0.015862
  14 H :    0.038272
  15 H :    0.029918
  16 S :    0.101623
  17 C :   -0.037975
  18 C :   -0.044737
  19 C :   -0.035139
  20 C :   -0.123625
  21 H :    0.025594
  22 C :    0.005394
  23 H :    0.033262
  24 H :    0.048572
  25 C :   -0.057493
  26 H :    0.023379
  27 H :    0.042786
  28 C :   -0.053258
  29 H :    0.046819
  30 H :    0.027922
  31 H :    0.028789
  32 H :    0.041454
  33 H :    0.014193
Sum of atomic charges:    0.0000000

LOEWDIN ATOMIC CHARGES
----------------------
   0 S :    0.380562
   1 C :   -0.181310
   2 C :   -0.063489
   3 C :   -0.047917
   4 C :   -0.190210
   5 H :    0.018254
   6 C :   -0.044313
   7 H :    0.037901
   8 H :    0.038464
   9 C :   -0.036183
  10 H :    0.027918
  11 H :    0.031963
  12 C :   -0.076280
  13 H :    0.010648
  14 H :    0.031257
  15 H :    0.030972
  16 S :    0.392825
  17 C :   -0.170266
  18 C :   -0.070719
  19 C :   -0.064110
  20 C :   -0.188705
  21 H :    0.032849
  22 C :   -0.046327
  23 H :    0.038896
  24 H :    0.040737
  25 C :   -0.034022
  26 H :    0.018851
  27 H :    0.032630
  28 C :   -0.070229
  29 H :    0.029330
  30 H :    0.020991
  31 H :    0.030830
  32 H :    0.026500
  33 H :    0.011701

  Mayer bond orders larger than 0.100000
B(  0-S ,  1-C ) :   1.1191 B(  0-S ,  4-C ) :   1.1217 B(  1-C ,  2-C ) :   1.6433
B(  1-C , 32-H ) :   0.9568 B(  2-C ,  3-C ) :   1.2164 B(  2-C ,  6-C ) :   1.0377
B(  3-C ,  4-C ) :   1.6072 B(  3-C ,  5-H ) :   0.9969 B(  4-C , 20-C ) :   1.0211
B(  6-C ,  7-H ) :   0.9413 B(  6-C ,  8-H ) :   0.9277 B(  6-C ,  9-C ) :   1.0773
B(  9-C , 10-H ) :   0.9582 B(  9-C , 11-H ) :   0.9538 B(  9-C , 12-C ) :   1.0592
B( 12-C , 13-H ) :   0.9801 B( 12-C , 14-H ) :   0.9769 B( 12-C , 15-H ) :   0.9754
B( 16-S , 17-C ) :   1.1334 B( 16-S , 20-C ) :   1.1411 B( 17-C , 18-C ) :   1.6142
B( 17-C , 33-H ) :   0.9810 B( 18-C , 19-C ) :   1.2370 B( 18-C , 21-H ) :   0.9801
B( 19-C , 20-C ) :   1.5892 B( 19-C , 22-C ) :   1.0423 B( 22-C , 23-H ) :   0.9275
B( 22-C , 24-H ) :   0.9454 B( 22-C , 25-C ) :   1.0585 B( 25-C , 26-H ) :   0.9552
B( 25-C , 27-H ) :   0.9570 B( 25-C , 28-C ) :   1.0732 B( 28-C , 29-H ) :   0.9778
B( 28-C , 30-H ) :   0.9706 B( 28-C , 31-H ) :   0.9736

Dispersion correction           -0.014503719
FINAL SINGLE POINT ENERGY     -1339.856574794865

DIPOLE MOMENT
-------------
                                X             Y             Z
Electronic contribution:    -10.94763      17.25589     -13.36247
Nuclear contribution   :     11.20557     -17.74890      13.97447
                        -----------------------------------------
Total Dipole Moment    :      0.25794      -0.49301       0.61200
                        -----------------------------------------
Magnitude (a.u.)       :      0.82712
Magnitude (Debye)      :      2.10238

Rotational constants in cm-1:     0.021217     0.007831     0.006372
Rotational constants in MHz :   636.065623   234.767199   191.024878

                             ****ORCA TERMINATED NORMALLY****
TOTAL RUN TIME: 0 days 0 hours 0 minutes 21 seconds 544 msec
