                         Program Version 4.2.1 -  RELEASE  -
|  1> ! wB97X-D3 SP def2-SVP
|  2> %pal
|  3> nprocs 24
|  4> end
|  5>
|  6> * xyz 0 1
|  7> S 	 25.6453 	 -10.8694 	 -113.007
|  8> C 	 26.0076 	 -10.7681 	 -111.308
|  9> C 	 24.9173 	 -10.2331 	 -110.604
| 10> C 	 23.9072 	 -9.85041 	 -111.498
| 11> C 	 24.1364 	 -10.0858 	 -112.841
| 12> H 	 22.9399 	 -9.39746 	 -111.256
| 13> C 	 24.804 	 -10.0867 	 -109.088
| 14> H 	 25.2195 	 -10.921 	 -108.555
| 15> H 	 23.7622 	 -10.0853 	 -108.713
| 16> C 	 25.5121 	 -8.8504 	 -108.533
| 17> H 	 26.5821 	 -8.93763 	 -108.796
| 18> H 	 25.0909 	 -8.0406 	 -109.159
| 19> C 	 25.27 	 -8.68745 	 -107.011
| 20> H 	 25.8053 	 -9.42528 	 -106.435
| 21> H 	 25.854 	 -7.77985 	 -106.82
| 22> H 	 24.2467 	 -8.60492 	 -106.608
| 23> S 	 22.6092 	 -11.084 	 -114.94
| 24> C 	 21.9093 	 -9.94475 	 -116.013
| 25> C 	 21.9604 	 -8.69008 	 -115.485
| 26> C 	 22.6113 	 -8.54493 	 -114.256
| 27> C 	 23.2474 	 -9.71496 	 -113.961
| 28> H 	 21.6195 	 -7.80619 	 -115.963
| 29> C 	 22.6039 	 -7.20573 	 -113.504
| 30> H 	 22.9102 	 -6.49124 	 -114.302
| 31> H 	 23.4426 	 -7.31036 	 -112.798
| 32> C 	 21.3158 	 -6.76428 	 -112.787
| 33> H 	 21.0598 	 -7.53413 	 -112.085
| 34> H 	 20.449 	 -6.90489 	 -113.449
| 35> C 	 21.4147 	 -5.28431 	 -112.15
| 36> H 	 20.6051 	 -5.13772 	 -111.404
| 37> H 	 21.3941 	 -4.49214 	 -112.883
| 38> H 	 22.4167 	 -5.10588 	 -111.622
| 39> H 	 26.9699 	 -10.9994 	 -110.891
| 40> H 	 21.3864 	 -10.1919 	 -116.937
| 41> *
| 42>
| 43>                          ****END OF INPUT****

CARTESIAN COORDINATES (ANGSTROEM)
---------------------------------
  S     25.645300  -10.869400  -113.007000
  C     26.007600  -10.768100  -111.308000
  C     24.917300  -10.233100  -110.604000
  C     23.907200   -9.850410  -111.498000
  C     24.136400  -10.085800  -112.841000
  H     22.939900   -9.397460  -111.256000
  C     24.804000  -10.086700  -109.088000
  H     25.219500  -10.921000  -108.555000
  H     23.762200  -10.085300  -108.713000
  C     25.512100   -8.850400  -108.533000
  H     26.582100   -8.937630  -108.796000
  H     25.090900   -8.040600  -109.159000
  C     25.270000   -8.687450  -107.011000
  H     25.805300   -9.425280  -106.435000
  H     25.854000   -7.779850  -106.820000
  H     24.246700   -8.604920  -106.608000
  S     22.609200  -11.084000  -114.940000
  C     21.909300   -9.944750  -116.013000
  C     21.960400   -8.690080  -115.485000
  C     22.611300   -8.544930  -114.256000
  C     23.247400   -9.714960  -113.961000
  H     21.619500   -7.806190  -115.963000
  C     22.603900   -7.205730  -113.504000
  H     22.910200   -6.491240  -114.302000
  H     23.442600   -7.310360  -112.798000
  C     21.315800   -6.764280  -112.787000
  H     21.059800   -7.534130  -112.085000
  H     20.449000   -6.904890  -113.449000
  C     21.414700   -5.284310  -112.150000
  H     20.605100   -5.137720  -111.404000
  H     21.394100   -4.492140  -112.883000
  H     22.416700   -5.105880  -111.622000
  H     26.969900  -10.999400  -110.891000
  H     21.386400  -10.191900  -116.937000

 Total Charge           Charge          ....    0
 Multiplicity           Mult            ....    1
 Number of Electrons    NEL             ....  134
 Basis Dimension        Dim             ....  322

ORBITAL ENERGIES
----------------

  NO   OCC          E(Eh)            E(eV)
   0   2.0000     -88.966828     -2420.9105
   1   2.0000     -88.962945     -2420.8048
   2   2.0000     -10.327515      -281.0260
   3   2.0000     -10.322864      -280.8994
   4   2.0000     -10.314933      -280.6836
   5   2.0000     -10.312190      -280.6090
   6   2.0000     -10.302362      -280.3415
   7   2.0000     -10.298896      -280.2472
   8   2.0000     -10.298733      -280.2428
   9   2.0000     -10.297751      -280.2160
  10   2.0000     -10.296163      -280.1728
  11   2.0000     -10.290711      -280.0245
  12   2.0000     -10.289445      -279.9900
  13   2.0000     -10.288384      -279.9612
  14   2.0000     -10.282658      -279.8053
  15   2.0000     -10.282494      -279.8009
  16   2.0000      -8.082189      -219.9276
  17   2.0000      -8.077921      -219.8114
  18   2.0000      -6.040519      -164.3709
  19   2.0000      -6.036426      -164.2595
  20   2.0000      -6.036379      -164.2582
  21   2.0000      -6.033281      -164.1739
  22   2.0000      -6.032651      -164.1568
  23   2.0000      -6.028465      -164.0429
  24   2.0000      -1.010483       -27.4966
  25   2.0000      -0.990656       -26.9571
  26   2.0000      -0.911413       -24.8008
  27   2.0000      -0.903590       -24.5879
  28   2.0000      -0.865571       -23.5534
  29   2.0000      -0.851091       -23.1594
  30   2.0000      -0.846014       -23.0212
  31   2.0000      -0.808697       -22.0058
  32   2.0000      -0.784039       -21.3348
  33   2.0000      -0.774923       -21.0867
  34   2.0000      -0.711800       -19.3691
  35   2.0000      -0.698529       -19.0079
  36   2.0000      -0.694831       -18.9073
  37   2.0000      -0.663226       -18.0473
  38   2.0000      -0.646370       -17.5886
  39   2.0000      -0.616886       -16.7863
  40   2.0000      -0.596451       -16.2302
  41   2.0000      -0.569452       -15.4956
  42   2.0000      -0.560374       -15.2486
  43   2.0000      -0.552651       -15.0384
  44   2.0000      -0.523531       -14.2460
  45   2.0000      -0.521310       -14.1856
  46   2.0000      -0.517852       -14.0915
  47   2.0000      -0.511613       -13.9217
  48   2.0000      -0.504874       -13.7383
  49   2.0000      -0.498126       -13.5547
  50   2.0000      -0.493315       -13.4238
  51   2.0000      -0.474974       -12.9247
  52   2.0000      -0.472166       -12.8483
  53   2.0000      -0.468147       -12.7389
  54   2.0000      -0.459286       -12.4978
  55   2.0000      -0.450687       -12.2638
  56   2.0000      -0.447777       -12.1846
  57   2.0000      -0.444412       -12.0931
  58   2.0000      -0.429410       -11.6848
  59   2.0000      -0.425574       -11.5805
  60   2.0000      -0.420680       -11.4473
  61   2.0000      -0.418940       -11.3999
  62   2.0000      -0.414755       -11.2860
  63   2.0000      -0.339450        -9.2369
  64   2.0000      -0.334659        -9.1065
  65   2.0000      -0.329041        -8.9537
  66   2.0000      -0.293749        -7.9933
  67   0.0000       0.033255         0.9049
  68   0.0000       0.066763         1.8167
  69   0.0000       0.109698         2.9850
  70   0.0000       0.123967         3.3733
  71   0.0000       0.129703         3.5294

MULLIKEN ATOMIC CHARGES
-----------------------
   0 S :    0.127353
   1 C :   -0.130048
   2 C :   -0.054536
   3 C :    0.018497
   4 C :   -0.171708
   5 H :    0.006065
   6 C :    0.064582
   7 H :    0.011692
   8 H :    0.022268
   9 C :   -0.104762
  10 H :    0.032020
  11 H :    0.031296
  12 C :   -0.034157
  13 H :    0.026245
  14 H :    0.033486
  15 H :    0.048872
  16 S :    0.103730
  17 C :   -0.072209
  18 C :   -0.024415
  19 C :   -0.024297
  20 C :   -0.184481
  21 H :   -0.003795
  22 C :    0.044715
  23 H :    0.034917
  24 H :    0.031577
  25 C :   -0.038364
  26 H :    0.018118
  27 H :    0.024297
  28 C :   -0.071631
  29 H :    0.049528
  30 H :    0.037927
  31 H :    0.043136
  32 H :    0.045651
  33 H :    0.058433
Sum of atomic charges:    0.0000000

LOEWDIN ATOMIC CHARGES
----------------------
   0 S :    0.439656
   1 C :   -0.199056
   2 C :   -0.062590
   3 C :   -0.069371
   4 C :   -0.221020
   5 H :    0.030714
   6 C :   -0.037598
   7 H :    0.023416
   8 H :    0.030951
   9 C :   -0.040463
  10 H :    0.026393
  11 H :    0.024839
  12 C :   -0.070454
  13 H :    0.023921
  14 H :    0.032924
  15 H :    0.030659
  16 S :    0.394327
  17 C :   -0.193420
  18 C :   -0.072459
  19 C :   -0.056844
  20 C :   -0.177709
  21 H :    0.023160
  22 C :   -0.032274
  23 H :    0.035100
  24 H :    0.031289
  25 C :   -0.041202
  26 H :    0.021494
  27 H :    0.026503
  28 C :   -0.068614
  29 H :    0.031743
  30 H :    0.023037
  31 H :    0.035240
  32 H :    0.024950
  33 H :    0.032756

  Mayer bond orders larger than 0.100000
B(  0-S ,  1-C ) :   1.1704 B(  0-S ,  4-C ) :   1.1790 B(  1-C ,  2-C ) :   1.5486
B(  1-C ,  4-C ) :   0.1077 B(  1-C , 32-H ) :   0.9750 B(  2-C ,  3-C ) :   1.2859
B(  2-C ,  6-C ) :   1.0176 B(  3-C ,  4-C ) :   1.5359 B(  3-C ,  5-H ) :   0.9979
B(  4-C , 20-C ) :   1.0050 B(  6-C ,  7-H ) :   0.9391 B(  6-C ,  8-H ) :   0.9478
B(  6-C ,  9-C ) :   1.0586 B(  9-C , 10-H ) :   0.9557 B(  9-C , 11-H ) :   0.9592
B(  9-C , 12-C ) :   1.0721 B( 12-C , 13-H ) :   0.9717 B( 12-C , 14-H ) :   0.9724
B( 12-C , 15-H ) :   0.9759 B( 16-S , 17-C ) :   1.1409 B( 16-S , 20-C ) :   1.1465
B( 17-C , 18-C ) :   1.6070 B( 17-C , 33-H ) :   0.9676 B( 18-C , 19-C ) :   1.2351
B( 18-C , 21-H ) :   0.9903 B( 19-C , 20-C ) :   1.6251 B( 19-C , 22-C ) :   1.0287
B( 22-C , 23-H ) :   0.9377 B( 22-C , 24-H ) :   0.9303 B( 22-C , 25-C ) :   1.0602
B( 25-C , 26-H ) :   0.9520 B( 25-C , 27-H ) :   0.9545 B( 25-C , 28-C ) :   1.0551
B( 28-C , 29-H ) :   0.9779 B( 28-C , 30-H ) :   0.9790 B( 28-C , 31-H ) :   0.9774

Dispersion correction           -0.013826858
FINAL SINGLE POINT ENERGY     -1339.875544621556

DIPOLE MOMENT
-------------
                                X             Y             Z
Electronic contribution:      4.12853     -21.68804     -24.06627
Nuclear contribution   :     -4.32225      22.24489      24.53648
                        -----------------------------------------
Total Dipole Moment    :     -0.19373       0.55685       0.47021
                        -----------------------------------------
Magnitude (a.u.)       :      0.75413
Magnitude (Debye)      :      1.91684

Rotational constants in cm-1:     0.016756     0.008844     0.006190
Rotational constants in MHz :   502.331362   265.123476   185.568342

                             ****ORCA TERMINATED NORMALLY****
TOTAL RUN TIME: 0 days 0 hours 0 minutes 21 seconds 183 msec
