                         Program Version 4.2.1 -  RELEASE  -
|  1> ! wB97X-D3 SP def2-SVP
|  2> %pal
|  3> nprocs 24
|  4> end
|  5>
|  6> * xyz 0 1
|  7> S 	 -89.9883 	 -32.2124 	 -75.5373
|  8> C 	 -88.4053 	 -32.6203 	 -76.0778
|  9> C 	 -87.9774 	 -31.7549 	 -77.1075
| 10> C 	 -89.0207 	 -30.849 	 -77.3958
| 11> C 	 -90.1855 	 -30.9812 	 -76.7594
| 12> H 	 -88.8896 	 -30.134 	 -78.1348
| 13> C 	 -86.608 	 -31.7328 	 -77.7548
| 14> H 	 -86.1324 	 -32.589 	 -77.2585
| 15> H 	 -85.9749 	 -30.8676 	 -77.6137
| 16> C 	 -86.7856 	 -31.9492 	 -79.3131
| 17> H 	 -85.9125 	 -32.5988 	 -79.6399
| 18> H 	 -87.6224 	 -32.5793 	 -79.6272
| 19> C 	 -86.5739 	 -30.6915 	 -80.1328
| 20> H 	 -85.6203 	 -30.147 	 -79.8123
| 21> H 	 -86.4224 	 -30.9656 	 -81.1772
| 22> H 	 -87.4202 	 -29.9337 	 -80.1957
| 23> S 	 -92.0491 	 -29.8638 	 -75.1829
| 24> C 	 -93.4671 	 -29.1252 	 -75.8326
| 25> C 	 -93.3308 	 -28.9531 	 -77.2281
| 26> C 	 -92.1583 	 -29.5649 	 -77.7364
| 27> C 	 -91.4054 	 -30.1803 	 -76.7577
| 28> H 	 -94.1273 	 -28.4812 	 -77.7802
| 29> C 	 -91.8765 	 -29.729 	 -79.1373
| 30> H 	 -90.8679 	 -30.0805 	 -79.3448
| 31> H 	 -91.7446 	 -28.7435 	 -79.6162
| 32> C 	 -92.7246 	 -30.6791 	 -79.9671
| 33> H 	 -93.7294 	 -30.3595 	 -79.8124
| 34> H 	 -92.7472 	 -31.657 	 -79.4862
| 35> C 	 -92.2854 	 -30.7083 	 -81.4701
| 36> H 	 -92.2729 	 -29.691 	 -81.8147
| 37> H 	 -92.9099 	 -31.24 	 -82.2381
| 38> H 	 -91.2596 	 -31.1187 	 -81.5664
| 39> H 	 -87.7412 	 -33.2327 	 -75.4727
| 40> H 	 -94.2689 	 -28.6671 	 -75.1894
| 41> *
| 42>
| 43>                          ****END OF INPUT****

CARTESIAN COORDINATES (ANGSTROEM)
---------------------------------
  S    -89.988300  -32.212400  -75.537300
  C    -88.405300  -32.620300  -76.077800
  C    -87.977400  -31.754900  -77.107500
  C    -89.020700  -30.849000  -77.395800
  C    -90.185500  -30.981200  -76.759400
  H    -88.889600  -30.134000  -78.134800
  C    -86.608000  -31.732800  -77.754800
  H    -86.132400  -32.589000  -77.258500
  H    -85.974900  -30.867600  -77.613700
  C    -86.785600  -31.949200  -79.313100
  H    -85.912500  -32.598800  -79.639900
  H    -87.622400  -32.579300  -79.627200
  C    -86.573900  -30.691500  -80.132800
  H    -85.620300  -30.147000  -79.812300
  H    -86.422400  -30.965600  -81.177200
  H    -87.420200  -29.933700  -80.195700
  S    -92.049100  -29.863800  -75.182900
  C    -93.467100  -29.125200  -75.832600
  C    -93.330800  -28.953100  -77.228100
  C    -92.158300  -29.564900  -77.736400
  C    -91.405400  -30.180300  -76.757700
  H    -94.127300  -28.481200  -77.780200
  C    -91.876500  -29.729000  -79.137300
  H    -90.867900  -30.080500  -79.344800
  H    -91.744600  -28.743500  -79.616200
  C    -92.724600  -30.679100  -79.967100
  H    -93.729400  -30.359500  -79.812400
  H    -92.747200  -31.657000  -79.486200
  C    -92.285400  -30.708300  -81.470100
  H    -92.272900  -29.691000  -81.814700
  H    -92.909900  -31.240000  -82.238100
  H    -91.259600  -31.118700  -81.566400
  H    -87.741200  -33.232700  -75.472700
  H    -94.268900  -28.667100  -75.189400

 Total Charge           Charge          ....    0
 Multiplicity           Mult            ....    1
 Number of Electrons    NEL             ....  134
 Basis Dimension        Dim             ....  322

ORBITAL ENERGIES
----------------

  NO   OCC          E(Eh)            E(eV)
   0   2.0000     -88.965548     -2420.8756
   1   2.0000     -88.961643     -2420.7694
   2   2.0000     -10.324733      -280.9503
   3   2.0000     -10.323933      -280.9285
   4   2.0000     -10.322088      -280.8783
   5   2.0000     -10.312891      -280.6280
   6   2.0000     -10.300533      -280.2918
   7   2.0000     -10.298385      -280.2333
   8   2.0000     -10.298178      -280.2277
   9   2.0000     -10.296819      -280.1907
  10   2.0000     -10.295492      -280.1546
  11   2.0000     -10.291487      -280.0456
  12   2.0000     -10.285240      -279.8756
  13   2.0000     -10.283650      -279.8324
  14   2.0000     -10.282192      -279.7927
  15   2.0000     -10.279679      -279.7243
  16   2.0000      -8.081060      -219.8968
  17   2.0000      -8.077146      -219.7903
  18   2.0000      -6.039393      -164.3402
  19   2.0000      -6.035543      -164.2355
  20   2.0000      -6.035324      -164.2295
  21   2.0000      -6.032084      -164.1414
  22   2.0000      -6.031511      -164.1258
  23   2.0000      -6.028002      -164.0303
  24   2.0000      -1.015336       -27.6287
  25   2.0000      -0.990273       -26.9467
  26   2.0000      -0.916157       -24.9299
  27   2.0000      -0.909415       -24.7464
  28   2.0000      -0.869563       -23.6620
  29   2.0000      -0.854276       -23.2460
  30   2.0000      -0.845701       -23.0127
  31   2.0000      -0.818719       -22.2785
  32   2.0000      -0.781615       -21.2688
  33   2.0000      -0.768696       -20.9173
  34   2.0000      -0.711104       -19.3501
  35   2.0000      -0.699264       -19.0279
  36   2.0000      -0.692684       -18.8489
  37   2.0000      -0.665320       -18.1043
  38   2.0000      -0.644643       -17.5416
  39   2.0000      -0.631555       -17.1855
  40   2.0000      -0.605760       -16.4836
  41   2.0000      -0.575322       -15.6553
  42   2.0000      -0.559235       -15.2175
  43   2.0000      -0.543574       -14.7914
  44   2.0000      -0.534395       -14.5416
  45   2.0000      -0.520985       -14.1767
  46   2.0000      -0.515250       -14.0207
  47   2.0000      -0.512235       -13.9386
  48   2.0000      -0.502677       -13.6785
  49   2.0000      -0.500483       -13.6188
  50   2.0000      -0.488608       -13.2957
  51   2.0000      -0.487977       -13.2785
  52   2.0000      -0.471874       -12.8403
  53   2.0000      -0.462427       -12.5833
  54   2.0000      -0.460786       -12.5386
  55   2.0000      -0.453724       -12.3465
  56   2.0000      -0.447233       -12.1698
  57   2.0000      -0.439124       -11.9492
  58   2.0000      -0.435416       -11.8483
  59   2.0000      -0.432511       -11.7692
  60   2.0000      -0.421642       -11.4735
  61   2.0000      -0.407193       -11.0803
  62   2.0000      -0.401856       -10.9351
  63   2.0000      -0.353957        -9.6317
  64   2.0000      -0.332589        -9.0502
  65   2.0000      -0.326847        -8.8940
  66   2.0000      -0.287846        -7.8327
  67   0.0000       0.027488         0.7480
  68   0.0000       0.075001         2.0409
  69   0.0000       0.109309         2.9744
  70   0.0000       0.121971         3.3190
  71   0.0000       0.130741         3.5577

MULLIKEN ATOMIC CHARGES
-----------------------
   0 S :    0.096447
   1 C :   -0.123614
   2 C :   -0.114320
   3 C :    0.057326
   4 C :   -0.112934
   5 H :   -0.034680
   6 C :    0.103807
   7 H :    0.020053
   8 H :    0.038912
   9 C :   -0.103115
  10 H :    0.032876
  11 H :    0.044903
  12 C :   -0.090511
  13 H :    0.042425
  14 H :    0.034342
  15 H :    0.045064
  16 S :    0.109891
  17 C :   -0.119621
  18 C :   -0.043676
  19 C :   -0.000798
  20 C :   -0.138599
  21 H :    0.020283
  22 C :    0.030522
  23 H :   -0.010257
  24 H :    0.018794
  25 C :   -0.021838
  26 H :    0.007272
  27 H :    0.029894
  28 C :   -0.063200
  29 H :    0.023160
  30 H :    0.046225
  31 H :    0.039301
  32 H :    0.054623
  33 H :    0.081043
Sum of atomic charges:   -0.0000000

LOEWDIN ATOMIC CHARGES
----------------------
   0 S :    0.413843
   1 C :   -0.210544
   2 C :   -0.060566
   3 C :   -0.062019
   4 C :   -0.191002
   5 H :    0.015505
   6 C :   -0.026114
   7 H :    0.033737
   8 H :    0.031903
   9 C :   -0.050041
  10 H :    0.033949
  11 H :    0.029008
  12 C :   -0.079760
  13 H :    0.032984
  14 H :    0.026903
  15 H :    0.024973
  16 S :    0.427532
  17 C :   -0.203156
  18 C :   -0.066503
  19 C :   -0.064897
  20 C :   -0.193797
  21 H :    0.031284
  22 C :   -0.045390
  23 H :    0.026595
  24 H :    0.033798
  25 C :   -0.033114
  26 H :    0.014983
  27 H :    0.027503
  28 C :   -0.069906
  29 H :    0.021837
  30 H :    0.033503
  31 H :    0.028934
  32 H :    0.027039
  33 H :    0.040994

  Mayer bond orders larger than 0.100000
B(  0-S ,  1-C ) :   1.1617 B(  0-S ,  4-C ) :   1.1416 B(  1-C ,  2-C ) :   1.5810
B(  1-C , 32-H ) :   0.9615 B(  2-C ,  3-C ) :   1.2654 B(  2-C ,  6-C ) :   1.0307
B(  3-C ,  4-C ) :   1.5753 B(  3-C ,  5-H ) :   1.0044 B(  4-C , 20-C ) :   1.0308
B(  6-C ,  7-H ) :   0.9376 B(  6-C ,  8-H ) :   0.9447 B(  6-C ,  9-C ) :   1.0422
B(  9-C , 10-H ) :   0.9551 B(  9-C , 11-H ) :   0.9627 B(  9-C , 12-C ) :   1.0716
B( 12-C , 13-H ) :   0.9715 B( 12-C , 14-H ) :   0.9707 B( 12-C , 15-H ) :   0.9733
B( 16-S , 17-C ) :   1.1727 B( 16-S , 20-C ) :   1.1600 B( 17-C , 18-C ) :   1.5677
B( 17-C , 20-C ) :   0.1041 B( 17-C , 33-H ) :   0.9630 B( 18-C , 19-C ) :   1.2484
B( 18-C , 21-H ) :   0.9977 B( 19-C , 20-C ) :   1.5705 B( 19-C , 22-C ) :   1.0840
B( 22-C , 23-H ) :   0.9236 B( 22-C , 24-H ) :   0.9133 B( 22-C , 25-C ) :   1.0522
B( 25-C , 26-H ) :   0.9562 B( 25-C , 27-H ) :   0.9529 B( 25-C , 28-C ) :   1.0618
B( 28-C , 29-H ) :   0.9752 B( 28-C , 30-H ) :   0.9765 B( 28-C , 31-H ) :   0.9766

Dispersion correction           -0.014128795
FINAL SINGLE POINT ENERGY     -1339.871727474422

DIPOLE MOMENT
-------------
                                X             Y             Z
Electronic contribution:    -10.19127      -0.63161      29.38420
Nuclear contribution   :     10.48706       0.82632     -29.94580
                        -----------------------------------------
Total Dipole Moment    :      0.29579       0.19471      -0.56159
                        -----------------------------------------
Magnitude (a.u.)       :      0.66392
Magnitude (Debye)      :      1.68754

Rotational constants in cm-1:     0.016576     0.010154     0.006987
Rotational constants in MHz :   496.926248   304.403272   209.459831

                             ****ORCA TERMINATED NORMALLY****
TOTAL RUN TIME: 0 days 0 hours 0 minutes 20 seconds 815 msec
