                         Program Version 4.2.1 -  RELEASE  -
|  1> ! wB97X-D3 SP def2-SVP
|  2> %pal
|  3> nprocs 24
|  4> end
|  5>
|  6> * xyz 0 1
|  7> S 	 -103.49 	 -0.915016 	 -105.429
|  8> C 	 -102.816 	 0.205149 	 -104.292
|  9> C 	 -103.692 	 1.27271 	 -104.072
| 10> C 	 -104.606 	 1.41848 	 -105.128
| 11> C 	 -104.642 	 0.316608 	 -105.964
| 12> H 	 -105.341 	 2.20454 	 -105.339
| 13> C 	 -103.529 	 2.42806 	 -102.924
| 14> H 	 -102.848 	 3.21533 	 -103.372
| 15> H 	 -102.922 	 1.97794 	 -102.161
| 16> C 	 -104.797 	 3.01713 	 -102.32
| 17> H 	 -104.577 	 3.90206 	 -101.717
| 18> H 	 -105.532 	 3.25105 	 -103.114
| 19> C 	 -105.469 	 1.99622 	 -101.451
| 20> H 	 -106.453 	 2.2775 	 -101.084
| 21> H 	 -105.768 	 1.10863 	 -102.027
| 22> H 	 -104.767 	 1.89865 	 -100.625
| 23> S 	 -104.743 	 -0.373341 	 -108.605
| 24> C 	 -106.258 	 -0.369603 	 -109.453
| 25> C 	 -107.266 	 0.163227 	 -108.678
| 26> C 	 -106.918 	 0.316754 	 -107.325
| 27> C 	 -105.553 	 0.142986 	 -107.134
| 28> H 	 -108.259 	 0.343951 	 -109.124
| 29> C 	 -107.938 	 0.558472 	 -106.196
| 30> H 	 -107.652 	 -0.0178094 	 -105.306
| 31> H 	 -108.9 	 0.150474 	 -106.569
| 32> C 	 -108.134 	 1.99558 	 -105.77
| 33> H 	 -108.732 	 2.4936 	 -106.572
| 34> H 	 -107.169 	 2.44942 	 -105.839
| 35> C 	 -108.82 	 2.25316 	 -104.444
| 36> H 	 -108.376 	 1.61195 	 -103.705
| 37> H 	 -109.888 	 2.03562 	 -104.528
| 38> H 	 -108.568 	 3.25126 	 -104.03
| 39> H 	 -101.957 	 0.00789239 	 -103.688
| 40> H 	 -106.338 	 -0.617712 	 -110.481
| 41> *
| 42>
| 43>                          ****END OF INPUT****

CARTESIAN COORDINATES (ANGSTROEM)
---------------------------------
  S    -103.490000   -0.915016  -105.429000
  C    -102.816000    0.205149  -104.292000
  C    -103.692000    1.272710  -104.072000
  C    -104.606000    1.418480  -105.128000
  C    -104.642000    0.316608  -105.964000
  H    -105.341000    2.204540  -105.339000
  C    -103.529000    2.428060  -102.924000
  H    -102.848000    3.215330  -103.372000
  H    -102.922000    1.977940  -102.161000
  C    -104.797000    3.017130  -102.320000
  H    -104.577000    3.902060  -101.717000
  H    -105.532000    3.251050  -103.114000
  C    -105.469000    1.996220  -101.451000
  H    -106.453000    2.277500  -101.084000
  H    -105.768000    1.108630  -102.027000
  H    -104.767000    1.898650  -100.625000
  S    -104.743000   -0.373341  -108.605000
  C    -106.258000   -0.369603  -109.453000
  C    -107.266000    0.163227  -108.678000
  C    -106.918000    0.316754  -107.325000
  C    -105.553000    0.142986  -107.134000
  H    -108.259000    0.343951  -109.124000
  C    -107.938000    0.558472  -106.196000
  H    -107.652000   -0.017809  -105.306000
  H    -108.900000    0.150474  -106.569000
  C    -108.134000    1.995580  -105.770000
  H    -108.732000    2.493600  -106.572000
  H    -107.169000    2.449420  -105.839000
  C    -108.820000    2.253160  -104.444000
  H    -108.376000    1.611950  -103.705000
  H    -109.888000    2.035620  -104.528000
  H    -108.568000    3.251260  -104.030000
  H    -101.957000    0.007892  -103.688000
  H    -106.338000   -0.617712  -110.481000

 Total Charge           Charge          ....    0
 Multiplicity           Mult            ....    1
 Number of Electrons    NEL             ....  134
 Basis Dimension        Dim             ....  322

ORBITAL ENERGIES
----------------

  NO   OCC          E(Eh)            E(eV)
   0   2.0000     -88.968599     -2420.9587
   1   2.0000     -88.964295     -2420.8415
   2   2.0000     -10.330256      -281.1006
   3   2.0000     -10.327917      -281.0369
   4   2.0000     -10.314190      -280.6634
   5   2.0000     -10.313748      -280.6514
   6   2.0000     -10.308833      -280.5176
   7   2.0000     -10.304692      -280.4049
   8   2.0000     -10.302325      -280.3405
   9   2.0000     -10.294987      -280.1408
  10   2.0000     -10.294687      -280.1327
  11   2.0000     -10.293736      -280.1068
  12   2.0000     -10.289348      -279.9874
  13   2.0000     -10.283788      -279.8361
  14   2.0000     -10.281747      -279.7805
  15   2.0000     -10.274682      -279.5883
  16   2.0000      -8.083111      -219.9526
  17   2.0000      -8.079369      -219.8508
  18   2.0000      -6.041506      -164.3977
  19   2.0000      -6.037802      -164.2969
  20   2.0000      -6.037677      -164.2935
  21   2.0000      -6.033858      -164.1896
  22   2.0000      -6.033843      -164.1892
  23   2.0000      -6.030282      -164.0923
  24   2.0000      -1.006715       -27.3941
  25   2.0000      -0.986637       -26.8478
  26   2.0000      -0.913431       -24.8557
  27   2.0000      -0.911256       -24.7965
  28   2.0000      -0.865801       -23.5596
  29   2.0000      -0.855194       -23.2710
  30   2.0000      -0.847242       -23.0546
  31   2.0000      -0.811890       -22.0927
  32   2.0000      -0.783849       -21.3296
  33   2.0000      -0.772963       -21.0334
  34   2.0000      -0.703245       -19.1363
  35   2.0000      -0.695451       -18.9242
  36   2.0000      -0.688325       -18.7303
  37   2.0000      -0.662288       -18.0218
  38   2.0000      -0.643125       -17.5003
  39   2.0000      -0.620103       -16.8739
  40   2.0000      -0.598949       -16.2982
  41   2.0000      -0.572914       -15.5898
  42   2.0000      -0.569361       -15.4931
  43   2.0000      -0.550778       -14.9874
  44   2.0000      -0.547268       -14.8919
  45   2.0000      -0.523148       -14.2356
  46   2.0000      -0.516495       -14.0546
  47   2.0000      -0.514183       -13.9916
  48   2.0000      -0.505864       -13.7653
  49   2.0000      -0.492989       -13.4149
  50   2.0000      -0.487512       -13.2659
  51   2.0000      -0.485866       -13.2211
  52   2.0000      -0.471949       -12.8424
  53   2.0000      -0.467362       -12.7176
  54   2.0000      -0.459058       -12.4916
  55   2.0000      -0.450638       -12.2625
  56   2.0000      -0.441597       -12.0165
  57   2.0000      -0.435786       -11.8583
  58   2.0000      -0.433146       -11.7865
  59   2.0000      -0.425884       -11.5889
  60   2.0000      -0.419958       -11.4276
  61   2.0000      -0.417112       -11.3502
  62   2.0000      -0.414259       -11.2726
  63   2.0000      -0.343600        -9.3498
  64   2.0000      -0.333192        -9.0666
  65   2.0000      -0.329460        -8.9651
  66   2.0000      -0.292877        -7.9696
  67   0.0000       0.026074         0.7095
  68   0.0000       0.071120         1.9353
  69   0.0000       0.107633         2.9288
  70   0.0000       0.115730         3.1492
  71   0.0000       0.120189         3.2705

MULLIKEN ATOMIC CHARGES
-----------------------
   0 S :    0.125237
   1 C :   -0.116666
   2 C :   -0.090738
   3 C :    0.024644
   4 C :   -0.142294
   5 H :    0.011052
   6 C :    0.046456
   7 H :    0.055193
   8 H :    0.008459
   9 C :   -0.064612
  10 H :    0.038654
  11 H :    0.026563
  12 C :   -0.055148
  13 H :    0.022971
  14 H :    0.042584
  15 H :    0.031260
  16 S :    0.109292
  17 C :   -0.083721
  18 C :   -0.047621
  19 C :   -0.032894
  20 C :   -0.185493
  21 H :    0.027688
  22 C :    0.070998
  23 H :    0.032127
  24 H :    0.022623
  25 C :   -0.074224
  26 H :    0.023535
  27 H :    0.004364
  28 C :   -0.021779
  29 H :    0.014998
  30 H :    0.044427
  31 H :    0.040406
  32 H :    0.043756
  33 H :    0.047904
Sum of atomic charges:   -0.0000000

LOEWDIN ATOMIC CHARGES
----------------------
   0 S :    0.407308
   1 C :   -0.198734
   2 C :   -0.059867
   3 C :   -0.069600
   4 C :   -0.192928
   5 H :    0.032524
   6 C :   -0.028607
   7 H :    0.039051
   8 H :    0.020513
   9 C :   -0.046840
  10 H :    0.029701
  11 H :    0.023189
  12 C :   -0.066253
  13 H :    0.021968
  14 H :    0.029923
  15 H :    0.025735
  16 S :    0.412746
  17 C :   -0.182437
  18 C :   -0.073892
  19 C :   -0.058473
  20 C :   -0.194824
  21 H :    0.036270
  22 C :   -0.027574
  23 H :    0.032433
  24 H :    0.031216
  25 C :   -0.047683
  26 H :    0.027004
  27 H :    0.012805
  28 C :   -0.064459
  29 H :    0.020285
  30 H :    0.030395
  31 H :    0.033914
  32 H :    0.023268
  33 H :    0.021921

  Mayer bond orders larger than 0.100000
B(  0-S ,  1-C ) :   1.1501 B(  0-S ,  4-C ) :   1.1545 B(  1-C ,  2-C ) :   1.5963
B(  1-C ,  4-C ) :   0.1033 B(  1-C , 32-H ) :   0.9711 B(  2-C ,  3-C ) :   1.2371
B(  2-C ,  6-C ) :   0.9966 B(  3-C ,  4-C ) :   1.5794 B(  3-C ,  5-H ) :   0.9880
B(  4-C , 20-C ) :   1.0249 B(  6-C ,  7-H ) :   0.9476 B(  6-C ,  8-H ) :   0.9451
B(  6-C ,  9-C ) :   1.0686 B(  9-C , 10-H ) :   0.9547 B(  9-C , 11-H ) :   0.9532
B(  9-C , 12-C ) :   1.0797 B( 12-C , 13-H ) :   0.9716 B( 12-C , 14-H ) :   0.9732
B( 12-C , 15-H ) :   0.9760 B( 16-S , 17-C ) :   1.1631 B( 16-S , 20-C ) :   1.1571
B( 17-C , 18-C ) :   1.5994 B( 17-C , 20-C ) :   0.1035 B( 17-C , 33-H ) :   0.9728
B( 18-C , 19-C ) :   1.2568 B( 18-C , 21-H ) :   0.9835 B( 19-C , 20-C ) :   1.5858
B( 19-C , 22-C ) :   1.0367 B( 22-C , 23-H ) :   0.9358 B( 22-C , 24-H ) :   0.9343
B( 22-C , 25-C ) :   1.0633 B( 25-C , 26-H ) :   0.9424 B( 25-C , 27-H ) :   0.9574
B( 25-C , 28-C ) :   1.0858 B( 28-C , 29-H ) :   0.9714 B( 28-C , 30-H ) :   0.9731
B( 28-C , 31-H ) :   0.9707

Dispersion correction           -0.015560731
FINAL SINGLE POINT ENERGY     -1339.873334829979

DIPOLE MOMENT
-------------
                                X             Y             Z
Electronic contribution:     15.96097     -17.18142     -21.96426
Nuclear contribution   :    -16.36412      17.58541      22.29642
                        -----------------------------------------
Total Dipole Moment    :     -0.40315       0.40399       0.33216
                        -----------------------------------------
Magnitude (a.u.)       :      0.66036
Magnitude (Debye)      :      1.67849

Rotational constants in cm-1:     0.018092     0.010386     0.007109
Rotational constants in MHz :   542.381369   311.359047   213.124551

                             ****ORCA TERMINATED NORMALLY****
TOTAL RUN TIME: 0 days 0 hours 0 minutes 22 seconds 847 msec
