                         Program Version 4.2.1 -  RELEASE  -
|  1> ! wB97X-D3 SP def2-SVP
|  2> %pal
|  3> nprocs 24
|  4> end
|  5>
|  6> * xyz 0 1
|  7> S 	 -64.9768 	 11.5097 	 -77.526
|  8> C 	 -63.5504 	 10.4644 	 -77.1431
|  9> C 	 -63.6956 	 9.1096 	 -77.5336
| 10> C 	 -64.9792 	 8.95611 	 -78.1624
| 11> C 	 -65.769 	 10.0851 	 -78.2818
| 12> H 	 -65.4353 	 8.11998 	 -78.593
| 13> C 	 -62.9228 	 7.87848 	 -77.1812
| 14> H 	 -63.6047 	 7.23271 	 -76.698
| 15> H 	 -62.1809 	 8.17311 	 -76.4095
| 16> C 	 -62.2534 	 7.10334 	 -78.3249
| 17> H 	 -61.7367 	 6.27779 	 -77.9813
| 18> H 	 -62.9667 	 6.73172 	 -79.0292
| 19> C 	 -61.0675 	 7.89971 	 -78.9241
| 20> H 	 -61.498 	 8.76483 	 -79.3559
| 21> H 	 -60.3036 	 8.1387 	 -78.1274
| 22> H 	 -60.4685 	 7.30594 	 -79.6023
| 23> S 	 -68.2155 	 11.0435 	 -77.7942
| 24> C 	 -69.3887 	 10.9388 	 -79.0259
| 25> C 	 -69.0075 	 10.1573 	 -80.107
| 26> C 	 -67.6607 	 9.71707 	 -79.9374
| 27> C 	 -67.0978 	 10.1342 	 -78.7682
| 28> H 	 -69.6448 	 9.9409 	 -80.9366
| 29> C 	 -66.9829 	 8.94059 	 -81.0582
| 30> H 	 -65.9728 	 9.12117 	 -81.0255
| 31> H 	 -67.3268 	 9.40352 	 -81.9461
| 32> C 	 -67.3789 	 7.50721 	 -81.0886
| 33> H 	 -68.3903 	 7.46686 	 -81.3285
| 34> H 	 -67.2321 	 7.00056 	 -80.1375
| 35> C 	 -66.4597 	 6.76168 	 -82.0005
| 36> H 	 -65.5176 	 6.55726 	 -81.4823
| 37> H 	 -66.2345 	 7.37305 	 -82.9038
| 38> H 	 -66.9317 	 5.86933 	 -82.4763
| 39> H 	 -62.6567 	 10.8057 	 -76.5988
| 40> H 	 -70.3882 	 11.2941 	 -78.8226
| 41> *
| 42>
| 43>                          ****END OF INPUT****

CARTESIAN COORDINATES (ANGSTROEM)
---------------------------------
  S    -64.976800   11.509700  -77.526000
  C    -63.550400   10.464400  -77.143100
  C    -63.695600    9.109600  -77.533600
  C    -64.979200    8.956110  -78.162400
  C    -65.769000   10.085100  -78.281800
  H    -65.435300    8.119980  -78.593000
  C    -62.922800    7.878480  -77.181200
  H    -63.604700    7.232710  -76.698000
  H    -62.180900    8.173110  -76.409500
  C    -62.253400    7.103340  -78.324900
  H    -61.736700    6.277790  -77.981300
  H    -62.966700    6.731720  -79.029200
  C    -61.067500    7.899710  -78.924100
  H    -61.498000    8.764830  -79.355900
  H    -60.303600    8.138700  -78.127400
  H    -60.468500    7.305940  -79.602300
  S    -68.215500   11.043500  -77.794200
  C    -69.388700   10.938800  -79.025900
  C    -69.007500   10.157300  -80.107000
  C    -67.660700    9.717070  -79.937400
  C    -67.097800   10.134200  -78.768200
  H    -69.644800    9.940900  -80.936600
  C    -66.982900    8.940590  -81.058200
  H    -65.972800    9.121170  -81.025500
  H    -67.326800    9.403520  -81.946100
  C    -67.378900    7.507210  -81.088600
  H    -68.390300    7.466860  -81.328500
  H    -67.232100    7.000560  -80.137500
  C    -66.459700    6.761680  -82.000500
  H    -65.517600    6.557260  -81.482300
  H    -66.234500    7.373050  -82.903800
  H    -66.931700    5.869330  -82.476300
  H    -62.656700   10.805700  -76.598800
  H    -70.388200   11.294100  -78.822600

 Total Charge           Charge          ....    0
 Multiplicity           Mult            ....    1
 Number of Electrons    NEL             ....  134
 Basis Dimension        Dim             ....  322

ORBITAL ENERGIES
----------------

  NO   OCC          E(Eh)            E(eV)
   0   2.0000     -88.968572     -2420.9579
   1   2.0000     -88.963508     -2420.8201
   2   2.0000     -10.326553      -280.9998
   3   2.0000     -10.323867      -280.9267
   4   2.0000     -10.317140      -280.7437
   5   2.0000     -10.314351      -280.6678
   6   2.0000     -10.307436      -280.4796
   7   2.0000     -10.298096      -280.2255
   8   2.0000     -10.292952      -280.0855
   9   2.0000     -10.292783      -280.0809
  10   2.0000     -10.287480      -279.9365
  11   2.0000     -10.280547      -279.7479
  12   2.0000     -10.280303      -279.7413
  13   2.0000     -10.277572      -279.6670
  14   2.0000     -10.275923      -279.6221
  15   2.0000     -10.275693      -279.6158
  16   2.0000      -8.081445      -219.9073
  17   2.0000      -8.079744      -219.8610
  18   2.0000      -6.040179      -164.3616
  19   2.0000      -6.038055      -164.3038
  20   2.0000      -6.036343      -164.2572
  21   2.0000      -6.034024      -164.1941
  22   2.0000      -6.031943      -164.1375
  23   2.0000      -6.030645      -164.1022
  24   2.0000      -1.011542       -27.5254
  25   2.0000      -0.976440       -26.5703
  26   2.0000      -0.926461       -25.2103
  27   2.0000      -0.914732       -24.8911
  28   2.0000      -0.870782       -23.6952
  29   2.0000      -0.859301       -23.3828
  30   2.0000      -0.845231       -22.9999
  31   2.0000      -0.810898       -22.0656
  32   2.0000      -0.784979       -21.3604
  33   2.0000      -0.773506       -21.0482
  34   2.0000      -0.709664       -19.3109
  35   2.0000      -0.704460       -19.1693
  36   2.0000      -0.696861       -18.9626
  37   2.0000      -0.670886       -18.2557
  38   2.0000      -0.640849       -17.4384
  39   2.0000      -0.617707       -16.8087
  40   2.0000      -0.602218       -16.3872
  41   2.0000      -0.582699       -15.8561
  42   2.0000      -0.570252       -15.5173
  43   2.0000      -0.552004       -15.0208
  44   2.0000      -0.548782       -14.9331
  45   2.0000      -0.529974       -14.4213
  46   2.0000      -0.520103       -14.1527
  47   2.0000      -0.513851       -13.9826
  48   2.0000      -0.503430       -13.6990
  49   2.0000      -0.493743       -13.4354
  50   2.0000      -0.489017       -13.3068
  51   2.0000      -0.482082       -13.1181
  52   2.0000      -0.475146       -12.9294
  53   2.0000      -0.463499       -12.6124
  54   2.0000      -0.460370       -12.5273
  55   2.0000      -0.453305       -12.3350
  56   2.0000      -0.442722       -12.0471
  57   2.0000      -0.435962       -11.8631
  58   2.0000      -0.433670       -11.8008
  59   2.0000      -0.432597       -11.7716
  60   2.0000      -0.424009       -11.5379
  61   2.0000      -0.416293       -11.3279
  62   2.0000      -0.413547       -11.2532
  63   2.0000      -0.349303        -9.5050
  64   2.0000      -0.334523        -9.1028
  65   2.0000      -0.329247        -8.9593
  66   2.0000      -0.286080        -7.7846
  67   0.0000       0.028886         0.7860
  68   0.0000       0.067229         1.8294
  69   0.0000       0.106953         2.9103
  70   0.0000       0.119702         3.2573
  71   0.0000       0.121412         3.3038

MULLIKEN ATOMIC CHARGES
-----------------------
   0 S :    0.103701
   1 C :   -0.133855
   2 C :   -0.056933
   3 C :    0.030759
   4 C :   -0.143861
   5 H :   -0.026981
   6 C :    0.066940
   7 H :    0.030405
   8 H :    0.018854
   9 C :   -0.030274
  10 H :    0.009483
  11 H :    0.025447
  12 C :   -0.064229
  13 H :    0.041083
  14 H :    0.028828
  15 H :    0.029766
  16 S :    0.110825
  17 C :   -0.087955
  18 C :   -0.025173
  19 C :   -0.061132
  20 C :   -0.167741
  21 H :    0.012054
  22 C :    0.121626
  23 H :   -0.000077
  24 H :    0.006508
  25 C :   -0.032343
  26 H :    0.007076
  27 H :    0.029062
  28 C :   -0.049512
  29 H :    0.040067
  30 H :    0.020636
  31 H :    0.036451
  32 H :    0.055166
  33 H :    0.055328
Sum of atomic charges:   -0.0000000

LOEWDIN ATOMIC CHARGES
----------------------
   0 S :    0.360805
   1 C :   -0.184931
   2 C :   -0.058783
   3 C :   -0.057800
   4 C :   -0.176276
   5 H :    0.018560
   6 C :   -0.026902
   7 H :    0.031529
   8 H :    0.033639
   9 C :   -0.032758
  10 H :    0.016833
  11 H :    0.020099
  12 C :   -0.059923
  13 H :    0.019207
  14 H :    0.030780
  15 H :    0.022654
  16 S :    0.427022
  17 C :   -0.189136
  18 C :   -0.069286
  19 C :   -0.046264
  20 C :   -0.208811
  21 H :    0.028750
  22 C :   -0.017666
  23 H :    0.016778
  24 H :    0.028686
  25 C :   -0.037317
  26 H :    0.015685
  27 H :    0.024720
  28 C :   -0.065322
  29 H :    0.027413
  30 H :    0.024028
  31 H :    0.029999
  32 H :    0.030090
  33 H :    0.023897

  Mayer bond orders larger than 0.100000
B(  0-S ,  1-C ) :   1.1214 B(  0-S ,  4-C ) :   1.1062 B(  1-C ,  2-C ) :   1.6223
B(  1-C , 32-H ) :   0.9596 B(  2-C ,  3-C ) :   1.1895 B(  2-C ,  6-C ) :   1.0254
B(  3-C ,  4-C ) :   1.6152 B(  3-C ,  5-H ) :   0.9961 B(  4-C , 20-C ) :   1.0791
B(  6-C ,  7-H ) :   0.9402 B(  6-C ,  8-H ) :   0.9384 B(  6-C ,  9-C ) :   1.0803
B(  9-C , 10-H ) :   0.9519 B(  9-C , 11-H ) :   0.9569 B(  9-C , 12-C ) :   1.0661
B( 12-C , 13-H ) :   0.9821 B( 12-C , 14-H ) :   0.9734 B( 12-C , 15-H ) :   0.9762
B( 16-S , 17-C ) :   1.1780 B( 16-S , 20-C ) :   1.1294 B( 17-C , 18-C ) :   1.5826
B( 17-C , 33-H ) :   0.9672 B( 18-C , 19-C ) :   1.2452 B( 18-C , 21-H ) :   0.9974
B( 19-C , 20-C ) :   1.6068 B( 19-C , 22-C ) :   1.0363 B( 22-C , 23-H ) :   0.9328
B( 22-C , 24-H ) :   0.9161 B( 22-C , 25-C ) :   1.0710 B( 25-C , 26-H ) :   0.9483
B( 25-C , 27-H ) :   0.9565 B( 25-C , 28-C ) :   1.0839 B( 28-C , 29-H ) :   0.9766
B( 28-C , 30-H ) :   0.9683 B( 28-C , 31-H ) :   0.9716

Dispersion correction           -0.014435447
FINAL SINGLE POINT ENERGY     -1339.865426739916

DIPOLE MOMENT
-------------
                                X             Y             Z
Electronic contribution:    -14.88631      23.31058      14.28994
Nuclear contribution   :     14.91533     -23.95738     -14.58133
                        -----------------------------------------
Total Dipole Moment    :      0.02901      -0.64680      -0.29138
                        -----------------------------------------
Magnitude (a.u.)       :      0.71000
Magnitude (Debye)      :      1.80468

Rotational constants in cm-1:     0.017615     0.009861     0.006764
Rotational constants in MHz :   528.073862   295.612166   202.793130

                             ****ORCA TERMINATED NORMALLY****
TOTAL RUN TIME: 0 days 0 hours 0 minutes 20 seconds 990 msec
