                         Program Version 4.2.1 -  RELEASE  -
|  1> ! wB97X-D3 SP def2-SVP
|  2> %pal
|  3> nprocs 24
|  4> end
|  5>
|  6> * xyz 0 1
|  7> S 	 17.1514 	 -13.6678 	 -119.747
|  8> C 	 16.0418 	 -13.2785 	 -121.002
|  9> C 	 15.1433 	 -12.2926 	 -120.647
| 10> C 	 15.2545 	 -11.9224 	 -119.303
| 11> C 	 16.2546 	 -12.6549 	 -118.663
| 12> H 	 14.6598 	 -11.2487 	 -118.706
| 13> C 	 14.2157 	 -11.551 	 -121.534
| 14> H 	 14.7856 	 -11.2561 	 -122.347
| 15> H 	 13.8903 	 -10.6269 	 -121.141
| 16> C 	 13.0906 	 -12.4173 	 -122.086
| 17> H 	 13.5325 	 -13.2805 	 -122.588
| 18> H 	 12.386 	 -12.7907 	 -121.313
| 19> C 	 12.3526 	 -11.5657 	 -123.169
| 20> H 	 11.6122 	 -12.1586 	 -123.652
| 21> H 	 11.8532 	 -10.7784 	 -122.583
| 22> H 	 12.9077 	 -11.1573 	 -124.005
| 23> S 	 17.9786 	 -11.9307 	 -116.664
| 24> C 	 17.6739 	 -12.3147 	 -115.005
| 25> C 	 16.5109 	 -13.0592 	 -114.845
| 26> C 	 15.839 	 -13.3585 	 -116.104
| 27> C 	 16.4977 	 -12.7069 	 -117.193
| 28> H 	 16.1714 	 -13.5606 	 -113.925
| 29> C 	 14.5242 	 -14.0488 	 -116.071
| 30> H 	 14.0002 	 -13.7466 	 -116.89
| 31> H 	 13.972 	 -13.6987 	 -115.255
| 32> C 	 14.5457 	 -15.5658 	 -116.004
| 33> H 	 14.988 	 -15.9429 	 -115.063
| 34> H 	 15.1772 	 -15.8543 	 -116.853
| 35> C 	 13.1306 	 -16.1655 	 -116.104
| 36> H 	 13.1762 	 -17.2316 	 -116.244
| 37> H 	 12.7425 	 -15.8457 	 -117.047
| 38> H 	 12.538 	 -15.8565 	 -115.276
| 39> H 	 16.1124 	 -13.6458 	 -121.957
| 40> H 	 18.31 	 -12.0107 	 -114.241
| 41> *
| 42>
| 43>                          ****END OF INPUT****

CARTESIAN COORDINATES (ANGSTROEM)
---------------------------------
  S     17.151400  -13.667800  -119.747000
  C     16.041800  -13.278500  -121.002000
  C     15.143300  -12.292600  -120.647000
  C     15.254500  -11.922400  -119.303000
  C     16.254600  -12.654900  -118.663000
  H     14.659800  -11.248700  -118.706000
  C     14.215700  -11.551000  -121.534000
  H     14.785600  -11.256100  -122.347000
  H     13.890300  -10.626900  -121.141000
  C     13.090600  -12.417300  -122.086000
  H     13.532500  -13.280500  -122.588000
  H     12.386000  -12.790700  -121.313000
  C     12.352600  -11.565700  -123.169000
  H     11.612200  -12.158600  -123.652000
  H     11.853200  -10.778400  -122.583000
  H     12.907700  -11.157300  -124.005000
  S     17.978600  -11.930700  -116.664000
  C     17.673900  -12.314700  -115.005000
  C     16.510900  -13.059200  -114.845000
  C     15.839000  -13.358500  -116.104000
  C     16.497700  -12.706900  -117.193000
  H     16.171400  -13.560600  -113.925000
  C     14.524200  -14.048800  -116.071000
  H     14.000200  -13.746600  -116.890000
  H     13.972000  -13.698700  -115.255000
  C     14.545700  -15.565800  -116.004000
  H     14.988000  -15.942900  -115.063000
  H     15.177200  -15.854300  -116.853000
  C     13.130600  -16.165500  -116.104000
  H     13.176200  -17.231600  -116.244000
  H     12.742500  -15.845700  -117.047000
  H     12.538000  -15.856500  -115.276000
  H     16.112400  -13.645800  -121.957000
  H     18.310000  -12.010700  -114.241000

 Total Charge           Charge          ....    0
 Multiplicity           Mult            ....    1
 Number of Electrons    NEL             ....  134
 Basis Dimension        Dim             ....  322

ORBITAL ENERGIES
----------------

  NO   OCC          E(Eh)            E(eV)
   0   2.0000     -88.968348     -2420.9518
   1   2.0000     -88.962550     -2420.7940
   2   2.0000     -10.328489      -281.0525
   3   2.0000     -10.325734      -280.9775
   4   2.0000     -10.312282      -280.6114
   5   2.0000     -10.305133      -280.4169
   6   2.0000     -10.303845      -280.3819
   7   2.0000     -10.294995      -280.1411
   8   2.0000     -10.293232      -280.0931
   9   2.0000     -10.290292      -280.0131
  10   2.0000     -10.289767      -279.9988
  11   2.0000     -10.282668      -279.8056
  12   2.0000     -10.277241      -279.6579
  13   2.0000     -10.276576      -279.6398
  14   2.0000     -10.272605      -279.5318
  15   2.0000     -10.270650      -279.4786
  16   2.0000      -8.083731      -219.9695
  17   2.0000      -8.077679      -219.8048
  18   2.0000      -6.042043      -164.4124
  19   2.0000      -6.038115      -164.3055
  20   2.0000      -6.036100      -164.2506
  21   2.0000      -6.034704      -164.2126
  22   2.0000      -6.032022      -164.1397
  23   2.0000      -6.028648      -164.0478
  24   2.0000      -1.006521       -27.3888
  25   2.0000      -0.982760       -26.7423
  26   2.0000      -0.918086       -24.9824
  27   2.0000      -0.914560       -24.8864
  28   2.0000      -0.862266       -23.4635
  29   2.0000      -0.854274       -23.2460
  30   2.0000      -0.849612       -23.1191
  31   2.0000      -0.811542       -22.0832
  32   2.0000      -0.784257       -21.3407
  33   2.0000      -0.771158       -20.9843
  34   2.0000      -0.707667       -19.2566
  35   2.0000      -0.701239       -19.0817
  36   2.0000      -0.691817       -18.8253
  37   2.0000      -0.659749       -17.9527
  38   2.0000      -0.650916       -17.7123
  39   2.0000      -0.618845       -16.8396
  40   2.0000      -0.601193       -16.3593
  41   2.0000      -0.577124       -15.7043
  42   2.0000      -0.574131       -15.6229
  43   2.0000      -0.556624       -15.1465
  44   2.0000      -0.524724       -14.2785
  45   2.0000      -0.522691       -14.2231
  46   2.0000      -0.515547       -14.0287
  47   2.0000      -0.513000       -13.9594
  48   2.0000      -0.510185       -13.8828
  49   2.0000      -0.500210       -13.6114
  50   2.0000      -0.494993       -13.4694
  51   2.0000      -0.479383       -13.0447
  52   2.0000      -0.478103       -13.0098
  53   2.0000      -0.464667       -12.6442
  54   2.0000      -0.455566       -12.3966
  55   2.0000      -0.448301       -12.1989
  56   2.0000      -0.445500       -12.1227
  57   2.0000      -0.442604       -12.0439
  58   2.0000      -0.430111       -11.7039
  59   2.0000      -0.426563       -11.6074
  60   2.0000      -0.424953       -11.5636
  61   2.0000      -0.419935       -11.4270
  62   2.0000      -0.414207       -11.2711
  63   2.0000      -0.337179        -9.1751
  64   2.0000      -0.327875        -8.9219
  65   2.0000      -0.321177        -8.7397
  66   2.0000      -0.299407        -8.1473
  67   0.0000       0.043863         1.1936
  68   0.0000       0.055568         1.5121
  69   0.0000       0.117881         3.2077
  70   0.0000       0.121384         3.3030
  71   0.0000       0.126467         3.4414

MULLIKEN ATOMIC CHARGES
-----------------------
   0 S :    0.141188
   1 C :   -0.093715
   2 C :   -0.065071
   3 C :    0.043393
   4 C :   -0.176142
   5 H :    0.009932
   6 C :    0.133285
   7 H :    0.002572
   8 H :    0.001652
   9 C :   -0.101194
  10 H :    0.027033
  11 H :    0.041556
  12 C :   -0.040433
  13 H :    0.021255
  14 H :    0.031473
  15 H :    0.034276
  16 S :    0.104706
  17 C :   -0.065631
  18 C :   -0.033797
  19 C :   -0.030824
  20 C :   -0.202365
  21 H :    0.029322
  22 C :    0.134312
  23 H :   -0.017751
  24 H :    0.000261
  25 C :   -0.107460
  26 H :    0.027237
  27 H :    0.032780
  28 C :   -0.003245
  29 H :    0.030765
  30 H :    0.014409
  31 H :    0.032445
  32 H :    0.005804
  33 H :    0.037973
Sum of atomic charges:    0.0000000

LOEWDIN ATOMIC CHARGES
----------------------
   0 S :    0.436043
   1 C :   -0.196594
   2 C :   -0.059140
   3 C :   -0.056235
   4 C :   -0.210057
   5 H :    0.033620
   6 C :   -0.027047
   7 H :    0.026528
   8 H :    0.023806
   9 C :   -0.030927
  10 H :    0.020957
  11 H :    0.028924
  12 C :   -0.066286
  13 H :    0.019371
  14 H :    0.027552
  15 H :    0.024892
  16 S :    0.415411
  17 C :   -0.183187
  18 C :   -0.071990
  19 C :   -0.044244
  20 C :   -0.208859
  21 H :    0.034174
  22 C :   -0.028413
  23 H :    0.018253
  24 H :    0.024053
  25 C :   -0.034073
  26 H :    0.020955
  27 H :    0.026292
  28 C :   -0.057030
  29 H :    0.027071
  30 H :    0.021815
  31 H :    0.021890
  32 H :    0.007019
  33 H :    0.015457

  Mayer bond orders larger than 0.100000
B(  0-S ,  1-C ) :   1.1529 B(  0-S ,  4-C ) :   1.1811 B(  1-C ,  2-C ) :   1.5844
B(  1-C ,  4-C ) :   0.1024 B(  1-C , 32-H ) :   0.9774 B(  2-C ,  3-C ) :   1.2545
B(  2-C ,  6-C ) :   1.0143 B(  3-C ,  4-C ) :   1.5595 B(  3-C ,  5-H ) :   1.0023
B(  4-C , 20-C ) :   0.9881 B(  6-C ,  7-H ) :   0.9259 B(  6-C ,  8-H ) :   0.9439
B(  6-C ,  9-C ) :   1.0591 B(  9-C , 10-H ) :   0.9582 B(  9-C , 11-H ) :   0.9575
B(  9-C , 12-C ) :   1.0765 B( 12-C , 13-H ) :   0.9744 B( 12-C , 14-H ) :   0.9757
B( 12-C , 15-H ) :   0.9770 B( 16-S , 17-C ) :   1.1657 B( 16-S , 20-C ) :   1.1614
B( 17-C , 18-C ) :   1.5841 B( 17-C , 33-H ) :   0.9781 B( 18-C , 19-C ) :   1.2574
B( 18-C , 21-H ) :   0.9807 B( 19-C , 20-C ) :   1.5748 B( 19-C , 22-C ) :   1.0534
B( 22-C , 23-H ) :   0.9227 B( 22-C , 24-H ) :   0.9273 B( 22-C , 25-C ) :   1.0613
B( 25-C , 26-H ) :   0.9571 B( 25-C , 27-H ) :   0.9551 B( 25-C , 28-C ) :   1.0867
B( 28-C , 29-H ) :   0.9728 B( 28-C , 30-H ) :   0.9719 B( 28-C , 31-H ) :   0.9746

Dispersion correction           -0.013587567
FINAL SINGLE POINT ENERGY     -1339.868900620880

DIPOLE MOMENT
-------------
                                X             Y             Z
Electronic contribution:     26.45984       5.93619       7.48993
Nuclear contribution   :    -27.02758      -5.97249      -7.60870
                        -----------------------------------------
Total Dipole Moment    :     -0.56774      -0.03630      -0.11877
                        -----------------------------------------
Magnitude (a.u.)       :      0.58117
Magnitude (Debye)      :      1.47720

Rotational constants in cm-1:     0.018360     0.007940     0.006416
Rotational constants in MHz :   550.432021   238.032652   192.351342

                             ****ORCA TERMINATED NORMALLY****
TOTAL RUN TIME: 0 days 0 hours 0 minutes 21 seconds 151 msec
