                         Program Version 4.2.1 -  RELEASE  -
|  1> ! wB97X-D3 SP def2-SVP
|  2> %pal
|  3> nprocs 24
|  4> end
|  5>
|  6> * xyz 0 1
|  7> S 	 -37.6621 	 17.0257 	 13.6392
|  8> C 	 -39.2839 	 16.547 	 14.2176
|  9> C 	 -39.9907 	 17.6673 	 14.6926
| 10> C 	 -39.1795 	 18.8275 	 14.8041
| 11> C 	 -37.8669 	 18.5983 	 14.3689
| 12> H 	 -39.4513 	 19.7659 	 15.1741
| 13> C 	 -41.4031 	 17.6033 	 15.1258
| 14> H 	 -41.4634 	 16.7727 	 15.8367
| 15> H 	 -42.0006 	 17.4316 	 14.2491
| 16> C 	 -41.9257 	 18.8613 	 15.8943
| 17> H 	 -41.3591 	 18.9751 	 16.8114
| 18> H 	 -41.693 	 19.7259 	 15.2471
| 19> C 	 -43.4206 	 18.8918 	 16.0995
| 20> H 	 -43.8921 	 19.8855 	 16.0139
| 21> H 	 -43.8893 	 18.3781 	 15.246
| 22> H 	 -43.8017 	 18.4945 	 16.9918
| 23> S 	 -35.9819 	 19.9461 	 12.9235
| 24> C 	 -35.0476 	 21.2283 	 13.6101
| 25> C 	 -35.2975 	 21.3802 	 14.9823
| 26> C 	 -36.3948 	 20.4918 	 15.4028
| 27> C 	 -36.8382 	 19.6438 	 14.3674
| 28> H 	 -34.6782 	 22.1441 	 15.553
| 29> C 	 -36.7575 	 20.4967 	 16.86
| 30> H 	 -35.8608 	 20.2801 	 17.3789
| 31> H 	 -37.3206 	 19.6199 	 17.251
| 32> C 	 -37.3076 	 21.7673 	 17.4181
| 33> H 	 -36.8349 	 22.6185 	 16.8874
| 34> H 	 -37.038 	 21.9093 	 18.4394
| 35> C 	 -38.8398 	 21.816 	 17.2426
| 36> H 	 -39.1711 	 22.7699 	 17.6324
| 37> H 	 -39.3519 	 21.0611 	 17.7865
| 38> H 	 -39.1225 	 21.7337 	 16.1828
| 39> H 	 -39.6994 	 15.5757 	 13.9253
| 40> H 	 -34.343 	 21.8881 	 13.1783
| 41> *
| 42>
| 43>                          ****END OF INPUT****

CARTESIAN COORDINATES (ANGSTROEM)
---------------------------------
  S    -37.662100   17.025700   13.639200
  C    -39.283900   16.547000   14.217600
  C    -39.990700   17.667300   14.692600
  C    -39.179500   18.827500   14.804100
  C    -37.866900   18.598300   14.368900
  H    -39.451300   19.765900   15.174100
  C    -41.403100   17.603300   15.125800
  H    -41.463400   16.772700   15.836700
  H    -42.000600   17.431600   14.249100
  C    -41.925700   18.861300   15.894300
  H    -41.359100   18.975100   16.811400
  H    -41.693000   19.725900   15.247100
  C    -43.420600   18.891800   16.099500
  H    -43.892100   19.885500   16.013900
  H    -43.889300   18.378100   15.246000
  H    -43.801700   18.494500   16.991800
  S    -35.981900   19.946100   12.923500
  C    -35.047600   21.228300   13.610100
  C    -35.297500   21.380200   14.982300
  C    -36.394800   20.491800   15.402800
  C    -36.838200   19.643800   14.367400
  H    -34.678200   22.144100   15.553000
  C    -36.757500   20.496700   16.860000
  H    -35.860800   20.280100   17.378900
  H    -37.320600   19.619900   17.251000
  C    -37.307600   21.767300   17.418100
  H    -36.834900   22.618500   16.887400
  H    -37.038000   21.909300   18.439400
  C    -38.839800   21.816000   17.242600
  H    -39.171100   22.769900   17.632400
  H    -39.351900   21.061100   17.786500
  H    -39.122500   21.733700   16.182800
  H    -39.699400   15.575700   13.925300
  H    -34.343000   21.888100   13.178300

 Total Charge           Charge          ....    0
 Multiplicity           Mult            ....    1
 Number of Electrons    NEL             ....  134
 Basis Dimension        Dim             ....  322

ORBITAL ENERGIES
----------------

  NO   OCC          E(Eh)            E(eV)
   0   2.0000     -88.968946     -2420.9681
   1   2.0000     -88.967138     -2420.9189
   2   2.0000     -10.330943      -281.1192
   3   2.0000     -10.326490      -280.9981
   4   2.0000     -10.316474      -280.7255
   5   2.0000     -10.314260      -280.6653
   6   2.0000     -10.309231      -280.5285
   7   2.0000     -10.303226      -280.3650
   8   2.0000     -10.302402      -280.3426
   9   2.0000     -10.289707      -279.9972
  10   2.0000     -10.289537      -279.9925
  11   2.0000     -10.289024      -279.9786
  12   2.0000     -10.281658      -279.7781
  13   2.0000     -10.281486      -279.7735
  14   2.0000     -10.275498      -279.6105
  15   2.0000     -10.273528      -279.5569
  16   2.0000      -8.082896      -219.9468
  17   2.0000      -8.082706      -219.9416
  18   2.0000      -6.041355      -164.3936
  19   2.0000      -6.041248      -164.3907
  20   2.0000      -6.037569      -164.2906
  21   2.0000      -6.036931      -164.2732
  22   2.0000      -6.033723      -164.1860
  23   2.0000      -6.033555      -164.1814
  24   2.0000      -1.005565       -27.3628
  25   2.0000      -0.981223       -26.7004
  26   2.0000      -0.916007       -24.9258
  27   2.0000      -0.913295       -24.8520
  28   2.0000      -0.867866       -23.6158
  29   2.0000      -0.850337       -23.1388
  30   2.0000      -0.845211       -22.9994
  31   2.0000      -0.815897       -22.2017
  32   2.0000      -0.782524       -21.2936
  33   2.0000      -0.771559       -20.9952
  34   2.0000      -0.715548       -19.4710
  35   2.0000      -0.698385       -19.0040
  36   2.0000      -0.689023       -18.7493
  37   2.0000      -0.652811       -17.7639
  38   2.0000      -0.638892       -17.3851
  39   2.0000      -0.623512       -16.9666
  40   2.0000      -0.601299       -16.3622
  41   2.0000      -0.579491       -15.7688
  42   2.0000      -0.563700       -15.3391
  43   2.0000      -0.558024       -15.1846
  44   2.0000      -0.530861       -14.4455
  45   2.0000      -0.519570       -14.1382
  46   2.0000      -0.518360       -14.1053
  47   2.0000      -0.512507       -13.9460
  48   2.0000      -0.506332       -13.7780
  49   2.0000      -0.498239       -13.5578
  50   2.0000      -0.492953       -13.4139
  51   2.0000      -0.479143       -13.0381
  52   2.0000      -0.473384       -12.8814
  53   2.0000      -0.463549       -12.6138
  54   2.0000      -0.460869       -12.5409
  55   2.0000      -0.453258       -12.3338
  56   2.0000      -0.447665       -12.1816
  57   2.0000      -0.438128       -11.9221
  58   2.0000      -0.434522       -11.8239
  59   2.0000      -0.427129       -11.6228
  60   2.0000      -0.420801       -11.4506
  61   2.0000      -0.411810       -11.2059
  62   2.0000      -0.408623       -11.1192
  63   2.0000      -0.345438        -9.3998
  64   2.0000      -0.332138        -9.0379
  65   2.0000      -0.325704        -8.8628
  66   2.0000      -0.287117        -7.8129
  67   0.0000       0.029045         0.7904
  68   0.0000       0.068988         1.8772
  69   0.0000       0.109705         2.9852
  70   0.0000       0.117253         3.1906
  71   0.0000       0.134499         3.6599

MULLIKEN ATOMIC CHARGES
-----------------------
   0 S :    0.108493
   1 C :   -0.140675
   2 C :   -0.085058
   3 C :    0.057015
   4 C :   -0.124547
   5 H :   -0.048662
   6 C :    0.075201
   7 H :    0.042267
   8 H :    0.035819
   9 C :   -0.119396
  10 H :    0.038176
  11 H :    0.040257
  12 C :   -0.009868
  13 H :    0.028529
  14 H :    0.017998
  15 H :    0.025796
  16 S :    0.121413
  17 C :   -0.077307
  18 C :   -0.077599
  19 C :   -0.036983
  20 C :   -0.152331
  21 H :    0.052664
  22 C :    0.058663
  23 H :    0.014119
  24 H :    0.021963
  25 C :   -0.062847
  26 H :    0.024767
  27 H :    0.016762
  28 C :   -0.035645
  29 H :    0.023510
  30 H :    0.022346
  31 H :    0.049260
  32 H :    0.055812
  33 H :    0.040091
Sum of atomic charges:   -0.0000000

LOEWDIN ATOMIC CHARGES
----------------------
   0 S :    0.397280
   1 C :   -0.198472
   2 C :   -0.056001
   3 C :   -0.056586
   4 C :   -0.187766
   5 H :    0.017542
   6 C :   -0.031998
   7 H :    0.038095
   8 H :    0.031789
   9 C :   -0.043996
  10 H :    0.023969
  11 H :    0.027506
  12 C :   -0.066236
  13 H :    0.031476
  14 H :    0.028793
  15 H :    0.017180
  16 S :    0.434912
  17 C :   -0.196327
  18 C :   -0.076180
  19 C :   -0.054065
  20 C :   -0.217101
  21 H :    0.045177
  22 C :   -0.045591
  23 H :    0.030929
  24 H :    0.034037
  25 C :   -0.036347
  26 H :    0.026208
  27 H :    0.019821
  28 C :   -0.058323
  29 H :    0.023778
  30 H :    0.017431
  31 H :    0.025975
  32 H :    0.028475
  33 H :    0.024618

  Mayer bond orders larger than 0.100000
B(  0-S ,  1-C ) :   1.1286 B(  0-S ,  4-C ) :   1.1689 B(  1-C ,  2-C ) :   1.5829
B(  1-C ,  4-C ) :   0.1057 B(  1-C , 32-H ) :   0.9729 B(  2-C ,  3-C ) :   1.2656
B(  2-C ,  6-C ) :   1.0132 B(  3-C ,  4-C ) :   1.5249 B(  3-C ,  5-H ) :   0.9992
B(  4-C , 20-C ) :   1.0386 B(  6-C ,  7-H ) :   0.9396 B(  6-C ,  8-H ) :   0.9223
B(  6-C ,  9-C ) :   1.1043 B(  9-C , 10-H ) :   0.9546 B(  9-C , 11-H ) :   0.9461
B(  9-C , 12-C ) :   1.0771 B( 12-C , 13-H ) :   0.9746 B( 12-C , 14-H ) :   0.9700
B( 12-C , 15-H ) :   0.9753 B( 16-S , 17-C ) :   1.1599 B( 16-S , 20-C ) :   1.1456
B( 17-C , 18-C ) :   1.6220 B( 17-C , 33-H ) :   0.9703 B( 18-C , 19-C ) :   1.2291
B( 18-C , 21-H ) :   0.9748 B( 19-C , 20-C ) :   1.5814 B( 19-C , 22-C ) :   1.0504
B( 22-C , 23-H ) :   0.9255 B( 22-C , 24-H ) :   0.9350 B( 22-C , 25-C ) :   1.0736
B( 25-C , 26-H ) :   0.9556 B( 25-C , 27-H ) :   0.9506 B( 25-C , 28-C ) :   1.0823
B( 28-C , 29-H ) :   0.9685 B( 28-C , 30-H ) :   0.9761 B( 28-C , 31-H ) :   0.9674

Dispersion correction           -0.014872617
FINAL SINGLE POINT ENERGY     -1339.874267940294

DIPOLE MOMENT
-------------
                                X             Y             Z
Electronic contribution:     22.18357     -10.43687     -20.14236
Nuclear contribution   :    -22.52372      10.75558      20.62160
                        -----------------------------------------
Total Dipole Moment    :     -0.34015       0.31871       0.47924
                        -----------------------------------------
Magnitude (a.u.)       :      0.66855
Magnitude (Debye)      :      1.69931

Rotational constants in cm-1:     0.017677     0.009756     0.006892
Rotational constants in MHz :   529.957899   292.466981   206.616542

                             ****ORCA TERMINATED NORMALLY****
TOTAL RUN TIME: 0 days 0 hours 0 minutes 22 seconds 326 msec
