                         Program Version 4.2.1 -  RELEASE  -
|  1> ! wB97X-D3 SP def2-SVP
|  2> %pal
|  3> nprocs 24
|  4> end
|  5>
|  6> * xyz 0 1
|  7> S 	 -140.597 	 27.4162 	 -19.0228
|  8> C 	 -140.142 	 26.3456 	 -17.7278
|  9> C 	 -140.286 	 24.9933 	 -18.0692
| 10> C 	 -140.707 	 24.842 	 -19.4352
| 11> C 	 -140.97 	 26.0797 	 -20.0799
| 12> H 	 -140.818 	 23.8686 	 -19.8143
| 13> C 	 -139.92 	 23.8294 	 -17.2229
| 14> H 	 -138.992 	 24.063 	 -16.7221
| 15> H 	 -139.665 	 23.0138 	 -17.9004
| 16> C 	 -140.942 	 23.48 	 -16.1565
| 17> H 	 -140.609 	 22.531 	 -15.6549
| 18> H 	 -140.968 	 24.3077 	 -15.3781
| 19> C 	 -142.339 	 23.0997 	 -16.6413
| 20> H 	 -142.221 	 22.0169 	 -16.8324
| 21> H 	 -143.115 	 23.1089 	 -15.8635
| 22> H 	 -142.646 	 23.5986 	 -17.5485
| 23> S 	 -140.533 	 27.1887 	 -22.5655
| 24> C 	 -141.544 	 26.7501 	 -23.9274
| 25> C 	 -142.339 	 25.633 	 -23.6442
| 26> C 	 -142.228 	 25.3117 	 -22.245
| 27> C 	 -141.377 	 26.1036 	 -21.488
| 28> H 	 -142.864 	 25.1259 	 -24.4679
| 29> C 	 -143.051 	 24.1629 	 -21.6332
| 30> H 	 -144.036 	 24.105 	 -22.1806
| 31> H 	 -143.244 	 24.4435 	 -20.585
| 32> C 	 -142.478 	 22.7721 	 -21.8437
| 33> H 	 -141.376 	 22.9458 	 -21.9576
| 34> H 	 -142.823 	 22.4152 	 -22.7952
| 35> C 	 -142.802 	 21.856 	 -20.6467
| 36> H 	 -142.271 	 22.1973 	 -19.6922
| 37> H 	 -142.47 	 20.8416 	 -20.8345
| 38> H 	 -143.875 	 21.8182 	 -20.6
| 39> H 	 -139.827 	 26.6608 	 -16.7736
| 40> H 	 -141.325 	 27.0744 	 -24.9016
| 41> *
| 42>
| 43>                          ****END OF INPUT****

CARTESIAN COORDINATES (ANGSTROEM)
---------------------------------
  S    -140.597000   27.416200  -19.022800
  C    -140.142000   26.345600  -17.727800
  C    -140.286000   24.993300  -18.069200
  C    -140.707000   24.842000  -19.435200
  C    -140.970000   26.079700  -20.079900
  H    -140.818000   23.868600  -19.814300
  C    -139.920000   23.829400  -17.222900
  H    -138.992000   24.063000  -16.722100
  H    -139.665000   23.013800  -17.900400
  C    -140.942000   23.480000  -16.156500
  H    -140.609000   22.531000  -15.654900
  H    -140.968000   24.307700  -15.378100
  C    -142.339000   23.099700  -16.641300
  H    -142.221000   22.016900  -16.832400
  H    -143.115000   23.108900  -15.863500
  H    -142.646000   23.598600  -17.548500
  S    -140.533000   27.188700  -22.565500
  C    -141.544000   26.750100  -23.927400
  C    -142.339000   25.633000  -23.644200
  C    -142.228000   25.311700  -22.245000
  C    -141.377000   26.103600  -21.488000
  H    -142.864000   25.125900  -24.467900
  C    -143.051000   24.162900  -21.633200
  H    -144.036000   24.105000  -22.180600
  H    -143.244000   24.443500  -20.585000
  C    -142.478000   22.772100  -21.843700
  H    -141.376000   22.945800  -21.957600
  H    -142.823000   22.415200  -22.795200
  C    -142.802000   21.856000  -20.646700
  H    -142.271000   22.197300  -19.692200
  H    -142.470000   20.841600  -20.834500
  H    -143.875000   21.818200  -20.600000
  H    -139.827000   26.660800  -16.773600
  H    -141.325000   27.074400  -24.901600

 Total Charge           Charge          ....    0
 Multiplicity           Mult            ....    1
 Number of Electrons    NEL             ....  134
 Basis Dimension        Dim             ....  322

ORBITAL ENERGIES
----------------

  NO   OCC          E(Eh)            E(eV)
   0   2.0000     -88.976181     -2421.1650
   1   2.0000     -88.962370     -2420.7892
   2   2.0000     -10.336974      -281.2834
   3   2.0000     -10.328094      -281.0417
   4   2.0000     -10.315358      -280.6952
   5   2.0000     -10.314376      -280.6684
   6   2.0000     -10.304415      -280.3974
   7   2.0000     -10.300402      -280.2882
   8   2.0000     -10.300394      -280.2880
   9   2.0000     -10.295411      -280.1524
  10   2.0000     -10.294914      -280.1389
  11   2.0000     -10.291044      -280.0335
  12   2.0000     -10.288741      -279.9709
  13   2.0000     -10.285918      -279.8941
  14   2.0000     -10.285145      -279.8730
  15   2.0000     -10.277602      -279.6678
  16   2.0000      -8.090381      -220.1505
  17   2.0000      -8.077405      -219.7974
  18   2.0000      -6.048963      -164.6007
  19   2.0000      -6.044826      -164.4881
  20   2.0000      -6.041233      -164.3903
  21   2.0000      -6.035913      -164.2455
  22   2.0000      -6.031825      -164.1343
  23   2.0000      -6.028200      -164.0357
  24   2.0000      -1.005081       -27.3496
  25   2.0000      -0.983396       -26.7596
  26   2.0000      -0.918037       -24.9810
  27   2.0000      -0.908384       -24.7184
  28   2.0000      -0.868278       -23.6270
  29   2.0000      -0.853090       -23.2137
  30   2.0000      -0.844817       -22.9886
  31   2.0000      -0.813862       -22.1463
  32   2.0000      -0.784127       -21.3372
  33   2.0000      -0.770944       -20.9784
  34   2.0000      -0.707181       -19.2434
  35   2.0000      -0.696541       -18.9538
  36   2.0000      -0.691228       -18.8093
  37   2.0000      -0.664238       -18.0748
  38   2.0000      -0.642084       -17.4720
  39   2.0000      -0.616246       -16.7689
  40   2.0000      -0.591048       -16.0832
  41   2.0000      -0.577515       -15.7150
  42   2.0000      -0.568372       -15.4662
  43   2.0000      -0.553688       -15.0666
  44   2.0000      -0.551660       -15.0114
  45   2.0000      -0.521017       -14.1776
  46   2.0000      -0.518686       -14.1142
  47   2.0000      -0.510391       -13.8884
  48   2.0000      -0.506286       -13.7768
  49   2.0000      -0.499871       -13.6022
  50   2.0000      -0.485798       -13.2192
  51   2.0000      -0.484778       -13.1915
  52   2.0000      -0.473454       -12.8834
  53   2.0000      -0.467480       -12.7208
  54   2.0000      -0.462342       -12.5810
  55   2.0000      -0.447936       -12.1890
  56   2.0000      -0.444568       -12.0973
  57   2.0000      -0.441228       -12.0064
  58   2.0000      -0.432109       -11.7583
  59   2.0000      -0.421212       -11.4618
  60   2.0000      -0.416980       -11.3466
  61   2.0000      -0.411976       -11.2104
  62   2.0000      -0.407037       -11.0760
  63   2.0000      -0.349917        -9.5217
  64   2.0000      -0.333976        -9.0879
  65   2.0000      -0.327665        -8.9162
  66   2.0000      -0.288528        -7.8512
  67   0.0000       0.023163         0.6303
  68   0.0000       0.071445         1.9441
  69   0.0000       0.107463         2.9242
  70   0.0000       0.121647         3.3102
  71   0.0000       0.127742         3.4760

MULLIKEN ATOMIC CHARGES
-----------------------
   0 S :    0.141162
   1 C :   -0.105238
   2 C :   -0.103322
   3 C :    0.041135
   4 C :   -0.127547
   5 H :   -0.033410
   6 C :    0.091106
   7 H :    0.026681
   8 H :    0.019370
   9 C :   -0.103825
  10 H :    0.035493
  11 H :    0.037972
  12 C :   -0.052514
  13 H :    0.024889
  14 H :    0.037975
  15 H :    0.049031
  16 S :    0.091197
  17 C :   -0.078274
  18 C :   -0.037895
  19 C :   -0.068976
  20 C :   -0.126960
  21 H :    0.036285
  22 C :    0.018577
  23 H :    0.027673
  24 H :    0.043313
  25 C :   -0.076982
  26 H :    0.041410
  27 H :    0.020783
  28 C :   -0.042000
  29 H :    0.038060
  30 H :    0.030030
  31 H :    0.033931
  32 H :    0.027853
  33 H :    0.043017
Sum of atomic charges:    0.0000000

LOEWDIN ATOMIC CHARGES
----------------------
   0 S :    0.430514
   1 C :   -0.195316
   2 C :   -0.059621
   3 C :   -0.051526
   4 C :   -0.202376
   5 H :    0.018663
   6 C :   -0.035348
   7 H :    0.035484
   8 H :    0.030564
   9 C :   -0.045539
  10 H :    0.029486
  11 H :    0.025632
  12 C :   -0.071009
  13 H :    0.028244
  14 H :    0.030759
  15 H :    0.020738
  16 S :    0.402422
  17 C :   -0.175099
  18 C :   -0.071492
  19 C :   -0.059229
  20 C :   -0.198208
  21 H :    0.040069
  22 C :   -0.040334
  23 H :    0.033344
  24 H :    0.030027
  25 C :   -0.046030
  26 H :    0.023188
  27 H :    0.020005
  28 C :   -0.062104
  29 H :    0.031435
  30 H :    0.023486
  31 H :    0.024798
  32 H :    0.017940
  33 H :    0.016434

  Mayer bond orders larger than 0.100000
B(  0-S ,  1-C ) :   1.1487 B(  0-S ,  4-C ) :   1.1663 B(  1-C ,  2-C ) :   1.5727
B(  1-C , 32-H ) :   0.9714 B(  2-C ,  3-C ) :   1.2860 B(  2-C ,  6-C ) :   1.0213
B(  3-C ,  4-C ) :   1.4933 B(  3-C ,  5-H ) :   0.9964 B(  4-C , 20-C ) :   1.0603
B(  6-C ,  7-H ) :   0.9326 B(  6-C ,  8-H ) :   0.9414 B(  6-C ,  9-C ) :   1.0748
B(  9-C , 10-H ) :   0.9628 B(  9-C , 11-H ) :   0.9567 B(  9-C , 12-C ) :   1.0609
B( 12-C , 13-H ) :   0.9772 B( 12-C , 14-H ) :   0.9705 B( 12-C , 15-H ) :   0.9749
B( 16-S , 17-C ) :   1.1696 B( 16-S , 20-C ) :   1.1319 B( 17-C , 18-C ) :   1.5929
B( 17-C , 33-H ) :   0.9706 B( 18-C , 19-C ) :   1.2431 B( 18-C , 21-H ) :   0.9905
B( 19-C , 20-C ) :   1.5915 B( 19-C , 22-C ) :   1.0511 B( 22-C , 23-H ) :   0.9359
B( 22-C , 24-H ) :   0.9472 B( 22-C , 25-C ) :   1.0291 B( 25-C , 26-H ) :   0.9621
B( 25-C , 27-H ) :   0.9518 B( 25-C , 28-C ) :   1.0808 B( 28-C , 29-H ) :   0.9688
B( 28-C , 30-H ) :   0.9711 B( 28-C , 31-H ) :   0.9723

Dispersion correction           -0.016024781
FINAL SINGLE POINT ENERGY     -1339.878675725842

DIPOLE MOMENT
-------------
                                X             Y             Z
Electronic contribution:      9.27758      27.99660     -12.22394
Nuclear contribution   :     -9.33112     -28.74085      12.34942
                        -----------------------------------------
Total Dipole Moment    :     -0.05355      -0.74425       0.12547
                        -----------------------------------------
Magnitude (a.u.)       :      0.75665
Magnitude (Debye)      :      1.92326

Rotational constants in cm-1:     0.019065     0.010286     0.007113
Rotational constants in MHz :   571.548841   308.356120   213.230377

                             ****ORCA TERMINATED NORMALLY****
TOTAL RUN TIME: 0 days 0 hours 0 minutes 23 seconds 329 msec
