                         Program Version 4.2.1 -  RELEASE  -
|  1> ! wB97X-D3 SP def2-SVP
|  2> %pal
|  3> nprocs 24
|  4> end
|  5>
|  6> * xyz 0 1
|  7> S 	 -144.163 	 30.1226 	 -13.4772
|  8> C 	 -144.73 	 29.8097 	 -15.0928
|  9> C 	 -145.9 	 30.4571 	 -15.3686
| 10> C 	 -146.289 	 31.2998 	 -14.3025
| 11> C 	 -145.397 	 31.2745 	 -13.2513
| 12> H 	 -147.103 	 31.9975 	 -14.1348
| 13> C 	 -146.72 	 30.3721 	 -16.607
| 14> H 	 -146.484 	 29.5256 	 -17.2531
| 15> H 	 -146.466 	 31.3258 	 -17.1656
| 16> C 	 -148.165 	 30.2224 	 -16.4178
| 17> H 	 -148.449 	 29.3902 	 -15.7257
| 18> H 	 -148.461 	 31.2067 	 -15.8543
| 19> C 	 -148.966 	 30.1106 	 -17.7189
| 20> H 	 -148.977 	 30.9393 	 -18.4282
| 21> H 	 -148.685 	 29.2181 	 -18.2645
| 22> H 	 -150.098 	 30.0616 	 -17.5197
| 23> S 	 -145.643 	 31.3358 	 -10.4451
| 24> C 	 -145.589 	 32.913 	 -9.65897
| 25> C 	 -145.705 	 33.9079 	 -10.563
| 26> C 	 -145.545 	 33.4219 	 -11.8908
| 27> C 	 -145.548 	 32.07 	 -12.0182
| 28> H 	 -145.703 	 34.9311 	 -10.248
| 29> C 	 -145.198 	 34.3114 	 -12.9542
| 30> H 	 -145.098 	 35.3299 	 -12.6422
| 31> H 	 -146.041 	 34.3949 	 -13.6233
| 32> C 	 -143.89 	 34.201 	 -13.7158
| 33> H 	 -144.164 	 34.6912 	 -14.6482
| 34> H 	 -143.648 	 33.1406 	 -14.0042
| 35> C 	 -142.568 	 34.8394 	 -13.111
| 36> H 	 -141.716 	 34.4612 	 -13.7365
| 37> H 	 -142.39 	 34.6173 	 -12.0725
| 38> H 	 -142.574 	 35.876 	 -13.0952
| 39> H 	 -144.326 	 29.1052 	 -15.8124
| 40> H 	 -145.561 	 33.1593 	 -8.59761
| 41> *
| 42>
| 43>                          ****END OF INPUT****

CARTESIAN COORDINATES (ANGSTROEM)
---------------------------------
  S    -144.163000   30.122600  -13.477200
  C    -144.730000   29.809700  -15.092800
  C    -145.900000   30.457100  -15.368600
  C    -146.289000   31.299800  -14.302500
  C    -145.397000   31.274500  -13.251300
  H    -147.103000   31.997500  -14.134800
  C    -146.720000   30.372100  -16.607000
  H    -146.484000   29.525600  -17.253100
  H    -146.466000   31.325800  -17.165600
  C    -148.165000   30.222400  -16.417800
  H    -148.449000   29.390200  -15.725700
  H    -148.461000   31.206700  -15.854300
  C    -148.966000   30.110600  -17.718900
  H    -148.977000   30.939300  -18.428200
  H    -148.685000   29.218100  -18.264500
  H    -150.098000   30.061600  -17.519700
  S    -145.643000   31.335800  -10.445100
  C    -145.589000   32.913000   -9.658970
  C    -145.705000   33.907900  -10.563000
  C    -145.545000   33.421900  -11.890800
  C    -145.548000   32.070000  -12.018200
  H    -145.703000   34.931100  -10.248000
  C    -145.198000   34.311400  -12.954200
  H    -145.098000   35.329900  -12.642200
  H    -146.041000   34.394900  -13.623300
  C    -143.890000   34.201000  -13.715800
  H    -144.164000   34.691200  -14.648200
  H    -143.648000   33.140600  -14.004200
  C    -142.568000   34.839400  -13.111000
  H    -141.716000   34.461200  -13.736500
  H    -142.390000   34.617300  -12.072500
  H    -142.574000   35.876000  -13.095200
  H    -144.326000   29.105200  -15.812400
  H    -145.561000   33.159300   -8.597610

 Total Charge           Charge          ....    0
 Multiplicity           Mult            ....    1
 Number of Electrons    NEL             ....  134
 Basis Dimension        Dim             ....  322

ORBITAL ENERGIES
----------------

  NO   OCC          E(Eh)            E(eV)
   0   2.0000     -88.968331     -2420.9514
   1   2.0000     -88.962747     -2420.7994
   2   2.0000     -10.324057      -280.9319
   3   2.0000     -10.318496      -280.7806
   4   2.0000     -10.314695      -280.6771
   5   2.0000     -10.310520      -280.5635
   6   2.0000     -10.298129      -280.2263
   7   2.0000     -10.294864      -280.1375
   8   2.0000     -10.290733      -280.0251
   9   2.0000     -10.289822      -280.0003
  10   2.0000     -10.288938      -279.9762
  11   2.0000     -10.286321      -279.9050
  12   2.0000     -10.285845      -279.8921
  13   2.0000     -10.284795      -279.8635
  14   2.0000     -10.275001      -279.5970
  15   2.0000     -10.273656      -279.5604
  16   2.0000      -8.083673      -219.9679
  17   2.0000      -8.077610      -219.8029
  18   2.0000      -6.042008      -164.4114
  19   2.0000      -6.038111      -164.3053
  20   2.0000      -6.036277      -164.2554
  21   2.0000      -6.034561      -164.2088
  22   2.0000      -6.032143      -164.1430
  23   2.0000      -6.028142      -164.0341
  24   2.0000      -1.015123       -27.6229
  25   2.0000      -0.993628       -27.0380
  26   2.0000      -0.923293       -25.1241
  27   2.0000      -0.910636       -24.7797
  28   2.0000      -0.872454       -23.7407
  29   2.0000      -0.851826       -23.1794
  30   2.0000      -0.844633       -22.9836
  31   2.0000      -0.819143       -22.2900
  32   2.0000      -0.785759       -21.3816
  33   2.0000      -0.776931       -21.1414
  34   2.0000      -0.713495       -19.4152
  35   2.0000      -0.694290       -18.8926
  36   2.0000      -0.685775       -18.6609
  37   2.0000      -0.662815       -18.0361
  38   2.0000      -0.645169       -17.5559
  39   2.0000      -0.622922       -16.9506
  40   2.0000      -0.598292       -16.2803
  41   2.0000      -0.574960       -15.6455
  42   2.0000      -0.568420       -15.4675
  43   2.0000      -0.551434       -15.0053
  44   2.0000      -0.533408       -14.5148
  45   2.0000      -0.523565       -14.2469
  46   2.0000      -0.515124       -14.0172
  47   2.0000      -0.512187       -13.9373
  48   2.0000      -0.504469       -13.7273
  49   2.0000      -0.499984       -13.6053
  50   2.0000      -0.486666       -13.2428
  51   2.0000      -0.486359       -13.2345
  52   2.0000      -0.475350       -12.9349
  53   2.0000      -0.472148       -12.8478
  54   2.0000      -0.465212       -12.6591
  55   2.0000      -0.450785       -12.2665
  56   2.0000      -0.438682       -11.9371
  57   2.0000      -0.435326       -11.8458
  58   2.0000      -0.432352       -11.7649
  59   2.0000      -0.427450       -11.6315
  60   2.0000      -0.412335       -11.2202
  61   2.0000      -0.406370       -11.0579
  62   2.0000      -0.402060       -10.9406
  63   2.0000      -0.342860        -9.3297
  64   2.0000      -0.333279        -9.0690
  65   2.0000      -0.327489        -8.9114
  66   2.0000      -0.297617        -8.0986
  67   0.0000       0.036810         1.0016
  68   0.0000       0.074359         2.0234
  69   0.0000       0.116563         3.1718
  70   0.0000       0.126091         3.4311
  71   0.0000       0.135988         3.7004

MULLIKEN ATOMIC CHARGES
-----------------------
   0 S :    0.132554
   1 C :   -0.120928
   2 C :   -0.046265
   3 C :    0.023478
   4 C :   -0.195462
   5 H :    0.015539
   6 C :    0.081748
   7 H :    0.006792
   8 H :    0.051050
   9 C :   -0.131092
  10 H :    0.049828
  11 H :    0.036892
  12 C :   -0.055018
  13 H :    0.029740
  14 H :    0.031495
  15 H :    0.040364
  16 S :    0.103402
  17 C :   -0.089925
  18 C :   -0.017532
  19 C :   -0.025650
  20 C :   -0.149116
  21 H :    0.012228
  22 C :    0.075316
  23 H :   -0.007695
  24 H :    0.017181
  25 C :   -0.081227
  26 H :    0.021326
  27 H :    0.041002
  28 C :   -0.029788
  29 H :    0.045774
  30 H :    0.029069
  31 H :    0.011108
  32 H :    0.038323
  33 H :    0.055492
Sum of atomic charges:    0.0000000

LOEWDIN ATOMIC CHARGES
----------------------
   0 S :    0.433332
   1 C :   -0.202414
   2 C :   -0.063625
   3 C :   -0.062867
   4 C :   -0.204091
   5 H :    0.034161
   6 C :   -0.042187
   7 H :    0.024967
   8 H :    0.044757
   9 C :   -0.052700
  10 H :    0.033994
  11 H :    0.029587
  12 C :   -0.074245
  13 H :    0.024714
  14 H :    0.022297
  15 H :    0.037783
  16 S :    0.395586
  17 C :   -0.175311
  18 C :   -0.067255
  19 C :   -0.065695
  20 C :   -0.204959
  21 H :    0.030404
  22 C :   -0.045704
  23 H :    0.028849
  24 H :    0.031830
  25 C :   -0.035984
  26 H :    0.027188
  27 H :    0.023961
  28 C :   -0.063688
  29 H :    0.037465
  30 H :    0.024383
  31 H :    0.011079
  32 H :    0.029868
  33 H :    0.034521

  Mayer bond orders larger than 0.100000
B(  0-S ,  1-C ) :   1.1323 B(  0-S ,  4-C ) :   1.1649 B(  1-C ,  2-C ) :   1.6261
B(  1-C , 32-H ) :   0.9663 B(  2-C ,  3-C ) :   1.2089 B(  2-C ,  6-C ) :   1.0257
B(  3-C ,  4-C ) :   1.5915 B(  3-C ,  5-H ) :   0.9925 B(  4-C , 20-C ) :   1.0161
B(  6-C ,  7-H ) :   0.9385 B(  6-C ,  8-H ) :   0.9294 B(  6-C ,  9-C ) :   1.0666
B(  9-C , 10-H ) :   0.9559 B(  9-C , 11-H ) :   0.9432 B(  9-C , 12-C ) :   1.0843
B( 12-C , 13-H ) :   0.9745 B( 12-C , 14-H ) :   0.9715 B( 12-C , 15-H ) :   0.9730
B( 16-S , 17-C ) :   1.1444 B( 16-S , 20-C ) :   1.1181 B( 17-C , 18-C ) :   1.6433
B( 17-C , 33-H ) :   0.9619 B( 18-C , 19-C ) :   1.2280 B( 18-C , 21-H ) :   0.9909
B( 19-C , 20-C ) :   1.6197 B( 19-C , 22-C ) :   1.0706 B( 22-C , 23-H ) :   0.9247
B( 22-C , 24-H ) :   0.9087 B( 22-C , 25-C ) :   1.0631 B( 25-C , 26-H ) :   0.9497
B( 25-C , 27-H ) :   0.9594 B( 25-C , 28-C ) :   1.0691 B( 28-C , 29-H ) :   0.9764
B( 28-C , 30-H ) :   0.9792 B( 28-C , 31-H ) :   0.9732

Dispersion correction           -0.014848679
FINAL SINGLE POINT ENERGY     -1339.862472518944

DIPOLE MOMENT
-------------
                                X             Y             Z
Electronic contribution:      5.86722     -10.54158      20.60912
Nuclear contribution   :     -6.06033      10.98872     -21.01438
                        -----------------------------------------
Total Dipole Moment    :     -0.19311       0.44714      -0.40526
                        -----------------------------------------
Magnitude (a.u.)       :      0.63361
Magnitude (Debye)      :      1.61051

Rotational constants in cm-1:     0.020209     0.008040     0.007542
Rotational constants in MHz :   605.836288   241.033654   226.106297

                             ****ORCA TERMINATED NORMALLY****
TOTAL RUN TIME: 0 days 0 hours 0 minutes 22 seconds 310 msec
