                         Program Version 4.2.1 -  RELEASE  -
|  1> ! wB97X-D3 SP def2-SVP
|  2> %pal
|  3> nprocs 24
|  4> end
|  5>
|  6> * xyz 0 1
|  7> S 	 -144.697 	 28.8249 	 -16.716
|  8> C 	 -145.283 	 27.4477 	 -17.6216
|  9> C 	 -144.324 	 26.4735 	 -17.8129
| 10> C 	 -143.19 	 26.7425 	 -16.98
| 11> C 	 -143.193 	 28.0444 	 -16.3975
| 12> H 	 -142.56 	 26.0295 	 -16.557
| 13> C 	 -144.485 	 25.1374 	 -18.4812
| 14> H 	 -143.759 	 25.1952 	 -19.3403
| 15> H 	 -145.481 	 25.0665 	 -18.9924
| 16> C 	 -144.324 	 23.9125 	 -17.5627
| 17> H 	 -143.314 	 23.8844 	 -17.154
| 18> H 	 -144.876 	 24.1192 	 -16.7801
| 19> C 	 -144.485 	 22.6445 	 -18.2895
| 20> H 	 -143.809 	 22.4551 	 -19.0997
| 21> H 	 -144.464 	 21.8059 	 -17.585
| 22> H 	 -145.501 	 22.5286 	 -18.6698
| 23> S 	 -143.107 	 29.2691 	 -14.0133
| 24> C 	 -141.54 	 29.3754 	 -13.149
| 25> C 	 -140.539 	 28.8219 	 -13.8372
| 26> C 	 -140.992 	 28.164 	 -15.0459
| 27> C 	 -142.326 	 28.4495 	 -15.321
| 28> H 	 -139.57 	 28.658 	 -13.3578
| 29> C 	 -139.95 	 27.6675 	 -15.9034
| 30> H 	 -140.438 	 26.9435 	 -16.5816
| 31> H 	 -139.148 	 27.3292 	 -15.331
| 32> C 	 -139.228 	 28.7344 	 -16.7378
| 33> H 	 -138.312 	 28.2929 	 -17.082
| 34> H 	 -138.935 	 29.5495 	 -16.1079
| 35> C 	 -139.949 	 29.3471 	 -17.9143
| 36> H 	 -140.951 	 29.7031 	 -17.6726
| 37> H 	 -140.087 	 28.603 	 -18.693
| 38> H 	 -139.373 	 30.208 	 -18.3494
| 39> H 	 -146.263 	 27.5188 	 -18.0815
| 40> H 	 -141.376 	 29.864 	 -12.1882
| 41> *
| 42>
| 43>                          ****END OF INPUT****

CARTESIAN COORDINATES (ANGSTROEM)
---------------------------------
  S    -144.697000   28.824900  -16.716000
  C    -145.283000   27.447700  -17.621600
  C    -144.324000   26.473500  -17.812900
  C    -143.190000   26.742500  -16.980000
  C    -143.193000   28.044400  -16.397500
  H    -142.560000   26.029500  -16.557000
  C    -144.485000   25.137400  -18.481200
  H    -143.759000   25.195200  -19.340300
  H    -145.481000   25.066500  -18.992400
  C    -144.324000   23.912500  -17.562700
  H    -143.314000   23.884400  -17.154000
  H    -144.876000   24.119200  -16.780100
  C    -144.485000   22.644500  -18.289500
  H    -143.809000   22.455100  -19.099700
  H    -144.464000   21.805900  -17.585000
  H    -145.501000   22.528600  -18.669800
  S    -143.107000   29.269100  -14.013300
  C    -141.540000   29.375400  -13.149000
  C    -140.539000   28.821900  -13.837200
  C    -140.992000   28.164000  -15.045900
  C    -142.326000   28.449500  -15.321000
  H    -139.570000   28.658000  -13.357800
  C    -139.950000   27.667500  -15.903400
  H    -140.438000   26.943500  -16.581600
  H    -139.148000   27.329200  -15.331000
  C    -139.228000   28.734400  -16.737800
  H    -138.312000   28.292900  -17.082000
  H    -138.935000   29.549500  -16.107900
  C    -139.949000   29.347100  -17.914300
  H    -140.951000   29.703100  -17.672600
  H    -140.087000   28.603000  -18.693000
  H    -139.373000   30.208000  -18.349400
  H    -146.263000   27.518800  -18.081500
  H    -141.376000   29.864000  -12.188200

 Total Charge           Charge          ....    0
 Multiplicity           Mult            ....    1
 Number of Electrons    NEL             ....  134
 Basis Dimension        Dim             ....  322

ORBITAL ENERGIES
----------------

  NO   OCC          E(Eh)            E(eV)
   0   2.0000     -88.968186     -2420.9474
   1   2.0000     -88.962427     -2420.7907
   2   2.0000     -10.328930      -281.0645
   3   2.0000     -10.324356      -280.9400
   4   2.0000     -10.315171      -280.6901
   5   2.0000     -10.313968      -280.6573
   6   2.0000     -10.303638      -280.3762
   7   2.0000     -10.297389      -280.2062
   8   2.0000     -10.295022      -280.1418
   9   2.0000     -10.291339      -280.0416
  10   2.0000     -10.288725      -279.9704
  11   2.0000     -10.279558      -279.7210
  12   2.0000     -10.276144      -279.6281
  13   2.0000     -10.275982      -279.6237
  14   2.0000     -10.275805      -279.6189
  15   2.0000     -10.269457      -279.4461
  16   2.0000      -8.083343      -219.9589
  17   2.0000      -8.077236      -219.7928
  18   2.0000      -6.041766      -164.4048
  19   2.0000      -6.037754      -164.2956
  20   2.0000      -6.035926      -164.2459
  21   2.0000      -6.034212      -164.1993
  22   2.0000      -6.031844      -164.1348
  23   2.0000      -6.027660      -164.0210
  24   2.0000      -1.010517       -27.4976
  25   2.0000      -0.985010       -26.8035
  26   2.0000      -0.922757       -25.1095
  27   2.0000      -0.915617       -24.9152
  28   2.0000      -0.878179       -23.8965
  29   2.0000      -0.854336       -23.2477
  30   2.0000      -0.846998       -23.0480
  31   2.0000      -0.815056       -22.1788
  32   2.0000      -0.782507       -21.2931
  33   2.0000      -0.773025       -21.0351
  34   2.0000      -0.718101       -19.5405
  35   2.0000      -0.702635       -19.1197
  36   2.0000      -0.690285       -18.7836
  37   2.0000      -0.665240       -18.1021
  38   2.0000      -0.642163       -17.4741
  39   2.0000      -0.621120       -16.9015
  40   2.0000      -0.594573       -16.1791
  41   2.0000      -0.576330       -15.6827
  42   2.0000      -0.564102       -15.3500
  43   2.0000      -0.553196       -15.0532
  44   2.0000      -0.544308       -14.8114
  45   2.0000      -0.529060       -14.3965
  46   2.0000      -0.521333       -14.1862
  47   2.0000      -0.513789       -13.9809
  48   2.0000      -0.509668       -13.8688
  49   2.0000      -0.499049       -13.5798
  50   2.0000      -0.495790       -13.4911
  51   2.0000      -0.482400       -13.1268
  52   2.0000      -0.470059       -12.7910
  53   2.0000      -0.463482       -12.6120
  54   2.0000      -0.457882       -12.4596
  55   2.0000      -0.446699       -12.1553
  56   2.0000      -0.442813       -12.0496
  57   2.0000      -0.437657       -11.9093
  58   2.0000      -0.431484       -11.7413
  59   2.0000      -0.428514       -11.6605
  60   2.0000      -0.420497       -11.4423
  61   2.0000      -0.415264       -11.2999
  62   2.0000      -0.410032       -11.1575
  63   2.0000      -0.358792        -9.7632
  64   2.0000      -0.330319        -8.9884
  65   2.0000      -0.327028        -8.8989
  66   2.0000      -0.280963        -7.6454
  67   0.0000       0.021304         0.5797
  68   0.0000       0.081672         2.2224
  69   0.0000       0.103081         2.8050
  70   0.0000       0.111739         3.0406
  71   0.0000       0.139132         3.7860

MULLIKEN ATOMIC CHARGES
-----------------------
   0 S :    0.100969
   1 C :   -0.142491
   2 C :   -0.048188
   3 C :   -0.013319
   4 C :   -0.123440
   5 H :    0.018650
   6 C :    0.020727
   7 H :    0.041964
   8 H :    0.020923
   9 C :   -0.010874
  10 H :    0.024132
  11 H :   -0.003565
  12 C :   -0.018240
  13 H :    0.034805
  14 H :    0.026541
  15 H :    0.016718
  16 S :    0.089170
  17 C :   -0.086603
  18 C :   -0.035550
  19 C :   -0.069815
  20 C :   -0.123093
  21 H :    0.029914
  22 C :    0.110375
  23 H :    0.013995
  24 H :    0.000187
  25 C :   -0.056591
  26 H :    0.017869
  27 H :    0.013071
  28 C :   -0.053582
  29 H :    0.037461
  30 H :    0.022361
  31 H :    0.037692
  32 H :    0.053577
  33 H :    0.054247
Sum of atomic charges:   -0.0000000

LOEWDIN ATOMIC CHARGES
----------------------
   0 S :    0.415026
   1 C :   -0.195644
   2 C :   -0.061843
   3 C :   -0.058946
   4 C :   -0.202053
   5 H :    0.018659
   6 C :   -0.033755
   7 H :    0.037670
   8 H :    0.030738
   9 C :   -0.029353
  10 H :    0.028138
  11 H :    0.007164
  12 C :   -0.059651
  13 H :    0.026511
  14 H :    0.030215
  15 H :    0.023907
  16 S :    0.385111
  17 C :   -0.168634
  18 C :   -0.070763
  19 C :   -0.062409
  20 C :   -0.199815
  21 H :    0.037131
  22 C :   -0.032607
  23 H :    0.031408
  24 H :    0.027195
  25 C :   -0.032413
  26 H :    0.020506
  27 H :    0.019947
  28 C :   -0.067074
  29 H :    0.025341
  30 H :    0.020977
  31 H :    0.032269
  32 H :    0.025430
  33 H :    0.031621

  Mayer bond orders larger than 0.100000
B(  0-S ,  1-C ) :   1.1409 B(  0-S ,  4-C ) :   1.1605 B(  1-C ,  2-C ) :   1.5949
B(  1-C , 32-H ) :   0.9673 B(  2-C ,  3-C ) :   1.2418 B(  2-C ,  6-C ) :   1.0323
B(  3-C ,  4-C ) :   1.5530 B(  3-C ,  5-H ) :   0.9824 B(  4-C , 20-C ) :   1.0718
B(  6-C ,  7-H ) :   0.9297 B(  6-C ,  8-H ) :   0.9473 B(  6-C ,  9-C ) :   1.0567
B(  9-C , 10-H ) :   0.9406 B(  9-C , 11-H ) :   0.9556 B(  9-C , 12-C ) :   1.0994
B( 12-C , 13-H ) :   0.9727 B( 12-C , 14-H ) :   0.9680 B( 12-C , 15-H ) :   0.9689
B( 16-S , 17-C ) :   1.1167 B( 16-S , 20-C ) :   1.1255 B( 17-C , 18-C ) :   1.6767
B( 17-C , 33-H ) :   0.9619 B( 18-C , 19-C ) :   1.1965 B( 18-C , 21-H ) :   0.9784
B( 19-C , 20-C ) :   1.5919 B( 19-C , 22-C ) :   1.1014 B( 22-C , 23-H ) :   0.9243
B( 22-C , 24-H ) :   0.9083 B( 22-C , 25-C ) :   1.0770 B( 25-C , 26-H ) :   0.9533
B( 25-C , 27-H ) :   0.9490 B( 25-C , 28-C ) :   1.0885 B( 28-C , 29-H ) :   0.9736
B( 28-C , 30-H ) :   0.9734 B( 28-C , 31-H ) :   0.9709

Dispersion correction           -0.014560752
FINAL SINGLE POINT ENERGY     -1339.857479666782

DIPOLE MOMENT
-------------
                                X             Y             Z
Electronic contribution:    -10.78541      17.91823      14.11532
Nuclear contribution   :     11.06460     -18.50779     -14.16144
                        -----------------------------------------
Total Dipole Moment    :      0.27919      -0.58957      -0.04612
                        -----------------------------------------
Magnitude (a.u.)       :      0.65396
Magnitude (Debye)      :      1.66224

Rotational constants in cm-1:     0.019317     0.008480     0.007415
Rotational constants in MHz :   579.123198   254.224372   222.308061

                             ****ORCA TERMINATED NORMALLY****
TOTAL RUN TIME: 0 days 0 hours 0 minutes 22 seconds 157 msec
