                         Program Version 4.2.1 -  RELEASE  -
|  1> ! wB97X-D3 SP def2-SVP
|  2> %pal
|  3> nprocs 24
|  4> end
|  5>
|  6> * xyz 0 1
|  7> S 	 -83.3126 	 -42.1584 	 -74.6452
|  8> C 	 -83.2031 	 -43.8549 	 -75.189
|  9> C 	 -84.0749 	 -44.6514 	 -74.4748
| 10> C 	 -84.8266 	 -43.8951 	 -73.5273
| 11> C 	 -84.4647 	 -42.5586 	 -73.3681
| 12> H 	 -85.619 	 -44.2708 	 -72.7665
| 13> C 	 -84.1772 	 -46.1842 	 -74.7472
| 14> H 	 -83.7059 	 -46.4941 	 -73.8261
| 15> H 	 -83.4884 	 -46.5668 	 -75.5664
| 16> C 	 -85.6128 	 -46.7836 	 -75.0826
| 17> H 	 -85.5372 	 -47.889 	 -75.1192
| 18> H 	 -86.3283 	 -46.5969 	 -74.3527
| 19> C 	 -86.1015 	 -46.2098 	 -76.4864
| 20> H 	 -86.3362 	 -45.176 	 -76.5738
| 21> H 	 -85.3145 	 -46.4456 	 -77.203
| 22> H 	 -86.9405 	 -46.7904 	 -76.9323
| 23> S 	 -85.6611 	 -40.164 	 -73.4804
| 24> C 	 -86.5131 	 -39.4716 	 -72.0765
| 25> C 	 -86.2972 	 -40.28 	 -70.9807
| 26> C 	 -85.5687 	 -41.4909 	 -71.2418
| 27> C 	 -85.1981 	 -41.5731 	 -72.5835
| 28> H 	 -86.7274 	 -40.1696 	 -70.0123
| 29> C 	 -85.5838 	 -42.5479 	 -70.1552
| 30> H 	 -85.0499 	 -43.3251 	 -70.6833
| 31> H 	 -86.6498 	 -42.7601 	 -69.8986
| 32> C 	 -84.7626 	 -42.2088 	 -68.9307
| 33> H 	 -84.6358 	 -43.1538 	 -68.3487
| 34> H 	 -85.2195 	 -41.5871 	 -68.1955
| 35> C 	 -83.4094 	 -41.5312 	 -69.178
| 36> H 	 -83.5499 	 -40.6559 	 -69.733
| 37> H 	 -82.8665 	 -42.1403 	 -69.8255
| 38> H 	 -82.8727 	 -41.2911 	 -68.2365
| 39> H 	 -82.6268 	 -44.1244 	 -76.1178
| 40> H 	 -87.0282 	 -38.4568 	 -71.9931
| 41> *
| 42>
| 43>                          ****END OF INPUT****

CARTESIAN COORDINATES (ANGSTROEM)
---------------------------------
  S    -83.312600  -42.158400  -74.645200
  C    -83.203100  -43.854900  -75.189000
  C    -84.074900  -44.651400  -74.474800
  C    -84.826600  -43.895100  -73.527300
  C    -84.464700  -42.558600  -73.368100
  H    -85.619000  -44.270800  -72.766500
  C    -84.177200  -46.184200  -74.747200
  H    -83.705900  -46.494100  -73.826100
  H    -83.488400  -46.566800  -75.566400
  C    -85.612800  -46.783600  -75.082600
  H    -85.537200  -47.889000  -75.119200
  H    -86.328300  -46.596900  -74.352700
  C    -86.101500  -46.209800  -76.486400
  H    -86.336200  -45.176000  -76.573800
  H    -85.314500  -46.445600  -77.203000
  H    -86.940500  -46.790400  -76.932300
  S    -85.661100  -40.164000  -73.480400
  C    -86.513100  -39.471600  -72.076500
  C    -86.297200  -40.280000  -70.980700
  C    -85.568700  -41.490900  -71.241800
  C    -85.198100  -41.573100  -72.583500
  H    -86.727400  -40.169600  -70.012300
  C    -85.583800  -42.547900  -70.155200
  H    -85.049900  -43.325100  -70.683300
  H    -86.649800  -42.760100  -69.898600
  C    -84.762600  -42.208800  -68.930700
  H    -84.635800  -43.153800  -68.348700
  H    -85.219500  -41.587100  -68.195500
  C    -83.409400  -41.531200  -69.178000
  H    -83.549900  -40.655900  -69.733000
  H    -82.866500  -42.140300  -69.825500
  H    -82.872700  -41.291100  -68.236500
  H    -82.626800  -44.124400  -76.117800
  H    -87.028200  -38.456800  -71.993100

 Total Charge           Charge          ....    0
 Multiplicity           Mult            ....    1
 Number of Electrons    NEL             ....  134
 Basis Dimension        Dim             ....  322

ORBITAL ENERGIES
----------------

  NO   OCC          E(Eh)            E(eV)
   0   2.0000     -88.966704     -2420.9071
   1   2.0000     -88.965692     -2420.8796
   2   2.0000     -10.333639      -281.1926
   3   2.0000     -10.330335      -281.1027
   4   2.0000     -10.325698      -280.9765
   5   2.0000     -10.321847      -280.8717
   6   2.0000     -10.309654      -280.5399
   7   2.0000     -10.305892      -280.4376
   8   2.0000     -10.304856      -280.4094
   9   2.0000     -10.301472      -280.3173
  10   2.0000     -10.296808      -280.1904
  11   2.0000     -10.295473      -280.1541
  12   2.0000     -10.290770      -280.0261
  13   2.0000     -10.282549      -279.8024
  14   2.0000     -10.279819      -279.7281
  15   2.0000     -10.264425      -279.3092
  16   2.0000      -8.081212      -219.9010
  17   2.0000      -8.079709      -219.8601
  18   2.0000      -6.039908      -164.3542
  19   2.0000      -6.038245      -164.3090
  20   2.0000      -6.035679      -164.2392
  21   2.0000      -6.034341      -164.2028
  22   2.0000      -6.031829      -164.1344
  23   2.0000      -6.030431      -164.0964
  24   2.0000      -1.005882       -27.3714
  25   2.0000      -0.980740       -26.6873
  26   2.0000      -0.914327       -24.8801
  27   2.0000      -0.899958       -24.4891
  28   2.0000      -0.867557       -23.6074
  29   2.0000      -0.848214       -23.0811
  30   2.0000      -0.838538       -22.8178
  31   2.0000      -0.812120       -22.0989
  32   2.0000      -0.782648       -21.2969
  33   2.0000      -0.772875       -21.0310
  34   2.0000      -0.713710       -19.4210
  35   2.0000      -0.701983       -19.1019
  36   2.0000      -0.691609       -18.8196
  37   2.0000      -0.664065       -18.0701
  38   2.0000      -0.637242       -17.3402
  39   2.0000      -0.611784       -16.6475
  40   2.0000      -0.587672       -15.9914
  41   2.0000      -0.562369       -15.3028
  42   2.0000      -0.560443       -15.2504
  43   2.0000      -0.548783       -14.9331
  44   2.0000      -0.541472       -14.7342
  45   2.0000      -0.532347       -14.4859
  46   2.0000      -0.518545       -14.1103
  47   2.0000      -0.505662       -13.7598
  48   2.0000      -0.502779       -13.6813
  49   2.0000      -0.499295       -13.5865
  50   2.0000      -0.486893       -13.2490
  51   2.0000      -0.470231       -12.7956
  52   2.0000      -0.470065       -12.7911
  53   2.0000      -0.465912       -12.6781
  54   2.0000      -0.456576       -12.4241
  55   2.0000      -0.446587       -12.1523
  56   2.0000      -0.445821       -12.1314
  57   2.0000      -0.436523       -11.8784
  58   2.0000      -0.433563       -11.7978
  59   2.0000      -0.430232       -11.7072
  60   2.0000      -0.424093       -11.5402
  61   2.0000      -0.410636       -11.1740
  62   2.0000      -0.402932       -10.9643
  63   2.0000      -0.350703        -9.5431
  64   2.0000      -0.330777        -9.0009
  65   2.0000      -0.329372        -8.9627
  66   2.0000      -0.293267        -7.9802
  67   0.0000       0.025931         0.7056
  68   0.0000       0.070083         1.9070
  69   0.0000       0.106165         2.8889
  70   0.0000       0.117234         3.1901
  71   0.0000       0.132313         3.6004

MULLIKEN ATOMIC CHARGES
-----------------------
   0 S :    0.090452
   1 C :   -0.158110
   2 C :   -0.058932
   3 C :   -0.014137
   4 C :   -0.148505
   5 H :    0.050945
   6 C :    0.023128
   7 H :    0.043527
   8 H :    0.036297
   9 C :   -0.043465
  10 H :    0.038367
  11 H :    0.023729
  12 C :   -0.068717
  13 H :    0.050980
  14 H :    0.016724
  15 H :    0.033396
  16 S :    0.102358
  17 C :   -0.110346
  18 C :   -0.007891
  19 C :   -0.105172
  20 C :   -0.160208
  21 H :    0.007297
  22 C :    0.105936
  23 H :    0.012739
  24 H :    0.057635
  25 C :   -0.103522
  26 H :    0.029450
  27 H :    0.014816
  28 C :   -0.003847
  29 H :    0.026428
  30 H :    0.011567
  31 H :    0.042447
  32 H :    0.078413
  33 H :    0.086221
Sum of atomic charges:    0.0000000

LOEWDIN ATOMIC CHARGES
----------------------
   0 S :    0.379238
   1 C :   -0.194614
   2 C :   -0.068106
   3 C :   -0.076667
   4 C :   -0.197021
   5 H :    0.045422
   6 C :   -0.031653
   7 H :    0.032944
   8 H :    0.036510
   9 C :   -0.030922
  10 H :    0.031513
  11 H :    0.011785
  12 C :   -0.068512
  13 H :    0.024651
  14 H :    0.023033
  15 H :    0.030067
  16 S :    0.404040
  17 C :   -0.191906
  18 C :   -0.067263
  19 C :   -0.065054
  20 C :   -0.199717
  21 H :    0.025381
  22 C :   -0.030608
  23 H :    0.029408
  24 H :    0.043954
  25 C :   -0.046866
  26 H :    0.028634
  27 H :    0.014586
  28 C :   -0.054135
  29 H :    0.020217
  30 H :    0.016692
  31 H :    0.033426
  32 H :    0.042008
  33 H :    0.049536

  Mayer bond orders larger than 0.100000
B(  0-S ,  1-C ) :   1.1323 B(  0-S ,  4-C ) :   1.1440 B(  1-C ,  2-C ) :   1.6031
B(  1-C , 32-H ) :   0.9618 B(  2-C ,  3-C ) :   1.2513 B(  2-C ,  6-C ) :   0.9883
B(  3-C ,  4-C ) :   1.5734 B(  3-C ,  5-H ) :   0.9716 B(  4-C , 20-C ) :   1.0402
B(  6-C ,  7-H ) :   0.9426 B(  6-C ,  8-H ) :   0.9542 B(  6-C ,  9-C ) :   1.0597
B(  9-C , 10-H ) :   0.9585 B(  9-C , 11-H ) :   0.9629 B(  9-C , 12-C ) :   1.0560
B( 12-C , 13-H ) :   0.9811 B( 12-C , 14-H ) :   0.9767 B( 12-C , 15-H ) :   0.9765
B( 16-S , 17-C ) :   1.1328 B( 16-S , 20-C ) :   1.1477 B( 17-C , 18-C ) :   1.6148
B( 17-C , 33-H ) :   0.9586 B( 18-C , 19-C ) :   1.2393 B( 18-C , 21-H ) :   0.9868
B( 19-C , 20-C ) :   1.5971 B( 19-C , 22-C ) :   1.0319 B( 22-C , 23-H ) :   0.9177
B( 22-C , 24-H ) :   0.9442 B( 22-C , 25-C ) :   1.0654 B( 25-C , 26-H ) :   0.9553
B( 25-C , 27-H ) :   0.9549 B( 25-C , 28-C ) :   1.0843 B( 28-C , 29-H ) :   0.9609
B( 28-C , 30-H ) :   0.9748 B( 28-C , 31-H ) :   0.9728

Dispersion correction           -0.014480602
FINAL SINGLE POINT ENERGY     -1339.858685404334

DIPOLE MOMENT
-------------
                                X             Y             Z
Electronic contribution:      2.54994      18.60465      -8.65636
Nuclear contribution   :     -2.83966     -19.12199       8.92953
                        -----------------------------------------
Total Dipole Moment    :     -0.28972      -0.51734       0.27317
                        -----------------------------------------
Magnitude (a.u.)       :      0.65284
Magnitude (Debye)      :      1.65938

Rotational constants in cm-1:     0.020274     0.007949     0.007117
Rotational constants in MHz :   607.795485   238.304371   213.363714

                             ****ORCA TERMINATED NORMALLY****
TOTAL RUN TIME: 0 days 0 hours 0 minutes 21 seconds 492 msec
