                         Program Version 4.2.1 -  RELEASE  -
|  1> ! wB97X-D3 SP def2-SVP
|  2> %pal
|  3> nprocs 24
|  4> end
|  5>
|  6> * xyz 0 1
|  7> S 	 -43.7879 	 -10.9282 	 15.6776
|  8> C 	 -44.6754 	 -10.6435 	 17.1746
|  9> C 	 -43.8828 	 -10.2036 	 18.21
| 10> C 	 -42.5069 	 -10.1229 	 17.829
| 11> C 	 -42.2385 	 -10.5493 	 16.5303
| 12> H 	 -41.7182 	 -9.74589 	 18.4873
| 13> C 	 -44.4474 	 -9.81628 	 19.5702
| 14> H 	 -43.8902 	 -10.2513 	 20.3857
| 15> H 	 -45.3265 	 -10.3697 	 19.5842
| 16> C 	 -44.6559 	 -8.36061 	 19.9057
| 17> H 	 -43.7466 	 -7.80423 	 20.1106
| 18> H 	 -45.1733 	 -7.97376 	 19.0511
| 19> C 	 -45.5465 	 -8.20873 	 21.2023
| 20> H 	 -45.7631 	 -7.15713 	 21.4231
| 21> H 	 -46.4796 	 -8.73754 	 21.1142
| 22> H 	 -44.9708 	 -8.62164 	 22.0268
| 23> S 	 -39.937 	 -12.0624 	 16.6748
| 24> C 	 -38.794 	 -11.9797 	 15.3556
| 25> C 	 -39.099 	 -10.9379 	 14.4857
| 26> C 	 -40.4072 	 -10.3066 	 14.7254
| 27> C 	 -40.9846 	 -10.7759 	 15.9026
| 28> H 	 -38.3851 	 -10.5715 	 13.8027
| 29> C 	 -40.9716 	 -9.17386 	 13.9174
| 30> H 	 -42.0226 	 -9.08099 	 14.0205
| 31> H 	 -40.999 	 -9.51091 	 12.8288
| 32> C 	 -40.3545 	 -7.77587 	 14.2121
| 33> H 	 -41.007 	 -7.03231 	 13.6994
| 34> H 	 -39.3971 	 -7.71517 	 13.7055
| 35> C 	 -40.2767 	 -7.46485 	 15.7413
| 36> H 	 -39.5445 	 -8.02764 	 16.3515
| 37> H 	 -41.2588 	 -7.60279 	 16.1875
| 38> H 	 -40.0003 	 -6.47095 	 15.7496
| 39> H 	 -45.7848 	 -10.727 	 17.1805
| 40> H 	 -37.9515 	 -12.5715 	 15.4397
| 41> *
| 42>
| 43>                          ****END OF INPUT****

CARTESIAN COORDINATES (ANGSTROEM)
---------------------------------
  S    -43.787900  -10.928200   15.677600
  C    -44.675400  -10.643500   17.174600
  C    -43.882800  -10.203600   18.210000
  C    -42.506900  -10.122900   17.829000
  C    -42.238500  -10.549300   16.530300
  H    -41.718200   -9.745890   18.487300
  C    -44.447400   -9.816280   19.570200
  H    -43.890200  -10.251300   20.385700
  H    -45.326500  -10.369700   19.584200
  C    -44.655900   -8.360610   19.905700
  H    -43.746600   -7.804230   20.110600
  H    -45.173300   -7.973760   19.051100
  C    -45.546500   -8.208730   21.202300
  H    -45.763100   -7.157130   21.423100
  H    -46.479600   -8.737540   21.114200
  H    -44.970800   -8.621640   22.026800
  S    -39.937000  -12.062400   16.674800
  C    -38.794000  -11.979700   15.355600
  C    -39.099000  -10.937900   14.485700
  C    -40.407200  -10.306600   14.725400
  C    -40.984600  -10.775900   15.902600
  H    -38.385100  -10.571500   13.802700
  C    -40.971600   -9.173860   13.917400
  H    -42.022600   -9.080990   14.020500
  H    -40.999000   -9.510910   12.828800
  C    -40.354500   -7.775870   14.212100
  H    -41.007000   -7.032310   13.699400
  H    -39.397100   -7.715170   13.705500
  C    -40.276700   -7.464850   15.741300
  H    -39.544500   -8.027640   16.351500
  H    -41.258800   -7.602790   16.187500
  H    -40.000300   -6.470950   15.749600
  H    -45.784800  -10.727000   17.180500
  H    -37.951500  -12.571500   15.439700

 Total Charge           Charge          ....    0
 Multiplicity           Mult            ....    1
 Number of Electrons    NEL             ....  134
 Basis Dimension        Dim             ....  322

ORBITAL ENERGIES
----------------

  NO   OCC          E(Eh)            E(eV)
   0   2.0000     -88.965561     -2420.8760
   1   2.0000     -88.960110     -2420.7276
   2   2.0000     -10.331437      -281.1327
   3   2.0000     -10.327594      -281.0281
   4   2.0000     -10.318468      -280.7798
   5   2.0000     -10.317193      -280.7451
   6   2.0000     -10.308945      -280.5207
   7   2.0000     -10.301617      -280.3212
   8   2.0000     -10.297686      -280.2143
   9   2.0000     -10.297623      -280.2126
  10   2.0000     -10.292037      -280.0606
  11   2.0000     -10.290393      -280.0158
  12   2.0000     -10.285707      -279.8883
  13   2.0000     -10.283510      -279.8285
  14   2.0000     -10.280413      -279.7443
  15   2.0000     -10.271207      -279.4937
  16   2.0000      -8.079176      -219.8456
  17   2.0000      -8.074247      -219.7114
  18   2.0000      -6.037738      -164.2952
  19   2.0000      -6.033948      -164.1921
  20   2.0000      -6.032781      -164.1603
  21   2.0000      -6.029845      -164.0804
  22   2.0000      -6.028861      -164.0536
  23   2.0000      -6.024990      -163.9483
  24   2.0000      -0.996896       -27.1269
  25   2.0000      -0.973973       -26.5032
  26   2.0000      -0.912608       -24.8333
  27   2.0000      -0.903694       -24.5908
  28   2.0000      -0.869147       -23.6507
  29   2.0000      -0.845596       -23.0098
  30   2.0000      -0.841435       -22.8966
  31   2.0000      -0.809790       -22.0355
  32   2.0000      -0.785477       -21.3739
  33   2.0000      -0.770934       -20.9782
  34   2.0000      -0.711267       -19.3546
  35   2.0000      -0.701665       -19.0933
  36   2.0000      -0.693968       -18.8838
  37   2.0000      -0.663320       -18.0499
  38   2.0000      -0.638062       -17.3626
  39   2.0000      -0.616563       -16.7775
  40   2.0000      -0.600243       -16.3334
  41   2.0000      -0.578021       -15.7287
  42   2.0000      -0.558008       -15.1842
  43   2.0000      -0.549386       -14.9496
  44   2.0000      -0.541451       -14.7336
  45   2.0000      -0.523182       -14.2365
  46   2.0000      -0.514131       -13.9902
  47   2.0000      -0.508055       -13.8249
  48   2.0000      -0.506585       -13.7849
  49   2.0000      -0.496327       -13.5057
  50   2.0000      -0.488635       -13.2964
  51   2.0000      -0.472046       -12.8450
  52   2.0000      -0.468037       -12.7359
  53   2.0000      -0.462679       -12.5901
  54   2.0000      -0.457542       -12.4504
  55   2.0000      -0.449266       -12.2252
  56   2.0000      -0.444548       -12.0968
  57   2.0000      -0.437256       -11.8983
  58   2.0000      -0.432666       -11.7734
  59   2.0000      -0.424180       -11.5425
  60   2.0000      -0.420429       -11.4405
  61   2.0000      -0.416986       -11.3468
  62   2.0000      -0.410134       -11.1603
  63   2.0000      -0.340541        -9.2666
  64   2.0000      -0.331894        -9.0313
  65   2.0000      -0.325643        -8.8612
  66   2.0000      -0.293176        -7.9777
  67   0.0000       0.029246         0.7958
  68   0.0000       0.058276         1.5858
  69   0.0000       0.101265         2.7556
  70   0.0000       0.109683         2.9846
  71   0.0000       0.125916         3.4264

MULLIKEN ATOMIC CHARGES
-----------------------
   0 S :    0.104911
   1 C :   -0.148916
   2 C :   -0.086731
   3 C :    0.032681
   4 C :   -0.157284
   5 H :    0.019553
   6 C :    0.099955
   7 H :    0.013021
   8 H :   -0.007325
   9 C :   -0.047053
  10 H :    0.034015
  11 H :    0.022503
  12 C :   -0.058383
  13 H :    0.039854
  14 H :    0.029201
  15 H :    0.029560
  16 S :    0.088049
  17 C :   -0.070777
  18 C :   -0.005703
  19 C :   -0.036639
  20 C :   -0.162844
  21 H :    0.010250
  22 C :    0.049536
  23 H :    0.002930
  24 H :    0.035410
  25 C :   -0.077700
  26 H :    0.037128
  27 H :    0.029029
  28 C :   -0.025485
  29 H :    0.048764
  30 H :    0.036595
  31 H :    0.018231
  32 H :    0.062915
  33 H :    0.040751
Sum of atomic charges:    0.0000000

LOEWDIN ATOMIC CHARGES
----------------------
   0 S :    0.377746
   1 C :   -0.192217
   2 C :   -0.065201
   3 C :   -0.058308
   4 C :   -0.178993
   5 H :    0.035256
   6 C :   -0.030755
   7 H :    0.027902
   8 H :    0.022622
   9 C :   -0.032259
  10 H :    0.024780
  11 H :    0.020023
  12 C :   -0.060378
  13 H :    0.027662
  14 H :    0.020899
  15 H :    0.024015
  16 S :    0.372071
  17 C :   -0.163299
  18 C :   -0.062635
  19 C :   -0.045193
  20 C :   -0.180677
  21 H :    0.023893
  22 C :   -0.047751
  23 H :    0.018710
  24 H :    0.040387
  25 C :   -0.031426
  26 H :    0.030466
  27 H :    0.019056
  28 C :   -0.058946
  29 H :    0.031599
  30 H :    0.028290
  31 H :    0.016525
  32 H :    0.033400
  33 H :    0.012735

  Mayer bond orders larger than 0.100000
B(  0-S ,  1-C ) :   1.1379 B(  0-S ,  4-C ) :   1.1183 B(  1-C ,  2-C ) :   1.6228
B(  1-C , 32-H ) :   0.9598 B(  2-C ,  3-C ) :   1.2287 B(  2-C ,  6-C ) :   1.0215
B(  3-C ,  4-C ) :   1.5695 B(  3-C ,  5-H ) :   0.9950 B(  4-C , 20-C ) :   1.0873
B(  6-C ,  7-H ) :   0.9316 B(  6-C ,  8-H ) :   0.9336 B(  6-C ,  9-C ) :   1.0637
B(  9-C , 10-H ) :   0.9559 B(  9-C , 11-H ) :   0.9553 B(  9-C , 12-C ) :   1.0789
B( 12-C , 13-H ) :   0.9765 B( 12-C , 14-H ) :   0.9780 B( 12-C , 15-H ) :   0.9766
B( 16-S , 17-C ) :   1.1568 B( 16-S , 20-C ) :   1.1073 B( 17-C , 18-C ) :   1.6052
B( 17-C , 33-H ) :   0.9799 B( 18-C , 19-C ) :   1.2008 B( 18-C , 21-H ) :   0.9968
B( 19-C , 20-C ) :   1.5966 B( 19-C , 22-C ) :   1.0663 B( 22-C , 23-H ) :   0.9256
B( 22-C , 24-H ) :   0.9315 B( 22-C , 25-C ) :   1.0558 B( 25-C , 26-H ) :   0.9577
B( 25-C , 27-H ) :   0.9596 B( 25-C , 28-C ) :   1.0695 B( 28-C , 29-H ) :   0.9715
B( 28-C , 30-H ) :   0.9752 B( 28-C , 31-H ) :   0.9718

Dispersion correction           -0.015148242
FINAL SINGLE POINT ENERGY     -1339.876986003959

DIPOLE MOMENT
-------------
                                X             Y             Z
Electronic contribution:      6.39060     -20.48376     -10.52459
Nuclear contribution   :     -6.37959      20.99237      10.69273
                        -----------------------------------------
Total Dipole Moment    :      0.01101       0.50860       0.16814
                        -----------------------------------------
Magnitude (a.u.)       :      0.53579
Magnitude (Debye)      :      1.36187

Rotational constants in cm-1:     0.021639     0.007565     0.007030
Rotational constants in MHz :   648.716875   226.784807   210.743142

                             ****ORCA TERMINATED NORMALLY****
TOTAL RUN TIME: 0 days 0 hours 0 minutes 22 seconds 574 msec
