                         Program Version 4.2.1 -  RELEASE  -
|  1> ! wB97X-D3 SP def2-SVP
|  2> %pal
|  3> nprocs 24
|  4> end
|  5>
|  6> * xyz 0 1
|  7> S 	 -55.5978 	 -54.0894 	 -77.3312
|  8> C 	 -55.388 	 -52.5265 	 -76.4357
|  9> C 	 -55.0539 	 -51.5262 	 -77.295
| 10> C 	 -54.9971 	 -51.9556 	 -78.7155
| 11> C 	 -55.3642 	 -53.3262 	 -78.898
| 12> H 	 -54.6449 	 -51.324 	 -79.58
| 13> C 	 -54.6931 	 -50.1585 	 -76.9117
| 14> H 	 -53.6738 	 -50.0006 	 -77.2137
| 15> H 	 -54.5754 	 -50.0524 	 -75.7964
| 16> C 	 -55.5966 	 -49.0227 	 -77.4609
| 17> H 	 -55.6666 	 -49.113 	 -78.5769
| 18> H 	 -56.6187 	 -49.2216 	 -77.104
| 19> C 	 -55.1082 	 -47.6937 	 -76.9674
| 20> H 	 -55.2492 	 -47.4931 	 -75.897
| 21> H 	 -54.1154 	 -47.5421 	 -77.1724
| 22> H 	 -55.4922 	 -46.8465 	 -77.5164
| 23> S 	 -54.6884 	 -55.4918 	 -80.3737
| 24> C 	 -55.0103 	 -55.4975 	 -82.0564
| 25> C 	 -55.7707 	 -54.4538 	 -82.4547
| 26> C 	 -56.1341 	 -53.6442 	 -81.3416
| 27> C 	 -55.5455 	 -54.0394 	 -80.1549
| 28> H 	 -56.0513 	 -54.3811 	 -83.5069
| 29> C 	 -56.9842 	 -52.4435 	 -81.5265
| 30> H 	 -56.9323 	 -52.3721 	 -82.638
| 31> H 	 -56.5078 	 -51.6249 	 -81.1111
| 32> C 	 -58.3468 	 -52.3874 	 -80.778
| 33> H 	 -58.7917 	 -51.4152 	 -80.8804
| 34> H 	 -58.2255 	 -52.5073 	 -79.74
| 35> C 	 -59.3536 	 -53.4439 	 -81.1335
| 36> H 	 -58.9474 	 -54.4146 	 -80.9507
| 37> H 	 -59.7862 	 -53.3357 	 -82.1745
| 38> H 	 -60.1843 	 -53.3797 	 -80.4471
| 39> H 	 -55.472 	 -52.3745 	 -75.37
| 40> H 	 -54.5764 	 -56.1952 	 -82.7914
| 41> *
| 42>
| 43>                          ****END OF INPUT****

CARTESIAN COORDINATES (ANGSTROEM)
---------------------------------
  S    -55.597800  -54.089400  -77.331200
  C    -55.388000  -52.526500  -76.435700
  C    -55.053900  -51.526200  -77.295000
  C    -54.997100  -51.955600  -78.715500
  C    -55.364200  -53.326200  -78.898000
  H    -54.644900  -51.324000  -79.580000
  C    -54.693100  -50.158500  -76.911700
  H    -53.673800  -50.000600  -77.213700
  H    -54.575400  -50.052400  -75.796400
  C    -55.596600  -49.022700  -77.460900
  H    -55.666600  -49.113000  -78.576900
  H    -56.618700  -49.221600  -77.104000
  C    -55.108200  -47.693700  -76.967400
  H    -55.249200  -47.493100  -75.897000
  H    -54.115400  -47.542100  -77.172400
  H    -55.492200  -46.846500  -77.516400
  S    -54.688400  -55.491800  -80.373700
  C    -55.010300  -55.497500  -82.056400
  C    -55.770700  -54.453800  -82.454700
  C    -56.134100  -53.644200  -81.341600
  C    -55.545500  -54.039400  -80.154900
  H    -56.051300  -54.381100  -83.506900
  C    -56.984200  -52.443500  -81.526500
  H    -56.932300  -52.372100  -82.638000
  H    -56.507800  -51.624900  -81.111100
  C    -58.346800  -52.387400  -80.778000
  H    -58.791700  -51.415200  -80.880400
  H    -58.225500  -52.507300  -79.740000
  C    -59.353600  -53.443900  -81.133500
  H    -58.947400  -54.414600  -80.950700
  H    -59.786200  -53.335700  -82.174500
  H    -60.184300  -53.379700  -80.447100
  H    -55.472000  -52.374500  -75.370000
  H    -54.576400  -56.195200  -82.791400

 Total Charge           Charge          ....    0
 Multiplicity           Mult            ....    1
 Number of Electrons    NEL             ....  134
 Basis Dimension        Dim             ....  322

ORBITAL ENERGIES
----------------

  NO   OCC          E(Eh)            E(eV)
   0   2.0000     -88.965550     -2420.8757
   1   2.0000     -88.965439     -2420.8727
   2   2.0000     -10.339357      -281.3482
   3   2.0000     -10.320680      -280.8400
   4   2.0000     -10.316812      -280.7347
   5   2.0000     -10.313489      -280.6443
   6   2.0000     -10.306965      -280.4668
   7   2.0000     -10.303156      -280.3631
   8   2.0000     -10.299144      -280.2540
   9   2.0000     -10.292895      -280.0839
  10   2.0000     -10.291287      -280.0402
  11   2.0000     -10.290983      -280.0319
  12   2.0000     -10.281728      -279.7800
  13   2.0000     -10.275461      -279.6095
  14   2.0000     -10.271216      -279.4940
  15   2.0000     -10.267225      -279.3854
  16   2.0000      -8.081956      -219.9212
  17   2.0000      -8.079209      -219.8465
  18   2.0000      -6.040285      -164.3645
  19   2.0000      -6.038002      -164.3024
  20   2.0000      -6.036159      -164.2522
  21   2.0000      -6.033890      -164.1905
  22   2.0000      -6.032843      -164.1620
  23   2.0000      -6.029709      -164.0767
  24   2.0000      -1.015046       -27.6208
  25   2.0000      -0.979554       -26.6550
  26   2.0000      -0.916442       -24.9377
  27   2.0000      -0.911272       -24.7970
  28   2.0000      -0.875912       -23.8348
  29   2.0000      -0.855144       -23.2697
  30   2.0000      -0.845679       -23.0121
  31   2.0000      -0.813213       -22.1287
  32   2.0000      -0.783453       -21.3188
  33   2.0000      -0.774668       -21.0798
  34   2.0000      -0.714522       -19.4431
  35   2.0000      -0.705340       -19.1933
  36   2.0000      -0.689399       -18.7595
  37   2.0000      -0.664792       -18.0899
  38   2.0000      -0.635965       -17.3055
  39   2.0000      -0.616305       -16.7705
  40   2.0000      -0.590073       -16.0567
  41   2.0000      -0.573082       -15.5944
  42   2.0000      -0.562967       -15.3191
  43   2.0000      -0.551593       -15.0096
  44   2.0000      -0.546178       -14.8623
  45   2.0000      -0.524938       -14.2843
  46   2.0000      -0.521816       -14.1993
  47   2.0000      -0.509162       -13.8550
  48   2.0000      -0.507630       -13.8133
  49   2.0000      -0.502222       -13.6662
  50   2.0000      -0.490141       -13.3374
  51   2.0000      -0.478144       -13.0110
  52   2.0000      -0.475585       -12.9413
  53   2.0000      -0.468018       -12.7354
  54   2.0000      -0.460846       -12.5403
  55   2.0000      -0.449661       -12.2359
  56   2.0000      -0.440272       -11.9804
  57   2.0000      -0.433625       -11.7995
  58   2.0000      -0.430465       -11.7136
  59   2.0000      -0.426582       -11.6079
  60   2.0000      -0.422413       -11.4945
  61   2.0000      -0.415891       -11.3170
  62   2.0000      -0.410461       -11.1692
  63   2.0000      -0.352036        -9.5794
  64   2.0000      -0.330191        -8.9850
  65   2.0000      -0.325404        -8.8547
  66   2.0000      -0.292150        -7.9498
  67   0.0000       0.027631         0.7519
  68   0.0000       0.072642         1.9767
  69   0.0000       0.104697         2.8489
  70   0.0000       0.121048         3.2939
  71   0.0000       0.132414         3.6032

MULLIKEN ATOMIC CHARGES
-----------------------
   0 S :    0.088231
   1 C :   -0.116507
   2 C :   -0.064339
   3 C :    0.001846
   4 C :   -0.149019
   5 H :    0.048008
   6 C :    0.029248
   7 H :    0.026854
   8 H :    0.017605
   9 C :   -0.082777
  10 H :    0.034694
  11 H :    0.032915
  12 C :    0.007029
  13 H :    0.036723
  14 H :   -0.002583
  15 H :    0.019991
  16 S :    0.123610
  17 C :   -0.094823
  18 C :   -0.050251
  19 C :   -0.078813
  20 C :   -0.140093
  21 H :    0.027542
  22 C :    0.134493
  23 H :    0.015686
  24 H :   -0.006173
  25 C :   -0.044582
  26 H :    0.018129
  27 H :    0.024650
  28 C :   -0.049051
  29 H :    0.031692
  30 H :    0.033976
  31 H :    0.019853
  32 H :    0.044978
  33 H :    0.061257
Sum of atomic charges:    0.0000000

LOEWDIN ATOMIC CHARGES
----------------------
   0 S :    0.368604
   1 C :   -0.180152
   2 C :   -0.062070
   3 C :   -0.072937
   4 C :   -0.184981
   5 H :    0.039733
   6 C :   -0.040626
   7 H :    0.030918
   8 H :    0.032867
   9 C :   -0.038451
  10 H :    0.027757
  11 H :    0.027188
  12 C :   -0.065580
  13 H :    0.031225
  14 H :    0.014150
  15 H :    0.028911
  16 S :    0.445181
  17 C :   -0.195195
  18 C :   -0.079624
  19 C :   -0.053982
  20 C :   -0.226627
  21 H :    0.038414
  22 C :   -0.029971
  23 H :    0.034674
  24 H :    0.021221
  25 C :   -0.031420
  26 H :    0.022263
  27 H :    0.025131
  28 C :   -0.066014
  29 H :    0.022046
  30 H :    0.027032
  31 H :    0.023495
  32 H :    0.030732
  33 H :    0.036088

  Mayer bond orders larger than 0.100000
B(  0-S ,  1-C ) :   1.0933 B(  0-S ,  4-C ) :   1.1453 B(  1-C ,  2-C ) :   1.6604
B(  1-C , 32-H ) :   0.9685 B(  2-C ,  3-C ) :   1.1874 B(  2-C ,  6-C ) :   1.0429
B(  3-C ,  4-C ) :   1.5900 B(  3-C ,  5-H ) :   0.9755 B(  4-C , 20-C ) :   1.0301
B(  6-C ,  7-H ) :   0.9305 B(  6-C ,  8-H ) :   0.9445 B(  6-C ,  9-C ) :   1.0472
B(  9-C , 10-H ) :   0.9550 B(  9-C , 11-H ) :   0.9557 B(  9-C , 12-C ) :   1.0876
B( 12-C , 13-H ) :   0.9726 B( 12-C , 14-H ) :   0.9667 B( 12-C , 15-H ) :   0.9666
B( 16-S , 17-C ) :   1.1778 B( 16-S , 20-C ) :   1.1511 B( 17-C , 18-C ) :   1.6105
B( 17-C , 33-H ) :   0.9588 B( 18-C , 19-C ) :   1.2485 B( 18-C , 21-H ) :   0.9904
B( 19-C , 20-C ) :   1.5685 B( 19-C , 22-C ) :   1.0473 B( 22-C , 23-H ) :   0.9359
B( 22-C , 24-H ) :   0.9153 B( 22-C , 25-C ) :   1.0621 B( 25-C , 26-H ) :   0.9544
B( 25-C , 27-H ) :   0.9511 B( 25-C , 28-C ) :   1.0917 B( 28-C , 29-H ) :   0.9731
B( 28-C , 30-H ) :   0.9754 B( 28-C , 31-H ) :   0.9709

Dispersion correction           -0.014612312
FINAL SINGLE POINT ENERGY     -1339.871338353012

DIPOLE MOMENT
-------------
                                X             Y             Z
Electronic contribution:     10.85670     -25.61400       1.10187
Nuclear contribution   :    -10.80772      26.31061      -1.32542
                        -----------------------------------------
Total Dipole Moment    :      0.04898       0.69661      -0.22355
                        -----------------------------------------
Magnitude (a.u.)       :      0.73323
Magnitude (Debye)      :      1.86373

Rotational constants in cm-1:     0.019651     0.008443     0.007117
Rotational constants in MHz :   589.130796   253.105837   213.358283

                             ****ORCA TERMINATED NORMALLY****
TOTAL RUN TIME: 0 days 0 hours 0 minutes 22 seconds 192 msec
