                         Program Version 4.2.1 -  RELEASE  -
|  1> ! wB97X-D3 SP def2-SVP
|  2> %pal
|  3> nprocs 24
|  4> end
|  5>
|  6> * xyz 0 1
|  7> S 	 -54.0371 	 -50.7209 	 -86.1543
|  8> C 	 -55.0798 	 -49.8325 	 -87.1851
|  9> C 	 -55.5337 	 -48.6081 	 -86.6917
| 10> C 	 -54.6771 	 -48.214 	 -85.5767
| 11> C 	 -53.9288 	 -49.2965 	 -85.0816
| 12> H 	 -54.7144 	 -47.3087 	 -85.0392
| 13> C 	 -56.6037 	 -47.7024 	 -87.2705
| 14> H 	 -57.3351 	 -48.2503 	 -87.8282
| 15> H 	 -56.1008 	 -47.1183 	 -88.1018
| 16> C 	 -57.3389 	 -46.7599 	 -86.2941
| 17> H 	 -56.5756 	 -46.1249 	 -85.9466
| 18> H 	 -58.037 	 -46.1621 	 -86.846
| 19> C 	 -58.0594 	 -47.5336 	 -85.2098
| 20> H 	 -58.8384 	 -48.2036 	 -85.5493
| 21> H 	 -57.4618 	 -48.1517 	 -84.6015
| 22> H 	 -58.4811 	 -46.8497 	 -84.5136
| 23> S 	 -51.2107 	 -48.7592 	 -84.6378
| 24> C 	 -50.6418 	 -48.7292 	 -83.0326
| 25> C 	 -51.6356 	 -49.0662 	 -82.1454
| 26> C 	 -52.8713 	 -49.392 	 -82.8163
| 27> C 	 -52.8783 	 -49.208 	 -84.1511
| 28> H 	 -51.3599 	 -48.9345 	 -81.1025
| 29> C 	 -54.1541 	 -49.9416 	 -82.1424
| 30> H 	 -54.9525 	 -49.7958 	 -82.8954
| 31> H 	 -54.2589 	 -49.3052 	 -81.2908
| 32> C 	 -54.2032 	 -51.3135 	 -81.575
| 33> H 	 -55.0653 	 -51.2714 	 -80.9844
| 34> H 	 -53.378 	 -51.4076 	 -80.8827
| 35> C 	 -54.1083 	 -52.4752 	 -82.6074
| 36> H 	 -55.133 	 -52.6738 	 -82.9987
| 37> H 	 -53.6771 	 -53.3446 	 -82.0759
| 38> H 	 -53.3526 	 -52.2761 	 -83.3923
| 39> H 	 -55.5944 	 -50.3178 	 -88.0123
| 40> H 	 -49.7061 	 -48.4492 	 -82.5979
| 41> *
| 42>
| 43>                          ****END OF INPUT****

CARTESIAN COORDINATES (ANGSTROEM)
---------------------------------
  S    -54.037100  -50.720900  -86.154300
  C    -55.079800  -49.832500  -87.185100
  C    -55.533700  -48.608100  -86.691700
  C    -54.677100  -48.214000  -85.576700
  C    -53.928800  -49.296500  -85.081600
  H    -54.714400  -47.308700  -85.039200
  C    -56.603700  -47.702400  -87.270500
  H    -57.335100  -48.250300  -87.828200
  H    -56.100800  -47.118300  -88.101800
  C    -57.338900  -46.759900  -86.294100
  H    -56.575600  -46.124900  -85.946600
  H    -58.037000  -46.162100  -86.846000
  C    -58.059400  -47.533600  -85.209800
  H    -58.838400  -48.203600  -85.549300
  H    -57.461800  -48.151700  -84.601500
  H    -58.481100  -46.849700  -84.513600
  S    -51.210700  -48.759200  -84.637800
  C    -50.641800  -48.729200  -83.032600
  C    -51.635600  -49.066200  -82.145400
  C    -52.871300  -49.392000  -82.816300
  C    -52.878300  -49.208000  -84.151100
  H    -51.359900  -48.934500  -81.102500
  C    -54.154100  -49.941600  -82.142400
  H    -54.952500  -49.795800  -82.895400
  H    -54.258900  -49.305200  -81.290800
  C    -54.203200  -51.313500  -81.575000
  H    -55.065300  -51.271400  -80.984400
  H    -53.378000  -51.407600  -80.882700
  C    -54.108300  -52.475200  -82.607400
  H    -55.133000  -52.673800  -82.998700
  H    -53.677100  -53.344600  -82.075900
  H    -53.352600  -52.276100  -83.392300
  H    -55.594400  -50.317800  -88.012300
  H    -49.706100  -48.449200  -82.597900

 Total Charge           Charge          ....    0
 Multiplicity           Mult            ....    1
 Number of Electrons    NEL             ....  134
 Basis Dimension        Dim             ....  322

ORBITAL ENERGIES
----------------

  NO   OCC          E(Eh)            E(eV)
   0   2.0000     -88.967540     -2420.9298
   1   2.0000     -88.957436     -2420.6549
   2   2.0000     -10.326450      -280.9970
   3   2.0000     -10.314273      -280.6656
   4   2.0000     -10.314214      -280.6640
   5   2.0000     -10.310151      -280.5535
   6   2.0000     -10.307693      -280.4866
   7   2.0000     -10.300607      -280.2938
   8   2.0000     -10.297115      -280.1987
   9   2.0000     -10.295338      -280.1504
  10   2.0000     -10.288999      -279.9779
  11   2.0000     -10.285854      -279.8923
  12   2.0000     -10.279964      -279.7321
  13   2.0000     -10.278065      -279.6804
  14   2.0000     -10.274008      -279.5700
  15   2.0000     -10.269146      -279.4377
  16   2.0000      -8.082223      -219.9285
  17   2.0000      -8.072591      -219.6664
  18   2.0000      -6.040642      -164.3742
  19   2.0000      -6.036777      -164.2691
  20   2.0000      -6.033039      -164.1673
  21   2.0000      -6.031143      -164.1157
  22   2.0000      -6.027026      -164.0037
  23   2.0000      -6.023252      -163.9010
  24   2.0000      -1.006130       -27.3782
  25   2.0000      -0.982233       -26.7279
  26   2.0000      -0.915648       -24.9161
  27   2.0000      -0.908645       -24.7255
  28   2.0000      -0.875806       -23.8319
  29   2.0000      -0.849367       -23.1125
  30   2.0000      -0.839027       -22.8311
  31   2.0000      -0.814579       -22.1658
  32   2.0000      -0.785771       -21.3819
  33   2.0000      -0.774099       -21.0643
  34   2.0000      -0.717723       -19.5302
  35   2.0000      -0.698022       -18.9941
  36   2.0000      -0.691657       -18.8209
  37   2.0000      -0.650129       -17.6909
  38   2.0000      -0.645380       -17.5617
  39   2.0000      -0.621638       -16.9156
  40   2.0000      -0.586881       -15.9699
  41   2.0000      -0.569159       -15.4876
  42   2.0000      -0.552952       -15.0466
  43   2.0000      -0.548016       -14.9123
  44   2.0000      -0.547904       -14.9092
  45   2.0000      -0.541071       -14.7233
  46   2.0000      -0.518303       -14.1037
  47   2.0000      -0.512946       -13.9580
  48   2.0000      -0.500565       -13.6211
  49   2.0000      -0.496444       -13.5089
  50   2.0000      -0.487544       -13.2667
  51   2.0000      -0.483793       -13.1647
  52   2.0000      -0.469448       -12.7743
  53   2.0000      -0.466031       -12.6813
  54   2.0000      -0.461469       -12.5572
  55   2.0000      -0.451116       -12.2755
  56   2.0000      -0.438636       -11.9359
  57   2.0000      -0.435720       -11.8566
  58   2.0000      -0.429942       -11.6993
  59   2.0000      -0.423889       -11.5346
  60   2.0000      -0.423092       -11.5129
  61   2.0000      -0.413761       -11.2590
  62   2.0000      -0.405116       -11.0238
  63   2.0000      -0.336379        -9.1533
  64   2.0000      -0.324481        -8.8296
  65   2.0000      -0.315458        -8.5841
  66   2.0000      -0.308767        -8.4020
  67   0.0000       0.038957         1.0601
  68   0.0000       0.056802         1.5457
  69   0.0000       0.102881         2.7995
  70   0.0000       0.119890         3.2624
  71   0.0000       0.132545         3.6067

MULLIKEN ATOMIC CHARGES
-----------------------
   0 S :    0.121754
   1 C :   -0.108607
   2 C :   -0.099959
   3 C :    0.055125
   4 C :   -0.221303
   5 H :    0.009323
   6 C :    0.040191
   7 H :    0.009598
   8 H :    0.050146
   9 C :   -0.034743
  10 H :    0.022414
  11 H :    0.026653
  12 C :   -0.018795
  13 H :    0.026221
  14 H :    0.020852
  15 H :    0.021452
  16 S :    0.113491
  17 C :   -0.071037
  18 C :   -0.064017
  19 C :   -0.027792
  20 C :   -0.150445
  21 H :    0.018337
  22 C :    0.070785
  23 H :    0.034787
  24 H :    0.007950
  25 C :   -0.025367
  26 H :    0.017142
  27 H :    0.010418
  28 C :   -0.064929
  29 H :    0.047351
  30 H :    0.032749
  31 H :    0.039137
  32 H :    0.048716
  33 H :    0.042403
Sum of atomic charges:    0.0000000

LOEWDIN ATOMIC CHARGES
----------------------
   0 S :    0.413472
   1 C :   -0.202394
   2 C :   -0.061037
   3 C :   -0.031821
   4 C :   -0.194660
   5 H :    0.025969
   6 C :   -0.037488
   7 H :    0.022599
   8 H :    0.042969
   9 C :   -0.030521
  10 H :    0.017916
  11 H :    0.027275
  12 C :   -0.060193
  13 H :    0.027681
  14 H :    0.020562
  15 H :    0.024380
  16 S :    0.396975
  17 C :   -0.191222
  18 C :   -0.087198
  19 C :   -0.050924
  20 C :   -0.205896
  21 H :    0.032442
  22 C :   -0.028258
  23 H :    0.030087
  24 H :    0.026261
  25 C :   -0.038885
  26 H :    0.020529
  27 H :    0.020313
  28 C :   -0.070418
  29 H :    0.030618
  30 H :    0.029042
  31 H :    0.026203
  32 H :    0.024745
  33 H :    0.030877

  Mayer bond orders larger than 0.100000
B(  0-S ,  1-C ) :   1.1633 B(  0-S ,  4-C ) :   1.1328 B(  1-C ,  2-C ) :   1.6188
B(  1-C , 32-H ) :   0.9586 B(  2-C ,  3-C ) :   1.2125 B(  2-C ,  6-C ) :   1.0173
B(  3-C ,  4-C ) :   1.5934 B(  3-C ,  5-H ) :   0.9892 B(  4-C , 20-C ) :   1.0545
B(  6-C ,  7-H ) :   0.9402 B(  6-C ,  8-H ) :   0.9361 B(  6-C ,  9-C ) :   1.0776
B(  9-C , 10-H ) :   0.9514 B(  9-C , 11-H ) :   0.9518 B(  9-C , 12-C ) :   1.0825
B( 12-C , 13-H ) :   0.9727 B( 12-C , 14-H ) :   0.9716 B( 12-C , 15-H ) :   0.9707
B( 16-S , 17-C ) :   1.1621 B( 16-S , 20-C ) :   1.0931 B( 17-C , 18-C ) :   1.6442
B( 17-C , 33-H ) :   0.9628 B( 18-C , 19-C ) :   1.1960 B( 18-C , 21-H ) :   0.9952
B( 19-C , 20-C ) :   1.6471 B( 19-C , 22-C ) :   1.0342 B( 22-C , 23-H ) :   0.9284
B( 22-C , 24-H ) :   0.9237 B( 22-C , 25-C ) :   1.0911 B( 25-C , 26-H ) :   0.9527
B( 25-C , 27-H ) :   0.9521 B( 25-C , 28-C ) :   1.0640 B( 28-C , 29-H ) :   0.9768
B( 28-C , 30-H ) :   0.9760 B( 28-C , 31-H ) :   0.9766

Dispersion correction           -0.015516420
FINAL SINGLE POINT ENERGY     -1339.863368731154

DIPOLE MOMENT
-------------
                                X             Y             Z
Electronic contribution:     20.03808      -1.16570      -8.19241
Nuclear contribution   :    -20.56590       1.47080       8.44742
                        -----------------------------------------
Total Dipole Moment    :     -0.52782       0.30510       0.25502
                        -----------------------------------------
Magnitude (a.u.)       :      0.66084
Magnitude (Debye)      :      1.67973

Rotational constants in cm-1:     0.019168     0.008936     0.008186
Rotational constants in MHz :   574.629997   267.896775   245.419910

                             ****ORCA TERMINATED NORMALLY****
TOTAL RUN TIME: 0 days 0 hours 0 minutes 22 seconds 494 msec
