                         Program Version 4.2.1 -  RELEASE  -
|  1> ! wB97X-D3 SP def2-SVP
|  2> %pal
|  3> nprocs 24
|  4> end
|  5>
|  6> * xyz 0 1
|  7> S 	 -89.7008 	 -49.6551 	 -81.8456
|  8> C 	 -90.4482 	 -50.2867 	 -80.4251
|  9> C 	 -89.6052 	 -50.2759 	 -79.3213
| 10> C 	 -88.2773 	 -50.0913 	 -79.7531
| 11> C 	 -88.1196 	 -49.967 	 -81.1276
| 12> H 	 -87.4905 	 -49.7659 	 -79.1648
| 13> C 	 -90.0084 	 -50.2324 	 -77.8479
| 14> H 	 -89.3912 	 -49.5007 	 -77.4636
| 15> H 	 -89.6508 	 -51.1798 	 -77.5153
| 16> C 	 -91.5166 	 -50.0812 	 -77.4515
| 17> H 	 -91.9864 	 -49.2408 	 -77.909
| 18> H 	 -91.9912 	 -50.957 	 -77.8873
| 19> C 	 -91.8554 	 -50.1334 	 -75.9522
| 20> H 	 -92.7701 	 -49.5652 	 -75.7132
| 21> H 	 -92.0342 	 -51.1936 	 -75.6903
| 22> H 	 -91.0639 	 -49.7944 	 -75.3244
| 23> S 	 -87.073 	 -47.9938 	 -82.7461
| 24> C 	 -85.3888 	 -47.8671 	 -83.045
| 25> C 	 -84.722 	 -48.9996 	 -82.5957
| 26> C 	 -85.5671 	 -49.8801 	 -81.8387
| 27> C 	 -86.9363 	 -49.4849 	 -81.8863
| 28> H 	 -83.5939 	 -49.0487 	 -82.8443
| 29> C 	 -85.0311 	 -51.1687 	 -81.2199
| 30> H 	 -85.2867 	 -52.0468 	 -81.8859
| 31> H 	 -85.6181 	 -51.2535 	 -80.3481
| 32> C 	 -83.4995 	 -51.2014 	 -80.9816
| 33> H 	 -83.2435 	 -50.3055 	 -80.3973
| 34> H 	 -83.0254 	 -51.1276 	 -81.9142
| 35> C 	 -83.0781 	 -52.4803 	 -80.2679
| 36> H 	 -83.5738 	 -53.3633 	 -80.6739
| 37> H 	 -83.4006 	 -52.4997 	 -79.2518
| 38> H 	 -81.9762 	 -52.6966 	 -80.3204
| 39> H 	 -91.5007 	 -50.2169 	 -80.2313
| 40> H 	 -84.875 	 -47.0775 	 -83.4632
| 41> *
| 42>
| 43>                          ****END OF INPUT****

CARTESIAN COORDINATES (ANGSTROEM)
---------------------------------
  S    -89.700800  -49.655100  -81.845600
  C    -90.448200  -50.286700  -80.425100
  C    -89.605200  -50.275900  -79.321300
  C    -88.277300  -50.091300  -79.753100
  C    -88.119600  -49.967000  -81.127600
  H    -87.490500  -49.765900  -79.164800
  C    -90.008400  -50.232400  -77.847900
  H    -89.391200  -49.500700  -77.463600
  H    -89.650800  -51.179800  -77.515300
  C    -91.516600  -50.081200  -77.451500
  H    -91.986400  -49.240800  -77.909000
  H    -91.991200  -50.957000  -77.887300
  C    -91.855400  -50.133400  -75.952200
  H    -92.770100  -49.565200  -75.713200
  H    -92.034200  -51.193600  -75.690300
  H    -91.063900  -49.794400  -75.324400
  S    -87.073000  -47.993800  -82.746100
  C    -85.388800  -47.867100  -83.045000
  C    -84.722000  -48.999600  -82.595700
  C    -85.567100  -49.880100  -81.838700
  C    -86.936300  -49.484900  -81.886300
  H    -83.593900  -49.048700  -82.844300
  C    -85.031100  -51.168700  -81.219900
  H    -85.286700  -52.046800  -81.885900
  H    -85.618100  -51.253500  -80.348100
  C    -83.499500  -51.201400  -80.981600
  H    -83.243500  -50.305500  -80.397300
  H    -83.025400  -51.127600  -81.914200
  C    -83.078100  -52.480300  -80.267900
  H    -83.573800  -53.363300  -80.673900
  H    -83.400600  -52.499700  -79.251800
  H    -81.976200  -52.696600  -80.320400
  H    -91.500700  -50.216900  -80.231300
  H    -84.875000  -47.077500  -83.463200

 Total Charge           Charge          ....    0
 Multiplicity           Mult            ....    1
 Number of Electrons    NEL             ....  134
 Basis Dimension        Dim             ....  322

ORBITAL ENERGIES
----------------

  NO   OCC          E(Eh)            E(eV)
   0   2.0000     -88.966837     -2420.9107
   1   2.0000     -88.965064     -2420.8625
   2   2.0000     -10.332844      -281.1710
   3   2.0000     -10.328842      -281.0621
   4   2.0000     -10.309251      -280.5290
   5   2.0000     -10.307436      -280.4796
   6   2.0000     -10.306396      -280.4513
   7   2.0000     -10.301325      -280.3133
   8   2.0000     -10.299405      -280.2611
   9   2.0000     -10.291600      -280.0487
  10   2.0000     -10.290305      -280.0134
  11   2.0000     -10.289489      -279.9912
  12   2.0000     -10.288741      -279.9709
  13   2.0000     -10.284213      -279.8477
  14   2.0000     -10.282591      -279.8035
  15   2.0000     -10.277545      -279.6662
  16   2.0000      -8.082299      -219.9305
  17   2.0000      -8.080118      -219.8712
  18   2.0000      -6.040691      -164.3755
  19   2.0000      -6.038589      -164.3184
  20   2.0000      -6.036595      -164.2641
  21   2.0000      -6.034988      -164.2204
  22   2.0000      -6.033245      -164.1729
  23   2.0000      -6.030505      -164.0984
  24   2.0000      -1.009269       -27.4636
  25   2.0000      -0.987450       -26.8699
  26   2.0000      -0.911272       -24.7970
  27   2.0000      -0.908260       -24.7150
  28   2.0000      -0.867765       -23.6131
  29   2.0000      -0.855941       -23.2913
  30   2.0000      -0.846671       -23.0391
  31   2.0000      -0.816709       -22.2238
  32   2.0000      -0.783659       -21.3244
  33   2.0000      -0.769756       -20.9461
  34   2.0000      -0.716272       -19.4908
  35   2.0000      -0.708751       -19.2861
  36   2.0000      -0.695678       -18.9304
  37   2.0000      -0.650846       -17.7104
  38   2.0000      -0.635258       -17.2862
  39   2.0000      -0.617577       -16.8051
  40   2.0000      -0.593276       -16.1439
  41   2.0000      -0.575772       -15.6676
  42   2.0000      -0.570417       -15.5218
  43   2.0000      -0.565107       -15.3774
  44   2.0000      -0.529624       -14.4118
  45   2.0000      -0.524858       -14.2821
  46   2.0000      -0.514188       -13.9918
  47   2.0000      -0.513469       -13.9722
  48   2.0000      -0.502648       -13.6777
  49   2.0000      -0.501291       -13.6408
  50   2.0000      -0.487324       -13.2608
  51   2.0000      -0.482210       -13.1216
  52   2.0000      -0.474646       -12.9158
  53   2.0000      -0.467072       -12.7097
  54   2.0000      -0.458764       -12.4836
  55   2.0000      -0.451462       -12.2849
  56   2.0000      -0.445637       -12.1264
  57   2.0000      -0.438986       -11.9454
  58   2.0000      -0.430186       -11.7060
  59   2.0000      -0.429526       -11.6880
  60   2.0000      -0.426442       -11.6041
  61   2.0000      -0.424076       -11.5397
  62   2.0000      -0.415084       -11.2950
  63   2.0000      -0.350950        -9.5498
  64   2.0000      -0.330794        -9.0014
  65   2.0000      -0.323523        -8.8035
  66   2.0000      -0.283218        -7.7067
  67   0.0000       0.022997         0.6258
  68   0.0000       0.064986         1.7684
  69   0.0000       0.096995         2.6394
  70   0.0000       0.125383         3.4118
  71   0.0000       0.141427         3.8484

MULLIKEN ATOMIC CHARGES
-----------------------
   0 S :    0.092160
   1 C :   -0.087705
   2 C :   -0.138822
   3 C :    0.035044
   4 C :   -0.143942
   5 H :    0.001644
   6 C :    0.115768
   7 H :    0.016126
   8 H :    0.029638
   9 C :   -0.101268
  10 H :    0.031857
  11 H :    0.033595
  12 C :   -0.037365
  13 H :    0.041332
  14 H :    0.033910
  15 H :    0.028437
  16 S :    0.112244
  17 C :   -0.064897
  18 C :   -0.082850
  19 C :   -0.079231
  20 C :   -0.128973
  21 H :    0.055687
  22 C :    0.071260
  23 H :    0.051814
  24 H :    0.005784
  25 C :   -0.075407
  26 H :    0.034027
  27 H :    0.025908
  28 C :   -0.027494
  29 H :    0.019368
  30 H :    0.022704
  31 H :    0.041877
  32 H :    0.041728
  33 H :    0.026044
Sum of atomic charges:    0.0000000

LOEWDIN ATOMIC CHARGES
----------------------
   0 S :    0.407882
   1 C :   -0.211298
   2 C :   -0.053993
   3 C :   -0.060269
   4 C :   -0.179994
   5 H :    0.021133
   6 C :   -0.018517
   7 H :    0.022243
   8 H :    0.034012
   9 C :   -0.041956
  10 H :    0.018616
  11 H :    0.027041
  12 C :   -0.062786
  13 H :    0.032847
  14 H :    0.030161
  15 H :    0.020367
  16 S :    0.434077
  17 C :   -0.192238
  18 C :   -0.086328
  19 C :   -0.058998
  20 C :   -0.217248
  21 H :    0.048643
  22 C :   -0.030438
  23 H :    0.042336
  24 H :    0.020874
  25 C :   -0.037975
  26 H :    0.027242
  27 H :    0.016256
  28 C :   -0.066438
  29 H :    0.024801
  30 H :    0.021615
  31 H :    0.032371
  32 H :    0.020095
  33 H :    0.015865

  Mayer bond orders larger than 0.100000
B(  0-S ,  1-C ) :   1.1484 B(  0-S ,  4-C ) :   1.1616 B(  1-C ,  2-C ) :   1.6123
B(  1-C , 32-H ) :   0.9562 B(  2-C ,  3-C ) :   1.2817 B(  2-C ,  6-C ) :   0.9883
B(  3-C ,  4-C ) :   1.5489 B(  3-C ,  5-H ) :   0.9930 B(  4-C , 20-C ) :   1.0356
B(  6-C ,  7-H ) :   0.9407 B(  6-C ,  8-H ) :   0.9351 B(  6-C ,  9-C ) :   1.0663
B(  9-C , 10-H ) :   0.9634 B(  9-C , 11-H ) :   0.9568 B(  9-C , 12-C ) :   1.0753
B( 12-C , 13-H ) :   0.9755 B( 12-C , 14-H ) :   0.9791 B( 12-C , 15-H ) :   0.9792
B( 16-S , 17-C ) :   1.1776 B( 16-S , 20-C ) :   1.1562 B( 17-C , 18-C ) :   1.5858
B( 17-C , 33-H ) :   0.9731 B( 18-C , 19-C ) :   1.2697 B( 18-C , 21-H ) :   0.9722
B( 19-C , 20-C ) :   1.5637 B( 19-C , 22-C ) :   1.0276 B( 22-C , 23-H ) :   0.9307
B( 22-C , 24-H ) :   0.9319 B( 22-C , 25-C ) :   1.0801 B( 25-C , 26-H ) :   0.9590
B( 25-C , 27-H ) :   0.9437 B( 25-C , 28-C ) :   1.0859 B( 28-C , 29-H ) :   0.9697
B( 28-C , 30-H ) :   0.9736 B( 28-C , 31-H ) :   0.9742

Dispersion correction           -0.013013234
FINAL SINGLE POINT ENERGY     -1339.848666748066

DIPOLE MOMENT
-------------
                                X             Y             Z
Electronic contribution:     -5.06986      12.90462     -22.80300
Nuclear contribution   :      5.30950     -12.82808      23.47058
                        -----------------------------------------
Total Dipole Moment    :      0.23964       0.07654       0.66759
                        -----------------------------------------
Magnitude (a.u.)       :      0.71341
Magnitude (Debye)      :      1.81335

Rotational constants in cm-1:     0.019407     0.007095     0.005622
Rotational constants in MHz :   581.812403   212.705796   168.543999

                             ****ORCA TERMINATED NORMALLY****
TOTAL RUN TIME: 0 days 0 hours 0 minutes 20 seconds 647 msec
