                         Program Version 4.2.1 -  RELEASE  -
|  1> ! wB97X-D3 SP def2-SVP
|  2> %pal
|  3> nprocs 24
|  4> end
|  5>
|  6> * xyz 0 1
|  7> S 	 26.2999 	 -9.66215 	 -114.834
|  8> C 	 27.8724 	 -9.28213 	 -115.618
|  9> C 	 28.6457 	 -8.45012 	 -114.822
| 10> C 	 27.8926 	 -8.07918 	 -113.676
| 11> C 	 26.5887 	 -8.6053 	 -113.564
| 12> H 	 28.0621 	 -7.33906 	 -112.868
| 13> C 	 30.0604 	 -8.09486 	 -115.242
| 14> H 	 30.2862 	 -7.16962 	 -114.791
| 15> H 	 30.1425 	 -8.01008 	 -116.355
| 16> C 	 31.1937 	 -9.08867 	 -114.781
| 17> H 	 32.0781 	 -8.69475 	 -115.175
| 18> H 	 31.3106 	 -9.02327 	 -113.707
| 19> C 	 31.0101 	 -10.5812 	 -115.068
| 20> H 	 31.8724 	 -11.203 	 -114.722
| 21> H 	 30.0874 	 -10.848 	 -114.604
| 22> H 	 30.9801 	 -10.6982 	 -116.2
| 23> S 	 24.8815 	 -10.0455 	 -111.858
| 24> C 	 24.0485 	 -9.26323 	 -110.488
| 25> C 	 24.3659 	 -7.96829 	 -110.571
| 26> C 	 25.2183 	 -7.53276 	 -111.668
| 27> C 	 25.6327 	 -8.57952 	 -112.47
| 28> H 	 24.0496 	 -7.30351 	 -109.724
| 29> C 	 25.719 	 -6.10198 	 -111.641
| 30> H 	 26.4281 	 -5.84249 	 -112.465
| 31> H 	 26.3872 	 -6.21996 	 -110.82
| 32> C 	 24.6112 	 -5.01597 	 -111.531
| 33> H 	 24.0133 	 -5.11946 	 -110.574
| 34> H 	 23.9371 	 -5.24934 	 -112.318
| 35> C 	 25.133 	 -3.57699 	 -111.726
| 36> H 	 24.3088 	 -2.91656 	 -111.574
| 37> H 	 25.5504 	 -3.49343 	 -112.751
| 38> H 	 25.9086 	 -3.31313 	 -110.94
| 39> H 	 28.1747 	 -9.75202 	 -116.559
| 40> H 	 23.436 	 -9.79846 	 -109.754
| 41> *
| 42>
| 43>                          ****END OF INPUT****

CARTESIAN COORDINATES (ANGSTROEM)
---------------------------------
  S     26.299900   -9.662150  -114.834000
  C     27.872400   -9.282130  -115.618000
  C     28.645700   -8.450120  -114.822000
  C     27.892600   -8.079180  -113.676000
  C     26.588700   -8.605300  -113.564000
  H     28.062100   -7.339060  -112.868000
  C     30.060400   -8.094860  -115.242000
  H     30.286200   -7.169620  -114.791000
  H     30.142500   -8.010080  -116.355000
  C     31.193700   -9.088670  -114.781000
  H     32.078100   -8.694750  -115.175000
  H     31.310600   -9.023270  -113.707000
  C     31.010100  -10.581200  -115.068000
  H     31.872400  -11.203000  -114.722000
  H     30.087400  -10.848000  -114.604000
  H     30.980100  -10.698200  -116.200000
  S     24.881500  -10.045500  -111.858000
  C     24.048500   -9.263230  -110.488000
  C     24.365900   -7.968290  -110.571000
  C     25.218300   -7.532760  -111.668000
  C     25.632700   -8.579520  -112.470000
  H     24.049600   -7.303510  -109.724000
  C     25.719000   -6.101980  -111.641000
  H     26.428100   -5.842490  -112.465000
  H     26.387200   -6.219960  -110.820000
  C     24.611200   -5.015970  -111.531000
  H     24.013300   -5.119460  -110.574000
  H     23.937100   -5.249340  -112.318000
  C     25.133000   -3.576990  -111.726000
  H     24.308800   -2.916560  -111.574000
  H     25.550400   -3.493430  -112.751000
  H     25.908600   -3.313130  -110.940000
  H     28.174700   -9.752020  -116.559000
  H     23.436000   -9.798460  -109.754000

 Total Charge           Charge          ....    0
 Multiplicity           Mult            ....    1
 Number of Electrons    NEL             ....  134
 Basis Dimension        Dim             ....  322

ORBITAL ENERGIES
----------------

  NO   OCC          E(Eh)            E(eV)
   0   2.0000     -88.964569     -2420.8490
   1   2.0000     -88.958509     -2420.6841
   2   2.0000     -10.329807      -281.0883
   3   2.0000     -10.328531      -281.0536
   4   2.0000     -10.321200      -280.8541
   5   2.0000     -10.317895      -280.7642
   6   2.0000     -10.308241      -280.5015
   7   2.0000     -10.304973      -280.4126
   8   2.0000     -10.300783      -280.2985
   9   2.0000     -10.298622      -280.2397
  10   2.0000     -10.295780      -280.1624
  11   2.0000     -10.293602      -280.1032
  12   2.0000     -10.291533      -280.0469
  13   2.0000     -10.285278      -279.8767
  14   2.0000     -10.282068      -279.7893
  15   2.0000     -10.280820      -279.7553
  16   2.0000      -8.080104      -219.8708
  17   2.0000      -8.073139      -219.6813
  18   2.0000      -6.038381      -164.3127
  19   2.0000      -6.034339      -164.2027
  20   2.0000      -6.031924      -164.1370
  21   2.0000      -6.031198      -164.1172
  22   2.0000      -6.027608      -164.0196
  23   2.0000      -6.023604      -163.9106
  24   2.0000      -1.010338       -27.4927
  25   2.0000      -0.985503       -26.8169
  26   2.0000      -0.913511       -24.8579
  27   2.0000      -0.906465       -24.6662
  28   2.0000      -0.872563       -23.7436
  29   2.0000      -0.850348       -23.1391
  30   2.0000      -0.839905       -22.8550
  31   2.0000      -0.815001       -22.1773
  32   2.0000      -0.786928       -21.4134
  33   2.0000      -0.772185       -21.0122
  34   2.0000      -0.709535       -19.3074
  35   2.0000      -0.701140       -19.0790
  36   2.0000      -0.693516       -18.8715
  37   2.0000      -0.653919       -17.7940
  38   2.0000      -0.642879       -17.4936
  39   2.0000      -0.613694       -16.6995
  40   2.0000      -0.597836       -16.2679
  41   2.0000      -0.571060       -15.5393
  42   2.0000      -0.561713       -15.2850
  43   2.0000      -0.551136       -14.9972
  44   2.0000      -0.546561       -14.8727
  45   2.0000      -0.531113       -14.4523
  46   2.0000      -0.519867       -14.1463
  47   2.0000      -0.513686       -13.9781
  48   2.0000      -0.506257       -13.7760
  49   2.0000      -0.495712       -13.4890
  50   2.0000      -0.489935       -13.3318
  51   2.0000      -0.479944       -13.0600
  52   2.0000      -0.471628       -12.8337
  53   2.0000      -0.467009       -12.7080
  54   2.0000      -0.461640       -12.5619
  55   2.0000      -0.446803       -12.1581
  56   2.0000      -0.440565       -11.9884
  57   2.0000      -0.440217       -11.9789
  58   2.0000      -0.431462       -11.7407
  59   2.0000      -0.424070       -11.5395
  60   2.0000      -0.419949       -11.4274
  61   2.0000      -0.414487       -11.2788
  62   2.0000      -0.402961       -10.9651
  63   2.0000      -0.354914        -9.6577
  64   2.0000      -0.333244        -9.0680
  65   2.0000      -0.322863        -8.7856
  66   2.0000      -0.292129        -7.9492
  67   0.0000       0.027978         0.7613
  68   0.0000       0.076327         2.0770
  69   0.0000       0.111146         3.0244
  70   0.0000       0.117867         3.2073
  71   0.0000       0.131138         3.5684

MULLIKEN ATOMIC CHARGES
-----------------------
   0 S :    0.103949
   1 C :   -0.140508
   2 C :   -0.072844
   3 C :    0.020476
   4 C :   -0.181494
   5 H :    0.012002
   6 C :    0.085937
   7 H :    0.013690
   8 H :    0.040414
   9 C :   -0.057846
  10 H :    0.014868
  11 H :    0.021487
  12 C :   -0.070482
  13 H :    0.047871
  14 H :    0.051754
  15 H :    0.027289
  16 S :    0.069850
  17 C :   -0.098977
  18 C :   -0.043304
  19 C :   -0.051306
  20 C :   -0.112174
  21 H :    0.037922
  22 C :    0.036246
  23 H :    0.025730
  24 H :    0.035146
  25 C :   -0.091001
  26 H :    0.038216
  27 H :    0.032840
  28 C :   -0.044397
  29 H :    0.033748
  30 H :    0.044828
  31 H :    0.040240
  32 H :    0.057088
  33 H :    0.072741
Sum of atomic charges:   -0.0000000

LOEWDIN ATOMIC CHARGES
----------------------
   0 S :    0.425851
   1 C :   -0.182440
   2 C :   -0.064510
   3 C :   -0.075559
   4 C :   -0.213650
   5 H :    0.032170
   6 C :   -0.021640
   7 H :    0.026180
   8 H :    0.037921
   9 C :   -0.035046
  10 H :    0.013904
  11 H :    0.021644
  12 C :   -0.067797
  13 H :    0.033612
  14 H :    0.023955
  15 H :    0.025795
  16 S :    0.371402
  17 C :   -0.170715
  18 C :   -0.081004
  19 C :   -0.059262
  20 C :   -0.200856
  21 H :    0.037315
  22 C :   -0.039659
  23 H :    0.031401
  24 H :    0.031208
  25 C :   -0.040900
  26 H :    0.027400
  27 H :    0.023853
  28 C :   -0.065599
  29 H :    0.023284
  30 H :    0.030542
  31 H :    0.031669
  32 H :    0.028559
  33 H :    0.040971

  Mayer bond orders larger than 0.100000
B(  0-S ,  1-C ) :   1.1516 B(  0-S ,  4-C ) :   1.1778 B(  1-C ,  2-C ) :   1.5697
B(  1-C ,  4-C ) :   0.1062 B(  1-C , 32-H ) :   0.9708 B(  2-C ,  3-C ) :   1.2524
B(  2-C ,  6-C ) :   1.0221 B(  3-C ,  4-C ) :   1.5436 B(  3-C ,  5-H ) :   0.9866
B(  4-C , 20-C ) :   1.0453 B(  6-C ,  7-H ) :   0.9324 B(  6-C ,  8-H ) :   0.9454
B(  6-C ,  9-C ) :   1.0709 B(  9-C , 10-H ) :   0.9572 B(  9-C , 11-H ) :   0.9552
B(  9-C , 12-C ) :   1.0800 B( 12-C , 13-H ) :   0.9724 B( 12-C , 14-H ) :   0.9707
B( 12-C , 15-H ) :   0.9760 B( 16-S , 17-C ) :   1.1244 B( 16-S , 20-C ) :   1.1175
B( 17-C , 18-C ) :   1.6423 B( 17-C , 33-H ) :   0.9708 B( 18-C , 19-C ) :   1.2132
B( 18-C , 21-H ) :   0.9769 B( 19-C , 20-C ) :   1.6120 B( 19-C , 22-C ) :   1.0362
B( 22-C , 23-H ) :   0.9346 B( 22-C , 24-H ) :   0.9352 B( 22-C , 25-C ) :   1.0446
B( 25-C , 26-H ) :   0.9525 B( 25-C , 27-H ) :   0.9583 B( 25-C , 28-C ) :   1.0911
B( 28-C , 29-H ) :   0.9739 B( 28-C , 30-H ) :   0.9723 B( 28-C , 31-H ) :   0.9751

Dispersion correction           -0.013745452
FINAL SINGLE POINT ENERGY     -1339.870854123528

DIPOLE MOMENT
-------------
                                X             Y             Z
Electronic contribution:    -15.35480     -16.56466      -0.28245
Nuclear contribution   :     15.74707      17.10926       0.55534
                        -----------------------------------------
Total Dipole Moment    :      0.39226       0.54461       0.27290
                        -----------------------------------------
Magnitude (a.u.)       :      0.72453
Magnitude (Debye)      :      1.84160

Rotational constants in cm-1:     0.019512     0.007789     0.006268
Rotational constants in MHz :   584.959136   233.505889   187.918028

                             ****ORCA TERMINATED NORMALLY****
TOTAL RUN TIME: 0 days 0 hours 0 minutes 20 seconds 918 msec
