                         Program Version 4.2.1 -  RELEASE  -
|  1> ! wB97X-D3 SP def2-SVP
|  2> %pal
|  3> nprocs 24
|  4> end
|  5>
|  6> * xyz 0 1
|  7> S 	 -82.8091 	 -36.3168 	 -77.7145
|  8> C 	 -82.2356 	 -36.4147 	 -79.4232
|  9> C 	 -82.7083 	 -35.3304 	 -80.1295
| 10> C 	 -83.4828 	 -34.4255 	 -79.3548
| 11> C 	 -83.6787 	 -34.8471 	 -78.0426
| 12> H 	 -83.8791 	 -33.4784 	 -79.5765
| 13> C 	 -82.5057 	 -35.1549 	 -81.6264
| 14> H 	 -83.4963 	 -35.033 	 -82.1183
| 15> H 	 -82.1645 	 -36.0571 	 -82.0324
| 16> C 	 -81.6291 	 -33.9888 	 -82.1121
| 17> H 	 -81.9011 	 -33.9054 	 -83.1773
| 18> H 	 -81.895 	 -33.0249 	 -81.5975
| 19> C 	 -80.1386 	 -34.2767 	 -82.0045
| 20> H 	 -79.4999 	 -33.3885 	 -81.9472
| 21> H 	 -80.0377 	 -34.8407 	 -81.0933
| 22> H 	 -79.8147 	 -34.8606 	 -82.8006
| 23> S 	 -85.8012 	 -35.3491 	 -76.3556
| 24> C 	 -86.5669 	 -34.1028 	 -75.4403
| 25> C 	 -85.8686 	 -32.896 	 -75.6819
| 26> C 	 -84.7689 	 -33.0036 	 -76.6521
| 27> C 	 -84.6177 	 -34.2817 	 -77.0658
| 28> H 	 -86.2033 	 -32.0694 	 -75.0854
| 29> C 	 -83.9421 	 -31.8059 	 -77.084
| 30> H 	 -84.5117 	 -30.9621 	 -76.7336
| 31> H 	 -83.9003 	 -31.7319 	 -78.1061
| 32> C 	 -82.4519 	 -31.7653 	 -76.6644
| 33> H 	 -81.8908 	 -32.2692 	 -77.4686
| 34> H 	 -82.2042 	 -32.4511 	 -75.7837
| 35> C 	 -81.8437 	 -30.3455 	 -76.5111
| 36> H 	 -81.9466 	 -29.7172 	 -77.4357
| 37> H 	 -80.7821 	 -30.3831 	 -76.3732
| 38> H 	 -82.3113 	 -29.6827 	 -75.7064
| 39> H 	 -81.7436 	 -37.261 	 -79.8319
| 40> H 	 -87.387 	 -34.3063 	 -74.6954
| 41> *
| 42>
| 43>                          ****END OF INPUT****

CARTESIAN COORDINATES (ANGSTROEM)
---------------------------------
  S    -82.809100  -36.316800  -77.714500
  C    -82.235600  -36.414700  -79.423200
  C    -82.708300  -35.330400  -80.129500
  C    -83.482800  -34.425500  -79.354800
  C    -83.678700  -34.847100  -78.042600
  H    -83.879100  -33.478400  -79.576500
  C    -82.505700  -35.154900  -81.626400
  H    -83.496300  -35.033000  -82.118300
  H    -82.164500  -36.057100  -82.032400
  C    -81.629100  -33.988800  -82.112100
  H    -81.901100  -33.905400  -83.177300
  H    -81.895000  -33.024900  -81.597500
  C    -80.138600  -34.276700  -82.004500
  H    -79.499900  -33.388500  -81.947200
  H    -80.037700  -34.840700  -81.093300
  H    -79.814700  -34.860600  -82.800600
  S    -85.801200  -35.349100  -76.355600
  C    -86.566900  -34.102800  -75.440300
  C    -85.868600  -32.896000  -75.681900
  C    -84.768900  -33.003600  -76.652100
  C    -84.617700  -34.281700  -77.065800
  H    -86.203300  -32.069400  -75.085400
  C    -83.942100  -31.805900  -77.084000
  H    -84.511700  -30.962100  -76.733600
  H    -83.900300  -31.731900  -78.106100
  C    -82.451900  -31.765300  -76.664400
  H    -81.890800  -32.269200  -77.468600
  H    -82.204200  -32.451100  -75.783700
  C    -81.843700  -30.345500  -76.511100
  H    -81.946600  -29.717200  -77.435700
  H    -80.782100  -30.383100  -76.373200
  H    -82.311300  -29.682700  -75.706400
  H    -81.743600  -37.261000  -79.831900
  H    -87.387000  -34.306300  -74.695400

 Total Charge           Charge          ....    0
 Multiplicity           Mult            ....    1
 Number of Electrons    NEL             ....  134
 Basis Dimension        Dim             ....  322

ORBITAL ENERGIES
----------------

  NO   OCC          E(Eh)            E(eV)
   0   2.0000     -88.966883     -2420.9120
   1   2.0000     -88.963644     -2420.8238
   2   2.0000     -10.331966      -281.1471
   3   2.0000     -10.324276      -280.9378
   4   2.0000     -10.324102      -280.9331
   5   2.0000     -10.316540      -280.7273
   6   2.0000     -10.306284      -280.4482
   7   2.0000     -10.304702      -280.4052
   8   2.0000     -10.300424      -280.2888
   9   2.0000     -10.293388      -280.0973
  10   2.0000     -10.292411      -280.0707
  11   2.0000     -10.290131      -280.0087
  12   2.0000     -10.289956      -280.0039
  13   2.0000     -10.287217      -279.9294
  14   2.0000     -10.286254      -279.9032
  15   2.0000     -10.268182      -279.4114
  16   2.0000      -8.080956      -219.8940
  17   2.0000      -8.078967      -219.8399
  18   2.0000      -6.039464      -164.3422
  19   2.0000      -6.037439      -164.2871
  20   2.0000      -6.035541      -164.2354
  21   2.0000      -6.033231      -164.1726
  22   2.0000      -6.031773      -164.1329
  23   2.0000      -6.029870      -164.0811
  24   2.0000      -1.007674       -27.4202
  25   2.0000      -0.982794       -26.7432
  26   2.0000      -0.913095       -24.8466
  27   2.0000      -0.906606       -24.6700
  28   2.0000      -0.868439       -23.6314
  29   2.0000      -0.850298       -23.1378
  30   2.0000      -0.841907       -22.9095
  31   2.0000      -0.814672       -22.1684
  32   2.0000      -0.786015       -21.3886
  33   2.0000      -0.778605       -21.1869
  34   2.0000      -0.708558       -19.2808
  35   2.0000      -0.697200       -18.9718
  36   2.0000      -0.690434       -18.7877
  37   2.0000      -0.664037       -18.0694
  38   2.0000      -0.646143       -17.5825
  39   2.0000      -0.621393       -16.9090
  40   2.0000      -0.597016       -16.2456
  41   2.0000      -0.570789       -15.5319
  42   2.0000      -0.558240       -15.1905
  43   2.0000      -0.548041       -14.9130
  44   2.0000      -0.538688       -14.6584
  45   2.0000      -0.523763       -14.2523
  46   2.0000      -0.521680       -14.1956
  47   2.0000      -0.517500       -14.0819
  48   2.0000      -0.503798       -13.7090
  49   2.0000      -0.496631       -13.5140
  50   2.0000      -0.492564       -13.4033
  51   2.0000      -0.483203       -13.1486
  52   2.0000      -0.472822       -12.8661
  53   2.0000      -0.467158       -12.7120
  54   2.0000      -0.460898       -12.5417
  55   2.0000      -0.446411       -12.1474
  56   2.0000      -0.441017       -12.0007
  57   2.0000      -0.438685       -11.9372
  58   2.0000      -0.434359       -11.8195
  59   2.0000      -0.429821       -11.6960
  60   2.0000      -0.418715       -11.3938
  61   2.0000      -0.410176       -11.1614
  62   2.0000      -0.408847       -11.1253
  63   2.0000      -0.346697        -9.4341
  64   2.0000      -0.333081        -9.0636
  65   2.0000      -0.327732        -8.9180
  66   2.0000      -0.297242        -8.0884
  67   0.0000       0.029197         0.7945
  68   0.0000       0.071484         1.9452
  69   0.0000       0.117273         3.1912
  70   0.0000       0.118511         3.2249
  71   0.0000       0.124194         3.3795

MULLIKEN ATOMIC CHARGES
-----------------------
   0 S :    0.099996
   1 C :   -0.121123
   2 C :   -0.059054
   3 C :    0.058923
   4 C :   -0.169715
   5 H :   -0.012835
   6 C :    0.065252
   7 H :    0.036879
   8 H :   -0.005385
   9 C :   -0.087690
  10 H :    0.029693
  11 H :    0.036199
  12 C :   -0.013560
  13 H :    0.035386
  14 H :    0.023776
  15 H :    0.016926
  16 S :    0.111061
  17 C :   -0.128719
  18 C :   -0.046372
  19 C :   -0.050392
  20 C :   -0.143742
  21 H :    0.017342
  22 C :    0.145811
  23 H :    0.012754
  24 H :    0.000819
  25 C :   -0.096881
  26 H :    0.034986
  27 H :    0.049846
  28 C :   -0.076368
  29 H :    0.027965
  30 H :    0.034958
  31 H :    0.044491
  32 H :    0.041011
  33 H :    0.087766
Sum of atomic charges:    0.0000000

LOEWDIN ATOMIC CHARGES
----------------------
   0 S :    0.388715
   1 C :   -0.180135
   2 C :   -0.058389
   3 C :   -0.059337
   4 C :   -0.185788
   5 H :    0.022253
   6 C :   -0.030171
   7 H :    0.038816
   8 H :    0.019161
   9 C :   -0.041101
  10 H :    0.025545
  11 H :    0.026686
  12 C :   -0.061794
  13 H :    0.029021
  14 H :    0.024503
  15 H :    0.016361
  16 S :    0.417545
  17 C :   -0.205629
  18 C :   -0.071951
  19 C :   -0.054790
  20 C :   -0.203258
  21 H :    0.027210
  22 C :   -0.023553
  23 H :    0.030069
  24 H :    0.019295
  25 C :   -0.045583
  26 H :    0.028062
  27 H :    0.033401
  28 C :   -0.075998
  29 H :    0.027462
  30 H :    0.024030
  31 H :    0.030759
  32 H :    0.022892
  33 H :    0.045690

  Mayer bond orders larger than 0.100000
B(  0-S ,  1-C ) :   1.1159 B(  0-S ,  4-C ) :   1.1613 B(  1-C ,  2-C ) :   1.6117
B(  1-C , 32-H ) :   0.9747 B(  2-C ,  3-C ) :   1.2188 B(  2-C ,  6-C ) :   1.0289
B(  3-C ,  4-C ) :   1.5772 B(  3-C ,  5-H ) :   1.0006 B(  4-C , 20-C ) :   1.0244
B(  6-C ,  7-H ) :   0.9405 B(  6-C ,  8-H ) :   0.9387 B(  6-C ,  9-C ) :   1.0650
B(  9-C , 10-H ) :   0.9575 B(  9-C , 11-H ) :   0.9609 B(  9-C , 12-C ) :   1.0692
B( 12-C , 13-H ) :   0.9746 B( 12-C , 14-H ) :   0.9786 B( 12-C , 15-H ) :   0.9742
B( 16-S , 17-C ) :   1.1637 B( 16-S , 20-C ) :   1.1454 B( 17-C , 18-C ) :   1.6002
B( 17-C , 33-H ) :   0.9621 B( 18-C , 19-C ) :   1.2213 B( 18-C , 21-H ) :   0.9941
B( 19-C , 20-C ) :   1.6115 B( 19-C , 22-C ) :   1.0526 B( 22-C , 23-H ) :   0.9346
B( 22-C , 24-H ) :   0.9230 B( 22-C , 25-C ) :   1.0373 B( 25-C , 26-H ) :   0.9508
B( 25-C , 27-H ) :   0.9655 B( 25-C , 28-C ) :   1.0801 B( 28-C , 29-H ) :   0.9731
B( 28-C , 30-H ) :   0.9747 B( 28-C , 31-H ) :   0.9763

Dispersion correction           -0.014384995
FINAL SINGLE POINT ENERGY     -1339.877063746946

DIPOLE MOMENT
-------------
                                X             Y             Z
Electronic contribution:    -16.54137     -19.27833      14.46659
Nuclear contribution   :     16.62095      19.72108     -14.82568
                        -----------------------------------------
Total Dipole Moment    :      0.07958       0.44275      -0.35908
                        -----------------------------------------
Magnitude (a.u.)       :      0.57559
Magnitude (Debye)      :      1.46303

Rotational constants in cm-1:     0.018060     0.009022     0.006868
Rotational constants in MHz :   541.413468   270.485997   205.882667

                             ****ORCA TERMINATED NORMALLY****
TOTAL RUN TIME: 0 days 0 hours 0 minutes 20 seconds 338 msec
