                         Program Version 4.2.1 -  RELEASE  -
|  1> ! wB97X-D3 SP def2-SVP
|  2> %pal
|  3> nprocs 24
|  4> end
|  5>
|  6> * xyz 0 1
|  7> S 	 -120.058 	 59.7038 	 -35.2227
|  8> C 	 -120.386 	 59.2812 	 -33.5329
|  9> C 	 -119.921 	 60.2668 	 -32.6796
| 10> C 	 -119.162 	 61.2219 	 -33.3581
| 11> C 	 -119.204 	 61.1021 	 -34.7087
| 12> H 	 -118.465 	 61.9454 	 -32.9425
| 13> C 	 -120.011 	 60.0958 	 -31.1427
| 14> H 	 -119.051 	 60.249 	 -30.752
| 15> H 	 -120.296 	 59.0639 	 -30.8047
| 16> C 	 -121.058 	 61.041 	 -30.5827
| 17> H 	 -120.997 	 60.9386 	 -29.5121
| 18> H 	 -120.889 	 62.1245 	 -30.8211
| 19> C 	 -122.532 	 60.6763 	 -30.9326
| 20> H 	 -122.704 	 60.7695 	 -31.9853
| 21> H 	 -122.872 	 59.7176 	 -30.5289
| 22> H 	 -123.124 	 61.4145 	 -30.3999
| 23> S 	 -117.367 	 61.0637 	 -36.7657
| 24> C 	 -117.065 	 62.4891 	 -37.5517
| 25> C 	 -117.869 	 63.5586 	 -37.1497
| 26> C 	 -118.679 	 63.2675 	 -36.0465
| 27> C 	 -118.531 	 61.9119 	 -35.7183
| 28> H 	 -117.86 	 64.4774 	 -37.6724
| 29> C 	 -119.529 	 64.2083 	 -35.279
| 30> H 	 -119.265 	 63.9865 	 -34.2563
| 31> H 	 -120.472 	 63.7181 	 -35.3229
| 32> C 	 -119.593 	 65.7325 	 -35.7498
| 33> H 	 -120.528 	 66.0555 	 -35.323
| 34> H 	 -119.723 	 65.8115 	 -36.8028
| 35> C 	 -118.463 	 66.6347 	 -35.2004
| 36> H 	 -118.685 	 67.791 	 -35.3645
| 37> H 	 -117.616 	 66.5415 	 -35.828
| 38> H 	 -118.262 	 66.6131 	 -34.1304
| 39> H 	 -120.9 	 58.3404 	 -33.2213
| 40> H 	 -116.203 	 62.5446 	 -38.1905
| 41> *
| 42>
| 43>                          ****END OF INPUT****

CARTESIAN COORDINATES (ANGSTROEM)
---------------------------------
  S    -120.058000   59.703800  -35.222700
  C    -120.386000   59.281200  -33.532900
  C    -119.921000   60.266800  -32.679600
  C    -119.162000   61.221900  -33.358100
  C    -119.204000   61.102100  -34.708700
  H    -118.465000   61.945400  -32.942500
  C    -120.011000   60.095800  -31.142700
  H    -119.051000   60.249000  -30.752000
  H    -120.296000   59.063900  -30.804700
  C    -121.058000   61.041000  -30.582700
  H    -120.997000   60.938600  -29.512100
  H    -120.889000   62.124500  -30.821100
  C    -122.532000   60.676300  -30.932600
  H    -122.704000   60.769500  -31.985300
  H    -122.872000   59.717600  -30.528900
  H    -123.124000   61.414500  -30.399900
  S    -117.367000   61.063700  -36.765700
  C    -117.065000   62.489100  -37.551700
  C    -117.869000   63.558600  -37.149700
  C    -118.679000   63.267500  -36.046500
  C    -118.531000   61.911900  -35.718300
  H    -117.860000   64.477400  -37.672400
  C    -119.529000   64.208300  -35.279000
  H    -119.265000   63.986500  -34.256300
  H    -120.472000   63.718100  -35.322900
  C    -119.593000   65.732500  -35.749800
  H    -120.528000   66.055500  -35.323000
  H    -119.723000   65.811500  -36.802800
  C    -118.463000   66.634700  -35.200400
  H    -118.685000   67.791000  -35.364500
  H    -117.616000   66.541500  -35.828000
  H    -118.262000   66.613100  -34.130400
  H    -120.900000   58.340400  -33.221300
  H    -116.203000   62.544600  -38.190500

 Total Charge           Charge          ....    0
 Multiplicity           Mult            ....    1
 Number of Electrons    NEL             ....  134
 Basis Dimension        Dim             ....  322

ORBITAL ENERGIES
----------------

  NO   OCC          E(Eh)            E(eV)
   0   2.0000     -88.964844     -2420.8565
   1   2.0000     -88.961346     -2420.7613
   2   2.0000     -10.318878      -280.7909
   3   2.0000     -10.317049      -280.7412
   4   2.0000     -10.312944      -280.6295
   5   2.0000     -10.308586      -280.5109
   6   2.0000     -10.299907      -280.2747
   7   2.0000     -10.297828      -280.2182
   8   2.0000     -10.295624      -280.1582
   9   2.0000     -10.291487      -280.0456
  10   2.0000     -10.289835      -280.0007
  11   2.0000     -10.287909      -279.9482
  12   2.0000     -10.286507      -279.9101
  13   2.0000     -10.286270      -279.9036
  14   2.0000     -10.285947      -279.8948
  15   2.0000     -10.273298      -279.5507
  16   2.0000      -8.080987      -219.8948
  17   2.0000      -8.076567      -219.7746
  18   2.0000      -6.039041      -164.3307
  19   2.0000      -6.035239      -164.2272
  20   2.0000      -6.034900      -164.2180
  21   2.0000      -6.032211      -164.1448
  22   2.0000      -6.031031      -164.1127
  23   2.0000      -6.027459      -164.0155
  24   2.0000      -1.011122       -27.5140
  25   2.0000      -0.988795       -26.9065
  26   2.0000      -0.910967       -24.7887
  27   2.0000      -0.909730       -24.7550
  28   2.0000      -0.864113       -23.5137
  29   2.0000      -0.855565       -23.2811
  30   2.0000      -0.843348       -22.9487
  31   2.0000      -0.810567       -22.0567
  32   2.0000      -0.790609       -21.5136
  33   2.0000      -0.772127       -21.0107
  34   2.0000      -0.716173       -19.4881
  35   2.0000      -0.696634       -18.9564
  36   2.0000      -0.686326       -18.6759
  37   2.0000      -0.653292       -17.7770
  38   2.0000      -0.642093       -17.4722
  39   2.0000      -0.619338       -16.8530
  40   2.0000      -0.602831       -16.4039
  41   2.0000      -0.567861       -15.4523
  42   2.0000      -0.550905       -14.9909
  43   2.0000      -0.546745       -14.8777
  44   2.0000      -0.542071       -14.7505
  45   2.0000      -0.541479       -14.7344
  46   2.0000      -0.517872       -14.0920
  47   2.0000      -0.510218       -13.8837
  48   2.0000      -0.496933       -13.5222
  49   2.0000      -0.490716       -13.3531
  50   2.0000      -0.485484       -13.2107
  51   2.0000      -0.480828       -13.0840
  52   2.0000      -0.471538       -12.8312
  53   2.0000      -0.467649       -12.7254
  54   2.0000      -0.463723       -12.6186
  55   2.0000      -0.451651       -12.2900
  56   2.0000      -0.445064       -12.1108
  57   2.0000      -0.440055       -11.9745
  58   2.0000      -0.435362       -11.8468
  59   2.0000      -0.433749       -11.8029
  60   2.0000      -0.427566       -11.6347
  61   2.0000      -0.410525       -11.1710
  62   2.0000      -0.405816       -11.0428
  63   2.0000      -0.336478        -9.1560
  64   2.0000      -0.332955        -9.0602
  65   2.0000      -0.329952        -8.9784
  66   2.0000      -0.286172        -7.7871
  67   0.0000       0.037354         1.0164
  68   0.0000       0.066032         1.7968
  69   0.0000       0.120518         3.2795
  70   0.0000       0.128092         3.4856
  71   0.0000       0.131287         3.5725

MULLIKEN ATOMIC CHARGES
-----------------------
   0 S :    0.108040
   1 C :   -0.151919
   2 C :   -0.070451
   3 C :    0.022506
   4 C :   -0.176778
   5 H :    0.019769
   6 C :    0.097673
   7 H :    0.016311
   8 H :    0.022783
   9 C :   -0.103559
  10 H :    0.021879
  11 H :    0.037826
  12 C :   -0.042726
  13 H :    0.042603
  14 H :    0.026827
  15 H :    0.027038
  16 S :    0.135017
  17 C :   -0.078904
  18 C :   -0.059148
  19 C :   -0.016360
  20 C :   -0.216897
  21 H :   -0.002583
  22 C :    0.109794
  23 H :    0.014345
  24 H :    0.026427
  25 C :   -0.020967
  26 H :    0.024856
  27 H :    0.029331
  28 C :   -0.068377
  29 H :    0.034027
  30 H :    0.028951
  31 H :    0.046407
  32 H :    0.062646
  33 H :    0.053616
Sum of atomic charges:    0.0000000

LOEWDIN ATOMIC CHARGES
----------------------
   0 S :    0.404252
   1 C :   -0.199752
   2 C :   -0.062164
   3 C :   -0.076489
   4 C :   -0.203708
   5 H :    0.034731
   6 C :   -0.023072
   7 H :    0.021747
   8 H :    0.034037
   9 C :   -0.043509
  10 H :    0.019698
  11 H :    0.027441
  12 C :   -0.061955
  13 H :    0.021999
  14 H :    0.023091
  15 H :    0.026931
  16 S :    0.444207
  17 C :   -0.208143
  18 C :   -0.079463
  19 C :   -0.041220
  20 C :   -0.213927
  21 H :    0.021929
  22 C :   -0.032559
  23 H :    0.035980
  24 H :    0.038557
  25 C :   -0.029526
  26 H :    0.027301
  27 H :    0.023791
  28 C :   -0.072033
  29 H :    0.037880
  30 H :    0.017999
  31 H :    0.027948
  32 H :    0.034408
  33 H :    0.023595

  Mayer bond orders larger than 0.100000
B(  0-S ,  1-C ) :   1.1308 B(  0-S ,  4-C ) :   1.1669 B(  1-C ,  2-C ) :   1.6056
B(  1-C , 32-H ) :   0.9662 B(  2-C ,  3-C ) :   1.2384 B(  2-C ,  6-C ) :   1.0113
B(  3-C ,  4-C ) :   1.5961 B(  3-C ,  5-H ) :   0.9867 B(  4-C , 20-C ) :   1.0217
B(  6-C ,  7-H ) :   0.9427 B(  6-C ,  8-H ) :   0.9482 B(  6-C ,  9-C ) :   1.0687
B(  9-C , 10-H ) :   0.9554 B(  9-C , 11-H ) :   0.9593 B(  9-C , 12-C ) :   1.0764
B( 12-C , 13-H ) :   0.9766 B( 12-C , 14-H ) :   0.9751 B( 12-C , 15-H ) :   0.9734
B( 16-S , 17-C ) :   1.2106 B( 16-S , 20-C ) :   1.1622 B( 17-C , 18-C ) :   1.5318
B( 17-C , 20-C ) :   0.1116 B( 17-C , 33-H ) :   0.9673 B( 18-C , 19-C ) :   1.2923
B( 18-C , 21-H ) :   0.9971 B( 19-C , 20-C ) :   1.5451 B( 19-C , 22-C ) :   1.0195
B( 22-C , 23-H ) :   0.9239 B( 22-C , 24-H ) :   0.9068 B( 22-C , 25-C ) :   1.0610
B( 25-C , 26-H ) :   0.9542 B( 25-C , 27-H ) :   0.9560 B( 25-C , 28-C ) :   1.0730
B( 28-C , 29-H ) :   0.9723 B( 28-C , 30-H ) :   0.9783 B( 28-C , 31-H ) :   0.9762

Dispersion correction           -0.014288798
FINAL SINGLE POINT ENERGY     -1339.867053745031

DIPOLE MOMENT
-------------
                                X             Y             Z
Electronic contribution:     10.25085     -17.79715     -18.31811
Nuclear contribution   :    -10.26028      18.25926      18.72766
                        -----------------------------------------
Total Dipole Moment    :     -0.00943       0.46212       0.40955
                        -----------------------------------------
Magnitude (a.u.)       :      0.61755
Magnitude (Debye)      :      1.56969

Rotational constants in cm-1:     0.018846     0.008616     0.006463
Rotational constants in MHz :   565.002398   258.308809   193.743735

                             ****ORCA TERMINATED NORMALLY****
TOTAL RUN TIME: 0 days 0 hours 0 minutes 21 seconds 594 msec
