                         Program Version 4.2.1 -  RELEASE  -
|  1> ! wB97X-D3 SP def2-SVP
|  2> %pal
|  3> nprocs 24
|  4> end
|  5>
|  6> * xyz 0 1
|  7> S 	 -89.575 	 -6.88482 	 -116.204
|  8> C 	 -90.646 	 -7.98954 	 -115.395
|  9> C 	 -91.5467 	 -7.33405 	 -114.647
| 10> C 	 -91.3798 	 -5.91898 	 -114.586
| 11> C 	 -90.3123 	 -5.52192 	 -115.38
| 12> H 	 -91.9384 	 -5.20413 	 -113.905
| 13> C 	 -92.6617 	 -8.03066 	 -113.907
| 14> H 	 -93.2019 	 -8.69035 	 -114.63
| 15> H 	 -93.3253 	 -7.24683 	 -113.609
| 16> C 	 -92.2756 	 -8.77056 	 -112.596
| 17> H 	 -91.684 	 -8.06105 	 -112
| 18> H 	 -93.0988 	 -9.16537 	 -112.082
| 19> C 	 -91.4597 	 -10.0229 	 -112.91
| 20> H 	 -91.484 	 -10.7298 	 -112.095
| 21> H 	 -91.9908 	 -10.5748 	 -113.679
| 22> H 	 -90.3695 	 -9.88865 	 -113.162
| 23> S 	 -89.3954 	 -3.6776 	 -117.14
| 24> C 	 -88.7711 	 -2.14529 	 -116.599
| 25> C 	 -88.7603 	 -2.13506 	 -115.192
| 26> C 	 -89.3631 	 -3.2641 	 -114.568
| 27> C 	 -89.6787 	 -4.22886 	 -115.541
| 28> H 	 -88.3119 	 -1.35972 	 -114.631
| 29> C 	 -89.5484 	 -3.40103 	 -112.995
| 30> H 	 -90.6353 	 -3.42086 	 -112.806
| 31> H 	 -89.1379 	 -2.49448 	 -112.622
| 32> C 	 -88.7793 	 -4.54378 	 -112.292
| 33> H 	 -89.6053 	 -5.36324 	 -112.371
| 34> H 	 -88.5778 	 -4.28313 	 -111.198
| 35> C 	 -87.4543 	 -4.90604 	 -112.914
| 36> H 	 -86.6213 	 -5.23181 	 -112.242
| 37> H 	 -86.9934 	 -4.06029 	 -113.486
| 38> H 	 -87.5604 	 -5.6826 	 -113.726
| 39> H 	 -90.7258 	 -9.07565 	 -115.54
| 40> H 	 -88.3725 	 -1.30355 	 -117.159
| 41> *
| 42>
| 43>                          ****END OF INPUT****

CARTESIAN COORDINATES (ANGSTROEM)
---------------------------------
  S    -89.575000   -6.884820  -116.204000
  C    -90.646000   -7.989540  -115.395000
  C    -91.546700   -7.334050  -114.647000
  C    -91.379800   -5.918980  -114.586000
  C    -90.312300   -5.521920  -115.380000
  H    -91.938400   -5.204130  -113.905000
  C    -92.661700   -8.030660  -113.907000
  H    -93.201900   -8.690350  -114.630000
  H    -93.325300   -7.246830  -113.609000
  C    -92.275600   -8.770560  -112.596000
  H    -91.684000   -8.061050  -112.000000
  H    -93.098800   -9.165370  -112.082000
  C    -91.459700  -10.022900  -112.910000
  H    -91.484000  -10.729800  -112.095000
  H    -91.990800  -10.574800  -113.679000
  H    -90.369500   -9.888650  -113.162000
  S    -89.395400   -3.677600  -117.140000
  C    -88.771100   -2.145290  -116.599000
  C    -88.760300   -2.135060  -115.192000
  C    -89.363100   -3.264100  -114.568000
  C    -89.678700   -4.228860  -115.541000
  H    -88.311900   -1.359720  -114.631000
  C    -89.548400   -3.401030  -112.995000
  H    -90.635300   -3.420860  -112.806000
  H    -89.137900   -2.494480  -112.622000
  C    -88.779300   -4.543780  -112.292000
  H    -89.605300   -5.363240  -112.371000
  H    -88.577800   -4.283130  -111.198000
  C    -87.454300   -4.906040  -112.914000
  H    -86.621300   -5.231810  -112.242000
  H    -86.993400   -4.060290  -113.486000
  H    -87.560400   -5.682600  -113.726000
  H    -90.725800   -9.075650  -115.540000
  H    -88.372500   -1.303550  -117.159000

 Total Charge           Charge          ....    0
 Multiplicity           Mult            ....    1
 Number of Electrons    NEL             ....  134
 Basis Dimension        Dim             ....  322

ORBITAL ENERGIES
----------------

  NO   OCC          E(Eh)            E(eV)
   0   2.0000     -88.970562     -2421.0121
   1   2.0000     -88.966879     -2420.9118
   2   2.0000     -10.331202      -281.1263
   3   2.0000     -10.324330      -280.9393
   4   2.0000     -10.319497      -280.8078
   5   2.0000     -10.308341      -280.5042
   6   2.0000     -10.306684      -280.4591
   7   2.0000     -10.301699      -280.3235
   8   2.0000     -10.297702      -280.2147
   9   2.0000     -10.296497      -280.1819
  10   2.0000     -10.294338      -280.1232
  11   2.0000     -10.293254      -280.0937
  12   2.0000     -10.289863      -280.0014
  13   2.0000     -10.285908      -279.8938
  14   2.0000     -10.278578      -279.6943
  15   2.0000     -10.276760      -279.6449
  16   2.0000      -8.085557      -220.0192
  17   2.0000      -8.081712      -219.9146
  18   2.0000      -6.044023      -164.4662
  19   2.0000      -6.040278      -164.3643
  20   2.0000      -6.039811      -164.3516
  21   2.0000      -6.036563      -164.2632
  22   2.0000      -6.036158      -164.2522
  23   2.0000      -6.032448      -164.1512
  24   2.0000      -1.011708       -27.5300
  25   2.0000      -0.987806       -26.8796
  26   2.0000      -0.913299       -24.8521
  27   2.0000      -0.902773       -24.5657
  28   2.0000      -0.870205       -23.6795
  29   2.0000      -0.850074       -23.1317
  30   2.0000      -0.843439       -22.9511
  31   2.0000      -0.811050       -22.0698
  32   2.0000      -0.783366       -21.3165
  33   2.0000      -0.774821       -21.0839
  34   2.0000      -0.708421       -19.2771
  35   2.0000      -0.697702       -18.9854
  36   2.0000      -0.680905       -18.5284
  37   2.0000      -0.665806       -18.1175
  38   2.0000      -0.635602       -17.2956
  39   2.0000      -0.616290       -16.7701
  40   2.0000      -0.582939       -15.8626
  41   2.0000      -0.573667       -15.6103
  42   2.0000      -0.561050       -15.2669
  43   2.0000      -0.550789       -14.9877
  44   2.0000      -0.540918       -14.7191
  45   2.0000      -0.538192       -14.6449
  46   2.0000      -0.514696       -14.0056
  47   2.0000      -0.510464       -13.8904
  48   2.0000      -0.500962       -13.6319
  49   2.0000      -0.493687       -13.4339
  50   2.0000      -0.483472       -13.1560
  51   2.0000      -0.480876       -13.0853
  52   2.0000      -0.475624       -12.9424
  53   2.0000      -0.462964       -12.5979
  54   2.0000      -0.460203       -12.5228
  55   2.0000      -0.449514       -12.2319
  56   2.0000      -0.441335       -12.0093
  57   2.0000      -0.436880       -11.8881
  58   2.0000      -0.433685       -11.8012
  59   2.0000      -0.424227       -11.5438
  60   2.0000      -0.416422       -11.3314
  61   2.0000      -0.415696       -11.3117
  62   2.0000      -0.395264       -10.7557
  63   2.0000      -0.349073        -9.4987
  64   2.0000      -0.333921        -9.0865
  65   2.0000      -0.333513        -9.0753
  66   2.0000      -0.290302        -7.8995
  67   0.0000       0.027455         0.7471
  68   0.0000       0.070693         1.9237
  69   0.0000       0.111331         3.0295
  70   0.0000       0.120280         3.2730
  71   0.0000       0.129744         3.5305

MULLIKEN ATOMIC CHARGES
-----------------------
   0 S :    0.110775
   1 C :   -0.107845
   2 C :   -0.120186
   3 C :    0.021578
   4 C :   -0.159249
   5 H :    0.038628
   6 C :    0.046955
   7 H :    0.039757
   8 H :    0.008871
   9 C :   -0.012398
  10 H :    0.032916
  11 H :    0.023441
  12 C :   -0.086568
  13 H :    0.021641
  14 H :    0.015857
  15 H :    0.055524
  16 S :    0.130898
  17 C :   -0.089699
  18 C :   -0.034985
  19 C :   -0.071465
  20 C :   -0.160562
  21 H :    0.001910
  22 C :    0.100781
  23 H :    0.044462
  24 H :    0.001451
  25 C :   -0.111190
  26 H :    0.050218
  27 H :    0.049747
  28 C :   -0.064879
  29 H :    0.041854
  30 H :    0.031306
  31 H :    0.039655
  32 H :    0.050217
  33 H :    0.060586
Sum of atomic charges:   -0.0000000

LOEWDIN ATOMIC CHARGES
----------------------
   0 S :    0.408806
   1 C :   -0.202451
   2 C :   -0.071996
   3 C :   -0.070995
   4 C :   -0.185336
   5 H :    0.044090
   6 C :   -0.031226
   7 H :    0.033418
   8 H :    0.023954
   9 C :   -0.029192
  10 H :    0.027967
  11 H :    0.020566
  12 C :   -0.075306
  13 H :    0.021989
  14 H :    0.020268
  15 H :    0.031731
  16 S :    0.439127
  17 C :   -0.202403
  18 C :   -0.067048
  19 C :   -0.056163
  20 C :   -0.219507
  21 H :    0.021756
  22 C :   -0.024245
  23 H :    0.032509
  24 H :    0.020947
  25 C :   -0.058437
  26 H :    0.034619
  27 H :    0.034198
  28 C :   -0.085681
  29 H :    0.030027
  30 H :    0.030106
  31 H :    0.032993
  32 H :    0.035486
  33 H :    0.035427

  Mayer bond orders larger than 0.100000
B(  0-S ,  1-C ) :   1.1167 B(  0-S ,  4-C ) :   1.1630 B(  1-C ,  2-C ) :   1.6575
B(  1-C , 32-H ) :   0.9561 B(  2-C ,  3-C ) :   1.2335 B(  2-C ,  6-C ) :   1.0136
B(  3-C ,  4-C ) :   1.5766 B(  3-C ,  5-H ) :   0.9816 B(  4-C , 20-C ) :   1.0246
B(  6-C ,  7-H ) :   0.9449 B(  6-C ,  8-H ) :   0.9356 B(  6-C ,  9-C ) :   1.0785
B(  9-C , 10-H ) :   0.9511 B(  9-C , 11-H ) :   0.9546 B(  9-C , 12-C ) :   1.0835
B( 12-C , 13-H ) :   0.9724 B( 12-C , 14-H ) :   0.9714 B( 12-C , 15-H ) :   0.9703
B( 16-S , 17-C ) :   1.1581 B( 16-S , 20-C ) :   1.1786 B( 17-C , 18-C ) :   1.5692
B( 17-C , 20-C ) :   0.1107 B( 17-C , 33-H ) :   0.9692 B( 18-C , 19-C ) :   1.2959
B( 18-C , 21-H ) :   0.9853 B( 19-C , 20-C ) :   1.5388 B( 19-C , 22-C ) :   1.0202
B( 22-C , 23-H ) :   0.9473 B( 22-C , 24-H ) :   0.9263 B( 22-C , 25-C ) :   1.0556
B( 25-C , 26-H ) :   0.9533 B( 25-C , 27-H ) :   0.9618 B( 25-C , 28-C ) :   1.0752
B( 28-C , 29-H ) :   0.9764 B( 28-C , 30-H ) :   0.9711 B( 28-C , 31-H ) :   0.9640

Dispersion correction           -0.016155219
FINAL SINGLE POINT ENERGY     -1339.876302128124

DIPOLE MOMENT
-------------
                                X             Y             Z
Electronic contribution:      3.09095      11.16578     -23.56957
Nuclear contribution   :     -3.28301     -11.14969      24.13614
                        -----------------------------------------
Total Dipole Moment    :     -0.19206       0.01609       0.56657
                        -----------------------------------------
Magnitude (a.u.)       :      0.59845
Magnitude (Debye)      :      1.52114

Rotational constants in cm-1:     0.023535     0.008876     0.007501
Rotational constants in MHz :   705.568934   266.088329   224.884405

                             ****ORCA TERMINATED NORMALLY****
TOTAL RUN TIME: 0 days 0 hours 0 minutes 23 seconds 97 msec
