                         Program Version 4.2.1 -  RELEASE  -
|  1> ! wB97X-D3 SP def2-SVP
|  2> %pal
|  3> nprocs 24
|  4> end
|  5>
|  6> * xyz 0 1
|  7> S 	 15.6296 	 -5.5074 	 -111.073
|  8> C 	 16.1969 	 -5.08145 	 -109.431
|  9> C 	 16.8467 	 -6.18182 	 -108.909
| 10> C 	 17.2279 	 -7.18395 	 -109.847
| 11> C 	 16.7577 	 -6.91166 	 -111.153
| 12> H 	 17.8278 	 -8.05098 	 -109.616
| 13> C 	 17.2903 	 -6.15152 	 -107.437
| 14> H 	 16.9815 	 -7.01024 	 -106.956
| 15> H 	 16.6598 	 -5.48961 	 -106.928
| 16> C 	 18.7641 	 -5.74042 	 -107.263
| 17> H 	 19.1674 	 -5.16973 	 -108.159
| 18> H 	 18.9496 	 -5.12153 	 -106.342
| 19> C 	 19.6335 	 -7.0215 	 -106.858
| 20> H 	 19.794 	 -7.64407 	 -107.682
| 21> H 	 20.5419 	 -6.78817 	 -106.208
| 22> H 	 19.1824 	 -7.74921 	 -106.286
| 23> S 	 18.6443 	 -8.20157 	 -112.761
| 24> C 	 18.1759 	 -8.7357 	 -114.34
| 25> C 	 16.8032 	 -8.51519 	 -114.584
| 26> C 	 16.144 	 -7.87874 	 -113.497
| 27> C 	 16.9959 	 -7.67082 	 -112.386
| 28> H 	 16.3941 	 -8.80777 	 -115.536
| 29> C 	 14.6729 	 -7.4665 	 -113.509
| 30> H 	 14.3414 	 -6.7342 	 -112.795
| 31> H 	 14.1222 	 -8.32366 	 -113.105
| 32> C 	 14.2007 	 -7.1627 	 -114.907
| 33> H 	 14.2585 	 -8.02991 	 -115.581
| 34> H 	 14.8302 	 -6.39438 	 -115.353
| 35> C 	 12.7781 	 -6.72529 	 -115.15
| 36> H 	 12.5365 	 -6.81259 	 -116.181
| 37> H 	 12.7149 	 -5.64834 	 -114.989
| 38> H 	 11.999 	 -7.14233 	 -114.619
| 39> H 	 15.9223 	 -4.22729 	 -108.853
| 40> H 	 18.832 	 -9.13356 	 -115.062
| 41> *
| 42>
| 43>                          ****END OF INPUT****

CARTESIAN COORDINATES (ANGSTROEM)
---------------------------------
  S     15.629600   -5.507400  -111.073000
  C     16.196900   -5.081450  -109.431000
  C     16.846700   -6.181820  -108.909000
  C     17.227900   -7.183950  -109.847000
  C     16.757700   -6.911660  -111.153000
  H     17.827800   -8.050980  -109.616000
  C     17.290300   -6.151520  -107.437000
  H     16.981500   -7.010240  -106.956000
  H     16.659800   -5.489610  -106.928000
  C     18.764100   -5.740420  -107.263000
  H     19.167400   -5.169730  -108.159000
  H     18.949600   -5.121530  -106.342000
  C     19.633500   -7.021500  -106.858000
  H     19.794000   -7.644070  -107.682000
  H     20.541900   -6.788170  -106.208000
  H     19.182400   -7.749210  -106.286000
  S     18.644300   -8.201570  -112.761000
  C     18.175900   -8.735700  -114.340000
  C     16.803200   -8.515190  -114.584000
  C     16.144000   -7.878740  -113.497000
  C     16.995900   -7.670820  -112.386000
  H     16.394100   -8.807770  -115.536000
  C     14.672900   -7.466500  -113.509000
  H     14.341400   -6.734200  -112.795000
  H     14.122200   -8.323660  -113.105000
  C     14.200700   -7.162700  -114.907000
  H     14.258500   -8.029910  -115.581000
  H     14.830200   -6.394380  -115.353000
  C     12.778100   -6.725290  -115.150000
  H     12.536500   -6.812590  -116.181000
  H     12.714900   -5.648340  -114.989000
  H     11.999000   -7.142330  -114.619000
  H     15.922300   -4.227290  -108.853000
  H     18.832000   -9.133560  -115.062000

 Total Charge           Charge          ....    0
 Multiplicity           Mult            ....    1
 Number of Electrons    NEL             ....  134
 Basis Dimension        Dim             ....  322

ORBITAL ENERGIES
----------------

  NO   OCC          E(Eh)            E(eV)
   0   2.0000     -88.970799     -2421.0185
   1   2.0000     -88.965221     -2420.8667
   2   2.0000     -10.340472      -281.3785
   3   2.0000     -10.330961      -281.1197
   4   2.0000     -10.318428      -280.7787
   5   2.0000     -10.313364      -280.6409
   6   2.0000     -10.309238      -280.5286
   7   2.0000     -10.300686      -280.2959
   8   2.0000     -10.298871      -280.2465
   9   2.0000     -10.298294      -280.2308
  10   2.0000     -10.297742      -280.2158
  11   2.0000     -10.289999      -280.0051
  12   2.0000     -10.282052      -279.7889
  13   2.0000     -10.281644      -279.7778
  14   2.0000     -10.272024      -279.5160
  15   2.0000     -10.264782      -279.3189
  16   2.0000      -8.085025      -220.0047
  17   2.0000      -8.078048      -219.8149
  18   2.0000      -6.043454      -164.4508
  19   2.0000      -6.039497      -164.3431
  20   2.0000      -6.036778      -164.2691
  21   2.0000      -6.036018      -164.2484
  22   2.0000      -6.032956      -164.1651
  23   2.0000      -6.028540      -164.0449
  24   2.0000      -0.999195       -27.1895
  25   2.0000      -0.977614       -26.6022
  26   2.0000      -0.914146       -24.8752
  27   2.0000      -0.904215       -24.6049
  28   2.0000      -0.863970       -23.5098
  29   2.0000      -0.855084       -23.2680
  30   2.0000      -0.837072       -22.7779
  31   2.0000      -0.814710       -22.1694
  32   2.0000      -0.789529       -21.4842
  33   2.0000      -0.773610       -21.0510
  34   2.0000      -0.708358       -19.2754
  35   2.0000      -0.707464       -19.2511
  36   2.0000      -0.699743       -19.0410
  37   2.0000      -0.659376       -17.9425
  38   2.0000      -0.633829       -17.2474
  39   2.0000      -0.620163       -16.8755
  40   2.0000      -0.602168       -16.3858
  41   2.0000      -0.571862       -15.5612
  42   2.0000      -0.564993       -15.3742
  43   2.0000      -0.546775       -14.8785
  44   2.0000      -0.536944       -14.6110
  45   2.0000      -0.529214       -14.4007
  46   2.0000      -0.514089       -13.9891
  47   2.0000      -0.509862       -13.8740
  48   2.0000      -0.503367       -13.6973
  49   2.0000      -0.501404       -13.6439
  50   2.0000      -0.489406       -13.3174
  51   2.0000      -0.483408       -13.1542
  52   2.0000      -0.473050       -12.8724
  53   2.0000      -0.469867       -12.7857
  54   2.0000      -0.456612       -12.4250
  55   2.0000      -0.454822       -12.3763
  56   2.0000      -0.446662       -12.1543
  57   2.0000      -0.440314       -11.9816
  58   2.0000      -0.435002       -11.8370
  59   2.0000      -0.421033       -11.4569
  60   2.0000      -0.417247       -11.3539
  61   2.0000      -0.403404       -10.9772
  62   2.0000      -0.397200       -10.8084
  63   2.0000      -0.351778        -9.5724
  64   2.0000      -0.333653        -9.0791
  65   2.0000      -0.328512        -8.9393
  66   2.0000      -0.280343        -7.6285
  67   0.0000       0.017492         0.4760
  68   0.0000       0.067811         1.8452
  69   0.0000       0.104694         2.8489
  70   0.0000       0.116706         3.1757
  71   0.0000       0.131843         3.5876

MULLIKEN ATOMIC CHARGES
-----------------------
   0 S :    0.075258
   1 C :   -0.100254
   2 C :   -0.115736
   3 C :    0.018368
   4 C :   -0.125756
   5 H :    0.014951
   6 C :    0.141994
   7 H :    0.003665
   8 H :   -0.009420
   9 C :   -0.089902
  10 H :    0.065621
  11 H :    0.040322
  12 C :   -0.046745
  13 H :    0.013057
  14 H :    0.044105
  15 H :   -0.002772
  16 S :    0.119947
  17 C :   -0.083127
  18 C :   -0.041747
  19 C :   -0.045119
  20 C :   -0.139525
  21 H :    0.017910
  22 C :    0.114206
  23 H :    0.021273
  24 H :    0.032054
  25 C :   -0.136860
  26 H :    0.031646
  27 H :    0.035192
  28 C :    0.013136
  29 H :    0.015416
  30 H :    0.017762
  31 H :    0.011851
  32 H :    0.043745
  33 H :    0.045484
Sum of atomic charges:   -0.0000000

LOEWDIN ATOMIC CHARGES
----------------------
   0 S :    0.376167
   1 C :   -0.182930
   2 C :   -0.057154
   3 C :   -0.069102
   4 C :   -0.161555
   5 H :    0.030405
   6 C :   -0.026656
   7 H :    0.022138
   8 H :    0.024031
   9 C :   -0.039660
  10 H :    0.038329
  11 H :    0.030493
  12 C :   -0.074688
  13 H :    0.016402
  14 H :    0.035098
  15 H :    0.013547
  16 S :    0.419257
  17 C :   -0.184976
  18 C :   -0.067587
  19 C :   -0.048477
  20 C :   -0.201127
  21 H :    0.030473
  22 C :   -0.039396
  23 H :    0.014595
  24 H :    0.040880
  25 C :   -0.046161
  26 H :    0.024104
  27 H :    0.028722
  28 C :   -0.057965
  29 H :    0.025216
  30 H :    0.025969
  31 H :    0.013370
  32 H :    0.026315
  33 H :    0.021921

  Mayer bond orders larger than 0.100000
B(  0-S ,  1-C ) :   1.1109 B(  0-S ,  4-C ) :   1.1335 B(  1-C ,  2-C ) :   1.6178
B(  1-C , 32-H ) :   0.9735 B(  2-C ,  3-C ) :   1.2291 B(  2-C ,  6-C ) :   1.0385
B(  3-C ,  4-C ) :   1.5441 B(  3-C ,  5-H ) :   0.9969 B(  4-C , 20-C ) :   1.0830
B(  6-C ,  7-H ) :   0.9381 B(  6-C ,  8-H ) :   0.9288 B(  6-C ,  9-C ) :   1.0312
B(  9-C , 10-H ) :   0.9647 B(  9-C , 11-H ) :   0.9648 B(  9-C , 12-C ) :   1.0519
B( 12-C , 13-H ) :   0.9745 B( 12-C , 14-H ) :   0.9788 B( 12-C , 15-H ) :   0.9729
B( 16-S , 17-C ) :   1.1774 B( 16-S , 20-C ) :   1.1436 B( 17-C , 18-C ) :   1.5674
B( 17-C , 20-C ) :   0.1042 B( 17-C , 33-H ) :   0.9707 B( 18-C , 19-C ) :   1.2762
B( 18-C , 21-H ) :   0.9916 B( 19-C , 20-C ) :   1.5380 B( 19-C , 22-C ) :   1.0296
B( 22-C , 23-H ) :   0.9327 B( 22-C , 24-H ) :   0.9112 B( 22-C , 25-C ) :   1.0667
B( 25-C , 26-H ) :   0.9503 B( 25-C , 27-H ) :   0.9611 B( 25-C , 28-C ) :   1.0918
B( 28-C , 29-H ) :   0.9722 B( 28-C , 30-H ) :   0.9696 B( 28-C , 31-H ) :   0.9725

Dispersion correction           -0.013817927
FINAL SINGLE POINT ENERGY     -1339.840374899522

DIPOLE MOMENT
-------------
                                X             Y             Z
Electronic contribution:      5.47240      -1.34484      -6.21426
Nuclear contribution   :     -5.67511       1.20867       6.29998
                        -----------------------------------------
Total Dipole Moment    :     -0.20271      -0.13617       0.08572
                        -----------------------------------------
Magnitude (a.u.)       :      0.25881
Magnitude (Debye)      :      0.65784

Rotational constants in cm-1:     0.022683     0.007690     0.005949
Rotational constants in MHz :   680.004288   230.525496   178.346999

                             ****ORCA TERMINATED NORMALLY****
TOTAL RUN TIME: 0 days 0 hours 0 minutes 20 seconds 857 msec
