                         Program Version 4.2.1 -  RELEASE  -
|  1> ! wB97X-D3 SP def2-SVP
|  2> %pal
|  3> nprocs 24
|  4> end
|  5>
|  6> * xyz 0 1
|  7> S 	 -104.73 	 47.1263 	 -97.7549
|  8> C 	 -106.152 	 48.0601 	 -98.2777
|  9> C 	 -105.956 	 48.7858 	 -99.4524
| 10> C 	 -104.697 	 48.4299 	 -100.045
| 11> C 	 -103.939 	 47.6135 	 -99.2639
| 12> H 	 -104.413 	 48.709 	 -101.017
| 13> C 	 -107.009 	 49.512 	 -100.19
| 14> H 	 -107.634 	 49.942 	 -99.4479
| 15> H 	 -107.448 	 48.6639 	 -100.657
| 16> C 	 -106.544 	 50.6241 	 -101.161
| 17> H 	 -106.048 	 50.2495 	 -102.1
| 18> H 	 -107.499 	 50.9825 	 -101.46
| 19> C 	 -105.704 	 51.7962 	 -100.563
| 20> H 	 -106.016 	 52.1703 	 -99.5914
| 21> H 	 -104.714 	 51.4198 	 -100.248
| 22> H 	 -105.644 	 52.5871 	 -101.292
| 23> S 	 -102.623 	 45.3013 	 -100.053
| 24> C 	 -100.961 	 45.2395 	 -100.214
| 25> C 	 -100.505 	 46.51 	 -100.113
| 26> C 	 -101.39 	 47.4526 	 -99.6078
| 27> C 	 -102.673 	 47.0063 	 -99.7025
| 28> H 	 -99.4336 	 46.588 	 -100.217
| 29> C 	 -101.044 	 48.8767 	 -99.3304
| 30> H 	 -101.946 	 49.471 	 -99.2558
| 31> H 	 -100.481 	 49.3947 	 -100.153
| 32> C 	 -100.122 	 49.1379 	 -98.0523
| 33> H 	 -99.8837 	 50.1483 	 -97.797
| 34> H 	 -99.1011 	 48.685 	 -98.1357
| 35> C 	 -100.771 	 48.5228 	 -96.7744
| 36> H 	 -100.164 	 48.6078 	 -95.9311
| 37> H 	 -101.181 	 47.5184 	 -96.8685
| 38> H 	 -101.598 	 49.1419 	 -96.5005
| 39> H 	 -107.048 	 48.142 	 -97.716
| 40> H 	 -100.441 	 44.3709 	 -100.455
| 41> *
| 42>
| 43>                          ****END OF INPUT****

CARTESIAN COORDINATES (ANGSTROEM)
---------------------------------
  S    -104.730000   47.126300  -97.754900
  C    -106.152000   48.060100  -98.277700
  C    -105.956000   48.785800  -99.452400
  C    -104.697000   48.429900  -100.045000
  C    -103.939000   47.613500  -99.263900
  H    -104.413000   48.709000  -101.017000
  C    -107.009000   49.512000  -100.190000
  H    -107.634000   49.942000  -99.447900
  H    -107.448000   48.663900  -100.657000
  C    -106.544000   50.624100  -101.161000
  H    -106.048000   50.249500  -102.100000
  H    -107.499000   50.982500  -101.460000
  C    -105.704000   51.796200  -100.563000
  H    -106.016000   52.170300  -99.591400
  H    -104.714000   51.419800  -100.248000
  H    -105.644000   52.587100  -101.292000
  S    -102.623000   45.301300  -100.053000
  C    -100.961000   45.239500  -100.214000
  C    -100.505000   46.510000  -100.113000
  C    -101.390000   47.452600  -99.607800
  C    -102.673000   47.006300  -99.702500
  H    -99.433600   46.588000  -100.217000
  C    -101.044000   48.876700  -99.330400
  H    -101.946000   49.471000  -99.255800
  H    -100.481000   49.394700  -100.153000
  C    -100.122000   49.137900  -98.052300
  H    -99.883700   50.148300  -97.797000
  H    -99.101100   48.685000  -98.135700
  C    -100.771000   48.522800  -96.774400
  H    -100.164000   48.607800  -95.931100
  H    -101.181000   47.518400  -96.868500
  H    -101.598000   49.141900  -96.500500
  H    -107.048000   48.142000  -97.716000
  H    -100.441000   44.370900  -100.455000

 Total Charge           Charge          ....    0
 Multiplicity           Mult            ....    1
 Number of Electrons    NEL             ....  134
 Basis Dimension        Dim             ....  322

ORBITAL ENERGIES
----------------

  NO   OCC          E(Eh)            E(eV)
   0   2.0000     -88.967579     -2420.9309
   1   2.0000     -88.956655     -2420.6336
   2   2.0000     -10.326623      -281.0017
   3   2.0000     -10.318127      -280.7705
   4   2.0000     -10.310453      -280.5617
   5   2.0000     -10.304009      -280.3864
   6   2.0000     -10.297247      -280.2023
   7   2.0000     -10.295191      -280.1464
   8   2.0000     -10.294669      -280.1322
   9   2.0000     -10.292567      -280.0750
  10   2.0000     -10.288460      -279.9632
  11   2.0000     -10.287828      -279.9460
  12   2.0000     -10.287134      -279.9271
  13   2.0000     -10.282602      -279.8038
  14   2.0000     -10.281128      -279.7637
  15   2.0000     -10.259588      -279.1776
  16   2.0000      -8.081198      -219.9006
  17   2.0000      -8.073647      -219.6951
  18   2.0000      -6.039790      -164.3510
  19   2.0000      -6.035997      -164.2478
  20   2.0000      -6.031846      -164.1349
  21   2.0000      -6.031813      -164.1340
  22   2.0000      -6.027710      -164.0223
  23   2.0000      -6.024702      -163.9405
  24   2.0000      -1.017394       -27.6847
  25   2.0000      -0.987027       -26.8584
  26   2.0000      -0.915746       -24.9187
  27   2.0000      -0.901289       -24.5253
  28   2.0000      -0.868081       -23.6217
  29   2.0000      -0.848700       -23.0943
  30   2.0000      -0.844604       -22.9828
  31   2.0000      -0.819759       -22.3068
  32   2.0000      -0.784179       -21.3386
  33   2.0000      -0.774576       -21.0773
  34   2.0000      -0.713138       -19.4055
  35   2.0000      -0.700998       -19.0751
  36   2.0000      -0.697588       -18.9823
  37   2.0000      -0.655292       -17.8314
  38   2.0000      -0.639012       -17.3884
  39   2.0000      -0.625927       -17.0323
  40   2.0000      -0.601870       -16.3777
  41   2.0000      -0.569705       -15.5025
  42   2.0000      -0.561538       -15.2802
  43   2.0000      -0.548023       -14.9125
  44   2.0000      -0.538174       -14.6445
  45   2.0000      -0.534115       -14.5340
  46   2.0000      -0.520910       -14.1747
  47   2.0000      -0.516934       -14.0665
  48   2.0000      -0.499716       -13.5980
  49   2.0000      -0.495746       -13.4899
  50   2.0000      -0.486668       -13.2429
  51   2.0000      -0.482857       -13.1392
  52   2.0000      -0.471419       -12.8280
  53   2.0000      -0.462138       -12.5754
  54   2.0000      -0.459378       -12.5003
  55   2.0000      -0.447663       -12.1815
  56   2.0000      -0.443297       -12.0627
  57   2.0000      -0.439010       -11.9461
  58   2.0000      -0.430018       -11.7014
  59   2.0000      -0.423439       -11.5224
  60   2.0000      -0.415497       -11.3063
  61   2.0000      -0.414382       -11.2759
  62   2.0000      -0.410047       -11.1580
  63   2.0000      -0.336818        -9.1653
  64   2.0000      -0.329624        -8.9695
  65   2.0000      -0.320843        -8.7306
  66   2.0000      -0.306298        -8.3348
  67   0.0000       0.041464         1.1283
  68   0.0000       0.063590         1.7304
  69   0.0000       0.111511         3.0344
  70   0.0000       0.124155         3.3784
  71   0.0000       0.129558         3.5255

MULLIKEN ATOMIC CHARGES
-----------------------
   0 S :    0.121567
   1 C :   -0.125971
   2 C :   -0.105102
   3 C :    0.044922
   4 C :   -0.137254
   5 H :   -0.005063
   6 C :    0.083791
   7 H :    0.018196
   8 H :    0.051956
   9 C :   -0.080844
  10 H :    0.041128
  11 H :    0.022748
  12 C :   -0.043168
  13 H :    0.025502
  14 H :    0.031749
  15 H :    0.044225
  16 S :    0.104437
  17 C :   -0.073514
  18 C :   -0.021243
  19 C :   -0.003665
  20 C :   -0.181653
  21 H :    0.010311
  22 C :    0.047530
  23 H :    0.024125
  24 H :    0.040716
  25 C :   -0.082448
  26 H :    0.022513
  27 H :    0.029298
  28 C :   -0.037206
  29 H :    0.011945
  30 H :    0.040512
  31 H :    0.012344
  32 H :    0.029145
  33 H :    0.038472
Sum of atomic charges:   -0.0000000

LOEWDIN ATOMIC CHARGES
----------------------
   0 S :    0.385933
   1 C :   -0.189560
   2 C :   -0.060378
   3 C :   -0.049237
   4 C :   -0.184858
   5 H :    0.024386
   6 C :   -0.029567
   7 H :    0.028918
   8 H :    0.043019
   9 C :   -0.040866
  10 H :    0.029727
  11 H :    0.022337
  12 C :   -0.065829
  13 H :    0.025850
  14 H :    0.028634
  15 H :    0.027529
  16 S :    0.438727
  17 C :   -0.192037
  18 C :   -0.076758
  19 C :   -0.061988
  20 C :   -0.204969
  21 H :    0.027841
  22 C :   -0.030189
  23 H :    0.028169
  24 H :    0.038704
  25 C :   -0.038753
  26 H :    0.020417
  27 H :    0.022980
  28 C :   -0.066576
  29 H :    0.015192
  30 H :    0.024859
  31 H :    0.020971
  32 H :    0.016704
  33 H :    0.020665

  Mayer bond orders larger than 0.100000
B(  0-S ,  1-C ) :   1.1240 B(  0-S ,  4-C ) :   1.1353 B(  1-C ,  2-C ) :   1.6381
B(  1-C , 32-H ) :   0.9703 B(  2-C ,  3-C ) :   1.2074 B(  2-C ,  6-C ) :   1.0084
B(  3-C ,  4-C ) :   1.6120 B(  3-C ,  5-H ) :   0.9980 B(  4-C , 20-C ) :   1.0098
B(  6-C ,  7-H ) :   0.9310 B(  6-C ,  8-H ) :   0.9389 B(  6-C ,  9-C ) :   1.0792
B(  9-C , 10-H ) :   0.9497 B(  9-C , 11-H ) :   0.9553 B(  9-C , 12-C ) :   1.0719
B( 12-C , 13-H ) :   0.9744 B( 12-C , 14-H ) :   0.9711 B( 12-C , 15-H ) :   0.9757
B( 16-S , 17-C ) :   1.1883 B( 16-S , 20-C ) :   1.1660 B( 17-C , 18-C ) :   1.5759
B( 17-C , 33-H ) :   0.9781 B( 18-C , 19-C ) :   1.2553 B( 18-C , 21-H ) :   0.9917
B( 19-C , 20-C ) :   1.5669 B( 19-C , 22-C ) :   1.0510 B( 22-C , 23-H ) :   0.9386
B( 22-C , 24-H ) :   0.9449 B( 22-C , 25-C ) :   1.0513 B( 25-C , 26-H ) :   0.9601
B( 25-C , 27-H ) :   0.9618 B( 25-C , 28-C ) :   1.0728 B( 28-C , 29-H ) :   0.9735
B( 28-C , 30-H ) :   0.9760 B( 28-C , 31-H ) :   0.9740

Dispersion correction           -0.015322190
FINAL SINGLE POINT ENERGY     -1339.861345645086

DIPOLE MOMENT
-------------
                                X             Y             Z
Electronic contribution:     -1.63135     -22.68096       0.66291
Nuclear contribution   :      1.54110      23.14549      -0.92927
                        -----------------------------------------
Total Dipole Moment    :     -0.09025       0.46453      -0.26636
                        -----------------------------------------
Magnitude (a.u.)       :      0.54303
Magnitude (Debye)      :      1.38027

Rotational constants in cm-1:     0.019320     0.008829     0.007957
Rotational constants in MHz :   579.188898   264.677540   238.541345

                             ****ORCA TERMINATED NORMALLY****
TOTAL RUN TIME: 0 days 0 hours 0 minutes 21 seconds 187 msec
