                         Program Version 4.2.1 -  RELEASE  -
|  1> ! wB97X-D3 SP def2-SVP
|  2> %pal
|  3> nprocs 24
|  4> end
|  5>
|  6> * xyz 0 1
|  7> S 	 -90.6501 	 8.13922 	 0.370899
|  8> C 	 -89.1763 	 7.75715 	 -0.514827
|  9> C 	 -88.8433 	 6.45453 	 -0.339285
| 10> C 	 -89.8993 	 5.63654 	 0.166212
| 11> C 	 -90.8773 	 6.3775 	 0.732073
| 12> H 	 -89.8417 	 4.53837 	 0.0892538
| 13> C 	 -87.4378 	 5.85958 	 -0.743574
| 14> H 	 -86.884 	 5.45158 	 0.10646
| 15> H 	 -86.7738 	 6.65084 	 -1.02907
| 16> C 	 -87.4356 	 4.85314 	 -1.87858
| 17> H 	 -88.1397 	 4.03545 	 -1.71716
| 18> H 	 -87.844 	 5.33236 	 -2.75283
| 19> C 	 -86.0687 	 4.14342 	 -2.11435
| 20> H 	 -85.2819 	 4.85368 	 -2.00178
| 21> H 	 -85.9187 	 3.28208 	 -1.44876
| 22> H 	 -86.0756 	 3.77999 	 -3.15421
| 23> S 	 -93.5639 	 5.9347 	 0.500184
| 24> C 	 -94.4999 	 5.62949 	 1.90871
| 25> C 	 -93.7129 	 5.17555 	 2.92619
| 26> C 	 -92.2994 	 5.3808 	 2.66682
| 27> C 	 -92.0936 	 5.87987 	 1.39705
| 28> H 	 -94.0732 	 4.99233 	 3.86194
| 29> C 	 -91.2137 	 5.02609 	 3.71839
| 30> H 	 -91.4963 	 5.47744 	 4.68324
| 31> H 	 -90.2809 	 5.51402 	 3.40906
| 32> C 	 -91.0994 	 3.481 	 3.99217
| 33> H 	 -92.0468 	 3.07486 	 4.28847
| 34> H 	 -90.4864 	 3.36119 	 4.85867
| 35> C 	 -90.3876 	 2.74498 	 2.86293
| 36> H 	 -90.8972 	 2.69676 	 1.89799
| 37> H 	 -90.3095 	 1.67844 	 3.27202
| 38> H 	 -89.3597 	 3.05255 	 2.78147
| 39> H 	 -88.4547 	 8.46802 	 -0.958522
| 40> H 	 -95.5221 	 5.78806 	 1.97458
| 41> *
| 42>
| 43>                          ****END OF INPUT****

CARTESIAN COORDINATES (ANGSTROEM)
---------------------------------
  S    -90.650100    8.139220    0.370899
  C    -89.176300    7.757150   -0.514827
  C    -88.843300    6.454530   -0.339285
  C    -89.899300    5.636540    0.166212
  C    -90.877300    6.377500    0.732073
  H    -89.841700    4.538370    0.089254
  C    -87.437800    5.859580   -0.743574
  H    -86.884000    5.451580    0.106460
  H    -86.773800    6.650840   -1.029070
  C    -87.435600    4.853140   -1.878580
  H    -88.139700    4.035450   -1.717160
  H    -87.844000    5.332360   -2.752830
  C    -86.068700    4.143420   -2.114350
  H    -85.281900    4.853680   -2.001780
  H    -85.918700    3.282080   -1.448760
  H    -86.075600    3.779990   -3.154210
  S    -93.563900    5.934700    0.500184
  C    -94.499900    5.629490    1.908710
  C    -93.712900    5.175550    2.926190
  C    -92.299400    5.380800    2.666820
  C    -92.093600    5.879870    1.397050
  H    -94.073200    4.992330    3.861940
  C    -91.213700    5.026090    3.718390
  H    -91.496300    5.477440    4.683240
  H    -90.280900    5.514020    3.409060
  C    -91.099400    3.481000    3.992170
  H    -92.046800    3.074860    4.288470
  H    -90.486400    3.361190    4.858670
  C    -90.387600    2.744980    2.862930
  H    -90.897200    2.696760    1.897990
  H    -90.309500    1.678440    3.272020
  H    -89.359700    3.052550    2.781470
  H    -88.454700    8.468020   -0.958522
  H    -95.522100    5.788060    1.974580

 Total Charge           Charge          ....    0
 Multiplicity           Mult            ....    1
 Number of Electrons    NEL             ....  134
 Basis Dimension        Dim             ....  322

ORBITAL ENERGIES
----------------

  NO   OCC          E(Eh)            E(eV)
   0   2.0000     -88.964033     -2420.8344
   1   2.0000     -88.958724     -2420.6899
   2   2.0000     -10.330888      -281.1178
   3   2.0000     -10.319331      -280.8033
   4   2.0000     -10.314656      -280.6760
   5   2.0000     -10.308441      -280.5069
   6   2.0000     -10.303348      -280.3684
   7   2.0000     -10.299364      -280.2599
   8   2.0000     -10.295645      -280.1587
   9   2.0000     -10.294638      -280.1313
  10   2.0000     -10.292395      -280.0703
  11   2.0000     -10.285947      -279.8948
  12   2.0000     -10.284444      -279.8540
  13   2.0000     -10.283678      -279.8331
  14   2.0000     -10.280971      -279.7594
  15   2.0000     -10.279778      -279.7270
  16   2.0000      -8.077796      -219.8080
  17   2.0000      -8.075034      -219.7328
  18   2.0000      -6.036498      -164.2615
  19   2.0000      -6.033492      -164.1797
  20   2.0000      -6.032662      -164.1571
  21   2.0000      -6.029395      -164.0682
  22   2.0000      -6.028158      -164.0345
  23   2.0000      -6.025674      -163.9669
  24   2.0000      -1.006787       -27.3961
  25   2.0000      -0.985006       -26.8034
  26   2.0000      -0.906124       -24.6569
  27   2.0000      -0.903085       -24.5742
  28   2.0000      -0.869728       -23.6665
  29   2.0000      -0.846709       -23.0401
  30   2.0000      -0.842615       -22.9287
  31   2.0000      -0.817406       -22.2427
  32   2.0000      -0.780670       -21.2431
  33   2.0000      -0.771294       -20.9880
  34   2.0000      -0.707220       -19.2444
  35   2.0000      -0.699315       -19.0293
  36   2.0000      -0.693425       -18.8691
  37   2.0000      -0.662930       -18.0393
  38   2.0000      -0.636896       -17.3308
  39   2.0000      -0.623116       -16.9558
  40   2.0000      -0.597186       -16.2503
  41   2.0000      -0.567515       -15.4429
  42   2.0000      -0.559269       -15.2185
  43   2.0000      -0.549464       -14.9517
  44   2.0000      -0.540737       -14.7142
  45   2.0000      -0.523537       -14.2462
  46   2.0000      -0.519297       -14.1308
  47   2.0000      -0.504919       -13.7395
  48   2.0000      -0.503314       -13.6959
  49   2.0000      -0.497489       -13.5374
  50   2.0000      -0.494636       -13.4597
  51   2.0000      -0.478032       -13.0079
  52   2.0000      -0.471143       -12.8205
  53   2.0000      -0.466754       -12.7010
  54   2.0000      -0.457776       -12.4567
  55   2.0000      -0.449201       -12.2234
  56   2.0000      -0.445042       -12.1102
  57   2.0000      -0.439289       -11.9537
  58   2.0000      -0.436935       -11.8896
  59   2.0000      -0.419709       -11.4209
  60   2.0000      -0.419331       -11.4106
  61   2.0000      -0.413828       -11.2608
  62   2.0000      -0.411215       -11.1897
  63   2.0000      -0.337806        -9.1922
  64   2.0000      -0.326527        -8.8852
  65   2.0000      -0.320252        -8.7145
  66   2.0000      -0.309849        -8.4314
  67   0.0000       0.038144         1.0379
  68   0.0000       0.067232         1.8295
  69   0.0000       0.109676         2.9844
  70   0.0000       0.119499         3.2517
  71   0.0000       0.132306         3.6002

MULLIKEN ATOMIC CHARGES
-----------------------
   0 S :    0.103859
   1 C :   -0.124408
   2 C :   -0.094664
   3 C :    0.043068
   4 C :   -0.146926
   5 H :    0.030573
   6 C :    0.074393
   7 H :    0.028946
   8 H :    0.002386
   9 C :   -0.095811
  10 H :    0.022183
  11 H :    0.025944
  12 C :   -0.040901
  13 H :    0.023624
  14 H :    0.042046
  15 H :    0.038113
  16 S :    0.115593
  17 C :   -0.070305
  18 C :    0.015651
  19 C :   -0.040932
  20 C :   -0.195331
  21 H :   -0.016949
  22 C :    0.064248
  23 H :    0.024506
  24 H :    0.031202
  25 C :   -0.049245
  26 H :    0.024130
  27 H :    0.019227
  28 C :   -0.065396
  29 H :    0.054876
  30 H :    0.032265
  31 H :    0.029941
  32 H :    0.059128
  33 H :    0.034966
Sum of atomic charges:   -0.0000000

LOEWDIN ATOMIC CHARGES
----------------------
   0 S :    0.369532
   1 C :   -0.193016
   2 C :   -0.065452
   3 C :   -0.053005
   4 C :   -0.174931
   5 H :    0.039430
   6 C :   -0.031738
   7 H :    0.029839
   8 H :    0.022979
   9 C :   -0.046013
  10 H :    0.020029
  11 H :    0.022010
  12 C :   -0.060663
  13 H :    0.017234
  14 H :    0.028398
  15 H :    0.032526
  16 S :    0.422293
  17 C :   -0.172359
  18 C :   -0.062683
  19 C :   -0.047464
  20 C :   -0.218471
  21 H :    0.012861
  22 C :   -0.028366
  23 H :    0.029598
  24 H :    0.030302
  25 C :   -0.034236
  26 H :    0.020526
  27 H :    0.022891
  28 C :   -0.068240
  29 H :    0.025240
  30 H :    0.034616
  31 H :    0.022685
  32 H :    0.037223
  33 H :    0.016427

  Mayer bond orders larger than 0.100000
B(  0-S ,  1-C ) :   1.1170 B(  0-S ,  4-C ) :   1.1170 B(  1-C ,  2-C ) :   1.6807
B(  1-C , 32-H ) :   0.9556 B(  2-C ,  3-C ) :   1.1972 B(  2-C ,  6-C ) :   1.0152
B(  3-C ,  4-C ) :   1.6413 B(  3-C ,  5-H ) :   0.9851 B(  4-C , 20-C ) :   1.0060
B(  6-C ,  7-H ) :   0.9462 B(  6-C ,  8-H ) :   0.9369 B(  6-C ,  9-C ) :   1.0588
B(  9-C , 10-H ) :   0.9585 B(  9-C , 11-H ) :   0.9580 B(  9-C , 12-C ) :   1.0712
B( 12-C , 13-H ) :   0.9787 B( 12-C , 14-H ) :   0.9770 B( 12-C , 15-H ) :   0.9744
B( 16-S , 17-C ) :   1.1603 B( 16-S , 20-C ) :   1.1512 B( 17-C , 18-C ) :   1.6119
B( 17-C , 33-H ) :   0.9788 B( 18-C , 19-C ) :   1.2242 B( 18-C , 21-H ) :   0.9973
B( 19-C , 20-C ) :   1.6244 B( 19-C , 22-C ) :   1.0408 B( 22-C , 23-H ) :   0.9350
B( 22-C , 24-H ) :   0.9401 B( 22-C , 25-C ) :   1.0697 B( 25-C , 26-H ) :   0.9573
B( 25-C , 27-H ) :   0.9532 B( 25-C , 28-C ) :   1.0775 B( 28-C , 29-H ) :   0.9759
B( 28-C , 30-H ) :   0.9709 B( 28-C , 31-H ) :   0.9731

Dispersion correction           -0.014516196
FINAL SINGLE POINT ENERGY     -1339.872414297835

DIPOLE MOMENT
-------------
                                X             Y             Z
Electronic contribution:    -21.82082      18.96450      -1.70052
Nuclear contribution   :     22.25103     -19.38600       1.97546
                        -----------------------------------------
Total Dipole Moment    :      0.43021      -0.42150       0.27494
                        -----------------------------------------
Magnitude (a.u.)       :      0.66207
Magnitude (Debye)      :      1.68284

Rotational constants in cm-1:     0.018807     0.008476     0.006801
Rotational constants in MHz :   563.815245   254.099312   203.878597

                             ****ORCA TERMINATED NORMALLY****
TOTAL RUN TIME: 0 days 0 hours 0 minutes 21 seconds 521 msec
