                         Program Version 4.2.1 -  RELEASE  -
|  1> ! wB97X-D3 SP def2-SVP
|  2> %pal
|  3> nprocs 24
|  4> end
|  5>
|  6> * xyz 0 1
|  7> S 	 -87.6788 	 -44.5797 	 -84.7853
|  8> C 	 -89.2881 	 -44.3013 	 -85.317
|  9> C 	 -90.1061 	 -45.4234 	 -85.4241
| 10> C 	 -89.3268 	 -46.5335 	 -84.8977
| 11> C 	 -88.1529 	 -46.1805 	 -84.3264
| 12> H 	 -89.7268 	 -47.4737 	 -84.7392
| 13> C 	 -91.4815 	 -45.3924 	 -85.9836
| 14> H 	 -91.523 	 -46.3541 	 -86.5073
| 15> H 	 -91.5022 	 -44.6849 	 -86.8318
| 16> C 	 -92.6796 	 -45.1716 	 -84.9772
| 17> H 	 -92.6161 	 -45.8745 	 -84.2329
| 18> H 	 -92.359 	 -44.2393 	 -84.506
| 19> C 	 -94.0404 	 -45.0169 	 -85.641
| 20> H 	 -94.3897 	 -45.8174 	 -86.3376
| 21> H 	 -94.8248 	 -45.0511 	 -84.9087
| 22> H 	 -94.208 	 -44.1473 	 -86.2147
| 23> S 	 -85.6939 	 -47.3441 	 -84.1167
| 24> C 	 -85.3805 	 -48.1175 	 -82.6381
| 25> C 	 -86.4508 	 -48.267 	 -81.7906
| 26> C 	 -87.6213 	 -47.6506 	 -82.2859
| 27> C 	 -87.2864 	 -46.9855 	 -83.4845
| 28> H 	 -86.3974 	 -48.7402 	 -80.831
| 29> C 	 -88.9103 	 -47.6131 	 -81.4962
| 30> H 	 -88.9348 	 -48.492 	 -80.8696
| 31> H 	 -89.8006 	 -47.6871 	 -82.2084
| 32> C 	 -89.1464 	 -46.3 	 -80.7685
| 33> H 	 -88.8018 	 -45.4174 	 -81.3389
| 34> H 	 -88.601 	 -46.2406 	 -79.7984
| 35> C 	 -90.6724 	 -46.2239 	 -80.3572
| 36> H 	 -90.8843 	 -45.3149 	 -79.7923
| 37> H 	 -90.7927 	 -47.1438 	 -79.786
| 38> H 	 -91.3989 	 -46.2768 	 -81.2531
| 39> H 	 -89.5644 	 -43.3161 	 -85.7097
| 40> H 	 -84.3598 	 -48.5307 	 -82.4131
| 41> *
| 42>
| 43>                          ****END OF INPUT****

CARTESIAN COORDINATES (ANGSTROEM)
---------------------------------
  S    -87.678800  -44.579700  -84.785300
  C    -89.288100  -44.301300  -85.317000
  C    -90.106100  -45.423400  -85.424100
  C    -89.326800  -46.533500  -84.897700
  C    -88.152900  -46.180500  -84.326400
  H    -89.726800  -47.473700  -84.739200
  C    -91.481500  -45.392400  -85.983600
  H    -91.523000  -46.354100  -86.507300
  H    -91.502200  -44.684900  -86.831800
  C    -92.679600  -45.171600  -84.977200
  H    -92.616100  -45.874500  -84.232900
  H    -92.359000  -44.239300  -84.506000
  C    -94.040400  -45.016900  -85.641000
  H    -94.389700  -45.817400  -86.337600
  H    -94.824800  -45.051100  -84.908700
  H    -94.208000  -44.147300  -86.214700
  S    -85.693900  -47.344100  -84.116700
  C    -85.380500  -48.117500  -82.638100
  C    -86.450800  -48.267000  -81.790600
  C    -87.621300  -47.650600  -82.285900
  C    -87.286400  -46.985500  -83.484500
  H    -86.397400  -48.740200  -80.831000
  C    -88.910300  -47.613100  -81.496200
  H    -88.934800  -48.492000  -80.869600
  H    -89.800600  -47.687100  -82.208400
  C    -89.146400  -46.300000  -80.768500
  H    -88.801800  -45.417400  -81.338900
  H    -88.601000  -46.240600  -79.798400
  C    -90.672400  -46.223900  -80.357200
  H    -90.884300  -45.314900  -79.792300
  H    -90.792700  -47.143800  -79.786000
  H    -91.398900  -46.276800  -81.253100
  H    -89.564400  -43.316100  -85.709700
  H    -84.359800  -48.530700  -82.413100

 Total Charge           Charge          ....    0
 Multiplicity           Mult            ....    1
 Number of Electrons    NEL             ....  134
 Basis Dimension        Dim             ....  322

ORBITAL ENERGIES
----------------

  NO   OCC          E(Eh)            E(eV)
   0   2.0000     -88.968612     -2420.9590
   1   2.0000     -88.961066     -2420.7537
   2   2.0000     -10.320834      -280.8442
   3   2.0000     -10.317107      -280.7428
   4   2.0000     -10.312720      -280.6234
   5   2.0000     -10.307706      -280.4869
   6   2.0000     -10.301774      -280.3255
   7   2.0000     -10.299392      -280.2607
   8   2.0000     -10.296811      -280.1905
   9   2.0000     -10.293750      -280.1072
  10   2.0000     -10.289691      -279.9967
  11   2.0000     -10.288418      -279.9621
  12   2.0000     -10.287626      -279.9405
  13   2.0000     -10.285646      -279.8867
  14   2.0000     -10.285024      -279.8697
  15   2.0000     -10.278479      -279.6916
  16   2.0000      -8.084342      -219.9861
  17   2.0000      -8.077204      -219.7919
  18   2.0000      -6.042445      -164.4233
  19   2.0000      -6.038967      -164.3286
  20   2.0000      -6.035393      -164.2314
  21   2.0000      -6.035227      -164.2269
  22   2.0000      -6.031778      -164.1330
  23   2.0000      -6.027963      -164.0292
  24   2.0000      -1.011344       -27.5201
  25   2.0000      -0.988403       -26.8958
  26   2.0000      -0.910378       -24.7726
  27   2.0000      -0.909633       -24.7524
  28   2.0000      -0.866531       -23.5795
  29   2.0000      -0.853559       -23.2265
  30   2.0000      -0.850858       -23.1530
  31   2.0000      -0.811495       -22.0819
  32   2.0000      -0.783230       -21.3128
  33   2.0000      -0.765651       -20.8344
  34   2.0000      -0.716719       -19.5029
  35   2.0000      -0.698913       -19.0184
  36   2.0000      -0.683724       -18.6051
  37   2.0000      -0.662009       -18.0142
  38   2.0000      -0.642489       -17.4830
  39   2.0000      -0.620809       -16.8931
  40   2.0000      -0.600029       -16.3276
  41   2.0000      -0.564361       -15.3570
  42   2.0000      -0.562282       -15.3005
  43   2.0000      -0.552379       -15.0310
  44   2.0000      -0.528972       -14.3941
  45   2.0000      -0.521403       -14.1881
  46   2.0000      -0.520328       -14.1588
  47   2.0000      -0.503742       -13.7075
  48   2.0000      -0.497394       -13.5348
  49   2.0000      -0.495533       -13.4841
  50   2.0000      -0.486876       -13.2486
  51   2.0000      -0.480767       -13.0823
  52   2.0000      -0.468219       -12.7409
  53   2.0000      -0.467673       -12.7260
  54   2.0000      -0.455116       -12.3843
  55   2.0000      -0.454065       -12.3557
  56   2.0000      -0.448585       -12.2066
  57   2.0000      -0.447262       -12.1706
  58   2.0000      -0.436964       -11.8904
  59   2.0000      -0.430102       -11.7037
  60   2.0000      -0.421895       -11.4803
  61   2.0000      -0.415527       -11.3071
  62   2.0000      -0.413155       -11.2425
  63   2.0000      -0.339021        -9.2252
  64   2.0000      -0.333849        -9.0845
  65   2.0000      -0.325503        -8.8574
  66   2.0000      -0.288755        -7.8574
  67   0.0000       0.035499         0.9660
  68   0.0000       0.066837         1.8187
  69   0.0000       0.109165         2.9705
  70   0.0000       0.118157         3.2152
  71   0.0000       0.130474         3.5504

MULLIKEN ATOMIC CHARGES
-----------------------
   0 S :    0.117301
   1 C :   -0.121293
   2 C :   -0.116850
   3 C :    0.083660
   4 C :   -0.185836
   5 H :   -0.020173
   6 C :    0.041478
   7 H :    0.020619
   8 H :    0.025216
   9 C :    0.000345
  10 H :    0.008313
  11 H :    0.024802
  12 C :   -0.028030
  13 H :    0.027235
  14 H :    0.023575
  15 H :    0.024237
  16 S :    0.135916
  17 C :   -0.096428
  18 C :   -0.035527
  19 C :   -0.011835
  20 C :   -0.190077
  21 H :    0.006407
  22 C :    0.066968
  23 H :    0.023368
  24 H :    0.027398
  25 C :   -0.078910
  26 H :    0.049716
  27 H :    0.031652
  28 C :   -0.084366
  29 H :    0.044556
  30 H :    0.032957
  31 H :    0.046570
  32 H :    0.042456
  33 H :    0.064578
Sum of atomic charges:   -0.0000000

LOEWDIN ATOMIC CHARGES
----------------------
   0 S :    0.414008
   1 C :   -0.202876
   2 C :   -0.065101
   3 C :   -0.052528
   4 C :   -0.204045
   5 H :    0.015813
   6 C :   -0.038049
   7 H :    0.031374
   8 H :    0.032688
   9 C :   -0.024716
  10 H :    0.012725
  11 H :    0.030296
  12 C :   -0.068067
  13 H :    0.031363
  14 H :    0.026573
  15 H :    0.021612
  16 S :    0.432381
  17 C :   -0.207432
  18 C :   -0.072404
  19 C :   -0.047856
  20 C :   -0.204684
  21 H :    0.028854
  22 C :   -0.035147
  23 H :    0.029090
  24 H :    0.037719
  25 C :   -0.040008
  26 H :    0.028878
  27 H :    0.026631
  28 C :   -0.070840
  29 H :    0.025219
  30 H :    0.024102
  31 H :    0.029305
  32 H :    0.021793
  33 H :    0.033328

  Mayer bond orders larger than 0.100000
B(  0-S ,  1-C ) :   1.1511 B(  0-S ,  4-C ) :   1.1408 B(  1-C ,  2-C ) :   1.6151
B(  1-C , 32-H ) :   0.9647 B(  2-C ,  3-C ) :   1.2158 B(  2-C ,  6-C ) :   1.0295
B(  3-C ,  4-C ) :   1.6082 B(  3-C ,  5-H ) :   1.0036 B(  4-C , 20-C ) :   1.0190
B(  6-C ,  7-H ) :   0.9316 B(  6-C ,  8-H ) :   0.9434 B(  6-C ,  9-C ) :   1.0426
B(  9-C , 10-H ) :   0.9591 B(  9-C , 11-H ) :   0.9547 B(  9-C , 12-C ) :   1.0773
B( 12-C , 13-H ) :   0.9736 B( 12-C , 14-H ) :   0.9723 B( 12-C , 15-H ) :   0.9752
B( 16-S , 17-C ) :   1.1628 B( 16-S , 20-C ) :   1.1737 B( 17-C , 18-C ) :   1.5965
B( 17-C , 33-H ) :   0.9590 B( 18-C , 19-C ) :   1.2584 B( 18-C , 21-H ) :   0.9941
B( 19-C , 20-C ) :   1.5722 B( 19-C , 22-C ) :   1.0528 B( 22-C , 23-H ) :   0.9246
B( 22-C , 24-H ) :   0.9330 B( 22-C , 25-C ) :   1.0567 B( 25-C , 26-H ) :   0.9610
B( 25-C , 27-H ) :   0.9516 B( 25-C , 28-C ) :   1.0640 B( 28-C , 29-H ) :   0.9753
B( 28-C , 30-H ) :   0.9743 B( 28-C , 31-H ) :   0.9763

Dispersion correction           -0.014660829
FINAL SINGLE POINT ENERGY     -1339.869648943544

DIPOLE MOMENT
-------------
                                X             Y             Z
Electronic contribution:     30.85167      -1.70462      -8.33235
Nuclear contribution   :    -31.40503       1.57376       8.57585
                        -----------------------------------------
Total Dipole Moment    :     -0.55336      -0.13086       0.24351
                        -----------------------------------------
Magnitude (a.u.)       :      0.61857
Magnitude (Debye)      :      1.57227

Rotational constants in cm-1:     0.019857     0.008733     0.006849
Rotational constants in MHz :   595.306974   261.823669   205.335159

                             ****ORCA TERMINATED NORMALLY****
TOTAL RUN TIME: 0 days 0 hours 0 minutes 22 seconds 74 msec
