                         Program Version 4.2.1 -  RELEASE  -
|  1> ! wB97X-D3 SP def2-SVP
|  2> %pal
|  3> nprocs 24
|  4> end
|  5>
|  6> * xyz 0 1
|  7> S 	 17.0764 	 -13.019 	 -123.498
|  8> C 	 16.1864 	 -11.618 	 -124.052
|  9> C 	 15.6097 	 -10.9044 	 -123.003
| 10> C 	 15.9958 	 -11.4213 	 -121.704
| 11> C 	 16.7869 	 -12.5818 	 -121.789
| 12> H 	 15.6704 	 -10.9932 	 -120.696
| 13> C 	 14.767 	 -9.74645 	 -123.159
| 14> H 	 14.4452 	 -9.68218 	 -124.182
| 15> H 	 15.3195 	 -8.83686 	 -122.873
| 16> C 	 13.516 	 -9.8914 	 -122.384
| 17> H 	 12.9719 	 -10.7512 	 -122.715
| 18> H 	 13.7712 	 -10.0303 	 -121.285
| 19> C 	 12.6287 	 -8.55915 	 -122.311
| 20> H 	 12.1373 	 -8.44543 	 -123.335
| 21> H 	 11.7064 	 -8.70395 	 -121.698
| 22> H 	 13.1587 	 -7.6588 	 -122.048
| 23> S 	 16.7707 	 -15.2141 	 -120.888
| 24> C 	 17.7544 	 -15.6489 	 -119.514
| 25> C 	 18.323 	 -14.5926 	 -118.925
| 26> C 	 18.0074 	 -13.3148 	 -119.547
| 27> C 	 17.269 	 -13.4966 	 -120.748
| 28> H 	 19.0584 	 -14.7772 	 -118.189
| 29> C 	 18.7533 	 -12.0282 	 -119.132
| 30> H 	 19.3588 	 -12.3626 	 -118.27
| 31> H 	 17.9853 	 -11.3296 	 -118.657
| 32> C 	 19.5792 	 -11.2793 	 -120.22
| 33> H 	 20.2084 	 -10.5202 	 -119.814
| 34> H 	 18.822 	 -10.7969 	 -120.899
| 35> C 	 20.5346 	 -12.2094 	 -121.064
| 36> H 	 21.0819 	 -12.799 	 -120.352
| 37> H 	 21.1829 	 -11.5511 	 -121.598
| 38> H 	 19.963 	 -12.8939 	 -121.678
| 39> H 	 15.9856 	 -11.2693 	 -125.076
| 40> H 	 17.975 	 -16.6828 	 -119.276
| 41> *
| 42>
| 43>                          ****END OF INPUT****

CARTESIAN COORDINATES (ANGSTROEM)
---------------------------------
  S     17.076400  -13.019000  -123.498000
  C     16.186400  -11.618000  -124.052000
  C     15.609700  -10.904400  -123.003000
  C     15.995800  -11.421300  -121.704000
  C     16.786900  -12.581800  -121.789000
  H     15.670400  -10.993200  -120.696000
  C     14.767000   -9.746450  -123.159000
  H     14.445200   -9.682180  -124.182000
  H     15.319500   -8.836860  -122.873000
  C     13.516000   -9.891400  -122.384000
  H     12.971900  -10.751200  -122.715000
  H     13.771200  -10.030300  -121.285000
  C     12.628700   -8.559150  -122.311000
  H     12.137300   -8.445430  -123.335000
  H     11.706400   -8.703950  -121.698000
  H     13.158700   -7.658800  -122.048000
  S     16.770700  -15.214100  -120.888000
  C     17.754400  -15.648900  -119.514000
  C     18.323000  -14.592600  -118.925000
  C     18.007400  -13.314800  -119.547000
  C     17.269000  -13.496600  -120.748000
  H     19.058400  -14.777200  -118.189000
  C     18.753300  -12.028200  -119.132000
  H     19.358800  -12.362600  -118.270000
  H     17.985300  -11.329600  -118.657000
  C     19.579200  -11.279300  -120.220000
  H     20.208400  -10.520200  -119.814000
  H     18.822000  -10.796900  -120.899000
  C     20.534600  -12.209400  -121.064000
  H     21.081900  -12.799000  -120.352000
  H     21.182900  -11.551100  -121.598000
  H     19.963000  -12.893900  -121.678000
  H     15.985600  -11.269300  -125.076000
  H     17.975000  -16.682800  -119.276000

 Total Charge           Charge          ....    0
 Multiplicity           Mult            ....    1
 Number of Electrons    NEL             ....  134
 Basis Dimension        Dim             ....  322

ORBITAL ENERGIES
----------------

  NO   OCC          E(Eh)            E(eV)
   0   2.0000     -88.970506     -2421.0105
   1   2.0000     -88.962789     -2420.8006
   2   2.0000     -10.338650      -281.3290
   3   2.0000     -10.334256      -281.2094
   4   2.0000     -10.317506      -280.7536
   5   2.0000     -10.312334      -280.6129
   6   2.0000     -10.312192      -280.6090
   7   2.0000     -10.307395      -280.4785
   8   2.0000     -10.300046      -280.2785
   9   2.0000     -10.300022      -280.2779
  10   2.0000     -10.290755      -280.0257
  11   2.0000     -10.289982      -280.0046
  12   2.0000     -10.289226      -279.9841
  13   2.0000     -10.286327      -279.9052
  14   2.0000     -10.284875      -279.8657
  15   2.0000     -10.267751      -279.3997
  16   2.0000      -8.084133      -219.9805
  17   2.0000      -8.077239      -219.7929
  18   2.0000      -6.042757      -164.4318
  19   2.0000      -6.038758      -164.3230
  20   2.0000      -6.035842      -164.2436
  21   2.0000      -6.034861      -164.2169
  22   2.0000      -6.031781      -164.1331
  23   2.0000      -6.027920      -164.0281
  24   2.0000      -0.999755       -27.2047
  25   2.0000      -0.980786       -26.6885
  26   2.0000      -0.923577       -25.1318
  27   2.0000      -0.896462       -24.3940
  28   2.0000      -0.867080       -23.5944
  29   2.0000      -0.842567       -22.9274
  30   2.0000      -0.839269       -22.8377
  31   2.0000      -0.815090       -22.1797
  32   2.0000      -0.781268       -21.2594
  33   2.0000      -0.768938       -20.9239
  34   2.0000      -0.714196       -19.4343
  35   2.0000      -0.695048       -18.9132
  36   2.0000      -0.683023       -18.5860
  37   2.0000      -0.657807       -17.8998
  38   2.0000      -0.637820       -17.3560
  39   2.0000      -0.619069       -16.8457
  40   2.0000      -0.582764       -15.8578
  41   2.0000      -0.577204       -15.7065
  42   2.0000      -0.564133       -15.3508
  43   2.0000      -0.553720       -15.0675
  44   2.0000      -0.541467       -14.7341
  45   2.0000      -0.523461       -14.2441
  46   2.0000      -0.512419       -13.9436
  47   2.0000      -0.504967       -13.7408
  48   2.0000      -0.499806       -13.6004
  49   2.0000      -0.495953       -13.4956
  50   2.0000      -0.486000       -13.2247
  51   2.0000      -0.481905       -13.1133
  52   2.0000      -0.469363       -12.7720
  53   2.0000      -0.461549       -12.5594
  54   2.0000      -0.457758       -12.4562
  55   2.0000      -0.450221       -12.2511
  56   2.0000      -0.444418       -12.0932
  57   2.0000      -0.442628       -12.0445
  58   2.0000      -0.433664       -11.8006
  59   2.0000      -0.423459       -11.5229
  60   2.0000      -0.413087       -11.2407
  61   2.0000      -0.411420       -11.1953
  62   2.0000      -0.404824       -11.0158
  63   2.0000      -0.347249        -9.4491
  64   2.0000      -0.329376        -8.9628
  65   2.0000      -0.328229        -8.9316
  66   2.0000      -0.292743        -7.9659
  67   0.0000       0.024772         0.6741
  68   0.0000       0.066267         1.8032
  69   0.0000       0.112131         3.0512
  70   0.0000       0.120422         3.2768
  71   0.0000       0.124088         3.3766

MULLIKEN ATOMIC CHARGES
-----------------------
   0 S :    0.114190
   1 C :   -0.104305
   2 C :   -0.136345
   3 C :    0.031251
   4 C :   -0.170345
   5 H :    0.048624
   6 C :    0.138743
   7 H :    0.003601
   8 H :    0.039404
   9 C :   -0.142063
  10 H :    0.035647
  11 H :    0.037292
  12 C :   -0.066060
  13 H :    0.028236
  14 H :    0.042323
  15 H :    0.042307
  16 S :    0.094253
  17 C :   -0.085695
  18 C :   -0.023684
  19 C :   -0.029374
  20 C :   -0.172463
  21 H :    0.010993
  22 C :    0.034600
  23 H :    0.018060
  24 H :    0.045075
  25 C :   -0.086513
  26 H :    0.027309
  27 H :    0.047992
  28 C :   -0.014477
  29 H :    0.015852
  30 H :    0.032089
  31 H :    0.036522
  32 H :    0.049226
  33 H :    0.057736
Sum of atomic charges:    0.0000000

LOEWDIN ATOMIC CHARGES
----------------------
   0 S :    0.398093
   1 C :   -0.204371
   2 C :   -0.066510
   3 C :   -0.061230
   4 C :   -0.185839
   5 H :    0.045193
   6 C :   -0.038735
   7 H :    0.028477
   8 H :    0.038102
   9 C :   -0.038154
  10 H :    0.024995
  11 H :    0.025473
  12 C :   -0.074345
  13 H :    0.027580
  14 H :    0.031014
  15 H :    0.022551
  16 S :    0.383862
  17 C :   -0.179764
  18 C :   -0.073288
  19 C :   -0.052165
  20 C :   -0.191525
  21 H :    0.027864
  22 C :   -0.041037
  23 H :    0.027473
  24 H :    0.039402
  25 C :   -0.040299
  26 H :    0.020031
  27 H :    0.030100
  28 C :   -0.053889
  29 H :    0.019652
  30 H :    0.022931
  31 H :    0.022386
  32 H :    0.035155
  33 H :    0.030819

  Mayer bond orders larger than 0.100000
B(  0-S ,  1-C ) :   1.1259 B(  0-S ,  4-C ) :   1.1464 B(  1-C ,  2-C ) :   1.6248
B(  1-C , 32-H ) :   0.9604 B(  2-C ,  3-C ) :   1.2177 B(  2-C ,  6-C ) :   1.0531
B(  3-C ,  4-C ) :   1.5792 B(  3-C ,  5-H ) :   0.9757 B(  4-C , 20-C ) :   1.0490
B(  6-C ,  7-H ) :   0.9274 B(  6-C ,  8-H ) :   0.9234 B(  6-C ,  9-C ) :   1.0590
B(  9-C , 10-H ) :   0.9584 B(  9-C , 11-H ) :   0.9555 B(  9-C , 12-C ) :   1.0712
B( 12-C , 13-H ) :   0.9747 B( 12-C , 14-H ) :   0.9761 B( 12-C , 15-H ) :   0.9763
B( 16-S , 17-C ) :   1.1369 B( 16-S , 20-C ) :   1.1361 B( 17-C , 18-C ) :   1.6571
B( 17-C , 33-H ) :   0.9619 B( 18-C , 19-C ) :   1.2118 B( 18-C , 21-H ) :   0.9899
B( 19-C , 20-C ) :   1.5909 B( 19-C , 22-C ) :   1.0344 B( 22-C , 23-H ) :   0.9414
B( 22-C , 24-H ) :   0.9327 B( 22-C , 25-C ) :   1.0643 B( 25-C , 26-H ) :   0.9589
B( 25-C , 27-H ) :   0.9499 B( 25-C , 28-C ) :   1.0739 B( 28-C , 29-H ) :   0.9785
B( 28-C , 30-H ) :   0.9771 B( 28-C , 31-H ) :   0.9726

Dispersion correction           -0.015201532
FINAL SINGLE POINT ENERGY     -1339.874794420393

DIPOLE MOMENT
-------------
                                X             Y             Z
Electronic contribution:      2.35144     -22.03094      -3.83619
Nuclear contribution   :     -2.34339      22.52524       4.03739
                        -----------------------------------------
Total Dipole Moment    :      0.00805       0.49429       0.20119
                        -----------------------------------------
Magnitude (a.u.)       :      0.53373
Magnitude (Debye)      :      1.35664

Rotational constants in cm-1:     0.020698     0.007973     0.007532
Rotational constants in MHz :   620.524304   239.037270   225.804784

                             ****ORCA TERMINATED NORMALLY****
TOTAL RUN TIME: 0 days 0 hours 0 minutes 22 seconds 51 msec
