                         Program Version 4.2.1 -  RELEASE  -
|  1> ! wB97X-D3 SP def2-SVP
|  2> %pal
|  3> nprocs 24
|  4> end
|  5>
|  6> * xyz 0 1
|  7> S 	 -37.0077 	 -2.74736 	 5.3231
|  8> C 	 -38.0748 	 -3.01625 	 6.69992
|  9> C 	 -38.933 	 -4.06131 	 6.48313
| 10> C 	 -38.7752 	 -4.54765 	 5.16325
| 11> C 	 -37.7746 	 -3.94411 	 4.40694
| 12> H 	 -39.2109 	 -5.45122 	 4.75587
| 13> C 	 -39.8452 	 -4.76428 	 7.4718
| 14> H 	 -39.6616 	 -4.26947 	 8.43372
| 15> H 	 -39.7202 	 -5.9406 	 7.61494
| 16> C 	 -41.3862 	 -4.49519 	 7.43115
| 17> H 	 -41.8026 	 -4.55574 	 6.39186
| 18> H 	 -41.8679 	 -5.43489 	 7.82161
| 19> C 	 -41.9889 	 -3.12346 	 7.91609
| 20> H 	 -43.0774 	 -3.24254 	 8.11197
| 21> H 	 -41.5602 	 -2.96187 	 8.91599
| 22> H 	 -41.8361 	 -2.31408 	 7.12031
| 23> S 	 -35.7284 	 -5.28335 	 3.26324
| 24> C 	 -35.9193 	 -5.70203 	 1.54433
| 25> C 	 -37.1069 	 -5.25324 	 0.968571
| 26> C 	 -37.8868 	 -4.51001 	 1.9592
| 27> C 	 -37.2462 	 -4.44216 	 3.16399
| 28> H 	 -37.2183 	 -5.27791 	 -0.136247
| 29> C 	 -39.2287 	 -3.81246 	 1.6235
| 30> H 	 -39.2721 	 -3.70317 	 0.549171
| 31> H 	 -39.1464 	 -2.74941 	 1.7919
| 32> C 	 -40.5535 	 -4.36193 	 2.169
| 33> H 	 -40.638 	 -4.04684 	 3.19862
| 34> H 	 -40.5453 	 -5.44856 	 2.04579
| 35> C 	 -41.7266 	 -3.71142 	 1.44591
| 36> H 	 -41.755 	 -3.95224 	 0.403341
| 37> H 	 -41.6977 	 -2.64072 	 1.46616
| 38> H 	 -42.6535 	 -4.10745 	 1.90726
| 39> H 	 -37.913 	 -2.51665 	 7.68727
| 40> H 	 -35.1395 	 -6.16404 	 1.03512
| 41> *
| 42>
| 43>                          ****END OF INPUT****

CARTESIAN COORDINATES (ANGSTROEM)
---------------------------------
  S    -37.007700   -2.747360    5.323100
  C    -38.074800   -3.016250    6.699920
  C    -38.933000   -4.061310    6.483130
  C    -38.775200   -4.547650    5.163250
  C    -37.774600   -3.944110    4.406940
  H    -39.210900   -5.451220    4.755870
  C    -39.845200   -4.764280    7.471800
  H    -39.661600   -4.269470    8.433720
  H    -39.720200   -5.940600    7.614940
  C    -41.386200   -4.495190    7.431150
  H    -41.802600   -4.555740    6.391860
  H    -41.867900   -5.434890    7.821610
  C    -41.988900   -3.123460    7.916090
  H    -43.077400   -3.242540    8.111970
  H    -41.560200   -2.961870    8.915990
  H    -41.836100   -2.314080    7.120310
  S    -35.728400   -5.283350    3.263240
  C    -35.919300   -5.702030    1.544330
  C    -37.106900   -5.253240    0.968571
  C    -37.886800   -4.510010    1.959200
  C    -37.246200   -4.442160    3.163990
  H    -37.218300   -5.277910   -0.136247
  C    -39.228700   -3.812460    1.623500
  H    -39.272100   -3.703170    0.549171
  H    -39.146400   -2.749410    1.791900
  C    -40.553500   -4.361930    2.169000
  H    -40.638000   -4.046840    3.198620
  H    -40.545300   -5.448560    2.045790
  C    -41.726600   -3.711420    1.445910
  H    -41.755000   -3.952240    0.403341
  H    -41.697700   -2.640720    1.466160
  H    -42.653500   -4.107450    1.907260
  H    -37.913000   -2.516650    7.687270
  H    -35.139500   -6.164040    1.035120

 Total Charge           Charge          ....    0
 Multiplicity           Mult            ....    1
 Number of Electrons    NEL             ....  134
 Basis Dimension        Dim             ....  322

ORBITAL ENERGIES
----------------

  NO   OCC          E(Eh)            E(eV)
   0   2.0000     -88.966291     -2420.8959
   1   2.0000     -88.966022     -2420.8885
   2   2.0000     -10.319555      -280.8094
   3   2.0000     -10.319301      -280.8025
   4   2.0000     -10.317962      -280.7660
   5   2.0000     -10.316491      -280.7260
   6   2.0000     -10.307498      -280.4813
   7   2.0000     -10.305404      -280.4243
   8   2.0000     -10.302805      -280.3536
   9   2.0000     -10.301769      -280.3254
  10   2.0000     -10.294977      -280.1406
  11   2.0000     -10.292252      -280.0664
  12   2.0000     -10.287756      -279.9441
  13   2.0000     -10.286940      -279.9219
  14   2.0000     -10.282186      -279.7925
  15   2.0000     -10.273308      -279.5509
  16   2.0000      -8.081889      -219.9194
  17   2.0000      -8.080865      -219.8915
  18   2.0000      -6.040284      -164.3645
  19   2.0000      -6.039283      -164.3373
  20   2.0000      -6.036132      -164.2515
  21   2.0000      -6.035566      -164.2361
  22   2.0000      -6.032858      -164.1624
  23   2.0000      -6.031496      -164.1254
  24   2.0000      -1.011810       -27.5327
  25   2.0000      -0.982913       -26.7464
  26   2.0000      -0.906458       -24.6660
  27   2.0000      -0.904325       -24.6079
  28   2.0000      -0.867485       -23.6055
  29   2.0000      -0.850375       -23.1399
  30   2.0000      -0.844809       -22.9884
  31   2.0000      -0.809476       -22.0270
  32   2.0000      -0.782570       -21.2948
  33   2.0000      -0.772612       -21.0238
  34   2.0000      -0.705666       -19.2021
  35   2.0000      -0.696755       -18.9597
  36   2.0000      -0.687846       -18.7172
  37   2.0000      -0.663355       -18.0508
  38   2.0000      -0.640578       -17.4310
  39   2.0000      -0.617262       -16.7965
  40   2.0000      -0.595514       -16.2048
  41   2.0000      -0.565142       -15.3783
  42   2.0000      -0.564034       -15.3481
  43   2.0000      -0.542072       -14.7505
  44   2.0000      -0.532007       -14.4766
  45   2.0000      -0.524052       -14.2602
  46   2.0000      -0.514736       -14.0067
  47   2.0000      -0.511403       -13.9160
  48   2.0000      -0.504242       -13.7211
  49   2.0000      -0.493106       -13.4181
  50   2.0000      -0.489231       -13.3127
  51   2.0000      -0.475291       -12.9333
  52   2.0000      -0.466727       -12.7003
  53   2.0000      -0.459403       -12.5010
  54   2.0000      -0.457313       -12.4441
  55   2.0000      -0.449918       -12.2429
  56   2.0000      -0.440862       -11.9965
  57   2.0000      -0.438327       -11.9275
  58   2.0000      -0.437144       -11.8953
  59   2.0000      -0.423376       -11.5206
  60   2.0000      -0.418720       -11.3940
  61   2.0000      -0.414019       -11.2660
  62   2.0000      -0.401440       -10.9237
  63   2.0000      -0.340324        -9.2607
  64   2.0000      -0.333479        -9.0744
  65   2.0000      -0.326124        -8.8743
  66   2.0000      -0.301147        -8.1946
  67   0.0000       0.038035         1.0350
  68   0.0000       0.064295         1.7496
  69   0.0000       0.109447         2.9782
  70   0.0000       0.114011         3.1024
  71   0.0000       0.127043         3.4570

MULLIKEN ATOMIC CHARGES
-----------------------
   0 S :    0.117853
   1 C :   -0.145366
   2 C :   -0.049595
   3 C :    0.049890
   4 C :   -0.189576
   5 H :    0.013021
   6 C :    0.033145
   7 H :    0.009989
   8 H :    0.070163
   9 C :   -0.123619
  10 H :    0.022553
  11 H :    0.030947
  12 C :   -0.071457
  13 H :    0.044245
  14 H :    0.032226
  15 H :    0.068599
  16 S :    0.113014
  17 C :   -0.084767
  18 C :   -0.030350
  19 C :   -0.041264
  20 C :   -0.153181
  21 H :    0.043071
  22 C :    0.061287
  23 H :   -0.007490
  24 H :    0.018536
  25 C :   -0.054008
  26 H :    0.045725
  27 H :    0.035132
  28 C :   -0.036771
  29 H :    0.018561
  30 H :    0.025087
  31 H :    0.036333
  32 H :    0.063370
  33 H :    0.034699
Sum of atomic charges:   -0.0000000

LOEWDIN ATOMIC CHARGES
----------------------
   0 S :    0.430020
   1 C :   -0.198822
   2 C :   -0.072886
   3 C :   -0.056966
   4 C :   -0.222389
   5 H :    0.029642
   6 C :   -0.043662
   7 H :    0.028918
   8 H :    0.053632
   9 C :   -0.062480
  10 H :    0.021246
  11 H :    0.028801
  12 C :   -0.075101
  13 H :    0.033797
  14 H :    0.021936
  15 H :    0.041152
  16 S :    0.398127
  17 C :   -0.162460
  18 C :   -0.069178
  19 C :   -0.052714
  20 C :   -0.205682
  21 H :    0.041855
  22 C :   -0.038074
  23 H :    0.024807
  24 H :    0.032204
  25 C :   -0.036596
  26 H :    0.025987
  27 H :    0.026100
  28 C :   -0.060484
  29 H :    0.018594
  30 H :    0.022056
  31 H :    0.030775
  32 H :    0.036598
  33 H :    0.011245

  Mayer bond orders larger than 0.100000
B(  0-S ,  1-C ) :   1.1476 B(  0-S ,  4-C ) :   1.1720 B(  1-C ,  2-C ) :   1.6015
B(  1-C , 32-H ) :   0.9592 B(  2-C ,  3-C ) :   1.2530 B(  2-C ,  6-C ) :   1.0209
B(  3-C ,  4-C ) :   1.5666 B(  3-C ,  5-H ) :   0.9899 B(  4-C , 20-C ) :   1.0151
B(  6-C ,  7-H ) :   0.9370 B(  6-C ,  8-H ) :   0.9478 B(  6-C ,  9-C ) :   1.0510
B(  9-C , 10-H ) :   0.9573 B(  9-C , 11-H ) :   0.9576 B(  9-C , 12-C ) :   1.0634
B( 12-C , 13-H ) :   0.9729 B( 12-C , 14-H ) :   0.9756 B( 12-C , 15-H ) :   0.9749
B( 16-S , 17-C ) :   1.1439 B( 16-S , 20-C ) :   1.1354 B( 17-C , 18-C ) :   1.6417
B( 17-C , 33-H ) :   0.9744 B( 18-C , 19-C ) :   1.2066 B( 18-C , 21-H ) :   0.9796
B( 19-C , 20-C ) :   1.6606 B( 19-C , 22-C ) :   1.0270 B( 22-C , 23-H ) :   0.9357
B( 22-C , 24-H ) :   0.9269 B( 22-C , 25-C ) :   1.0638 B( 25-C , 26-H ) :   0.9450
B( 25-C , 27-H ) :   0.9561 B( 25-C , 28-C ) :   1.0871 B( 28-C , 29-H ) :   0.9739
B( 28-C , 30-H ) :   0.9735 B( 28-C , 31-H ) :   0.9726

Dispersion correction           -0.014446768
FINAL SINGLE POINT ENERGY     -1339.861675590507

DIPOLE MOMENT
-------------
                                X             Y             Z
Electronic contribution:     30.44481      -0.82859      -2.98964
Nuclear contribution   :    -30.90649       0.67287       2.93751
                        -----------------------------------------
Total Dipole Moment    :     -0.46168      -0.15572      -0.05213
                        -----------------------------------------
Magnitude (a.u.)       :      0.49002
Magnitude (Debye)      :      1.24552

Rotational constants in cm-1:     0.017986     0.009310     0.006981
Rotational constants in MHz :   539.193560   279.100371   209.295411

                             ****ORCA TERMINATED NORMALLY****
TOTAL RUN TIME: 0 days 0 hours 0 minutes 21 seconds 895 msec
