                         Program Version 4.2.1 -  RELEASE  -
|  1> ! wB97X-D3 SP def2-SVP
|  2> %pal
|  3> nprocs 24
|  4> end
|  5>
|  6> * xyz 0 1
|  7> S 	 -40.7949 	 -10.3178 	 14.3206
|  8> C 	 -42.3501 	 -10.1429 	 15.0248
|  9> C 	 -42.4639 	 -10.571 	 16.3271
| 10> C 	 -41.1501 	 -11.0232 	 16.8004
| 11> C 	 -40.1574 	 -10.8773 	 15.8611
| 12> H 	 -40.8771 	 -11.1525 	 17.8732
| 13> C 	 -43.7298 	 -10.7183 	 17.1838
| 14> H 	 -44.1687 	 -11.654 	 16.8913
| 15> H 	 -44.4188 	 -9.92341 	 17.0594
| 16> C 	 -43.5421 	 -10.8017 	 18.6811
| 17> H 	 -42.808 	 -11.5889 	 18.8651
| 18> H 	 -43.0796 	 -9.8941 	 19.0139
| 19> C 	 -44.8393 	 -11.2695 	 19.4202
| 20> H 	 -44.7856 	 -10.9489 	 20.4667
| 21> H 	 -45.6941 	 -10.945 	 18.8529
| 22> H 	 -45.009 	 -12.3828 	 19.3239
| 23> S 	 -38.2602 	 -12.1028 	 17.4642
| 24> C 	 -36.5937 	 -12.2486 	 16.8367
| 25> C 	 -36.4497 	 -11.3755 	 15.755
| 26> C 	 -37.6126 	 -10.608 	 15.455
| 27> C 	 -38.7312 	 -10.9974 	 16.1851
| 28> H 	 -35.5365 	 -11.4987 	 15.2233
| 29> C 	 -37.5784 	 -9.74739 	 14.0959
| 30> H 	 -38.0722 	 -8.83726 	 14.2925
| 31> H 	 -38.156 	 -10.2588 	 13.3242
| 32> C 	 -36.1926 	 -9.50789 	 13.4066
| 33> H 	 -36.4641 	 -8.78432 	 12.6561
| 34> H 	 -35.9057 	 -10.3524 	 12.8069
| 35> C 	 -35.1622 	 -8.7177 	 14.1759
| 36> H 	 -34.6145 	 -9.31344 	 14.9276
| 37> H 	 -35.8192 	 -7.96781 	 14.7262
| 38> H 	 -34.5596 	 -8.15879 	 13.4715
| 39> H 	 -43.2133 	 -9.84234 	 14.4221
| 40> H 	 -35.9294 	 -12.9325 	 17.2435
| 41> *
| 42>
| 43>                          ****END OF INPUT****

CARTESIAN COORDINATES (ANGSTROEM)
---------------------------------
  S    -40.794900  -10.317800   14.320600
  C    -42.350100  -10.142900   15.024800
  C    -42.463900  -10.571000   16.327100
  C    -41.150100  -11.023200   16.800400
  C    -40.157400  -10.877300   15.861100
  H    -40.877100  -11.152500   17.873200
  C    -43.729800  -10.718300   17.183800
  H    -44.168700  -11.654000   16.891300
  H    -44.418800   -9.923410   17.059400
  C    -43.542100  -10.801700   18.681100
  H    -42.808000  -11.588900   18.865100
  H    -43.079600   -9.894100   19.013900
  C    -44.839300  -11.269500   19.420200
  H    -44.785600  -10.948900   20.466700
  H    -45.694100  -10.945000   18.852900
  H    -45.009000  -12.382800   19.323900
  S    -38.260200  -12.102800   17.464200
  C    -36.593700  -12.248600   16.836700
  C    -36.449700  -11.375500   15.755000
  C    -37.612600  -10.608000   15.455000
  C    -38.731200  -10.997400   16.185100
  H    -35.536500  -11.498700   15.223300
  C    -37.578400   -9.747390   14.095900
  H    -38.072200   -8.837260   14.292500
  H    -38.156000  -10.258800   13.324200
  C    -36.192600   -9.507890   13.406600
  H    -36.464100   -8.784320   12.656100
  H    -35.905700  -10.352400   12.806900
  C    -35.162200   -8.717700   14.175900
  H    -34.614500   -9.313440   14.927600
  H    -35.819200   -7.967810   14.726200
  H    -34.559600   -8.158790   13.471500
  H    -43.213300   -9.842340   14.422100
  H    -35.929400  -12.932500   17.243500

 Total Charge           Charge          ....    0
 Multiplicity           Mult            ....    1
 Number of Electrons    NEL             ....  134
 Basis Dimension        Dim             ....  322

ORBITAL ENERGIES
----------------

  NO   OCC          E(Eh)            E(eV)
   0   2.0000     -88.970347     -2421.0062
   1   2.0000     -88.962146     -2420.7831
   2   2.0000     -10.330787      -281.1150
   3   2.0000     -10.329417      -281.0777
   4   2.0000     -10.316751      -280.7331
   5   2.0000     -10.311540      -280.5913
   6   2.0000     -10.307606      -280.4842
   7   2.0000     -10.305974      -280.4398
   8   2.0000     -10.295266      -280.1484
   9   2.0000     -10.295119      -280.1444
  10   2.0000     -10.294611      -280.1306
  11   2.0000     -10.288223      -279.9568
  12   2.0000     -10.285736      -279.8891
  13   2.0000     -10.283721      -279.8343
  14   2.0000     -10.283375      -279.8249
  15   2.0000     -10.282333      -279.7965
  16   2.0000      -8.084870      -220.0005
  17   2.0000      -8.076379      -219.7695
  18   2.0000      -6.043491      -164.4518
  19   2.0000      -6.039463      -164.3421
  20   2.0000      -6.035486      -164.2339
  21   2.0000      -6.035008      -164.2209
  22   2.0000      -6.030937      -164.1101
  23   2.0000      -6.027078      -164.0051
  24   2.0000      -1.004798       -27.3419
  25   2.0000      -0.980458       -26.6796
  26   2.0000      -0.914424       -24.8828
  27   2.0000      -0.905322       -24.6351
  28   2.0000      -0.870299       -23.6821
  29   2.0000      -0.850647       -23.1473
  30   2.0000      -0.839614       -22.8470
  31   2.0000      -0.812172       -22.1003
  32   2.0000      -0.783265       -21.3137
  33   2.0000      -0.775511       -21.1027
  34   2.0000      -0.710141       -19.3239
  35   2.0000      -0.696843       -18.9621
  36   2.0000      -0.687144       -18.6981
  37   2.0000      -0.666661       -18.1408
  38   2.0000      -0.631797       -17.1921
  39   2.0000      -0.618927       -16.8419
  40   2.0000      -0.596542       -16.2327
  41   2.0000      -0.574605       -15.6358
  42   2.0000      -0.567799       -15.4506
  43   2.0000      -0.556547       -15.1444
  44   2.0000      -0.538717       -14.6592
  45   2.0000      -0.528651       -14.3853
  46   2.0000      -0.519548       -14.1376
  47   2.0000      -0.506064       -13.7707
  48   2.0000      -0.501672       -13.6512
  49   2.0000      -0.496824       -13.5193
  50   2.0000      -0.491563       -13.3761
  51   2.0000      -0.483178       -13.1479
  52   2.0000      -0.468908       -12.7596
  53   2.0000      -0.463449       -12.6111
  54   2.0000      -0.456911       -12.4332
  55   2.0000      -0.454242       -12.3606
  56   2.0000      -0.440273       -11.9804
  57   2.0000      -0.436719       -11.8837
  58   2.0000      -0.431904       -11.7527
  59   2.0000      -0.429514       -11.6877
  60   2.0000      -0.416500       -11.3335
  61   2.0000      -0.411347       -11.1933
  62   2.0000      -0.402368       -10.9490
  63   2.0000      -0.361344        -9.8327
  64   2.0000      -0.330862        -9.0032
  65   2.0000      -0.329690        -8.9713
  66   2.0000      -0.281090        -7.6489
  67   0.0000       0.018715         0.5093
  68   0.0000       0.082694         2.2502
  69   0.0000       0.113330         3.0839
  70   0.0000       0.116597         3.1728
  71   0.0000       0.127755         3.4764

MULLIKEN ATOMIC CHARGES
-----------------------
   0 S :    0.102141
   1 C :   -0.129510
   2 C :   -0.074773
   3 C :   -0.047160
   4 C :   -0.098527
   5 H :    0.047138
   6 C :    0.086126
   7 H :    0.034181
   8 H :    0.021830
   9 C :   -0.119773
  10 H :    0.034654
  11 H :    0.031531
  12 C :   -0.040847
  13 H :    0.053702
  14 H :    0.020647
  15 H :    0.036662
  16 S :    0.069972
  17 C :   -0.078002
  18 C :   -0.040283
  19 C :   -0.055745
  20 C :   -0.113279
  21 H :    0.026791
  22 C :    0.034982
  23 H :    0.025283
  24 H :    0.046378
  25 C :   -0.082676
  26 H :    0.019737
  27 H :    0.028622
  28 C :   -0.043531
  29 H :    0.044436
  30 H :    0.031934
  31 H :    0.039281
  32 H :    0.048746
  33 H :    0.039333
Sum of atomic charges:    0.0000000

LOEWDIN ATOMIC CHARGES
----------------------
   0 S :    0.423656
   1 C :   -0.210371
   2 C :   -0.056161
   3 C :   -0.079153
   4 C :   -0.182460
   5 H :    0.034338
   6 C :   -0.028218
   7 H :    0.033271
   8 H :    0.024820
   9 C :   -0.043516
  10 H :    0.022117
  11 H :    0.020135
  12 C :   -0.064934
  13 H :    0.032955
  14 H :    0.020295
  15 H :    0.034152
  16 S :    0.385944
  17 C :   -0.159461
  18 C :   -0.066697
  19 C :   -0.064652
  20 C :   -0.187994
  21 H :    0.030076
  22 C :   -0.030286
  23 H :    0.018759
  24 H :    0.027982
  25 C :   -0.052384
  26 H :    0.032226
  27 H :    0.019298
  28 C :   -0.065163
  29 H :    0.023066
  30 H :    0.037921
  31 H :    0.026483
  32 H :    0.029363
  33 H :    0.014592

  Mayer bond orders larger than 0.100000
B(  0-S ,  1-C ) :   1.1329 B(  0-S ,  4-C ) :   1.1348 B(  1-C ,  2-C ) :   1.6489
B(  1-C , 32-H ) :   0.9640 B(  2-C ,  3-C ) :   1.2360 B(  2-C ,  6-C ) :   1.0094
B(  3-C ,  4-C ) :   1.5801 B(  3-C ,  5-H ) :   0.9711 B(  4-C , 20-C ) :   1.0759
B(  6-C ,  7-H ) :   0.9375 B(  6-C ,  8-H ) :   0.9402 B(  6-C ,  9-C ) :   1.0801
B(  9-C , 10-H ) :   0.9453 B(  9-C , 11-H ) :   0.9656 B(  9-C , 12-C ) :   1.0682
B( 12-C , 13-H ) :   0.9738 B( 12-C , 14-H ) :   0.9762 B( 12-C , 15-H ) :   0.9729
B( 16-S , 17-C ) :   1.1419 B( 16-S , 20-C ) :   1.1394 B( 17-C , 18-C ) :   1.6031
B( 17-C , 33-H ) :   0.9792 B( 18-C , 19-C ) :   1.2403 B( 18-C , 21-H ) :   0.9891
B( 19-C , 20-C ) :   1.5795 B( 19-C , 22-C ) :   1.0035 B( 22-C , 23-H ) :   0.9369
B( 22-C , 24-H ) :   0.9365 B( 22-C , 25-C ) :   1.1012 B( 25-C , 26-H ) :   0.9470
B( 25-C , 27-H ) :   0.9491 B( 25-C , 28-C ) :   1.0656 B( 28-C , 29-H ) :   0.9757
B( 28-C , 30-H ) :   0.9705 B( 28-C , 31-H ) :   0.9773

Dispersion correction           -0.013483941
FINAL SINGLE POINT ENERGY     -1339.855096377509

DIPOLE MOMENT
-------------
                                X             Y             Z
Electronic contribution:      3.95697      -6.56956      -2.67589
Nuclear contribution   :     -4.07208       6.63041       2.48879
                        -----------------------------------------
Total Dipole Moment    :     -0.11510       0.06085      -0.18710
                        -----------------------------------------
Magnitude (a.u.)       :      0.22794
Magnitude (Debye)      :      0.57938

Rotational constants in cm-1:     0.025557     0.007023     0.005798
Rotational constants in MHz :   766.165082   210.534906   173.811813

                             ****ORCA TERMINATED NORMALLY****
TOTAL RUN TIME: 0 days 0 hours 0 minutes 19 seconds 788 msec
