                         Program Version 4.2.1 -  RELEASE  -
|  1> ! wB97X-D3 SP def2-SVP
|  2> %pal
|  3> nprocs 24
|  4> end
|  5>
|  6> * xyz 0 1
|  7> S 	 -91.944 	 15.1288 	 -116.833
|  8> C 	 -90.1955 	 15.1709 	 -116.891
|  9> C 	 -89.6461 	 14.0888 	 -117.539
| 10> C 	 -90.6962 	 13.1878 	 -117.941
| 11> C 	 -91.9539 	 13.5501 	 -117.472
| 12> H 	 -90.4482 	 12.2201 	 -118.385
| 13> C 	 -88.0989 	 13.8199 	 -117.675
| 14> H 	 -87.6234 	 14.763 	 -118.014
| 15> H 	 -87.8945 	 13.1815 	 -118.503
| 16> C 	 -87.3816 	 13.2484 	 -116.39
| 17> H 	 -86.2565 	 13.3063 	 -116.448
| 18> H 	 -87.6362 	 13.9353 	 -115.536
| 19> C 	 -87.8722 	 11.8451 	 -116.147
| 20> H 	 -88.0764 	 11.2581 	 -117.035
| 21> H 	 -87.2493 	 11.2426 	 -115.552
| 22> H 	 -88.7878 	 11.7791 	 -115.62
| 23> S 	 -93.7166 	 12.0199 	 -116.135
| 24> C 	 -94.9214 	 11.1583 	 -116.999
| 25> C 	 -94.8771 	 11.3712 	 -118.391
| 26> C 	 -93.7153 	 12.1305 	 -118.713
| 27> C 	 -93.1449 	 12.683 	 -117.608
| 28> H 	 -95.561 	 10.9003 	 -119.117
| 29> C 	 -93.3067 	 12.2994 	 -120.137
| 30> H 	 -93.0447 	 11.2957 	 -120.49
| 31> H 	 -92.3859 	 12.9128 	 -120.29
| 32> C 	 -94.4501 	 12.819 	 -121.034
| 33> H 	 -94.8352 	 13.8221 	 -120.849
| 34> H 	 -95.3261 	 12.1898 	 -120.986
| 35> C 	 -94.076 	 12.8028 	 -122.566
| 36> H 	 -94.9663 	 13.0885 	 -123.224
| 37> H 	 -93.6458 	 11.8566 	 -122.92
| 38> H 	 -93.2567 	 13.4913 	 -122.841
| 39> H 	 -89.6286 	 16.0086 	 -116.504
| 40> H 	 -95.4921 	 10.395 	 -116.448
| 41> *
| 42>
| 43>                          ****END OF INPUT****

CARTESIAN COORDINATES (ANGSTROEM)
---------------------------------
  S    -91.944000   15.128800  -116.833000
  C    -90.195500   15.170900  -116.891000
  C    -89.646100   14.088800  -117.539000
  C    -90.696200   13.187800  -117.941000
  C    -91.953900   13.550100  -117.472000
  H    -90.448200   12.220100  -118.385000
  C    -88.098900   13.819900  -117.675000
  H    -87.623400   14.763000  -118.014000
  H    -87.894500   13.181500  -118.503000
  C    -87.381600   13.248400  -116.390000
  H    -86.256500   13.306300  -116.448000
  H    -87.636200   13.935300  -115.536000
  C    -87.872200   11.845100  -116.147000
  H    -88.076400   11.258100  -117.035000
  H    -87.249300   11.242600  -115.552000
  H    -88.787800   11.779100  -115.620000
  S    -93.716600   12.019900  -116.135000
  C    -94.921400   11.158300  -116.999000
  C    -94.877100   11.371200  -118.391000
  C    -93.715300   12.130500  -118.713000
  C    -93.144900   12.683000  -117.608000
  H    -95.561000   10.900300  -119.117000
  C    -93.306700   12.299400  -120.137000
  H    -93.044700   11.295700  -120.490000
  H    -92.385900   12.912800  -120.290000
  C    -94.450100   12.819000  -121.034000
  H    -94.835200   13.822100  -120.849000
  H    -95.326100   12.189800  -120.986000
  C    -94.076000   12.802800  -122.566000
  H    -94.966300   13.088500  -123.224000
  H    -93.645800   11.856600  -122.920000
  H    -93.256700   13.491300  -122.841000
  H    -89.628600   16.008600  -116.504000
  H    -95.492100   10.395000  -116.448000

 Total Charge           Charge          ....    0
 Multiplicity           Mult            ....    1
 Number of Electrons    NEL             ....  134
 Basis Dimension        Dim             ....  322

ORBITAL ENERGIES
----------------

  NO   OCC          E(Eh)            E(eV)
   0   2.0000     -88.967282     -2420.9228
   1   2.0000     -88.963918     -2420.8313
   2   2.0000     -10.324518      -280.9444
   3   2.0000     -10.318631      -280.7842
   4   2.0000     -10.317564      -280.7552
   5   2.0000     -10.310400      -280.5603
   6   2.0000     -10.303292      -280.3668
   7   2.0000     -10.298723      -280.2425
   8   2.0000     -10.298702      -280.2419
   9   2.0000     -10.298269      -280.2301
  10   2.0000     -10.297013      -280.1960
  11   2.0000     -10.295102      -280.1440
  12   2.0000     -10.292673      -280.0779
  13   2.0000     -10.289401      -279.9888
  14   2.0000     -10.284819      -279.8642
  15   2.0000     -10.264893      -279.3219
  16   2.0000      -8.082752      -219.9429
  17   2.0000      -8.080274      -219.8754
  18   2.0000      -6.041138      -164.3877
  19   2.0000      -6.038481      -164.3154
  20   2.0000      -6.037216      -164.2810
  21   2.0000      -6.034594      -164.2096
  22   2.0000      -6.033552      -164.1813
  23   2.0000      -6.031226      -164.1180
  24   2.0000      -1.012962       -27.5641
  25   2.0000      -0.989069       -26.9139
  26   2.0000      -0.908904       -24.7325
  27   2.0000      -0.904116       -24.6023
  28   2.0000      -0.864408       -23.5217
  29   2.0000      -0.850367       -23.1397
  30   2.0000      -0.844679       -22.9849
  31   2.0000      -0.807244       -21.9662
  32   2.0000      -0.783188       -21.3116
  33   2.0000      -0.771433       -20.9917
  34   2.0000      -0.705079       -19.1862
  35   2.0000      -0.702392       -19.1131
  36   2.0000      -0.688145       -18.7254
  37   2.0000      -0.663869       -18.0648
  38   2.0000      -0.638648       -17.3785
  39   2.0000      -0.614592       -16.7239
  40   2.0000      -0.599352       -16.3092
  41   2.0000      -0.567161       -15.4332
  42   2.0000      -0.556992       -15.1565
  43   2.0000      -0.548295       -14.9199
  44   2.0000      -0.539605       -14.6834
  45   2.0000      -0.523049       -14.2329
  46   2.0000      -0.517148       -14.0723
  47   2.0000      -0.502477       -13.6731
  48   2.0000      -0.501116       -13.6361
  49   2.0000      -0.490853       -13.3568
  50   2.0000      -0.482311       -13.1244
  51   2.0000      -0.470961       -12.8155
  52   2.0000      -0.469781       -12.7834
  53   2.0000      -0.466153       -12.6847
  54   2.0000      -0.459662       -12.5080
  55   2.0000      -0.452276       -12.3071
  56   2.0000      -0.442063       -12.0291
  57   2.0000      -0.438129       -11.9221
  58   2.0000      -0.433694       -11.8014
  59   2.0000      -0.432199       -11.7607
  60   2.0000      -0.424496       -11.5511
  61   2.0000      -0.417068       -11.3490
  62   2.0000      -0.414731       -11.2854
  63   2.0000      -0.337877        -9.1941
  64   2.0000      -0.333068        -9.0633
  65   2.0000      -0.326886        -8.8950
  66   2.0000      -0.297098        -8.0844
  67   0.0000       0.043313         1.1786
  68   0.0000       0.066156         1.8002
  69   0.0000       0.115212         3.1351
  70   0.0000       0.118472         3.2238
  71   0.0000       0.131500         3.5783

MULLIKEN ATOMIC CHARGES
-----------------------
   0 S :    0.131213
   1 C :   -0.138101
   2 C :   -0.082982
   3 C :    0.037014
   4 C :   -0.170938
   5 H :    0.012531
   6 C :    0.053354
   7 H :    0.028399
   8 H :    0.015697
   9 C :   -0.071370
  10 H :    0.042252
  11 H :    0.037148
  12 C :   -0.018213
  13 H :    0.016852
  14 H :    0.013831
  15 H :    0.027789
  16 S :    0.122511
  17 C :   -0.109499
  18 C :   -0.043479
  19 C :   -0.015643
  20 C :   -0.175768
  21 H :    0.035447
  22 C :    0.077346
  23 H :    0.028431
  24 H :    0.038663
  25 C :   -0.076468
  26 H :    0.039405
  27 H :    0.024943
  28 C :   -0.094860
  29 H :    0.048039
  30 H :    0.023173
  31 H :    0.029959
  32 H :    0.045060
  33 H :    0.068261
Sum of atomic charges:   -0.0000000

LOEWDIN ATOMIC CHARGES
----------------------
   0 S :    0.428579
   1 C :   -0.198212
   2 C :   -0.062327
   3 C :   -0.067270
   4 C :   -0.217070
   5 H :    0.029403
   6 C :   -0.027961
   7 H :    0.031812
   8 H :    0.021693
   9 C :   -0.041044
  10 H :    0.029942
  11 H :    0.029788
  12 C :   -0.069024
  13 H :    0.023782
  14 H :    0.020210
  15 H :    0.027208
  16 S :    0.439307
  17 C :   -0.195727
  18 C :   -0.071390
  19 C :   -0.055898
  20 C :   -0.216968
  21 H :    0.036717
  22 C :   -0.031491
  23 H :    0.036060
  24 H :    0.036546
  25 C :   -0.036546
  26 H :    0.028422
  27 H :    0.019735
  28 C :   -0.079436
  29 H :    0.034179
  30 H :    0.020118
  31 H :    0.023012
  32 H :    0.024907
  33 H :    0.028945

  Mayer bond orders larger than 0.100000
B(  0-S ,  1-C ) :   1.1429 B(  0-S ,  4-C ) :   1.1778 B(  1-C ,  2-C ) :   1.6126
B(  1-C , 32-H ) :   0.9690 B(  2-C ,  3-C ) :   1.2631 B(  2-C ,  6-C ) :   1.0100
B(  3-C ,  4-C ) :   1.5577 B(  3-C ,  5-H ) :   0.9925 B(  4-C , 20-C ) :   0.9892
B(  6-C ,  7-H ) :   0.9436 B(  6-C ,  8-H ) :   0.9492 B(  6-C ,  9-C ) :   1.0624
B(  9-C , 10-H ) :   0.9601 B(  9-C , 11-H ) :   0.9578 B(  9-C , 12-C ) :   1.0662
B( 12-C , 13-H ) :   0.9765 B( 12-C , 14-H ) :   0.9706 B( 12-C , 15-H ) :   0.9699
B( 16-S , 17-C ) :   1.1889 B( 16-S , 20-C ) :   1.1560 B( 17-C , 18-C ) :   1.5709
B( 17-C , 33-H ) :   0.9662 B( 18-C , 19-C ) :   1.2424 B( 18-C , 21-H ) :   0.9867
B( 19-C , 20-C ) :   1.6204 B( 19-C , 22-C ) :   1.0513 B( 22-C , 23-H ) :   0.9229
B( 22-C , 24-H ) :   0.9377 B( 22-C , 25-C ) :   1.0593 B( 25-C , 26-H ) :   0.9582
B( 25-C , 27-H ) :   0.9538 B( 25-C , 28-C ) :   1.0742 B( 28-C , 29-H ) :   0.9760
B( 28-C , 30-H ) :   0.9748 B( 28-C , 31-H ) :   0.9764

Dispersion correction           -0.014304381
FINAL SINGLE POINT ENERGY     -1339.880697733873

DIPOLE MOMENT
-------------
                                X             Y             Z
Electronic contribution:    -12.44113       6.20841      16.32773
Nuclear contribution   :     12.75457      -6.56538     -16.64221
                        -----------------------------------------
Total Dipole Moment    :      0.31344      -0.35698      -0.31448
                        -----------------------------------------
Magnitude (a.u.)       :      0.56971
Magnitude (Debye)      :      1.44810

Rotational constants in cm-1:     0.018487     0.008113     0.007099
Rotational constants in MHz :   554.230035   243.214026   212.809757

                             ****ORCA TERMINATED NORMALLY****
TOTAL RUN TIME: 0 days 0 hours 0 minutes 21 seconds 321 msec
