                         Program Version 4.2.1 -  RELEASE  -
|  1> ! wB97X-D3 SP def2-SVP
|  2> %pal
|  3> nprocs 24
|  4> end
|  5>
|  6> * xyz 0 1
|  7> S 	 -107.185 	 56.0108 	 -92.2059
|  8> C 	 -108.441 	 56.7102 	 -93.1627
|  9> C 	 -109.68 	 56.3531 	 -92.6457
| 10> C 	 -109.634 	 55.6843 	 -91.4038
| 11> C 	 -108.35 	 55.3495 	 -91.0659
| 12> H 	 -110.568 	 55.4611 	 -90.7323
| 13> C 	 -111.002 	 56.7158 	 -93.25
| 14> H 	 -110.939 	 57.7475 	 -93.6788
| 15> H 	 -111.753 	 56.8068 	 -92.5021
| 16> C 	 -111.624 	 55.6915 	 -94.1655
| 17> H 	 -110.95 	 55.6704 	 -95.056
| 18> H 	 -111.693 	 54.7352 	 -93.6651
| 19> C 	 -113.006 	 56.1091 	 -94.7546
| 20> H 	 -113.83 	 55.9914 	 -94.0842
| 21> H 	 -112.899 	 57.1361 	 -94.9724
| 22> H 	 -113.167 	 55.6558 	 -95.7204
| 23> S 	 -106.469 	 54.7959 	 -89.2545
| 24> C 	 -106.63 	 53.5041 	 -88.1516
| 25> C 	 -107.725 	 52.7334 	 -88.4088
| 26> C 	 -108.53 	 53.239 	 -89.4904
| 27> C 	 -107.985 	 54.3887 	 -90.0243
| 28> H 	 -107.803 	 51.7363 	 -87.9034
| 29> C 	 -109.711 	 52.5188 	 -90.0585
| 30> H 	 -109.982 	 53.1196 	 -90.9434
| 31> H 	 -110.588 	 52.6466 	 -89.4819
| 32> C 	 -109.423 	 51.0514 	 -90.5747
| 33> H 	 -110.402 	 50.5067 	 -90.6871
| 34> H 	 -108.766 	 50.4649 	 -89.9155
| 35> C 	 -108.699 	 50.9915 	 -91.9228
| 36> H 	 -108.771 	 49.913 	 -92.2462
| 37> H 	 -107.608 	 51.127 	 -91.7929
| 38> H 	 -109.251 	 51.5713 	 -92.6775
| 39> H 	 -108.212 	 57.1786 	 -94.0718
| 40> H 	 -105.914 	 53.0506 	 -87.6002
| 41> *
| 42>
| 43>                          ****END OF INPUT****

CARTESIAN COORDINATES (ANGSTROEM)
---------------------------------
  S    -107.185000   56.010800  -92.205900
  C    -108.441000   56.710200  -93.162700
  C    -109.680000   56.353100  -92.645700
  C    -109.634000   55.684300  -91.403800
  C    -108.350000   55.349500  -91.065900
  H    -110.568000   55.461100  -90.732300
  C    -111.002000   56.715800  -93.250000
  H    -110.939000   57.747500  -93.678800
  H    -111.753000   56.806800  -92.502100
  C    -111.624000   55.691500  -94.165500
  H    -110.950000   55.670400  -95.056000
  H    -111.693000   54.735200  -93.665100
  C    -113.006000   56.109100  -94.754600
  H    -113.830000   55.991400  -94.084200
  H    -112.899000   57.136100  -94.972400
  H    -113.167000   55.655800  -95.720400
  S    -106.469000   54.795900  -89.254500
  C    -106.630000   53.504100  -88.151600
  C    -107.725000   52.733400  -88.408800
  C    -108.530000   53.239000  -89.490400
  C    -107.985000   54.388700  -90.024300
  H    -107.803000   51.736300  -87.903400
  C    -109.711000   52.518800  -90.058500
  H    -109.982000   53.119600  -90.943400
  H    -110.588000   52.646600  -89.481900
  C    -109.423000   51.051400  -90.574700
  H    -110.402000   50.506700  -90.687100
  H    -108.766000   50.464900  -89.915500
  C    -108.699000   50.991500  -91.922800
  H    -108.771000   49.913000  -92.246200
  H    -107.608000   51.127000  -91.792900
  H    -109.251000   51.571300  -92.677500
  H    -108.212000   57.178600  -94.071800
  H    -105.914000   53.050600  -87.600200

 Total Charge           Charge          ....    0
 Multiplicity           Mult            ....    1
 Number of Electrons    NEL             ....  134
 Basis Dimension        Dim             ....  322

ORBITAL ENERGIES
----------------

  NO   OCC          E(Eh)            E(eV)
   0   2.0000     -88.968451     -2420.9546
   1   2.0000     -88.961074     -2420.7539
   2   2.0000     -10.329982      -281.0931
   3   2.0000     -10.325406      -280.9686
   4   2.0000     -10.312413      -280.6150
   5   2.0000     -10.303486      -280.3721
   6   2.0000     -10.302125      -280.3351
   7   2.0000     -10.300364      -280.2872
   8   2.0000     -10.300032      -280.2781
   9   2.0000     -10.293738      -280.1068
  10   2.0000     -10.293417      -280.0981
  11   2.0000     -10.288518      -279.9648
  12   2.0000     -10.287269      -279.9308
  13   2.0000     -10.285983      -279.8958
  14   2.0000     -10.280479      -279.7460
  15   2.0000     -10.273152      -279.5467
  16   2.0000      -8.083478      -219.9626
  17   2.0000      -8.077001      -219.7864
  18   2.0000      -6.041939      -164.4095
  19   2.0000      -6.037938      -164.3006
  20   2.0000      -6.035449      -164.2329
  21   2.0000      -6.034274      -164.2009
  22   2.0000      -6.031333      -164.1209
  23   2.0000      -6.027775      -164.0241
  24   2.0000      -1.013111       -27.5682
  25   2.0000      -0.990749       -26.9597
  26   2.0000      -0.915699       -24.9174
  27   2.0000      -0.905528       -24.6407
  28   2.0000      -0.873221       -23.7616
  29   2.0000      -0.855483       -23.2789
  30   2.0000      -0.846685       -23.0395
  31   2.0000      -0.818854       -22.2822
  32   2.0000      -0.782510       -21.2932
  33   2.0000      -0.773243       -21.0410
  34   2.0000      -0.705622       -19.2010
  35   2.0000      -0.700104       -19.0508
  36   2.0000      -0.692893       -18.8546
  37   2.0000      -0.656685       -17.8693
  38   2.0000      -0.643258       -17.5039
  39   2.0000      -0.622460       -16.9380
  40   2.0000      -0.600139       -16.3306
  41   2.0000      -0.574571       -15.6349
  42   2.0000      -0.563039       -15.3211
  43   2.0000      -0.548898       -14.9363
  44   2.0000      -0.542479       -14.7616
  45   2.0000      -0.524698       -14.2778
  46   2.0000      -0.521532       -14.1916
  47   2.0000      -0.512102       -13.9350
  48   2.0000      -0.506229       -13.7752
  49   2.0000      -0.500206       -13.6113
  50   2.0000      -0.492103       -13.3908
  51   2.0000      -0.475732       -12.9453
  52   2.0000      -0.474287       -12.9060
  53   2.0000      -0.464209       -12.6318
  54   2.0000      -0.458699       -12.4818
  55   2.0000      -0.451693       -12.2912
  56   2.0000      -0.444170       -12.0865
  57   2.0000      -0.437549       -11.9063
  58   2.0000      -0.433455       -11.7949
  59   2.0000      -0.422338       -11.4924
  60   2.0000      -0.418509       -11.3882
  61   2.0000      -0.412172       -11.2158
  62   2.0000      -0.407877       -11.0989
  63   2.0000      -0.354556        -9.6480
  64   2.0000      -0.334407        -9.0997
  65   2.0000      -0.329071        -8.9545
  66   2.0000      -0.289375        -7.8743
  67   0.0000       0.025579         0.6960
  68   0.0000       0.078126         2.1259
  69   0.0000       0.107285         2.9194
  70   0.0000       0.120197         3.2707
  71   0.0000       0.133731         3.6390

MULLIKEN ATOMIC CHARGES
-----------------------
   0 S :    0.111104
   1 C :   -0.095264
   2 C :   -0.086114
   3 C :   -0.029326
   4 C :   -0.100164
   5 H :    0.063627
   6 C :    0.051523
   7 H :    0.029833
   8 H :   -0.000692
   9 C :   -0.085259
  10 H :    0.025443
  11 H :    0.031167
  12 C :   -0.007951
  13 H :    0.032877
  14 H :    0.007868
  15 H :    0.032874
  16 S :    0.090670
  17 C :   -0.018338
  18 C :   -0.089029
  19 C :   -0.049217
  20 C :   -0.157378
  21 H :    0.039179
  22 C :    0.096435
  23 H :    0.007866
  24 H :    0.024423
  25 C :   -0.102882
  26 H :    0.037476
  27 H :    0.031125
  28 C :   -0.070751
  29 H :    0.030872
  30 H :    0.053789
  31 H :    0.043576
  32 H :    0.033847
  33 H :    0.016790
Sum of atomic charges:    0.0000000

LOEWDIN ATOMIC CHARGES
----------------------
   0 S :    0.413533
   1 C :   -0.193854
   2 C :   -0.062688
   3 C :   -0.076710
   4 C :   -0.193519
   5 H :    0.055383
   6 C :   -0.040973
   7 H :    0.033384
   8 H :    0.021276
   9 C :   -0.036341
  10 H :    0.025658
  11 H :    0.021412
  12 C :   -0.058884
  13 H :    0.020666
  14 H :    0.019819
  15 H :    0.028550
  16 S :    0.415449
  17 C :   -0.188264
  18 C :   -0.072701
  19 C :   -0.059566
  20 C :   -0.188434
  21 H :    0.040193
  22 C :   -0.037402
  23 H :    0.032173
  24 H :    0.025404
  25 C :   -0.041922
  26 H :    0.028828
  27 H :    0.022275
  28 C :   -0.071241
  29 H :    0.031127
  30 H :    0.031945
  31 H :    0.026213
  32 H :    0.018641
  33 H :    0.010569

  Mayer bond orders larger than 0.100000
B(  0-S ,  1-C ) :   1.1361 B(  0-S ,  4-C ) :   1.1627 B(  1-C ,  2-C ) :   1.5859
B(  1-C , 32-H ) :   0.9829 B(  2-C ,  3-C ) :   1.2594 B(  2-C ,  6-C ) :   1.0343
B(  3-C ,  4-C ) :   1.5612 B(  3-C ,  5-H ) :   0.9742 B(  4-C , 20-C ) :   1.0265
B(  6-C ,  7-H ) :   0.9378 B(  6-C ,  8-H ) :   0.9375 B(  6-C ,  9-C ) :   1.0668
B(  9-C , 10-H ) :   0.9570 B(  9-C , 11-H ) :   0.9559 B(  9-C , 12-C ) :   1.0776
B( 12-C , 13-H ) :   0.9764 B( 12-C , 14-H ) :   0.9708 B( 12-C , 15-H ) :   0.9755
B( 16-S , 17-C ) :   1.1542 B( 16-S , 20-C ) :   1.1379 B( 17-C , 18-C ) :   1.6415
B( 17-C , 33-H ) :   0.9672 B( 18-C , 19-C ) :   1.2210 B( 18-C , 21-H ) :   0.9788
B( 19-C , 20-C ) :   1.6072 B( 19-C , 22-C ) :   1.0405 B( 22-C , 23-H ) :   0.9322
B( 22-C , 24-H ) :   0.9276 B( 22-C , 25-C ) :   1.0491 B( 25-C , 26-H ) :   0.9579
B( 25-C , 27-H ) :   0.9634 B( 25-C , 28-C ) :   1.0811 B( 28-C , 29-H ) :   0.9725
B( 28-C , 30-H ) :   0.9765 B( 28-C , 31-H ) :   0.9728

Dispersion correction           -0.014258677
FINAL SINGLE POINT ENERGY     -1339.866318294158

DIPOLE MOMENT
-------------
                                X             Y             Z
Electronic contribution:     23.72751      11.10879      13.96353
Nuclear contribution   :    -24.26836     -11.48631     -14.25295
                        -----------------------------------------
Total Dipole Moment    :     -0.54085      -0.37753      -0.28942
                        -----------------------------------------
Magnitude (a.u.)       :      0.72028
Magnitude (Debye)      :      1.83081

Rotational constants in cm-1:     0.019623     0.008789     0.006861
Rotational constants in MHz :   588.290509   263.498275   205.680274

                             ****ORCA TERMINATED NORMALLY****
TOTAL RUN TIME: 0 days 0 hours 0 minutes 21 seconds 981 msec
