                         Program Version 4.2.1 -  RELEASE  -
|  1> ! wB97X-D3 SP def2-SVP
|  2> %pal
|  3> nprocs 24
|  4> end
|  5>
|  6> * xyz 0 1
|  7> S 	 -113.246 	 53.7432 	 -93.9648
|  8> C 	 -113.927 	 54.778 	 -95.1783
|  9> C 	 -114.416 	 55.9368 	 -94.6319
| 10> C 	 -114.329 	 56.0131 	 -93.1628
| 11> C 	 -113.628 	 54.8803 	 -92.691
| 12> H 	 -114.744 	 56.722 	 -92.4841
| 13> C 	 -115.085 	 57.0359 	 -95.3659
| 14> H 	 -115.828 	 57.4698 	 -94.6377
| 15> H 	 -115.614 	 56.6361 	 -96.1917
| 16> C 	 -114.116 	 58.0822 	 -95.9213
| 17> H 	 -113.578 	 58.5933 	 -95.2081
| 18> H 	 -113.39 	 57.5728 	 -96.5607
| 19> C 	 -114.897 	 58.9658 	 -96.9167
| 20> H 	 -115.726 	 59.5053 	 -96.495
| 21> H 	 -114.205 	 59.789 	 -97.2113
| 22> H 	 -115.236 	 58.4944 	 -97.8539
| 23> S 	 -114.548 	 53.1941 	 -90.6484
| 24> C 	 -113.998 	 53.4332 	 -89.0291
| 25> C 	 -113.021 	 54.3832 	 -88.9506
| 26> C 	 -112.79 	 55.0471 	 -90.2205
| 27> C 	 -113.472 	 54.4661 	 -91.2708
| 28> H 	 -112.65 	 54.819 	 -88.0137
| 29> C 	 -111.865 	 56.2511 	 -90.4034
| 30> H 	 -112.392 	 57.1058 	 -90.08
| 31> H 	 -111.768 	 56.5565 	 -91.4004
| 32> C 	 -110.504 	 56.1988 	 -89.678
| 33> H 	 -109.932 	 55.355 	 -90.0324
| 34> H 	 -110.62 	 56.0793 	 -88.5955
| 35> C 	 -109.693 	 57.4982 	 -89.8858
| 36> H 	 -109.363 	 57.6961 	 -90.904
| 37> H 	 -108.835 	 57.4709 	 -89.2566
| 38> H 	 -110.265 	 58.3189 	 -89.5233
| 39> H 	 -113.907 	 54.5791 	 -96.2525
| 40> H 	 -114.501 	 52.9467 	 -88.133
| 41> *
| 42>
| 43>                          ****END OF INPUT****

CARTESIAN COORDINATES (ANGSTROEM)
---------------------------------
  S    -113.246000   53.743200  -93.964800
  C    -113.927000   54.778000  -95.178300
  C    -114.416000   55.936800  -94.631900
  C    -114.329000   56.013100  -93.162800
  C    -113.628000   54.880300  -92.691000
  H    -114.744000   56.722000  -92.484100
  C    -115.085000   57.035900  -95.365900
  H    -115.828000   57.469800  -94.637700
  H    -115.614000   56.636100  -96.191700
  C    -114.116000   58.082200  -95.921300
  H    -113.578000   58.593300  -95.208100
  H    -113.390000   57.572800  -96.560700
  C    -114.897000   58.965800  -96.916700
  H    -115.726000   59.505300  -96.495000
  H    -114.205000   59.789000  -97.211300
  H    -115.236000   58.494400  -97.853900
  S    -114.548000   53.194100  -90.648400
  C    -113.998000   53.433200  -89.029100
  C    -113.021000   54.383200  -88.950600
  C    -112.790000   55.047100  -90.220500
  C    -113.472000   54.466100  -91.270800
  H    -112.650000   54.819000  -88.013700
  C    -111.865000   56.251100  -90.403400
  H    -112.392000   57.105800  -90.080000
  H    -111.768000   56.556500  -91.400400
  C    -110.504000   56.198800  -89.678000
  H    -109.932000   55.355000  -90.032400
  H    -110.620000   56.079300  -88.595500
  C    -109.693000   57.498200  -89.885800
  H    -109.363000   57.696100  -90.904000
  H    -108.835000   57.470900  -89.256600
  H    -110.265000   58.318900  -89.523300
  H    -113.907000   54.579100  -96.252500
  H    -114.501000   52.946700  -88.133000

 Total Charge           Charge          ....    0
 Multiplicity           Mult            ....    1
 Number of Electrons    NEL             ....  134
 Basis Dimension        Dim             ....  322

ORBITAL ENERGIES
----------------

  NO   OCC          E(Eh)            E(eV)
   0   2.0000     -88.965548     -2420.8756
   1   2.0000     -88.961164     -2420.7563
   2   2.0000     -10.333159      -281.1796
   3   2.0000     -10.324465      -280.9430
   4   2.0000     -10.321185      -280.8537
   5   2.0000     -10.311676      -280.5950
   6   2.0000     -10.304265      -280.3933
   7   2.0000     -10.300089      -280.2797
   8   2.0000     -10.299379      -280.2604
   9   2.0000     -10.294548      -280.1289
  10   2.0000     -10.286314      -279.9048
  11   2.0000     -10.285976      -279.8956
  12   2.0000     -10.282496      -279.8010
  13   2.0000     -10.281657      -279.7781
  14   2.0000     -10.279399      -279.7167
  15   2.0000     -10.272172      -279.5200
  16   2.0000      -8.080485      -219.8812
  17   2.0000      -8.076162      -219.7635
  18   2.0000      -6.039066      -164.3313
  19   2.0000      -6.034848      -164.2166
  20   2.0000      -6.034737      -164.2135
  21   2.0000      -6.031276      -164.1194
  22   2.0000      -6.030593      -164.1008
  23   2.0000      -6.026867      -163.9994
  24   2.0000      -1.001697       -27.2576
  25   2.0000      -0.982136       -26.7253
  26   2.0000      -0.915238       -24.9049
  27   2.0000      -0.906690       -24.6723
  28   2.0000      -0.865950       -23.5637
  29   2.0000      -0.849884       -23.1265
  30   2.0000      -0.844946       -22.9921
  31   2.0000      -0.812329       -22.1046
  32   2.0000      -0.781751       -21.2725
  33   2.0000      -0.768734       -20.9183
  34   2.0000      -0.708367       -19.2756
  35   2.0000      -0.705050       -19.1854
  36   2.0000      -0.693601       -18.8739
  37   2.0000      -0.653185       -17.7741
  38   2.0000      -0.644115       -17.5273
  39   2.0000      -0.616690       -16.7810
  40   2.0000      -0.599151       -16.3037
  41   2.0000      -0.569054       -15.4848
  42   2.0000      -0.563261       -15.3271
  43   2.0000      -0.560537       -15.2530
  44   2.0000      -0.524840       -14.2816
  45   2.0000      -0.521097       -14.1798
  46   2.0000      -0.516308       -14.0494
  47   2.0000      -0.511681       -13.9236
  48   2.0000      -0.506837       -13.7917
  49   2.0000      -0.496065       -13.4986
  50   2.0000      -0.490471       -13.3464
  51   2.0000      -0.475198       -12.9308
  52   2.0000      -0.470912       -12.8142
  53   2.0000      -0.465211       -12.6590
  54   2.0000      -0.461094       -12.5470
  55   2.0000      -0.451442       -12.2844
  56   2.0000      -0.444840       -12.1047
  57   2.0000      -0.441795       -12.0218
  58   2.0000      -0.435523       -11.8512
  59   2.0000      -0.426196       -11.5974
  60   2.0000      -0.423756       -11.5310
  61   2.0000      -0.414811       -11.2876
  62   2.0000      -0.411855       -11.2072
  63   2.0000      -0.340344        -9.2612
  64   2.0000      -0.326477        -8.8839
  65   2.0000      -0.323577        -8.8050
  66   2.0000      -0.302069        -8.2197
  67   0.0000       0.042052         1.1443
  68   0.0000       0.062296         1.6952
  69   0.0000       0.118333         3.2200
  70   0.0000       0.124473         3.3871
  71   0.0000       0.128927         3.5083

MULLIKEN ATOMIC CHARGES
-----------------------
   0 S :    0.113997
   1 C :   -0.116856
   2 C :   -0.099480
   3 C :    0.053065
   4 C :   -0.177978
   5 H :    0.014555
   6 C :    0.063901
   7 H :    0.033220
   8 H :    0.007894
   9 C :   -0.023844
  10 H :    0.012687
  11 H :    0.022828
  12 C :   -0.066441
  13 H :    0.024304
  14 H :    0.028896
  15 H :    0.041232
  16 S :    0.104959
  17 C :   -0.115174
  18 C :   -0.020858
  19 C :   -0.051575
  20 C :   -0.159327
  21 H :    0.026671
  22 C :    0.123138
  23 H :    0.002892
  24 H :    0.000083
  25 C :   -0.094591
  26 H :    0.036642
  27 H :    0.028293
  28 C :   -0.024977
  29 H :    0.036670
  30 H :    0.022092
  31 H :    0.015829
  32 H :    0.051135
  33 H :    0.086119
Sum of atomic charges:   -0.0000000

LOEWDIN ATOMIC CHARGES
----------------------
   0 S :    0.415105
   1 C :   -0.209786
   2 C :   -0.062313
   3 C :   -0.053934
   4 C :   -0.193118
   5 H :    0.030143
   6 C :   -0.033923
   7 H :    0.036268
   8 H :    0.024390
   9 C :   -0.025689
  10 H :    0.013087
  11 H :    0.028043
  12 C :   -0.070155
  13 H :    0.018862
  14 H :    0.029163
  15 H :    0.027711
  16 S :    0.398917
  17 C :   -0.194898
  18 C :   -0.082870
  19 C :   -0.047325
  20 C :   -0.204493
  21 H :    0.033711
  22 C :   -0.030865
  23 H :    0.027226
  24 H :    0.024471
  25 C :   -0.033230
  26 H :    0.024055
  27 H :    0.022768
  28 C :   -0.058872
  29 H :    0.025518
  30 H :    0.023167
  31 H :    0.019738
  32 H :    0.032585
  33 H :    0.046544

  Mayer bond orders larger than 0.100000
B(  0-S ,  1-C ) :   1.1254 B(  0-S ,  4-C ) :   1.1725 B(  1-C ,  2-C ) :   1.6308
B(  1-C , 32-H ) :   0.9673 B(  2-C ,  3-C ) :   1.2105 B(  2-C ,  6-C ) :   1.0346
B(  3-C ,  4-C ) :   1.5743 B(  3-C ,  5-H ) :   0.9962 B(  4-C , 20-C ) :   0.9990
B(  6-C ,  7-H ) :   0.9384 B(  6-C ,  8-H ) :   0.9390 B(  6-C ,  9-C ) :   1.0637
B(  9-C , 10-H ) :   0.9581 B(  9-C , 11-H ) :   0.9543 B(  9-C , 12-C ) :   1.0797
B( 12-C , 13-H ) :   0.9750 B( 12-C , 14-H ) :   0.9736 B( 12-C , 15-H ) :   0.9762
B( 16-S , 17-C ) :   1.1684 B( 16-S , 20-C ) :   1.1236 B( 17-C , 18-C ) :   1.6138
B( 17-C , 33-H ) :   0.9546 B( 18-C , 19-C ) :   1.2359 B( 18-C , 21-H ) :   0.9824
B( 19-C , 20-C ) :   1.6346 B( 19-C , 22-C ) :   1.0423 B( 22-C , 23-H ) :   0.9177
B( 22-C , 24-H ) :   0.9289 B( 22-C , 25-C ) :   1.0602 B( 25-C , 26-H ) :   0.9603
B( 25-C , 27-H ) :   0.9515 B( 25-C , 28-C ) :   1.0914 B( 28-C , 29-H ) :   0.9764
B( 28-C , 30-H ) :   0.9727 B( 28-C , 31-H ) :   0.9731

Dispersion correction           -0.013441103
FINAL SINGLE POINT ENERGY     -1339.882692616496

DIPOLE MOMENT
-------------
                                X             Y             Z
Electronic contribution:     -8.21453     -26.55733       5.60374
Nuclear contribution   :      8.19563      27.30153      -5.54906
                        -----------------------------------------
Total Dipole Moment    :     -0.01890       0.74420       0.05468
                        -----------------------------------------
Magnitude (a.u.)       :      0.74645
Magnitude (Debye)      :      1.89732

Rotational constants in cm-1:     0.017725     0.007812     0.006158
Rotational constants in MHz :   531.374507   234.184208   184.617543

                             ****ORCA TERMINATED NORMALLY****
TOTAL RUN TIME: 0 days 0 hours 0 minutes 20 seconds 720 msec
