                         Program Version 4.2.1 -  RELEASE  -
|  1> ! wB97X-D3 SP def2-SVP
|  2> %pal
|  3> nprocs 24
|  4> end
|  5>
|  6> * xyz 0 1
|  7> S 	 -102.463 	 0.0724905 	 -106.325
|  8> C 	 -100.88 	 -0.237573 	 -106.936
|  9> C 	 -99.8599 	 0.307118 	 -106.173
| 10> C 	 -100.41 	 0.843668 	 -105.005
| 11> C 	 -101.789 	 0.812972 	 -104.936
| 12> H 	 -99.9096 	 1.43479 	 -104.242
| 13> C 	 -98.3821 	 0.282221 	 -106.554
| 14> H 	 -97.8936 	 0.996455 	 -105.921
| 15> H 	 -98.282 	 0.649105 	 -107.557
| 16> C 	 -97.6117 	 -1.04127 	 -106.404
| 17> H 	 -97.8168 	 -1.39751 	 -105.395
| 18> H 	 -98.007 	 -1.84228 	 -107.02
| 19> C 	 -96.0714 	 -0.831629 	 -106.662
| 20> H 	 -95.4531 	 -1.78144 	 -106.489
| 21> H 	 -95.9804 	 -0.550561 	 -107.75
| 22> H 	 -95.6321 	 -0.0746149 	 -106.043
| 23> S 	 -103.314 	 3.03347 	 -104.522
| 24> C 	 -104.235 	 3.13242 	 -103.056
| 25> C 	 -103.927 	 2.16061 	 -102.162
| 26> C 	 -103.07 	 1.14704 	 -102.678
| 27> C 	 -102.592 	 1.49705 	 -103.922
| 28> H 	 -104.321 	 2.15765 	 -101.161
| 29> C 	 -102.695 	 0.00253847 	 -101.834
| 30> H 	 -102.528 	 -0.829341 	 -102.535
| 31> H 	 -103.463 	 -0.280403 	 -101.182
| 32> C 	 -101.533 	 0.18504 	 -100.87
| 33> H 	 -101.623 	 1.04595 	 -100.194
| 34> H 	 -100.613 	 0.47895 	 -101.54
| 35> C 	 -101.037 	 -1.10599 	 -100.261
| 36> H 	 -100.383 	 -1.73018 	 -100.935
| 37> H 	 -101.841 	 -1.737 	 -99.8594
| 38> H 	 -100.417 	 -0.865787 	 -99.344
| 39> H 	 -100.77 	 -0.667397 	 -107.951
| 40> H 	 -105.083 	 3.8424 	 -102.759
| 41> *
| 42>
| 43>                          ****END OF INPUT****

CARTESIAN COORDINATES (ANGSTROEM)
---------------------------------
  S    -102.463000    0.072490  -106.325000
  C    -100.880000   -0.237573  -106.936000
  C    -99.859900    0.307118  -106.173000
  C    -100.410000    0.843668  -105.005000
  C    -101.789000    0.812972  -104.936000
  H    -99.909600    1.434790  -104.242000
  C    -98.382100    0.282221  -106.554000
  H    -97.893600    0.996455  -105.921000
  H    -98.282000    0.649105  -107.557000
  C    -97.611700   -1.041270  -106.404000
  H    -97.816800   -1.397510  -105.395000
  H    -98.007000   -1.842280  -107.020000
  C    -96.071400   -0.831629  -106.662000
  H    -95.453100   -1.781440  -106.489000
  H    -95.980400   -0.550561  -107.750000
  H    -95.632100   -0.074615  -106.043000
  S    -103.314000    3.033470  -104.522000
  C    -104.235000    3.132420  -103.056000
  C    -103.927000    2.160610  -102.162000
  C    -103.070000    1.147040  -102.678000
  C    -102.592000    1.497050  -103.922000
  H    -104.321000    2.157650  -101.161000
  C    -102.695000    0.002538  -101.834000
  H    -102.528000   -0.829341  -102.535000
  H    -103.463000   -0.280403  -101.182000
  C    -101.533000    0.185040  -100.870000
  H    -101.623000    1.045950  -100.194000
  H    -100.613000    0.478950  -101.540000
  C    -101.037000   -1.105990  -100.261000
  H    -100.383000   -1.730180  -100.935000
  H    -101.841000   -1.737000  -99.859400
  H    -100.417000   -0.865787  -99.344000
  H    -100.770000   -0.667397  -107.951000
  H    -105.083000    3.842400  -102.759000

 Total Charge           Charge          ....    0
 Multiplicity           Mult            ....    1
 Number of Electrons    NEL             ....  134
 Basis Dimension        Dim             ....  322

ORBITAL ENERGIES
----------------

  NO   OCC          E(Eh)            E(eV)
   0   2.0000     -88.967283     -2420.9228
   1   2.0000     -88.963639     -2420.8237
   2   2.0000     -10.324684      -280.9489
   3   2.0000     -10.320516      -280.8355
   4   2.0000     -10.316447      -280.7248
   5   2.0000     -10.312814      -280.6259
   6   2.0000     -10.299579      -280.2658
   7   2.0000     -10.298456      -280.2352
   8   2.0000     -10.292656      -280.0774
   9   2.0000     -10.290370      -280.0152
  10   2.0000     -10.290311      -280.0136
  11   2.0000     -10.289392      -279.9886
  12   2.0000     -10.289266      -279.9852
  13   2.0000     -10.285909      -279.8938
  14   2.0000     -10.284136      -279.8456
  15   2.0000     -10.283309      -279.8231
  16   2.0000      -8.083054      -219.9511
  17   2.0000      -8.078087      -219.8159
  18   2.0000      -6.041210      -164.3897
  19   2.0000      -6.037379      -164.2854
  20   2.0000      -6.036669      -164.2661
  21   2.0000      -6.034164      -164.1980
  22   2.0000      -6.032713      -164.1585
  23   2.0000      -6.028684      -164.0488
  24   2.0000      -1.010692       -27.5023
  25   2.0000      -0.987288       -26.8655
  26   2.0000      -0.914167       -24.8757
  27   2.0000      -0.909152       -24.7393
  28   2.0000      -0.865546       -23.5527
  29   2.0000      -0.852598       -23.2004
  30   2.0000      -0.850652       -23.1474
  31   2.0000      -0.810277       -22.0488
  32   2.0000      -0.783076       -21.3086
  33   2.0000      -0.769294       -20.9336
  34   2.0000      -0.704582       -19.1727
  35   2.0000      -0.698996       -19.0206
  36   2.0000      -0.686988       -18.6939
  37   2.0000      -0.658822       -17.9275
  38   2.0000      -0.647526       -17.6201
  39   2.0000      -0.616861       -16.7857
  40   2.0000      -0.596780       -16.2392
  41   2.0000      -0.570213       -15.5163
  42   2.0000      -0.564447       -15.3594
  43   2.0000      -0.555694       -15.1212
  44   2.0000      -0.523507       -14.2453
  45   2.0000      -0.517825       -14.0907
  46   2.0000      -0.513510       -13.9733
  47   2.0000      -0.510191       -13.8830
  48   2.0000      -0.503970       -13.7137
  49   2.0000      -0.496074       -13.4989
  50   2.0000      -0.487841       -13.2748
  51   2.0000      -0.478189       -13.0122
  52   2.0000      -0.471378       -12.8269
  53   2.0000      -0.469002       -12.7622
  54   2.0000      -0.457916       -12.4605
  55   2.0000      -0.449405       -12.2289
  56   2.0000      -0.442629       -12.0446
  57   2.0000      -0.437774       -11.9124
  58   2.0000      -0.434894       -11.8341
  59   2.0000      -0.427440       -11.6312
  60   2.0000      -0.425963       -11.5910
  61   2.0000      -0.422562       -11.4985
  62   2.0000      -0.400180       -10.8895
  63   2.0000      -0.340104        -9.2547
  64   2.0000      -0.328202        -8.9308
  65   2.0000      -0.320403        -8.7186
  66   2.0000      -0.307312        -8.3624
  67   0.0000       0.041660         1.1336
  68   0.0000       0.059182         1.6104
  69   0.0000       0.115663         3.1474
  70   0.0000       0.122371         3.3299
  71   0.0000       0.130724         3.5572

MULLIKEN ATOMIC CHARGES
-----------------------
   0 S :    0.141170
   1 C :   -0.152401
   2 C :   -0.065900
   3 C :    0.030279
   4 C :   -0.181835
   5 H :    0.014167
   6 C :    0.094992
   7 H :    0.006828
   8 H :    0.022203
   9 C :   -0.058330
  10 H :    0.023541
  11 H :    0.027800
  12 C :   -0.083252
  13 H :    0.050316
  14 H :    0.040938
  15 H :    0.034914
  16 S :    0.108392
  17 C :   -0.095164
  18 C :   -0.045281
  19 C :    0.002101
  20 C :   -0.209535
  21 H :    0.009225
  22 C :    0.107694
  23 H :    0.029945
  24 H :    0.000139
  25 C :   -0.103142
  26 H :    0.035872
  27 H :    0.029441
  28 C :   -0.066591
  29 H :    0.051868
  30 H :    0.027469
  31 H :    0.038176
  32 H :    0.058680
  33 H :    0.075284
Sum of atomic charges:    0.0000000

LOEWDIN ATOMIC CHARGES
----------------------
   0 S :    0.441833
   1 C :   -0.204882
   2 C :   -0.067123
   3 C :   -0.061094
   4 C :   -0.225275
   5 H :    0.032422
   6 C :   -0.026175
   7 H :    0.027226
   8 H :    0.027756
   9 C :   -0.038284
  10 H :    0.022169
  11 H :    0.021775
  12 C :   -0.071666
  13 H :    0.035769
  14 H :    0.031082
  15 H :    0.019800
  16 S :    0.389578
  17 C :   -0.198904
  18 C :   -0.078186
  19 C :   -0.048697
  20 C :   -0.185145
  21 H :    0.028359
  22 C :   -0.033100
  23 H :    0.038052
  24 H :    0.022317
  25 C :   -0.048834
  26 H :    0.024994
  27 H :    0.033253
  28 C :   -0.075850
  29 H :    0.033751
  30 H :    0.020137
  31 H :    0.034426
  32 H :    0.029973
  33 H :    0.048544

  Mayer bond orders larger than 0.100000
B(  0-S ,  1-C ) :   1.1751 B(  0-S ,  4-C ) :   1.1724 B(  1-C ,  2-C ) :   1.5676
B(  1-C , 32-H ) :   0.9650 B(  2-C ,  3-C ) :   1.2775 B(  2-C ,  6-C ) :   1.0197
B(  3-C ,  4-C ) :   1.5625 B(  3-C ,  5-H ) :   0.9897 B(  4-C , 20-C ) :   1.0150
B(  6-C ,  7-H ) :   0.9378 B(  6-C ,  8-H ) :   0.9358 B(  6-C ,  9-C ) :   1.0611
B(  9-C , 10-H ) :   0.9556 B(  9-C , 11-H ) :   0.9581 B(  9-C , 12-C ) :   1.0686
B( 12-C , 13-H ) :   0.9755 B( 12-C , 14-H ) :   0.9763 B( 12-C , 15-H ) :   0.9778
B( 16-S , 17-C ) :   1.1428 B( 16-S , 20-C ) :   1.1243 B( 17-C , 18-C ) :   1.6494
B( 17-C , 33-H ) :   0.9497 B( 18-C , 19-C ) :   1.2159 B( 18-C , 21-H ) :   0.9864
B( 19-C , 20-C ) :   1.6285 B( 19-C , 22-C ) :   1.0697 B( 22-C , 23-H ) :   0.9241
B( 22-C , 24-H ) :   0.9154 B( 22-C , 25-C ) :   1.0638 B( 25-C , 26-H ) :   0.9579
B( 25-C , 27-H ) :   0.9530 B( 25-C , 28-C ) :   1.0731 B( 28-C , 29-H ) :   0.9770
B( 28-C , 30-H ) :   0.9725 B( 28-C , 31-H ) :   0.9717

Dispersion correction           -0.013682871
FINAL SINGLE POINT ENERGY     -1339.878973634344

DIPOLE MOMENT
-------------
                                X             Y             Z
Electronic contribution:    -23.63486      13.39906     -10.69240
Nuclear contribution   :     23.97572     -13.55888      10.97783
                        -----------------------------------------
Total Dipole Moment    :      0.34086      -0.15981       0.28543
                        -----------------------------------------
Magnitude (a.u.)       :      0.47243
Magnitude (Debye)      :      1.20083

Rotational constants in cm-1:     0.018092     0.008068     0.006316
Rotational constants in MHz :   542.398455   241.858662   189.350231

                             ****ORCA TERMINATED NORMALLY****
TOTAL RUN TIME: 0 days 0 hours 0 minutes 21 seconds 28 msec
