                         Program Version 4.2.1 -  RELEASE  -
|  1> ! wB97X-D3 SP def2-SVP
|  2> %pal
|  3> nprocs 24
|  4> end
|  5>
|  6> * xyz 0 1
|  7> S 	 -37.571 	 -11.2821 	 18.4866
|  8> C 	 -36.4987 	 -12.5281 	 18.9825
|  9> C 	 -36.6657 	 -13.678 	 18.265
| 10> C 	 -37.7323 	 -13.5696 	 17.3578
| 11> C 	 -38.3064 	 -12.3314 	 17.3543
| 12> H 	 -38.0939 	 -14.3336 	 16.7458
| 13> C 	 -35.8783 	 -14.9591 	 18.3987
| 14> H 	 -36.488 	 -15.7972 	 18.0044
| 15> H 	 -35.7966 	 -15.1983 	 19.5123
| 16> C 	 -34.5231 	 -15.0126 	 17.6727
| 17> H 	 -34.0973 	 -16.044 	 17.7176
| 18> H 	 -34.6748 	 -14.8485 	 16.6407
| 19> C 	 -33.4447 	 -14.0561 	 18.2565
| 20> H 	 -32.4005 	 -14.3352 	 17.9501
| 21> H 	 -33.765 	 -13.1161 	 17.8599
| 22> H 	 -33.3831 	 -14.1057 	 19.4102
| 23> S 	 -41.0321 	 -11.8101 	 17.5409
| 24> C 	 -42.0554 	 -11.8599 	 16.1459
| 25> C 	 -41.2338 	 -12.0182 	 15.0183
| 26> C 	 -39.8481 	 -12.1101 	 15.3295
| 27> C 	 -39.5628 	 -12.0424 	 16.6745
| 28> H 	 -41.63 	 -11.9091 	 14.0022
| 29> C 	 -38.8321 	 -12.2913 	 14.2495
| 30> H 	 -39.2516 	 -12.9817 	 13.4831
| 31> H 	 -37.9741 	 -12.7676 	 14.6921
| 32> C 	 -38.2998 	 -11.0083 	 13.6048
| 33> H 	 -38.3084 	 -10.1762 	 14.267
| 34> H 	 -39.0967 	 -10.6062 	 12.9419
| 35> C 	 -37.0637 	 -11.3257 	 12.7394
| 36> H 	 -37.1016 	 -11.932 	 11.8419
| 37> H 	 -36.3543 	 -11.8352 	 13.3552
| 38> H 	 -36.5411 	 -10.377 	 12.4746
| 39> H 	 -35.7137 	 -12.4207 	 19.6859
| 40> H 	 -43.1312 	 -11.7325 	 16.028
| 41> *
| 42>
| 43>                          ****END OF INPUT****

CARTESIAN COORDINATES (ANGSTROEM)
---------------------------------
  S    -37.571000  -11.282100   18.486600
  C    -36.498700  -12.528100   18.982500
  C    -36.665700  -13.678000   18.265000
  C    -37.732300  -13.569600   17.357800
  C    -38.306400  -12.331400   17.354300
  H    -38.093900  -14.333600   16.745800
  C    -35.878300  -14.959100   18.398700
  H    -36.488000  -15.797200   18.004400
  H    -35.796600  -15.198300   19.512300
  C    -34.523100  -15.012600   17.672700
  H    -34.097300  -16.044000   17.717600
  H    -34.674800  -14.848500   16.640700
  C    -33.444700  -14.056100   18.256500
  H    -32.400500  -14.335200   17.950100
  H    -33.765000  -13.116100   17.859900
  H    -33.383100  -14.105700   19.410200
  S    -41.032100  -11.810100   17.540900
  C    -42.055400  -11.859900   16.145900
  C    -41.233800  -12.018200   15.018300
  C    -39.848100  -12.110100   15.329500
  C    -39.562800  -12.042400   16.674500
  H    -41.630000  -11.909100   14.002200
  C    -38.832100  -12.291300   14.249500
  H    -39.251600  -12.981700   13.483100
  H    -37.974100  -12.767600   14.692100
  C    -38.299800  -11.008300   13.604800
  H    -38.308400  -10.176200   14.267000
  H    -39.096700  -10.606200   12.941900
  C    -37.063700  -11.325700   12.739400
  H    -37.101600  -11.932000   11.841900
  H    -36.354300  -11.835200   13.355200
  H    -36.541100  -10.377000   12.474600
  H    -35.713700  -12.420700   19.685900
  H    -43.131200  -11.732500   16.028000

 Total Charge           Charge          ....    0
 Multiplicity           Mult            ....    1
 Number of Electrons    NEL             ....  134
 Basis Dimension        Dim             ....  322

ORBITAL ENERGIES
----------------

  NO   OCC          E(Eh)            E(eV)
   0   2.0000     -88.969719     -2420.9891
   1   2.0000     -88.965046     -2420.8620
   2   2.0000     -10.323127      -280.9066
   3   2.0000     -10.320325      -280.8303
   4   2.0000     -10.318546      -280.7819
   5   2.0000     -10.308085      -280.4973
   6   2.0000     -10.298679      -280.2413
   7   2.0000     -10.295482      -280.1543
   8   2.0000     -10.294207      -280.1196
   9   2.0000     -10.292127      -280.0630
  10   2.0000     -10.288212      -279.9565
  11   2.0000     -10.287074      -279.9255
  12   2.0000     -10.285217      -279.8750
  13   2.0000     -10.283744      -279.8349
  14   2.0000     -10.283652      -279.8324
  15   2.0000     -10.277303      -279.6596
  16   2.0000      -8.085632      -220.0212
  17   2.0000      -8.080244      -219.8746
  18   2.0000      -6.043899      -164.4629
  19   2.0000      -6.039941      -164.3552
  20   2.0000      -6.038770      -164.3233
  21   2.0000      -6.036617      -164.2647
  22   2.0000      -6.034451      -164.2058
  23   2.0000      -6.031169      -164.1164
  24   2.0000      -1.017778       -27.6951
  25   2.0000      -0.993004       -27.0210
  26   2.0000      -0.911102       -24.7923
  27   2.0000      -0.908620       -24.7248
  28   2.0000      -0.870504       -23.6876
  29   2.0000      -0.855161       -23.2701
  30   2.0000      -0.846984       -23.0476
  31   2.0000      -0.813299       -22.1310
  32   2.0000      -0.781441       -21.2641
  33   2.0000      -0.771482       -20.9931
  34   2.0000      -0.709945       -19.3186
  35   2.0000      -0.700932       -19.0733
  36   2.0000      -0.697044       -18.9675
  37   2.0000      -0.661508       -18.0005
  38   2.0000      -0.648279       -17.6406
  39   2.0000      -0.620582       -16.8869
  40   2.0000      -0.595189       -16.1959
  41   2.0000      -0.575529       -15.6609
  42   2.0000      -0.555901       -15.1268
  43   2.0000      -0.549132       -14.9426
  44   2.0000      -0.538984       -14.6665
  45   2.0000      -0.523056       -14.2331
  46   2.0000      -0.515737       -14.0339
  47   2.0000      -0.511942       -13.9306
  48   2.0000      -0.507836       -13.8189
  49   2.0000      -0.500629       -13.6228
  50   2.0000      -0.491104       -13.3636
  51   2.0000      -0.485625       -13.2145
  52   2.0000      -0.476777       -12.9738
  53   2.0000      -0.469227       -12.7683
  54   2.0000      -0.459394       -12.5007
  55   2.0000      -0.449111       -12.2209
  56   2.0000      -0.444232       -12.0882
  57   2.0000      -0.435766       -11.8578
  58   2.0000      -0.434580       -11.8255
  59   2.0000      -0.425634       -11.5821
  60   2.0000      -0.416077       -11.3220
  61   2.0000      -0.411932       -11.2092
  62   2.0000      -0.403467       -10.9789
  63   2.0000      -0.345055        -9.3894
  64   2.0000      -0.333610        -9.0780
  65   2.0000      -0.326834        -8.8936
  66   2.0000      -0.299942        -8.1618
  67   0.0000       0.038822         1.0564
  68   0.0000       0.067011         1.8235
  69   0.0000       0.122495         3.3333
  70   0.0000       0.127099         3.4585
  71   0.0000       0.129625         3.5273

MULLIKEN ATOMIC CHARGES
-----------------------
   0 S :    0.133662
   1 C :   -0.104609
   2 C :   -0.083206
   3 C :    0.062754
   4 C :   -0.183543
   5 H :   -0.006677
   6 C :    0.030763
   7 H :    0.026208
   8 H :    0.042291
   9 C :   -0.049795
  10 H :    0.030796
  11 H :    0.020423
  12 C :   -0.089906
  13 H :    0.043989
  14 H :    0.045752
  15 H :    0.040978
  16 S :    0.120841
  17 C :   -0.099460
  18 C :   -0.043567
  19 C :   -0.071365
  20 C :   -0.130870
  21 H :    0.024817
  22 C :    0.068131
  23 H :    0.030501
  24 H :    0.005277
  25 C :   -0.040930
  26 H :    0.022428
  27 H :    0.012855
  28 C :   -0.039945
  29 H :    0.037571
  30 H :    0.016424
  31 H :    0.033953
  32 H :    0.030069
  33 H :    0.063390
Sum of atomic charges:   -0.0000000

LOEWDIN ATOMIC CHARGES
----------------------
   0 S :    0.443456
   1 C :   -0.198052
   2 C :   -0.069455
   3 C :   -0.047506
   4 C :   -0.209849
   5 H :    0.024151
   6 C :   -0.036587
   7 H :    0.033737
   8 H :    0.037841
   9 C :   -0.040114
  10 H :    0.026102
  11 H :    0.018388
  12 C :   -0.074483
  13 H :    0.031007
  14 H :    0.022217
  15 H :    0.031620
  16 S :    0.433018
  17 C :   -0.200634
  18 C :   -0.076401
  19 C :   -0.065309
  20 C :   -0.216010
  21 H :    0.032247
  22 C :   -0.034312
  23 H :    0.034173
  24 H :    0.022316
  25 C :   -0.040565
  26 H :    0.024130
  27 H :    0.024886
  28 C :   -0.068147
  29 H :    0.027732
  30 H :    0.019530
  31 H :    0.032495
  32 H :    0.020786
  33 H :    0.037594

  Mayer bond orders larger than 0.100000
B(  0-S ,  1-C ) :   1.1523 B(  0-S ,  4-C ) :   1.1701 B(  1-C ,  2-C ) :   1.5980
B(  1-C , 32-H ) :   0.9703 B(  2-C ,  3-C ) :   1.2718 B(  2-C ,  6-C ) :   1.0129
B(  3-C ,  4-C ) :   1.5560 B(  3-C ,  5-H ) :   1.0030 B(  4-C , 20-C ) :   1.0032
B(  6-C ,  7-H ) :   0.9401 B(  6-C ,  8-H ) :   0.9447 B(  6-C ,  9-C ) :   1.0727
B(  9-C , 10-H ) :   0.9573 B(  9-C , 11-H ) :   0.9557 B(  9-C , 12-C ) :   1.0652
B( 12-C , 13-H ) :   0.9747 B( 12-C , 14-H ) :   0.9769 B( 12-C , 15-H ) :   0.9753
B( 16-S , 17-C ) :   1.1749 B( 16-S , 20-C ) :   1.1498 B( 17-C , 18-C ) :   1.5688
B( 17-C , 33-H ) :   0.9675 B( 18-C , 19-C ) :   1.2860 B( 18-C , 21-H ) :   0.9852
B( 19-C , 20-C ) :   1.5748 B( 19-C , 22-C ) :   1.0558 B( 22-C , 23-H ) :   0.9330
B( 22-C , 24-H ) :   0.9286 B( 22-C , 25-C ) :   1.0612 B( 25-C , 26-H ) :   0.9573
B( 25-C , 27-H ) :   0.9468 B( 25-C , 28-C ) :   1.0672 B( 28-C , 29-H ) :   0.9768
B( 28-C , 30-H ) :   0.9766 B( 28-C , 31-H ) :   0.9732

Dispersion correction           -0.014477792
FINAL SINGLE POINT ENERGY     -1339.880704220896

DIPOLE MOMENT
-------------
                                X             Y             Z
Electronic contribution:    -21.31472       9.03245      14.50552
Nuclear contribution   :     21.60620      -9.38957     -14.88461
                        -----------------------------------------
Total Dipole Moment    :      0.29148      -0.35713      -0.37909
                        -----------------------------------------
Magnitude (a.u.)       :      0.59683
Magnitude (Debye)      :      1.51702

Rotational constants in cm-1:     0.019038     0.008735     0.006977
Rotational constants in MHz :   570.748413   261.871010   209.157755

                             ****ORCA TERMINATED NORMALLY****
TOTAL RUN TIME: 0 days 0 hours 0 minutes 21 seconds 740 msec
