                         Program Version 4.2.1 -  RELEASE  -
|  1> ! wB97X-D3 SP def2-SVP
|  2> %pal
|  3> nprocs 24
|  4> end
|  5>
|  6> * xyz 0 1
|  7> S 	 -46.9382 	 12.4429 	 -19.2393
|  8> C 	 -47.63 	 12.0647 	 -17.6748
|  9> C 	 -47.0915 	 12.7533 	 -16.6223
| 10> C 	 -46.032 	 13.5883 	 -17.0983
| 11> C 	 -45.7727 	 13.51 	 -18.4838
| 12> H 	 -45.617 	 14.2634 	 -16.4175
| 13> C 	 -47.5904 	 12.7242 	 -15.2079
| 14> H 	 -46.8232 	 12.4128 	 -14.4194
| 15> H 	 -48.239 	 11.8981 	 -15.1071
| 16> C 	 -48.2898 	 14.0038 	 -14.7656
| 17> H 	 -47.5452 	 14.8078 	 -14.9384
| 18> H 	 -49.1939 	 14.2725 	 -15.3934
| 19> C 	 -48.6513 	 14.0127 	 -13.2264
| 20> H 	 -48.834 	 15.0575 	 -12.8885
| 21> H 	 -49.5525 	 13.4253 	 -12.9415
| 22> H 	 -47.6903 	 13.7104 	 -12.6852
| 23> S 	 -45.3011 	 14.6477 	 -20.9055
| 24> C 	 -43.7757 	 15.5246 	 -21.1473
| 25> C 	 -43.0488 	 15.5227 	 -19.9402
| 26> C 	 -43.6286 	 14.8204 	 -18.8613
| 27> C 	 -44.8291 	 14.2468 	 -19.2549
| 28> H 	 -42.0896 	 16.0391 	 -20.1019
| 29> C 	 -42.8586 	 14.5365 	 -17.6043
| 30> H 	 -43.4038 	 15.0479 	 -16.8541
| 31> H 	 -41.8928 	 14.8851 	 -17.7679
| 32> C 	 -42.6643 	 13.0844 	 -17.1492
| 33> H 	 -43.6178 	 12.5322 	 -17.1111
| 34> H 	 -42.3463 	 13.0285 	 -16.141
| 35> C 	 -41.6288 	 12.3667 	 -18.0653
| 36> H 	 -40.8685 	 13.0665 	 -18.4123
| 37> H 	 -42.2025 	 12.0415 	 -18.9614
| 38> H 	 -41.2534 	 11.481 	 -17.6445
| 39> H 	 -48.6063 	 11.6076 	 -17.5311
| 40> H 	 -43.476 	 16.1108 	 -21.9957
| 41> *
| 42>
| 43>                          ****END OF INPUT****

CARTESIAN COORDINATES (ANGSTROEM)
---------------------------------
  S    -46.938200   12.442900  -19.239300
  C    -47.630000   12.064700  -17.674800
  C    -47.091500   12.753300  -16.622300
  C    -46.032000   13.588300  -17.098300
  C    -45.772700   13.510000  -18.483800
  H    -45.617000   14.263400  -16.417500
  C    -47.590400   12.724200  -15.207900
  H    -46.823200   12.412800  -14.419400
  H    -48.239000   11.898100  -15.107100
  C    -48.289800   14.003800  -14.765600
  H    -47.545200   14.807800  -14.938400
  H    -49.193900   14.272500  -15.393400
  C    -48.651300   14.012700  -13.226400
  H    -48.834000   15.057500  -12.888500
  H    -49.552500   13.425300  -12.941500
  H    -47.690300   13.710400  -12.685200
  S    -45.301100   14.647700  -20.905500
  C    -43.775700   15.524600  -21.147300
  C    -43.048800   15.522700  -19.940200
  C    -43.628600   14.820400  -18.861300
  C    -44.829100   14.246800  -19.254900
  H    -42.089600   16.039100  -20.101900
  C    -42.858600   14.536500  -17.604300
  H    -43.403800   15.047900  -16.854100
  H    -41.892800   14.885100  -17.767900
  C    -42.664300   13.084400  -17.149200
  H    -43.617800   12.532200  -17.111100
  H    -42.346300   13.028500  -16.141000
  C    -41.628800   12.366700  -18.065300
  H    -40.868500   13.066500  -18.412300
  H    -42.202500   12.041500  -18.961400
  H    -41.253400   11.481000  -17.644500
  H    -48.606300   11.607600  -17.531100
  H    -43.476000   16.110800  -21.995700

 Total Charge           Charge          ....    0
 Multiplicity           Mult            ....    1
 Number of Electrons    NEL             ....  134
 Basis Dimension        Dim             ....  322

ORBITAL ENERGIES
----------------

  NO   OCC          E(Eh)            E(eV)
   0   2.0000     -88.969735     -2420.9896
   1   2.0000     -88.968690     -2420.9611
   2   2.0000     -10.332670      -281.1662
   3   2.0000     -10.327140      -281.0158
   4   2.0000     -10.319410      -280.8054
   5   2.0000     -10.310784      -280.5707
   6   2.0000     -10.303616      -280.3757
   7   2.0000     -10.299138      -280.2538
   8   2.0000     -10.298464      -280.2354
   9   2.0000     -10.297326      -280.2045
  10   2.0000     -10.295445      -280.1533
  11   2.0000     -10.294367      -280.1240
  12   2.0000     -10.292717      -280.0791
  13   2.0000     -10.283259      -279.8217
  14   2.0000     -10.278114      -279.6817
  15   2.0000     -10.270094      -279.4635
  16   2.0000      -8.084228      -219.9830
  17   2.0000      -8.082652      -219.9401
  18   2.0000      -6.042804      -164.4331
  19   2.0000      -6.041159      -164.3883
  20   2.0000      -6.038823      -164.3247
  21   2.0000      -6.037274      -164.2826
  22   2.0000      -6.034906      -164.2181
  23   2.0000      -6.033458      -164.1787
  24   2.0000      -1.008520       -27.4432
  25   2.0000      -0.982437       -26.7335
  26   2.0000      -0.914103       -24.8740
  27   2.0000      -0.910406       -24.7734
  28   2.0000      -0.870050       -23.6753
  29   2.0000      -0.850395       -23.1404
  30   2.0000      -0.843403       -22.9502
  31   2.0000      -0.811517       -22.0825
  32   2.0000      -0.784259       -21.3408
  33   2.0000      -0.773596       -21.0506
  34   2.0000      -0.716827       -19.5059
  35   2.0000      -0.699280       -19.0284
  36   2.0000      -0.691490       -18.8164
  37   2.0000      -0.664882       -18.0924
  38   2.0000      -0.634725       -17.2717
  39   2.0000      -0.629603       -17.1324
  40   2.0000      -0.587348       -15.9825
  41   2.0000      -0.570545       -15.5253
  42   2.0000      -0.568286       -15.4639
  43   2.0000      -0.555779       -15.1235
  44   2.0000      -0.545244       -14.8368
  45   2.0000      -0.522158       -14.2086
  46   2.0000      -0.516429       -14.0527
  47   2.0000      -0.508664       -13.8415
  48   2.0000      -0.503019       -13.6879
  49   2.0000      -0.494448       -13.4546
  50   2.0000      -0.490524       -13.3478
  51   2.0000      -0.476577       -12.9683
  52   2.0000      -0.471867       -12.8401
  53   2.0000      -0.462812       -12.5937
  54   2.0000      -0.456682       -12.4269
  55   2.0000      -0.449164       -12.2224
  56   2.0000      -0.440935       -11.9984
  57   2.0000      -0.438155       -11.9228
  58   2.0000      -0.435317       -11.8456
  59   2.0000      -0.432434       -11.7671
  60   2.0000      -0.423271       -11.5178
  61   2.0000      -0.415983       -11.3195
  62   2.0000      -0.408122       -11.1056
  63   2.0000      -0.356255        -9.6942
  64   2.0000      -0.335983        -9.1426
  65   2.0000      -0.332015        -9.0346
  66   2.0000      -0.278991        -7.5917
  67   0.0000       0.013936         0.3792
  68   0.0000       0.077428         2.1069
  69   0.0000       0.098756         2.6873
  70   0.0000       0.118660         3.2289
  71   0.0000       0.135680         3.6921

MULLIKEN ATOMIC CHARGES
-----------------------
   0 S :    0.105952
   1 C :   -0.107098
   2 C :   -0.094994
   3 C :    0.021667
   4 C :   -0.126393
   5 H :   -0.017896
   6 C :    0.075596
   7 H :    0.036343
   8 H :   -0.002265
   9 C :   -0.106657
  10 H :    0.031513
  11 H :    0.047387
  12 C :   -0.081945
  13 H :    0.040755
  14 H :    0.054360
  15 H :    0.039764
  16 S :    0.099892
  17 C :   -0.100262
  18 C :   -0.072530
  19 C :   -0.031928
  20 C :   -0.125130
  21 H :    0.028442
  22 C :    0.118761
  23 H :    0.025436
  24 H :    0.001630
  25 C :   -0.070665
  26 H :    0.045871
  27 H :    0.012561
  28 C :   -0.042237
  29 H :    0.026779
  30 H :    0.041227
  31 H :    0.025596
  32 H :    0.046355
  33 H :    0.054114
Sum of atomic charges:    0.0000000

LOEWDIN ATOMIC CHARGES
----------------------
   0 S :    0.404182
   1 C :   -0.198746
   2 C :   -0.061098
   3 C :   -0.057237
   4 C :   -0.187458
   5 H :    0.016561
   6 C :   -0.040373
   7 H :    0.040167
   8 H :    0.021688
   9 C :   -0.045366
  10 H :    0.024627
  11 H :    0.032226
  12 C :   -0.077184
  13 H :    0.029618
  14 H :    0.029555
  15 H :    0.032211
  16 S :    0.390301
  17 C :   -0.183928
  18 C :   -0.072288
  19 C :   -0.056041
  20 C :   -0.189147
  21 H :    0.037373
  22 C :   -0.019182
  23 H :    0.028904
  24 H :    0.022169
  25 C :   -0.037249
  26 H :    0.028372
  27 H :    0.016594
  28 C :   -0.060827
  29 H :    0.022169
  30 H :    0.034328
  31 H :    0.017586
  32 H :    0.028702
  33 H :    0.028789

  Mayer bond orders larger than 0.100000
B(  0-S ,  1-C ) :   1.1318 B(  0-S ,  4-C ) :   1.1465 B(  1-C ,  2-C ) :   1.6347
B(  1-C , 32-H ) :   0.9514 B(  2-C ,  3-C ) :   1.2682 B(  2-C ,  6-C ) :   1.0337
B(  3-C ,  4-C ) :   1.5141 B(  3-C ,  5-H ) :   1.0012 B(  4-C , 20-C ) :   1.1139
B(  6-C ,  7-H ) :   0.9345 B(  6-C ,  8-H ) :   0.9301 B(  6-C ,  9-C ) :   1.0523
B(  9-C , 10-H ) :   0.9598 B(  9-C , 11-H ) :   0.9540 B(  9-C , 12-C ) :   1.0696
B( 12-C , 13-H ) :   0.9761 B( 12-C , 14-H ) :   0.9772 B( 12-C , 15-H ) :   0.9723
B( 16-S , 17-C ) :   1.1380 B( 16-S , 20-C ) :   1.1383 B( 17-C , 18-C ) :   1.6208
B( 17-C , 20-C ) :   0.1085 B( 17-C , 33-H ) :   0.9686 B( 18-C , 19-C ) :   1.2333
B( 18-C , 21-H ) :   0.9850 B( 19-C , 20-C ) :   1.5574 B( 19-C , 22-C ) :   1.0394
B( 22-C , 23-H ) :   0.9117 B( 22-C , 24-H ) :   0.9391 B( 22-C , 25-C ) :   1.0876
B( 25-C , 26-H ) :   0.9490 B( 25-C , 27-H ) :   0.9532 B( 25-C , 28-C ) :   1.0651
B( 28-C , 29-H ) :   0.9795 B( 28-C , 30-H ) :   0.9774 B( 28-C , 31-H ) :   0.9759

Dispersion correction           -0.014742736
FINAL SINGLE POINT ENERGY     -1339.869911163699

DIPOLE MOMENT
-------------
                                X             Y             Z
Electronic contribution:     -4.76343       1.12712     -26.10989
Nuclear contribution   :      4.87725      -0.89243      26.71209
                        -----------------------------------------
Total Dipole Moment    :      0.11382       0.23469       0.60220
                        -----------------------------------------
Magnitude (a.u.)       :      0.65626
Magnitude (Debye)      :      1.66807

Rotational constants in cm-1:     0.020048     0.008342     0.007145
Rotational constants in MHz :   601.031147   250.073697   214.191779

                             ****ORCA TERMINATED NORMALLY****
TOTAL RUN TIME: 0 days 0 hours 0 minutes 21 seconds 85 msec
