                         Program Version 4.2.1 -  RELEASE  -
|  1> ! wB97X-D3 SP def2-SVP
|  2> %pal
|  3> nprocs 24
|  4> end
|  5>
|  6> * xyz 0 1
|  7> S 	 -61.1271 	 21.9637 	 21.0908
|  8> C 	 -62.4618 	 21.273 	 21.9226
|  9> C 	 -62.1073 	 20.0899 	 22.6085
| 10> C 	 -60.7408 	 19.764 	 22.3088
| 11> C 	 -60.0447 	 20.6685 	 21.5172
| 12> H 	 -60.195 	 18.9541 	 22.7179
| 13> C 	 -62.9549 	 19.275 	 23.641
| 14> H 	 -63.671 	 19.9951 	 24.0581
| 15> H 	 -62.3483 	 18.9018 	 24.4761
| 16> C 	 -63.7685 	 18.0777 	 23.1175
| 17> H 	 -64.4879 	 17.8106 	 23.8372
| 18> H 	 -64.3683 	 18.5963 	 22.3589
| 19> C 	 -63.0242 	 16.8288 	 22.5294
| 20> H 	 -63.777 	 16.1387 	 22.0681
| 21> H 	 -62.3577 	 17.1937 	 21.7761
| 22> H 	 -62.2864 	 16.3278 	 23.2232
| 23> S 	 -58.5767 	 20.717 	 19.1128
| 24> C 	 -56.8709 	 20.6079 	 19.2026
| 25> C 	 -56.4571 	 20.2845 	 20.4691
| 26> C 	 -57.481 	 20.275 	 21.4392
| 27> C 	 -58.7068 	 20.5704 	 20.9139
| 28> H 	 -55.3878 	 20.061 	 20.5173
| 29> C 	 -57.1937 	 19.9191 	 22.8721
| 30> H 	 -57.9516 	 20.2924 	 23.6082
| 31> H 	 -56.269 	 20.5037 	 23.0953
| 32> C 	 -57.0466 	 18.4181 	 23.3012
| 33> H 	 -56.2938 	 17.8471 	 22.7601
| 34> H 	 -57.9771 	 17.9505 	 23.0371
| 35> C 	 -56.7544 	 18.343 	 24.7978
| 36> H 	 -56.0814 	 19.1237 	 25.171
| 37> H 	 -56.4117 	 17.3551 	 25.0884
| 38> H 	 -57.7497 	 18.5703 	 25.1648
| 39> H 	 -63.3971 	 21.8035 	 22.0408
| 40> H 	 -56.0606 	 20.8109 	 18.5174
| 41> *
| 42>
| 43>                          ****END OF INPUT****

CARTESIAN COORDINATES (ANGSTROEM)
---------------------------------
  S    -61.127100   21.963700   21.090800
  C    -62.461800   21.273000   21.922600
  C    -62.107300   20.089900   22.608500
  C    -60.740800   19.764000   22.308800
  C    -60.044700   20.668500   21.517200
  H    -60.195000   18.954100   22.717900
  C    -62.954900   19.275000   23.641000
  H    -63.671000   19.995100   24.058100
  H    -62.348300   18.901800   24.476100
  C    -63.768500   18.077700   23.117500
  H    -64.487900   17.810600   23.837200
  H    -64.368300   18.596300   22.358900
  C    -63.024200   16.828800   22.529400
  H    -63.777000   16.138700   22.068100
  H    -62.357700   17.193700   21.776100
  H    -62.286400   16.327800   23.223200
  S    -58.576700   20.717000   19.112800
  C    -56.870900   20.607900   19.202600
  C    -56.457100   20.284500   20.469100
  C    -57.481000   20.275000   21.439200
  C    -58.706800   20.570400   20.913900
  H    -55.387800   20.061000   20.517300
  C    -57.193700   19.919100   22.872100
  H    -57.951600   20.292400   23.608200
  H    -56.269000   20.503700   23.095300
  C    -57.046600   18.418100   23.301200
  H    -56.293800   17.847100   22.760100
  H    -57.977100   17.950500   23.037100
  C    -56.754400   18.343000   24.797800
  H    -56.081400   19.123700   25.171000
  H    -56.411700   17.355100   25.088400
  H    -57.749700   18.570300   25.164800
  H    -63.397100   21.803500   22.040800
  H    -56.060600   20.810900   18.517400

 Total Charge           Charge          ....    0
 Multiplicity           Mult            ....    1
 Number of Electrons    NEL             ....  134
 Basis Dimension        Dim             ....  322

ORBITAL ENERGIES
----------------

  NO   OCC          E(Eh)            E(eV)
   0   2.0000     -88.968183     -2420.9474
   1   2.0000     -88.965582     -2420.8766
   2   2.0000     -10.330577      -281.1093
   3   2.0000     -10.329974      -281.0929
   4   2.0000     -10.319484      -280.8074
   5   2.0000     -10.311707      -280.5958
   6   2.0000     -10.310964      -280.5756
   7   2.0000     -10.302058      -280.3333
   8   2.0000     -10.300390      -280.2879
   9   2.0000     -10.297577      -280.2113
  10   2.0000     -10.294843      -280.1369
  11   2.0000     -10.288212      -279.9565
  12   2.0000     -10.287843      -279.9465
  13   2.0000     -10.285599      -279.8854
  14   2.0000     -10.285469      -279.8818
  15   2.0000     -10.279478      -279.7188
  16   2.0000      -8.083517      -219.9637
  17   2.0000      -8.079974      -219.8673
  18   2.0000      -6.041868      -164.4076
  19   2.0000      -6.038571      -164.3179
  20   2.0000      -6.037786      -164.2965
  21   2.0000      -6.034633      -164.2107
  22   2.0000      -6.034542      -164.2082
  23   2.0000      -6.030539      -164.0993
  24   2.0000      -1.007706       -27.4211
  25   2.0000      -0.987521       -26.8718
  26   2.0000      -0.909768       -24.7561
  27   2.0000      -0.905393       -24.6370
  28   2.0000      -0.868997       -23.6466
  29   2.0000      -0.855733       -23.2857
  30   2.0000      -0.844544       -22.9812
  31   2.0000      -0.814424       -22.1616
  32   2.0000      -0.784399       -21.3446
  33   2.0000      -0.772355       -21.0168
  34   2.0000      -0.707003       -19.2385
  35   2.0000      -0.700845       -19.0709
  36   2.0000      -0.696083       -18.9414
  37   2.0000      -0.659241       -17.9389
  38   2.0000      -0.644623       -17.5411
  39   2.0000      -0.617760       -16.8101
  40   2.0000      -0.596345       -16.2274
  41   2.0000      -0.572652       -15.5827
  42   2.0000      -0.564784       -15.3686
  43   2.0000      -0.545521       -14.8444
  44   2.0000      -0.543049       -14.7771
  45   2.0000      -0.522736       -14.2244
  46   2.0000      -0.516104       -14.0439
  47   2.0000      -0.513284       -13.9672
  48   2.0000      -0.507321       -13.8049
  49   2.0000      -0.501234       -13.6393
  50   2.0000      -0.485033       -13.1984
  51   2.0000      -0.481627       -13.1057
  52   2.0000      -0.471740       -12.8367
  53   2.0000      -0.466319       -12.6892
  54   2.0000      -0.460996       -12.5443
  55   2.0000      -0.447970       -12.1899
  56   2.0000      -0.444280       -12.0895
  57   2.0000      -0.438734       -11.9386
  58   2.0000      -0.433347       -11.7920
  59   2.0000      -0.426048       -11.5934
  60   2.0000      -0.417206       -11.3528
  61   2.0000      -0.416022       -11.3205
  62   2.0000      -0.412914       -11.2360
  63   2.0000      -0.346732        -9.4351
  64   2.0000      -0.334311        -9.0971
  65   2.0000      -0.327540        -8.9128
  66   2.0000      -0.295875        -8.0512
  67   0.0000       0.028043         0.7631
  68   0.0000       0.069139         1.8814
  69   0.0000       0.108669         2.9570
  70   0.0000       0.117449         3.1960
  71   0.0000       0.127866         3.4794

MULLIKEN ATOMIC CHARGES
-----------------------
   0 S :    0.124961
   1 C :   -0.127456
   2 C :   -0.089530
   3 C :    0.054965
   4 C :   -0.173988
   5 H :   -0.021653
   6 C :    0.047532
   7 H :    0.026737
   8 H :    0.031569
   9 C :   -0.056071
  10 H :    0.021739
  11 H :    0.018296
  12 C :   -0.062598
  13 H :    0.054769
  14 H :    0.031202
  15 H :    0.036828
  16 S :    0.111221
  17 C :   -0.077220
  18 C :   -0.073277
  19 C :    0.028486
  20 C :   -0.149010
  21 H :    0.020330
  22 C :   -0.003945
  23 H :    0.026879
  24 H :    0.031962
  25 C :   -0.052160
  26 H :    0.021592
  27 H :    0.022107
  28 C :   -0.033571
  29 H :    0.037907
  30 H :    0.040112
  31 H :    0.024845
  32 H :    0.054523
  33 H :    0.051917
Sum of atomic charges:    0.0000000

LOEWDIN ATOMIC CHARGES
----------------------
   0 S :    0.434649
   1 C :   -0.205149
   2 C :   -0.063725
   3 C :   -0.058114
   4 C :   -0.203916
   5 H :    0.019901
   6 C :   -0.029516
   7 H :    0.034253
   8 H :    0.028452
   9 C :   -0.042573
  10 H :    0.016338
  11 H :    0.025984
  12 C :   -0.073477
  13 H :    0.037070
  14 H :    0.023044
  15 H :    0.030081
  16 S :    0.394976
  17 C :   -0.197776
  18 C :   -0.078489
  19 C :   -0.060678
  20 C :   -0.179983
  21 H :    0.034841
  22 C :   -0.037056
  23 H :    0.032909
  24 H :    0.034165
  25 C :   -0.035284
  26 H :    0.017507
  27 H :    0.017725
  28 C :   -0.061371
  29 H :    0.027933
  30 H :    0.026682
  31 H :    0.026591
  32 H :    0.027730
  33 H :    0.036275

  Mayer bond orders larger than 0.100000
B(  0-S ,  1-C ) :   1.1783 B(  0-S ,  4-C ) :   1.1634 B(  1-C ,  2-C ) :   1.5661
B(  1-C ,  4-C ) :   0.1023 B(  1-C , 32-H ) :   0.9670 B(  2-C ,  3-C ) :   1.2693
B(  2-C ,  6-C ) :   1.0119 B(  3-C ,  4-C ) :   1.5536 B(  3-C ,  5-H ) :   0.9978
B(  4-C , 20-C ) :   1.0319 B(  6-C ,  7-H ) :   0.9408 B(  6-C ,  8-H ) :   0.9485
B(  6-C ,  9-C ) :   1.0740 B(  9-C , 10-H ) :   0.9571 B(  9-C , 11-H ) :   0.9535
B(  9-C , 12-C ) :   1.0676 B( 12-C , 13-H ) :   0.9736 B( 12-C , 14-H ) :   0.9738
B( 12-C , 15-H ) :   0.9752 B( 16-S , 17-C ) :   1.1478 B( 16-S , 20-C ) :   1.1196
B( 17-C , 18-C ) :   1.6456 B( 17-C , 33-H ) :   0.9599 B( 18-C , 19-C ) :   1.2168
B( 18-C , 21-H ) :   0.9900 B( 19-C , 20-C ) :   1.6151 B( 19-C , 22-C ) :   1.0469
B( 22-C , 23-H ) :   0.9368 B( 22-C , 24-H ) :   0.9329 B( 22-C , 25-C ) :   1.0546
B( 25-C , 26-H ) :   0.9554 B( 25-C , 27-H ) :   0.9570 B( 25-C , 28-C ) :   1.0643
B( 28-C , 29-H ) :   0.9763 B( 28-C , 30-H ) :   0.9743 B( 28-C , 31-H ) :   0.9775

Dispersion correction           -0.014143280
FINAL SINGLE POINT ENERGY     -1339.873835535915

DIPOLE MOMENT
-------------
                                X             Y             Z
Electronic contribution:      1.74002      19.93194     -20.89091
Nuclear contribution   :     -1.63902     -20.27285      21.40436
                        -----------------------------------------
Total Dipole Moment    :      0.10099      -0.34091       0.51345
                        -----------------------------------------
Magnitude (a.u.)       :      0.62454
Magnitude (Debye)      :      1.58746

Rotational constants in cm-1:     0.016217     0.009286     0.006949
Rotational constants in MHz :   486.159950   278.375149   208.316023

                             ****ORCA TERMINATED NORMALLY****
TOTAL RUN TIME: 0 days 0 hours 0 minutes 21 seconds 443 msec
