                         Program Version 4.2.1 -  RELEASE  -
|  1> ! wB97X-D3 SP def2-SVP
|  2> %pal
|  3> nprocs 24
|  4> end
|  5>
|  6> * xyz 0 1
|  7> S 	 -49.6383 	 15.0162 	 23.5882
|  8> C 	 -51.3035 	 15.1204 	 24.1777
|  9> C 	 -51.9146 	 13.8877 	 24.0263
| 10> C 	 -51.1122 	 12.9069 	 23.3735
| 11> C 	 -49.8002 	 13.3304 	 23.0607
| 12> H 	 -51.4348 	 11.9211 	 23.065
| 13> C 	 -53.356 	 13.7022 	 24.404
| 14> H 	 -53.9699 	 13.5422 	 23.5349
| 15> H 	 -53.6642 	 14.6159 	 24.8155
| 16> C 	 -53.6003 	 12.6968 	 25.4924
| 17> H 	 -52.6608 	 12.8017 	 26.0354
| 18> H 	 -54.3371 	 13.0067 	 26.242
| 19> C 	 -53.8167 	 11.2676 	 25.0833
| 20> H 	 -53.9306 	 10.5925 	 25.9462
| 21> H 	 -54.7134 	 11.2121 	 24.4986
| 22> H 	 -52.898 	 10.9612 	 24.568
| 23> S 	 -48.4934 	 10.9434 	 22.9748
| 24> C 	 -47.037 	 10.8491 	 22.1196
| 25> C 	 -46.8006 	 11.9119 	 21.3017
| 26> C 	 -47.8183 	 12.928 	 21.3977
| 27> C 	 -48.7358 	 12.604 	 22.3908
| 28> H 	 -45.9353 	 11.9121 	 20.6794
| 29> C 	 -47.9121 	 14.2302 	 20.5843
| 30> H 	 -47.8741 	 15.1266 	 21.2457
| 31> H 	 -48.8388 	 14.251 	 20.0381
| 32> C 	 -46.7572 	 14.3116 	 19.553
| 33> H 	 -46.984 	 13.6446 	 18.7422
| 34> H 	 -45.6933 	 14.1108 	 19.9606
| 35> C 	 -46.6817 	 15.683 	 18.8607
| 36> H 	 -45.8421 	 15.6969 	 18.1273
| 37> H 	 -46.4121 	 16.5296 	 19.5654
| 38> H 	 -47.6329 	 15.8881 	 18.3871
| 39> H 	 -51.741 	 16.0849 	 24.3989
| 40> H 	 -46.3435 	 10.0571 	 22.0889
| 41> *
| 42>
| 43>                          ****END OF INPUT****

CARTESIAN COORDINATES (ANGSTROEM)
---------------------------------
  S    -49.638300   15.016200   23.588200
  C    -51.303500   15.120400   24.177700
  C    -51.914600   13.887700   24.026300
  C    -51.112200   12.906900   23.373500
  C    -49.800200   13.330400   23.060700
  H    -51.434800   11.921100   23.065000
  C    -53.356000   13.702200   24.404000
  H    -53.969900   13.542200   23.534900
  H    -53.664200   14.615900   24.815500
  C    -53.600300   12.696800   25.492400
  H    -52.660800   12.801700   26.035400
  H    -54.337100   13.006700   26.242000
  C    -53.816700   11.267600   25.083300
  H    -53.930600   10.592500   25.946200
  H    -54.713400   11.212100   24.498600
  H    -52.898000   10.961200   24.568000
  S    -48.493400   10.943400   22.974800
  C    -47.037000   10.849100   22.119600
  C    -46.800600   11.911900   21.301700
  C    -47.818300   12.928000   21.397700
  C    -48.735800   12.604000   22.390800
  H    -45.935300   11.912100   20.679400
  C    -47.912100   14.230200   20.584300
  H    -47.874100   15.126600   21.245700
  H    -48.838800   14.251000   20.038100
  C    -46.757200   14.311600   19.553000
  H    -46.984000   13.644600   18.742200
  H    -45.693300   14.110800   19.960600
  C    -46.681700   15.683000   18.860700
  H    -45.842100   15.696900   18.127300
  H    -46.412100   16.529600   19.565400
  H    -47.632900   15.888100   18.387100
  H    -51.741000   16.084900   24.398900
  H    -46.343500   10.057100   22.088900

 Total Charge           Charge          ....    0
 Multiplicity           Mult            ....    1
 Number of Electrons    NEL             ....  134
 Basis Dimension        Dim             ....  322

ORBITAL ENERGIES
----------------

  NO   OCC          E(Eh)            E(eV)
   0   2.0000     -88.966543     -2420.9027
   1   2.0000     -88.963849     -2420.8294
   2   2.0000     -10.336074      -281.2589
   3   2.0000     -10.326926      -281.0099
   4   2.0000     -10.315859      -280.7088
   5   2.0000     -10.309454      -280.5345
   6   2.0000     -10.309409      -280.5333
   7   2.0000     -10.301363      -280.3143
   8   2.0000     -10.297227      -280.2018
   9   2.0000     -10.296855      -280.1917
  10   2.0000     -10.292030      -280.0604
  11   2.0000     -10.291111      -280.0354
  12   2.0000     -10.282696      -279.8064
  13   2.0000     -10.279474      -279.7187
  14   2.0000     -10.275672      -279.6152
  15   2.0000     -10.273585      -279.5584
  16   2.0000      -8.082048      -219.9237
  17   2.0000      -8.077725      -219.8061
  18   2.0000      -6.040442      -164.3688
  19   2.0000      -6.036547      -164.2628
  20   2.0000      -6.036277      -164.2555
  21   2.0000      -6.032780      -164.1603
  22   2.0000      -6.032227      -164.1452
  23   2.0000      -6.028628      -164.0473
  24   2.0000      -1.006760       -27.3953
  25   2.0000      -0.983629       -26.7659
  26   2.0000      -0.918356       -24.9897
  27   2.0000      -0.908082       -24.7102
  28   2.0000      -0.872272       -23.7357
  29   2.0000      -0.851380       -23.1672
  30   2.0000      -0.842306       -22.9203
  31   2.0000      -0.817271       -22.2391
  32   2.0000      -0.785873       -21.3847
  33   2.0000      -0.771454       -20.9923
  34   2.0000      -0.705916       -19.2090
  35   2.0000      -0.698188       -18.9987
  36   2.0000      -0.690133       -18.7795
  37   2.0000      -0.656288       -17.8585
  38   2.0000      -0.637708       -17.3529
  39   2.0000      -0.619473       -16.8567
  40   2.0000      -0.601590       -16.3701
  41   2.0000      -0.575504       -15.6603
  42   2.0000      -0.570800       -15.5323
  43   2.0000      -0.551469       -15.0062
  44   2.0000      -0.543077       -14.7779
  45   2.0000      -0.526749       -14.3336
  46   2.0000      -0.516919       -14.0661
  47   2.0000      -0.513941       -13.9850
  48   2.0000      -0.503952       -13.7132
  49   2.0000      -0.501605       -13.6494
  50   2.0000      -0.491467       -13.3735
  51   2.0000      -0.482731       -13.1358
  52   2.0000      -0.474064       -12.8999
  53   2.0000      -0.466717       -12.7000
  54   2.0000      -0.460890       -12.5415
  55   2.0000      -0.453595       -12.3429
  56   2.0000      -0.439792       -11.9673
  57   2.0000      -0.431997       -11.7552
  58   2.0000      -0.427089       -11.6217
  59   2.0000      -0.425007       -11.5650
  60   2.0000      -0.418595       -11.3906
  61   2.0000      -0.411744       -11.2041
  62   2.0000      -0.406251       -11.0547
  63   2.0000      -0.349197        -9.5021
  64   2.0000      -0.334083        -9.0909
  65   2.0000      -0.330105        -8.9826
  66   2.0000      -0.287834        -7.8324
  67   0.0000       0.020966         0.5705
  68   0.0000       0.074854         2.0369
  69   0.0000       0.108390         2.9494
  70   0.0000       0.123460         3.3595
  71   0.0000       0.136816         3.7229

MULLIKEN ATOMIC CHARGES
-----------------------
   0 S :    0.090762
   1 C :   -0.139453
   2 C :   -0.102265
   3 C :    0.022368
   4 C :   -0.141949
   5 H :    0.014619
   6 C :    0.135238
   7 H :    0.026517
   8 H :   -0.011807
   9 C :   -0.100658
  10 H :    0.021238
  11 H :    0.026324
  12 C :   -0.023824
  13 H :    0.034448
  14 H :    0.029612
  15 H :    0.028184
  16 S :    0.118933
  17 C :   -0.035628
  18 C :   -0.058065
  19 C :   -0.037270
  20 C :   -0.163574
  21 H :    0.009254
  22 C :    0.087501
  23 H :    0.045559
  24 H :    0.039591
  25 C :   -0.142177
  26 H :    0.034724
  27 H :    0.051674
  28 C :   -0.057377
  29 H :    0.036105
  30 H :    0.038429
  31 H :    0.031199
  32 H :    0.061021
  33 H :    0.030747
Sum of atomic charges:   -0.0000000

LOEWDIN ATOMIC CHARGES
----------------------
   0 S :    0.392113
   1 C :   -0.193926
   2 C :   -0.060629
   3 C :   -0.074145
   4 C :   -0.181935
   5 H :    0.026265
   6 C :   -0.025835
   7 H :    0.026721
   8 H :    0.026451
   9 C :   -0.049633
  10 H :    0.027059
  11 H :    0.023187
  12 C :   -0.062767
  13 H :    0.030094
  14 H :    0.021232
  15 H :    0.026226
  16 S :    0.423943
  17 C :   -0.190671
  18 C :   -0.072158
  19 C :   -0.047040
  20 C :   -0.194634
  21 H :    0.027521
  22 C :   -0.030523
  23 H :    0.031989
  24 H :    0.035648
  25 C :   -0.050210
  26 H :    0.022984
  27 H :    0.032551
  28 C :   -0.070341
  29 H :    0.028191
  30 H :    0.027914
  31 H :    0.020995
  32 H :    0.030194
  33 H :    0.023168

  Mayer bond orders larger than 0.100000
B(  0-S ,  1-C ) :   1.1356 B(  0-S ,  4-C ) :   1.1550 B(  1-C ,  2-C ) :   1.5882
B(  1-C ,  4-C ) :   0.1018 B(  1-C , 32-H ) :   0.9695 B(  2-C ,  3-C ) :   1.2487
B(  2-C ,  6-C ) :   1.0476 B(  3-C ,  4-C ) :   1.5396 B(  3-C ,  5-H ) :   0.9888
B(  4-C , 20-C ) :   1.0679 B(  6-C ,  7-H ) :   0.9394 B(  6-C ,  8-H ) :   0.9187
B(  6-C ,  9-C ) :   1.0549 B(  9-C , 10-H ) :   0.9529 B(  9-C , 11-H ) :   0.9573
B(  9-C , 12-C ) :   1.0846 B( 12-C , 13-H ) :   0.9687 B( 12-C , 14-H ) :   0.9754
B( 12-C , 15-H ) :   0.9723 B( 16-S , 17-C ) :   1.1628 B( 16-S , 20-C ) :   1.1337
B( 17-C , 18-C ) :   1.6204 B( 17-C , 33-H ) :   0.9610 B( 18-C , 19-C ) :   1.2336
B( 18-C , 21-H ) :   0.9940 B( 19-C , 20-C ) :   1.5884 B( 19-C , 22-C ) :   1.0223
B( 22-C , 23-H ) :   0.9372 B( 22-C , 24-H ) :   0.9272 B( 22-C , 25-C ) :   1.0810
B( 25-C , 26-H ) :   0.9516 B( 25-C , 27-H ) :   0.9535 B( 25-C , 28-C ) :   1.0871
B( 28-C , 29-H ) :   0.9738 B( 28-C , 30-H ) :   0.9752 B( 28-C , 31-H ) :   0.9725

Dispersion correction           -0.013763063
FINAL SINGLE POINT ENERGY     -1339.880155292328

DIPOLE MOMENT
-------------
                                X             Y             Z
Electronic contribution:      7.46848      -4.19576       6.40487
Nuclear contribution   :     -7.57520       4.24408      -6.74359
                        -----------------------------------------
Total Dipole Moment    :     -0.10672       0.04833      -0.33872
                        -----------------------------------------
Magnitude (a.u.)       :      0.35841
Magnitude (Debye)      :      0.91099

Rotational constants in cm-1:     0.022188     0.007668     0.006127
Rotational constants in MHz :   665.173206   229.893448   183.696996

                             ****ORCA TERMINATED NORMALLY****
TOTAL RUN TIME: 0 days 0 hours 0 minutes 20 seconds 998 msec
