                         Program Version 4.2.1 -  RELEASE  -
|  1> ! wB97X-D3 SP def2-SVP
|  2> %pal
|  3> nprocs 24
|  4> end
|  5>
|  6> * xyz 0 1
|  7> S 	 -134.897 	 69.243 	 -55.8686
|  8> C 	 -135.682 	 68.2702 	 -57.0118
|  9> C 	 -137.035 	 68.1224 	 -56.7194
| 10> C 	 -137.362 	 68.7796 	 -55.4807
| 11> C 	 -136.35 	 69.6229 	 -55.0183
| 12> H 	 -138.346 	 68.8889 	 -55.0755
| 13> C 	 -138.029 	 67.2101 	 -57.4926
| 14> H 	 -137.636 	 67.0652 	 -58.4614
| 15> H 	 -138.948 	 67.8043 	 -57.7558
| 16> C 	 -138.53 	 65.9533 	 -56.8009
| 17> H 	 -138.995 	 66.2213 	 -55.8911
| 18> H 	 -139.311 	 65.6285 	 -57.4498
| 19> C 	 -137.448 	 64.8435 	 -56.5923
| 20> H 	 -136.874 	 64.7063 	 -57.5385
| 21> H 	 -136.756 	 65.1858 	 -55.8342
| 22> H 	 -137.716 	 63.7515 	 -56.3442
| 23> S 	 -136.2 	 72.2875 	 -54.27
| 24> C 	 -136.414 	 72.7344 	 -52.5633
| 25> C 	 -136.722 	 71.642 	 -51.8301
| 26> C 	 -136.75 	 70.4569 	 -52.5962
| 27> C 	 -136.41 	 70.6435 	 -53.9416
| 28> H 	 -136.836 	 71.6005 	 -50.7174
| 29> C 	 -137.093 	 69.1348 	 -52.0209
| 30> H 	 -136.798 	 69.0155 	 -50.9912
| 31> H 	 -136.567 	 68.3482 	 -52.4898
| 32> C 	 -138.576 	 68.7542 	 -52.0442
| 33> H 	 -138.807 	 68.5778 	 -53.0611
| 34> H 	 -139.126 	 69.6678 	 -51.6778
| 35> C 	 -138.954 	 67.4665 	 -51.2569
| 36> H 	 -140.051 	 67.393 	 -51.2213
| 37> H 	 -138.539 	 67.4868 	 -50.2221
| 38> H 	 -138.536 	 66.561 	 -51.7258
| 39> H 	 -135.088 	 67.7658 	 -57.7881
| 40> H 	 -136.42 	 73.734 	 -52.0718
| 41> *
| 42>
| 43>                          ****END OF INPUT****

CARTESIAN COORDINATES (ANGSTROEM)
---------------------------------
  S    -134.897000   69.243000  -55.868600
  C    -135.682000   68.270200  -57.011800
  C    -137.035000   68.122400  -56.719400
  C    -137.362000   68.779600  -55.480700
  C    -136.350000   69.622900  -55.018300
  H    -138.346000   68.888900  -55.075500
  C    -138.029000   67.210100  -57.492600
  H    -137.636000   67.065200  -58.461400
  H    -138.948000   67.804300  -57.755800
  C    -138.530000   65.953300  -56.800900
  H    -138.995000   66.221300  -55.891100
  H    -139.311000   65.628500  -57.449800
  C    -137.448000   64.843500  -56.592300
  H    -136.874000   64.706300  -57.538500
  H    -136.756000   65.185800  -55.834200
  H    -137.716000   63.751500  -56.344200
  S    -136.200000   72.287500  -54.270000
  C    -136.414000   72.734400  -52.563300
  C    -136.722000   71.642000  -51.830100
  C    -136.750000   70.456900  -52.596200
  C    -136.410000   70.643500  -53.941600
  H    -136.836000   71.600500  -50.717400
  C    -137.093000   69.134800  -52.020900
  H    -136.798000   69.015500  -50.991200
  H    -136.567000   68.348200  -52.489800
  C    -138.576000   68.754200  -52.044200
  H    -138.807000   68.577800  -53.061100
  H    -139.126000   69.667800  -51.677800
  C    -138.954000   67.466500  -51.256900
  H    -140.051000   67.393000  -51.221300
  H    -138.539000   67.486800  -50.222100
  H    -138.536000   66.561000  -51.725800
  H    -135.088000   67.765800  -57.788100
  H    -136.420000   73.734000  -52.071800

 Total Charge           Charge          ....    0
 Multiplicity           Mult            ....    1
 Number of Electrons    NEL             ....  134
 Basis Dimension        Dim             ....  322

ORBITAL ENERGIES
----------------

  NO   OCC          E(Eh)            E(eV)
   0   2.0000     -88.968469     -2420.9551
   1   2.0000     -88.965525     -2420.8750
   2   2.0000     -10.331504      -281.1345
   3   2.0000     -10.325135      -280.9612
   4   2.0000     -10.319256      -280.8012
   5   2.0000     -10.315101      -280.6882
   6   2.0000     -10.306255      -280.4474
   7   2.0000     -10.296490      -280.1817
   8   2.0000     -10.295979      -280.1678
   9   2.0000     -10.295466      -280.1539
  10   2.0000     -10.292827      -280.0821
  11   2.0000     -10.286559      -279.9115
  12   2.0000     -10.285817      -279.8913
  13   2.0000     -10.284830      -279.8644
  14   2.0000     -10.284198      -279.8473
  15   2.0000     -10.276768      -279.6451
  16   2.0000      -8.083604      -219.9660
  17   2.0000      -8.081764      -219.9160
  18   2.0000      -6.042158      -164.4155
  19   2.0000      -6.040073      -164.3588
  20   2.0000      -6.037962      -164.3013
  21   2.0000      -6.035847      -164.2437
  22   2.0000      -6.034358      -164.2032
  23   2.0000      -6.032863      -164.1626
  24   2.0000      -1.013462       -27.5777
  25   2.0000      -0.993093       -27.0234
  26   2.0000      -0.910199       -24.7678
  27   2.0000      -0.909561       -24.7504
  28   2.0000      -0.871624       -23.7181
  29   2.0000      -0.848343       -23.0846
  30   2.0000      -0.844838       -22.9892
  31   2.0000      -0.817162       -22.2361
  32   2.0000      -0.782668       -21.2975
  33   2.0000      -0.769840       -20.9484
  34   2.0000      -0.710106       -19.3230
  35   2.0000      -0.697271       -18.9737
  36   2.0000      -0.689227       -18.7548
  37   2.0000      -0.660659       -17.9774
  38   2.0000      -0.647308       -17.6142
  39   2.0000      -0.622454       -16.9378
  40   2.0000      -0.599793       -16.3212
  41   2.0000      -0.571500       -15.5513
  42   2.0000      -0.564493       -15.3606
  43   2.0000      -0.541948       -14.7472
  44   2.0000      -0.540242       -14.7007
  45   2.0000      -0.521601       -14.1935
  46   2.0000      -0.514500       -14.0003
  47   2.0000      -0.511065       -13.9068
  48   2.0000      -0.506825       -13.7914
  49   2.0000      -0.498951       -13.5771
  50   2.0000      -0.487640       -13.2694
  51   2.0000      -0.480830       -13.0840
  52   2.0000      -0.473940       -12.8966
  53   2.0000      -0.466042       -12.6817
  54   2.0000      -0.458902       -12.4874
  55   2.0000      -0.450236       -12.2515
  56   2.0000      -0.440602       -11.9894
  57   2.0000      -0.436801       -11.8860
  58   2.0000      -0.429540       -11.6884
  59   2.0000      -0.428865       -11.6700
  60   2.0000      -0.425017       -11.5653
  61   2.0000      -0.416043       -11.3211
  62   2.0000      -0.414604       -11.2819
  63   2.0000      -0.349814        -9.5189
  64   2.0000      -0.331019        -9.0075
  65   2.0000      -0.326955        -8.8969
  66   2.0000      -0.299174        -8.1409
  67   0.0000       0.036325         0.9885
  68   0.0000       0.068649         1.8680
  69   0.0000       0.112220         3.0536
  70   0.0000       0.126821         3.4510
  71   0.0000       0.130524         3.5517

MULLIKEN ATOMIC CHARGES
-----------------------
   0 S :    0.127523
   1 C :   -0.131872
   2 C :   -0.096227
   3 C :    0.035481
   4 C :   -0.182541
   5 H :    0.020686
   6 C :    0.051076
   7 H :    0.004157
   8 H :    0.033748
   9 C :   -0.009122
  10 H :    0.020100
  11 H :    0.023876
  12 C :   -0.091467
  13 H :    0.025658
  14 H :    0.043456
  15 H :    0.048828
  16 S :    0.125208
  17 C :   -0.102469
  18 C :   -0.034343
  19 C :   -0.039651
  20 C :   -0.155166
  21 H :    0.036069
  22 C :    0.091665
  23 H :   -0.001795
  24 H :    0.008542
  25 C :   -0.078116
  26 H :    0.003784
  27 H :    0.032812
  28 C :   -0.054781
  29 H :    0.044571
  30 H :    0.033176
  31 H :    0.035487
  32 H :    0.062843
  33 H :    0.068804
Sum of atomic charges:    0.0000000

LOEWDIN ATOMIC CHARGES
----------------------
   0 S :    0.444101
   1 C :   -0.216974
   2 C :   -0.066789
   3 C :   -0.061934
   4 C :   -0.202833
   5 H :    0.024912
   6 C :   -0.029176
   7 H :    0.021135
   8 H :    0.039459
   9 C :   -0.032599
  10 H :    0.018508
  11 H :    0.024301
  12 C :   -0.079323
  13 H :    0.025616
  14 H :    0.025329
  15 H :    0.035392
  16 S :    0.431317
  17 C :   -0.190301
  18 C :   -0.075524
  19 C :   -0.058702
  20 C :   -0.224356
  21 H :    0.042453
  22 C :   -0.036043
  23 H :    0.023609
  24 H :    0.024015
  25 C :   -0.036925
  26 H :    0.011343
  27 H :    0.027260
  28 C :   -0.067638
  29 H :    0.030398
  30 H :    0.025924
  31 H :    0.027292
  32 H :    0.033129
  33 H :    0.043623

  Mayer bond orders larger than 0.100000
B(  0-S ,  1-C ) :   1.1705 B(  0-S ,  4-C ) :   1.1816 B(  1-C ,  2-C ) :   1.5715
B(  1-C , 32-H ) :   0.9681 B(  2-C ,  3-C ) :   1.2660 B(  2-C ,  6-C ) :   1.0242
B(  3-C ,  4-C ) :   1.5564 B(  3-C ,  5-H ) :   0.9832 B(  4-C , 20-C ) :   1.0052
B(  6-C ,  7-H ) :   0.9399 B(  6-C ,  8-H ) :   0.9372 B(  6-C ,  9-C ) :   1.0771
B(  9-C , 10-H ) :   0.9560 B(  9-C , 11-H ) :   0.9523 B(  9-C , 12-C ) :   1.0543
B( 12-C , 13-H ) :   0.9763 B( 12-C , 14-H ) :   0.9784 B( 12-C , 15-H ) :   0.9783
B( 16-S , 17-C ) :   1.1506 B( 16-S , 20-C ) :   1.1628 B( 17-C , 18-C ) :   1.5969
B( 17-C , 33-H ) :   0.9603 B( 18-C , 19-C ) :   1.2838 B( 18-C , 21-H ) :   0.9773
B( 19-C , 20-C ) :   1.5648 B( 19-C , 22-C ) :   1.0714 B( 22-C , 23-H ) :   0.9306
B( 22-C , 24-H ) :   0.9168 B( 22-C , 25-C ) :   1.0588 B( 25-C , 26-H ) :   0.9485
B( 25-C , 27-H ) :   0.9573 B( 25-C , 28-C ) :   1.0828 B( 28-C , 29-H ) :   0.9746
B( 28-C , 30-H ) :   0.9750 B( 28-C , 31-H ) :   0.9734

Dispersion correction           -0.014881092
FINAL SINGLE POINT ENERGY     -1339.883176987727

DIPOLE MOMENT
-------------
                                X             Y             Z
Electronic contribution:     16.60072      25.06556      -5.11173
Nuclear contribution   :    -16.99182     -25.46927       5.24613
                        -----------------------------------------
Total Dipole Moment    :     -0.39110      -0.40372       0.13440
                        -----------------------------------------
Magnitude (a.u.)       :      0.57794
Magnitude (Debye)      :      1.46900

Rotational constants in cm-1:     0.018487     0.009450     0.006919
Rotational constants in MHz :   554.239917   283.300349   207.436197

                             ****ORCA TERMINATED NORMALLY****
TOTAL RUN TIME: 0 days 0 hours 0 minutes 22 seconds 246 msec
