                         Program Version 4.2.1 -  RELEASE  -
|  1> ! wB97X-D3 SP def2-SVP
|  2> %pal
|  3> nprocs 24
|  4> end
|  5>
|  6> * xyz 0 1
|  7> S 	 -137.34 	 4.99587 	 1.45525
|  8> C 	 -137.046 	 5.32466 	 -0.202877
|  9> C 	 -135.738 	 5.61237 	 -0.491899
| 10> C 	 -134.95 	 5.47326 	 0.681911
| 11> C 	 -135.647 	 5.19189 	 1.79783
| 12> H 	 -133.881 	 5.65564 	 0.777382
| 13> C 	 -135.244 	 6.12191 	 -1.76395
| 14> H 	 -135.306 	 5.36328 	 -2.53707
| 15> H 	 -134.146 	 6.29279 	 -1.72031
| 16> C 	 -135.98 	 7.33175 	 -2.38731
| 17> H 	 -135.484 	 7.49367 	 -3.3355
| 18> H 	 -136.967 	 7.15277 	 -2.8411
| 19> C 	 -136.008 	 8.56209 	 -1.46582
| 20> H 	 -136.398 	 9.40125 	 -1.94622
| 21> H 	 -136.716 	 8.39623 	 -0.679493
| 22> H 	 -135.122 	 8.74253 	 -0.839814
| 23> S 	 -134.02 	 6.40874 	 3.68712
| 24> C 	 -133.5 	 5.50871 	 5.08102
| 25> C 	 -134.139 	 4.27089 	 5.01736
| 26> C 	 -135.003 	 4.03644 	 3.92424
| 27> C 	 -135.042 	 5.11688 	 3.09273
| 28> H 	 -133.924 	 3.54674 	 5.87098
| 29> C 	 -135.596 	 2.60203 	 3.80331
| 30> H 	 -136.663 	 2.6602 	 3.33006
| 31> H 	 -135.728 	 2.21783 	 4.80662
| 32> C 	 -134.695 	 1.54173 	 3.0885
| 33> H 	 -135.096 	 0.484433 	 3.29668
| 34> H 	 -133.7 	 1.65955 	 3.56177
| 35> C 	 -134.491 	 1.81689 	 1.57001
| 36> H 	 -135.389 	 1.79961 	 0.900692
| 37> H 	 -133.934 	 1.03554 	 1.11894
| 38> H 	 -133.793 	 2.6067 	 1.41702
| 39> H 	 -137.832 	 5.51719 	 -0.905454
| 40> H 	 -132.963 	 5.88243 	 5.83558
| 41> *
| 42>
| 43>                          ****END OF INPUT****

CARTESIAN COORDINATES (ANGSTROEM)
---------------------------------
  S    -137.340000    4.995870    1.455250
  C    -137.046000    5.324660   -0.202877
  C    -135.738000    5.612370   -0.491899
  C    -134.950000    5.473260    0.681911
  C    -135.647000    5.191890    1.797830
  H    -133.881000    5.655640    0.777382
  C    -135.244000    6.121910   -1.763950
  H    -135.306000    5.363280   -2.537070
  H    -134.146000    6.292790   -1.720310
  C    -135.980000    7.331750   -2.387310
  H    -135.484000    7.493670   -3.335500
  H    -136.967000    7.152770   -2.841100
  C    -136.008000    8.562090   -1.465820
  H    -136.398000    9.401250   -1.946220
  H    -136.716000    8.396230   -0.679493
  H    -135.122000    8.742530   -0.839814
  S    -134.020000    6.408740    3.687120
  C    -133.500000    5.508710    5.081020
  C    -134.139000    4.270890    5.017360
  C    -135.003000    4.036440    3.924240
  C    -135.042000    5.116880    3.092730
  H    -133.924000    3.546740    5.870980
  C    -135.596000    2.602030    3.803310
  H    -136.663000    2.660200    3.330060
  H    -135.728000    2.217830    4.806620
  C    -134.695000    1.541730    3.088500
  H    -135.096000    0.484433    3.296680
  H    -133.700000    1.659550    3.561770
  C    -134.491000    1.816890    1.570010
  H    -135.389000    1.799610    0.900692
  H    -133.934000    1.035540    1.118940
  H    -133.793000    2.606700    1.417020
  H    -137.832000    5.517190   -0.905454
  H    -132.963000    5.882430    5.835580

 Total Charge           Charge          ....    0
 Multiplicity           Mult            ....    1
 Number of Electrons    NEL             ....  134
 Basis Dimension        Dim             ....  322

ORBITAL ENERGIES
----------------

  NO   OCC          E(Eh)            E(eV)
   0   2.0000     -88.966339     -2420.8972
   1   2.0000     -88.965870     -2420.8844
   2   2.0000     -10.322706      -280.8951
   3   2.0000     -10.317806      -280.7618
   4   2.0000     -10.310568      -280.5648
   5   2.0000     -10.305161      -280.4177
   6   2.0000     -10.300142      -280.2811
   7   2.0000     -10.299927      -280.2753
   8   2.0000     -10.296915      -280.1933
   9   2.0000     -10.296485      -280.1816
  10   2.0000     -10.292764      -280.0803
  11   2.0000     -10.290448      -280.0173
  12   2.0000     -10.289388      -279.9885
  13   2.0000     -10.285173      -279.8738
  14   2.0000     -10.268486      -279.4197
  15   2.0000     -10.268152      -279.4106
  16   2.0000      -8.081682      -219.9137
  17   2.0000      -8.080637      -219.8853
  18   2.0000      -6.040128      -164.3602
  19   2.0000      -6.039110      -164.3325
  20   2.0000      -6.036162      -164.2523
  21   2.0000      -6.035016      -164.2211
  22   2.0000      -6.032428      -164.1507
  23   2.0000      -6.031553      -164.1269
  24   2.0000      -1.014597       -27.6086
  25   2.0000      -0.990696       -26.9582
  26   2.0000      -0.914968       -24.8976
  27   2.0000      -0.897108       -24.4115
  28   2.0000      -0.872934       -23.7537
  29   2.0000      -0.852761       -23.2048
  30   2.0000      -0.843537       -22.9538
  31   2.0000      -0.812516       -22.1097
  32   2.0000      -0.785165       -21.3654
  33   2.0000      -0.777467       -21.1560
  34   2.0000      -0.713322       -19.4105
  35   2.0000      -0.707222       -19.2445
  36   2.0000      -0.689185       -18.7537
  37   2.0000      -0.663843       -18.0641
  38   2.0000      -0.641310       -17.4509
  39   2.0000      -0.609733       -16.5917
  40   2.0000      -0.593236       -16.1428
  41   2.0000      -0.573563       -15.6074
  42   2.0000      -0.558729       -15.2038
  43   2.0000      -0.546927       -14.8826
  44   2.0000      -0.536916       -14.6102
  45   2.0000      -0.534462       -14.5434
  46   2.0000      -0.512864       -13.9557
  47   2.0000      -0.509803       -13.8724
  48   2.0000      -0.504100       -13.7173
  49   2.0000      -0.493631       -13.4324
  50   2.0000      -0.490844       -13.3566
  51   2.0000      -0.476287       -12.9604
  52   2.0000      -0.474376       -12.9084
  53   2.0000      -0.464098       -12.6287
  54   2.0000      -0.463675       -12.6172
  55   2.0000      -0.443814       -12.0768
  56   2.0000      -0.437145       -11.8953
  57   2.0000      -0.435445       -11.8491
  58   2.0000      -0.434328       -11.8187
  59   2.0000      -0.421522       -11.4702
  60   2.0000      -0.416800       -11.3417
  61   2.0000      -0.414272       -11.2729
  62   2.0000      -0.406409       -11.0589
  63   2.0000      -0.347704        -9.4615
  64   2.0000      -0.331874        -9.0308
  65   2.0000      -0.328632        -8.9425
  66   2.0000      -0.294032        -8.0010
  67   0.0000       0.036292         0.9876
  68   0.0000       0.068449         1.8626
  69   0.0000       0.115344         3.1387
  70   0.0000       0.118265         3.2182
  71   0.0000       0.130981         3.5642

MULLIKEN ATOMIC CHARGES
-----------------------
   0 S :    0.125474
   1 C :   -0.117270
   2 C :   -0.062358
   3 C :   -0.002697
   4 C :   -0.143387
   5 H :    0.012272
   6 C :    0.065667
   7 H :    0.028349
   8 H :    0.026180
   9 C :   -0.078282
  10 H :    0.014770
  11 H :    0.019657
  12 C :   -0.001801
  13 H :    0.021122
  14 H :    0.016960
  15 H :    0.031372
  16 S :    0.110637
  17 C :   -0.053654
  18 C :   -0.070664
  19 C :   -0.011522
  20 C :   -0.176327
  21 H :    0.039208
  22 C :    0.059538
  23 H :    0.039490
  24 H :    0.021734
  25 C :   -0.090246
  26 H :    0.048083
  27 H :    0.029341
  28 C :   -0.026261
  29 H :    0.042795
  30 H :    0.006051
  31 H :    0.027604
  32 H :    0.036812
  33 H :    0.011351
Sum of atomic charges:    0.0000000

LOEWDIN ATOMIC CHARGES
----------------------
   0 S :    0.428155
   1 C :   -0.200570
   2 C :   -0.067326
   3 C :   -0.062720
   4 C :   -0.196147
   5 H :    0.029692
   6 C :   -0.037286
   7 H :    0.036120
   8 H :    0.036304
   9 C :   -0.041873
  10 H :    0.022795
  11 H :    0.025139
  12 C :   -0.066047
  13 H :    0.018980
  14 H :    0.026282
  15 H :    0.031168
  16 S :    0.416544
  17 C :   -0.175404
  18 C :   -0.074300
  19 C :   -0.067080
  20 C :   -0.195224
  21 H :    0.038196
  22 C :   -0.035004
  23 H :    0.032312
  24 H :    0.027508
  25 C :   -0.040966
  26 H :    0.032357
  27 H :    0.027671
  28 C :   -0.075255
  29 H :    0.033282
  30 H :    0.020980
  31 H :    0.024803
  32 H :    0.022418
  33 H :    0.004498

  Mayer bond orders larger than 0.100000
B(  0-S ,  1-C ) :   1.1450 B(  0-S ,  4-C ) :   1.1447 B(  1-C ,  2-C ) :   1.6080
B(  1-C , 32-H ) :   0.9659 B(  2-C ,  3-C ) :   1.2310 B(  2-C ,  6-C ) :   1.0381
B(  3-C ,  4-C ) :   1.5957 B(  3-C ,  5-H ) :   0.9937 B(  4-C , 20-C ) :   1.0404
B(  6-C ,  7-H ) :   0.9206 B(  6-C ,  8-H ) :   0.9411 B(  6-C ,  9-C ) :   1.0854
B(  9-C , 10-H ) :   0.9511 B(  9-C , 11-H ) :   0.9488 B(  9-C , 12-C ) :   1.0685
B( 12-C , 13-H ) :   0.9730 B( 12-C , 14-H ) :   0.9663 B( 12-C , 15-H ) :   0.9762
B( 16-S , 17-C ) :   1.1527 B( 16-S , 20-C ) :   1.1554 B( 17-C , 18-C ) :   1.5855
B( 17-C , 20-C ) :   0.1019 B( 17-C , 33-H ) :   0.9892 B( 18-C , 19-C ) :   1.2653
B( 18-C , 21-H ) :   0.9755 B( 19-C , 20-C ) :   1.5716 B( 19-C , 22-C ) :   1.0294
B( 22-C , 23-H ) :   0.9364 B( 22-C , 24-H ) :   0.9337 B( 22-C , 25-C ) :   1.0668
B( 25-C , 26-H ) :   0.9582 B( 25-C , 27-H ) :   0.9512 B( 25-C , 28-C ) :   1.0838
B( 28-C , 29-H ) :   0.9747 B( 28-C , 30-H ) :   0.9659 B( 28-C , 31-H ) :   0.9702

Dispersion correction           -0.016091873
FINAL SINGLE POINT ENERGY     -1339.868810758002

DIPOLE MOMENT
-------------
                                X             Y             Z
Electronic contribution:     -2.61970       5.27162      14.50624
Nuclear contribution   :      2.80710      -5.42698     -14.75770
                        -----------------------------------------
Total Dipole Moment    :      0.18741      -0.15537      -0.25146
                        -----------------------------------------
Magnitude (a.u.)       :      0.34999
Magnitude (Debye)      :      0.88960

Rotational constants in cm-1:     0.022089     0.008992     0.007535
Rotational constants in MHz :   662.206334   269.559115   225.891409

                             ****ORCA TERMINATED NORMALLY****
TOTAL RUN TIME: 0 days 0 hours 0 minutes 23 seconds 611 msec
