                         Program Version 4.2.1 -  RELEASE  -
|  1> ! wB97X-D3 SP def2-SVP
|  2> %pal
|  3> nprocs 24
|  4> end
|  5>
|  6> * xyz 0 1
|  7> S 	 -46.5837 	 -10.0605 	 -17.5491
|  8> C 	 -47.0082 	 -11.7574 	 -17.4916
|  9> C 	 -46.6811 	 -12.423 	 -16.3592
| 10> C 	 -46.1604 	 -11.4729 	 -15.4082
| 11> C 	 -46.0773 	 -10.1596 	 -15.8885
| 12> H 	 -45.9919 	 -11.5897 	 -14.3235
| 13> C 	 -47.0608 	 -13.8513 	 -16.1093
| 14> H 	 -48.0979 	 -14.1606 	 -15.9756
| 15> H 	 -46.3787 	 -14.1564 	 -15.2598
| 16> C 	 -46.7406 	 -14.7503 	 -17.2971
| 17> H 	 -47.3726 	 -14.3952 	 -18.0993
| 18> H 	 -45.7259 	 -14.5591 	 -17.5996
| 19> C 	 -47.1125 	 -16.2648 	 -17.0721
| 20> H 	 -46.7588 	 -16.6811 	 -16.1075
| 21> H 	 -48.151 	 -16.4141 	 -16.9008
| 22> H 	 -46.8776 	 -16.8859 	 -17.9634
| 23> S 	 -44.4792 	 -7.91338 	 -16.0157
| 24> C 	 -44.0459 	 -7.07343 	 -14.5336
| 25> C 	 -44.7679 	 -7.52477 	 -13.4986
| 26> C 	 -45.6502 	 -8.54386 	 -13.8755
| 27> C 	 -45.5592 	 -8.99364 	 -15.2015
| 28> H 	 -44.6009 	 -7.15217 	 -12.5121
| 29> C 	 -46.5345 	 -9.2026 	 -12.8306
| 30> H 	 -46.2623 	 -8.83294 	 -11.8081
| 31> H 	 -46.2438 	 -10.2569 	 -12.6788
| 32> C 	 -48.0482 	 -9.19923 	 -13.0657
| 33> H 	 -48.1443 	 -9.66492 	 -14.0404
| 34> H 	 -48.324 	 -8.14396 	 -13.191
| 35> C 	 -48.9659 	 -9.72567 	 -12.0002
| 36> H 	 -48.8507 	 -9.33206 	 -11.021
| 37> H 	 -48.8016 	 -10.7647 	 -11.799
| 38> H 	 -50.0342 	 -9.67418 	 -12.2524
| 39> H 	 -47.3149 	 -12.1739 	 -18.4595
| 40> H 	 -43.4652 	 -6.1466 	 -14.538
| 41> *
| 42>
| 43>                          ****END OF INPUT****

CARTESIAN COORDINATES (ANGSTROEM)
---------------------------------
  S    -46.583700  -10.060500  -17.549100
  C    -47.008200  -11.757400  -17.491600
  C    -46.681100  -12.423000  -16.359200
  C    -46.160400  -11.472900  -15.408200
  C    -46.077300  -10.159600  -15.888500
  H    -45.991900  -11.589700  -14.323500
  C    -47.060800  -13.851300  -16.109300
  H    -48.097900  -14.160600  -15.975600
  H    -46.378700  -14.156400  -15.259800
  C    -46.740600  -14.750300  -17.297100
  H    -47.372600  -14.395200  -18.099300
  H    -45.725900  -14.559100  -17.599600
  C    -47.112500  -16.264800  -17.072100
  H    -46.758800  -16.681100  -16.107500
  H    -48.151000  -16.414100  -16.900800
  H    -46.877600  -16.885900  -17.963400
  S    -44.479200   -7.913380  -16.015700
  C    -44.045900   -7.073430  -14.533600
  C    -44.767900   -7.524770  -13.498600
  C    -45.650200   -8.543860  -13.875500
  C    -45.559200   -8.993640  -15.201500
  H    -44.600900   -7.152170  -12.512100
  C    -46.534500   -9.202600  -12.830600
  H    -46.262300   -8.832940  -11.808100
  H    -46.243800  -10.256900  -12.678800
  C    -48.048200   -9.199230  -13.065700
  H    -48.144300   -9.664920  -14.040400
  H    -48.324000   -8.143960  -13.191000
  C    -48.965900   -9.725670  -12.000200
  H    -48.850700   -9.332060  -11.021000
  H    -48.801600  -10.764700  -11.799000
  H    -50.034200   -9.674180  -12.252400
  H    -47.314900  -12.173900  -18.459500
  H    -43.465200   -6.146600  -14.538000

 Total Charge           Charge          ....    0
 Multiplicity           Mult            ....    1
 Number of Electrons    NEL             ....  134
 Basis Dimension        Dim             ....  322

ORBITAL ENERGIES
----------------

  NO   OCC          E(Eh)            E(eV)
   0   2.0000     -88.968025     -2420.9430
   1   2.0000     -88.963269     -2420.8136
   2   2.0000     -10.332804      -281.1699
   3   2.0000     -10.327356      -281.0217
   4   2.0000     -10.315148      -280.6894
   5   2.0000     -10.314702      -280.6773
   6   2.0000     -10.305185      -280.4183
   7   2.0000     -10.302160      -280.3360
   8   2.0000     -10.301851      -280.3276
   9   2.0000     -10.296820      -280.1907
  10   2.0000     -10.291004      -280.0325
  11   2.0000     -10.288392      -279.9614
  12   2.0000     -10.286960      -279.9224
  13   2.0000     -10.284881      -279.8658
  14   2.0000     -10.279351      -279.7154
  15   2.0000     -10.270796      -279.4826
  16   2.0000      -8.083399      -219.9605
  17   2.0000      -8.078546      -219.8284
  18   2.0000      -6.041747      -164.4043
  19   2.0000      -6.037930      -164.3004
  20   2.0000      -6.037048      -164.2764
  21   2.0000      -6.034190      -164.1987
  22   2.0000      -6.032845      -164.1621
  23   2.0000      -6.029418      -164.0688
  24   2.0000      -1.013032       -27.5660
  25   2.0000      -0.991480       -26.9796
  26   2.0000      -0.918875       -25.0039
  27   2.0000      -0.906319       -24.6622
  28   2.0000      -0.875019       -23.8105
  29   2.0000      -0.852687       -23.2028
  30   2.0000      -0.848468       -23.0880
  31   2.0000      -0.817645       -22.2492
  32   2.0000      -0.785566       -21.3763
  33   2.0000      -0.772512       -21.0211
  34   2.0000      -0.711714       -19.3667
  35   2.0000      -0.705323       -19.1928
  36   2.0000      -0.689326       -18.7575
  37   2.0000      -0.667880       -18.1740
  38   2.0000      -0.642766       -17.4906
  39   2.0000      -0.620025       -16.8717
  40   2.0000      -0.598499       -16.2860
  41   2.0000      -0.577111       -15.7040
  42   2.0000      -0.570315       -15.5191
  43   2.0000      -0.558163       -15.1884
  44   2.0000      -0.524036       -14.2597
  45   2.0000      -0.521567       -14.1926
  46   2.0000      -0.519774       -14.1438
  47   2.0000      -0.513888       -13.9836
  48   2.0000      -0.508999       -13.8506
  49   2.0000      -0.501195       -13.6382
  50   2.0000      -0.491994       -13.3878
  51   2.0000      -0.479724       -13.0539
  52   2.0000      -0.474020       -12.8987
  53   2.0000      -0.465924       -12.6784
  54   2.0000      -0.458254       -12.4697
  55   2.0000      -0.453342       -12.3361
  56   2.0000      -0.450177       -12.2499
  57   2.0000      -0.436786       -11.8855
  58   2.0000      -0.431231       -11.7344
  59   2.0000      -0.424274       -11.5451
  60   2.0000      -0.420173       -11.4335
  61   2.0000      -0.414719       -11.2851
  62   2.0000      -0.404412       -11.0046
  63   2.0000      -0.354361        -9.6426
  64   2.0000      -0.336387        -9.1535
  65   2.0000      -0.330962        -9.0059
  66   2.0000      -0.290079        -7.8935
  67   0.0000       0.022613         0.6153
  68   0.0000       0.073291         1.9944
  69   0.0000       0.102708         2.7948
  70   0.0000       0.117369         3.1938
  71   0.0000       0.140238         3.8161

MULLIKEN ATOMIC CHARGES
-----------------------
   0 S :    0.111057
   1 C :   -0.150081
   2 C :   -0.037597
   3 C :    0.018929
   4 C :   -0.166666
   5 H :    0.015887
   6 C :    0.069549
   7 H :    0.044197
   8 H :    0.032104
   9 C :   -0.119820
  10 H :    0.029194
  11 H :    0.031077
  12 C :   -0.034684
  13 H :    0.028040
  14 H :    0.012654
  15 H :    0.050241
  16 S :    0.090718
  17 C :   -0.093476
  18 C :   -0.021685
  19 C :   -0.024804
  20 C :   -0.123688
  21 H :    0.013315
  22 C :    0.019046
  23 H :    0.004005
  24 H :    0.018286
  25 C :   -0.052251
  26 H :    0.039091
  27 H :    0.025589
  28 C :   -0.015964
  29 H :    0.016558
  30 H :    0.006847
  31 H :    0.038700
  32 H :    0.059524
  33 H :    0.066109
Sum of atomic charges:   -0.0000000

LOEWDIN ATOMIC CHARGES
----------------------
   0 S :    0.409006
   1 C :   -0.184106
   2 C :   -0.069490
   3 C :   -0.058942
   4 C :   -0.196593
   5 H :    0.034952
   6 C :   -0.034175
   7 H :    0.036673
   8 H :    0.035933
   9 C :   -0.037671
  10 H :    0.019657
  11 H :    0.019832
  12 C :   -0.071972
  13 H :    0.028142
  14 H :    0.019418
  15 H :    0.034997
  16 S :    0.407397
  17 C :   -0.178878
  18 C :   -0.069922
  19 C :   -0.059199
  20 C :   -0.205878
  21 H :    0.033464
  22 C :   -0.039994
  23 H :    0.026071
  24 H :    0.023812
  25 C :   -0.043244
  26 H :    0.027273
  27 H :    0.026098
  28 C :   -0.066611
  29 H :    0.021475
  30 H :    0.019573
  31 H :    0.033965
  32 H :    0.024563
  33 H :    0.034374

  Mayer bond orders larger than 0.100000
B(  0-S ,  1-C ) :   1.1441 B(  0-S ,  4-C ) :   1.1508 B(  1-C ,  2-C ) :   1.6141
B(  1-C , 32-H ) :   0.9625 B(  2-C ,  3-C ) :   1.2280 B(  2-C ,  6-C ) :   1.0154
B(  3-C ,  4-C ) :   1.5783 B(  3-C ,  5-H ) :   0.9858 B(  4-C , 20-C ) :   1.0589
B(  6-C ,  7-H ) :   0.9475 B(  6-C ,  8-H ) :   0.9372 B(  6-C ,  9-C ) :   1.0487
B(  9-C , 10-H ) :   0.9521 B(  9-C , 11-H ) :   0.9652 B(  9-C , 12-C ) :   1.0759
B( 12-C , 13-H ) :   0.9746 B( 12-C , 14-H ) :   0.9681 B( 12-C , 15-H ) :   0.9749
B( 16-S , 17-C ) :   1.1625 B( 16-S , 20-C ) :   1.1417 B( 17-C , 18-C ) :   1.5860
B( 17-C , 20-C ) :   0.1021 B( 17-C , 33-H ) :   0.9623 B( 18-C , 19-C ) :   1.2788
B( 18-C , 21-H ) :   1.0007 B( 19-C , 20-C ) :   1.5521 B( 19-C , 22-C ) :   1.0414
B( 22-C , 23-H ) :   0.9326 B( 22-C , 24-H ) :   0.9325 B( 22-C , 25-C ) :   1.0503
B( 25-C , 26-H ) :   0.9526 B( 25-C , 27-H ) :   0.9541 B( 25-C , 28-C ) :   1.0902
B( 28-C , 29-H ) :   0.9708 B( 28-C , 30-H ) :   0.9683 B( 28-C , 31-H ) :   0.9724

Dispersion correction           -0.013874421
FINAL SINGLE POINT ENERGY     -1339.872447941256

DIPOLE MOMENT
-------------
                                X             Y             Z
Electronic contribution:     13.52387      22.19442     -12.65612
Nuclear contribution   :    -13.75308     -22.56126      13.05521
                        -----------------------------------------
Total Dipole Moment    :     -0.22921      -0.36683       0.39910
                        -----------------------------------------
Magnitude (a.u.)       :      0.58854
Magnitude (Debye)      :      1.49596

Rotational constants in cm-1:     0.019969     0.007870     0.006304
Rotational constants in MHz :   598.669984   235.923632   188.975199

                             ****ORCA TERMINATED NORMALLY****
TOTAL RUN TIME: 0 days 0 hours 0 minutes 21 seconds 594 msec
