                         Program Version 4.2.1 -  RELEASE  -
|  1> ! wB97X-D3 SP def2-SVP
|  2> %pal
|  3> nprocs 24
|  4> end
|  5>
|  6> * xyz 0 1
|  7> S 	 -43.8821 	 -0.286572 	 -20.1438
|  8> C 	 -43.4804 	 0.321557 	 -18.5448
|  9> C 	 -42.6866 	 -0.595521 	 -17.838
| 10> C 	 -42.2751 	 -1.65211 	 -18.6914
| 11> C 	 -42.8417 	 -1.64376 	 -19.9782
| 12> H 	 -41.6578 	 -2.46124 	 -18.3599
| 13> C 	 -42.2651 	 -0.429536 	 -16.4066
| 14> H 	 -42.1306 	 0.634424 	 -16.1701
| 15> H 	 -41.277 	 -0.914625 	 -16.349
| 16> C 	 -43.2859 	 -1.17213 	 -15.452
| 17> H 	 -43.1767 	 -0.581141 	 -14.5976
| 18> H 	 -44.2898 	 -1.06082 	 -15.8087
| 19> C 	 -43.1074 	 -2.74637 	 -15.2212
| 20> H 	 -43.159 	 -3.20571 	 -16.1512
| 21> H 	 -42.1433 	 -2.90639 	 -14.7947
| 22> H 	 -43.8458 	 -3.14692 	 -14.5179
| 23> S 	 -44.1324 	 -3.71472 	 -21.2587
| 24> C 	 -43.3494 	 -4.38425 	 -22.633
| 25> C 	 -41.9999 	 -4.12779 	 -22.6575
| 26> C 	 -41.6654 	 -3.12799 	 -21.7092
| 27> C 	 -42.7342 	 -2.72673 	 -20.9553
| 28> H 	 -41.3494 	 -4.59145 	 -23.3613
| 29> C 	 -40.2527 	 -2.57622 	 -21.6241
| 30> H 	 -39.6494 	 -3.47835 	 -21.6539
| 31> H 	 -40.2106 	 -2.1809 	 -20.6521
| 32> C 	 -39.7454 	 -1.58129 	 -22.688
| 33> H 	 -39.6281 	 -1.98502 	 -23.6737
| 34> H 	 -38.7412 	 -1.22075 	 -22.4726
| 35> C 	 -40.7428 	 -0.316464 	 -22.6749
| 36> H 	 -41.8086 	 -0.511656 	 -22.8321
| 37> H 	 -40.2736 	 0.516433 	 -23.2704
| 38> H 	 -40.7225 	 0.0445533 	 -21.6748
| 39> H 	 -43.8899 	 1.23125 	 -18.0836
| 40> H 	 -43.8457 	 -5.05247 	 -23.3061
| 41> *
| 42>
| 43>                          ****END OF INPUT****

CARTESIAN COORDINATES (ANGSTROEM)
---------------------------------
  S    -43.882100   -0.286572  -20.143800
  C    -43.480400    0.321557  -18.544800
  C    -42.686600   -0.595521  -17.838000
  C    -42.275100   -1.652110  -18.691400
  C    -42.841700   -1.643760  -19.978200
  H    -41.657800   -2.461240  -18.359900
  C    -42.265100   -0.429536  -16.406600
  H    -42.130600    0.634424  -16.170100
  H    -41.277000   -0.914625  -16.349000
  C    -43.285900   -1.172130  -15.452000
  H    -43.176700   -0.581141  -14.597600
  H    -44.289800   -1.060820  -15.808700
  C    -43.107400   -2.746370  -15.221200
  H    -43.159000   -3.205710  -16.151200
  H    -42.143300   -2.906390  -14.794700
  H    -43.845800   -3.146920  -14.517900
  S    -44.132400   -3.714720  -21.258700
  C    -43.349400   -4.384250  -22.633000
  C    -41.999900   -4.127790  -22.657500
  C    -41.665400   -3.127990  -21.709200
  C    -42.734200   -2.726730  -20.955300
  H    -41.349400   -4.591450  -23.361300
  C    -40.252700   -2.576220  -21.624100
  H    -39.649400   -3.478350  -21.653900
  H    -40.210600   -2.180900  -20.652100
  C    -39.745400   -1.581290  -22.688000
  H    -39.628100   -1.985020  -23.673700
  H    -38.741200   -1.220750  -22.472600
  C    -40.742800   -0.316464  -22.674900
  H    -41.808600   -0.511656  -22.832100
  H    -40.273600    0.516433  -23.270400
  H    -40.722500    0.044553  -21.674800
  H    -43.889900    1.231250  -18.083600
  H    -43.845700   -5.052470  -23.306100

 Total Charge           Charge          ....    0
 Multiplicity           Mult            ....    1
 Number of Electrons    NEL             ....  134
 Basis Dimension        Dim             ....  322

ORBITAL ENERGIES
----------------

  NO   OCC          E(Eh)            E(eV)
   0   2.0000     -88.969188     -2420.9747
   1   2.0000     -88.962681     -2420.7976
   2   2.0000     -10.327345      -281.0214
   3   2.0000     -10.319162      -280.7987
   4   2.0000     -10.315542      -280.7002
   5   2.0000     -10.311588      -280.5926
   6   2.0000     -10.299804      -280.2719
   7   2.0000     -10.297792      -280.2172
   8   2.0000     -10.296779      -280.1896
   9   2.0000     -10.292216      -280.0654
  10   2.0000     -10.287632      -279.9407
  11   2.0000     -10.287431      -279.9352
  12   2.0000     -10.285606      -279.8856
  13   2.0000     -10.283319      -279.8233
  14   2.0000     -10.277024      -279.6520
  15   2.0000     -10.272386      -279.5258
  16   2.0000      -8.083714      -219.9690
  17   2.0000      -8.078589      -219.8296
  18   2.0000      -6.042118      -164.4144
  19   2.0000      -6.038048      -164.3036
  20   2.0000      -6.036901      -164.2724
  21   2.0000      -6.034804      -164.2154
  22   2.0000      -6.033116      -164.1694
  23   2.0000      -6.029301      -164.0656
  24   2.0000      -1.010364       -27.4934
  25   2.0000      -0.987293       -26.8656
  26   2.0000      -0.907699       -24.6997
  27   2.0000      -0.902857       -24.5680
  28   2.0000      -0.864678       -23.5291
  29   2.0000      -0.845537       -23.0082
  30   2.0000      -0.842483       -22.9251
  31   2.0000      -0.810738       -22.0613
  32   2.0000      -0.784202       -21.3392
  33   2.0000      -0.770381       -20.9631
  34   2.0000      -0.708778       -19.2868
  35   2.0000      -0.706548       -19.2261
  36   2.0000      -0.695613       -18.9286
  37   2.0000      -0.662197       -18.0193
  38   2.0000      -0.639358       -17.3978
  39   2.0000      -0.616779       -16.7834
  40   2.0000      -0.591849       -16.1050
  41   2.0000      -0.572743       -15.5851
  42   2.0000      -0.548450       -14.9241
  43   2.0000      -0.545307       -14.8385
  44   2.0000      -0.543160       -14.7801
  45   2.0000      -0.532000       -14.4764
  46   2.0000      -0.513818       -13.9817
  47   2.0000      -0.509329       -13.8595
  48   2.0000      -0.500157       -13.6100
  49   2.0000      -0.494799       -13.4642
  50   2.0000      -0.494131       -13.4460
  51   2.0000      -0.476287       -12.9604
  52   2.0000      -0.471712       -12.8359
  53   2.0000      -0.464685       -12.6447
  54   2.0000      -0.456678       -12.4268
  55   2.0000      -0.450462       -12.2577
  56   2.0000      -0.446443       -12.1483
  57   2.0000      -0.441982       -12.0269
  58   2.0000      -0.435692       -11.8558
  59   2.0000      -0.423769       -11.5313
  60   2.0000      -0.417750       -11.3676
  61   2.0000      -0.416952       -11.3459
  62   2.0000      -0.410296       -11.1647
  63   2.0000      -0.336091        -9.1455
  64   2.0000      -0.330288        -8.9876
  65   2.0000      -0.325430        -8.8554
  66   2.0000      -0.298437        -8.1209
  67   0.0000       0.036202         0.9851
  68   0.0000       0.063299         1.7225
  69   0.0000       0.112506         3.0615
  70   0.0000       0.123634         3.3642
  71   0.0000       0.128095         3.4856

MULLIKEN ATOMIC CHARGES
-----------------------
   0 S :    0.131421
   1 C :   -0.135354
   2 C :   -0.102704
   3 C :    0.054163
   4 C :   -0.185412
   5 H :    0.003641
   6 C :    0.040938
   7 H :    0.037133
   8 H :    0.028006
   9 C :   -0.054943
  10 H :    0.017060
  11 H :    0.029230
  12 C :   -0.025289
  13 H :    0.028280
  14 H :    0.022209
  15 H :    0.045447
  16 S :    0.120880
  17 C :   -0.086962
  18 C :   -0.017529
  19 C :   -0.054972
  20 C :   -0.187948
  21 H :    0.007522
  22 C :    0.115600
  23 H :    0.020410
  24 H :    0.000836
  25 C :   -0.031664
  26 H :    0.020853
  27 H :    0.025731
  28 C :   -0.074504
  29 H :    0.050820
  30 H :    0.038404
  31 H :    0.019072
  32 H :    0.052961
  33 H :    0.046665
Sum of atomic charges:   -0.0000000

LOEWDIN ATOMIC CHARGES
----------------------
   0 S :    0.431026
   1 C :   -0.207482
   2 C :   -0.064032
   3 C :   -0.064180
   4 C :   -0.213549
   5 H :    0.024763
   6 C :   -0.029958
   7 H :    0.034414
   8 H :    0.032743
   9 C :   -0.027470
  10 H :    0.014329
  11 H :    0.021585
  12 C :   -0.051953
  13 H :    0.017199
  14 H :    0.019570
  15 H :    0.032679
  16 S :    0.418811
  17 C :   -0.181171
  18 C :   -0.067110
  19 C :   -0.052270
  20 C :   -0.213575
  21 H :    0.028391
  22 C :   -0.026606
  23 H :    0.031669
  24 H :    0.021856
  25 C :   -0.029770
  26 H :    0.016276
  27 H :    0.025746
  28 C :   -0.070867
  29 H :    0.026542
  30 H :    0.030038
  31 H :    0.019001
  32 H :    0.031306
  33 H :    0.022049

  Mayer bond orders larger than 0.100000
B(  0-S ,  1-C ) :   1.1545 B(  0-S ,  4-C ) :   1.1745 B(  1-C ,  2-C ) :   1.5686
B(  1-C ,  4-C ) :   0.1070 B(  1-C , 32-H ) :   0.9666 B(  2-C ,  3-C ) :   1.2888
B(  2-C ,  6-C ) :   1.0240 B(  3-C ,  4-C ) :   1.5317 B(  3-C ,  5-H ) :   0.9885
B(  4-C , 20-C ) :   1.0225 B(  6-C ,  7-H ) :   0.9482 B(  6-C ,  8-H ) :   0.9436
B(  6-C ,  9-C ) :   1.0389 B(  9-C , 10-H ) :   0.9613 B(  9-C , 11-H ) :   0.9642
B(  9-C , 12-C ) :   1.0668 B( 12-C , 13-H ) :   0.9769 B( 12-C , 14-H ) :   0.9789
B( 12-C , 15-H ) :   0.9761 B( 16-S , 17-C ) :   1.1659 B( 16-S , 20-C ) :   1.1459
B( 17-C , 18-C ) :   1.6005 B( 17-C , 33-H ) :   0.9699 B( 18-C , 19-C ) :   1.2322
B( 18-C , 21-H ) :   1.0010 B( 19-C , 20-C ) :   1.6124 B( 19-C , 22-C ) :   1.0320
B( 22-C , 23-H ) :   0.9270 B( 22-C , 24-H ) :   0.9269 B( 22-C , 25-C ) :   1.0774
B( 25-C , 26-H ) :   0.9584 B( 25-C , 27-H ) :   0.9550 B( 25-C , 28-C ) :   1.0594
B( 28-C , 29-H ) :   0.9771 B( 28-C , 30-H ) :   0.9756 B( 28-C , 31-H ) :   0.9748

Dispersion correction           -0.015695047
FINAL SINGLE POINT ENERGY     -1339.873423617234

DIPOLE MOMENT
-------------
                                X             Y             Z
Electronic contribution:    -13.98828      -3.54577     -11.02029
Nuclear contribution   :     14.38559       3.46542      11.38120
                        -----------------------------------------
Total Dipole Moment    :      0.39731      -0.08036       0.36090
                        -----------------------------------------
Magnitude (a.u.)       :      0.54274
Magnitude (Debye)      :      1.37952

Rotational constants in cm-1:     0.020181     0.008677     0.007772
Rotational constants in MHz :   605.004497   260.135195   233.009650

                             ****ORCA TERMINATED NORMALLY****
TOTAL RUN TIME: 0 days 0 hours 0 minutes 22 seconds 328 msec
