                         Program Version 4.2.1 -  RELEASE  -
|  1> ! wB97X-D3 SP def2-SVP
|  2> %pal
|  3> nprocs 24
|  4> end
|  5>
|  6> * xyz 0 1
|  7> S 	 -97.6279 	 44.6603 	 -84.544
|  8> C 	 -97.3132 	 43.0461 	 -84.055
|  9> C 	 -97.9406 	 42.1124 	 -84.8438
| 10> C 	 -98.6053 	 42.7319 	 -85.9692
| 11> C 	 -98.4275 	 44.1229 	 -86.0301
| 12> H 	 -99.3818 	 42.3221 	 -86.6161
| 13> C 	 -97.9712 	 40.6423 	 -84.5
| 14> H 	 -98.9027 	 40.2508 	 -84.9547
| 15> H 	 -98.1371 	 40.4378 	 -83.4302
| 16> C 	 -96.6716 	 39.9031 	 -84.9206
| 17> H 	 -96.3669 	 40.3118 	 -85.8592
| 18> H 	 -95.941 	 40.2532 	 -84.2102
| 19> C 	 -96.7622 	 38.3873 	 -84.9316
| 20> H 	 -97.2324 	 38.0677 	 -85.8208
| 21> H 	 -95.7537 	 37.9509 	 -84.9734
| 22> H 	 -97.2661 	 37.9664 	 -84.1652
| 23> S 	 -100.377 	 46.0425 	 -86.4316
| 24> C 	 -100.63 	 46.7217 	 -87.9873
| 25> C 	 -99.7323 	 46.24 	 -88.9211
| 26> C 	 -98.8388 	 45.2614 	 -88.3751
| 27> C 	 -99.0287 	 45.0078 	 -87.0269
| 28> H 	 -99.788 	 46.6212 	 -89.9243
| 29> C 	 -97.7181 	 44.7021 	 -89.2615
| 30> H 	 -96.8961 	 44.4508 	 -88.6266
| 31> H 	 -97.3958 	 45.379 	 -90.0674
| 32> C 	 -98.1561 	 43.4392 	 -90.0279
| 33> H 	 -98.5412 	 42.8312 	 -89.1806
| 34> H 	 -97.2862 	 42.8174 	 -90.3633
| 35> C 	 -99.0538 	 43.587 	 -91.1814
| 36> H 	 -99.3238 	 42.5823 	 -91.5992
| 37> H 	 -98.6271 	 44.315 	 -91.9715
| 38> H 	 -99.9454 	 44.1789 	 -90.8593
| 39> H 	 -96.8503 	 42.7932 	 -83.0889
| 40> H 	 -101.446 	 47.2986 	 -88.3679
| 41> *
| 42>
| 43>                          ****END OF INPUT****

CARTESIAN COORDINATES (ANGSTROEM)
---------------------------------
  S    -97.627900   44.660300  -84.544000
  C    -97.313200   43.046100  -84.055000
  C    -97.940600   42.112400  -84.843800
  C    -98.605300   42.731900  -85.969200
  C    -98.427500   44.122900  -86.030100
  H    -99.381800   42.322100  -86.616100
  C    -97.971200   40.642300  -84.500000
  H    -98.902700   40.250800  -84.954700
  H    -98.137100   40.437800  -83.430200
  C    -96.671600   39.903100  -84.920600
  H    -96.366900   40.311800  -85.859200
  H    -95.941000   40.253200  -84.210200
  C    -96.762200   38.387300  -84.931600
  H    -97.232400   38.067700  -85.820800
  H    -95.753700   37.950900  -84.973400
  H    -97.266100   37.966400  -84.165200
  S    -100.377000   46.042500  -86.431600
  C    -100.630000   46.721700  -87.987300
  C    -99.732300   46.240000  -88.921100
  C    -98.838800   45.261400  -88.375100
  C    -99.028700   45.007800  -87.026900
  H    -99.788000   46.621200  -89.924300
  C    -97.718100   44.702100  -89.261500
  H    -96.896100   44.450800  -88.626600
  H    -97.395800   45.379000  -90.067400
  C    -98.156100   43.439200  -90.027900
  H    -98.541200   42.831200  -89.180600
  H    -97.286200   42.817400  -90.363300
  C    -99.053800   43.587000  -91.181400
  H    -99.323800   42.582300  -91.599200
  H    -98.627100   44.315000  -91.971500
  H    -99.945400   44.178900  -90.859300
  H    -96.850300   42.793200  -83.088900
  H    -101.446000   47.298600  -88.367900

 Total Charge           Charge          ....    0
 Multiplicity           Mult            ....    1
 Number of Electrons    NEL             ....  134
 Basis Dimension        Dim             ....  322

ORBITAL ENERGIES
----------------

  NO   OCC          E(Eh)            E(eV)
   0   2.0000     -88.968206     -2420.9480
   1   2.0000     -88.965300     -2420.8689
   2   2.0000     -10.334376      -281.2127
   3   2.0000     -10.332241      -281.1546
   4   2.0000     -10.314532      -280.6727
   5   2.0000     -10.314476      -280.6711
   6   2.0000     -10.308577      -280.5106
   7   2.0000     -10.302907      -280.3563
   8   2.0000     -10.301479      -280.3175
   9   2.0000     -10.293998      -280.1139
  10   2.0000     -10.291639      -280.0497
  11   2.0000     -10.289389      -279.9885
  12   2.0000     -10.285894      -279.8934
  13   2.0000     -10.282549      -279.8024
  14   2.0000     -10.282206      -279.7930
  15   2.0000     -10.267409      -279.3904
  16   2.0000      -8.083123      -219.9530
  17   2.0000      -8.079938      -219.8663
  18   2.0000      -6.041586      -164.3999
  19   2.0000      -6.038435      -164.3142
  20   2.0000      -6.037578      -164.2909
  21   2.0000      -6.034391      -164.2041
  22   2.0000      -6.033939      -164.1918
  23   2.0000      -6.030768      -164.1055
  24   2.0000      -1.005003       -27.3475
  25   2.0000      -0.985485       -26.8164
  26   2.0000      -0.911650       -24.8073
  27   2.0000      -0.911035       -24.7905
  28   2.0000      -0.871800       -23.7229
  29   2.0000      -0.851913       -23.1817
  30   2.0000      -0.847246       -23.0547
  31   2.0000      -0.816597       -22.2207
  32   2.0000      -0.784637       -21.3511
  33   2.0000      -0.773183       -21.0394
  34   2.0000      -0.707539       -19.2531
  35   2.0000      -0.705336       -19.1932
  36   2.0000      -0.681223       -18.5370
  37   2.0000      -0.661324       -17.9955
  38   2.0000      -0.646116       -17.5817
  39   2.0000      -0.615531       -16.7495
  40   2.0000      -0.591981       -16.1086
  41   2.0000      -0.571089       -15.5401
  42   2.0000      -0.561171       -15.2702
  43   2.0000      -0.555437       -15.1142
  44   2.0000      -0.544450       -14.8152
  45   2.0000      -0.527003       -14.3405
  46   2.0000      -0.520316       -14.1585
  47   2.0000      -0.512139       -13.9360
  48   2.0000      -0.504310       -13.7230
  49   2.0000      -0.502483       -13.6733
  50   2.0000      -0.492358       -13.3977
  51   2.0000      -0.474884       -12.9223
  52   2.0000      -0.473458       -12.8834
  53   2.0000      -0.468831       -12.7575
  54   2.0000      -0.464247       -12.6328
  55   2.0000      -0.451143       -12.2762
  56   2.0000      -0.448705       -12.2099
  57   2.0000      -0.437569       -11.9069
  58   2.0000      -0.428454       -11.6588
  59   2.0000      -0.426366       -11.6020
  60   2.0000      -0.418137       -11.3781
  61   2.0000      -0.416117       -11.3231
  62   2.0000      -0.396440       -10.7877
  63   2.0000      -0.341033        -9.2800
  64   2.0000      -0.332831        -9.0568
  65   2.0000      -0.327161        -8.9025
  66   2.0000      -0.300682        -8.1820
  67   0.0000       0.032708         0.8900
  68   0.0000       0.055853         1.5198
  69   0.0000       0.111157         3.0247
  70   0.0000       0.121266         3.2998
  71   0.0000       0.129518         3.5244

MULLIKEN ATOMIC CHARGES
-----------------------
   0 S :    0.123012
   1 C :   -0.119629
   2 C :   -0.093620
   3 C :    0.037361
   4 C :   -0.180670
   5 H :    0.037142
   6 C :    0.038030
   7 H :    0.019921
   8 H :    0.027970
   9 C :   -0.059478
  10 H :    0.023875
  11 H :    0.018353
  12 C :    0.023849
  13 H :    0.017723
  14 H :    0.030389
  15 H :    0.005290
  16 S :    0.106074
  17 C :   -0.066188
  18 C :   -0.061594
  19 C :   -0.015178
  20 C :   -0.186137
  21 H :    0.017785
  22 C :    0.090679
  23 H :    0.027342
  24 H :    0.023216
  25 C :   -0.098906
  26 H :    0.016145
  27 H :    0.029351
  28 C :   -0.058843
  29 H :    0.054420
  30 H :    0.032713
  31 H :    0.029938
  32 H :    0.059703
  33 H :    0.049964
Sum of atomic charges:    0.0000000

LOEWDIN ATOMIC CHARGES
----------------------
   0 S :    0.415180
   1 C :   -0.204639
   2 C :   -0.068609
   3 C :   -0.057380
   4 C :   -0.202326
   5 H :    0.036472
   6 C :   -0.035393
   7 H :    0.028712
   8 H :    0.029583
   9 C :   -0.032105
  10 H :    0.021408
  11 H :    0.020898
  12 C :   -0.052385
  13 H :    0.023187
  14 H :    0.033160
  15 H :    0.009680
  16 S :    0.400886
  17 C :   -0.190297
  18 C :   -0.077739
  19 C :   -0.047239
  20 C :   -0.189493
  21 H :    0.029624
  22 C :   -0.023442
  23 H :    0.031097
  24 H :    0.029017
  25 C :   -0.057528
  26 H :    0.023098
  27 H :    0.025579
  28 C :   -0.078528
  29 H :    0.036485
  30 H :    0.031583
  31 H :    0.026310
  32 H :    0.034300
  33 H :    0.030844

  Mayer bond orders larger than 0.100000
B(  0-S ,  1-C ) :   1.1550 B(  0-S ,  4-C ) :   1.1506 B(  1-C ,  2-C ) :   1.6031
B(  1-C , 32-H ) :   0.9620 B(  2-C ,  3-C ) :   1.2457 B(  2-C ,  6-C ) :   1.0277
B(  3-C ,  4-C ) :   1.5734 B(  3-C ,  5-H ) :   0.9827 B(  4-C , 20-C ) :   1.0364
B(  6-C ,  7-H ) :   0.9452 B(  6-C ,  8-H ) :   0.9422 B(  6-C ,  9-C ) :   1.0468
B(  9-C , 10-H ) :   0.9603 B(  9-C , 11-H ) :   0.9561 B(  9-C , 12-C ) :   1.0846
B( 12-C , 13-H ) :   0.9731 B( 12-C , 14-H ) :   0.9713 B( 12-C , 15-H ) :   0.9729
B( 16-S , 17-C ) :   1.1642 B( 16-S , 20-C ) :   1.1254 B( 17-C , 18-C ) :   1.6233
B( 17-C , 33-H ) :   0.9618 B( 18-C , 19-C ) :   1.2240 B( 18-C , 21-H ) :   0.9896
B( 19-C , 20-C ) :   1.6230 B( 19-C , 22-C ) :   1.0417 B( 22-C , 23-H ) :   0.9277
B( 22-C , 24-H ) :   0.9457 B( 22-C , 25-C ) :   1.0675 B( 25-C , 26-H ) :   0.9467
B( 25-C , 27-H ) :   0.9519 B( 25-C , 28-C ) :   1.0897 B( 28-C , 29-H ) :   0.9677
B( 28-C , 30-H ) :   0.9661 B( 28-C , 31-H ) :   0.9673

Dispersion correction           -0.014124941
FINAL SINGLE POINT ENERGY     -1339.873502736951

DIPOLE MOMENT
-------------
                                X             Y             Z
Electronic contribution:     -7.37085      24.36976      13.38439
Nuclear contribution   :      7.35072     -24.88608     -13.61051
                        -----------------------------------------
Total Dipole Moment    :     -0.02013      -0.51632      -0.22612
                        -----------------------------------------
Magnitude (a.u.)       :      0.56402
Magnitude (Debye)      :      1.43363

Rotational constants in cm-1:     0.019112     0.008115     0.006254
Rotational constants in MHz :   572.973748   243.285719   187.495822

                             ****ORCA TERMINATED NORMALLY****
TOTAL RUN TIME: 0 days 0 hours 0 minutes 21 seconds 218 msec
