                         Program Version 4.2.1 -  RELEASE  -
|  1> ! wB97X-D3 SP def2-SVP
|  2> %pal
|  3> nprocs 24
|  4> end
|  5>
|  6> * xyz 0 1
|  7> S 	 -119.155 	 61.5211 	 -38.5749
|  8> C 	 -118.99 	 61.9837 	 -40.1906
|  9> C 	 -117.966 	 61.226 	 -40.7842
| 10> C 	 -117.37 	 60.298 	 -39.89
| 11> C 	 -117.878 	 60.3228 	 -38.5957
| 12> H 	 -116.638 	 59.5537 	 -40.2822
| 13> C 	 -117.53 	 61.3669 	 -42.2484
| 14> H 	 -116.466 	 61.6686 	 -42.3984
| 15> H 	 -118.092 	 62.2032 	 -42.7025
| 16> C 	 -117.832 	 60.2276 	 -43.1906
| 17> H 	 -116.938 	 60.2565 	 -43.8762
| 18> H 	 -117.702 	 59.3915 	 -42.492
| 19> C 	 -119.077 	 60.2856 	 -43.9084
| 20> H 	 -119.236 	 61.2561 	 -44.4103
| 21> H 	 -119.135 	 59.3856 	 -44.5404
| 22> H 	 -119.984 	 60.1585 	 -43.2898
| 23> S 	 -116.044 	 59.9649 	 -36.6373
| 24> C 	 -116.136 	 58.5685 	 -35.5826
| 25> C 	 -117.4 	 57.9798 	 -35.697
| 26> C 	 -118.158 	 58.4672 	 -36.7856
| 27> C 	 -117.536 	 59.5045 	 -37.4536
| 28> H 	 -117.744 	 57.2301 	 -34.9959
| 29> C 	 -119.549 	 58.0919 	 -37.1339
| 30> H 	 -119.959 	 58.5239 	 -38.1025
| 31> H 	 -120.143 	 58.6032 	 -36.3991
| 32> C 	 -119.742 	 56.5851 	 -37.1815
| 33> H 	 -119.407 	 56.2546 	 -36.237
| 34> H 	 -119.008 	 56.1081 	 -37.8481
| 35> C 	 -121.102 	 56.0355 	 -37.5607
| 36> H 	 -121.419 	 56.3435 	 -38.5648
| 37> H 	 -121.912 	 56.12 	 -36.835
| 38> H 	 -120.811 	 55.0406 	 -37.693
| 39> H 	 -119.45 	 62.7383 	 -40.8053
| 40> H 	 -115.415 	 58.2742 	 -34.7681
| 41> *
| 42>
| 43>                          ****END OF INPUT****

CARTESIAN COORDINATES (ANGSTROEM)
---------------------------------
  S    -119.155000   61.521100  -38.574900
  C    -118.990000   61.983700  -40.190600
  C    -117.966000   61.226000  -40.784200
  C    -117.370000   60.298000  -39.890000
  C    -117.878000   60.322800  -38.595700
  H    -116.638000   59.553700  -40.282200
  C    -117.530000   61.366900  -42.248400
  H    -116.466000   61.668600  -42.398400
  H    -118.092000   62.203200  -42.702500
  C    -117.832000   60.227600  -43.190600
  H    -116.938000   60.256500  -43.876200
  H    -117.702000   59.391500  -42.492000
  C    -119.077000   60.285600  -43.908400
  H    -119.236000   61.256100  -44.410300
  H    -119.135000   59.385600  -44.540400
  H    -119.984000   60.158500  -43.289800
  S    -116.044000   59.964900  -36.637300
  C    -116.136000   58.568500  -35.582600
  C    -117.400000   57.979800  -35.697000
  C    -118.158000   58.467200  -36.785600
  C    -117.536000   59.504500  -37.453600
  H    -117.744000   57.230100  -34.995900
  C    -119.549000   58.091900  -37.133900
  H    -119.959000   58.523900  -38.102500
  H    -120.143000   58.603200  -36.399100
  C    -119.742000   56.585100  -37.181500
  H    -119.407000   56.254600  -36.237000
  H    -119.008000   56.108100  -37.848100
  C    -121.102000   56.035500  -37.560700
  H    -121.419000   56.343500  -38.564800
  H    -121.912000   56.120000  -36.835000
  H    -120.811000   55.040600  -37.693000
  H    -119.450000   62.738300  -40.805300
  H    -115.415000   58.274200  -34.768100

 Total Charge           Charge          ....    0
 Multiplicity           Mult            ....    1
 Number of Electrons    NEL             ....  134
 Basis Dimension        Dim             ....  322

ORBITAL ENERGIES
----------------

  NO   OCC          E(Eh)            E(eV)
   0   2.0000     -88.968059     -2420.9440
   1   2.0000     -88.964259     -2420.8406
   2   2.0000     -10.329621      -281.0833
   3   2.0000     -10.324852      -280.9535
   4   2.0000     -10.322284      -280.8836
   5   2.0000     -10.313134      -280.6346
   6   2.0000     -10.300344      -280.2866
   7   2.0000     -10.298182      -280.2278
   8   2.0000     -10.297241      -280.2022
   9   2.0000     -10.295847      -280.1642
  10   2.0000     -10.288889      -279.9749
  11   2.0000     -10.285511      -279.8830
  12   2.0000     -10.280405      -279.7440
  13   2.0000     -10.279626      -279.7228
  14   2.0000     -10.277299      -279.6595
  15   2.0000     -10.272551      -279.5303
  16   2.0000      -8.083177      -219.9544
  17   2.0000      -8.078738      -219.8336
  18   2.0000      -6.041593      -164.4001
  19   2.0000      -6.037284      -164.2829
  20   2.0000      -6.037209      -164.2808
  21   2.0000      -6.034341      -164.2028
  22   2.0000      -6.033241      -164.1728
  23   2.0000      -6.029578      -164.0732
  24   2.0000      -1.009302       -27.4645
  25   2.0000      -0.987775       -26.8787
  26   2.0000      -0.920927       -25.0597
  27   2.0000      -0.913853       -24.8672
  28   2.0000      -0.872336       -23.7375
  29   2.0000      -0.855385       -23.2762
  30   2.0000      -0.849639       -23.1198
  31   2.0000      -0.814366       -22.1600
  32   2.0000      -0.785030       -21.3618
  33   2.0000      -0.773233       -21.0407
  34   2.0000      -0.708307       -19.2740
  35   2.0000      -0.700804       -19.0698
  36   2.0000      -0.683728       -18.6052
  37   2.0000      -0.658205       -17.9107
  38   2.0000      -0.635049       -17.2806
  39   2.0000      -0.623538       -16.9673
  40   2.0000      -0.598650       -16.2901
  41   2.0000      -0.576358       -15.6835
  42   2.0000      -0.562879       -15.3167
  43   2.0000      -0.553438       -15.0598
  44   2.0000      -0.544250       -14.8098
  45   2.0000      -0.534643       -14.5484
  46   2.0000      -0.519407       -14.1338
  47   2.0000      -0.517337       -14.0775
  48   2.0000      -0.511331       -13.9140
  49   2.0000      -0.499761       -13.5992
  50   2.0000      -0.485042       -13.1987
  51   2.0000      -0.479551       -13.0492
  52   2.0000      -0.475379       -12.9357
  53   2.0000      -0.467628       -12.7248
  54   2.0000      -0.462153       -12.5758
  55   2.0000      -0.448873       -12.2145
  56   2.0000      -0.438201       -11.9241
  57   2.0000      -0.435805       -11.8589
  58   2.0000      -0.432480       -11.7684
  59   2.0000      -0.424924       -11.5628
  60   2.0000      -0.412990       -11.2380
  61   2.0000      -0.403010       -10.9665
  62   2.0000      -0.401755       -10.9323
  63   2.0000      -0.337858        -9.1936
  64   2.0000      -0.330254        -8.9867
  65   2.0000      -0.321108        -8.7378
  66   2.0000      -0.305235        -8.3059
  67   0.0000       0.036873         1.0034
  68   0.0000       0.058465         1.5909
  69   0.0000       0.111077         3.0226
  70   0.0000       0.118629         3.2280
  71   0.0000       0.137975         3.7545

MULLIKEN ATOMIC CHARGES
-----------------------
   0 S :    0.135027
   1 C :   -0.082519
   2 C :   -0.138938
   3 C :    0.050349
   4 C :   -0.182223
   5 H :    0.032509
   6 C :    0.032934
   7 H :    0.042038
   8 H :   -0.008644
   9 C :   -0.065770
  10 H :    0.028458
  11 H :    0.017770
  12 C :   -0.029882
  13 H :    0.034974
  14 H :    0.038652
  15 H :    0.026499
  16 S :    0.116990
  17 C :   -0.109675
  18 C :   -0.057904
  19 C :    0.002262
  20 C :   -0.184542
  21 H :    0.025554
  22 C :    0.086907
  23 H :    0.030484
  24 H :    0.032581
  25 C :   -0.118650
  26 H :    0.001237
  27 H :    0.027276
  28 C :    0.014071
  29 H :    0.026722
  30 H :    0.040475
  31 H :    0.014916
  32 H :    0.040733
  33 H :    0.079328
Sum of atomic charges:    0.0000000

LOEWDIN ATOMIC CHARGES
----------------------
   0 S :    0.443865
   1 C :   -0.217620
   2 C :   -0.075848
   3 C :   -0.060923
   4 C :   -0.211246
   5 H :    0.039269
   6 C :   -0.039893
   7 H :    0.035816
   8 H :    0.022414
   9 C :   -0.055251
  10 H :    0.031002
  11 H :    0.024991
  12 C :   -0.072050
  13 H :    0.028600
  14 H :    0.034419
  15 H :    0.029379
  16 S :    0.410340
  17 C :   -0.191819
  18 C :   -0.077245
  19 C :   -0.051556
  20 C :   -0.202924
  21 H :    0.030670
  22 C :   -0.037685
  23 H :    0.033453
  24 H :    0.033073
  25 C :   -0.041662
  26 H :    0.013187
  27 H :    0.029963
  28 C :   -0.060429
  29 H :    0.027646
  30 H :    0.025908
  31 H :    0.025056
  32 H :    0.033212
  33 H :    0.043891

  Mayer bond orders larger than 0.100000
B(  0-S ,  1-C ) :   1.1718 B(  0-S ,  4-C ) :   1.1580 B(  1-C ,  2-C ) :   1.5679
B(  1-C ,  4-C ) :   0.1048 B(  1-C , 32-H ) :   0.9645 B(  2-C ,  3-C ) :   1.2940
B(  2-C ,  6-C ) :   1.0336 B(  3-C ,  4-C ) :   1.5453 B(  3-C ,  5-H ) :   0.9835
B(  4-C , 20-C ) :   1.0147 B(  6-C ,  7-H ) :   0.9471 B(  6-C ,  8-H ) :   0.9380
B(  6-C ,  9-C ) :   1.0526 B(  9-C , 10-H ) :   0.9498 B(  9-C , 11-H ) :   0.9514
B(  9-C , 12-C ) :   1.1106 B( 12-C , 13-H ) :   0.9655 B( 12-C , 14-H ) :   0.9659
B( 12-C , 15-H ) :   0.9665 B( 16-S , 17-C ) :   1.1698 B( 16-S , 20-C ) :   1.1475
B( 17-C , 18-C ) :   1.5846 B( 17-C , 20-C ) :   0.1102 B( 17-C , 33-H ) :   0.9605
B( 18-C , 19-C ) :   1.2486 B( 18-C , 21-H ) :   0.9857 B( 19-C , 20-C ) :   1.5873
B( 19-C , 22-C ) :   1.0434 B( 22-C , 23-H ) :   0.9320 B( 22-C , 24-H ) :   0.9292
B( 22-C , 25-C ) :   1.0476 B( 25-C , 26-H ) :   0.9521 B( 25-C , 27-H ) :   0.9609
B( 25-C , 28-C ) :   1.0860 B( 28-C , 29-H ) :   0.9682 B( 28-C , 30-H ) :   0.9739
B( 28-C , 31-H ) :   0.9707

Dispersion correction           -0.013804396
FINAL SINGLE POINT ENERGY     -1339.862656384786

DIPOLE MOMENT
-------------
                                X             Y             Z
Electronic contribution:     11.56850      13.74300      18.10154
Nuclear contribution   :    -11.76155     -14.11723     -18.31906
                        -----------------------------------------
Total Dipole Moment    :     -0.19305      -0.37423      -0.21751
                        -----------------------------------------
Magnitude (a.u.)       :      0.47395
Magnitude (Debye)      :      1.20468

Rotational constants in cm-1:     0.017953     0.008210     0.006733
Rotational constants in MHz :   538.208064   246.137219   201.852439

                             ****ORCA TERMINATED NORMALLY****
TOTAL RUN TIME: 0 days 0 hours 0 minutes 21 seconds 262 msec
