                         Program Version 4.2.1 -  RELEASE  -
|  1> ! wB97X-D3 SP def2-SVP
|  2> %pal
|  3> nprocs 24
|  4> end
|  5>
|  6> * xyz 0 1
|  7> S 	 2.45229 	 -26.3942 	 -113.946
|  8> C 	 3.46755 	 -26.593 	 -115.326
|  9> C 	 3.71557 	 -27.9248 	 -115.651
| 10> C 	 3.19457 	 -28.7643 	 -114.63
| 11> C 	 2.52409 	 -28.1041 	 -113.656
| 12> H 	 3.32179 	 -29.8005 	 -114.61
| 13> C 	 4.52463 	 -28.4455 	 -116.822
| 14> H 	 5.12199 	 -29.3325 	 -116.572
| 15> H 	 5.24569 	 -27.6948 	 -117.115
| 16> C 	 3.68455 	 -28.7902 	 -118.071
| 17> H 	 2.80758 	 -29.2976 	 -117.812
| 18> H 	 3.4246 	 -27.7818 	 -118.471
| 19> C 	 4.37824 	 -29.7712 	 -119.042
| 20> H 	 4.79207 	 -30.7001 	 -118.526
| 21> H 	 3.84756 	 -30.3191 	 -119.775
| 22> H 	 5.30697 	 -29.276 	 -119.471
| 23> S 	 2.0442 	 -28.0573 	 -110.939
| 24> C 	 1.0361 	 -29.3996 	 -110.217
| 25> C 	 0.613542 	 -30.2833 	 -111.181
| 26> C 	 1.00761 	 -29.9689 	 -112.526
| 27> C 	 1.78549 	 -28.7659 	 -112.586
| 28> H 	 0.029078 	 -31.0988 	 -110.764
| 29> C 	 0.678914 	 -30.7858 	 -113.798
| 30> H 	 1.06665 	 -30.3306 	 -114.688
| 31> H 	 -0.4058 	 -30.7876 	 -113.775
| 32> C 	 1.28747 	 -32.1603 	 -113.78
| 33> H 	 0.994307 	 -32.6484 	 -112.84
| 34> H 	 2.34544 	 -32.0633 	 -113.789
| 35> C 	 0.717648 	 -32.9365 	 -114.969
| 36> H 	 0.933133 	 -32.449 	 -115.907
| 37> H 	 -0.34656 	 -33.0534 	 -114.866
| 38> H 	 1.02694 	 -33.9661 	 -115.132
| 39> H 	 4.08583 	 -25.851 	 -115.752
| 40> H 	 0.825455 	 -29.548 	 -109.239
| 41> *
| 42>
| 43>                          ****END OF INPUT****

CARTESIAN COORDINATES (ANGSTROEM)
---------------------------------
  S      2.452290  -26.394200  -113.946000
  C      3.467550  -26.593000  -115.326000
  C      3.715570  -27.924800  -115.651000
  C      3.194570  -28.764300  -114.630000
  C      2.524090  -28.104100  -113.656000
  H      3.321790  -29.800500  -114.610000
  C      4.524630  -28.445500  -116.822000
  H      5.121990  -29.332500  -116.572000
  H      5.245690  -27.694800  -117.115000
  C      3.684550  -28.790200  -118.071000
  H      2.807580  -29.297600  -117.812000
  H      3.424600  -27.781800  -118.471000
  C      4.378240  -29.771200  -119.042000
  H      4.792070  -30.700100  -118.526000
  H      3.847560  -30.319100  -119.775000
  H      5.306970  -29.276000  -119.471000
  S      2.044200  -28.057300  -110.939000
  C      1.036100  -29.399600  -110.217000
  C      0.613542  -30.283300  -111.181000
  C      1.007610  -29.968900  -112.526000
  C      1.785490  -28.765900  -112.586000
  H      0.029078  -31.098800  -110.764000
  C      0.678914  -30.785800  -113.798000
  H      1.066650  -30.330600  -114.688000
  H     -0.405800  -30.787600  -113.775000
  C      1.287470  -32.160300  -113.780000
  H      0.994307  -32.648400  -112.840000
  H      2.345440  -32.063300  -113.789000
  C      0.717648  -32.936500  -114.969000
  H      0.933133  -32.449000  -115.907000
  H     -0.346560  -33.053400  -114.866000
  H      1.026940  -33.966100  -115.132000
  H      4.085830  -25.851000  -115.752000
  H      0.825455  -29.548000  -109.239000

 Total Charge           Charge          ....    0
 Multiplicity           Mult            ....    1
 Number of Electrons    NEL             ....  134
 Basis Dimension        Dim             ....  322

ORBITAL ENERGIES
----------------

  NO   OCC          E(Eh)            E(eV)
   0   2.0000     -88.969260     -2420.9766
   1   2.0000     -88.964175     -2420.8383
   2   2.0000     -10.334407      -281.2135
   3   2.0000     -10.324821      -280.9527
   4   2.0000     -10.316798      -280.7343
   5   2.0000     -10.314827      -280.6807
   6   2.0000     -10.309586      -280.5381
   7   2.0000     -10.301975      -280.3310
   8   2.0000     -10.299234      -280.2564
   9   2.0000     -10.294503      -280.1277
  10   2.0000     -10.290173      -280.0098
  11   2.0000     -10.289406      -279.9890
  12   2.0000     -10.287815      -279.9457
  13   2.0000     -10.286375      -279.9065
  14   2.0000     -10.285771      -279.8900
  15   2.0000     -10.276586      -279.6401
  16   2.0000      -8.084567      -219.9923
  17   2.0000      -8.076882      -219.7831
  18   2.0000      -6.043022      -164.4390
  19   2.0000      -6.039059      -164.3312
  20   2.0000      -6.035521      -164.2349
  21   2.0000      -6.035280      -164.2283
  22   2.0000      -6.031750      -164.1323
  23   2.0000      -6.027559      -164.0182
  24   2.0000      -1.007983       -27.4286
  25   2.0000      -0.973865       -26.5002
  26   2.0000      -0.916240       -24.9322
  27   2.0000      -0.912098       -24.8195
  28   2.0000      -0.870661       -23.6919
  29   2.0000      -0.854898       -23.2629
  30   2.0000      -0.842416       -22.9233
  31   2.0000      -0.817826       -22.2542
  32   2.0000      -0.783367       -21.3165
  33   2.0000      -0.771733       -20.9999
  34   2.0000      -0.709924       -19.3180
  35   2.0000      -0.703934       -19.1550
  36   2.0000      -0.702586       -19.1183
  37   2.0000      -0.660317       -17.9681
  38   2.0000      -0.645374       -17.5615
  39   2.0000      -0.627995       -17.0886
  40   2.0000      -0.599275       -16.3071
  41   2.0000      -0.575485       -15.6597
  42   2.0000      -0.570285       -15.5183
  43   2.0000      -0.562654       -15.3106
  44   2.0000      -0.534266       -14.5381
  45   2.0000      -0.524386       -14.2693
  46   2.0000      -0.516625       -14.0581
  47   2.0000      -0.511410       -13.9162
  48   2.0000      -0.505366       -13.7517
  49   2.0000      -0.498450       -13.5635
  50   2.0000      -0.490744       -13.3538
  51   2.0000      -0.481579       -13.1044
  52   2.0000      -0.476339       -12.9619
  53   2.0000      -0.462048       -12.5730
  54   2.0000      -0.455381       -12.3915
  55   2.0000      -0.452872       -12.3233
  56   2.0000      -0.444629       -12.0990
  57   2.0000      -0.438729       -11.9384
  58   2.0000      -0.435073       -11.8389
  59   2.0000      -0.429651       -11.6914
  60   2.0000      -0.428561       -11.6617
  61   2.0000      -0.416540       -11.3346
  62   2.0000      -0.411800       -11.2056
  63   2.0000      -0.347193        -9.4476
  64   2.0000      -0.334560        -9.1038
  65   2.0000      -0.329022        -8.9532
  66   2.0000      -0.290466        -7.9040
  67   0.0000       0.022956         0.6247
  68   0.0000       0.071982         1.9587
  69   0.0000       0.103861         2.8262
  70   0.0000       0.119325         3.2470
  71   0.0000       0.124110         3.3772

MULLIKEN ATOMIC CHARGES
-----------------------
   0 S :    0.130790
   1 C :   -0.099310
   2 C :   -0.091451
   3 C :    0.027723
   4 C :   -0.114867
   5 H :   -0.022442
   6 C :    0.057102
   7 H :    0.021948
   8 H :    0.019288
   9 C :   -0.035671
  10 H :    0.018178
  11 H :    0.038442
  12 C :   -0.078009
  13 H :    0.023718
  14 H :    0.032163
  15 H :    0.038500
  16 S :    0.073337
  17 C :   -0.046132
  18 C :   -0.050863
  19 C :   -0.015229
  20 C :   -0.158483
  21 H :    0.024405
  22 C :    0.063793
  23 H :    0.018919
  24 H :    0.033997
  25 C :   -0.058451
  26 H :    0.026991
  27 H :    0.027014
  28 C :   -0.024443
  29 H :    0.020710
  30 H :    0.022349
  31 H :    0.026731
  32 H :    0.034805
  33 H :    0.014449
Sum of atomic charges:   -0.0000000

LOEWDIN ATOMIC CHARGES
----------------------
   0 S :    0.425537
   1 C :   -0.202445
   2 C :   -0.054747
   3 C :   -0.055297
   4 C :   -0.202153
   5 H :    0.020625
   6 C :   -0.029914
   7 H :    0.028663
   8 H :    0.028413
   9 C :   -0.035606
  10 H :    0.015600
  11 H :    0.031185
  12 C :   -0.079079
  13 H :    0.031854
  14 H :    0.021183
  15 H :    0.030454
  16 S :    0.343947
  17 C :   -0.141499
  18 C :   -0.071577
  19 C :   -0.046068
  20 C :   -0.174870
  21 H :    0.036350
  22 C :   -0.023003
  23 H :    0.025535
  24 H :    0.032750
  25 C :   -0.034363
  26 H :    0.024172
  27 H :    0.018686
  28 C :   -0.064784
  29 H :    0.022320
  30 H :    0.025064
  31 H :    0.024798
  32 H :    0.020426
  33 H :    0.007843

  Mayer bond orders larger than 0.100000
B(  0-S ,  1-C ) :   1.1455 B(  0-S ,  4-C ) :   1.1512 B(  1-C ,  2-C ) :   1.6030
B(  1-C , 32-H ) :   0.9641 B(  2-C ,  3-C ) :   1.2511 B(  2-C ,  6-C ) :   1.0358
B(  3-C ,  4-C ) :   1.5611 B(  3-C ,  5-H ) :   1.0116 B(  4-C , 20-C ) :   1.0369
B(  6-C ,  7-H ) :   0.9480 B(  6-C ,  8-H ) :   0.9372 B(  6-C ,  9-C ) :   1.0460
B(  9-C , 10-H ) :   0.9620 B(  9-C , 11-H ) :   0.9565 B(  9-C , 12-C ) :   1.0687
B( 12-C , 13-H ) :   0.9690 B( 12-C , 14-H ) :   0.9777 B( 12-C , 15-H ) :   0.9762
B( 16-S , 17-C ) :   1.1230 B( 16-S , 20-C ) :   1.1226 B( 17-C , 18-C ) :   1.6634
B( 17-C , 20-C ) :   0.1045 B( 17-C , 33-H ) :   0.9764 B( 18-C , 19-C ) :   1.1959
B( 18-C , 21-H ) :   0.9869 B( 19-C , 20-C ) :   1.5982 B( 19-C , 22-C ) :   1.0261
B( 22-C , 23-H ) :   0.9379 B( 22-C , 24-H ) :   0.9350 B( 22-C , 25-C ) :   1.0629
B( 25-C , 26-H ) :   0.9553 B( 25-C , 27-H ) :   0.9539 B( 25-C , 28-C ) :   1.0804
B( 28-C , 29-H ) :   0.9724 B( 28-C , 30-H ) :   0.9738 B( 28-C , 31-H ) :   0.9731

Dispersion correction           -0.013968780
FINAL SINGLE POINT ENERGY     -1339.861695828678

DIPOLE MOMENT
-------------
                                X             Y             Z
Electronic contribution:     -2.50102      22.52288      24.96599
Nuclear contribution   :      2.52133     -23.23458     -25.34494
                        -----------------------------------------
Total Dipole Moment    :      0.02030      -0.71170      -0.37895
                        -----------------------------------------
Magnitude (a.u.)       :      0.80656
Magnitude (Debye)      :      2.05011

Rotational constants in cm-1:     0.016965     0.009440     0.006376
Rotational constants in MHz :   508.593241   283.001706   191.151949

                             ****ORCA TERMINATED NORMALLY****
TOTAL RUN TIME: 0 days 0 hours 0 minutes 21 seconds 627 msec
