                         Program Version 4.2.1 -  RELEASE  -
|  1> ! wB97X-D3 SP def2-SVP
|  2> %pal
|  3> nprocs 24
|  4> end
|  5>
|  6> * xyz 0 1
|  7> S 	 -132.885 	 30.2453 	 -14.0687
|  8> C 	 -131.642 	 29.8467 	 -15.2192
|  9> C 	 -132.148 	 29.7637 	 -16.5064
| 10> C 	 -133.541 	 30.022 	 -16.6575
| 11> C 	 -134.066 	 30.2122 	 -15.3778
| 12> H 	 -134.196 	 29.9714 	 -17.4983
| 13> C 	 -131.282 	 29.4666 	 -17.7247
| 14> H 	 -130.195 	 29.4032 	 -17.4162
| 15> H 	 -131.484 	 30.2567 	 -18.3552
| 16> C 	 -131.613 	 28.1821 	 -18.5064
| 17> H 	 -131.772 	 27.2938 	 -17.8976
| 18> H 	 -132.69 	 28.3027 	 -18.9078
| 19> C 	 -130.59 	 27.8321 	 -19.7145
| 20> H 	 -130.822 	 26.8986 	 -20.3466
| 21> H 	 -130.683 	 28.7155 	 -20.393
| 22> H 	 -129.672 	 27.6802 	 -19.177
| 23> S 	 -136.444 	 31.5871 	 -16.2203
| 24> C 	 -137.959 	 30.9514 	 -15.6102
| 25> C 	 -137.78 	 29.9172 	 -14.6974
| 26> C 	 -136.372 	 29.6608 	 -14.4124
| 27> C 	 -135.481 	 30.4364 	 -15.1632
| 28> H 	 -138.625 	 29.4365 	 -14.3201
| 29> C 	 -135.934 	 28.6588 	 -13.4255
| 30> H 	 -135.377 	 29.1274 	 -12.6314
| 31> H 	 -135.205 	 28.0502 	 -13.9938
| 32> C 	 -136.973 	 27.7513 	 -12.7978
| 33> H 	 -137.536 	 27.2008 	 -13.5568
| 34> H 	 -137.734 	 28.4109 	 -12.3905
| 35> C 	 -136.452 	 26.8456 	 -11.657
| 36> H 	 -137.333 	 26.5997 	 -11.0695
| 37> H 	 -135.799 	 27.343 	 -10.8779
| 38> H 	 -135.91 	 25.9124 	 -11.952
| 39> H 	 -130.658 	 29.638 	 -14.8697
| 40> H 	 -138.913 	 31.2393 	 -16.0069
| 41> *
| 42>
| 43>                          ****END OF INPUT****

CARTESIAN COORDINATES (ANGSTROEM)
---------------------------------
  S    -132.885000   30.245300  -14.068700
  C    -131.642000   29.846700  -15.219200
  C    -132.148000   29.763700  -16.506400
  C    -133.541000   30.022000  -16.657500
  C    -134.066000   30.212200  -15.377800
  H    -134.196000   29.971400  -17.498300
  C    -131.282000   29.466600  -17.724700
  H    -130.195000   29.403200  -17.416200
  H    -131.484000   30.256700  -18.355200
  C    -131.613000   28.182100  -18.506400
  H    -131.772000   27.293800  -17.897600
  H    -132.690000   28.302700  -18.907800
  C    -130.590000   27.832100  -19.714500
  H    -130.822000   26.898600  -20.346600
  H    -130.683000   28.715500  -20.393000
  H    -129.672000   27.680200  -19.177000
  S    -136.444000   31.587100  -16.220300
  C    -137.959000   30.951400  -15.610200
  C    -137.780000   29.917200  -14.697400
  C    -136.372000   29.660800  -14.412400
  C    -135.481000   30.436400  -15.163200
  H    -138.625000   29.436500  -14.320100
  C    -135.934000   28.658800  -13.425500
  H    -135.377000   29.127400  -12.631400
  H    -135.205000   28.050200  -13.993800
  C    -136.973000   27.751300  -12.797800
  H    -137.536000   27.200800  -13.556800
  H    -137.734000   28.410900  -12.390500
  C    -136.452000   26.845600  -11.657000
  H    -137.333000   26.599700  -11.069500
  H    -135.799000   27.343000  -10.877900
  H    -135.910000   25.912400  -11.952000
  H    -130.658000   29.638000  -14.869700
  H    -138.913000   31.239300  -16.006900

 Total Charge           Charge          ....    0
 Multiplicity           Mult            ....    1
 Number of Electrons    NEL             ....  134
 Basis Dimension        Dim             ....  322

ORBITAL ENERGIES
----------------

  NO   OCC          E(Eh)            E(eV)
   0   2.0000     -88.969671     -2420.9878
   1   2.0000     -88.965165     -2420.8652
   2   2.0000     -10.331610      -281.1374
   3   2.0000     -10.326409      -280.9959
   4   2.0000     -10.319181      -280.7992
   5   2.0000     -10.312063      -280.6055
   6   2.0000     -10.305243      -280.4199
   7   2.0000     -10.304297      -280.3942
   8   2.0000     -10.296161      -280.1728
   9   2.0000     -10.294478      -280.1270
  10   2.0000     -10.293489      -280.1001
  11   2.0000     -10.292696      -280.0785
  12   2.0000     -10.290869      -280.0288
  13   2.0000     -10.288141      -279.9546
  14   2.0000     -10.286675      -279.9147
  15   2.0000     -10.283471      -279.8275
  16   2.0000      -8.084085      -219.9791
  17   2.0000      -8.078371      -219.8237
  18   2.0000      -6.042536      -164.4258
  19   2.0000      -6.038688      -164.3211
  20   2.0000      -6.037019      -164.2756
  21   2.0000      -6.034891      -164.2177
  22   2.0000      -6.033081      -164.1685
  23   2.0000      -6.029095      -164.0600
  24   2.0000      -1.002389       -27.2764
  25   2.0000      -0.976595       -26.5745
  26   2.0000      -0.910859       -24.7857
  27   2.0000      -0.904064       -24.6008
  28   2.0000      -0.869072       -23.6487
  29   2.0000      -0.850074       -23.1317
  30   2.0000      -0.842614       -22.9287
  31   2.0000      -0.811059       -22.0700
  32   2.0000      -0.780724       -21.2446
  33   2.0000      -0.766992       -20.8709
  34   2.0000      -0.709067       -19.2947
  35   2.0000      -0.701848       -19.0982
  36   2.0000      -0.690940       -18.8014
  37   2.0000      -0.657668       -17.8961
  38   2.0000      -0.643868       -17.5205
  39   2.0000      -0.612971       -16.6798
  40   2.0000      -0.598217       -16.2783
  41   2.0000      -0.570150       -15.5146
  42   2.0000      -0.567896       -15.4532
  43   2.0000      -0.557586       -15.1727
  44   2.0000      -0.528868       -14.3912
  45   2.0000      -0.522795       -14.2260
  46   2.0000      -0.513743       -13.9797
  47   2.0000      -0.509067       -13.8524
  48   2.0000      -0.506642       -13.7864
  49   2.0000      -0.498645       -13.5688
  50   2.0000      -0.487720       -13.2715
  51   2.0000      -0.480971       -13.0879
  52   2.0000      -0.471719       -12.8361
  53   2.0000      -0.465339       -12.6625
  54   2.0000      -0.454607       -12.3705
  55   2.0000      -0.452060       -12.3012
  56   2.0000      -0.447749       -12.1839
  57   2.0000      -0.436943       -11.8898
  58   2.0000      -0.430805       -11.7228
  59   2.0000      -0.418001       -11.3744
  60   2.0000      -0.416866       -11.3435
  61   2.0000      -0.412388       -11.2216
  62   2.0000      -0.411853       -11.2071
  63   2.0000      -0.344675        -9.3791
  64   2.0000      -0.332134        -9.0378
  65   2.0000      -0.327122        -8.9015
  66   2.0000      -0.288669        -7.8551
  67   0.0000       0.024975         0.6796
  68   0.0000       0.069210         1.8833
  69   0.0000       0.106385         2.8949
  70   0.0000       0.116122         3.1598
  71   0.0000       0.128595         3.4992

MULLIKEN ATOMIC CHARGES
-----------------------
   0 S :    0.115806
   1 C :   -0.126249
   2 C :   -0.058729
   3 C :    0.014472
   4 C :   -0.176060
   5 H :    0.022035
   6 C :    0.108315
   7 H :    0.025981
   8 H :    0.016861
   9 C :   -0.138701
  10 H :    0.030480
  11 H :    0.026283
  12 C :   -0.077076
  13 H :    0.055647
  14 H :    0.047379
  15 H :    0.042678
  16 S :    0.088328
  17 C :   -0.078891
  18 C :   -0.020204
  19 C :   -0.041549
  20 C :   -0.136748
  21 H :   -0.001849
  22 C :    0.073039
  23 H :    0.031911
  24 H :    0.039981
  25 C :   -0.092864
  26 H :    0.030553
  27 H :    0.024972
  28 C :   -0.055265
  29 H :    0.029842
  30 H :    0.036245
  31 H :    0.050362
  32 H :    0.040593
  33 H :    0.052423
Sum of atomic charges:   -0.0000000

LOEWDIN ATOMIC CHARGES
----------------------
   0 S :    0.411385
   1 C :   -0.200938
   2 C :   -0.053534
   3 C :   -0.055317
   4 C :   -0.178580
   5 H :    0.031851
   6 C :   -0.028060
   7 H :    0.033162
   8 H :    0.023143
   9 C :   -0.051750
  10 H :    0.018465
  11 H :    0.023237
  12 C :   -0.072314
  13 H :    0.037647
  14 H :    0.030628
  15 H :    0.022367
  16 S :    0.367978
  17 C :   -0.173499
  18 C :   -0.070798
  19 C :   -0.043108
  20 C :   -0.186185
  21 H :    0.021404
  22 C :   -0.045341
  23 H :    0.029534
  24 H :    0.038539
  25 C :   -0.044437
  26 H :    0.025843
  27 H :    0.022562
  28 C :   -0.072063
  29 H :    0.028167
  30 H :    0.031868
  31 H :    0.030723
  32 H :    0.021270
  33 H :    0.026151

  Mayer bond orders larger than 0.100000
B(  0-S ,  1-C ) :   1.1265 B(  0-S ,  4-C ) :   1.1642 B(  1-C ,  2-C ) :   1.6110
B(  1-C , 32-H ) :   0.9761 B(  2-C ,  3-C ) :   1.2166 B(  2-C ,  6-C ) :   1.0289
B(  3-C ,  4-C ) :   1.5635 B(  3-C ,  5-H ) :   0.9982 B(  4-C , 20-C ) :   1.0543
B(  6-C ,  7-H ) :   0.9462 B(  6-C ,  8-H ) :   0.9295 B(  6-C ,  9-C ) :   1.0498
B(  9-C , 10-H ) :   0.9637 B(  9-C , 11-H ) :   0.9551 B(  9-C , 12-C ) :   1.0550
B( 12-C , 13-H ) :   0.9771 B( 12-C , 14-H ) :   0.9785 B( 12-C , 15-H ) :   0.9786
B( 16-S , 17-C ) :   1.1579 B( 16-S , 20-C ) :   1.1037 B( 17-C , 18-C ) :   1.6089
B( 17-C , 33-H ) :   0.9623 B( 18-C , 19-C ) :   1.2280 B( 18-C , 21-H ) :   0.9976
B( 19-C , 20-C ) :   1.5873 B( 19-C , 22-C ) :   1.0431 B( 22-C , 23-H ) :   0.9293
B( 22-C , 24-H ) :   0.9114 B( 22-C , 25-C ) :   1.0979 B( 25-C , 26-H ) :   0.9489
B( 25-C , 27-H ) :   0.9457 B( 25-C , 28-C ) :   1.0779 B( 28-C , 29-H ) :   0.9735
B( 28-C , 30-H ) :   0.9728 B( 28-C , 31-H ) :   0.9761

Dispersion correction           -0.013645421
FINAL SINGLE POINT ENERGY     -1339.868328243816

DIPOLE MOMENT
-------------
                                X             Y             Z
Electronic contribution:     -5.42410      19.84991       3.44616
Nuclear contribution   :      5.34368     -20.38792      -3.48873
                        -----------------------------------------
Total Dipole Moment    :     -0.08042      -0.53801      -0.04256
                        -----------------------------------------
Magnitude (a.u.)       :      0.54565
Magnitude (Debye)      :      1.38694

Rotational constants in cm-1:     0.017959     0.007524     0.006495
Rotational constants in MHz :   538.398356   225.560102   194.703536

                             ****ORCA TERMINATED NORMALLY****
TOTAL RUN TIME: 0 days 0 hours 0 minutes 19 seconds 612 msec
