                         Program Version 4.2.1 -  RELEASE  -
|  1> ! wB97X-D3 SP def2-SVP
|  2> %pal
|  3> nprocs 24
|  4> end
|  5>
|  6> * xyz 0 1
|  7> S 	 -39.3454 	 -11.1788 	 5.14119
|  8> C 	 -38.7359 	 -11.7874 	 6.63492
|  9> C 	 -37.9283 	 -10.8143 	 7.22994
| 10> C 	 -38.1013 	 -9.56327 	 6.608
| 11> C 	 -38.6566 	 -9.6262 	 5.36221
| 12> H 	 -37.672 	 -8.67296 	 6.94622
| 13> C 	 -37.2407 	 -11.0154 	 8.54302
| 14> H 	 -37.427 	 -12.1024 	 8.72428
| 15> H 	 -37.6749 	 -10.5154 	 9.41655
| 16> C 	 -35.777 	 -10.5692 	 8.50093
| 17> H 	 -35.7969 	 -9.42146 	 8.56627
| 18> H 	 -35.2489 	 -10.9017 	 9.43465
| 19> C 	 -34.8483 	 -10.9539 	 7.28921
| 20> H 	 -33.8401 	 -10.902 	 7.67987
| 21> H 	 -34.873 	 -11.9738 	 6.90298
| 22> H 	 -34.8761 	 -10.1835 	 6.47373
| 23> S 	 -38.2842 	 -8.95845 	 2.69997
| 24> C 	 -38.6706 	 -7.30634 	 2.1699
| 25> C 	 -39.0319 	 -6.51874 	 3.20902
| 26> C 	 -38.9527 	 -7.20875 	 4.46109
| 27> C 	 -38.7743 	 -8.57336 	 4.35839
| 28> H 	 -39.1502 	 -5.47786 	 3.0162
| 29> C 	 -38.9159 	 -6.3368 	 5.70456
| 30> H 	 -39.2752 	 -6.98304 	 6.54414
| 31> H 	 -39.7461 	 -5.61932 	 5.6037
| 32> C 	 -37.537 	 -5.80158 	 5.91096
| 33> H 	 -37.3998 	 -5.05079 	 5.07295
| 34> H 	 -36.8723 	 -6.63958 	 5.61607
| 35> C 	 -37.4355 	 -5.19671 	 7.34856
| 36> H 	 -36.494 	 -4.52086 	 7.43483
| 37> H 	 -37.3448 	 -5.9692 	 8.10187
| 38> H 	 -38.319 	 -4.59515 	 7.51757
| 39> H 	 -38.8167 	 -12.753 	 6.96337
| 40> H 	 -38.3605 	 -6.78539 	 1.22986
| 41> *
| 42>
| 43>                          ****END OF INPUT****

CARTESIAN COORDINATES (ANGSTROEM)
---------------------------------
  S    -39.345400  -11.178800    5.141190
  C    -38.735900  -11.787400    6.634920
  C    -37.928300  -10.814300    7.229940
  C    -38.101300   -9.563270    6.608000
  C    -38.656600   -9.626200    5.362210
  H    -37.672000   -8.672960    6.946220
  C    -37.240700  -11.015400    8.543020
  H    -37.427000  -12.102400    8.724280
  H    -37.674900  -10.515400    9.416550
  C    -35.777000  -10.569200    8.500930
  H    -35.796900   -9.421460    8.566270
  H    -35.248900  -10.901700    9.434650
  C    -34.848300  -10.953900    7.289210
  H    -33.840100  -10.902000    7.679870
  H    -34.873000  -11.973800    6.902980
  H    -34.876100  -10.183500    6.473730
  S    -38.284200   -8.958450    2.699970
  C    -38.670600   -7.306340    2.169900
  C    -39.031900   -6.518740    3.209020
  C    -38.952700   -7.208750    4.461090
  C    -38.774300   -8.573360    4.358390
  H    -39.150200   -5.477860    3.016200
  C    -38.915900   -6.336800    5.704560
  H    -39.275200   -6.983040    6.544140
  H    -39.746100   -5.619320    5.603700
  C    -37.537000   -5.801580    5.910960
  H    -37.399800   -5.050790    5.072950
  H    -36.872300   -6.639580    5.616070
  C    -37.435500   -5.196710    7.348560
  H    -36.494000   -4.520860    7.434830
  H    -37.344800   -5.969200    8.101870
  H    -38.319000   -4.595150    7.517570
  H    -38.816700  -12.753000    6.963370
  H    -38.360500   -6.785390    1.229860

 Total Charge           Charge          ....    0
 Multiplicity           Mult            ....    1
 Number of Electrons    NEL             ....  134
 Basis Dimension        Dim             ....  322

ORBITAL ENERGIES
----------------

  NO   OCC          E(Eh)            E(eV)
   0   2.0000     -88.964953     -2420.8594
   1   2.0000     -88.964814     -2420.8557
   2   2.0000     -10.329091      -281.0689
   3   2.0000     -10.326213      -280.9905
   4   2.0000     -10.318713      -280.7864
   5   2.0000     -10.307413      -280.4790
   6   2.0000     -10.301757      -280.3251
   7   2.0000     -10.299855      -280.2733
   8   2.0000     -10.297260      -280.2027
   9   2.0000     -10.296241      -280.1750
  10   2.0000     -10.293496      -280.1003
  11   2.0000     -10.292297      -280.0676
  12   2.0000     -10.290794      -280.0267
  13   2.0000     -10.289178      -279.9828
  14   2.0000     -10.284348      -279.8513
  15   2.0000     -10.280232      -279.7393
  16   2.0000      -8.080604      -219.8844
  17   2.0000      -8.078960      -219.8397
  18   2.0000      -6.039006      -164.3297
  19   2.0000      -6.037720      -164.2947
  20   2.0000      -6.034796      -164.2152
  21   2.0000      -6.033672      -164.1846
  22   2.0000      -6.031575      -164.1275
  23   2.0000      -6.029381      -164.0678
  24   2.0000      -1.013565       -27.5805
  25   2.0000      -0.989226       -26.9182
  26   2.0000      -0.915018       -24.8989
  27   2.0000      -0.909732       -24.7551
  28   2.0000      -0.871811       -23.7232
  29   2.0000      -0.847345       -23.0574
  30   2.0000      -0.841316       -22.8934
  31   2.0000      -0.821423       -22.3521
  32   2.0000      -0.784658       -21.3516
  33   2.0000      -0.771291       -20.9879
  34   2.0000      -0.711737       -19.3673
  35   2.0000      -0.697774       -18.9874
  36   2.0000      -0.691909       -18.8278
  37   2.0000      -0.660228       -17.9657
  38   2.0000      -0.644142       -17.5280
  39   2.0000      -0.627172       -17.0662
  40   2.0000      -0.589965       -16.0538
  41   2.0000      -0.573889       -15.6163
  42   2.0000      -0.563250       -15.3268
  43   2.0000      -0.545842       -14.8531
  44   2.0000      -0.541522       -14.7356
  45   2.0000      -0.525765       -14.3068
  46   2.0000      -0.522027       -14.2051
  47   2.0000      -0.514787       -14.0081
  48   2.0000      -0.506723       -13.7886
  49   2.0000      -0.498461       -13.5638
  50   2.0000      -0.486927       -13.2500
  51   2.0000      -0.482424       -13.1274
  52   2.0000      -0.472468       -12.8565
  53   2.0000      -0.467196       -12.7131
  54   2.0000      -0.457862       -12.4591
  55   2.0000      -0.447752       -12.1840
  56   2.0000      -0.443812       -12.0767
  57   2.0000      -0.436897       -11.8886
  58   2.0000      -0.436067       -11.8660
  59   2.0000      -0.419388       -11.4121
  60   2.0000      -0.415417       -11.3041
  61   2.0000      -0.412327       -11.2200
  62   2.0000      -0.409968       -11.1558
  63   2.0000      -0.354793        -9.6544
  64   2.0000      -0.330804        -9.0016
  65   2.0000      -0.328732        -8.9453
  66   2.0000      -0.289312        -7.8726
  67   0.0000       0.030663         0.8344
  68   0.0000       0.071286         1.9398
  69   0.0000       0.108308         2.9472
  70   0.0000       0.114720         3.1217
  71   0.0000       0.122439         3.3317

MULLIKEN ATOMIC CHARGES
-----------------------
   0 S :    0.121089
   1 C :   -0.080940
   2 C :   -0.103047
   3 C :    0.041379
   4 C :   -0.133136
   5 H :   -0.031364
   6 C :    0.095223
   7 H :    0.012157
   8 H :    0.041063
   9 C :   -0.142027
  10 H :    0.038525
  11 H :    0.038666
  12 C :   -0.048045
  13 H :    0.022936
  14 H :    0.039539
  15 H :    0.046977
  16 S :    0.091528
  17 C :   -0.093768
  18 C :   -0.026871
  19 C :   -0.092165
  20 C :   -0.111015
  21 H :    0.014735
  22 C :    0.023429
  23 H :    0.026551
  24 H :    0.029729
  25 C :   -0.077603
  26 H :    0.033126
  27 H :    0.045957
  28 C :   -0.039483
  29 H :    0.049331
  30 H :    0.038827
  31 H :    0.039936
  32 H :    0.017139
  33 H :    0.071622
Sum of atomic charges:   -0.0000000

LOEWDIN ATOMIC CHARGES
----------------------
   0 S :    0.438350
   1 C :   -0.191860
   2 C :   -0.059629
   3 C :   -0.062069
   4 C :   -0.200579
   5 H :    0.016528
   6 C :   -0.039274
   7 H :    0.030757
   8 H :    0.036256
   9 C :   -0.050750
  10 H :    0.030852
  11 H :    0.027918
  12 C :   -0.077235
  13 H :    0.026837
  14 H :    0.027443
  15 H :    0.032519
  16 S :    0.380577
  17 C :   -0.182782
  18 C :   -0.071541
  19 C :   -0.054795
  20 C :   -0.192907
  21 H :    0.030102
  22 C :   -0.043265
  23 H :    0.028971
  24 H :    0.029086
  25 C :   -0.048562
  26 H :    0.030958
  27 H :    0.030277
  28 C :   -0.063841
  29 H :    0.036908
  30 H :    0.023656
  31 H :    0.027314
  32 H :    0.009884
  33 H :    0.043896

  Mayer bond orders larger than 0.100000
B(  0-S ,  1-C ) :   1.1547 B(  0-S ,  4-C ) :   1.1706 B(  1-C ,  2-C ) :   1.5711
B(  1-C ,  4-C ) :   0.1048 B(  1-C , 32-H ) :   0.9760 B(  2-C ,  3-C ) :   1.2609
B(  2-C ,  6-C ) :   1.0373 B(  3-C ,  4-C ) :   1.5584 B(  3-C ,  5-H ) :   0.9990
B(  4-C , 20-C ) :   1.0309 B(  6-C ,  7-H ) :   0.9366 B(  6-C ,  8-H ) :   0.9431
B(  6-C ,  9-C ) :   1.0574 B(  9-C , 10-H ) :   0.9547 B(  9-C , 11-H ) :   0.9629
B(  9-C , 12-C ) :   1.0664 B( 12-C , 13-H ) :   0.9740 B( 12-C , 14-H ) :   0.9774
B( 12-C , 15-H ) :   0.9752 B( 16-S , 17-C ) :   1.1353 B( 16-S , 20-C ) :   1.1203
B( 17-C , 18-C ) :   1.6511 B( 17-C , 33-H ) :   0.9537 B( 18-C , 19-C ) :   1.2170
B( 18-C , 21-H ) :   0.9907 B( 19-C , 20-C ) :   1.6242 B( 19-C , 22-C ) :   1.0507
B( 22-C , 23-H ) :   0.9355 B( 22-C , 24-H ) :   0.9273 B( 22-C , 25-C ) :   1.0435
B( 25-C , 26-H ) :   0.9491 B( 25-C , 27-H ) :   0.9564 B( 25-C , 28-C ) :   1.0619
B( 28-C , 29-H ) :   0.9753 B( 28-C , 30-H ) :   0.9778 B( 28-C , 31-H ) :   0.9711

Dispersion correction           -0.015116102
FINAL SINGLE POINT ENERGY     -1339.861752003556

DIPOLE MOMENT
-------------
                                X             Y             Z
Electronic contribution:    -14.91948     -11.59153     -20.63139
Nuclear contribution   :     15.32636      12.10726      21.15021
                        -----------------------------------------
Total Dipole Moment    :      0.40688       0.51573       0.51882
                        -----------------------------------------
Magnitude (a.u.)       :      0.83708
Magnitude (Debye)      :      2.12768

Rotational constants in cm-1:     0.017141     0.010248     0.007631
Rotational constants in MHz :   513.878047   307.230823   228.774278

                             ****ORCA TERMINATED NORMALLY****
TOTAL RUN TIME: 0 days 0 hours 0 minutes 22 seconds 681 msec
