                         Program Version 4.2.1 -  RELEASE  -
|  1> ! wB97X-D3 SP def2-SVP
|  2> %pal
|  3> nprocs 24
|  4> end
|  5>
|  6> * xyz 0 1
|  7> S 	 -104.878 	 46.7379 	 -90.1367
|  8> C 	 -105.285 	 45.2912 	 -91.0433
|  9> C 	 -105.937 	 44.3495 	 -90.1918
| 10> C 	 -106.167 	 44.8018 	 -88.861
| 11> C 	 -105.614 	 46.0611 	 -88.6092
| 12> H 	 -106.672 	 44.2361 	 -88.0969
| 13> C 	 -106.353 	 42.9986 	 -90.6602
| 14> H 	 -106.592 	 43.0793 	 -91.7287
| 15> H 	 -107.294 	 42.8489 	 -90.2081
| 16> C 	 -105.278 	 41.8049 	 -90.5308
| 17> H 	 -105.567 	 40.9004 	 -91.0521
| 18> H 	 -104.354 	 42.1381 	 -91.0454
| 19> C 	 -104.74 	 41.4286 	 -89.0366
| 20> H 	 -105.497 	 40.9716 	 -88.4421
| 21> H 	 -103.954 	 40.6213 	 -89.1258
| 22> H 	 -104.326 	 42.295 	 -88.5648
| 23> S 	 -105.517 	 48.5885 	 -87.62
| 24> C 	 -105.53 	 48.8801 	 -85.9671
| 25> C 	 -105.762 	 47.7247 	 -85.2555
| 26> C 	 -105.765 	 46.5031 	 -85.9905
| 27> C 	 -105.645 	 46.8714 	 -87.372
| 28> H 	 -105.835 	 47.8512 	 -84.1467
| 29> C 	 -105.828 	 45.1208 	 -85.4133
| 30> H 	 -104.971 	 45.0579 	 -84.7437
| 31> H 	 -105.639 	 44.4371 	 -86.1947
| 32> C 	 -107.068 	 44.6378 	 -84.6863
| 33> H 	 -107.882 	 45.17 	 -85.234
| 34> H 	 -107.131 	 45.1731 	 -83.6938
| 35> C 	 -107.212 	 43.1545 	 -84.7144
| 36> H 	 -106.321 	 42.6013 	 -84.3934
| 37> H 	 -107.306 	 42.9472 	 -85.7639
| 38> H 	 -108.073 	 42.7788 	 -84.2349
| 39> H 	 -105.121 	 45.0965 	 -92.1227
| 40> H 	 -105.395 	 49.7719 	 -85.5045
| 41> *
| 42>
| 43>                          ****END OF INPUT****

CARTESIAN COORDINATES (ANGSTROEM)
---------------------------------
  S    -104.878000   46.737900  -90.136700
  C    -105.285000   45.291200  -91.043300
  C    -105.937000   44.349500  -90.191800
  C    -106.167000   44.801800  -88.861000
  C    -105.614000   46.061100  -88.609200
  H    -106.672000   44.236100  -88.096900
  C    -106.353000   42.998600  -90.660200
  H    -106.592000   43.079300  -91.728700
  H    -107.294000   42.848900  -90.208100
  C    -105.278000   41.804900  -90.530800
  H    -105.567000   40.900400  -91.052100
  H    -104.354000   42.138100  -91.045400
  C    -104.740000   41.428600  -89.036600
  H    -105.497000   40.971600  -88.442100
  H    -103.954000   40.621300  -89.125800
  H    -104.326000   42.295000  -88.564800
  S    -105.517000   48.588500  -87.620000
  C    -105.530000   48.880100  -85.967100
  C    -105.762000   47.724700  -85.255500
  C    -105.765000   46.503100  -85.990500
  C    -105.645000   46.871400  -87.372000
  H    -105.835000   47.851200  -84.146700
  C    -105.828000   45.120800  -85.413300
  H    -104.971000   45.057900  -84.743700
  H    -105.639000   44.437100  -86.194700
  C    -107.068000   44.637800  -84.686300
  H    -107.882000   45.170000  -85.234000
  H    -107.131000   45.173100  -83.693800
  C    -107.212000   43.154500  -84.714400
  H    -106.321000   42.601300  -84.393400
  H    -107.306000   42.947200  -85.763900
  H    -108.073000   42.778800  -84.234900
  H    -105.121000   45.096500  -92.122700
  H    -105.395000   49.771900  -85.504500

 Total Charge           Charge          ....    0
 Multiplicity           Mult            ....    1
 Number of Electrons    NEL             ....  134
 Basis Dimension        Dim             ....  322

ORBITAL ENERGIES
----------------

  NO   OCC          E(Eh)            E(eV)
   0   2.0000     -88.969635     -2420.9869
   1   2.0000     -88.968469     -2420.9551
   2   2.0000     -10.339971      -281.3649
   3   2.0000     -10.332963      -281.1742
   4   2.0000     -10.320273      -280.8289
   5   2.0000     -10.311101      -280.5793
   6   2.0000     -10.303972      -280.3853
   7   2.0000     -10.302796      -280.3533
   8   2.0000     -10.299505      -280.2638
   9   2.0000     -10.297272      -280.2030
  10   2.0000     -10.294380      -280.1243
  11   2.0000     -10.291860      -280.0557
  12   2.0000     -10.290841      -280.0280
  13   2.0000     -10.288338      -279.9599
  14   2.0000     -10.282005      -279.7876
  15   2.0000     -10.278489      -279.6919
  16   2.0000      -8.084589      -219.9929
  17   2.0000      -8.082676      -219.9408
  18   2.0000      -6.042865      -164.4347
  19   2.0000      -6.041393      -164.3947
  20   2.0000      -6.038880      -164.3263
  21   2.0000      -6.037366      -164.2851
  22   2.0000      -6.035528      -164.2351
  23   2.0000      -6.033367      -164.1763
  24   2.0000      -1.008051       -27.4305
  25   2.0000      -0.978527       -26.6271
  26   2.0000      -0.922922       -25.1140
  27   2.0000      -0.897602       -24.4250
  28   2.0000      -0.864596       -23.5268
  29   2.0000      -0.858800       -23.3691
  30   2.0000      -0.841063       -22.8865
  31   2.0000      -0.815167       -22.1818
  32   2.0000      -0.789842       -21.4927
  33   2.0000      -0.767709       -20.8904
  34   2.0000      -0.708659       -19.2836
  35   2.0000      -0.704914       -19.1817
  36   2.0000      -0.700594       -19.0641
  37   2.0000      -0.656770       -17.8716
  38   2.0000      -0.633565       -17.2402
  39   2.0000      -0.622951       -16.9514
  40   2.0000      -0.603520       -16.4226
  41   2.0000      -0.570982       -15.5372
  42   2.0000      -0.563220       -15.3260
  43   2.0000      -0.537406       -14.6236
  44   2.0000      -0.536248       -14.5920
  45   2.0000      -0.529534       -14.4094
  46   2.0000      -0.516954       -14.0670
  47   2.0000      -0.513594       -13.9756
  48   2.0000      -0.509881       -13.8746
  49   2.0000      -0.499569       -13.5940
  50   2.0000      -0.491594       -13.3769
  51   2.0000      -0.484193       -13.1756
  52   2.0000      -0.471945       -12.8423
  53   2.0000      -0.467877       -12.7316
  54   2.0000      -0.460734       -12.5372
  55   2.0000      -0.455533       -12.3957
  56   2.0000      -0.446619       -12.1531
  57   2.0000      -0.436892       -11.8884
  58   2.0000      -0.434575       -11.8254
  59   2.0000      -0.430597       -11.7171
  60   2.0000      -0.422148       -11.4872
  61   2.0000      -0.412622       -11.2280
  62   2.0000      -0.408607       -11.1188
  63   2.0000      -0.357073        -9.7164
  64   2.0000      -0.335040        -9.1169
  65   2.0000      -0.328928        -8.9506
  66   2.0000      -0.278113        -7.5679
  67   0.0000       0.016547         0.4503
  68   0.0000       0.081282         2.2118
  69   0.0000       0.099560         2.7092
  70   0.0000       0.114889         3.1263
  71   0.0000       0.128218         3.4890

MULLIKEN ATOMIC CHARGES
-----------------------
   0 S :    0.097114
   1 C :   -0.120579
   2 C :   -0.126194
   3 C :    0.026096
   4 C :   -0.120531
   5 H :    0.004252
   6 C :    0.083286
   7 H :    0.020291
   8 H :    0.015801
   9 C :   -0.074150
  10 H :    0.035632
  11 H :    0.031805
  12 C :   -0.077477
  13 H :    0.027686
  14 H :    0.038451
  15 H :    0.048847
  16 S :    0.122826
  17 C :   -0.043537
  18 C :   -0.066097
  19 C :   -0.042554
  20 C :   -0.157416
  21 H :    0.027167
  22 C :    0.097289
  23 H :    0.032848
  24 H :   -0.014874
  25 C :   -0.092816
  26 H :    0.030546
  27 H :    0.031238
  28 C :    0.002045
  29 H :    0.037032
  30 H :    0.015035
  31 H :    0.032934
  32 H :    0.065162
  33 H :    0.012841
Sum of atomic charges:    0.0000000

LOEWDIN ATOMIC CHARGES
----------------------
   0 S :    0.374436
   1 C :   -0.208512
   2 C :   -0.064157
   3 C :   -0.068399
   4 C :   -0.163515
   5 H :    0.028786
   6 C :   -0.035182
   7 H :    0.034404
   8 H :    0.023376
   9 C :   -0.033580
  10 H :    0.021233
  11 H :    0.027235
  12 C :   -0.068349
  13 H :    0.015805
  14 H :    0.033414
  15 H :    0.022380
  16 S :    0.446499
  17 C :   -0.198308
  18 C :   -0.075069
  19 C :   -0.050427
  20 C :   -0.199874
  21 H :    0.035420
  22 C :   -0.032184
  23 H :    0.036431
  24 H :    0.020240
  25 C :   -0.048111
  26 H :    0.028580
  27 H :    0.024979
  28 C :   -0.057506
  29 H :    0.030545
  30 H :    0.025788
  31 H :    0.024559
  32 H :    0.038821
  33 H :    0.010242

  Mayer bond orders larger than 0.100000
B(  0-S ,  1-C ) :   1.1318 B(  0-S ,  4-C ) :   1.1410 B(  1-C ,  2-C ) :   1.5867
B(  1-C ,  4-C ) :   0.1045 B(  1-C , 32-H ) :   0.9625 B(  2-C ,  3-C ) :   1.2594
B(  2-C ,  6-C ) :   1.0334 B(  3-C ,  4-C ) :   1.5480 B(  3-C ,  5-H ) :   0.9886
B(  4-C , 20-C ) :   1.0749 B(  6-C ,  7-H ) :   0.9378 B(  6-C ,  8-H ) :   0.9435
B(  6-C ,  9-C ) :   1.0432 B(  9-C , 10-H ) :   0.9637 B(  9-C , 11-H ) :   0.9596
B(  9-C , 12-C ) :   1.0650 B( 12-C , 13-H ) :   0.9808 B( 12-C , 14-H ) :   0.9763
B( 12-C , 15-H ) :   0.9780 B( 16-S , 17-C ) :   1.1673 B( 16-S , 20-C ) :   1.1722
B( 17-C , 18-C ) :   1.5938 B( 17-C , 33-H ) :   0.9803 B( 18-C , 19-C ) :   1.2610
B( 18-C , 21-H ) :   0.9828 B( 19-C , 20-C ) :   1.5204 B( 19-C , 22-C ) :   1.0563
B( 22-C , 23-H ) :   0.9129 B( 22-C , 24-H ) :   0.9281 B( 22-C , 25-C ) :   1.0516
B( 25-C , 26-H ) :   0.9594 B( 25-C , 27-H ) :   0.9472 B( 25-C , 28-C ) :   1.0790
B( 28-C , 29-H ) :   0.9724 B( 28-C , 30-H ) :   0.9704 B( 28-C , 31-H ) :   0.9699

Dispersion correction           -0.014515451
FINAL SINGLE POINT ENERGY     -1339.867594573646

DIPOLE MOMENT
-------------
                                X             Y             Z
Electronic contribution:      4.73805      29.96063      -9.01041
Nuclear contribution   :     -4.90951     -30.50088       9.32154
                        -----------------------------------------
Total Dipole Moment    :     -0.17146      -0.54025       0.31112
                        -----------------------------------------
Magnitude (a.u.)       :      0.64658
Magnitude (Debye)      :      1.64347

Rotational constants in cm-1:     0.016431     0.010285     0.006675
Rotational constants in MHz :   492.589057   308.332249   200.108547

                             ****ORCA TERMINATED NORMALLY****
TOTAL RUN TIME: 0 days 0 hours 0 minutes 20 seconds 817 msec
