                         Program Version 4.2.1 -  RELEASE  -
|  1> ! wB97X-D3 SP def2-SVP
|  2> %pal
|  3> nprocs 24
|  4> end
|  5>
|  6> * xyz 0 1
|  7> S 	 -44.2071 	 12.1849 	 24.0273
|  8> C 	 -43.7923 	 13.5594 	 23.059
|  9> C 	 -44.6433 	 14.5926 	 23.3617
| 10> C 	 -45.723 	 14.2013 	 24.2544
| 11> C 	 -45.7412 	 12.8418 	 24.5378
| 12> H 	 -46.5416 	 14.8778 	 24.6009
| 13> C 	 -44.5201 	 16.0215 	 22.9671
| 14> H 	 -45.3835 	 16.6079 	 23.1286
| 15> H 	 -44.4235 	 15.9849 	 21.8376
| 16> C 	 -43.3162 	 16.8533 	 23.3918
| 17> H 	 -42.3717 	 16.3305 	 23.1151
| 18> H 	 -43.36 	 17.8121 	 22.8652
| 19> C 	 -43.1859 	 17.0563 	 24.918
| 20> H 	 -42.3391 	 17.6251 	 25.2268
| 21> H 	 -44.1839 	 17.5193 	 25.174
| 22> H 	 -43.1279 	 16.0956 	 25.3547
| 23> S 	 -46.0066 	 10.9819 	 26.5414
| 24> C 	 -47.5278 	 10.694 	 27.2922
| 25> C 	 -48.4446 	 11.5652 	 26.7527
| 26> C 	 -47.9697 	 12.2858 	 25.6262
| 27> C 	 -46.6407 	 12.1962 	 25.4724
| 28> H 	 -49.4535 	 11.6515 	 27.0338
| 29> C 	 -48.8533 	 13.1122 	 24.6927
| 30> H 	 -48.8314 	 14.1868 	 24.916
| 31> H 	 -49.7935 	 12.8041 	 25.0202
| 32> C 	 -48.825 	 12.9093 	 23.1972
| 33> H 	 -49.2786 	 11.9487 	 22.945
| 34> H 	 -47.8352 	 12.8876 	 22.7127
| 35> C 	 -49.7026 	 13.9867 	 22.5523
| 36> H 	 -49.3765 	 14.9838 	 22.8865
| 37> H 	 -50.8319 	 13.9355 	 22.5606
| 38> H 	 -49.5135 	 14.0639 	 21.4654
| 39> H 	 -43.0049 	 13.7152 	 22.4211
| 40> H 	 -47.6756 	 10.0333 	 28.0971
| 41> *
| 42>
| 43>                          ****END OF INPUT****

CARTESIAN COORDINATES (ANGSTROEM)
---------------------------------
  S    -44.207100   12.184900   24.027300
  C    -43.792300   13.559400   23.059000
  C    -44.643300   14.592600   23.361700
  C    -45.723000   14.201300   24.254400
  C    -45.741200   12.841800   24.537800
  H    -46.541600   14.877800   24.600900
  C    -44.520100   16.021500   22.967100
  H    -45.383500   16.607900   23.128600
  H    -44.423500   15.984900   21.837600
  C    -43.316200   16.853300   23.391800
  H    -42.371700   16.330500   23.115100
  H    -43.360000   17.812100   22.865200
  C    -43.185900   17.056300   24.918000
  H    -42.339100   17.625100   25.226800
  H    -44.183900   17.519300   25.174000
  H    -43.127900   16.095600   25.354700
  S    -46.006600   10.981900   26.541400
  C    -47.527800   10.694000   27.292200
  C    -48.444600   11.565200   26.752700
  C    -47.969700   12.285800   25.626200
  C    -46.640700   12.196200   25.472400
  H    -49.453500   11.651500   27.033800
  C    -48.853300   13.112200   24.692700
  H    -48.831400   14.186800   24.916000
  H    -49.793500   12.804100   25.020200
  C    -48.825000   12.909300   23.197200
  H    -49.278600   11.948700   22.945000
  H    -47.835200   12.887600   22.712700
  C    -49.702600   13.986700   22.552300
  H    -49.376500   14.983800   22.886500
  H    -50.831900   13.935500   22.560600
  H    -49.513500   14.063900   21.465400
  H    -43.004900   13.715200   22.421100
  H    -47.675600   10.033300   28.097100

 Total Charge           Charge          ....    0
 Multiplicity           Mult            ....    1
 Number of Electrons    NEL             ....  134
 Basis Dimension        Dim             ....  322

ORBITAL ENERGIES
----------------

  NO   OCC          E(Eh)            E(eV)
   0   2.0000     -88.968213     -2420.9482
   1   2.0000     -88.962043     -2420.7803
   2   2.0000     -10.331507      -281.1346
   3   2.0000     -10.320310      -280.8299
   4   2.0000     -10.314785      -280.6796
   5   2.0000     -10.309660      -280.5401
   6   2.0000     -10.301768      -280.3254
   7   2.0000     -10.298499      -280.2364
   8   2.0000     -10.294376      -280.1242
   9   2.0000     -10.290656      -280.0230
  10   2.0000     -10.290238      -280.0116
  11   2.0000     -10.288098      -279.9534
  12   2.0000     -10.285768      -279.8900
  13   2.0000     -10.285126      -279.8725
  14   2.0000     -10.282307      -279.7958
  15   2.0000     -10.272278      -279.5229
  16   2.0000      -8.083025      -219.9503
  17   2.0000      -8.077955      -219.8123
  18   2.0000      -6.041686      -164.4026
  19   2.0000      -6.037541      -164.2899
  20   2.0000      -6.036437      -164.2598
  21   2.0000      -6.033588      -164.1823
  22   2.0000      -6.032236      -164.1455
  23   2.0000      -6.028736      -164.0502
  24   2.0000      -1.016427       -27.6584
  25   2.0000      -0.992757       -27.0143
  26   2.0000      -0.915402       -24.9094
  27   2.0000      -0.913414       -24.8553
  28   2.0000      -0.875145       -23.8139
  29   2.0000      -0.854415       -23.2498
  30   2.0000      -0.844244       -22.9730
  31   2.0000      -0.817745       -22.2520
  32   2.0000      -0.782734       -21.2993
  33   2.0000      -0.777445       -21.1553
  34   2.0000      -0.713528       -19.4161
  35   2.0000      -0.699893       -19.0450
  36   2.0000      -0.694127       -18.8881
  37   2.0000      -0.674526       -18.3548
  38   2.0000      -0.640744       -17.4355
  39   2.0000      -0.612065       -16.6551
  40   2.0000      -0.601312       -16.3625
  41   2.0000      -0.582788       -15.8585
  42   2.0000      -0.567043       -15.4300
  43   2.0000      -0.551342       -15.0028
  44   2.0000      -0.546775       -14.8785
  45   2.0000      -0.527411       -14.3516
  46   2.0000      -0.521405       -14.1882
  47   2.0000      -0.512990       -13.9592
  48   2.0000      -0.507024       -13.7968
  49   2.0000      -0.503612       -13.7040
  50   2.0000      -0.492265       -13.3952
  51   2.0000      -0.484071       -13.1722
  52   2.0000      -0.471060       -12.8182
  53   2.0000      -0.467321       -12.7165
  54   2.0000      -0.461734       -12.5644
  55   2.0000      -0.451776       -12.2934
  56   2.0000      -0.443707       -12.0739
  57   2.0000      -0.437179       -11.8962
  58   2.0000      -0.432872       -11.7790
  59   2.0000      -0.422234       -11.4896
  60   2.0000      -0.418367       -11.3843
  61   2.0000      -0.411436       -11.1958
  62   2.0000      -0.403251       -10.9730
  63   2.0000      -0.360308        -9.8045
  64   2.0000      -0.332188        -9.0393
  65   2.0000      -0.324801        -8.8383
  66   2.0000      -0.290447        -7.9035
  67   0.0000       0.022755         0.6192
  68   0.0000       0.077818         2.1175
  69   0.0000       0.105088         2.8596
  70   0.0000       0.118260         3.2180
  71   0.0000       0.138854         3.7784

MULLIKEN ATOMIC CHARGES
-----------------------
   0 S :    0.106934
   1 C :   -0.061678
   2 C :   -0.086733
   3 C :   -0.012454
   4 C :   -0.125306
   5 H :    0.030587
   6 C :    0.049196
   7 H :    0.010120
   8 H :    0.037874
   9 C :   -0.085222
  10 H :    0.020616
  11 H :    0.034624
  12 C :   -0.037954
  13 H :    0.038778
  14 H :    0.024761
  15 H :    0.034514
  16 S :    0.094274
  17 C :   -0.063221
  18 C :   -0.001951
  19 C :   -0.083761
  20 C :   -0.120379
  21 H :   -0.004224
  22 C :    0.089575
  23 H :    0.030519
  24 H :   -0.014923
  25 C :   -0.044822
  26 H :    0.026980
  27 H :    0.056797
  28 C :   -0.089184
  29 H :    0.018762
  30 H :    0.047512
  31 H :    0.025405
  32 H :    0.007984
  33 H :    0.046000
Sum of atomic charges:   -0.0000000

LOEWDIN ATOMIC CHARGES
----------------------
   0 S :    0.415911
   1 C :   -0.189303
   2 C :   -0.063474
   3 C :   -0.064602
   4 C :   -0.192637
   5 H :    0.036934
   6 C :   -0.040499
   7 H :    0.022004
   8 H :    0.045106
   9 C :   -0.040756
  10 H :    0.020208
  11 H :    0.024477
  12 C :   -0.062448
  13 H :    0.022505
  14 H :    0.027722
  15 H :    0.021886
  16 S :    0.415039
  17 C :   -0.180426
  18 C :   -0.064150
  19 C :   -0.065456
  20 C :   -0.193227
  21 H :    0.021789
  22 C :   -0.031261
  23 H :    0.028547
  24 H :    0.023195
  25 C :   -0.039402
  26 H :    0.027755
  27 H :    0.031963
  28 C :   -0.076677
  29 H :    0.020636
  30 H :    0.031713
  31 H :    0.028024
  32 H :    0.015373
  33 H :    0.023533

  Mayer bond orders larger than 0.100000
B(  0-S ,  1-C ) :   1.1319 B(  0-S ,  4-C ) :   1.1470 B(  1-C ,  2-C ) :   1.5954
B(  1-C , 32-H ) :   0.9822 B(  2-C ,  3-C ) :   1.2439 B(  2-C ,  6-C ) :   1.0325
B(  3-C ,  4-C ) :   1.5346 B(  3-C ,  5-H ) :   0.9876 B(  4-C , 20-C ) :   1.0727
B(  6-C ,  7-H ) :   0.9445 B(  6-C ,  8-H ) :   0.9277 B(  6-C ,  9-C ) :   1.0809
B(  9-C , 10-H ) :   0.9545 B(  9-C , 11-H ) :   0.9547 B(  9-C , 12-C ) :   1.0675
B( 12-C , 13-H ) :   0.9762 B( 12-C , 14-H ) :   0.9765 B( 12-C , 15-H ) :   0.9766
B( 16-S , 17-C ) :   1.1637 B( 16-S , 20-C ) :   1.1281 B( 17-C , 18-C ) :   1.5741
B( 17-C , 33-H ) :   0.9783 B( 18-C , 19-C ) :   1.2763 B( 18-C , 21-H ) :   0.9923
B( 19-C , 20-C ) :   1.6168 B( 19-C , 22-C ) :   1.0200 B( 22-C , 23-H ) :   0.9386
B( 22-C , 24-H ) :   0.9165 B( 22-C , 25-C ) :   1.0655 B( 25-C , 26-H ) :   0.9499
B( 25-C , 27-H ) :   0.9544 B( 25-C , 28-C ) :   1.0772 B( 28-C , 29-H ) :   0.9727
B( 28-C , 30-H ) :   0.9769 B( 28-C , 31-H ) :   0.9716

Dispersion correction           -0.014749917
FINAL SINGLE POINT ENERGY     -1339.866737023646

DIPOLE MOMENT
-------------
                                X             Y             Z
Electronic contribution:      7.74174     -23.00792      10.89626
Nuclear contribution   :     -8.07422      23.51279     -11.06891
                        -----------------------------------------
Total Dipole Moment    :     -0.33248       0.50487      -0.17265
                        -----------------------------------------
Magnitude (a.u.)       :      0.62868
Magnitude (Debye)      :      1.59799

Rotational constants in cm-1:     0.018467     0.009232     0.007363
Rotational constants in MHz :   553.631990   276.755518   220.744985

                             ****ORCA TERMINATED NORMALLY****
TOTAL RUN TIME: 0 days 0 hours 0 minutes 21 seconds 165 msec
