                         Program Version 4.2.1 -  RELEASE  -
|  1> ! wB97X-D3 SP def2-SVP
|  2> %pal
|  3> nprocs 24
|  4> end
|  5>
|  6> * xyz 0 1
|  7> S 	 -109.466 	 35.7654 	 -16.9491
|  8> C 	 -109.863 	 34.8657 	 -15.4999
|  9> C 	 -109.577 	 33.5387 	 -15.6327
| 10> C 	 -108.968 	 33.227 	 -16.8941
| 11> C 	 -108.875 	 34.3231 	 -17.7323
| 12> H 	 -108.645 	 32.2918 	 -17.34
| 13> C 	 -109.658 	 32.4225 	 -14.6364
| 14> H 	 -110.107 	 32.7359 	 -13.6485
| 15> H 	 -108.663 	 31.9773 	 -14.5669
| 16> C 	 -110.568 	 31.2644 	 -15.0642
| 17> H 	 -111.55 	 31.628 	 -15.3395
| 18> H 	 -110.09 	 30.8509 	 -15.9537
| 19> C 	 -110.809 	 30.057 	 -14.071
| 20> H 	 -111.242 	 29.2234 	 -14.6322
| 21> H 	 -109.798 	 29.8316 	 -13.6923
| 22> H 	 -111.614 	 30.2717 	 -13.3053
| 23> S 	 -107.231 	 35.5375 	 -19.5435
| 24> C 	 -107.163 	 34.8841 	 -21.2381
| 25> C 	 -107.953 	 33.7921 	 -21.3681
| 26> C 	 -108.592 	 33.448 	 -20.1702
| 27> C 	 -108.348 	 34.2797 	 -19.0895
| 28> H 	 -108.066 	 33.4128 	 -22.3756
| 29> C 	 -109.574 	 32.27 	 -20.1586
| 30> H 	 -110.366 	 32.5202 	 -20.8518
| 31> H 	 -110.082 	 32.2525 	 -19.1635
| 32> C 	 -109.106 	 30.8853 	 -20.5799
| 33> H 	 -108.147 	 30.5308 	 -20.0439
| 34> H 	 -109.004 	 30.8786 	 -21.6964
| 35> C 	 -110.173 	 29.7905 	 -20.4948
| 36> H 	 -110.422 	 29.6312 	 -19.4753
| 37> H 	 -109.712 	 28.8219 	 -20.7788
| 38> H 	 -110.972 	 30.0231 	 -21.2113
| 39> H 	 -110.282 	 35.3462 	 -14.6314
| 40> H 	 -106.787 	 35.4444 	 -22.0762
| 41> *
| 42>
| 43>                          ****END OF INPUT****

CARTESIAN COORDINATES (ANGSTROEM)
---------------------------------
  S    -109.466000   35.765400  -16.949100
  C    -109.863000   34.865700  -15.499900
  C    -109.577000   33.538700  -15.632700
  C    -108.968000   33.227000  -16.894100
  C    -108.875000   34.323100  -17.732300
  H    -108.645000   32.291800  -17.340000
  C    -109.658000   32.422500  -14.636400
  H    -110.107000   32.735900  -13.648500
  H    -108.663000   31.977300  -14.566900
  C    -110.568000   31.264400  -15.064200
  H    -111.550000   31.628000  -15.339500
  H    -110.090000   30.850900  -15.953700
  C    -110.809000   30.057000  -14.071000
  H    -111.242000   29.223400  -14.632200
  H    -109.798000   29.831600  -13.692300
  H    -111.614000   30.271700  -13.305300
  S    -107.231000   35.537500  -19.543500
  C    -107.163000   34.884100  -21.238100
  C    -107.953000   33.792100  -21.368100
  C    -108.592000   33.448000  -20.170200
  C    -108.348000   34.279700  -19.089500
  H    -108.066000   33.412800  -22.375600
  C    -109.574000   32.270000  -20.158600
  H    -110.366000   32.520200  -20.851800
  H    -110.082000   32.252500  -19.163500
  C    -109.106000   30.885300  -20.579900
  H    -108.147000   30.530800  -20.043900
  H    -109.004000   30.878600  -21.696400
  C    -110.173000   29.790500  -20.494800
  H    -110.422000   29.631200  -19.475300
  H    -109.712000   28.821900  -20.778800
  H    -110.972000   30.023100  -21.211300
  H    -110.282000   35.346200  -14.631400
  H    -106.787000   35.444400  -22.076200

 Total Charge           Charge          ....    0
 Multiplicity           Mult            ....    1
 Number of Electrons    NEL             ....  134
 Basis Dimension        Dim             ....  322

ORBITAL ENERGIES
----------------

  NO   OCC          E(Eh)            E(eV)
   0   2.0000     -88.967852     -2420.9383
   1   2.0000     -88.962928     -2420.8044
   2   2.0000     -10.329452      -281.0787
   3   2.0000     -10.327892      -281.0362
   4   2.0000     -10.317602      -280.7562
   5   2.0000     -10.315578      -280.7012
   6   2.0000     -10.303456      -280.3713
   7   2.0000     -10.303386      -280.3694
   8   2.0000     -10.296422      -280.1799
   9   2.0000     -10.294719      -280.1335
  10   2.0000     -10.293649      -280.1044
  11   2.0000     -10.291888      -280.0565
  12   2.0000     -10.290603      -280.0215
  13   2.0000     -10.289439      -279.9899
  14   2.0000     -10.286389      -279.9069
  15   2.0000     -10.279638      -279.7232
  16   2.0000      -8.082702      -219.9415
  17   2.0000      -8.077178      -219.7912
  18   2.0000      -6.041284      -164.3917
  19   2.0000      -6.037199      -164.2805
  20   2.0000      -6.035788      -164.2421
  21   2.0000      -6.033375      -164.1765
  22   2.0000      -6.031787      -164.1333
  23   2.0000      -6.027820      -164.0253
  24   2.0000      -1.009149       -27.4603
  25   2.0000      -0.986435       -26.8423
  26   2.0000      -0.912654       -24.8346
  27   2.0000      -0.907334       -24.6898
  28   2.0000      -0.874985       -23.8096
  29   2.0000      -0.852433       -23.1959
  30   2.0000      -0.845836       -23.0164
  31   2.0000      -0.818963       -22.2851
  32   2.0000      -0.781259       -21.2591
  33   2.0000      -0.772202       -21.0127
  34   2.0000      -0.706512       -19.2252
  35   2.0000      -0.692898       -18.8547
  36   2.0000      -0.686678       -18.6855
  37   2.0000      -0.660884       -17.9836
  38   2.0000      -0.645830       -17.5739
  39   2.0000      -0.620836       -16.8938
  40   2.0000      -0.593272       -16.1437
  41   2.0000      -0.577726       -15.7207
  42   2.0000      -0.576690       -15.6925
  43   2.0000      -0.563884       -15.3441
  44   2.0000      -0.525928       -14.3112
  45   2.0000      -0.522310       -14.2128
  46   2.0000      -0.519481       -14.1358
  47   2.0000      -0.512357       -13.9419
  48   2.0000      -0.507418       -13.8075
  49   2.0000      -0.499794       -13.6001
  50   2.0000      -0.492817       -13.4102
  51   2.0000      -0.481897       -13.1131
  52   2.0000      -0.472737       -12.8638
  53   2.0000      -0.470647       -12.8070
  54   2.0000      -0.458038       -12.4638
  55   2.0000      -0.450261       -12.2522
  56   2.0000      -0.443648       -12.0723
  57   2.0000      -0.436113       -11.8672
  58   2.0000      -0.429488       -11.6870
  59   2.0000      -0.420439       -11.4407
  60   2.0000      -0.417599       -11.3634
  61   2.0000      -0.411662       -11.2019
  62   2.0000      -0.407739       -11.0952
  63   2.0000      -0.352758        -9.5990
  64   2.0000      -0.332398        -9.0450
  65   2.0000      -0.330997        -9.0069
  66   2.0000      -0.294033        -8.0011
  67   0.0000       0.027128         0.7382
  68   0.0000       0.076151         2.0722
  69   0.0000       0.109288         2.9739
  70   0.0000       0.116461         3.1691
  71   0.0000       0.123853         3.3702

MULLIKEN ATOMIC CHARGES
-----------------------
   0 S :    0.115208
   1 C :   -0.132838
   2 C :   -0.032631
   3 C :    0.003820
   4 C :   -0.145040
   5 H :    0.018971
   6 C :    0.083964
   7 H :    0.025510
   8 H :    0.035841
   9 C :   -0.127313
  10 H :    0.025783
  11 H :    0.021790
  12 C :   -0.054627
  13 H :    0.038717
  14 H :    0.037364
  15 H :    0.046350
  16 S :    0.080821
  17 C :   -0.093823
  18 C :   -0.032025
  19 C :    0.000584
  20 C :   -0.156253
  21 H :    0.025452
  22 C :    0.052082
  23 H :    0.020079
  24 H :    0.026016
  25 C :   -0.119771
  26 H :    0.045919
  27 H :    0.028968
  28 C :   -0.036993
  29 H :    0.022889
  30 H :    0.032739
  31 H :    0.040107
  32 H :    0.045510
  33 H :    0.056831
Sum of atomic charges:   -0.0000000

LOEWDIN ATOMIC CHARGES
----------------------
   0 S :    0.405948
   1 C :   -0.190778
   2 C :   -0.062712
   3 C :   -0.060543
   4 C :   -0.193276
   5 H :    0.032603
   6 C :   -0.033928
   7 H :    0.032408
   8 H :    0.035219
   9 C :   -0.044503
  10 H :    0.019235
  11 H :    0.016834
  12 C :   -0.069663
  13 H :    0.029106
  14 H :    0.026543
  15 H :    0.031761
  16 S :    0.375241
  17 C :   -0.158240
  18 C :   -0.067338
  19 C :   -0.059863
  20 C :   -0.195787
  21 H :    0.038632
  22 C :   -0.041982
  23 H :    0.031185
  24 H :    0.030035
  25 C :   -0.052640
  26 H :    0.030025
  27 H :    0.027223
  28 C :   -0.062224
  29 H :    0.015713
  30 H :    0.031161
  31 H :    0.028127
  32 H :    0.028582
  33 H :    0.027895

  Mayer bond orders larger than 0.100000
B(  0-S ,  1-C ) :   1.1247 B(  0-S ,  4-C ) :   1.1495 B(  1-C ,  2-C ) :   1.6264
B(  1-C , 32-H ) :   0.9726 B(  2-C ,  3-C ) :   1.1933 B(  2-C ,  6-C ) :   1.0398
B(  3-C ,  4-C ) :   1.5891 B(  3-C ,  5-H ) :   0.9949 B(  4-C , 20-C ) :   1.0427
B(  6-C ,  7-H ) :   0.9437 B(  6-C ,  8-H ) :   0.9332 B(  6-C ,  9-C ) :   1.0571
B(  9-C , 10-H ) :   0.9580 B(  9-C , 11-H ) :   0.9577 B(  9-C , 12-C ) :   1.0801
B( 12-C , 13-H ) :   0.9748 B( 12-C , 14-H ) :   0.9741 B( 12-C , 15-H ) :   0.9764
B( 16-S , 17-C ) :   1.1307 B( 16-S , 20-C ) :   1.1320 B( 17-C , 18-C ) :   1.6443
B( 17-C , 33-H ) :   0.9637 B( 18-C , 19-C ) :   1.2188 B( 18-C , 21-H ) :   0.9932
B( 19-C , 20-C ) :   1.6071 B( 19-C , 22-C ) :   1.0397 B( 22-C , 23-H ) :   0.9271
B( 22-C , 24-H ) :   0.9377 B( 22-C , 25-C ) :   1.0627 B( 25-C , 26-H ) :   0.9572
B( 25-C , 27-H ) :   0.9517 B( 25-C , 28-C ) :   1.0836 B( 28-C , 29-H ) :   0.9747
B( 28-C , 30-H ) :   0.9731 B( 28-C , 31-H ) :   0.9754

Dispersion correction           -0.013736105
FINAL SINGLE POINT ENERGY     -1339.876063137927

DIPOLE MOMENT
-------------
                                X             Y             Z
Electronic contribution:     11.69157      31.47238      -4.52771
Nuclear contribution   :    -12.03383     -32.11282       4.38452
                        -----------------------------------------
Total Dipole Moment    :     -0.34226      -0.64044      -0.14320
                        -----------------------------------------
Magnitude (a.u.)       :      0.74014
Magnitude (Debye)      :      1.88130

Rotational constants in cm-1:     0.016058     0.009683     0.006384
Rotational constants in MHz :   481.398311   290.274524   191.381452

                             ****ORCA TERMINATED NORMALLY****
TOTAL RUN TIME: 0 days 0 hours 0 minutes 21 seconds 792 msec
