                         Program Version 4.2.1 -  RELEASE  -
|  1> ! wB97X-D3 SP def2-SVP
|  2> %pal
|  3> nprocs 24
|  4> end
|  5>
|  6> * xyz 0 1
|  7> S 	 -43.77 	 19.3727 	 30.0137
|  8> C 	 -43.8399 	 18.6172 	 28.5126
|  9> C 	 -44.9531 	 19.0189 	 27.8619
| 10> C 	 -45.9431 	 19.6449 	 28.7292
| 11> C 	 -45.4777 	 19.8844 	 30.0129
| 12> H 	 -46.9128 	 20.0142 	 28.3963
| 13> C 	 -45.3255 	 18.5163 	 26.4716
| 14> H 	 -46.4272 	 18.5328 	 26.5145
| 15> H 	 -45.1027 	 17.452 	 26.3559
| 16> C 	 -44.7946 	 19.3863 	 25.2285
| 17> H 	 -45.0417 	 20.4567 	 25.3425
| 18> H 	 -43.7351 	 19.3456 	 25.2939
| 19> C 	 -45.2492 	 18.7914 	 23.9153
| 20> H 	 -44.9051 	 19.3086 	 23.0242
| 21> H 	 -44.8296 	 17.7823 	 23.8405
| 22> H 	 -46.3476 	 18.8146 	 23.8986
| 23> S 	 -47.5924 	 19.7599 	 31.9017
| 24> C 	 -47.857 	 21.0753 	 32.9167
| 25> C 	 -46.8243 	 21.9827 	 32.8043
| 26> C 	 -45.8522 	 21.7068 	 31.7879
| 27> C 	 -46.1508 	 20.5239 	 31.1587
| 28> H 	 -46.8308 	 22.8032 	 33.4985
| 29> C 	 -44.7875 	 22.6892 	 31.5121
| 30> H 	 -45.1925 	 23.6587 	 31.7443
| 31> H 	 -44.5856 	 22.6648 	 30.4267
| 32> C 	 -43.475 	 22.441 	 32.1467
| 33> H 	 -42.8827 	 23.29 	 31.8149
| 34> H 	 -43.0204 	 21.509 	 31.7762
| 35> C 	 -43.6424 	 22.5094 	 33.6494
| 36> H 	 -44.1581 	 21.6894 	 34.0598
| 37> H 	 -44.3409 	 23.2851 	 34.0296
| 38> H 	 -42.6972 	 22.5873 	 34.2522
| 39> H 	 -43.0268 	 18.2612 	 27.9768
| 40> H 	 -48.783 	 21.2656 	 33.3854
| 41> *
| 42>
| 43>                          ****END OF INPUT****

CARTESIAN COORDINATES (ANGSTROEM)
---------------------------------
  S    -43.770000   19.372700   30.013700
  C    -43.839900   18.617200   28.512600
  C    -44.953100   19.018900   27.861900
  C    -45.943100   19.644900   28.729200
  C    -45.477700   19.884400   30.012900
  H    -46.912800   20.014200   28.396300
  C    -45.325500   18.516300   26.471600
  H    -46.427200   18.532800   26.514500
  H    -45.102700   17.452000   26.355900
  C    -44.794600   19.386300   25.228500
  H    -45.041700   20.456700   25.342500
  H    -43.735100   19.345600   25.293900
  C    -45.249200   18.791400   23.915300
  H    -44.905100   19.308600   23.024200
  H    -44.829600   17.782300   23.840500
  H    -46.347600   18.814600   23.898600
  S    -47.592400   19.759900   31.901700
  C    -47.857000   21.075300   32.916700
  C    -46.824300   21.982700   32.804300
  C    -45.852200   21.706800   31.787900
  C    -46.150800   20.523900   31.158700
  H    -46.830800   22.803200   33.498500
  C    -44.787500   22.689200   31.512100
  H    -45.192500   23.658700   31.744300
  H    -44.585600   22.664800   30.426700
  C    -43.475000   22.441000   32.146700
  H    -42.882700   23.290000   31.814900
  H    -43.020400   21.509000   31.776200
  C    -43.642400   22.509400   33.649400
  H    -44.158100   21.689400   34.059800
  H    -44.340900   23.285100   34.029600
  H    -42.697200   22.587300   34.252200
  H    -43.026800   18.261200   27.976800
  H    -48.783000   21.265600   33.385400

 Total Charge           Charge          ....    0
 Multiplicity           Mult            ....    1
 Number of Electrons    NEL             ....  134
 Basis Dimension        Dim             ....  322

ORBITAL ENERGIES
----------------

  NO   OCC          E(Eh)            E(eV)
   0   2.0000     -88.963639     -2420.8237
   1   2.0000     -88.962301     -2420.7873
   2   2.0000     -10.334056      -281.2040
   3   2.0000     -10.328783      -281.0605
   4   2.0000     -10.309905      -280.5468
   5   2.0000     -10.303858      -280.3822
   6   2.0000     -10.299544      -280.2649
   7   2.0000     -10.299439      -280.2620
   8   2.0000     -10.298055      -280.2243
   9   2.0000     -10.295172      -280.1459
  10   2.0000     -10.289117      -279.9811
  11   2.0000     -10.288784      -279.9720
  12   2.0000     -10.282776      -279.8086
  13   2.0000     -10.281449      -279.7724
  14   2.0000     -10.279242      -279.7124
  15   2.0000     -10.271368      -279.4981
  16   2.0000      -8.079155      -219.8450
  17   2.0000      -8.077737      -219.8064
  18   2.0000      -6.037585      -164.2910
  19   2.0000      -6.036198      -164.2533
  20   2.0000      -6.033466      -164.1789
  21   2.0000      -6.032155      -164.1433
  22   2.0000      -6.030018      -164.0851
  23   2.0000      -6.028475      -164.0432
  24   2.0000      -1.009608       -27.4728
  25   2.0000      -0.993072       -27.0229
  26   2.0000      -0.924633       -25.1605
  27   2.0000      -0.903641       -24.5893
  28   2.0000      -0.873871       -23.7792
  29   2.0000      -0.849593       -23.1186
  30   2.0000      -0.848495       -23.0887
  31   2.0000      -0.815743       -22.1975
  32   2.0000      -0.785828       -21.3835
  33   2.0000      -0.768429       -20.9100
  34   2.0000      -0.713123       -19.4051
  35   2.0000      -0.702523       -19.1166
  36   2.0000      -0.693989       -18.8844
  37   2.0000      -0.665089       -18.0980
  38   2.0000      -0.644747       -17.5445
  39   2.0000      -0.613666       -16.6987
  40   2.0000      -0.596738       -16.2381
  41   2.0000      -0.570927       -15.5357
  42   2.0000      -0.564623       -15.3642
  43   2.0000      -0.560480       -15.2514
  44   2.0000      -0.546709       -14.8767
  45   2.0000      -0.524299       -14.2669
  46   2.0000      -0.518910       -14.1203
  47   2.0000      -0.509374       -13.8608
  48   2.0000      -0.507456       -13.8086
  49   2.0000      -0.504803       -13.7364
  50   2.0000      -0.490903       -13.3582
  51   2.0000      -0.481061       -13.0903
  52   2.0000      -0.472922       -12.8689
  53   2.0000      -0.465432       -12.6650
  54   2.0000      -0.461560       -12.5597
  55   2.0000      -0.448752       -12.2112
  56   2.0000      -0.440575       -11.9887
  57   2.0000      -0.435405       -11.8480
  58   2.0000      -0.432951       -11.7812
  59   2.0000      -0.422302       -11.4914
  60   2.0000      -0.420312       -11.4373
  61   2.0000      -0.413247       -11.2450
  62   2.0000      -0.408507       -11.1160
  63   2.0000      -0.344644        -9.3782
  64   2.0000      -0.328661        -8.9433
  65   2.0000      -0.323205        -8.7948
  66   2.0000      -0.304125        -8.2757
  67   0.0000       0.032653         0.8885
  68   0.0000       0.064795         1.7632
  69   0.0000       0.108182         2.9438
  70   0.0000       0.114899         3.1266
  71   0.0000       0.134502         3.6600

MULLIKEN ATOMIC CHARGES
-----------------------
   0 S :    0.095938
   1 C :   -0.052641
   2 C :   -0.108562
   3 C :    0.036614
   4 C :   -0.164871
   5 H :    0.019626
   6 C :    0.002436
   7 H :    0.019506
   8 H :    0.033845
   9 C :   -0.058327
  10 H :    0.034615
  11 H :    0.015652
  12 C :   -0.037065
  13 H :    0.033984
  14 H :    0.030742
  15 H :    0.035009
  16 S :    0.117859
  17 C :   -0.080834
  18 C :   -0.056200
  19 C :   -0.005606
  20 C :   -0.181993
  21 H :    0.009342
  22 C :    0.059325
  23 H :    0.019965
  24 H :    0.027094
  25 C :   -0.010177
  26 H :    0.029994
  27 H :    0.037481
  28 C :   -0.068980
  29 H :    0.025389
  30 H :    0.015365
  31 H :    0.039066
  32 H :    0.034418
  33 H :    0.051990
Sum of atomic charges:   -0.0000000

LOEWDIN ATOMIC CHARGES
----------------------
   0 S :    0.420750
   1 C :   -0.199646
   2 C :   -0.072404
   3 C :   -0.055636
   4 C :   -0.186974
   5 H :    0.033262
   6 C :   -0.034026
   7 H :    0.028661
   8 H :    0.031164
   9 C :   -0.038270
  10 H :    0.026536
  11 H :    0.014895
  12 C :   -0.066502
  13 H :    0.025709
  14 H :    0.027559
  15 H :    0.027185
  16 S :    0.418476
  17 C :   -0.199571
  18 C :   -0.073996
  19 C :   -0.050455
  20 C :   -0.193372
  21 H :    0.024634
  22 C :   -0.033747
  23 H :    0.029614
  24 H :    0.035715
  25 C :   -0.035790
  26 H :    0.028476
  27 H :    0.020713
  28 C :   -0.075410
  29 H :    0.020006
  30 H :    0.025793
  31 H :    0.029913
  32 H :    0.021070
  33 H :    0.025668

  Mayer bond orders larger than 0.100000
B(  0-S ,  1-C ) :   1.1563 B(  0-S ,  4-C ) :   1.1402 B(  1-C ,  2-C ) :   1.6154
B(  1-C , 32-H ) :   0.9673 B(  2-C ,  3-C ) :   1.2432 B(  2-C ,  6-C ) :   1.0173
B(  3-C ,  4-C ) :   1.5843 B(  3-C ,  5-H ) :   0.9905 B(  4-C , 20-C ) :   1.0303
B(  6-C ,  7-H ) :   0.9507 B(  6-C ,  8-H ) :   0.9547 B(  6-C ,  9-C ) :   1.0359
B(  9-C , 10-H ) :   0.9580 B(  9-C , 11-H ) :   0.9588 B(  9-C , 12-C ) :   1.0851
B( 12-C , 13-H ) :   0.9730 B( 12-C , 14-H ) :   0.9725 B( 12-C , 15-H ) :   0.9766
B( 16-S , 17-C ) :   1.1743 B( 16-S , 20-C ) :   1.1404 B( 17-C , 18-C ) :   1.5966
B( 17-C , 33-H ) :   0.9694 B( 18-C , 19-C ) :   1.2330 B( 18-C , 21-H ) :   0.9930
B( 19-C , 20-C ) :   1.5892 B( 19-C , 22-C ) :   1.0467 B( 22-C , 23-H ) :   0.9345
B( 22-C , 24-H ) :   0.9166 B( 22-C , 25-C ) :   1.0923 B( 25-C , 26-H ) :   0.9501
B( 25-C , 27-H ) :   0.9462 B( 25-C , 28-C ) :   1.0693 B( 28-C , 29-H ) :   0.9680
B( 28-C , 30-H ) :   0.9700 B( 28-C , 31-H ) :   0.9728

Dispersion correction           -0.014554858
FINAL SINGLE POINT ENERGY     -1339.871633324044

DIPOLE MOMENT
-------------
                                X             Y             Z
Electronic contribution:     -7.39155      -7.14034      13.63255
Nuclear contribution   :      7.37000       7.48787     -14.03233
                        -----------------------------------------
Total Dipole Moment    :     -0.02155       0.34753      -0.39978
                        -----------------------------------------
Magnitude (a.u.)       :      0.53016
Magnitude (Debye)      :      1.34755

Rotational constants in cm-1:     0.024155     0.007145     0.006220
Rotational constants in MHz :   724.153982   214.208556   186.459003

                             ****ORCA TERMINATED NORMALLY****
TOTAL RUN TIME: 0 days 0 hours 0 minutes 21 seconds 300 msec
