                         Program Version 4.2.1 -  RELEASE  -
|  1> ! wB97X-D3 SP def2-SVP
|  2> %pal
|  3> nprocs 24
|  4> end
|  5>
|  6> * xyz 0 1
|  7> S 	 29.8341 	 -23.8981 	 -126.115
|  8> C 	 29.8648 	 -23.585 	 -127.83
|  9> C 	 29.1599 	 -24.5248 	 -128.513
| 10> C 	 28.2576 	 -25.1882 	 -127.576
| 11> C 	 28.5025 	 -24.9483 	 -126.239
| 12> H 	 27.5403 	 -25.9034 	 -127.888
| 13> C 	 29.0266 	 -24.5358 	 -130.021
| 14> H 	 29.2907 	 -23.5564 	 -130.466
| 15> H 	 28.008 	 -24.5561 	 -130.383
| 16> C 	 29.8552 	 -25.5312 	 -130.81
| 17> H 	 29.3263 	 -26.4758 	 -130.506
| 18> H 	 29.5764 	 -25.4116 	 -131.913
| 19> C 	 31.3327 	 -25.6756 	 -130.411
| 20> H 	 31.7148 	 -26.5648 	 -130.878
| 21> H 	 31.8128 	 -24.7311 	 -130.676
| 22> H 	 31.3281 	 -25.7677 	 -129.343
| 23> S 	 28.1643 	 -27.243 	 -124.663
| 24> C 	 26.7933 	 -27.3414 	 -123.554
| 25> C 	 26.2902 	 -26.0814 	 -123.329
| 26> C 	 26.7995 	 -25.0872 	 -124.301
| 27> C 	 27.7442 	 -25.6085 	 -125.152
| 28> H 	 25.4657 	 -25.8692 	 -122.615
| 29> C 	 26.2819 	 -23.6817 	 -124.288
| 30> H 	 25.1977 	 -23.7558 	 -124.412
| 31> H 	 26.6147 	 -23.0631 	 -125.208
| 32> C 	 26.5554 	 -22.8537 	 -123.047
| 33> H 	 26.1521 	 -23.3757 	 -122.183
| 34> H 	 26.1161 	 -21.8626 	 -123.105
| 35> C 	 28.0296 	 -22.6137 	 -122.671
| 36> H 	 28.5646 	 -23.5277 	 -122.516
| 37> H 	 28.1309 	 -22.1429 	 -121.686
| 38> H 	 28.4142 	 -21.9839 	 -123.449
| 39> H 	 30.5358 	 -22.9022 	 -128.367
| 40> H 	 26.5355 	 -28.2354 	 -122.944
| 41> *
| 42>
| 43>                          ****END OF INPUT****

CARTESIAN COORDINATES (ANGSTROEM)
---------------------------------
  S     29.834100  -23.898100  -126.115000
  C     29.864800  -23.585000  -127.830000
  C     29.159900  -24.524800  -128.513000
  C     28.257600  -25.188200  -127.576000
  C     28.502500  -24.948300  -126.239000
  H     27.540300  -25.903400  -127.888000
  C     29.026600  -24.535800  -130.021000
  H     29.290700  -23.556400  -130.466000
  H     28.008000  -24.556100  -130.383000
  C     29.855200  -25.531200  -130.810000
  H     29.326300  -26.475800  -130.506000
  H     29.576400  -25.411600  -131.913000
  C     31.332700  -25.675600  -130.411000
  H     31.714800  -26.564800  -130.878000
  H     31.812800  -24.731100  -130.676000
  H     31.328100  -25.767700  -129.343000
  S     28.164300  -27.243000  -124.663000
  C     26.793300  -27.341400  -123.554000
  C     26.290200  -26.081400  -123.329000
  C     26.799500  -25.087200  -124.301000
  C     27.744200  -25.608500  -125.152000
  H     25.465700  -25.869200  -122.615000
  C     26.281900  -23.681700  -124.288000
  H     25.197700  -23.755800  -124.412000
  H     26.614700  -23.063100  -125.208000
  C     26.555400  -22.853700  -123.047000
  H     26.152100  -23.375700  -122.183000
  H     26.116100  -21.862600  -123.105000
  C     28.029600  -22.613700  -122.671000
  H     28.564600  -23.527700  -122.516000
  H     28.130900  -22.142900  -121.686000
  H     28.414200  -21.983900  -123.449000
  H     30.535800  -22.902200  -128.367000
  H     26.535500  -28.235400  -122.944000

 Total Charge           Charge          ....    0
 Multiplicity           Mult            ....    1
 Number of Electrons    NEL             ....  134
 Basis Dimension        Dim             ....  322

ORBITAL ENERGIES
----------------

  NO   OCC          E(Eh)            E(eV)
   0   2.0000     -88.967492     -2420.9285
   1   2.0000     -88.963031     -2420.8071
   2   2.0000     -10.328452      -281.0515
   3   2.0000     -10.326937      -281.0102
   4   2.0000     -10.325105      -280.9604
   5   2.0000     -10.315236      -280.6918
   6   2.0000     -10.306864      -280.4640
   7   2.0000     -10.302437      -280.3436
   8   2.0000     -10.301995      -280.3315
   9   2.0000     -10.294023      -280.1146
  10   2.0000     -10.292735      -280.0796
  11   2.0000     -10.290689      -280.0239
  12   2.0000     -10.290096      -280.0078
  13   2.0000     -10.281473      -279.7731
  14   2.0000     -10.275143      -279.6009
  15   2.0000     -10.266558      -279.3673
  16   2.0000      -8.082928      -219.9476
  17   2.0000      -8.077674      -219.8047
  18   2.0000      -6.041388      -164.3945
  19   2.0000      -6.037329      -164.2841
  20   2.0000      -6.036342      -164.2572
  21   2.0000      -6.033669      -164.1845
  22   2.0000      -6.032274      -164.1465
  23   2.0000      -6.028174      -164.0350
  24   2.0000      -1.010228       -27.4897
  25   2.0000      -0.986472       -26.8433
  26   2.0000      -0.914430       -24.8829
  27   2.0000      -0.907723       -24.7004
  28   2.0000      -0.869575       -23.6623
  29   2.0000      -0.845239       -23.0001
  30   2.0000      -0.843336       -22.9483
  31   2.0000      -0.814747       -22.1704
  32   2.0000      -0.789241       -21.4763
  33   2.0000      -0.775997       -21.1159
  34   2.0000      -0.703472       -19.1424
  35   2.0000      -0.689696       -18.7676
  36   2.0000      -0.685118       -18.6430
  37   2.0000      -0.656390       -17.8613
  38   2.0000      -0.639854       -17.4113
  39   2.0000      -0.616963       -16.7884
  40   2.0000      -0.596800       -16.2397
  41   2.0000      -0.574071       -15.6213
  42   2.0000      -0.552081       -15.0229
  43   2.0000      -0.551304       -15.0017
  44   2.0000      -0.548379       -14.9222
  45   2.0000      -0.543277       -14.7833
  46   2.0000      -0.516555       -14.0562
  47   2.0000      -0.507524       -13.8104
  48   2.0000      -0.506119       -13.7722
  49   2.0000      -0.494011       -13.4427
  50   2.0000      -0.489812       -13.3285
  51   2.0000      -0.475840       -12.9483
  52   2.0000      -0.473152       -12.8751
  53   2.0000      -0.463166       -12.6034
  54   2.0000      -0.457847       -12.4586
  55   2.0000      -0.445306       -12.1174
  56   2.0000      -0.441333       -12.0093
  57   2.0000      -0.440413       -11.9842
  58   2.0000      -0.436990       -11.8911
  59   2.0000      -0.422080       -11.4854
  60   2.0000      -0.418157       -11.3786
  61   2.0000      -0.404613       -11.0101
  62   2.0000      -0.395743       -10.7687
  63   2.0000      -0.332791        -9.0557
  64   2.0000      -0.328494        -8.9388
  65   2.0000      -0.325521        -8.8579
  66   2.0000      -0.316537        -8.6134
  67   0.0000       0.039616         1.0780
  68   0.0000       0.061182         1.6649
  69   0.0000       0.107250         2.9184
  70   0.0000       0.110948         3.0190
  71   0.0000       0.129528         3.5246

MULLIKEN ATOMIC CHARGES
-----------------------
   0 S :    0.133188
   1 C :   -0.124858
   2 C :   -0.065177
   3 C :    0.037840
   4 C :   -0.155842
   5 H :    0.001426
   6 C :    0.033258
   7 H :    0.010726
   8 H :    0.025079
   9 C :   -0.135170
  10 H :    0.019852
  11 H :    0.041999
  12 C :   -0.001776
  13 H :    0.043719
  14 H :    0.028954
  15 H :    0.039481
  16 S :    0.101714
  17 C :   -0.106811
  18 C :   -0.037570
  19 C :   -0.027046
  20 C :   -0.174030
  21 H :    0.040784
  22 C :    0.045546
  23 H :    0.033349
  24 H :    0.042885
  25 C :   -0.081243
  26 H :    0.017063
  27 H :    0.032813
  28 C :   -0.043676
  29 H :    0.030761
  30 H :    0.028559
  31 H :    0.031116
  32 H :    0.055573
  33 H :    0.077514
Sum of atomic charges:    0.0000000

LOEWDIN ATOMIC CHARGES
----------------------
   0 S :    0.430454
   1 C :   -0.189598
   2 C :   -0.068431
   3 C :   -0.049034
   4 C :   -0.220022
   5 H :    0.023716
   6 C :   -0.043143
   7 H :    0.026897
   8 H :    0.032138
   9 C :   -0.052868
  10 H :    0.021443
  11 H :    0.030084
  12 C :   -0.057250
  13 H :    0.029077
  14 H :    0.024582
  15 H :    0.027283
  16 S :    0.388270
  17 C :   -0.181160
  18 C :   -0.075054
  19 C :   -0.051357
  20 C :   -0.198196
  21 H :    0.037220
  22 C :   -0.042261
  23 H :    0.034820
  24 H :    0.040000
  25 C :   -0.041853
  26 H :    0.017929
  27 H :    0.026375
  28 C :   -0.063170
  29 H :    0.021087
  30 H :    0.028022
  31 H :    0.020242
  32 H :    0.032994
  33 H :    0.040765

  Mayer bond orders larger than 0.100000
B(  0-S ,  1-C ) :   1.1525 B(  0-S ,  4-C ) :   1.1429 B(  1-C ,  2-C ) :   1.6059
B(  1-C , 32-H ) :   0.9614 B(  2-C ,  3-C ) :   1.2281 B(  2-C ,  6-C ) :   1.0165
B(  3-C ,  4-C ) :   1.5886 B(  3-C ,  5-H ) :   0.9990 B(  4-C , 20-C ) :   1.0245
B(  6-C ,  7-H ) :   0.9471 B(  6-C ,  8-H ) :   0.9482 B(  6-C ,  9-C ) :   1.0653
B(  9-C , 10-H ) :   0.9573 B(  9-C , 11-H ) :   0.9552 B(  9-C , 12-C ) :   1.0687
B( 12-C , 13-H ) :   0.9736 B( 12-C , 14-H ) :   0.9769 B( 12-C , 15-H ) :   0.9665
B( 16-S , 17-C ) :   1.1426 B( 16-S , 20-C ) :   1.1267 B( 17-C , 18-C ) :   1.6371
B( 17-C , 33-H ) :   0.9627 B( 18-C , 19-C ) :   1.2011 B( 18-C , 21-H ) :   0.9793
B( 19-C , 20-C ) :   1.6373 B( 19-C , 22-C ) :   1.0500 B( 22-C , 23-H ) :   0.9295
B( 22-C , 24-H ) :   0.9345 B( 22-C , 25-C ) :   1.0775 B( 25-C , 26-H ) :   0.9540
B( 25-C , 27-H ) :   0.9558 B( 25-C , 28-C ) :   1.0781 B( 28-C , 29-H ) :   0.9746
B( 28-C , 30-H ) :   0.9722 B( 28-C , 31-H ) :   0.9771

Dispersion correction           -0.015134110
FINAL SINGLE POINT ENERGY     -1339.871837952143

DIPOLE MOMENT
-------------
                                X             Y             Z
Electronic contribution:      0.52783      -9.09479       8.67709
Nuclear contribution   :     -0.87100       9.25527      -8.82038
                        -----------------------------------------
Total Dipole Moment    :     -0.34317       0.16048      -0.14329
                        -----------------------------------------
Magnitude (a.u.)       :      0.40503
Magnitude (Debye)      :      1.02951

Rotational constants in cm-1:     0.023856     0.007842     0.006699
Rotational constants in MHz :   715.191778   235.092420   200.835411

                             ****ORCA TERMINATED NORMALLY****
TOTAL RUN TIME: 0 days 0 hours 0 minutes 21 seconds 447 msec
