                         Program Version 4.2.1 -  RELEASE  -
|  1> ! wB97X-D3 SP def2-SVP
|  2> %pal
|  3> nprocs 24
|  4> end
|  5>
|  6> * xyz 0 1
|  7> S 	 -146.996 	 5.77573 	 5.0918
|  8> C 	 -146.284 	 5.25378 	 6.60749
|  9> C 	 -145.078 	 5.94499 	 6.84785
| 10> C 	 -144.749 	 6.86129 	 5.81114
| 11> C 	 -145.603 	 6.7517 	 4.70534
| 12> H 	 -143.882 	 7.50118 	 5.78623
| 13> C 	 -144.417 	 5.96965 	 8.19407
| 14> H 	 -145.313 	 5.79621 	 8.90624
| 15> H 	 -144.036 	 6.92591 	 8.5899
| 16> C 	 -143.411 	 4.79281 	 8.4154
| 17> H 	 -142.558 	 4.8784 	 7.82201
| 18> H 	 -143.131 	 4.95334 	 9.43994
| 19> C 	 -143.964 	 3.35844 	 8.2779
| 20> H 	 -143.358 	 2.64257 	 8.83906
| 21> H 	 -144.936 	 3.43503 	 8.73294
| 22> H 	 -144.037 	 3.06434 	 7.20686
| 23> S 	 -147.026 	 8.12901 	 2.84392
| 24> C 	 -146.202 	 8.85499 	 1.42747
| 25> C 	 -144.936 	 8.30269 	 1.36664
| 26> C 	 -144.484 	 7.58673 	 2.51899
| 27> C 	 -145.479 	 7.48625 	 3.47634
| 28> H 	 -144.328 	 8.56258 	 0.500188
| 29> C 	 -143.115 	 7.1008 	 2.59934
| 30> H 	 -142.695 	 6.55508 	 1.68184
| 31> H 	 -143.128 	 6.34345 	 3.43677
| 32> C 	 -142.14 	 8.22495 	 2.92432
| 33> H 	 -142.27 	 8.54739 	 4.02193
| 34> H 	 -142.477 	 9.0865 	 2.35146
| 35> C 	 -140.717 	 7.79945 	 2.74559
| 36> H 	 -140.463 	 7.17954 	 1.97862
| 37> H 	 -140.378 	 7.35838 	 3.60109
| 38> H 	 -140.127 	 8.69076 	 2.53499
| 39> H 	 -146.891 	 4.63069 	 7.24383
| 40> H 	 -146.453 	 9.65979 	 0.758933
| 41> *
| 42>
| 43>                          ****END OF INPUT****

CARTESIAN COORDINATES (ANGSTROEM)
---------------------------------
  S    -146.996000    5.775730    5.091800
  C    -146.284000    5.253780    6.607490
  C    -145.078000    5.944990    6.847850
  C    -144.749000    6.861290    5.811140
  C    -145.603000    6.751700    4.705340
  H    -143.882000    7.501180    5.786230
  C    -144.417000    5.969650    8.194070
  H    -145.313000    5.796210    8.906240
  H    -144.036000    6.925910    8.589900
  C    -143.411000    4.792810    8.415400
  H    -142.558000    4.878400    7.822010
  H    -143.131000    4.953340    9.439940
  C    -143.964000    3.358440    8.277900
  H    -143.358000    2.642570    8.839060
  H    -144.936000    3.435030    8.732940
  H    -144.037000    3.064340    7.206860
  S    -147.026000    8.129010    2.843920
  C    -146.202000    8.854990    1.427470
  C    -144.936000    8.302690    1.366640
  C    -144.484000    7.586730    2.518990
  C    -145.479000    7.486250    3.476340
  H    -144.328000    8.562580    0.500188
  C    -143.115000    7.100800    2.599340
  H    -142.695000    6.555080    1.681840
  H    -143.128000    6.343450    3.436770
  C    -142.140000    8.224950    2.924320
  H    -142.270000    8.547390    4.021930
  H    -142.477000    9.086500    2.351460
  C    -140.717000    7.799450    2.745590
  H    -140.463000    7.179540    1.978620
  H    -140.378000    7.358380    3.601090
  H    -140.127000    8.690760    2.534990
  H    -146.891000    4.630690    7.243830
  H    -146.453000    9.659790    0.758933

 Total Charge           Charge          ....    0
 Multiplicity           Mult            ....    1
 Number of Electrons    NEL             ....  134
 Basis Dimension        Dim             ....  322

ORBITAL ENERGIES
----------------

  NO   OCC          E(Eh)            E(eV)
   0   2.0000     -88.968265     -2420.9496
   1   2.0000     -88.963210     -2420.8120
   2   2.0000     -10.329970      -281.0928
   3   2.0000     -10.329539      -281.0810
   4   2.0000     -10.320248      -280.8282
   5   2.0000     -10.316969      -280.7390
   6   2.0000     -10.304560      -280.4013
   7   2.0000     -10.302450      -280.3439
   8   2.0000     -10.299425      -280.2616
   9   2.0000     -10.294914      -280.1389
  10   2.0000     -10.293497      -280.1003
  11   2.0000     -10.293428      -280.0984
  12   2.0000     -10.288819      -279.9730
  13   2.0000     -10.279426      -279.7174
  14   2.0000     -10.277285      -279.6592
  15   2.0000     -10.261806      -279.2379
  16   2.0000      -8.082894      -219.9467
  17   2.0000      -8.076826      -219.7816
  18   2.0000      -6.041320      -164.3927
  19   2.0000      -6.037407      -164.2862
  20   2.0000      -6.035619      -164.2375
  21   2.0000      -6.033765      -164.1871
  22   2.0000      -6.031614      -164.1286
  23   2.0000      -6.027206      -164.0086
  24   2.0000      -1.005828       -27.3700
  25   2.0000      -0.980813       -26.6893
  26   2.0000      -0.917824       -24.9753
  27   2.0000      -0.908931       -24.7333
  28   2.0000      -0.869093       -23.6492
  29   2.0000      -0.857149       -23.3242
  30   2.0000      -0.847329       -23.0570
  31   2.0000      -0.813132       -22.1264
  32   2.0000      -0.781332       -21.2611
  33   2.0000      -0.772159       -21.0115
  34   2.0000      -0.710185       -19.3251
  35   2.0000      -0.697886       -18.9904
  36   2.0000      -0.696011       -18.9394
  37   2.0000      -0.661719       -18.0063
  38   2.0000      -0.644816       -17.5463
  39   2.0000      -0.618576       -16.8323
  40   2.0000      -0.596964       -16.2442
  41   2.0000      -0.569467       -15.4960
  42   2.0000      -0.568538       -15.4707
  43   2.0000      -0.550509       -14.9801
  44   2.0000      -0.536717       -14.6048
  45   2.0000      -0.531157       -14.4535
  46   2.0000      -0.524890       -14.2830
  47   2.0000      -0.514350       -13.9962
  48   2.0000      -0.507976       -13.8227
  49   2.0000      -0.503633       -13.7046
  50   2.0000      -0.492796       -13.4097
  51   2.0000      -0.475452       -12.9377
  52   2.0000      -0.470976       -12.8159
  53   2.0000      -0.459313       -12.4985
  54   2.0000      -0.456915       -12.4333
  55   2.0000      -0.452626       -12.3166
  56   2.0000      -0.447875       -12.1873
  57   2.0000      -0.440522       -11.9872
  58   2.0000      -0.429429       -11.6854
  59   2.0000      -0.421668       -11.4742
  60   2.0000      -0.414998       -11.2927
  61   2.0000      -0.412243       -11.2177
  62   2.0000      -0.410203       -11.1622
  63   2.0000      -0.349194        -9.5020
  64   2.0000      -0.332062        -9.0359
  65   2.0000      -0.326113        -8.8740
  66   2.0000      -0.283861        -7.7242
  67   0.0000       0.022115         0.6018
  68   0.0000       0.060671         1.6509
  69   0.0000       0.099049         2.6953
  70   0.0000       0.114242         3.1087
  71   0.0000       0.131854         3.5879

MULLIKEN ATOMIC CHARGES
-----------------------
   0 S :    0.113160
   1 C :   -0.135138
   2 C :   -0.034335
   3 C :    0.019580
   4 C :   -0.139734
   5 H :    0.007718
   6 C :   -0.021819
   7 H :    0.033662
   8 H :    0.039704
   9 C :   -0.041781
  10 H :    0.018083
  11 H :    0.019613
  12 C :   -0.051965
  13 H :    0.040971
  14 H :    0.014417
  15 H :    0.053487
  16 S :    0.074816
  17 C :   -0.079336
  18 C :   -0.049331
  19 C :   -0.000982
  20 C :   -0.144765
  21 H :    0.022840
  22 C :    0.003402
  23 H :    0.044703
  24 H :    0.033668
  25 C :   -0.105099
  26 H :    0.034483
  27 H :    0.026374
  28 C :    0.050621
  29 H :    0.002831
  30 H :    0.011481
  31 H :    0.024307
  32 H :    0.055839
  33 H :    0.058524
Sum of atomic charges:    0.0000000

LOEWDIN ATOMIC CHARGES
----------------------
   0 S :    0.413428
   1 C :   -0.197115
   2 C :   -0.063363
   3 C :   -0.063008
   4 C :   -0.195980
   5 H :    0.029068
   6 C :   -0.039992
   7 H :    0.038306
   8 H :    0.034129
   9 C :   -0.033727
  10 H :    0.012157
  11 H :    0.021405
  12 C :   -0.063853
  13 H :    0.028638
  14 H :    0.018660
  15 H :    0.032096
  16 S :    0.362450
  17 C :   -0.172179
  18 C :   -0.067796
  19 C :   -0.058193
  20 C :   -0.175530
  21 H :    0.030268
  22 C :   -0.045553
  23 H :    0.040323
  24 H :    0.034121
  25 C :   -0.039769
  26 H :    0.031695
  27 H :    0.020176
  28 C :   -0.054259
  29 H :    0.012263
  30 H :    0.018384
  31 H :    0.033788
  32 H :    0.023448
  33 H :    0.035515

  Mayer bond orders larger than 0.100000
B(  0-S ,  1-C ) :   1.1478 B(  0-S ,  4-C ) :   1.1649 B(  1-C ,  2-C ) :   1.5575
B(  1-C ,  4-C ) :   0.1032 B(  1-C , 32-H ) :   0.9737 B(  2-C ,  3-C ) :   1.2721
B(  2-C ,  6-C ) :   1.0087 B(  3-C ,  4-C ) :   1.5200 B(  3-C ,  5-H ) :   1.0010
B(  4-C , 20-C ) :   1.0750 B(  6-C ,  7-H ) :   0.9486 B(  6-C ,  8-H ) :   0.9567
B(  6-C ,  9-C ) :   1.0638 B(  9-C , 10-H ) :   0.9585 B(  9-C , 11-H ) :   0.9552
B(  9-C , 12-C ) :   1.0806 B( 12-C , 13-H ) :   0.9742 B( 12-C , 14-H ) :   0.9743
B( 12-C , 15-H ) :   0.9723 B( 16-S , 17-C ) :   1.1255 B( 16-S , 20-C ) :   1.1078
B( 17-C , 18-C ) :   1.6426 B( 17-C , 20-C ) :   0.1018 B( 17-C , 33-H ) :   0.9679
B( 18-C , 19-C ) :   1.2153 B( 18-C , 21-H ) :   0.9803 B( 19-C , 20-C ) :   1.5940
B( 19-C , 22-C ) :   1.0658 B( 22-C , 23-H ) :   0.9407 B( 22-C , 24-H ) :   0.9210
B( 22-C , 25-C ) :   1.0543 B( 25-C , 26-H ) :   0.9461 B( 25-C , 27-H ) :   0.9653
B( 25-C , 28-C ) :   1.0756 B( 28-C , 29-H ) :   0.9715 B( 28-C , 30-H ) :   0.9700
B( 28-C , 31-H ) :   0.9678

Dispersion correction           -0.014197371
FINAL SINGLE POINT ENERGY     -1339.852373633729

DIPOLE MOMENT
-------------
                                X             Y             Z
Electronic contribution:    -26.17260       5.79295     -10.65025
Nuclear contribution   :     26.88933      -5.66483      10.79055
                        -----------------------------------------
Total Dipole Moment    :      0.71673       0.12812       0.14030
                        -----------------------------------------
Magnitude (a.u.)       :      0.74149
Magnitude (Debye)      :      1.88471

Rotational constants in cm-1:     0.018451     0.008984     0.006446
Rotational constants in MHz :   553.137887   269.340847   193.261028

                             ****ORCA TERMINATED NORMALLY****
TOTAL RUN TIME: 0 days 0 hours 0 minutes 20 seconds 725 msec
