                         Program Version 4.2.1 -  RELEASE  -
|  1> ! wB97X-D3 SP def2-SVP
|  2> %pal
|  3> nprocs 24
|  4> end
|  5>
|  6> * xyz 0 1
|  7> S 	 18.4066 	 -16.3445 	 -118.783
|  8> C 	 17.7008 	 -14.7196 	 -118.754
|  9> C 	 16.4713 	 -14.6974 	 -119.372
| 10> C 	 16.109 	 -16.0113 	 -119.829
| 11> C 	 17.0285 	 -17.0498 	 -119.532
| 12> H 	 15.2181 	 -16.2993 	 -120.217
| 13> C 	 15.4779 	 -13.491 	 -119.444
| 14> H 	 15.9292 	 -12.5594 	 -119.275
| 15> H 	 14.765 	 -13.5874 	 -118.599
| 16> C 	 14.7126 	 -13.3242 	 -120.773
| 17> H 	 15.4084 	 -13.029 	 -121.493
| 18> H 	 14.2508 	 -14.1906 	 -121.138
| 19> C 	 13.6834 	 -12.2392 	 -120.576
| 20> H 	 12.9802 	 -12.0885 	 -121.404
| 21> H 	 13.1232 	 -12.4638 	 -119.723
| 22> H 	 14.2427 	 -11.3228 	 -120.404
| 23> S 	 16.0142 	 -18.9696 	 -121.184
| 24> C 	 16.6676 	 -20.6173 	 -121.149
| 25> C 	 17.3436 	 -20.7992 	 -119.928
| 26> C 	 17.4757 	 -19.5963 	 -119.132
| 27> C 	 16.9712 	 -18.4656 	 -119.817
| 28> H 	 17.7052 	 -21.7504 	 -119.738
| 29> C 	 18.2895 	 -19.5217 	 -117.841
| 30> H 	 19.2466 	 -19.1287 	 -117.993
| 31> H 	 18.4469 	 -20.5508 	 -117.562
| 32> C 	 17.6717 	 -19.0446 	 -116.591
| 33> H 	 16.6232 	 -19.387 	 -116.54
| 34> H 	 17.6665 	 -17.9599 	 -116.465
| 35> C 	 18.2879 	 -19.7531 	 -115.326
| 36> H 	 17.9877 	 -19.3044 	 -114.447
| 37> H 	 19.3977 	 -19.5944 	 -115.082
| 38> H 	 18.1403 	 -20.8752 	 -115.12
| 39> H 	 18.244 	 -13.9197 	 -118.255
| 40> H 	 16.4607 	 -21.4215 	 -121.84
| 41> *
| 42>
| 43>                          ****END OF INPUT****

CARTESIAN COORDINATES (ANGSTROEM)
---------------------------------
  S     18.406600  -16.344500  -118.783000
  C     17.700800  -14.719600  -118.754000
  C     16.471300  -14.697400  -119.372000
  C     16.109000  -16.011300  -119.829000
  C     17.028500  -17.049800  -119.532000
  H     15.218100  -16.299300  -120.217000
  C     15.477900  -13.491000  -119.444000
  H     15.929200  -12.559400  -119.275000
  H     14.765000  -13.587400  -118.599000
  C     14.712600  -13.324200  -120.773000
  H     15.408400  -13.029000  -121.493000
  H     14.250800  -14.190600  -121.138000
  C     13.683400  -12.239200  -120.576000
  H     12.980200  -12.088500  -121.404000
  H     13.123200  -12.463800  -119.723000
  H     14.242700  -11.322800  -120.404000
  S     16.014200  -18.969600  -121.184000
  C     16.667600  -20.617300  -121.149000
  C     17.343600  -20.799200  -119.928000
  C     17.475700  -19.596300  -119.132000
  C     16.971200  -18.465600  -119.817000
  H     17.705200  -21.750400  -119.738000
  C     18.289500  -19.521700  -117.841000
  H     19.246600  -19.128700  -117.993000
  H     18.446900  -20.550800  -117.562000
  C     17.671700  -19.044600  -116.591000
  H     16.623200  -19.387000  -116.540000
  H     17.666500  -17.959900  -116.465000
  C     18.287900  -19.753100  -115.326000
  H     17.987700  -19.304400  -114.447000
  H     19.397700  -19.594400  -115.082000
  H     18.140300  -20.875200  -115.120000
  H     18.244000  -13.919700  -118.255000
  H     16.460700  -21.421500  -121.840000

 Total Charge           Charge          ....    0
 Multiplicity           Mult            ....    1
 Number of Electrons    NEL             ....  134
 Basis Dimension        Dim             ....  322

ORBITAL ENERGIES
----------------

  NO   OCC          E(Eh)            E(eV)
   0   2.0000     -88.966660     -2420.9059
   1   2.0000     -88.965746     -2420.8810
   2   2.0000     -10.332717      -281.1675
   3   2.0000     -10.331290      -281.1287
   4   2.0000     -10.322668      -280.8941
   5   2.0000     -10.316322      -280.7214
   6   2.0000     -10.311217      -280.5825
   7   2.0000     -10.309082      -280.5244
   8   2.0000     -10.297334      -280.2047
   9   2.0000     -10.296097      -280.1710
  10   2.0000     -10.290262      -280.0123
  11   2.0000     -10.285918      -279.8940
  12   2.0000     -10.281017      -279.7607
  13   2.0000     -10.280838      -279.7558
  14   2.0000     -10.275106      -279.5998
  15   2.0000     -10.271664      -279.5062
  16   2.0000      -8.080972      -219.8944
  17   2.0000      -8.080242      -219.8746
  18   2.0000      -6.039570      -164.3451
  19   2.0000      -6.038809      -164.3243
  20   2.0000      -6.035547      -164.2356
  21   2.0000      -6.034603      -164.2099
  22   2.0000      -6.031667      -164.1300
  23   2.0000      -6.031147      -164.1159
  24   2.0000      -1.005287       -27.3553
  25   2.0000      -0.980132       -26.6708
  26   2.0000      -0.916866       -24.9492
  27   2.0000      -0.912543       -24.8316
  28   2.0000      -0.873659       -23.7735
  29   2.0000      -0.850661       -23.1477
  30   2.0000      -0.840118       -22.8608
  31   2.0000      -0.812162       -22.1001
  32   2.0000      -0.784421       -21.3452
  33   2.0000      -0.773751       -21.0548
  34   2.0000      -0.715033       -19.4570
  35   2.0000      -0.702724       -19.1221
  36   2.0000      -0.690182       -18.7808
  37   2.0000      -0.672210       -18.2918
  38   2.0000      -0.644750       -17.5446
  39   2.0000      -0.621227       -16.9045
  40   2.0000      -0.596066       -16.2198
  41   2.0000      -0.576242       -15.6803
  42   2.0000      -0.571623       -15.5546
  43   2.0000      -0.569550       -15.4983
  44   2.0000      -0.528114       -14.3707
  45   2.0000      -0.524239       -14.2653
  46   2.0000      -0.512417       -13.9436
  47   2.0000      -0.509239       -13.8571
  48   2.0000      -0.506368       -13.7790
  49   2.0000      -0.502814       -13.6823
  50   2.0000      -0.485497       -13.2111
  51   2.0000      -0.483068       -13.1450
  52   2.0000      -0.472833       -12.8664
  53   2.0000      -0.466280       -12.6881
  54   2.0000      -0.459288       -12.4979
  55   2.0000      -0.447353       -12.1731
  56   2.0000      -0.443742       -12.0748
  57   2.0000      -0.439020       -11.9463
  58   2.0000      -0.432967       -11.7816
  59   2.0000      -0.428598       -11.6628
  60   2.0000      -0.417056       -11.3487
  61   2.0000      -0.414096       -11.2681
  62   2.0000      -0.408002       -11.1023
  63   2.0000      -0.356849        -9.7104
  64   2.0000      -0.332656        -9.0520
  65   2.0000      -0.328265        -8.9326
  66   2.0000      -0.283058        -7.7024
  67   0.0000       0.015083         0.4104
  68   0.0000       0.079145         2.1537
  69   0.0000       0.104824         2.8524
  70   0.0000       0.125109         3.4044
  71   0.0000       0.131926         3.5899

MULLIKEN ATOMIC CHARGES
-----------------------
   0 S :    0.089227
   1 C :   -0.147288
   2 C :   -0.024495
   3 C :    0.043147
   4 C :   -0.147501
   5 H :   -0.034821
   6 C :    0.052424
   7 H :    0.002041
   8 H :    0.042296
   9 C :   -0.045983
  10 H :    0.021591
  11 H :    0.020846
  12 C :   -0.026202
  13 H :    0.036631
  14 H :    0.012813
  15 H :    0.022402
  16 S :    0.096177
  17 C :   -0.091988
  18 C :   -0.013428
  19 C :   -0.044167
  20 C :   -0.113982
  21 H :   -0.004835
  22 C :    0.092977
  23 H :    0.035351
  24 H :    0.002381
  25 C :   -0.041460
  26 H :    0.033807
  27 H :    0.038691
  28 C :   -0.097310
  29 H :    0.004229
  30 H :    0.024045
  31 H :    0.046874
  32 H :    0.054034
  33 H :    0.061477
Sum of atomic charges:   -0.0000000

LOEWDIN ATOMIC CHARGES
----------------------
   0 S :    0.424314
   1 C :   -0.193789
   2 C :   -0.055318
   3 C :   -0.061522
   4 C :   -0.194364
   5 H :    0.004714
   6 C :   -0.019669
   7 H :    0.021012
   8 H :    0.035628
   9 C :   -0.030433
  10 H :    0.020186
  11 H :    0.014576
  12 C :   -0.055557
  13 H :    0.028054
  14 H :    0.015708
  15 H :    0.025163
  16 S :    0.404550
  17 C :   -0.179733
  18 C :   -0.057128
  19 C :   -0.051968
  20 C :   -0.196417
  21 H :    0.019209
  22 C :   -0.043768
  23 H :    0.024099
  24 H :    0.036044
  25 C :   -0.036669
  26 H :    0.033992
  27 H :    0.018369
  28 C :   -0.087981
  29 H :    0.013466
  30 H :    0.030262
  31 H :    0.034425
  32 H :    0.028583
  33 H :    0.031963

  Mayer bond orders larger than 0.100000
B(  0-S ,  1-C ) :   1.1365 B(  0-S ,  4-C ) :   1.1670 B(  1-C ,  2-C ) :   1.5977
B(  1-C , 32-H ) :   0.9734 B(  2-C ,  3-C ) :   1.2513 B(  2-C ,  6-C ) :   1.0059
B(  3-C ,  4-C ) :   1.5417 B(  3-C ,  5-H ) :   1.0031 B(  4-C , 20-C ) :   1.0843
B(  6-C ,  7-H ) :   0.9466 B(  6-C ,  8-H ) :   0.9464 B(  6-C ,  9-C ) :   1.0550
B(  9-C , 10-H ) :   0.9559 B(  9-C , 11-H ) :   0.9558 B(  9-C , 12-C ) :   1.0890
B( 12-C , 13-H ) :   0.9725 B( 12-C , 14-H ) :   0.9747 B( 12-C , 15-H ) :   0.9737
B( 16-S , 17-C ) :   1.1474 B( 16-S , 20-C ) :   1.1467 B( 17-C , 18-C ) :   1.5984
B( 17-C , 20-C ) :   0.1015 B( 17-C , 33-H ) :   0.9699 B( 18-C , 19-C ) :   1.2500
B( 18-C , 21-H ) :   1.0003 B( 19-C , 20-C ) :   1.5220 B( 19-C , 22-C ) :   1.0455
B( 22-C , 23-H ) :   0.9322 B( 22-C , 24-H ) :   0.9209 B( 22-C , 25-C ) :   1.0670
B( 25-C , 26-H ) :   0.9502 B( 25-C , 27-H ) :   0.9480 B( 25-C , 28-C ) :   1.0795
B( 28-C , 29-H ) :   0.9709 B( 28-C , 30-H ) :   0.9708 B( 28-C , 31-H ) :   0.9730

Dispersion correction           -0.013627392
FINAL SINGLE POINT ENERGY     -1339.850280064820

DIPOLE MOMENT
-------------
                                X             Y             Z
Electronic contribution:      6.27958      -9.58841     -11.54494
Nuclear contribution   :     -6.44856       9.65951      11.79732
                        -----------------------------------------
Total Dipole Moment    :     -0.16899       0.07110       0.25239
                        -----------------------------------------
Magnitude (a.u.)       :      0.31195
Magnitude (Debye)      :      0.79290

Rotational constants in cm-1:     0.019931     0.007977     0.006257
Rotational constants in MHz :   597.524236   239.156858   187.590946

                             ****ORCA TERMINATED NORMALLY****
TOTAL RUN TIME: 0 days 0 hours 0 minutes 19 seconds 969 msec
