                         Program Version 4.2.1 -  RELEASE  -
|  1> ! wB97X-D3 SP def2-SVP
|  2> %pal
|  3> nprocs 24
|  4> end
|  5>
|  6> * xyz 0 1
|  7> S 	 44.1772 	 -21.5248 	 -110.615
|  8> C 	 45.2548 	 -22.2822 	 -109.42
|  9> C 	 46.2254 	 -23.0021 	 -110.092
| 10> C 	 45.979 	 -23.1248 	 -111.504
| 11> C 	 44.9107 	 -22.4568 	 -111.953
| 12> H 	 46.5929 	 -23.7537 	 -112.18
| 13> C 	 47.253 	 -23.7591 	 -109.394
| 14> H 	 46.6372 	 -24.448 	 -108.766
| 15> H 	 47.8364 	 -23.1825 	 -108.717
| 16> C 	 48.1907 	 -24.6242 	 -110.227
| 17> H 	 47.6289 	 -25.3004 	 -110.846
| 18> H 	 48.7007 	 -24.0631 	 -110.965
| 19> C 	 49.3285 	 -25.3134 	 -109.456
| 20> H 	 49.9326 	 -25.9408 	 -110.147
| 21> H 	 49.8979 	 -24.4695 	 -109.023
| 22> H 	 49.0126 	 -25.8804 	 -108.57
| 23> S 	 43.0974 	 -23.5552 	 -113.716
| 24> C 	 42.9963 	 -22.9774 	 -115.343
| 25> C 	 44.1285 	 -22.2054 	 -115.66
| 26> C 	 44.9362 	 -21.8615 	 -114.501
| 27> C 	 44.4781 	 -22.5297 	 -113.351
| 28> H 	 44.2936 	 -21.9205 	 -116.674
| 29> C 	 46.1388 	 -20.8343 	 -114.607
| 30> H 	 46.9732 	 -21.4527 	 -114.295
| 31> H 	 46.0077 	 -20.1281 	 -113.778
| 32> C 	 46.3743 	 -20.0125 	 -115.913
| 33> H 	 45.5638 	 -19.4534 	 -116.267
| 34> H 	 46.4684 	 -20.6137 	 -116.889
| 35> C 	 47.6192 	 -19.1842 	 -115.909
| 36> H 	 48.3804 	 -19.9567 	 -115.574
| 37> H 	 47.5157 	 -18.4001 	 -115.197
| 38> H 	 47.9385 	 -18.7427 	 -116.843
| 39> H 	 45.0788 	 -22.1631 	 -108.326
| 40> H 	 42.2843 	 -23.3654 	 -116.072
| 41> *
| 42>
| 43>                          ****END OF INPUT****

CARTESIAN COORDINATES (ANGSTROEM)
---------------------------------
  S     44.177200  -21.524800  -110.615000
  C     45.254800  -22.282200  -109.420000
  C     46.225400  -23.002100  -110.092000
  C     45.979000  -23.124800  -111.504000
  C     44.910700  -22.456800  -111.953000
  H     46.592900  -23.753700  -112.180000
  C     47.253000  -23.759100  -109.394000
  H     46.637200  -24.448000  -108.766000
  H     47.836400  -23.182500  -108.717000
  C     48.190700  -24.624200  -110.227000
  H     47.628900  -25.300400  -110.846000
  H     48.700700  -24.063100  -110.965000
  C     49.328500  -25.313400  -109.456000
  H     49.932600  -25.940800  -110.147000
  H     49.897900  -24.469500  -109.023000
  H     49.012600  -25.880400  -108.570000
  S     43.097400  -23.555200  -113.716000
  C     42.996300  -22.977400  -115.343000
  C     44.128500  -22.205400  -115.660000
  C     44.936200  -21.861500  -114.501000
  C     44.478100  -22.529700  -113.351000
  H     44.293600  -21.920500  -116.674000
  C     46.138800  -20.834300  -114.607000
  H     46.973200  -21.452700  -114.295000
  H     46.007700  -20.128100  -113.778000
  C     46.374300  -20.012500  -115.913000
  H     45.563800  -19.453400  -116.267000
  H     46.468400  -20.613700  -116.889000
  C     47.619200  -19.184200  -115.909000
  H     48.380400  -19.956700  -115.574000
  H     47.515700  -18.400100  -115.197000
  H     47.938500  -18.742700  -116.843000
  H     45.078800  -22.163100  -108.326000
  H     42.284300  -23.365400  -116.072000

 Total Charge           Charge          ....    0
 Multiplicity           Mult            ....    1
 Number of Electrons    NEL             ....  134
 Basis Dimension        Dim             ....  322

ORBITAL ENERGIES
----------------

  NO   OCC          E(Eh)            E(eV)
   0   2.0000     -88.964551     -2420.8485
   1   2.0000     -88.961977     -2420.7785
   2   2.0000     -10.326877      -281.0086
   3   2.0000     -10.325755      -280.9781
   4   2.0000     -10.318329      -280.7760
   5   2.0000     -10.318244      -280.7737
   6   2.0000     -10.314619      -280.6751
   7   2.0000     -10.303379      -280.3692
   8   2.0000     -10.299102      -280.2528
   9   2.0000     -10.294996      -280.1411
  10   2.0000     -10.291978      -280.0590
  11   2.0000     -10.289714      -279.9973
  12   2.0000     -10.287141      -279.9273
  13   2.0000     -10.285313      -279.8776
  14   2.0000     -10.281497      -279.7738
  15   2.0000     -10.277840      -279.6743
  16   2.0000      -8.079397      -219.8516
  17   2.0000      -8.075764      -219.7527
  18   2.0000      -6.037849      -164.2982
  19   2.0000      -6.034520      -164.2076
  20   2.0000      -6.033801      -164.1881
  21   2.0000      -6.030388      -164.0952
  22   2.0000      -6.030303      -164.0929
  23   2.0000      -6.026338      -163.9850
  24   2.0000      -1.001485       -27.2518
  25   2.0000      -0.980304       -26.6754
  26   2.0000      -0.917011       -24.9531
  27   2.0000      -0.906384       -24.6640
  28   2.0000      -0.870304       -23.6822
  29   2.0000      -0.850807       -23.1516
  30   2.0000      -0.845275       -23.0011
  31   2.0000      -0.815304       -22.1855
  32   2.0000      -0.780264       -21.2321
  33   2.0000      -0.767229       -20.8774
  34   2.0000      -0.713826       -19.4242
  35   2.0000      -0.704416       -19.1681
  36   2.0000      -0.688207       -18.7271
  37   2.0000      -0.651844       -17.7376
  38   2.0000      -0.639670       -17.4063
  39   2.0000      -0.620003       -16.8711
  40   2.0000      -0.594513       -16.1775
  41   2.0000      -0.573953       -15.6181
  42   2.0000      -0.565383       -15.3849
  43   2.0000      -0.563609       -15.3366
  44   2.0000      -0.535518       -14.5722
  45   2.0000      -0.529941       -14.4204
  46   2.0000      -0.514554       -14.0017
  47   2.0000      -0.510432       -13.8896
  48   2.0000      -0.504082       -13.7168
  49   2.0000      -0.499839       -13.6013
  50   2.0000      -0.489676       -13.3248
  51   2.0000      -0.481938       -13.1142
  52   2.0000      -0.470477       -12.8023
  53   2.0000      -0.462755       -12.5922
  54   2.0000      -0.455168       -12.3857
  55   2.0000      -0.454207       -12.3596
  56   2.0000      -0.448407       -12.2018
  57   2.0000      -0.433075       -11.7846
  58   2.0000      -0.431709       -11.7474
  59   2.0000      -0.422057       -11.4848
  60   2.0000      -0.418962       -11.4005
  61   2.0000      -0.416550       -11.3349
  62   2.0000      -0.407619       -11.0919
  63   2.0000      -0.334754        -9.1091
  64   2.0000      -0.327557        -8.9133
  65   2.0000      -0.315582        -8.5874
  66   2.0000      -0.308597        -8.3973
  67   0.0000       0.036665         0.9977
  68   0.0000       0.057743         1.5713
  69   0.0000       0.116526         3.1708
  70   0.0000       0.124637         3.3915
  71   0.0000       0.134714         3.6657

MULLIKEN ATOMIC CHARGES
-----------------------
   0 S :    0.099886
   1 C :   -0.162576
   2 C :   -0.054151
   3 C :    0.012714
   4 C :   -0.133454
   5 H :    0.029338
   6 C :    0.063111
   7 H :    0.042012
   8 H :    0.019242
   9 C :   -0.086446
  10 H :    0.019896
  11 H :    0.016060
  12 C :   -0.039903
  13 H :    0.047780
  14 H :    0.029279
  15 H :    0.031288
  16 S :    0.120825
  17 C :   -0.097613
  18 C :   -0.048380
  19 C :   -0.026104
  20 C :   -0.218190
  21 H :    0.012503
  22 C :    0.097586
  23 H :    0.031960
  24 H :    0.041059
  25 C :   -0.081250
  26 H :    0.014499
  27 H :    0.023275
  28 C :   -0.038265
  29 H :    0.034448
  30 H :    0.027053
  31 H :    0.035932
  32 H :    0.070866
  33 H :    0.065719
Sum of atomic charges:   -0.0000000

LOEWDIN ATOMIC CHARGES
----------------------
   0 S :    0.371292
   1 C :   -0.189385
   2 C :   -0.066117
   3 C :   -0.063481
   4 C :   -0.191802
   5 H :    0.039272
   6 C :   -0.036852
   7 H :    0.045809
   8 H :    0.025998
   9 C :   -0.045279
  10 H :    0.017758
  11 H :    0.017908
  12 C :   -0.063092
  13 H :    0.033185
  14 H :    0.027947
  15 H :    0.023020
  16 S :    0.419679
  17 C :   -0.193748
  18 C :   -0.074594
  19 C :   -0.041970
  20 C :   -0.208995
  21 H :    0.024869
  22 C :   -0.026109
  23 H :    0.034707
  24 H :    0.038865
  25 C :   -0.053358
  26 H :    0.014739
  27 H :    0.030086
  28 C :   -0.060972
  29 H :    0.034843
  30 H :    0.018102
  31 H :    0.026513
  32 H :    0.039554
  33 H :    0.031608

  Mayer bond orders larger than 0.100000
B(  0-S ,  1-C ) :   1.1273 B(  0-S ,  4-C ) :   1.1203 B(  1-C ,  2-C ) :   1.6099
B(  1-C , 32-H ) :   0.9733 B(  2-C ,  3-C ) :   1.2298 B(  2-C ,  6-C ) :   1.0202
B(  3-C ,  4-C ) :   1.6053 B(  3-C ,  5-H ) :   0.9828 B(  4-C , 20-C ) :   1.0306
B(  6-C ,  7-H ) :   0.9293 B(  6-C ,  8-H ) :   0.9349 B(  6-C ,  9-C ) :   1.0967
B(  9-C , 10-H ) :   0.9411 B(  9-C , 11-H ) :   0.9504 B(  9-C , 12-C ) :   1.0784
B( 12-C , 13-H ) :   0.9724 B( 12-C , 14-H ) :   0.9736 B( 12-C , 15-H ) :   0.9769
B( 16-S , 17-C ) :   1.1732 B( 16-S , 20-C ) :   1.1559 B( 17-C , 18-C ) :   1.5864
B( 17-C , 20-C ) :   0.1028 B( 17-C , 33-H ) :   0.9641 B( 18-C , 19-C ) :   1.2536
B( 18-C , 21-H ) :   0.9897 B( 19-C , 20-C ) :   1.5940 B( 19-C , 22-C ) :   1.0099
B( 22-C , 23-H ) :   0.9339 B( 22-C , 24-H ) :   0.9359 B( 22-C , 25-C ) :   1.0543
B( 25-C , 26-H ) :   0.9519 B( 25-C , 27-H ) :   0.9490 B( 25-C , 28-C ) :   1.0836
B( 28-C , 29-H ) :   0.9760 B( 28-C , 30-H ) :   0.9763 B( 28-C , 31-H ) :   0.9728

Dispersion correction           -0.013348433
FINAL SINGLE POINT ENERGY     -1339.861306538156

DIPOLE MOMENT
-------------
                                X             Y             Z
Electronic contribution:    -26.20056      -1.12423       3.02346
Nuclear contribution   :     26.78368       1.03926      -3.17404
                        -----------------------------------------
Total Dipole Moment    :      0.58312      -0.08497      -0.15058
                        -----------------------------------------
Magnitude (a.u.)       :      0.60821
Magnitude (Debye)      :      1.54594

Rotational constants in cm-1:     0.015992     0.007789     0.006612
Rotational constants in MHz :   479.430476   233.513783   198.228517

                             ****ORCA TERMINATED NORMALLY****
TOTAL RUN TIME: 0 days 0 hours 0 minutes 19 seconds 525 msec
