                         Program Version 4.2.1 -  RELEASE  -
|  1> ! wB97X-D3 SP def2-SVP
|  2> %pal
|  3> nprocs 24
|  4> end
|  5>
|  6> * xyz 0 1
|  7> S 	 -114.628 	 61.3666 	 -66.4027
|  8> C 	 -115.198 	 61.2967 	 -64.7916
|  9> C 	 -115.531 	 62.5582 	 -64.2196
| 10> C 	 -115.485 	 63.5414 	 -65.2311
| 11> C 	 -114.905 	 63.1147 	 -66.4207
| 12> H 	 -115.873 	 64.5158 	 -65.1588
| 13> C 	 -115.804 	 62.8777 	 -62.7232
| 14> H 	 -116.785 	 63.3942 	 -62.7997
| 15> H 	 -115.068 	 63.6092 	 -62.3936
| 16> C 	 -115.763 	 61.6211 	 -61.7425
| 17> H 	 -116.463 	 60.8729 	 -62.1098
| 18> H 	 -114.794 	 61.2333 	 -61.7477
| 19> C 	 -116.1 	 62.0221 	 -60.3318
| 20> H 	 -115.739 	 63.002 	 -60.0209
| 21> H 	 -117.174 	 62.0604 	 -60.0975
| 22> H 	 -115.758 	 61.2271 	 -59.5814
| 23> S 	 -113.471 	 63.395 	 -68.6825
| 24> C 	 -113.608 	 64.8634 	 -69.6209
| 25> C 	 -114.7 	 65.6166 	 -69.2414
| 26> C 	 -115.331 	 65.1387 	 -68.0869
| 27> C 	 -114.673 	 63.9666 	 -67.5672
| 28> H 	 -114.949 	 66.505 	 -69.8463
| 29> C 	 -116.507 	 65.8617 	 -67.5472
| 30> H 	 -117.073 	 65.1229 	 -66.9988
| 31> H 	 -116.978 	 66.1626 	 -68.5375
| 32> C 	 -116.153 	 66.9973 	 -66.4802
| 33> H 	 -115.874 	 66.4839 	 -65.5257
| 34> H 	 -117.071 	 67.4774 	 -66.1182
| 35> C 	 -115.1 	 67.999 	 -66.8929
| 36> H 	 -115.385 	 68.5038 	 -67.8356
| 37> H 	 -114.253 	 67.4562 	 -67.0418
| 38> H 	 -114.951 	 68.7156 	 -66.0893
| 39> H 	 -115.154 	 60.2989 	 -64.3189
| 40> H 	 -113.178 	 65.138 	 -70.6033
| 41> *
| 42>
| 43>                          ****END OF INPUT****

CARTESIAN COORDINATES (ANGSTROEM)
---------------------------------
  S    -114.628000   61.366600  -66.402700
  C    -115.198000   61.296700  -64.791600
  C    -115.531000   62.558200  -64.219600
  C    -115.485000   63.541400  -65.231100
  C    -114.905000   63.114700  -66.420700
  H    -115.873000   64.515800  -65.158800
  C    -115.804000   62.877700  -62.723200
  H    -116.785000   63.394200  -62.799700
  H    -115.068000   63.609200  -62.393600
  C    -115.763000   61.621100  -61.742500
  H    -116.463000   60.872900  -62.109800
  H    -114.794000   61.233300  -61.747700
  C    -116.100000   62.022100  -60.331800
  H    -115.739000   63.002000  -60.020900
  H    -117.174000   62.060400  -60.097500
  H    -115.758000   61.227100  -59.581400
  S    -113.471000   63.395000  -68.682500
  C    -113.608000   64.863400  -69.620900
  C    -114.700000   65.616600  -69.241400
  C    -115.331000   65.138700  -68.086900
  C    -114.673000   63.966600  -67.567200
  H    -114.949000   66.505000  -69.846300
  C    -116.507000   65.861700  -67.547200
  H    -117.073000   65.122900  -66.998800
  H    -116.978000   66.162600  -68.537500
  C    -116.153000   66.997300  -66.480200
  H    -115.874000   66.483900  -65.525700
  H    -117.071000   67.477400  -66.118200
  C    -115.100000   67.999000  -66.892900
  H    -115.385000   68.503800  -67.835600
  H    -114.253000   67.456200  -67.041800
  H    -114.951000   68.715600  -66.089300
  H    -115.154000   60.298900  -64.318900
  H    -113.178000   65.138000  -70.603300

 Total Charge           Charge          ....    0
 Multiplicity           Mult            ....    1
 Number of Electrons    NEL             ....  134
 Basis Dimension        Dim             ....  322

ORBITAL ENERGIES
----------------

  NO   OCC          E(Eh)            E(eV)
   0   2.0000     -88.969584     -2420.9855
   1   2.0000     -88.968050     -2420.9437
   2   2.0000     -10.329382      -281.0768
   3   2.0000     -10.328517      -281.0532
   4   2.0000     -10.316386      -280.7231
   5   2.0000     -10.313923      -280.6561
   6   2.0000     -10.307812      -280.4898
   7   2.0000     -10.303882      -280.3829
   8   2.0000     -10.301082      -280.3067
   9   2.0000     -10.296880      -280.1924
  10   2.0000     -10.294014      -280.1143
  11   2.0000     -10.290422      -280.0166
  12   2.0000     -10.289668      -279.9961
  13   2.0000     -10.289540      -279.9926
  14   2.0000     -10.284092      -279.8444
  15   2.0000     -10.270041      -279.4620
  16   2.0000      -8.084563      -219.9921
  17   2.0000      -8.082805      -219.9443
  18   2.0000      -6.042994      -164.4382
  19   2.0000      -6.041244      -164.3906
  20   2.0000      -6.039157      -164.3338
  21   2.0000      -6.037408      -164.2862
  22   2.0000      -6.035290      -164.2286
  23   2.0000      -6.033563      -164.1816
  24   2.0000      -1.007442       -27.4139
  25   2.0000      -0.984114       -26.7791
  26   2.0000      -0.910204       -24.7679
  27   2.0000      -0.905850       -24.6494
  28   2.0000      -0.869534       -23.6612
  29   2.0000      -0.859550       -23.3895
  30   2.0000      -0.851698       -23.1759
  31   2.0000      -0.812439       -22.1076
  32   2.0000      -0.781671       -21.2704
  33   2.0000      -0.764328       -20.7984
  34   2.0000      -0.713917       -19.4267
  35   2.0000      -0.705782       -19.2053
  36   2.0000      -0.685647       -18.6574
  37   2.0000      -0.666453       -18.1351
  38   2.0000      -0.638730       -17.3807
  39   2.0000      -0.616211       -16.7680
  40   2.0000      -0.577879       -15.7249
  41   2.0000      -0.571937       -15.5632
  42   2.0000      -0.558875       -15.2078
  43   2.0000      -0.553758       -15.0685
  44   2.0000      -0.549544       -14.9539
  45   2.0000      -0.522799       -14.2261
  46   2.0000      -0.522162       -14.2087
  47   2.0000      -0.509614       -13.8673
  48   2.0000      -0.497319       -13.5327
  49   2.0000      -0.494052       -13.4438
  50   2.0000      -0.489873       -13.3301
  51   2.0000      -0.483352       -13.1527
  52   2.0000      -0.477824       -13.0023
  53   2.0000      -0.467869       -12.7314
  54   2.0000      -0.461316       -12.5531
  55   2.0000      -0.453300       -12.3349
  56   2.0000      -0.440447       -11.9852
  57   2.0000      -0.436784       -11.8855
  58   2.0000      -0.434114       -11.8128
  59   2.0000      -0.429542       -11.6884
  60   2.0000      -0.427272       -11.6266
  61   2.0000      -0.420769       -11.4497
  62   2.0000      -0.409514       -11.1434
  63   2.0000      -0.358229        -9.7479
  64   2.0000      -0.335921        -9.1409
  65   2.0000      -0.326138        -8.8747
  66   2.0000      -0.272863        -7.4250
  67   0.0000       0.019477         0.5300
  68   0.0000       0.073816         2.0086
  69   0.0000       0.107176         2.9164
  70   0.0000       0.120211         3.2711
  71   0.0000       0.125827         3.4239

MULLIKEN ATOMIC CHARGES
-----------------------
   0 S :    0.122631
   1 C :   -0.161036
   2 C :   -0.060963
   3 C :    0.011044
   4 C :   -0.102361
   5 H :   -0.046841
   6 C :    0.023559
   7 H :    0.042784
   8 H :    0.046079
   9 C :   -0.043261
  10 H :    0.039240
  11 H :    0.029543
  12 C :   -0.065220
  13 H :    0.029485
  14 H :    0.028912
  15 H :    0.039132
  16 S :    0.103235
  17 C :   -0.084143
  18 C :   -0.080355
  19 C :   -0.059433
  20 C :   -0.145950
  21 H :    0.029964
  22 C :    0.051168
  23 H :    0.026316
  24 H :    0.047724
  25 C :   -0.092458
  26 H :    0.029691
  27 H :    0.026004
  28 C :   -0.004940
  29 H :    0.032735
  30 H :    0.030320
  31 H :    0.035191
  32 H :    0.062639
  33 H :    0.059567
Sum of atomic charges:    0.0000000

LOEWDIN ATOMIC CHARGES
----------------------
   0 S :    0.413234
   1 C :   -0.220106
   2 C :   -0.060290
   3 C :   -0.061149
   4 C :   -0.188967
   5 H :    0.017528
   6 C :   -0.027915
   7 H :    0.036682
   8 H :    0.033375
   9 C :   -0.035085
  10 H :    0.028577
  11 H :    0.020134
  12 C :   -0.073752
  13 H :    0.023191
  14 H :    0.025664
  15 H :    0.034929
  16 S :    0.416378
  17 C :   -0.203156
  18 C :   -0.078497
  19 C :   -0.066057
  20 C :   -0.197425
  21 H :    0.037448
  22 C :   -0.036636
  23 H :    0.028904
  24 H :    0.044472
  25 C :   -0.039786
  26 H :    0.024366
  27 H :    0.021398
  28 C :   -0.056395
  29 H :    0.028477
  30 H :    0.015133
  31 H :    0.030317
  32 H :    0.027564
  33 H :    0.037445

  Mayer bond orders larger than 0.100000
B(  0-S ,  1-C ) :   1.1575 B(  0-S ,  4-C ) :   1.1408 B(  1-C ,  2-C ) :   1.5728
B(  1-C , 32-H ) :   0.9609 B(  2-C ,  3-C ) :   1.2705 B(  2-C ,  6-C ) :   0.9968
B(  3-C ,  4-C ) :   1.5475 B(  3-C ,  5-H ) :   1.0009 B(  4-C , 20-C ) :   1.1032
B(  6-C ,  7-H ) :   0.9422 B(  6-C ,  8-H ) :   0.9452 B(  6-C ,  9-C ) :   1.0751
B(  9-C , 10-H ) :   0.9538 B(  9-C , 11-H ) :   0.9535 B(  9-C , 12-C ) :   1.0855
B( 12-C , 13-H ) :   0.9743 B( 12-C , 14-H ) :   0.9752 B( 12-C , 15-H ) :   0.9730
B( 16-S , 17-C ) :   1.1545 B( 16-S , 20-C ) :   1.1533 B( 17-C , 18-C ) :   1.6085
B( 17-C , 20-C ) :   0.1066 B( 17-C , 33-H ) :   0.9573 B( 18-C , 19-C ) :   1.2783
B( 18-C , 21-H ) :   0.9814 B( 19-C , 20-C ) :   1.4996 B( 19-C , 22-C ) :   1.0369
B( 22-C , 23-H ) :   0.9254 B( 22-C , 24-H ) :   0.9404 B( 22-C , 25-C ) :   1.0597
B( 25-C , 26-H ) :   0.9463 B( 25-C , 27-H ) :   0.9549 B( 25-C , 28-C ) :   1.0827
B( 28-C , 29-H ) :   0.9742 B( 28-C , 30-H ) :   0.9696 B( 28-C , 31-H ) :   0.9684

Dispersion correction           -0.014323065
FINAL SINGLE POINT ENERGY     -1339.862951062291

DIPOLE MOMENT
-------------
                                X             Y             Z
Electronic contribution:     10.79828     -14.02790     -22.26025
Nuclear contribution   :    -11.12737      14.39253      22.66368
                        -----------------------------------------
Total Dipole Moment    :     -0.32909       0.36463       0.40343
                        -----------------------------------------
Magnitude (a.u.)       :      0.63562
Magnitude (Debye)      :      1.61561

Rotational constants in cm-1:     0.021367     0.007859     0.006030
Rotational constants in MHz :   640.576552   235.610820   180.771011

                             ****ORCA TERMINATED NORMALLY****
TOTAL RUN TIME: 0 days 0 hours 0 minutes 21 seconds 550 msec
