                         Program Version 4.2.1 -  RELEASE  -
|  1> ! wB97X-D3 SP def2-SVP
|  2> %pal
|  3> nprocs 24
|  4> end
|  5>
|  6> * xyz 0 1
|  7> S 	 -127.438 	 62.9192 	 -59.3343
|  8> C 	 -128.376 	 63.4139 	 -60.72
|  9> C 	 -129.242 	 62.4036 	 -61.1343
| 10> C 	 -129.157 	 61.2221 	 -60.3191
| 11> C 	 -128.235 	 61.3351 	 -59.3061
| 12> H 	 -129.738 	 60.3551 	 -60.4745
| 13> C 	 -130.118 	 62.4186 	 -62.3937
| 14> H 	 -129.63 	 61.5945 	 -62.9436
| 15> H 	 -129.846 	 63.2218 	 -63.0508
| 16> C 	 -131.664 	 62.1672 	 -62.3182
| 17> H 	 -131.917 	 61.1259 	 -62.0268
| 18> H 	 -132.132 	 62.8449 	 -61.6006
| 19> C 	 -132.426 	 62.3933 	 -63.6463
| 20> H 	 -133.481 	 62.6261 	 -63.3299
| 21> H 	 -132.055 	 63.2314 	 -64.1878
| 22> H 	 -132.41 	 61.5433 	 -64.365
| 23> S 	 -126.264 	 59.7086 	 -57.9835
| 24> C 	 -126.915 	 58.6027 	 -56.8371
| 25> C 	 -128.225 	 58.8345 	 -56.5574
| 26> C 	 -128.821 	 59.8624 	 -57.3426
| 27> C 	 -127.923 	 60.3917 	 -58.2781
| 28> H 	 -128.775 	 58.3436 	 -55.8022
| 29> C 	 -130.288 	 60.2029 	 -57.1518
| 30> H 	 -130.575 	 60.9318 	 -57.9375
| 31> H 	 -130.448 	 60.8069 	 -56.2718
| 32> C 	 -131.316 	 58.96 	 -57.1088
| 33> H 	 -130.903 	 58.3175 	 -56.3454
| 34> H 	 -131.407 	 58.3537 	 -58.0573
| 35> C 	 -132.771 	 59.3213 	 -56.7392
| 36> H 	 -133.255 	 59.7004 	 -57.6388
| 37> H 	 -132.883 	 60.1025 	 -56.0166
| 38> H 	 -133.449 	 58.5106 	 -56.5782
| 39> H 	 -128.272 	 64.372 	 -61.2027
| 40> H 	 -126.325 	 57.8284 	 -56.3822
| 41> *
| 42>
| 43>                          ****END OF INPUT****

CARTESIAN COORDINATES (ANGSTROEM)
---------------------------------
  S    -127.438000   62.919200  -59.334300
  C    -128.376000   63.413900  -60.720000
  C    -129.242000   62.403600  -61.134300
  C    -129.157000   61.222100  -60.319100
  C    -128.235000   61.335100  -59.306100
  H    -129.738000   60.355100  -60.474500
  C    -130.118000   62.418600  -62.393700
  H    -129.630000   61.594500  -62.943600
  H    -129.846000   63.221800  -63.050800
  C    -131.664000   62.167200  -62.318200
  H    -131.917000   61.125900  -62.026800
  H    -132.132000   62.844900  -61.600600
  C    -132.426000   62.393300  -63.646300
  H    -133.481000   62.626100  -63.329900
  H    -132.055000   63.231400  -64.187800
  H    -132.410000   61.543300  -64.365000
  S    -126.264000   59.708600  -57.983500
  C    -126.915000   58.602700  -56.837100
  C    -128.225000   58.834500  -56.557400
  C    -128.821000   59.862400  -57.342600
  C    -127.923000   60.391700  -58.278100
  H    -128.775000   58.343600  -55.802200
  C    -130.288000   60.202900  -57.151800
  H    -130.575000   60.931800  -57.937500
  H    -130.448000   60.806900  -56.271800
  C    -131.316000   58.960000  -57.108800
  H    -130.903000   58.317500  -56.345400
  H    -131.407000   58.353700  -58.057300
  C    -132.771000   59.321300  -56.739200
  H    -133.255000   59.700400  -57.638800
  H    -132.883000   60.102500  -56.016600
  H    -133.449000   58.510600  -56.578200
  H    -128.272000   64.372000  -61.202700
  H    -126.325000   57.828400  -56.382200

 Total Charge           Charge          ....    0
 Multiplicity           Mult            ....    1
 Number of Electrons    NEL             ....  134
 Basis Dimension        Dim             ....  322

ORBITAL ENERGIES
----------------

  NO   OCC          E(Eh)            E(eV)
   0   2.0000     -88.966667     -2420.9061
   1   2.0000     -88.962787     -2420.8005
   2   2.0000     -10.328068      -281.0410
   3   2.0000     -10.327008      -281.0122
   4   2.0000     -10.314777      -280.6793
   5   2.0000     -10.312414      -280.6151
   6   2.0000     -10.304609      -280.4027
   7   2.0000     -10.303549      -280.3738
   8   2.0000     -10.298275      -280.2303
   9   2.0000     -10.297163      -280.2001
  10   2.0000     -10.295642      -280.1587
  11   2.0000     -10.294810      -280.1360
  12   2.0000     -10.291263      -280.0395
  13   2.0000     -10.285953      -279.8950
  14   2.0000     -10.283846      -279.8377
  15   2.0000     -10.275534      -279.6115
  16   2.0000      -8.080975      -219.8945
  17   2.0000      -8.077438      -219.7982
  18   2.0000      -6.039521      -164.3437
  19   2.0000      -6.035982      -164.2474
  20   2.0000      -6.035637      -164.2380
  21   2.0000      -6.031972      -164.1383
  22   2.0000      -6.031635      -164.1291
  23   2.0000      -6.028160      -164.0346
  24   2.0000      -1.002388       -27.2764
  25   2.0000      -0.980726       -26.6869
  26   2.0000      -0.903509       -24.5857
  27   2.0000      -0.899613       -24.4797
  28   2.0000      -0.870811       -23.6960
  29   2.0000      -0.852504       -23.1978
  30   2.0000      -0.846859       -23.0442
  31   2.0000      -0.813150       -22.1269
  32   2.0000      -0.784469       -21.3465
  33   2.0000      -0.768313       -20.9068
  34   2.0000      -0.709449       -19.3051
  35   2.0000      -0.703053       -19.1311
  36   2.0000      -0.696341       -18.9484
  37   2.0000      -0.656569       -17.8662
  38   2.0000      -0.643514       -17.5109
  39   2.0000      -0.621412       -16.9095
  40   2.0000      -0.601973       -16.3805
  41   2.0000      -0.561613       -15.2823
  42   2.0000      -0.558805       -15.2058
  43   2.0000      -0.555355       -15.1120
  44   2.0000      -0.528450       -14.3799
  45   2.0000      -0.522476       -14.2173
  46   2.0000      -0.516813       -14.0632
  47   2.0000      -0.511697       -13.9240
  48   2.0000      -0.508633       -13.8406
  49   2.0000      -0.494799       -13.4642
  50   2.0000      -0.493370       -13.4253
  51   2.0000      -0.475068       -12.9273
  52   2.0000      -0.469308       -12.7705
  53   2.0000      -0.462233       -12.5780
  54   2.0000      -0.460459       -12.5297
  55   2.0000      -0.452427       -12.3112
  56   2.0000      -0.443691       -12.0734
  57   2.0000      -0.438781       -11.9399
  58   2.0000      -0.436961       -11.8903
  59   2.0000      -0.428729       -11.6663
  60   2.0000      -0.422146       -11.4872
  61   2.0000      -0.415623       -11.3097
  62   2.0000      -0.409669       -11.1477
  63   2.0000      -0.342304        -9.3146
  64   2.0000      -0.332151        -9.0383
  65   2.0000      -0.326940        -8.8965
  66   2.0000      -0.292216        -7.9516
  67   0.0000       0.033229         0.9042
  68   0.0000       0.063882         1.7383
  69   0.0000       0.116679         3.1750
  70   0.0000       0.122600         3.3361
  71   0.0000       0.127826         3.4783

MULLIKEN ATOMIC CHARGES
-----------------------
   0 S :    0.102750
   1 C :   -0.123335
   2 C :   -0.081597
   3 C :    0.052168
   4 C :   -0.174982
   5 H :   -0.001007
   6 C :    0.053933
   7 H :    0.035852
   8 H :    0.004484
   9 C :   -0.064047
  10 H :    0.034815
  11 H :    0.038307
  12 C :   -0.077135
  13 H :    0.042817
  14 H :    0.023999
  15 H :    0.043543
  16 S :    0.111379
  17 C :   -0.075907
  18 C :   -0.014640
  19 C :   -0.007502
  20 C :   -0.165748
  21 H :    0.001743
  22 C :    0.063997
  23 H :    0.028364
  24 H :    0.033265
  25 C :   -0.098721
  26 H :    0.029201
  27 H :    0.043973
  28 C :   -0.030838
  29 H :    0.015552
  30 H :    0.027599
  31 H :    0.028107
  32 H :    0.044526
  33 H :    0.055081
Sum of atomic charges:   -0.0000000

LOEWDIN ATOMIC CHARGES
----------------------
   0 S :    0.393483
   1 C :   -0.201405
   2 C :   -0.061213
   3 C :   -0.051914
   4 C :   -0.182114
   5 H :    0.026778
   6 C :   -0.041512
   7 H :    0.040458
   8 H :    0.024482
   9 C :   -0.041031
  10 H :    0.027695
  11 H :    0.026055
  12 C :   -0.068797
  13 H :    0.035435
  14 H :    0.017108
  15 H :    0.027474
  16 S :    0.389657
  17 C :   -0.180302
  18 C :   -0.070804
  19 C :   -0.043797
  20 C :   -0.191220
  21 H :    0.023088
  22 C :   -0.033815
  23 H :    0.032849
  24 H :    0.033677
  25 C :   -0.037526
  26 H :    0.015929
  27 H :    0.032890
  28 C :   -0.071008
  29 H :    0.026913
  30 H :    0.020636
  31 H :    0.026633
  32 H :    0.026521
  33 H :    0.028698

  Mayer bond orders larger than 0.100000
B(  0-S ,  1-C ) :   1.1314 B(  0-S ,  4-C ) :   1.1430 B(  1-C ,  2-C ) :   1.6162
B(  1-C , 32-H ) :   0.9703 B(  2-C ,  3-C ) :   1.2234 B(  2-C ,  6-C ) :   1.0173
B(  3-C ,  4-C ) :   1.5825 B(  3-C ,  5-H ) :   1.0068 B(  4-C , 20-C ) :   1.0655
B(  6-C ,  7-H ) :   0.9388 B(  6-C ,  8-H ) :   0.9445 B(  6-C ,  9-C ) :   1.0475
B(  9-C , 10-H ) :   0.9540 B(  9-C , 11-H ) :   0.9653 B(  9-C , 12-C ) :   1.0757
B( 12-C , 13-H ) :   0.9778 B( 12-C , 14-H ) :   0.9766 B( 12-C , 15-H ) :   0.9785
B( 16-S , 17-C ) :   1.1562 B( 16-S , 20-C ) :   1.1164 B( 17-C , 18-C ) :   1.6066
B( 17-C , 33-H ) :   0.9672 B( 18-C , 19-C ) :   1.2401 B( 18-C , 21-H ) :   0.9962
B( 19-C , 20-C ) :   1.5872 B( 19-C , 22-C ) :   1.0506 B( 22-C , 23-H ) :   0.9311
B( 22-C , 24-H ) :   0.9308 B( 22-C , 25-C ) :   1.0406 B( 25-C , 26-H ) :   0.9589
B( 25-C , 27-H ) :   0.9606 B( 25-C , 28-C ) :   1.0806 B( 28-C , 29-H ) :   0.9725
B( 28-C , 30-H ) :   0.9762 B( 28-C , 31-H ) :   0.9725

Dispersion correction           -0.013557858
FINAL SINGLE POINT ENERGY     -1339.879247463443

DIPOLE MOMENT
-------------
                                X             Y             Z
Electronic contribution:     31.90703       2.81310       8.87119
Nuclear contribution   :    -32.63631      -3.02325      -9.00920
                        -----------------------------------------
Total Dipole Moment    :     -0.72928      -0.21015      -0.13801
                        -----------------------------------------
Magnitude (a.u.)       :      0.77140
Magnitude (Debye)      :      1.96074

Rotational constants in cm-1:     0.015914     0.008774     0.006243
Rotational constants in MHz :   477.103865   263.042605   187.173742

                             ****ORCA TERMINATED NORMALLY****
TOTAL RUN TIME: 0 days 0 hours 0 minutes 19 seconds 756 msec
