                         Program Version 4.2.1 -  RELEASE  -
|  1> ! wB97X-D3 SP def2-SVP
|  2> %pal
|  3> nprocs 24
|  4> end
|  5>
|  6> * xyz 0 1
|  7> S 	 -118.867 	 63.9522 	 -33.9466
|  8> C 	 -118.855 	 63.6204 	 -32.2382
|  9> C 	 -118.512 	 64.7461 	 -31.5343
| 10> C 	 -118.465 	 65.9275 	 -32.3098
| 11> C 	 -118.763 	 65.7059 	 -33.6623
| 12> H 	 -118.231 	 66.9098 	 -31.9944
| 13> C 	 -118.245 	 64.7234 	 -30.0225
| 14> H 	 -117.342 	 65.2364 	 -29.7711
| 15> H 	 -118.167 	 63.709 	 -29.749
| 16> C 	 -119.262 	 65.4951 	 -29.217
| 17> H 	 -118.761 	 65.6836 	 -28.2815
| 18> H 	 -119.565 	 66.4741 	 -29.648
| 19> C 	 -120.506 	 64.6741 	 -28.8908
| 20> H 	 -121.112 	 64.3953 	 -29.775
| 21> H 	 -120.172 	 63.859 	 -28.2548
| 22> H 	 -121.197 	 65.2358 	 -28.2013
| 23> S 	 -117.455 	 66.6018 	 -35.8802
| 24> C 	 -117.99 	 68.1565 	 -36.6223
| 25> C 	 -119.083 	 68.6548 	 -35.9554
| 26> C 	 -119.587 	 67.8044 	 -34.9336
| 27> C 	 -118.837 	 66.6307 	 -34.7566
| 28> H 	 -119.442 	 69.6765 	 -36.0709
| 29> C 	 -120.626 	 68.3992 	 -33.9214
| 30> H 	 -120.796 	 67.7731 	 -33.0151
| 31> H 	 -121.54 	 68.3769 	 -34.5597
| 32> C 	 -120.385 	 69.7767 	 -33.3871
| 33> H 	 -121.255 	 70.1617 	 -32.8383
| 34> H 	 -120.268 	 70.4812 	 -34.2578
| 35> C 	 -119.154 	 69.9102 	 -32.4287
| 36> H 	 -118.406 	 69.1833 	 -32.7373
| 37> H 	 -119.309 	 69.651 	 -31.3965
| 38> H 	 -118.743 	 70.9441 	 -32.4742
| 39> H 	 -118.749 	 62.6805 	 -31.6856
| 40> H 	 -117.456 	 68.767 	 -37.2932
| 41> *
| 42>
| 43>                          ****END OF INPUT****

CARTESIAN COORDINATES (ANGSTROEM)
---------------------------------
  S    -118.867000   63.952200  -33.946600
  C    -118.855000   63.620400  -32.238200
  C    -118.512000   64.746100  -31.534300
  C    -118.465000   65.927500  -32.309800
  C    -118.763000   65.705900  -33.662300
  H    -118.231000   66.909800  -31.994400
  C    -118.245000   64.723400  -30.022500
  H    -117.342000   65.236400  -29.771100
  H    -118.167000   63.709000  -29.749000
  C    -119.262000   65.495100  -29.217000
  H    -118.761000   65.683600  -28.281500
  H    -119.565000   66.474100  -29.648000
  C    -120.506000   64.674100  -28.890800
  H    -121.112000   64.395300  -29.775000
  H    -120.172000   63.859000  -28.254800
  H    -121.197000   65.235800  -28.201300
  S    -117.455000   66.601800  -35.880200
  C    -117.990000   68.156500  -36.622300
  C    -119.083000   68.654800  -35.955400
  C    -119.587000   67.804400  -34.933600
  C    -118.837000   66.630700  -34.756600
  H    -119.442000   69.676500  -36.070900
  C    -120.626000   68.399200  -33.921400
  H    -120.796000   67.773100  -33.015100
  H    -121.540000   68.376900  -34.559700
  C    -120.385000   69.776700  -33.387100
  H    -121.255000   70.161700  -32.838300
  H    -120.268000   70.481200  -34.257800
  C    -119.154000   69.910200  -32.428700
  H    -118.406000   69.183300  -32.737300
  H    -119.309000   69.651000  -31.396500
  H    -118.743000   70.944100  -32.474200
  H    -118.749000   62.680500  -31.685600
  H    -117.456000   68.767000  -37.293200

 Total Charge           Charge          ....    0
 Multiplicity           Mult            ....    1
 Number of Electrons    NEL             ....  134
 Basis Dimension        Dim             ....  322

ORBITAL ENERGIES
----------------

  NO   OCC          E(Eh)            E(eV)
   0   2.0000     -88.968272     -2420.9498
   1   2.0000     -88.965632     -2420.8779
   2   2.0000     -10.332244      -281.1546
   3   2.0000     -10.330927      -281.1188
   4   2.0000     -10.321887      -280.8728
   5   2.0000     -10.311276      -280.5841
   6   2.0000     -10.310466      -280.5620
   7   2.0000     -10.298983      -280.2496
   8   2.0000     -10.296867      -280.1920
   9   2.0000     -10.296588      -280.1844
  10   2.0000     -10.295090      -280.1437
  11   2.0000     -10.294765      -280.1348
  12   2.0000     -10.285741      -279.8892
  13   2.0000     -10.284887      -279.8660
  14   2.0000     -10.281752      -279.7807
  15   2.0000     -10.278869      -279.7023
  16   2.0000      -8.081687      -219.9139
  17   2.0000      -8.079956      -219.8668
  18   2.0000      -6.040391      -164.3674
  19   2.0000      -6.038509      -164.3162
  20   2.0000      -6.036392      -164.2586
  21   2.0000      -6.034576      -164.2092
  22   2.0000      -6.032266      -164.1463
  23   2.0000      -6.030615      -164.1014
  24   2.0000      -1.003623       -27.3100
  25   2.0000      -0.980813       -26.6893
  26   2.0000      -0.916887       -24.9498
  27   2.0000      -0.907882       -24.7047
  28   2.0000      -0.873342       -23.7649
  29   2.0000      -0.845822       -23.0160
  30   2.0000      -0.841940       -22.9103
  31   2.0000      -0.815851       -22.2004
  32   2.0000      -0.784829       -21.3563
  33   2.0000      -0.775805       -21.1107
  34   2.0000      -0.716190       -19.4885
  35   2.0000      -0.695385       -18.9224
  36   2.0000      -0.688761       -18.7421
  37   2.0000      -0.659943       -17.9579
  38   2.0000      -0.642028       -17.4705
  39   2.0000      -0.620584       -16.8869
  40   2.0000      -0.597742       -16.2654
  41   2.0000      -0.574500       -15.6330
  42   2.0000      -0.556352       -15.1391
  43   2.0000      -0.548680       -14.9303
  44   2.0000      -0.545024       -14.8309
  45   2.0000      -0.536165       -14.5898
  46   2.0000      -0.518705       -14.1147
  47   2.0000      -0.516802       -14.0629
  48   2.0000      -0.503553       -13.7024
  49   2.0000      -0.496385       -13.5073
  50   2.0000      -0.488638       -13.2965
  51   2.0000      -0.478586       -13.0230
  52   2.0000      -0.471698       -12.8356
  53   2.0000      -0.466241       -12.6871
  54   2.0000      -0.461961       -12.5706
  55   2.0000      -0.448960       -12.2168
  56   2.0000      -0.443049       -12.0560
  57   2.0000      -0.439443       -11.9579
  58   2.0000      -0.430723       -11.7206
  59   2.0000      -0.426395       -11.6028
  60   2.0000      -0.420962       -11.4550
  61   2.0000      -0.413503       -11.2520
  62   2.0000      -0.408068       -11.1041
  63   2.0000      -0.344157        -9.3650
  64   2.0000      -0.329567        -8.9680
  65   2.0000      -0.327040        -8.8992
  66   2.0000      -0.298359        -8.1188
  67   0.0000       0.028817         0.7842
  68   0.0000       0.053892         1.4665
  69   0.0000       0.102265         2.7828
  70   0.0000       0.115616         3.1461
  71   0.0000       0.125790         3.4229

MULLIKEN ATOMIC CHARGES
-----------------------
   0 S :    0.110264
   1 C :   -0.095141
   2 C :   -0.131090
   3 C :    0.077691
   4 C :   -0.176131
   5 H :   -0.019532
   6 C :    0.131084
   7 H :    0.021057
   8 H :   -0.003827
   9 C :   -0.082797
  10 H :    0.018855
  11 H :    0.036021
  12 C :   -0.071085
  13 H :    0.052463
  14 H :    0.024908
  15 H :    0.030203
  16 S :    0.099281
  17 C :   -0.062127
  18 C :   -0.049132
  19 C :   -0.023966
  20 C :   -0.156409
  21 H :    0.027014
  22 C :    0.034287
  23 H :    0.040944
  24 H :    0.044669
  25 C :   -0.081653
  26 H :    0.038687
  27 H :    0.024910
  28 C :   -0.070292
  29 H :    0.041766
  30 H :    0.030555
  31 H :    0.045370
  32 H :    0.049518
  33 H :    0.043636
Sum of atomic charges:    0.0000000

LOEWDIN ATOMIC CHARGES
----------------------
   0 S :    0.400890
   1 C :   -0.210613
   2 C :   -0.064497
   3 C :   -0.051298
   4 C :   -0.185388
   5 H :    0.022189
   6 C :   -0.020957
   7 H :    0.030990
   8 H :    0.020994
   9 C :   -0.041656
  10 H :    0.021799
  11 H :    0.025682
  12 C :   -0.072310
  13 H :    0.029710
  14 H :    0.022692
  15 H :    0.028051
  16 S :    0.380240
  17 C :   -0.158913
  18 C :   -0.069888
  19 C :   -0.051870
  20 C :   -0.199286
  21 H :    0.033027
  22 C :   -0.037409
  23 H :    0.034134
  24 H :    0.040536
  25 C :   -0.046713
  26 H :    0.029945
  27 H :    0.022503
  28 C :   -0.071109
  29 H :    0.024077
  30 H :    0.021226
  31 H :    0.034615
  32 H :    0.035532
  33 H :    0.023073

  Mayer bond orders larger than 0.100000
B(  0-S ,  1-C ) :   1.1350 B(  0-S ,  4-C ) :   1.1493 B(  1-C ,  2-C ) :   1.6244
B(  1-C ,  4-C ) :   0.1017 B(  1-C , 32-H ) :   0.9566 B(  2-C ,  3-C ) :   1.2391
B(  2-C ,  6-C ) :   1.0325 B(  3-C ,  4-C ) :   1.5579 B(  3-C ,  5-H ) :   1.0031
B(  4-C , 20-C ) :   1.0379 B(  6-C ,  7-H ) :   0.9369 B(  6-C ,  8-H ) :   0.9358
B(  6-C ,  9-C ) :   1.0670 B(  9-C , 10-H ) :   0.9549 B(  9-C , 11-H ) :   0.9568
B(  9-C , 12-C ) :   1.0826 B( 12-C , 13-H ) :   0.9765 B( 12-C , 14-H ) :   0.9739
B( 12-C , 15-H ) :   0.9735 B( 16-S , 17-C ) :   1.1377 B( 16-S , 20-C ) :   1.1352
B( 17-C , 18-C ) :   1.6304 B( 17-C , 33-H ) :   0.9706 B( 18-C , 19-C ) :   1.2397
B( 18-C , 21-H ) :   0.9802 B( 19-C , 20-C ) :   1.6030 B( 19-C , 22-C ) :   1.0217
B( 22-C , 23-H ) :   0.9479 B( 22-C , 24-H ) :   0.9289 B( 22-C , 25-C ) :   1.0888
B( 25-C , 26-H ) :   0.9516 B( 25-C , 27-H ) :   0.9520 B( 25-C , 28-C ) :   1.0577
B( 28-C , 29-H ) :   0.9763 B( 28-C , 30-H ) :   0.9768 B( 28-C , 31-H ) :   0.9732

Dispersion correction           -0.015237288
FINAL SINGLE POINT ENERGY     -1339.868583699590

DIPOLE MOMENT
-------------
                                X             Y             Z
Electronic contribution:      9.27163     -12.70086     -25.13571
Nuclear contribution   :     -9.23990      13.35553      25.79102
                        -----------------------------------------
Total Dipole Moment    :      0.03173       0.65468       0.65531
                        -----------------------------------------
Magnitude (a.u.)       :      0.92684
Magnitude (Debye)      :      2.35584

Rotational constants in cm-1:     0.019123     0.009496     0.007064
Rotational constants in MHz :   573.295885   284.685293   211.763269

                             ****ORCA TERMINATED NORMALLY****
TOTAL RUN TIME: 0 days 0 hours 0 minutes 22 seconds 551 msec
