                         Program Version 4.2.1 -  RELEASE  -
|  1> ! wB97X-D3 SP def2-SVP
|  2> %pal
|  3> nprocs 24
|  4> end
|  5>
|  6> * xyz 0 1
|  7> S 	 -101.881 	 67.3477 	 -7.22984
|  8> C 	 -101.35 	 67.4879 	 -5.53417
|  9> C 	 -102.358 	 67.0715 	 -4.66662
| 10> C 	 -103.516 	 66.6421 	 -5.37978
| 11> C 	 -103.462 	 66.6721 	 -6.71147
| 12> H 	 -104.37 	 66.1735 	 -4.89683
| 13> C 	 -102.303 	 67.3609 	 -3.18682
| 14> H 	 -103.257 	 67.1597 	 -2.75113
| 15> H 	 -102.043 	 68.3739 	 -3.0327
| 16> C 	 -101.35 	 66.4113 	 -2.36051
| 17> H 	 -101.636 	 65.3264 	 -2.48059
| 18> H 	 -100.363 	 66.57 	 -2.70686
| 19> C 	 -101.483 	 66.7333 	 -0.920736
| 20> H 	 -100.902 	 67.6842 	 -0.824925
| 21> H 	 -102.416 	 66.756 	 -0.355785
| 22> H 	 -100.912 	 66.0192 	 -0.358476
| 23> S 	 -104.023 	 64.8018 	 -8.60447
| 24> C 	 -105.621 	 64.6955 	 -9.27555
| 25> C 	 -106.57 	 65.4452 	 -8.52633
| 26> C 	 -105.868 	 66.3199 	 -7.62487
| 27> C 	 -104.508 	 66.1369 	 -7.60755
| 28> H 	 -107.584 	 65.522 	 -8.82958
| 29> C 	 -106.533 	 67.5232 	 -6.96979
| 30> H 	 -106.15 	 68.3131 	 -7.55323
| 31> H 	 -106.188 	 67.5123 	 -5.96773
| 32> C 	 -108.079 	 67.6593 	 -7.11193
| 33> H 	 -108.462 	 68.3649 	 -6.37514
| 34> H 	 -108.663 	 66.7177 	 -6.89547
| 35> C 	 -108.481 	 68.2351 	 -8.49123
| 36> H 	 -108.078 	 67.675 	 -9.34727
| 37> H 	 -108.2 	 69.2508 	 -8.53831
| 38> H 	 -109.585 	 68.1178 	 -8.62922
| 39> H 	 -100.379 	 67.7661 	 -5.16269
| 40> H 	 -105.945 	 63.9224 	 -9.96316
| 41> *
| 42>
| 43>                          ****END OF INPUT****

CARTESIAN COORDINATES (ANGSTROEM)
---------------------------------
  S    -101.881000   67.347700   -7.229840
  C    -101.350000   67.487900   -5.534170
  C    -102.358000   67.071500   -4.666620
  C    -103.516000   66.642100   -5.379780
  C    -103.462000   66.672100   -6.711470
  H    -104.370000   66.173500   -4.896830
  C    -102.303000   67.360900   -3.186820
  H    -103.257000   67.159700   -2.751130
  H    -102.043000   68.373900   -3.032700
  C    -101.350000   66.411300   -2.360510
  H    -101.636000   65.326400   -2.480590
  H    -100.363000   66.570000   -2.706860
  C    -101.483000   66.733300   -0.920736
  H    -100.902000   67.684200   -0.824925
  H    -102.416000   66.756000   -0.355785
  H    -100.912000   66.019200   -0.358476
  S    -104.023000   64.801800   -8.604470
  C    -105.621000   64.695500   -9.275550
  C    -106.570000   65.445200   -8.526330
  C    -105.868000   66.319900   -7.624870
  C    -104.508000   66.136900   -7.607550
  H    -107.584000   65.522000   -8.829580
  C    -106.533000   67.523200   -6.969790
  H    -106.150000   68.313100   -7.553230
  H    -106.188000   67.512300   -5.967730
  C    -108.079000   67.659300   -7.111930
  H    -108.462000   68.364900   -6.375140
  H    -108.663000   66.717700   -6.895470
  C    -108.481000   68.235100   -8.491230
  H    -108.078000   67.675000   -9.347270
  H    -108.200000   69.250800   -8.538310
  H    -109.585000   68.117800   -8.629220
  H    -100.379000   67.766100   -5.162690
  H    -105.945000   63.922400   -9.963160

 Total Charge           Charge          ....    0
 Multiplicity           Mult            ....    1
 Number of Electrons    NEL             ....  134
 Basis Dimension        Dim             ....  322

ORBITAL ENERGIES
----------------

  NO   OCC          E(Eh)            E(eV)
   0   2.0000     -88.965753     -2420.8812
   1   2.0000     -88.965714     -2420.8801
   2   2.0000     -10.327627      -281.0290
   3   2.0000     -10.320866      -280.8451
   4   2.0000     -10.319239      -280.8008
   5   2.0000     -10.316047      -280.7139
   6   2.0000     -10.301982      -280.3312
   7   2.0000     -10.298468      -280.2356
   8   2.0000     -10.295680      -280.1597
   9   2.0000     -10.293415      -280.0981
  10   2.0000     -10.287989      -279.9504
  11   2.0000     -10.287899      -279.9480
  12   2.0000     -10.287139      -279.9273
  13   2.0000     -10.285032      -279.8700
  14   2.0000     -10.279398      -279.7166
  15   2.0000     -10.275988      -279.6238
  16   2.0000      -8.080911      -219.8928
  17   2.0000      -8.079089      -219.8432
  18   2.0000      -6.039232      -164.3359
  19   2.0000      -6.037813      -164.2972
  20   2.0000      -6.035364      -164.2306
  21   2.0000      -6.033809      -164.1883
  22   2.0000      -6.031832      -164.1345
  23   2.0000      -6.029674      -164.0758
  24   2.0000      -1.005026       -27.3481
  25   2.0000      -0.981218       -26.7003
  26   2.0000      -0.914070       -24.8731
  27   2.0000      -0.908206       -24.7135
  28   2.0000      -0.869340       -23.6560
  29   2.0000      -0.851241       -23.1634
  30   2.0000      -0.845017       -22.9941
  31   2.0000      -0.817371       -22.2418
  32   2.0000      -0.781997       -21.2792
  33   2.0000      -0.768689       -20.9171
  34   2.0000      -0.704133       -19.1604
  35   2.0000      -0.701341       -19.0845
  36   2.0000      -0.693500       -18.8711
  37   2.0000      -0.661701       -18.0058
  38   2.0000      -0.640406       -17.4263
  39   2.0000      -0.618619       -16.8335
  40   2.0000      -0.592862       -16.1326
  41   2.0000      -0.576406       -15.6848
  42   2.0000      -0.567740       -15.4490
  43   2.0000      -0.559576       -15.2268
  44   2.0000      -0.535614       -14.5748
  45   2.0000      -0.527282       -14.3481
  46   2.0000      -0.519600       -14.1390
  47   2.0000      -0.513677       -13.9779
  48   2.0000      -0.503278       -13.6949
  49   2.0000      -0.497654       -13.5418
  50   2.0000      -0.494182       -13.4474
  51   2.0000      -0.478980       -13.0337
  52   2.0000      -0.469762       -12.7829
  53   2.0000      -0.465153       -12.6575
  54   2.0000      -0.460354       -12.5269
  55   2.0000      -0.451213       -12.2781
  56   2.0000      -0.445652       -12.1268
  57   2.0000      -0.439081       -11.9480
  58   2.0000      -0.425230       -11.5711
  59   2.0000      -0.422947       -11.5090
  60   2.0000      -0.421143       -11.4599
  61   2.0000      -0.414562       -11.2808
  62   2.0000      -0.413187       -11.2434
  63   2.0000      -0.344598        -9.3770
  64   2.0000      -0.329787        -8.9740
  65   2.0000      -0.324521        -8.8307
  66   2.0000      -0.295567        -8.0428
  67   0.0000       0.031165         0.8481
  68   0.0000       0.064676         1.7599
  69   0.0000       0.111924         3.0456
  70   0.0000       0.114865         3.1256
  71   0.0000       0.133948         3.6449

MULLIKEN ATOMIC CHARGES
-----------------------
   0 S :    0.099773
   1 C :   -0.116384
   2 C :   -0.069010
   3 C :    0.031294
   4 C :   -0.150895
   5 H :    0.019595
   6 C :    0.067739
   7 H :    0.005789
   8 H :    0.030463
   9 C :   -0.079100
  10 H :    0.038372
  11 H :    0.020469
  12 C :   -0.045649
  13 H :    0.025643
  14 H :    0.041882
  15 H :    0.020242
  16 S :    0.121188
  17 C :   -0.089937
  18 C :   -0.039794
  19 C :   -0.083714
  20 C :   -0.157108
  21 H :    0.019962
  22 C :    0.135269
  23 H :    0.033118
  24 H :    0.018170
  25 C :   -0.104366
  26 H :    0.031938
  27 H :    0.036142
  28 C :   -0.071316
  29 H :    0.035898
  30 H :    0.034760
  31 H :    0.037173
  32 H :    0.043115
  33 H :    0.059280
Sum of atomic charges:   -0.0000000

LOEWDIN ATOMIC CHARGES
----------------------
   0 S :    0.369016
   1 C :   -0.181786
   2 C :   -0.063133
   3 C :   -0.064311
   4 C :   -0.184250
   5 H :    0.033709
   6 C :   -0.022939
   7 H :    0.025039
   8 H :    0.027246
   9 C :   -0.033393
  10 H :    0.029342
  11 H :    0.016472
  12 C :   -0.074943
  13 H :    0.030959
  14 H :    0.027838
  15 H :    0.023623
  16 S :    0.427496
  17 C :   -0.187238
  18 C :   -0.069681
  19 C :   -0.051375
  20 C :   -0.210394
  21 H :    0.026081
  22 C :   -0.022018
  23 H :    0.036038
  24 H :    0.025340
  25 C :   -0.046554
  26 H :    0.027784
  27 H :    0.025698
  28 C :   -0.068157
  29 H :    0.023605
  30 H :    0.019877
  31 H :    0.032138
  32 H :    0.025867
  33 H :    0.027007

  Mayer bond orders larger than 0.100000
B(  0-S ,  1-C ) :   1.1276 B(  0-S ,  4-C ) :   1.1169 B(  1-C ,  2-C ) :   1.6204
B(  1-C , 32-H ) :   0.9688 B(  2-C ,  3-C ) :   1.2412 B(  2-C ,  6-C ) :   1.0173
B(  3-C ,  4-C ) :   1.6253 B(  3-C ,  5-H ) :   0.9821 B(  4-C , 20-C ) :   1.0115
B(  6-C ,  7-H ) :   0.9451 B(  6-C ,  8-H ) :   0.9492 B(  6-C ,  9-C ) :   1.0553
B(  9-C , 10-H ) :   0.9589 B(  9-C , 11-H ) :   0.9568 B(  9-C , 12-C ) :   1.0906
B( 12-C , 13-H ) :   0.9706 B( 12-C , 14-H ) :   0.9746 B( 12-C , 15-H ) :   0.9693
B( 16-S , 17-C ) :   1.1830 B( 16-S , 20-C ) :   1.1501 B( 17-C , 18-C ) :   1.5805
B( 17-C , 20-C ) :   0.1014 B( 17-C , 33-H ) :   0.9634 B( 18-C , 19-C ) :   1.2619
B( 18-C , 21-H ) :   0.9842 B( 19-C , 20-C ) :   1.6132 B( 19-C , 22-C ) :   1.0133
B( 22-C , 23-H ) :   0.9369 B( 22-C , 24-H ) :   0.9257 B( 22-C , 25-C ) :   1.0737
B( 25-C , 26-H ) :   0.9548 B( 25-C , 27-H ) :   0.9588 B( 25-C , 28-C ) :   1.0701
B( 28-C , 29-H ) :   0.9771 B( 28-C , 30-H ) :   0.9738 B( 28-C , 31-H ) :   0.9734

Dispersion correction           -0.013673977
FINAL SINGLE POINT ENERGY     -1339.862400440215

DIPOLE MOMENT
-------------
                                X             Y             Z
Electronic contribution:     11.18828      -7.90581     -19.69296
Nuclear contribution   :    -11.58305       8.01750      20.27254
                        -----------------------------------------
Total Dipole Moment    :     -0.39477       0.11169       0.57959
                        -----------------------------------------
Magnitude (a.u.)       :      0.71010
Magnitude (Debye)      :      1.80493

Rotational constants in cm-1:     0.020938     0.007029     0.006060
Rotational constants in MHz :   627.695782   210.724782   181.676700

                             ****ORCA TERMINATED NORMALLY****
TOTAL RUN TIME: 0 days 0 hours 0 minutes 21 seconds 238 msec
