                         Program Version 4.2.1 -  RELEASE  -
|  1> ! wB97X-D3 SP def2-SVP
|  2> %pal
|  3> nprocs 24
|  4> end
|  5>
|  6> * xyz 0 1
|  7> S 	 -125.337 	 67.7681 	 -38.7426
|  8> C 	 -125.82 	 69.3667 	 -39.0734
|  9> C 	 -125.735 	 69.5881 	 -40.4644
| 10> C 	 -125.09 	 68.5346 	 -41.1432
| 11> C 	 -124.872 	 67.4193 	 -40.3602
| 12> H 	 -125.031 	 68.4732 	 -42.1711
| 13> C 	 -126.154 	 70.8723 	 -41.1687
| 14> H 	 -125.308 	 71.5805 	 -40.9978
| 15> H 	 -126.9 	 71.3533 	 -40.5569
| 16> C 	 -126.567 	 70.8391 	 -42.7214
| 17> H 	 -125.709 	 70.6408 	 -43.3792
| 18> H 	 -127.198 	 69.9566 	 -42.8867
| 19> C 	 -127.216 	 72.0417 	 -43.3355
| 20> H 	 -126.698 	 72.888 	 -42.8882
| 21> H 	 -127.144 	 72.1704 	 -44.448
| 22> H 	 -128.299 	 72.0762 	 -42.9295
| 23> S 	 -123.258 	 65.3022 	 -39.6922
| 24> C 	 -123.406 	 63.8472 	 -40.6366
| 25> C 	 -124.196 	 63.9531 	 -41.75
| 26> C 	 -124.799 	 65.2462 	 -41.7618
| 27> C 	 -124.43 	 66.0624 	 -40.7379
| 28> H 	 -124.357 	 63.1139 	 -42.4375
| 29> C 	 -125.815 	 65.7162 	 -42.8029
| 30> H 	 -126.06 	 66.7193 	 -42.3814
| 31> H 	 -126.646 	 65.0711 	 -42.657
| 32> C 	 -125.339 	 65.9387 	 -44.2335
| 33> H 	 -124.926 	 64.9654 	 -44.5605
| 34> H 	 -124.531 	 66.6481 	 -44.186
| 35> C 	 -126.433 	 66.4382 	 -45.1453
| 36> H 	 -127.261 	 65.677 	 -45.1374
| 37> H 	 -126.144 	 66.4264 	 -46.1833
| 38> H 	 -126.947 	 67.2888 	 -44.7792
| 39> H 	 -126.2 	 70.1561 	 -38.3929
| 40> H 	 -122.858 	 62.9243 	 -40.5737
| 41> *
| 42>
| 43>                          ****END OF INPUT****

CARTESIAN COORDINATES (ANGSTROEM)
---------------------------------
  S    -125.337000   67.768100  -38.742600
  C    -125.820000   69.366700  -39.073400
  C    -125.735000   69.588100  -40.464400
  C    -125.090000   68.534600  -41.143200
  C    -124.872000   67.419300  -40.360200
  H    -125.031000   68.473200  -42.171100
  C    -126.154000   70.872300  -41.168700
  H    -125.308000   71.580500  -40.997800
  H    -126.900000   71.353300  -40.556900
  C    -126.567000   70.839100  -42.721400
  H    -125.709000   70.640800  -43.379200
  H    -127.198000   69.956600  -42.886700
  C    -127.216000   72.041700  -43.335500
  H    -126.698000   72.888000  -42.888200
  H    -127.144000   72.170400  -44.448000
  H    -128.299000   72.076200  -42.929500
  S    -123.258000   65.302200  -39.692200
  C    -123.406000   63.847200  -40.636600
  C    -124.196000   63.953100  -41.750000
  C    -124.799000   65.246200  -41.761800
  C    -124.430000   66.062400  -40.737900
  H    -124.357000   63.113900  -42.437500
  C    -125.815000   65.716200  -42.802900
  H    -126.060000   66.719300  -42.381400
  H    -126.646000   65.071100  -42.657000
  C    -125.339000   65.938700  -44.233500
  H    -124.926000   64.965400  -44.560500
  H    -124.531000   66.648100  -44.186000
  C    -126.433000   66.438200  -45.145300
  H    -127.261000   65.677000  -45.137400
  H    -126.144000   66.426400  -46.183300
  H    -126.947000   67.288800  -44.779200
  H    -126.200000   70.156100  -38.392900
  H    -122.858000   62.924300  -40.573700

 Total Charge           Charge          ....    0
 Multiplicity           Mult            ....    1
 Number of Electrons    NEL             ....  134
 Basis Dimension        Dim             ....  322

ORBITAL ENERGIES
----------------

  NO   OCC          E(Eh)            E(eV)
   0   2.0000     -88.967799     -2420.9369
   1   2.0000     -88.967595     -2420.9313
   2   2.0000     -10.328085      -281.0415
   3   2.0000     -10.322907      -280.9006
   4   2.0000     -10.314795      -280.6798
   5   2.0000     -10.314004      -280.6583
   6   2.0000     -10.302725      -280.3514
   7   2.0000     -10.301059      -280.3061
   8   2.0000     -10.298562      -280.2381
   9   2.0000     -10.294576      -280.1296
  10   2.0000     -10.293649      -280.1044
  11   2.0000     -10.289427      -279.9895
  12   2.0000     -10.286301      -279.9045
  13   2.0000     -10.285170      -279.8737
  14   2.0000     -10.282909      -279.8122
  15   2.0000     -10.277339      -279.6606
  16   2.0000      -8.083470      -219.9624
  17   2.0000      -8.082559      -219.9376
  18   2.0000      -6.041819      -164.4063
  19   2.0000      -6.041051      -164.3854
  20   2.0000      -6.037594      -164.2913
  21   2.0000      -6.037157      -164.2794
  22   2.0000      -6.034579      -164.2092
  23   2.0000      -6.033191      -164.1715
  24   2.0000      -1.014623       -27.6093
  25   2.0000      -0.991676       -26.9849
  26   2.0000      -0.911986       -24.8164
  27   2.0000      -0.905937       -24.6518
  28   2.0000      -0.872541       -23.7431
  29   2.0000      -0.858323       -23.3562
  30   2.0000      -0.851408       -23.1680
  31   2.0000      -0.821448       -22.3527
  32   2.0000      -0.782132       -21.2829
  33   2.0000      -0.768510       -20.9122
  34   2.0000      -0.709713       -19.3123
  35   2.0000      -0.699830       -19.0433
  36   2.0000      -0.690278       -18.7834
  37   2.0000      -0.661922       -18.0118
  38   2.0000      -0.643058       -17.4985
  39   2.0000      -0.627094       -17.0641
  40   2.0000      -0.588597       -16.0166
  41   2.0000      -0.571801       -15.5595
  42   2.0000      -0.567722       -15.4485
  43   2.0000      -0.560393       -15.2491
  44   2.0000      -0.530486       -14.4353
  45   2.0000      -0.528770       -14.3886
  46   2.0000      -0.518330       -14.1045
  47   2.0000      -0.509844       -13.8736
  48   2.0000      -0.505130       -13.7453
  49   2.0000      -0.502596       -13.6763
  50   2.0000      -0.495709       -13.4889
  51   2.0000      -0.485117       -13.2007
  52   2.0000      -0.470783       -12.8107
  53   2.0000      -0.468991       -12.7619
  54   2.0000      -0.461983       -12.5712
  55   2.0000      -0.458440       -12.4748
  56   2.0000      -0.451747       -12.2926
  57   2.0000      -0.428810       -11.6685
  58   2.0000      -0.423964       -11.5366
  59   2.0000      -0.423331       -11.5194
  60   2.0000      -0.419787       -11.4230
  61   2.0000      -0.416147       -11.3239
  62   2.0000      -0.411992       -11.2109
  63   2.0000      -0.348314        -9.4781
  64   2.0000      -0.334314        -9.0972
  65   2.0000      -0.330761        -9.0005
  66   2.0000      -0.291810        -7.9405
  67   0.0000       0.033123         0.9013
  68   0.0000       0.074871         2.0373
  69   0.0000       0.114678         3.1206
  70   0.0000       0.121070         3.2945
  71   0.0000       0.125613         3.4181

MULLIKEN ATOMIC CHARGES
-----------------------
   0 S :    0.135358
   1 C :   -0.124529
   2 C :   -0.130654
   3 C :    0.074312
   4 C :   -0.151516
   5 H :   -0.024001
   6 C :    0.064160
   7 H :    0.045167
   8 H :    0.009872
   9 C :   -0.099748
  10 H :    0.034421
  11 H :    0.035201
  12 C :   -0.069944
  13 H :    0.026644
  14 H :    0.056595
  15 H :    0.044566
  16 S :    0.119095
  17 C :   -0.064214
  18 C :   -0.059253
  19 C :   -0.049565
  20 C :   -0.155812
  21 H :    0.029826
  22 C :    0.052711
  23 H :    0.009899
  24 H :    0.023324
  25 C :   -0.048444
  26 H :    0.022773
  27 H :    0.025045
  28 C :   -0.009716
  29 H :    0.014223
  30 H :    0.038411
  31 H :    0.023003
  32 H :    0.059429
  33 H :    0.043360
Sum of atomic charges:    0.0000000

LOEWDIN ATOMIC CHARGES
----------------------
   0 S :    0.451746
   1 C :   -0.231202
   2 C :   -0.061601
   3 C :   -0.065323
   4 C :   -0.201388
   5 H :    0.015280
   6 C :   -0.036912
   7 H :    0.040366
   8 H :    0.025379
   9 C :   -0.052203
  10 H :    0.025206
  11 H :    0.021896
  12 C :   -0.074657
  13 H :    0.024229
  14 H :    0.036597
  15 H :    0.034770
  16 S :    0.410108
  17 C :   -0.181341
  18 C :   -0.073993
  19 C :   -0.052986
  20 C :   -0.205547
  21 H :    0.038195
  22 C :   -0.033187
  23 H :    0.032441
  24 H :    0.024541
  25 C :   -0.037649
  26 H :    0.023727
  27 H :    0.020692
  28 C :   -0.064222
  29 H :    0.030137
  30 H :    0.027987
  31 H :    0.020770
  32 H :    0.040049
  33 H :    0.028098

  Mayer bond orders larger than 0.100000
B(  0-S ,  1-C ) :   1.1631 B(  0-S ,  4-C ) :   1.1938 B(  1-C ,  2-C ) :   1.5533
B(  1-C ,  4-C ) :   0.1074 B(  1-C , 32-H ) :   0.9664 B(  2-C ,  3-C ) :   1.3016
B(  2-C ,  6-C ) :   1.0255 B(  3-C ,  4-C ) :   1.5180 B(  3-C ,  5-H ) :   0.9969
B(  4-C , 20-C ) :   1.0071 B(  6-C ,  7-H ) :   0.9322 B(  6-C ,  8-H ) :   0.9411
B(  6-C ,  9-C ) :   1.0440 B(  9-C , 10-H ) :   0.9480 B(  9-C , 11-H ) :   0.9640
B(  9-C , 12-C ) :   1.0851 B( 12-C , 13-H ) :   0.9727 B( 12-C , 14-H ) :   0.9740
B( 12-C , 15-H ) :   0.9727 B( 16-S , 17-C ) :   1.1505 B( 16-S , 20-C ) :   1.1256
B( 17-C , 18-C ) :   1.6405 B( 17-C , 33-H ) :   0.9601 B( 18-C , 19-C ) :   1.2190
B( 18-C , 21-H ) :   0.9896 B( 19-C , 20-C ) :   1.6431 B( 19-C , 22-C ) :   1.0251
B( 22-C , 23-H ) :   0.9312 B( 22-C , 24-H ) :   0.9281 B( 22-C , 25-C ) :   1.0630
B( 25-C , 26-H ) :   0.9532 B( 25-C , 27-H ) :   0.9507 B( 25-C , 28-C ) :   1.0908
B( 28-C , 29-H ) :   0.9678 B( 28-C , 30-H ) :   0.9716 B( 28-C , 31-H ) :   0.9722

Dispersion correction           -0.014374665
FINAL SINGLE POINT ENERGY     -1339.869302894820

DIPOLE MOMENT
-------------
                                X             Y             Z
Electronic contribution:     13.90970     -14.78164      27.23207
Nuclear contribution   :    -14.18471      14.94458     -27.83517
                        -----------------------------------------
Total Dipole Moment    :     -0.27500       0.16295      -0.60310
                        -----------------------------------------
Magnitude (a.u.)       :      0.68257
Magnitude (Debye)      :      1.73496

Rotational constants in cm-1:     0.017419     0.009659     0.006501
Rotational constants in MHz :   522.207778   289.572085   194.880243

                             ****ORCA TERMINATED NORMALLY****
TOTAL RUN TIME: 0 days 0 hours 0 minutes 22 seconds 126 msec
