                         Program Version 4.2.1 -  RELEASE  -
|  1> ! wB97X-D3 SP def2-SVP
|  2> %pal
|  3> nprocs 24
|  4> end
|  5>
|  6> * xyz 0 1
|  7> S 	 47.5315 	 -33.6128 	 -121.823
|  8> C 	 48.4236 	 -33.5537 	 -123.371
|  9> C 	 47.7823 	 -32.7108 	 -124.203
| 10> C 	 46.6563 	 -32.0302 	 -123.626
| 11> C 	 46.3521 	 -32.4238 	 -122.318
| 12> H 	 46.0578 	 -31.3334 	 -124.174
| 13> C 	 48.1348 	 -32.4687 	 -125.641
| 14> H 	 49.1746 	 -32.5572 	 -125.818
| 15> H 	 47.8174 	 -31.5215 	 -126.123
| 16> C 	 47.5371 	 -33.5873 	 -126.544
| 17> H 	 47.8012 	 -33.2645 	 -127.526
| 18> H 	 48.2279 	 -34.4278 	 -126.44
| 19> C 	 46.0847 	 -34.0576 	 -126.349
| 20> H 	 45.8214 	 -34.7432 	 -127.156
| 21> H 	 45.9145 	 -34.6384 	 -125.424
| 22> H 	 45.4723 	 -33.1722 	 -126.299
| 23> S 	 45.2359 	 -31.5448 	 -119.97
| 24> C 	 43.6824 	 -31.9933 	 -119.531
| 25> C 	 43.0185 	 -32.468 	 -120.612
| 26> C 	 43.8071 	 -32.5336 	 -121.809
| 27> C 	 45.1092 	 -32.1859 	 -121.568
| 28> H 	 42.0094 	 -32.6645 	 -120.411
| 29> C 	 43.2794 	 -33.2868 	 -123.051
| 30> H 	 42.9291 	 -34.2508 	 -122.589
| 31> H 	 44.0333 	 -33.4406 	 -123.893
| 32> C 	 42.0554 	 -32.6566 	 -123.726
| 33> H 	 41.2682 	 -32.4682 	 -122.991
| 34> H 	 41.7124 	 -33.3877 	 -124.514
| 35> C 	 42.282 	 -31.3826 	 -124.491
| 36> H 	 41.5983 	 -31.3119 	 -125.348
| 37> H 	 43.1798 	 -31.3822 	 -125.136
| 38> H 	 42.2611 	 -30.484 	 -123.877
| 39> H 	 49.2948 	 -34.1234 	 -123.628
| 40> H 	 43.2285 	 -31.6737 	 -118.612
| 41> *
| 42>
| 43>                          ****END OF INPUT****

CARTESIAN COORDINATES (ANGSTROEM)
---------------------------------
  S     47.531500  -33.612800  -121.823000
  C     48.423600  -33.553700  -123.371000
  C     47.782300  -32.710800  -124.203000
  C     46.656300  -32.030200  -123.626000
  C     46.352100  -32.423800  -122.318000
  H     46.057800  -31.333400  -124.174000
  C     48.134800  -32.468700  -125.641000
  H     49.174600  -32.557200  -125.818000
  H     47.817400  -31.521500  -126.123000
  C     47.537100  -33.587300  -126.544000
  H     47.801200  -33.264500  -127.526000
  H     48.227900  -34.427800  -126.440000
  C     46.084700  -34.057600  -126.349000
  H     45.821400  -34.743200  -127.156000
  H     45.914500  -34.638400  -125.424000
  H     45.472300  -33.172200  -126.299000
  S     45.235900  -31.544800  -119.970000
  C     43.682400  -31.993300  -119.531000
  C     43.018500  -32.468000  -120.612000
  C     43.807100  -32.533600  -121.809000
  C     45.109200  -32.185900  -121.568000
  H     42.009400  -32.664500  -120.411000
  C     43.279400  -33.286800  -123.051000
  H     42.929100  -34.250800  -122.589000
  H     44.033300  -33.440600  -123.893000
  C     42.055400  -32.656600  -123.726000
  H     41.268200  -32.468200  -122.991000
  H     41.712400  -33.387700  -124.514000
  C     42.282000  -31.382600  -124.491000
  H     41.598300  -31.311900  -125.348000
  H     43.179800  -31.382200  -125.136000
  H     42.261100  -30.484000  -123.877000
  H     49.294800  -34.123400  -123.628000
  H     43.228500  -31.673700  -118.612000

 Total Charge           Charge          ....    0
 Multiplicity           Mult            ....    1
 Number of Electrons    NEL             ....  134
 Basis Dimension        Dim             ....  322

ORBITAL ENERGIES
----------------

  NO   OCC          E(Eh)            E(eV)
   0   2.0000     -88.963622     -2420.8232
   1   2.0000     -88.957778     -2420.6642
   2   2.0000     -10.332591      -281.1641
   3   2.0000     -10.324392      -280.9410
   4   2.0000     -10.313236      -280.6374
   5   2.0000     -10.309259      -280.5292
   6   2.0000     -10.307037      -280.4687
   7   2.0000     -10.299888      -280.2742
   8   2.0000     -10.297124      -280.1990
   9   2.0000     -10.292903      -280.0841
  10   2.0000     -10.289654      -279.9957
  11   2.0000     -10.288435      -279.9625
  12   2.0000     -10.287361      -279.9333
  13   2.0000     -10.283476      -279.8276
  14   2.0000     -10.280414      -279.7443
  15   2.0000     -10.275777      -279.6181
  16   2.0000      -8.077826      -219.8088
  17   2.0000      -8.075044      -219.7331
  18   2.0000      -6.036464      -164.2605
  19   2.0000      -6.033315      -164.1748
  20   2.0000      -6.032346      -164.1485
  21   2.0000      -6.029047      -164.0587
  22   2.0000      -6.028495      -164.0437
  23   2.0000      -6.026032      -163.9767
  24   2.0000      -1.015372       -27.6297
  25   2.0000      -0.989117       -26.9152
  26   2.0000      -0.912845       -24.8398
  27   2.0000      -0.908907       -24.7326
  28   2.0000      -0.871777       -23.7222
  29   2.0000      -0.851433       -23.1687
  30   2.0000      -0.839373       -22.8405
  31   2.0000      -0.818616       -22.2757
  32   2.0000      -0.788497       -21.4561
  33   2.0000      -0.779202       -21.2032
  34   2.0000      -0.707406       -19.2495
  35   2.0000      -0.699301       -19.0290
  36   2.0000      -0.689555       -18.7637
  37   2.0000      -0.657165       -17.8824
  38   2.0000      -0.639638       -17.4054
  39   2.0000      -0.619664       -16.8619
  40   2.0000      -0.601395       -16.3648
  41   2.0000      -0.579758       -15.7760
  42   2.0000      -0.557368       -15.1667
  43   2.0000      -0.551092       -14.9960
  44   2.0000      -0.547924       -14.9098
  45   2.0000      -0.535737       -14.5781
  46   2.0000      -0.520460       -14.1624
  47   2.0000      -0.514529       -14.0011
  48   2.0000      -0.505750       -13.7622
  49   2.0000      -0.500949       -13.6315
  50   2.0000      -0.486740       -13.2449
  51   2.0000      -0.476787       -12.9740
  52   2.0000      -0.475362       -12.9353
  53   2.0000      -0.470604       -12.8058
  54   2.0000      -0.466347       -12.6899
  55   2.0000      -0.446934       -12.1617
  56   2.0000      -0.437708       -11.9106
  57   2.0000      -0.435435       -11.8488
  58   2.0000      -0.431267       -11.7354
  59   2.0000      -0.422497       -11.4967
  60   2.0000      -0.414927       -11.2907
  61   2.0000      -0.408455       -11.1146
  62   2.0000      -0.405015       -11.0210
  63   2.0000      -0.342214        -9.3121
  64   2.0000      -0.330187        -8.9849
  65   2.0000      -0.324658        -8.8344
  66   2.0000      -0.305150        -8.3035
  67   0.0000       0.036287         0.9874
  68   0.0000       0.068846         1.8734
  69   0.0000       0.113789         3.0964
  70   0.0000       0.120213         3.2712
  71   0.0000       0.130768         3.5584

MULLIKEN ATOMIC CHARGES
-----------------------
   0 S :    0.102563
   1 C :   -0.120942
   2 C :   -0.071093
   3 C :    0.035103
   4 C :   -0.113562
   5 H :   -0.000871
   6 C :    0.068389
   7 H :    0.012883
   8 H :    0.031006
   9 C :   -0.091602
  10 H :    0.013578
  11 H :    0.010803
  12 C :   -0.039223
  13 H :    0.041017
  14 H :    0.056588
  15 H :    0.027329
  16 S :    0.106683
  17 C :   -0.081419
  18 C :   -0.050713
  19 C :    0.028764
  20 C :   -0.198217
  21 H :    0.001368
  22 C :    0.035914
  23 H :    0.047160
  24 H :    0.041522
  25 C :   -0.089902
  26 H :    0.031113
  27 H :    0.036851
  28 C :   -0.052201
  29 H :    0.023150
  30 H :    0.011725
  31 H :    0.047740
  32 H :    0.041794
  33 H :    0.056701
Sum of atomic charges:   -0.0000000

LOEWDIN ATOMIC CHARGES
----------------------
   0 S :    0.396462
   1 C :   -0.182583
   2 C :   -0.065129
   3 C :   -0.059296
   4 C :   -0.192586
   5 H :    0.024732
   6 C :   -0.030105
   7 H :    0.026781
   8 H :    0.031224
   9 C :   -0.039899
  10 H :    0.017382
  11 H :    0.017872
  12 C :   -0.067037
  13 H :    0.031881
  14 H :    0.033222
  15 H :    0.019644
  16 S :    0.438619
  17 C :   -0.196422
  18 C :   -0.076678
  19 C :   -0.053265
  20 C :   -0.212276
  21 H :    0.023264
  22 C :   -0.033859
  23 H :    0.041460
  24 H :    0.037163
  25 C :   -0.049224
  26 H :    0.023057
  27 H :    0.032943
  28 C :   -0.077336
  29 H :    0.030083
  30 H :    0.023828
  31 H :    0.026705
  32 H :    0.029597
  33 H :    0.029777

  Mayer bond orders larger than 0.100000
B(  0-S ,  1-C ) :   1.1187 B(  0-S ,  4-C ) :   1.1608 B(  1-C ,  2-C ) :   1.6183
B(  1-C , 32-H ) :   0.9737 B(  2-C ,  3-C ) :   1.2308 B(  2-C ,  6-C ) :   1.0359
B(  3-C ,  4-C ) :   1.5575 B(  3-C ,  5-H ) :   1.0094 B(  4-C , 20-C ) :   1.0114
B(  6-C ,  7-H ) :   0.9373 B(  6-C ,  8-H ) :   0.9497 B(  6-C ,  9-C ) :   1.0692
B(  9-C , 10-H ) :   0.9585 B(  9-C , 11-H ) :   0.9550 B(  9-C , 12-C ) :   1.0747
B( 12-C , 13-H ) :   0.9692 B( 12-C , 14-H ) :   0.9669 B( 12-C , 15-H ) :   0.9761
B( 16-S , 17-C ) :   1.1767 B( 16-S , 20-C ) :   1.1612 B( 17-C , 18-C ) :   1.6080
B( 17-C , 33-H ) :   0.9677 B( 18-C , 19-C ) :   1.2204 B( 18-C , 21-H ) :   1.0022
B( 19-C , 20-C ) :   1.5859 B( 19-C , 22-C ) :   1.0259 B( 22-C , 23-H ) :   0.9390
B( 22-C , 24-H ) :   0.9390 B( 22-C , 25-C ) :   1.0754 B( 25-C , 26-H ) :   0.9557
B( 25-C , 27-H ) :   0.9557 B( 25-C , 28-C ) :   1.0804 B( 28-C , 29-H ) :   0.9699
B( 28-C , 30-H ) :   0.9663 B( 28-C , 31-H ) :   0.9756

Dispersion correction           -0.015883932
FINAL SINGLE POINT ENERGY     -1339.873222615980

DIPOLE MOMENT
-------------
                                X             Y             Z
Electronic contribution:     10.98700       2.72463      27.24389
Nuclear contribution   :    -11.35010      -2.85579     -27.87489
                        -----------------------------------------
Total Dipole Moment    :     -0.36311      -0.13115      -0.63101
                        -----------------------------------------
Magnitude (a.u.)       :      0.73974
Magnitude (Debye)      :      1.88027

Rotational constants in cm-1:     0.018598     0.010457     0.007403
Rotational constants in MHz :   557.541978   313.483747   221.923693

                             ****ORCA TERMINATED NORMALLY****
TOTAL RUN TIME: 0 days 0 hours 0 minutes 22 seconds 962 msec
