                         Program Version 4.2.1 -  RELEASE  -
|  1> ! wB97X-D3 SP def2-SVP
|  2> %pal
|  3> nprocs 24
|  4> end
|  5>
|  6> * xyz 0 1
|  7> S 	 -130.621 	 26.2634 	 -15.3405
|  8> C 	 -130.242 	 24.5991 	 -15.3764
|  9> C 	 -131.376 	 23.7851 	 -15.2857
| 10> C 	 -132.62 	 24.62 	 -15.276
| 11> C 	 -132.381 	 25.9826 	 -15.3736
| 12> H 	 -133.63 	 24.1941 	 -15.1627
| 13> C 	 -131.403 	 22.2546 	 -15.3025
| 14> H 	 -130.38 	 21.98 	 -15.3954
| 15> H 	 -131.826 	 22.0575 	 -16.2513
| 16> C 	 -131.982 	 21.547 	 -14.1073
| 17> H 	 -133.039 	 21.8419 	 -14.0966
| 18> H 	 -132.03 	 20.5366 	 -14.2294
| 19> C 	 -131.265 	 21.8831 	 -12.801
| 20> H 	 -131.514 	 22.9197 	 -12.45
| 21> H 	 -131.46 	 21.2069 	 -11.9938
| 22> H 	 -130.201 	 21.8903 	 -12.9032
| 23> S 	 -132.972 	 28.3681 	 -14.0868
| 24> C 	 -134.435 	 29.2377 	 -14.5739
| 25> C 	 -135.195 	 28.4647 	 -15.4003
| 26> C 	 -134.704 	 27.1784 	 -15.626
| 27> C 	 -133.384 	 26.9703 	 -15.0904
| 28> H 	 -136.04 	 28.8034 	 -16.013
| 29> C 	 -135.323 	 26.2731 	 -16.696
| 30> H 	 -134.619 	 25.5191 	 -17.0076
| 31> H 	 -135.613 	 26.8176 	 -17.5656
| 32> C 	 -136.589 	 25.5719 	 -16.2439
| 33> H 	 -137.332 	 26.2645 	 -16.0623
| 34> H 	 -136.553 	 25.0053 	 -15.2557
| 35> C 	 -137.117 	 24.6877 	 -17.3793
| 36> H 	 -138.104 	 24.3232 	 -17.0368
| 37> H 	 -136.535 	 23.7813 	 -17.3604
| 38> H 	 -137.286 	 25.1569 	 -18.3058
| 39> H 	 -129.223 	 24.277 	 -15.3571
| 40> H 	 -134.643 	 30.2566 	 -14.1635
| 41> *
| 42>
| 43>                          ****END OF INPUT****

CARTESIAN COORDINATES (ANGSTROEM)
---------------------------------
  S    -130.621000   26.263400  -15.340500
  C    -130.242000   24.599100  -15.376400
  C    -131.376000   23.785100  -15.285700
  C    -132.620000   24.620000  -15.276000
  C    -132.381000   25.982600  -15.373600
  H    -133.630000   24.194100  -15.162700
  C    -131.403000   22.254600  -15.302500
  H    -130.380000   21.980000  -15.395400
  H    -131.826000   22.057500  -16.251300
  C    -131.982000   21.547000  -14.107300
  H    -133.039000   21.841900  -14.096600
  H    -132.030000   20.536600  -14.229400
  C    -131.265000   21.883100  -12.801000
  H    -131.514000   22.919700  -12.450000
  H    -131.460000   21.206900  -11.993800
  H    -130.201000   21.890300  -12.903200
  S    -132.972000   28.368100  -14.086800
  C    -134.435000   29.237700  -14.573900
  C    -135.195000   28.464700  -15.400300
  C    -134.704000   27.178400  -15.626000
  C    -133.384000   26.970300  -15.090400
  H    -136.040000   28.803400  -16.013000
  C    -135.323000   26.273100  -16.696000
  H    -134.619000   25.519100  -17.007600
  H    -135.613000   26.817600  -17.565600
  C    -136.589000   25.571900  -16.243900
  H    -137.332000   26.264500  -16.062300
  H    -136.553000   25.005300  -15.255700
  C    -137.117000   24.687700  -17.379300
  H    -138.104000   24.323200  -17.036800
  H    -136.535000   23.781300  -17.360400
  H    -137.286000   25.156900  -18.305800
  H    -129.223000   24.277000  -15.357100
  H    -134.643000   30.256600  -14.163500

 Total Charge           Charge          ....    0
 Multiplicity           Mult            ....    1
 Number of Electrons    NEL             ....  134
 Basis Dimension        Dim             ....  322

ORBITAL ENERGIES
----------------

  NO   OCC          E(Eh)            E(eV)
   0   2.0000     -88.966946     -2420.9137
   1   2.0000     -88.964636     -2420.8508
   2   2.0000     -10.332560      -281.1633
   3   2.0000     -10.332058      -281.1496
   4   2.0000     -10.320761      -280.8422
   5   2.0000     -10.315437      -280.6973
   6   2.0000     -10.309515      -280.5362
   7   2.0000     -10.302694      -280.3506
   8   2.0000     -10.302291      -280.3396
   9   2.0000     -10.292342      -280.0689
  10   2.0000     -10.286505      -279.9100
  11   2.0000     -10.284735      -279.8619
  12   2.0000     -10.281102      -279.7630
  13   2.0000     -10.280589      -279.7490
  14   2.0000     -10.274938      -279.5953
  15   2.0000     -10.273481      -279.5556
  16   2.0000      -8.081863      -219.9187
  17   2.0000      -8.078818      -219.8358
  18   2.0000      -6.040540      -164.3714
  19   2.0000      -6.037344      -164.2845
  20   2.0000      -6.036317      -164.2565
  21   2.0000      -6.033293      -164.1742
  22   2.0000      -6.032443      -164.1511
  23   2.0000      -6.029706      -164.0766
  24   2.0000      -1.002539       -27.2805
  25   2.0000      -0.980378       -26.6774
  26   2.0000      -0.917215       -24.9587
  27   2.0000      -0.912563       -24.8321
  28   2.0000      -0.874466       -23.7954
  29   2.0000      -0.851708       -23.1761
  30   2.0000      -0.842494       -22.9254
  31   2.0000      -0.812910       -22.1204
  32   2.0000      -0.782916       -21.3042
  33   2.0000      -0.770840       -20.9756
  34   2.0000      -0.713816       -19.4239
  35   2.0000      -0.700517       -19.0620
  36   2.0000      -0.696294       -18.9471
  37   2.0000      -0.659623       -17.9493
  38   2.0000      -0.640391       -17.4259
  39   2.0000      -0.619282       -16.8515
  40   2.0000      -0.599812       -16.3217
  41   2.0000      -0.572967       -15.5912
  42   2.0000      -0.566401       -15.4126
  43   2.0000      -0.557659       -15.1747
  44   2.0000      -0.544786       -14.8244
  45   2.0000      -0.521921       -14.2022
  46   2.0000      -0.517006       -14.0684
  47   2.0000      -0.510989       -13.9047
  48   2.0000      -0.504946       -13.7403
  49   2.0000      -0.501954       -13.6589
  50   2.0000      -0.489197       -13.3117
  51   2.0000      -0.480306       -13.0698
  52   2.0000      -0.470936       -12.8148
  53   2.0000      -0.467703       -12.7269
  54   2.0000      -0.454880       -12.3779
  55   2.0000      -0.450807       -12.2671
  56   2.0000      -0.445288       -12.1169
  57   2.0000      -0.441515       -12.0142
  58   2.0000      -0.436855       -11.8874
  59   2.0000      -0.424290       -11.5455
  60   2.0000      -0.419534       -11.4161
  61   2.0000      -0.412920       -11.2361
  62   2.0000      -0.410225       -11.1628
  63   2.0000      -0.359594        -9.7851
  64   2.0000      -0.332969        -9.0605
  65   2.0000      -0.323614        -8.8060
  66   2.0000      -0.282038        -7.6746
  67   0.0000       0.020432         0.5560
  68   0.0000       0.074892         2.0379
  69   0.0000       0.115396         3.1401
  70   0.0000       0.120152         3.2695
  71   0.0000       0.122677         3.3382

MULLIKEN ATOMIC CHARGES
-----------------------
   0 S :    0.107586
   1 C :   -0.114132
   2 C :   -0.128411
   3 C :   -0.004885
   4 C :   -0.118989
   5 H :    0.033363
   6 C :    0.097884
   7 H :   -0.003518
   8 H :    0.030939
   9 C :   -0.008833
  10 H :    0.019715
  11 H :    0.008047
  12 C :   -0.053116
  13 H :    0.047136
  14 H :    0.030483
  15 H :    0.017015
  16 S :    0.092336
  17 C :   -0.120409
  18 C :   -0.007922
  19 C :   -0.023077
  20 C :   -0.154408
  21 H :    0.028324
  22 C :    0.064640
  23 H :    0.015756
  24 H :    0.017010
  25 C :   -0.098722
  26 H :    0.002253
  27 H :    0.035028
  28 C :   -0.018240
  29 H :    0.019417
  30 H :    0.028936
  31 H :    0.031452
  32 H :    0.047773
  33 H :    0.079568
Sum of atomic charges:   -0.0000000

LOEWDIN ATOMIC CHARGES
----------------------
   0 S :    0.408103
   1 C :   -0.206379
   2 C :   -0.056917
   3 C :   -0.058729
   4 C :   -0.192821
   5 H :    0.033710
   6 C :   -0.026475
   7 H :    0.022664
   8 H :    0.030878
   9 C :   -0.033816
  10 H :    0.025838
  11 H :    0.013764
  12 C :   -0.062117
  13 H :    0.035528
  14 H :    0.023842
  15 H :    0.020368
  16 S :    0.390069
  17 C :   -0.187243
  18 C :   -0.075299
  19 C :   -0.056502
  20 C :   -0.186274
  21 H :    0.037723
  22 C :   -0.026986
  23 H :    0.024867
  24 H :    0.027696
  25 C :   -0.041503
  26 H :    0.008102
  27 H :    0.030262
  28 C :   -0.059262
  29 H :    0.028878
  30 H :    0.024253
  31 H :    0.019103
  32 H :    0.025422
  33 H :    0.039250

  Mayer bond orders larger than 0.100000
B(  0-S ,  1-C ) :   1.1474 B(  0-S ,  4-C ) :   1.1289 B(  1-C ,  2-C ) :   1.6076
B(  1-C , 32-H ) :   0.9689 B(  2-C ,  3-C ) :   1.2266 B(  2-C ,  6-C ) :   1.0108
B(  3-C ,  4-C ) :   1.5537 B(  3-C ,  5-H ) :   0.9862 B(  4-C , 20-C ) :   1.1042
B(  6-C ,  7-H ) :   0.9355 B(  6-C ,  8-H ) :   0.9400 B(  6-C ,  9-C ) :   1.0772
B(  9-C , 10-H ) :   0.9525 B(  9-C , 11-H ) :   0.9531 B(  9-C , 12-C ) :   1.0693
B( 12-C , 13-H ) :   0.9727 B( 12-C , 14-H ) :   0.9756 B( 12-C , 15-H ) :   0.9766
B( 16-S , 17-C ) :   1.1483 B( 16-S , 20-C ) :   1.1484 B( 17-C , 18-C ) :   1.5660
B( 17-C , 20-C ) :   0.1048 B( 17-C , 33-H ) :   0.9647 B( 18-C , 19-C ) :   1.3031
B( 18-C , 21-H ) :   0.9829 B( 19-C , 20-C ) :   1.5190 B( 19-C , 22-C ) :   1.0458
B( 22-C , 23-H ) :   0.9392 B( 22-C , 24-H ) :   0.9392 B( 22-C , 25-C ) :   1.0535
B( 25-C , 26-H ) :   0.9542 B( 25-C , 27-H ) :   0.9536 B( 25-C , 28-C ) :   1.0921
B( 28-C , 29-H ) :   0.9706 B( 28-C , 30-H ) :   0.9753 B( 28-C , 31-H ) :   0.9724

Dispersion correction           -0.014064385
FINAL SINGLE POINT ENERGY     -1339.866918459109

DIPOLE MOMENT
-------------
                                X             Y             Z
Electronic contribution:     14.00891      23.52289       3.17649
Nuclear contribution   :    -14.35099     -24.04122      -3.34580
                        -----------------------------------------
Total Dipole Moment    :     -0.34208      -0.51834      -0.16931
                        -----------------------------------------
Magnitude (a.u.)       :      0.64371
Magnitude (Debye)      :      1.63617

Rotational constants in cm-1:     0.016663     0.009222     0.006797
Rotational constants in MHz :   499.544886   276.475601   203.755597

                             ****ORCA TERMINATED NORMALLY****
TOTAL RUN TIME: 0 days 0 hours 0 minutes 21 seconds 490 msec
