                         Program Version 4.2.1 -  RELEASE  -
|  1> ! wB97X-D3 SP def2-SVP
|  2> %pal
|  3> nprocs 24
|  4> end
|  5>
|  6> * xyz 0 1
|  7> S 	 -119.723 	 51.3922 	 -31.729
|  8> C 	 -119.398 	 50.3864 	 -33.1052
|  9> C 	 -120.529 	 49.6948 	 -33.5601
| 10> C 	 -121.7 	 50.0799 	 -32.7931
| 11> C 	 -121.387 	 50.936 	 -31.7138
| 12> H 	 -122.725 	 49.9113 	 -32.9873
| 13> C 	 -120.549 	 48.8221 	 -34.7359
| 14> H 	 -120.711 	 47.7629 	 -34.4012
| 15> H 	 -119.508 	 48.8404 	 -35.1345
| 16> C 	 -121.574 	 49.1745 	 -35.8238
| 17> H 	 -122.513 	 48.8049 	 -35.4407
| 18> H 	 -121.723 	 50.3002 	 -35.8959
| 19> C 	 -121.347 	 48.3505 	 -37.0793
| 20> H 	 -122.131 	 48.5434 	 -37.7605
| 21> H 	 -120.458 	 48.681 	 -37.6281
| 22> H 	 -121.311 	 47.2405 	 -36.8959
| 23> S 	 -121.592 	 51.1131 	 -28.8868
| 24> C 	 -122.924 	 51.9957 	 -28.1381
| 25> C 	 -123.776 	 52.4014 	 -29.1373
| 26> C 	 -123.331 	 52.2003 	 -30.5201
| 27> C 	 -122.156 	 51.3942 	 -30.562
| 28> H 	 -124.578 	 53.1003 	 -28.8617
| 29> C 	 -124.036 	 52.8187 	 -31.7612
| 30> H 	 -123.679 	 52.2027 	 -32.657
| 31> H 	 -123.709 	 53.8612 	 -31.9377
| 32> C 	 -125.507 	 52.7545 	 -31.734
| 33> H 	 -125.963 	 53.4943 	 -31.0857
| 34> H 	 -125.846 	 51.7521 	 -31.5479
| 35> C 	 -126.082 	 53.1727 	 -33.1006
| 36> H 	 -127.191 	 53.1769 	 -33.0428
| 37> H 	 -125.951 	 52.4582 	 -33.874
| 38> H 	 -125.755 	 54.1862 	 -33.4582
| 39> H 	 -118.414 	 50.1736 	 -33.4793
| 40> H 	 -123.158 	 52.235 	 -27.1708
| 41> *
| 42>
| 43>                          ****END OF INPUT****

CARTESIAN COORDINATES (ANGSTROEM)
---------------------------------
  S    -119.723000   51.392200  -31.729000
  C    -119.398000   50.386400  -33.105200
  C    -120.529000   49.694800  -33.560100
  C    -121.700000   50.079900  -32.793100
  C    -121.387000   50.936000  -31.713800
  H    -122.725000   49.911300  -32.987300
  C    -120.549000   48.822100  -34.735900
  H    -120.711000   47.762900  -34.401200
  H    -119.508000   48.840400  -35.134500
  C    -121.574000   49.174500  -35.823800
  H    -122.513000   48.804900  -35.440700
  H    -121.723000   50.300200  -35.895900
  C    -121.347000   48.350500  -37.079300
  H    -122.131000   48.543400  -37.760500
  H    -120.458000   48.681000  -37.628100
  H    -121.311000   47.240500  -36.895900
  S    -121.592000   51.113100  -28.886800
  C    -122.924000   51.995700  -28.138100
  C    -123.776000   52.401400  -29.137300
  C    -123.331000   52.200300  -30.520100
  C    -122.156000   51.394200  -30.562000
  H    -124.578000   53.100300  -28.861700
  C    -124.036000   52.818700  -31.761200
  H    -123.679000   52.202700  -32.657000
  H    -123.709000   53.861200  -31.937700
  C    -125.507000   52.754500  -31.734000
  H    -125.963000   53.494300  -31.085700
  H    -125.846000   51.752100  -31.547900
  C    -126.082000   53.172700  -33.100600
  H    -127.191000   53.176900  -33.042800
  H    -125.951000   52.458200  -33.874000
  H    -125.755000   54.186200  -33.458200
  H    -118.414000   50.173600  -33.479300
  H    -123.158000   52.235000  -27.170800

 Total Charge           Charge          ....    0
 Multiplicity           Mult            ....    1
 Number of Electrons    NEL             ....  134
 Basis Dimension        Dim             ....  322

ORBITAL ENERGIES
----------------

  NO   OCC          E(Eh)            E(eV)
   0   2.0000     -88.966953     -2420.9139
   1   2.0000     -88.966246     -2420.8946
   2   2.0000     -10.333690      -281.1940
   3   2.0000     -10.330759      -281.1143
   4   2.0000     -10.314739      -280.6783
   5   2.0000     -10.311830      -280.5992
   6   2.0000     -10.311310      -280.5850
   7   2.0000     -10.302997      -280.3588
   8   2.0000     -10.297942      -280.2212
   9   2.0000     -10.297469      -280.2084
  10   2.0000     -10.295129      -280.1447
  11   2.0000     -10.293379      -280.0971
  12   2.0000     -10.291905      -280.0570
  13   2.0000     -10.282526      -279.8018
  14   2.0000     -10.281472      -279.7731
  15   2.0000     -10.279434      -279.7176
  16   2.0000      -8.081579      -219.9109
  17   2.0000      -8.080376      -219.8782
  18   2.0000      -6.039923      -164.3547
  19   2.0000      -6.039149      -164.3336
  20   2.0000      -6.035882      -164.2447
  21   2.0000      -6.034919      -164.2185
  22   2.0000      -6.032589      -164.1551
  23   2.0000      -6.031034      -164.1128
  24   2.0000      -1.002010       -27.2661
  25   2.0000      -0.976888       -26.5825
  26   2.0000      -0.917491       -24.9662
  27   2.0000      -0.914942       -24.8968
  28   2.0000      -0.870737       -23.6940
  29   2.0000      -0.850428       -23.1413
  30   2.0000      -0.839299       -22.8385
  31   2.0000      -0.817018       -22.2322
  32   2.0000      -0.781316       -21.2607
  33   2.0000      -0.769572       -20.9411
  34   2.0000      -0.713428       -19.4134
  35   2.0000      -0.697208       -18.9720
  36   2.0000      -0.691648       -18.8207
  37   2.0000      -0.650101       -17.6902
  38   2.0000      -0.643209       -17.5026
  39   2.0000      -0.617516       -16.8035
  40   2.0000      -0.594051       -16.1650
  41   2.0000      -0.580112       -15.7857
  42   2.0000      -0.575660       -15.6645
  43   2.0000      -0.560565       -15.2537
  44   2.0000      -0.527201       -14.3459
  45   2.0000      -0.523236       -14.2380
  46   2.0000      -0.515787       -14.0353
  47   2.0000      -0.513104       -13.9623
  48   2.0000      -0.506111       -13.7720
  49   2.0000      -0.496438       -13.5088
  50   2.0000      -0.489921       -13.3314
  51   2.0000      -0.479571       -13.0498
  52   2.0000      -0.471010       -12.8168
  53   2.0000      -0.462265       -12.5789
  54   2.0000      -0.460108       -12.5202
  55   2.0000      -0.448679       -12.2092
  56   2.0000      -0.440418       -11.9844
  57   2.0000      -0.437928       -11.9166
  58   2.0000      -0.436833       -11.8868
  59   2.0000      -0.429153       -11.6778
  60   2.0000      -0.420656       -11.4466
  61   2.0000      -0.414829       -11.2881
  62   2.0000      -0.409363       -11.1393
  63   2.0000      -0.340960        -9.2780
  64   2.0000      -0.329022        -8.9531
  65   2.0000      -0.326038        -8.8719
  66   2.0000      -0.293460        -7.9855
  67   0.0000       0.027860         0.7581
  68   0.0000       0.067546         1.8380
  69   0.0000       0.113695         3.0938
  70   0.0000       0.121134         3.2962
  71   0.0000       0.126227         3.4348

MULLIKEN ATOMIC CHARGES
-----------------------
   0 S :    0.123785
   1 C :   -0.108265
   2 C :   -0.102944
   3 C :    0.068440
   4 C :   -0.203401
   5 H :   -0.000388
   6 C :    0.055071
   7 H :    0.043041
   8 H :    0.014942
   9 C :   -0.098454
  10 H :    0.022112
  11 H :    0.052189
  12 C :   -0.034523
  13 H :    0.023564
  14 H :    0.032644
  15 H :    0.043616
  16 S :    0.108289
  17 C :   -0.046308
  18 C :   -0.044003
  19 C :   -0.046822
  20 C :   -0.142656
  21 H :    0.027099
  22 C :    0.057514
  23 H :    0.027339
  24 H :    0.042767
  25 C :   -0.060384
  26 H :    0.033673
  27 H :    0.029774
  28 C :   -0.068489
  29 H :    0.027212
  30 H :    0.019556
  31 H :    0.037268
  32 H :    0.042805
  33 H :    0.023938
Sum of atomic charges:   -0.0000000

LOEWDIN ATOMIC CHARGES
----------------------
   0 S :    0.433065
   1 C :   -0.205517
   2 C :   -0.061635
   3 C :   -0.056199
   4 C :   -0.200556
   5 H :    0.022653
   6 C :   -0.041644
   7 H :    0.039029
   8 H :    0.029768
   9 C :   -0.045472
  10 H :    0.021470
  11 H :    0.035166
  12 C :   -0.064540
  13 H :    0.021399
  14 H :    0.025375
  15 H :    0.035722
  16 S :    0.388353
  17 C :   -0.170986
  18 C :   -0.077132
  19 C :   -0.052194
  20 C :   -0.201284
  21 H :    0.031232
  22 C :   -0.036076
  23 H :    0.037550
  24 H :    0.036723
  25 C :   -0.043006
  26 H :    0.025657
  27 H :    0.026350
  28 C :   -0.067131
  29 H :    0.027966
  30 H :    0.015099
  31 H :    0.028371
  32 H :    0.023532
  33 H :    0.018892

  Mayer bond orders larger than 0.100000
B(  0-S ,  1-C ) :   1.1468 B(  0-S ,  4-C ) :   1.1797 B(  1-C ,  2-C ) :   1.6017
B(  1-C , 32-H ) :   0.9643 B(  2-C ,  3-C ) :   1.2276 B(  2-C ,  6-C ) :   1.0457
B(  3-C ,  4-C ) :   1.5568 B(  3-C ,  5-H ) :   0.9957 B(  4-C , 20-C ) :   1.0411
B(  6-C ,  7-H ) :   0.9224 B(  6-C ,  8-H ) :   0.9442 B(  6-C ,  9-C ) :   1.0551
B(  9-C , 10-H ) :   0.9434 B(  9-C , 11-H ) :   0.9614 B(  9-C , 12-C ) :   1.0874
B( 12-C , 13-H ) :   0.9720 B( 12-C , 14-H ) :   0.9751 B( 12-C , 15-H ) :   0.9696
B( 16-S , 17-C ) :   1.1355 B( 16-S , 20-C ) :   1.1299 B( 17-C , 18-C ) :   1.6382
B( 17-C , 33-H ) :   0.9739 B( 18-C , 19-C ) :   1.2391 B( 18-C , 21-H ) :   0.9762
B( 19-C , 20-C ) :   1.5819 B( 19-C , 22-C ) :   1.0329 B( 22-C , 23-H ) :   0.9381
B( 22-C , 24-H ) :   0.9278 B( 22-C , 25-C ) :   1.0864 B( 25-C , 26-H ) :   0.9438
B( 25-C , 27-H ) :   0.9544 B( 25-C , 28-C ) :   1.0907 B( 28-C , 29-H ) :   0.9735
B( 28-C , 30-H ) :   0.9743 B( 28-C , 31-H ) :   0.9725

Dispersion correction           -0.013373111
FINAL SINGLE POINT ENERGY     -1339.870258341633

DIPOLE MOMENT
-------------
                                X             Y             Z
Electronic contribution:     17.12054       2.40571      25.95336
Nuclear contribution   :    -17.60095      -2.35972     -26.46377
                        -----------------------------------------
Total Dipole Moment    :     -0.48041       0.04599      -0.51041
                        -----------------------------------------
Magnitude (a.u.)       :      0.70244
Magnitude (Debye)      :      1.78547

Rotational constants in cm-1:     0.017077     0.008461     0.006108
Rotational constants in MHz :   511.962047   253.652606   183.122786

                             ****ORCA TERMINATED NORMALLY****
TOTAL RUN TIME: 0 days 0 hours 0 minutes 21 seconds 12 msec
