                         Program Version 4.2.1 -  RELEASE  -
|  1> ! wB97X-D3 SP def2-SVP
|  2> %pal
|  3> nprocs 24
|  4> end
|  5>
|  6> * xyz 0 1
|  7> S 	 -99.5794 	 0.948023 	 -117.352
|  8> C 	 -100.022 	 1.87741 	 -118.72
|  9> C 	 -101.09 	 2.73672 	 -118.444
| 10> C 	 -101.476 	 2.76355 	 -117.101
| 11> C 	 -100.758 	 1.81057 	 -116.367
| 12> H 	 -102.22 	 3.3878 	 -116.68
| 13> C 	 -101.616 	 3.73807 	 -119.532
| 14> H 	 -101.997 	 4.62768 	 -118.894
| 15> H 	 -102.505 	 3.35782 	 -120
| 16> C 	 -100.615 	 4.17616 	 -120.655
| 17> H 	 -99.7394 	 4.75923 	 -120.187
| 18> H 	 -100.161 	 3.35569 	 -121.1
| 19> C 	 -101.268 	 5.00773 	 -121.75
| 20> H 	 -100.562 	 5.46877 	 -122.453
| 21> H 	 -101.822 	 4.25702 	 -122.306
| 22> H 	 -101.938 	 5.77248 	 -121.347
| 23> S 	 -99.2439 	 1.34818 	 -114.082
| 24> C 	 -100.113 	 1.29589 	 -112.568
| 25> C 	 -101.507 	 1.38372 	 -112.758
| 26> C 	 -101.921 	 1.61016 	 -114.081
| 27> C 	 -100.834 	 1.63072 	 -114.943
| 28> H 	 -102.21 	 1.32208 	 -111.946
| 29> C 	 -103.4 	 1.88454 	 -114.41
| 30> H 	 -103.461 	 1.62297 	 -115.465
| 31> H 	 -103.66 	 2.88723 	 -114.408
| 32> C 	 -104.524 	 1.00323 	 -113.632
| 33> H 	 -104.485 	 1.07952 	 -112.562
| 34> H 	 -104.224 	 -0.025123 	 -113.819
| 35> C 	 -105.896 	 1.10131 	 -114.201
| 36> H 	 -106.466 	 0.245738 	 -113.716
| 37> H 	 -105.886 	 0.984456 	 -115.352
| 38> H 	 -106.295 	 2.07535 	 -113.866
| 39> H 	 -99.6499 	 1.65655 	 -119.697
| 40> H 	 -99.6271 	 1.21246 	 -111.593
| 41> *
| 42>
| 43>                          ****END OF INPUT****

CARTESIAN COORDINATES (ANGSTROEM)
---------------------------------
  S    -99.579400    0.948023  -117.352000
  C    -100.022000    1.877410  -118.720000
  C    -101.090000    2.736720  -118.444000
  C    -101.476000    2.763550  -117.101000
  C    -100.758000    1.810570  -116.367000
  H    -102.220000    3.387800  -116.680000
  C    -101.616000    3.738070  -119.532000
  H    -101.997000    4.627680  -118.894000
  H    -102.505000    3.357820  -120.000000
  C    -100.615000    4.176160  -120.655000
  H    -99.739400    4.759230  -120.187000
  H    -100.161000    3.355690  -121.100000
  C    -101.268000    5.007730  -121.750000
  H    -100.562000    5.468770  -122.453000
  H    -101.822000    4.257020  -122.306000
  H    -101.938000    5.772480  -121.347000
  S    -99.243900    1.348180  -114.082000
  C    -100.113000    1.295890  -112.568000
  C    -101.507000    1.383720  -112.758000
  C    -101.921000    1.610160  -114.081000
  C    -100.834000    1.630720  -114.943000
  H    -102.210000    1.322080  -111.946000
  C    -103.400000    1.884540  -114.410000
  H    -103.461000    1.622970  -115.465000
  H    -103.660000    2.887230  -114.408000
  C    -104.524000    1.003230  -113.632000
  H    -104.485000    1.079520  -112.562000
  H    -104.224000   -0.025123  -113.819000
  C    -105.896000    1.101310  -114.201000
  H    -106.466000    0.245738  -113.716000
  H    -105.886000    0.984456  -115.352000
  H    -106.295000    2.075350  -113.866000
  H    -99.649900    1.656550  -119.697000
  H    -99.627100    1.212460  -111.593000

 Total Charge           Charge          ....    0
 Multiplicity           Mult            ....    1
 Number of Electrons    NEL             ....  134
 Basis Dimension        Dim             ....  322

ORBITAL ENERGIES
----------------

  NO   OCC          E(Eh)            E(eV)
   0   2.0000     -88.969279     -2420.9772
   1   2.0000     -88.967372     -2420.9253
   2   2.0000     -10.329392      -281.0770
   3   2.0000     -10.329174      -281.0711
   4   2.0000     -10.320348      -280.8310
   5   2.0000     -10.307937      -280.4932
   6   2.0000     -10.304124      -280.3895
   7   2.0000     -10.301748      -280.3248
   8   2.0000     -10.301605      -280.3209
   9   2.0000     -10.294887      -280.1381
  10   2.0000     -10.292534      -280.0741
  11   2.0000     -10.292139      -280.0634
  12   2.0000     -10.291629      -280.0495
  13   2.0000     -10.289062      -279.9796
  14   2.0000     -10.289026      -279.9786
  15   2.0000     -10.279424      -279.7173
  16   2.0000      -8.084229      -219.9831
  17   2.0000      -8.080972      -219.8944
  18   2.0000      -6.042582      -164.4270
  19   2.0000      -6.039509      -164.3434
  20   2.0000      -6.038665      -164.3204
  21   2.0000      -6.035782      -164.2420
  22   2.0000      -6.035202      -164.2262
  23   2.0000      -6.031634      -164.1291
  24   2.0000      -1.005131       -27.3510
  25   2.0000      -0.979274       -26.6474
  26   2.0000      -0.905321       -24.6350
  27   2.0000      -0.903631       -24.5891
  28   2.0000      -0.867485       -23.6055
  29   2.0000      -0.860204       -23.4074
  30   2.0000      -0.852054       -23.1856
  31   2.0000      -0.806414       -21.9436
  32   2.0000      -0.783237       -21.3130
  33   2.0000      -0.764108       -20.7924
  34   2.0000      -0.707432       -19.2502
  35   2.0000      -0.699722       -19.0404
  36   2.0000      -0.692778       -18.8514
  37   2.0000      -0.660303       -17.9678
  38   2.0000      -0.642168       -17.4743
  39   2.0000      -0.616582       -16.7780
  40   2.0000      -0.596289       -16.2258
  41   2.0000      -0.568364       -15.4660
  42   2.0000      -0.565198       -15.3798
  43   2.0000      -0.555874       -15.1261
  44   2.0000      -0.527606       -14.3569
  45   2.0000      -0.522301       -14.2125
  46   2.0000      -0.519358       -14.1325
  47   2.0000      -0.513441       -13.9714
  48   2.0000      -0.501845       -13.6559
  49   2.0000      -0.497644       -13.5416
  50   2.0000      -0.488476       -13.2921
  51   2.0000      -0.481238       -13.0952
  52   2.0000      -0.474256       -12.9052
  53   2.0000      -0.466230       -12.6868
  54   2.0000      -0.455361       -12.3910
  55   2.0000      -0.453934       -12.3522
  56   2.0000      -0.448536       -12.2053
  57   2.0000      -0.436463       -11.8768
  58   2.0000      -0.429016       -11.6741
  59   2.0000      -0.422443       -11.4953
  60   2.0000      -0.420295       -11.4368
  61   2.0000      -0.416294       -11.3279
  62   2.0000      -0.414812       -11.2876
  63   2.0000      -0.352825        -9.6009
  64   2.0000      -0.335822        -9.1382
  65   2.0000      -0.333275        -9.0689
  66   2.0000      -0.277419        -7.5490
  67   0.0000       0.022006         0.5988
  68   0.0000       0.069070         1.8795
  69   0.0000       0.105173         2.8619
  70   0.0000       0.127142         3.4597
  71   0.0000       0.134698         3.6653

MULLIKEN ATOMIC CHARGES
-----------------------
   0 S :    0.125876
   1 C :   -0.130606
   2 C :   -0.057526
   3 C :    0.015857
   4 C :   -0.150738
   5 H :    0.002025
   6 C :    0.033707
   7 H :    0.034849
   8 H :    0.028584
   9 C :   -0.082517
  10 H :    0.041728
  11 H :    0.015214
  12 C :   -0.046454
  13 H :    0.040253
  14 H :    0.026379
  15 H :    0.037705
  16 S :    0.100540
  17 C :   -0.094352
  18 C :   -0.030376
  19 C :   -0.016997
  20 C :   -0.162771
  21 H :    0.006770
  22 C :    0.074807
  23 H :    0.017547
  24 H :    0.029596
  25 C :   -0.093906
  26 H :    0.033276
  27 H :    0.025941
  28 C :   -0.075922
  29 H :    0.051811
  30 H :    0.053799
  31 H :    0.039249
  32 H :    0.042674
  33 H :    0.063979
Sum of atomic charges:   -0.0000000

LOEWDIN ATOMIC CHARGES
----------------------
   0 S :    0.423344
   1 C :   -0.214159
   2 C :   -0.061511
   3 C :   -0.060505
   4 C :   -0.186165
   5 H :    0.027842
   6 C :   -0.031981
   7 H :    0.037696
   8 H :    0.024211
   9 C :   -0.042728
  10 H :    0.031581
  11 H :    0.010592
  12 C :   -0.064234
  13 H :    0.029863
  14 H :    0.025059
  15 H :    0.025931
  16 S :    0.375385
  17 C :   -0.187135
  18 C :   -0.068818
  19 C :   -0.053971
  20 C :   -0.172148
  21 H :    0.025918
  22 C :   -0.024561
  23 H :    0.031706
  24 H :    0.018443
  25 C :   -0.044229
  26 H :    0.018137
  27 H :    0.025146
  28 C :   -0.072059
  29 H :    0.038774
  30 H :    0.037716
  31 H :    0.024736
  32 H :    0.020612
  33 H :    0.031513

  Mayer bond orders larger than 0.100000
B(  0-S ,  1-C ) :   1.1471 B(  0-S ,  4-C ) :   1.1686 B(  1-C ,  2-C ) :   1.5798
B(  1-C , 32-H ) :   0.9691 B(  2-C ,  3-C ) :   1.2916 B(  2-C ,  6-C ) :   0.9976
B(  3-C ,  4-C ) :   1.5112 B(  3-C ,  5-H ) :   0.9995 B(  4-C , 20-C ) :   1.0908
B(  6-C ,  7-H ) :   0.9496 B(  6-C ,  8-H ) :   0.9382 B(  6-C ,  9-C ) :   1.0652
B(  9-C , 10-H ) :   0.9572 B(  9-C , 11-H ) :   0.9528 B(  9-C , 12-C ) :   1.0789
B( 12-C , 13-H ) :   0.9731 B( 12-C , 14-H ) :   0.9764 B( 12-C , 15-H ) :   0.9777
B( 16-S , 17-C ) :   1.1506 B( 16-S , 20-C ) :   1.1227 B( 17-C , 18-C ) :   1.5890
B( 17-C , 20-C ) :   0.1072 B( 17-C , 33-H ) :   0.9667 B( 18-C , 19-C ) :   1.2611
B( 18-C , 21-H ) :   0.9888 B( 19-C , 20-C ) :   1.5911 B( 19-C , 22-C ) :   1.0291
B( 22-C , 23-H ) :   0.9251 B( 22-C , 24-H ) :   0.9405 B( 22-C , 25-C ) :   1.0447
B( 25-C , 26-H ) :   0.9540 B( 25-C , 27-H ) :   0.9592 B( 25-C , 28-C ) :   1.0902
B( 28-C , 29-H ) :   0.9714 B( 28-C , 30-H ) :   0.9708 B( 28-C , 31-H ) :   0.9752

Dispersion correction           -0.013155460
FINAL SINGLE POINT ENERGY     -1339.869485081735

DIPOLE MOMENT
-------------
                                X             Y             Z
Electronic contribution:     22.60470     -10.74688      12.10575
Nuclear contribution   :    -23.18784      10.96229     -12.20685
                        -----------------------------------------
Total Dipole Moment    :     -0.58314       0.21541      -0.10110
                        -----------------------------------------
Magnitude (a.u.)       :      0.62983
Magnitude (Debye)      :      1.60089

Rotational constants in cm-1:     0.018583     0.007422     0.005715
Rotational constants in MHz :   557.092406   222.498946   171.335032

                             ****ORCA TERMINATED NORMALLY****
TOTAL RUN TIME: 0 days 0 hours 0 minutes 19 seconds 647 msec
