                         Program Version 4.2.1 -  RELEASE  -
|  1> ! wB97X-D3 SP def2-SVP
|  2> %pal
|  3> nprocs 24
|  4> end
|  5>
|  6> * xyz 0 1
|  7> S 	 19.7872 	 -23.3797 	 -121.416
|  8> C 	 21.3288 	 -23.0753 	 -122.211
|  9> C 	 22.3041 	 -22.7239 	 -121.274
| 10> C 	 21.8007 	 -22.628 	 -119.979
| 11> C 	 20.3912 	 -22.7824 	 -119.892
| 12> H 	 22.3983 	 -22.3868 	 -119.133
| 13> C 	 23.7856 	 -22.6509 	 -121.543
| 14> H 	 23.9033 	 -23.164 	 -122.517
| 15> H 	 24.2757 	 -23.3641 	 -120.722
| 16> C 	 24.4457 	 -21.2299 	 -121.438
| 17> H 	 23.9094 	 -20.6365 	 -122.116
| 18> H 	 24.2375 	 -20.9555 	 -120.349
| 19> C 	 25.9359 	 -21.2085 	 -121.847
| 20> H 	 25.9749 	 -20.9506 	 -122.921
| 21> H 	 26.4983 	 -20.3929 	 -121.324
| 22> H 	 26.4909 	 -22.1461 	 -121.563
| 23> S 	 18.9258 	 -24.2853 	 -118.23
| 24> C 	 17.9725 	 -23.4395 	 -117.062
| 25> C 	 18.0533 	 -22.0593 	 -117.137
| 26> C 	 19.0209 	 -21.6212 	 -118.095
| 27> C 	 19.5166 	 -22.7087 	 -118.785
| 28> H 	 17.4105 	 -21.477 	 -116.472
| 29> C 	 19.396 	 -20.1667 	 -118.356
| 30> H 	 20.4794 	 -19.9875 	 -118.242
| 31> H 	 18.9693 	 -19.6066 	 -117.52
| 32> C 	 18.9595 	 -19.6044 	 -119.719
| 33> H 	 17.8665 	 -19.4993 	 -119.583
| 34> H 	 19.0679 	 -20.2595 	 -120.669
| 35> C 	 19.5211 	 -18.1686 	 -119.902
| 36> H 	 19.4799 	 -18.0271 	 -120.985
| 37> H 	 20.4988 	 -18.014 	 -119.677
| 38> H 	 18.9348 	 -17.393 	 -119.368
| 39> H 	 21.5471 	 -23.2685 	 -123.222
| 40> H 	 17.4557 	 -23.9599 	 -116.237
| 41> *
| 42>
| 43>                          ****END OF INPUT****

CARTESIAN COORDINATES (ANGSTROEM)
---------------------------------
  S     19.787200  -23.379700  -121.416000
  C     21.328800  -23.075300  -122.211000
  C     22.304100  -22.723900  -121.274000
  C     21.800700  -22.628000  -119.979000
  C     20.391200  -22.782400  -119.892000
  H     22.398300  -22.386800  -119.133000
  C     23.785600  -22.650900  -121.543000
  H     23.903300  -23.164000  -122.517000
  H     24.275700  -23.364100  -120.722000
  C     24.445700  -21.229900  -121.438000
  H     23.909400  -20.636500  -122.116000
  H     24.237500  -20.955500  -120.349000
  C     25.935900  -21.208500  -121.847000
  H     25.974900  -20.950600  -122.921000
  H     26.498300  -20.392900  -121.324000
  H     26.490900  -22.146100  -121.563000
  S     18.925800  -24.285300  -118.230000
  C     17.972500  -23.439500  -117.062000
  C     18.053300  -22.059300  -117.137000
  C     19.020900  -21.621200  -118.095000
  C     19.516600  -22.708700  -118.785000
  H     17.410500  -21.477000  -116.472000
  C     19.396000  -20.166700  -118.356000
  H     20.479400  -19.987500  -118.242000
  H     18.969300  -19.606600  -117.520000
  C     18.959500  -19.604400  -119.719000
  H     17.866500  -19.499300  -119.583000
  H     19.067900  -20.259500  -120.669000
  C     19.521100  -18.168600  -119.902000
  H     19.479900  -18.027100  -120.985000
  H     20.498800  -18.014000  -119.677000
  H     18.934800  -17.393000  -119.368000
  H     21.547100  -23.268500  -123.222000
  H     17.455700  -23.959900  -116.237000

 Total Charge           Charge          ....    0
 Multiplicity           Mult            ....    1
 Number of Electrons    NEL             ....  134
 Basis Dimension        Dim             ....  322

ORBITAL ENERGIES
----------------

  NO   OCC          E(Eh)            E(eV)
   0   2.0000     -88.966702     -2420.9070
   1   2.0000     -88.966259     -2420.8950
   2   2.0000     -10.325827      -280.9800
   3   2.0000     -10.319226      -280.8004
   4   2.0000     -10.315667      -280.7036
   5   2.0000     -10.310034      -280.5503
   6   2.0000     -10.305038      -280.4143
   7   2.0000     -10.302166      -280.3362
   8   2.0000     -10.295347      -280.1506
   9   2.0000     -10.295314      -280.1497
  10   2.0000     -10.293604      -280.1032
  11   2.0000     -10.293136      -280.0905
  12   2.0000     -10.291447      -280.0445
  13   2.0000     -10.289284      -279.9857
  14   2.0000     -10.289220      -279.9839
  15   2.0000     -10.269882      -279.4577
  16   2.0000      -8.081246      -219.9019
  17   2.0000      -8.080941      -219.8936
  18   2.0000      -6.039559      -164.3448
  19   2.0000      -6.039371      -164.3396
  20   2.0000      -6.035836      -164.2434
  21   2.0000      -6.035413      -164.2319
  22   2.0000      -6.032078      -164.1412
  23   2.0000      -6.031925      -164.1370
  24   2.0000      -1.007574       -27.4175
  25   2.0000      -0.981673       -26.7127
  26   2.0000      -0.906556       -24.6686
  27   2.0000      -0.904810       -24.6211
  28   2.0000      -0.868683       -23.6381
  29   2.0000      -0.851678       -23.1753
  30   2.0000      -0.846137       -23.0246
  31   2.0000      -0.808218       -21.9927
  32   2.0000      -0.782559       -21.2945
  33   2.0000      -0.766381       -20.8543
  34   2.0000      -0.709341       -19.3021
  35   2.0000      -0.694800       -18.9065
  36   2.0000      -0.690538       -18.7905
  37   2.0000      -0.659817       -17.9545
  38   2.0000      -0.638998       -17.3880
  39   2.0000      -0.618378       -16.8269
  40   2.0000      -0.594516       -16.1776
  41   2.0000      -0.569627       -15.5003
  42   2.0000      -0.560221       -15.2444
  43   2.0000      -0.550535       -14.9808
  44   2.0000      -0.526048       -14.3145
  45   2.0000      -0.516835       -14.0638
  46   2.0000      -0.510743       -13.8980
  47   2.0000      -0.504836       -13.7373
  48   2.0000      -0.502451       -13.6724
  49   2.0000      -0.497413       -13.5353
  50   2.0000      -0.492138       -13.3918
  51   2.0000      -0.482784       -13.1372
  52   2.0000      -0.467689       -12.7265
  53   2.0000      -0.464914       -12.6510
  54   2.0000      -0.461265       -12.5516
  55   2.0000      -0.450400       -12.2560
  56   2.0000      -0.442713       -12.0468
  57   2.0000      -0.439668       -11.9640
  58   2.0000      -0.428231       -11.6527
  59   2.0000      -0.422976       -11.5098
  60   2.0000      -0.419168       -11.4062
  61   2.0000      -0.417158       -11.3515
  62   2.0000      -0.409137       -11.1332
  63   2.0000      -0.337346        -9.1797
  64   2.0000      -0.329110        -8.9555
  65   2.0000      -0.326909        -8.8956
  66   2.0000      -0.292049        -7.9471
  67   0.0000       0.036203         0.9851
  68   0.0000       0.052859         1.4384
  69   0.0000       0.110202         2.9987
  70   0.0000       0.116256         3.1635
  71   0.0000       0.129514         3.5243

MULLIKEN ATOMIC CHARGES
-----------------------
   0 S :    0.115560
   1 C :   -0.109839
   2 C :   -0.072805
   3 C :    0.065203
   4 C :   -0.187583
   5 H :   -0.000145
   6 C :   -0.015908
   7 H :    0.021988
   8 H :    0.050707
   9 C :   -0.054655
  10 H :    0.024602
  11 H :    0.040601
  12 C :   -0.067663
  13 H :    0.044630
  14 H :    0.040332
  15 H :    0.045351
  16 S :    0.123028
  17 C :   -0.102085
  18 C :   -0.054365
  19 C :    0.010499
  20 C :   -0.196315
  21 H :    0.021556
  22 C :    0.089375
  23 H :    0.028269
  24 H :    0.014605
  25 C :   -0.128783
  26 H :    0.031756
  27 H :    0.070285
  28 C :   -0.009732
  29 H :    0.028082
  30 H :    0.006569
  31 H :    0.036058
  32 H :    0.026669
  33 H :    0.064154
Sum of atomic charges:   -0.0000000

LOEWDIN ATOMIC CHARGES
----------------------
   0 S :    0.413135
   1 C :   -0.196326
   2 C :   -0.070745
   3 C :   -0.057016
   4 C :   -0.199022
   5 H :    0.025152
   6 C :   -0.041177
   7 H :    0.026121
   8 H :    0.042855
   9 C :   -0.040355
  10 H :    0.017951
  11 H :    0.031103
  12 C :   -0.076198
  13 H :    0.031613
  14 H :    0.031634
  15 H :    0.031417
  16 S :    0.408856
  17 C :   -0.194431
  18 C :   -0.074965
  19 C :   -0.045899
  20 C :   -0.201754
  21 H :    0.034120
  22 C :   -0.033619
  23 H :    0.030822
  24 H :    0.030916
  25 C :   -0.047380
  26 H :    0.028213
  27 H :    0.038490
  28 C :   -0.061534
  29 H :    0.032075
  30 H :    0.006913
  31 H :    0.030215
  32 H :    0.016661
  33 H :    0.032157

  Mayer bond orders larger than 0.100000
B(  0-S ,  1-C ) :   1.1440 B(  0-S ,  4-C ) :   1.1642 B(  1-C ,  2-C ) :   1.5714
B(  1-C ,  4-C ) :   0.1163 B(  1-C , 32-H ) :   0.9735 B(  2-C ,  3-C ) :   1.2801
B(  2-C ,  6-C ) :   1.0197 B(  3-C ,  4-C ) :   1.5307 B(  3-C ,  5-H ) :   0.9985
B(  4-C , 20-C ) :   1.0517 B(  6-C ,  7-H ) :   0.9454 B(  6-C ,  8-H ) :   0.9431
B(  6-C ,  9-C ) :   1.0415 B(  9-C , 10-H ) :   0.9612 B(  9-C , 11-H ) :   0.9583
B(  9-C , 12-C ) :   1.0717 B( 12-C , 13-H ) :   0.9770 B( 12-C , 14-H ) :   0.9755
B( 12-C , 15-H ) :   0.9752 B( 16-S , 17-C ) :   1.1546 B( 16-S , 20-C ) :   1.1469
B( 17-C , 18-C ) :   1.6277 B( 17-C , 20-C ) :   0.1027 B( 17-C , 33-H ) :   0.9606
B( 18-C , 19-C ) :   1.2221 B( 18-C , 21-H ) :   0.9877 B( 19-C , 20-C ) :   1.6077
B( 19-C , 22-C ) :   1.0367 B( 22-C , 23-H ) :   0.9372 B( 22-C , 24-H ) :   0.9305
B( 22-C , 25-C ) :   1.0468 B( 25-C , 26-H ) :   0.9527 B( 25-C , 27-H ) :   0.9638
B( 25-C , 28-C ) :   1.0672 B( 28-C , 29-H ) :   0.9744 B( 28-C , 30-H ) :   0.9779
B( 28-C , 31-H ) :   0.9755

Dispersion correction           -0.014235066
FINAL SINGLE POINT ENERGY     -1339.864303610375

DIPOLE MOMENT
-------------
                                X             Y             Z
Electronic contribution:    -18.02612     -22.25122       5.41836
Nuclear contribution   :     18.36442      22.68175      -5.28137
                        -----------------------------------------
Total Dipole Moment    :      0.33830       0.43053       0.13699
                        -----------------------------------------
Magnitude (a.u.)       :      0.56442
Magnitude (Debye)      :      1.43463

Rotational constants in cm-1:     0.018611     0.008515     0.006997
Rotational constants in MHz :   557.934694   255.260221   209.762747

                             ****ORCA TERMINATED NORMALLY****
TOTAL RUN TIME: 0 days 0 hours 0 minutes 20 seconds 335 msec
