                         Program Version 4.2.1 -  RELEASE  -
|  1> ! wB97X-D3 SP def2-SVP
|  2> %pal
|  3> nprocs 24
|  4> end
|  5>
|  6> * xyz 0 1
|  7> S 	 -65.844 	 8.95531 	 -83.004
|  8> C 	 -66.7438 	 8.03087 	 -84.2487
|  9> C 	 -67.8547 	 7.34355 	 -83.6792
| 10> C 	 -67.6775 	 7.28035 	 -82.2184
| 11> C 	 -66.574 	 8.0537 	 -81.6702
| 12> H 	 -68.2916 	 6.79483 	 -81.4474
| 13> C 	 -68.9443 	 6.59762 	 -84.3887
| 14> H 	 -68.814 	 5.61124 	 -84.1127
| 15> H 	 -68.7859 	 6.73391 	 -85.457
| 16> C 	 -70.3532 	 7.06521 	 -84.0375
| 17> H 	 -71.0993 	 6.31513 	 -84.3836
| 18> H 	 -70.4652 	 7.1282 	 -82.97
| 19> C 	 -70.766 	 8.42442 	 -84.6276
| 20> H 	 -70.4224 	 9.28975 	 -84.1086
| 21> H 	 -70.5463 	 8.46609 	 -85.7083
| 22> H 	 -71.8874 	 8.5168 	 -84.6539
| 23> S 	 -66.5769 	 10.0148 	 -79.7488
| 24> C 	 -66.1912 	 9.66546 	 -78.0434
| 25> C 	 -66.0122 	 8.32031 	 -77.9257
| 26> C 	 -66.1286 	 7.5604 	 -79.1249
| 27> C 	 -66.3699 	 8.34399 	 -80.2204
| 28> H 	 -65.6438 	 7.9286 	 -76.9929
| 29> C 	 -65.9993 	 6.04271 	 -79.2344
| 30> H 	 -65.1288 	 5.74389 	 -78.6503
| 31> H 	 -65.8269 	 5.88426 	 -80.2771
| 32> C 	 -67.2541 	 5.30869 	 -78.7312
| 33> H 	 -68.1743 	 5.50308 	 -79.2912
| 34> H 	 -67.3976 	 5.61717 	 -77.6981
| 35> C 	 -67.1266 	 3.85049 	 -79.0498
| 36> H 	 -67.2223 	 3.63272 	 -80.1428
| 37> H 	 -67.8307 	 3.25079 	 -78.5144
| 38> H 	 -66.0697 	 3.49329 	 -78.8664
| 39> H 	 -66.539 	 8.26467 	 -85.2578
| 40> H 	 -66.1635 	 10.3831 	 -77.2227
| 41> *
| 42>
| 43>                          ****END OF INPUT****

CARTESIAN COORDINATES (ANGSTROEM)
---------------------------------
  S    -65.844000    8.955310  -83.004000
  C    -66.743800    8.030870  -84.248700
  C    -67.854700    7.343550  -83.679200
  C    -67.677500    7.280350  -82.218400
  C    -66.574000    8.053700  -81.670200
  H    -68.291600    6.794830  -81.447400
  C    -68.944300    6.597620  -84.388700
  H    -68.814000    5.611240  -84.112700
  H    -68.785900    6.733910  -85.457000
  C    -70.353200    7.065210  -84.037500
  H    -71.099300    6.315130  -84.383600
  H    -70.465200    7.128200  -82.970000
  C    -70.766000    8.424420  -84.627600
  H    -70.422400    9.289750  -84.108600
  H    -70.546300    8.466090  -85.708300
  H    -71.887400    8.516800  -84.653900
  S    -66.576900   10.014800  -79.748800
  C    -66.191200    9.665460  -78.043400
  C    -66.012200    8.320310  -77.925700
  C    -66.128600    7.560400  -79.124900
  C    -66.369900    8.343990  -80.220400
  H    -65.643800    7.928600  -76.992900
  C    -65.999300    6.042710  -79.234400
  H    -65.128800    5.743890  -78.650300
  H    -65.826900    5.884260  -80.277100
  C    -67.254100    5.308690  -78.731200
  H    -68.174300    5.503080  -79.291200
  H    -67.397600    5.617170  -77.698100
  C    -67.126600    3.850490  -79.049800
  H    -67.222300    3.632720  -80.142800
  H    -67.830700    3.250790  -78.514400
  H    -66.069700    3.493290  -78.866400
  H    -66.539000    8.264670  -85.257800
  H    -66.163500   10.383100  -77.222700

 Total Charge           Charge          ....    0
 Multiplicity           Mult            ....    1
 Number of Electrons    NEL             ....  134
 Basis Dimension        Dim             ....  322

ORBITAL ENERGIES
----------------

  NO   OCC          E(Eh)            E(eV)
   0   2.0000     -88.968253     -2420.9492
   1   2.0000     -88.960561     -2420.7399
   2   2.0000     -10.341255      -281.3999
   3   2.0000     -10.327863      -281.0354
   4   2.0000     -10.323890      -280.9273
   5   2.0000     -10.319247      -280.8010
   6   2.0000     -10.317156      -280.7441
   7   2.0000     -10.308206      -280.5006
   8   2.0000     -10.298943      -280.2485
   9   2.0000     -10.291375      -280.0426
  10   2.0000     -10.290446      -280.0173
  11   2.0000     -10.290077      -280.0072
  12   2.0000     -10.288433      -279.9625
  13   2.0000     -10.285201      -279.8745
  14   2.0000     -10.279424      -279.7173
  15   2.0000     -10.279306      -279.7141
  16   2.0000      -8.081796      -219.9168
  17   2.0000      -8.075141      -219.7358
  18   2.0000      -6.040427      -164.3684
  19   2.0000      -6.036434      -164.2597
  20   2.0000      -6.033825      -164.1887
  21   2.0000      -6.032536      -164.1536
  22   2.0000      -6.029616      -164.0742
  23   2.0000      -6.025760      -163.9693
  24   2.0000      -1.000643       -27.2289
  25   2.0000      -0.974432       -26.5156
  26   2.0000      -0.915873       -24.9222
  27   2.0000      -0.912945       -24.8425
  28   2.0000      -0.865999       -23.5650
  29   2.0000      -0.850359       -23.1395
  30   2.0000      -0.841448       -22.8970
  31   2.0000      -0.811113       -22.0715
  32   2.0000      -0.783468       -21.3193
  33   2.0000      -0.770440       -20.9648
  34   2.0000      -0.706216       -19.2171
  35   2.0000      -0.698029       -18.9943
  36   2.0000      -0.695582       -18.9277
  37   2.0000      -0.660898       -17.9840
  38   2.0000      -0.644089       -17.5266
  39   2.0000      -0.613744       -16.7008
  40   2.0000      -0.593249       -16.1431
  41   2.0000      -0.572453       -15.5772
  42   2.0000      -0.567683       -15.4474
  43   2.0000      -0.559863       -15.2346
  44   2.0000      -0.539652       -14.6847
  45   2.0000      -0.531513       -14.4632
  46   2.0000      -0.519399       -14.1336
  47   2.0000      -0.514847       -14.0097
  48   2.0000      -0.508958       -13.8495
  49   2.0000      -0.496329       -13.5058
  50   2.0000      -0.486235       -13.2311
  51   2.0000      -0.477847       -13.0029
  52   2.0000      -0.468442       -12.7470
  53   2.0000      -0.465348       -12.6628
  54   2.0000      -0.455843       -12.4041
  55   2.0000      -0.445812       -12.1312
  56   2.0000      -0.441338       -12.0094
  57   2.0000      -0.438543       -11.9334
  58   2.0000      -0.434828       -11.8323
  59   2.0000      -0.428553       -11.6615
  60   2.0000      -0.421191       -11.4612
  61   2.0000      -0.414981       -11.2922
  62   2.0000      -0.405676       -11.0390
  63   2.0000      -0.344628        -9.3778
  64   2.0000      -0.328178        -8.9302
  65   2.0000      -0.325227        -8.8499
  66   2.0000      -0.295105        -8.0302
  67   0.0000       0.026722         0.7271
  68   0.0000       0.062253         1.6940
  69   0.0000       0.103414         2.8140
  70   0.0000       0.123089         3.3494
  71   0.0000       0.131136         3.5684

MULLIKEN ATOMIC CHARGES
-----------------------
   0 S :    0.099908
   1 C :   -0.112246
   2 C :   -0.088384
   3 C :    0.009866
   4 C :   -0.157882
   5 H :    0.022441
   6 C :    0.128938
   7 H :    0.023410
   8 H :    0.017991
   9 C :   -0.090494
  10 H :    0.036070
  11 H :    0.028786
  12 C :   -0.063237
  13 H :    0.046341
  14 H :    0.024994
  15 H :    0.030590
  16 S :    0.085018
  17 C :   -0.094641
  18 C :   -0.027058
  19 C :   -0.052480
  20 C :   -0.158648
  21 H :    0.013101
  22 C :    0.078807
  23 H :    0.028191
  24 H :    0.021820
  25 C :   -0.065018
  26 H :    0.029390
  27 H :    0.031631
  28 C :   -0.045710
  29 H :    0.035433
  30 H :    0.033836
  31 H :    0.021191
  32 H :    0.045465
  33 H :    0.062581
Sum of atomic charges:    0.0000000

LOEWDIN ATOMIC CHARGES
----------------------
   0 S :    0.388843
   1 C :   -0.177367
   2 C :   -0.050889
   3 C :   -0.063444
   4 C :   -0.198889
   5 H :    0.029460
   6 C :   -0.025094
   7 H :    0.027041
   8 H :    0.031360
   9 C :   -0.039977
  10 H :    0.030517
  11 H :    0.021954
  12 C :   -0.068724
  13 H :    0.023695
  14 H :    0.024883
  15 H :    0.032449
  16 S :    0.385439
  17 C :   -0.173652
  18 C :   -0.074712
  19 C :   -0.062179
  20 C :   -0.195692
  21 H :    0.028921
  22 C :   -0.021751
  23 H :    0.031760
  24 H :    0.026955
  25 C :   -0.042672
  26 H :    0.026786
  27 H :    0.024196
  28 C :   -0.067457
  29 H :    0.030608
  30 H :    0.021119
  31 H :    0.023930
  32 H :    0.017412
  33 H :    0.035170

  Mayer bond orders larger than 0.100000
B(  0-S ,  1-C ) :   1.1476 B(  0-S ,  4-C ) :   1.1533 B(  1-C ,  2-C ) :   1.5709
B(  1-C ,  4-C ) :   0.1057 B(  1-C , 32-H ) :   0.9764 B(  2-C ,  3-C ) :   1.2324
B(  2-C ,  6-C ) :   1.0279 B(  3-C ,  4-C ) :   1.5532 B(  3-C ,  5-H ) :   0.9808
B(  4-C , 20-C ) :   1.0231 B(  6-C ,  7-H ) :   0.9339 B(  6-C ,  8-H ) :   0.9409
B(  6-C ,  9-C ) :   1.0758 B(  9-C , 10-H ) :   0.9562 B(  9-C , 11-H ) :   0.9572
B(  9-C , 12-C ) :   1.0736 B( 12-C , 13-H ) :   0.9781 B( 12-C , 14-H ) :   0.9744
B( 12-C , 15-H ) :   0.9743 B( 16-S , 17-C ) :   1.1350 B( 16-S , 20-C ) :   1.1378
B( 17-C , 18-C ) :   1.6255 B( 17-C , 33-H ) :   0.9682 B( 18-C , 19-C ) :   1.2286
B( 18-C , 21-H ) :   0.9888 B( 19-C , 20-C ) :   1.6355 B( 19-C , 22-C ) :   1.0402
B( 22-C , 23-H ) :   0.9291 B( 22-C , 24-H ) :   0.9315 B( 22-C , 25-C ) :   1.0702
B( 25-C , 26-H ) :   0.9529 B( 25-C , 27-H ) :   0.9562 B( 25-C , 28-C ) :   1.0739
B( 28-C , 29-H ) :   0.9746 B( 28-C , 30-H ) :   0.9730 B( 28-C , 31-H ) :   0.9699

Dispersion correction           -0.014209071
FINAL SINGLE POINT ENERGY     -1339.868682002266

DIPOLE MOMENT
-------------
                                X             Y             Z
Electronic contribution:     15.83612      19.96980       2.56431
Nuclear contribution   :    -16.28594     -20.46878      -2.52352
                        -----------------------------------------
Total Dipole Moment    :     -0.44981      -0.49898       0.04080
                        -----------------------------------------
Magnitude (a.u.)       :      0.67304
Magnitude (Debye)      :      1.71073

Rotational constants in cm-1:     0.017050     0.008941     0.007136
Rotational constants in MHz :   511.147466   268.030499   213.920400

                             ****ORCA TERMINATED NORMALLY****
TOTAL RUN TIME: 0 days 0 hours 0 minutes 21 seconds 526 msec
