                         Program Version 4.2.1 -  RELEASE  -
|  1> ! wB97X-D3 SP def2-SVP
|  2> %pal
|  3> nprocs 24
|  4> end
|  5>
|  6> * xyz 0 1
|  7> S 	 -45.9646 	 11.5142 	 -20.9428
|  8> C 	 -47.3975 	 10.5183 	 -20.903
|  9> C 	 -47.9521 	 10.2669 	 -22.1352
| 10> C 	 -47.1894 	 11.0824 	 -23.1307
| 11> C 	 -46.192 	 11.8157 	 -22.6328
| 12> H 	 -47.2996 	 11.0535 	 -24.2596
| 13> C 	 -49.1443 	 9.34432 	 -22.516
| 14> H 	 -48.8937 	 8.30577 	 -22.578
| 15> H 	 -49.4057 	 9.66543 	 -23.5626
| 16> C 	 -50.426 	 9.51922 	 -21.7232
| 17> H 	 -50.0899 	 9.3706 	 -20.7195
| 18> H 	 -50.8739 	 10.6023 	 -21.766
| 19> C 	 -51.5973 	 8.65811 	 -22.179
| 20> H 	 -52.5149 	 8.75165 	 -21.5854
| 21> H 	 -51.9112 	 9.09611 	 -23.0613
| 22> H 	 -51.3005 	 7.57892 	 -22.3186
| 23> S 	 -45.0687 	 12.2231 	 -25.1292
| 24> C 	 -44.1558 	 13.7205 	 -25.4127
| 25> C 	 -44.0138 	 14.4946 	 -24.2782
| 26> C 	 -44.6115 	 13.8723 	 -23.1121
| 27> C 	 -45.3653 	 12.7175 	 -23.4317
| 28> H 	 -43.4421 	 15.4522 	 -24.2476
| 29> C 	 -44.6273 	 14.5726 	 -21.7809
| 30> H 	 -45.5439 	 14.3369 	 -21.1684
| 31> H 	 -44.7733 	 15.641 	 -21.9533
| 32> C 	 -43.4156 	 14.3286 	 -20.85
| 33> H 	 -42.5446 	 14.7817 	 -21.3502
| 34> H 	 -43.1364 	 13.3371 	 -20.7419
| 35> C 	 -43.5949 	 15.0161 	 -19.4712
| 36> H 	 -43.9758 	 16.0196 	 -19.5197
| 37> H 	 -42.6478 	 14.9863 	 -18.8951
| 38> H 	 -44.3413 	 14.5366 	 -18.806
| 39> H 	 -47.7935 	 10.0035 	 -20.0312
| 40> H 	 -43.727 	 14.0987 	 -26.3273
| 41> *
| 42>
| 43>                          ****END OF INPUT****

CARTESIAN COORDINATES (ANGSTROEM)
---------------------------------
  S    -45.964600   11.514200  -20.942800
  C    -47.397500   10.518300  -20.903000
  C    -47.952100   10.266900  -22.135200
  C    -47.189400   11.082400  -23.130700
  C    -46.192000   11.815700  -22.632800
  H    -47.299600   11.053500  -24.259600
  C    -49.144300    9.344320  -22.516000
  H    -48.893700    8.305770  -22.578000
  H    -49.405700    9.665430  -23.562600
  C    -50.426000    9.519220  -21.723200
  H    -50.089900    9.370600  -20.719500
  H    -50.873900   10.602300  -21.766000
  C    -51.597300    8.658110  -22.179000
  H    -52.514900    8.751650  -21.585400
  H    -51.911200    9.096110  -23.061300
  H    -51.300500    7.578920  -22.318600
  S    -45.068700   12.223100  -25.129200
  C    -44.155800   13.720500  -25.412700
  C    -44.013800   14.494600  -24.278200
  C    -44.611500   13.872300  -23.112100
  C    -45.365300   12.717500  -23.431700
  H    -43.442100   15.452200  -24.247600
  C    -44.627300   14.572600  -21.780900
  H    -45.543900   14.336900  -21.168400
  H    -44.773300   15.641000  -21.953300
  C    -43.415600   14.328600  -20.850000
  H    -42.544600   14.781700  -21.350200
  H    -43.136400   13.337100  -20.741900
  C    -43.594900   15.016100  -19.471200
  H    -43.975800   16.019600  -19.519700
  H    -42.647800   14.986300  -18.895100
  H    -44.341300   14.536600  -18.806000
  H    -47.793500   10.003500  -20.031200
  H    -43.727000   14.098700  -26.327300

 Total Charge           Charge          ....    0
 Multiplicity           Mult            ....    1
 Number of Electrons    NEL             ....  134
 Basis Dimension        Dim             ....  322

ORBITAL ENERGIES
----------------

  NO   OCC          E(Eh)            E(eV)
   0   2.0000     -88.970081     -2420.9990
   1   2.0000     -88.968689     -2420.9611
   2   2.0000     -10.334762      -281.2232
   3   2.0000     -10.325284      -280.9652
   4   2.0000     -10.320008      -280.8217
   5   2.0000     -10.315087      -280.6878
   6   2.0000     -10.310999      -280.5766
   7   2.0000     -10.308398      -280.5058
   8   2.0000     -10.300432      -280.2890
   9   2.0000     -10.299587      -280.2660
  10   2.0000     -10.296803      -280.1903
  11   2.0000     -10.292199      -280.0650
  12   2.0000     -10.291847      -280.0554
  13   2.0000     -10.282725      -279.8072
  14   2.0000     -10.279378      -279.7161
  15   2.0000     -10.278330      -279.6876
  16   2.0000      -8.083433      -219.9614
  17   2.0000      -8.083321      -219.9583
  18   2.0000      -6.042143      -164.4151
  19   2.0000      -6.042042      -164.4123
  20   2.0000      -6.038168      -164.3069
  21   2.0000      -6.038058      -164.3039
  22   2.0000      -6.033853      -164.1895
  23   2.0000      -6.033822      -164.1886
  24   2.0000      -1.006596       -27.3909
  25   2.0000      -0.978325       -26.6216
  26   2.0000      -0.913442       -24.8560
  27   2.0000      -0.903802       -24.5937
  28   2.0000      -0.872569       -23.7438
  29   2.0000      -0.851022       -23.1575
  30   2.0000      -0.842476       -22.9249
  31   2.0000      -0.813343       -22.1322
  32   2.0000      -0.785615       -21.3777
  33   2.0000      -0.769040       -20.9266
  34   2.0000      -0.708322       -19.2744
  35   2.0000      -0.701027       -19.0759
  36   2.0000      -0.692580       -18.8461
  37   2.0000      -0.663872       -18.0649
  38   2.0000      -0.631684       -17.1890
  39   2.0000      -0.610872       -16.6227
  40   2.0000      -0.595215       -16.1966
  41   2.0000      -0.570318       -15.5191
  42   2.0000      -0.566691       -15.4204
  43   2.0000      -0.554415       -15.0864
  44   2.0000      -0.524001       -14.2588
  45   2.0000      -0.522439       -14.2163
  46   2.0000      -0.515779       -14.0351
  47   2.0000      -0.510837       -13.9006
  48   2.0000      -0.502462       -13.6727
  49   2.0000      -0.498951       -13.5772
  50   2.0000      -0.494792       -13.4640
  51   2.0000      -0.473336       -12.8801
  52   2.0000      -0.469575       -12.7778
  53   2.0000      -0.465064       -12.6550
  54   2.0000      -0.460472       -12.5301
  55   2.0000      -0.453810       -12.3488
  56   2.0000      -0.446910       -12.1610
  57   2.0000      -0.441355       -12.0099
  58   2.0000      -0.433455       -11.7949
  59   2.0000      -0.423891       -11.5347
  60   2.0000      -0.421288       -11.4638
  61   2.0000      -0.408912       -11.1271
  62   2.0000      -0.406439       -11.0598
  63   2.0000      -0.360284        -9.8038
  64   2.0000      -0.332009        -9.0344
  65   2.0000      -0.329044        -8.9537
  66   2.0000      -0.288992        -7.8639
  67   0.0000       0.025104         0.6831
  68   0.0000       0.082069         2.2332
  69   0.0000       0.100338         2.7303
  70   0.0000       0.109919         2.9911
  71   0.0000       0.124385         3.3847

MULLIKEN ATOMIC CHARGES
-----------------------
   0 S :    0.116842
   1 C :   -0.129516
   2 C :   -0.065998
   3 C :   -0.058568
   4 C :   -0.086646
   5 H :    0.040466
   6 C :    0.069850
   7 H :    0.041120
   8 H :    0.022069
   9 C :   -0.118089
  10 H :    0.019326
  11 H :    0.045023
  12 C :   -0.023589
  13 H :    0.037102
  14 H :    0.012485
  15 H :    0.040142
  16 S :    0.090147
  17 C :   -0.070220
  18 C :   -0.047024
  19 C :   -0.026378
  20 C :   -0.131707
  21 H :    0.040126
  22 C :   -0.021597
  23 H :    0.032683
  24 H :    0.026985
  25 C :   -0.022621
  26 H :    0.019935
  27 H :    0.015357
  28 C :   -0.062023
  29 H :    0.023916
  30 H :    0.040786
  31 H :    0.031019
  32 H :    0.047681
  33 H :    0.050918
Sum of atomic charges:    0.0000000

LOEWDIN ATOMIC CHARGES
----------------------
   0 S :    0.416526
   1 C :   -0.196892
   2 C :   -0.055001
   3 C :   -0.077483
   4 C :   -0.201047
   5 H :    0.033292
   6 C :   -0.031261
   7 H :    0.030242
   8 H :    0.033626
   9 C :   -0.047904
  10 H :    0.011391
  11 H :    0.038107
  12 C :   -0.065432
  13 H :    0.032517
  14 H :    0.017173
  15 H :    0.029994
  16 S :    0.384547
  17 C :   -0.178867
  18 C :   -0.071194
  19 C :   -0.057756
  20 C :   -0.171150
  21 H :    0.041417
  22 C :   -0.046749
  23 H :    0.027990
  24 H :    0.031303
  25 C :   -0.033030
  26 H :    0.024750
  27 H :    0.013081
  28 C :   -0.069907
  29 H :    0.021021
  30 H :    0.030844
  31 H :    0.027002
  32 H :    0.028409
  33 H :    0.030442

  Mayer bond orders larger than 0.100000
B(  0-S ,  1-C ) :   1.1265 B(  0-S ,  4-C ) :   1.1130 B(  1-C ,  2-C ) :   1.6632
B(  1-C , 32-H ) :   0.9621 B(  2-C ,  3-C ) :   1.2048 B(  2-C ,  6-C ) :   1.0033
B(  3-C ,  4-C ) :   1.6235 B(  3-C ,  5-H ) :   0.9743 B(  4-C , 20-C ) :   1.0643
B(  6-C ,  7-H ) :   0.9381 B(  6-C ,  8-H ) :   0.9455 B(  6-C ,  9-C ) :   1.0590
B(  9-C , 10-H ) :   0.9583 B(  9-C , 11-H ) :   0.9584 B(  9-C , 12-C ) :   1.0770
B( 12-C , 13-H ) :   0.9712 B( 12-C , 14-H ) :   0.9731 B( 12-C , 15-H ) :   0.9730
B( 16-S , 17-C ) :   1.1299 B( 16-S , 20-C ) :   1.1191 B( 17-C , 18-C ) :   1.6467
B( 17-C , 33-H ) :   0.9637 B( 18-C , 19-C ) :   1.2239 B( 18-C , 21-H ) :   0.9773
B( 19-C , 20-C ) :   1.5906 B( 19-C , 22-C ) :   1.0432 B( 22-C , 23-H ) :   0.9440
B( 22-C , 24-H ) :   0.9382 B( 22-C , 25-C ) :   1.0492 B( 25-C , 26-H ) :   0.9537
B( 25-C , 27-H ) :   0.9573 B( 25-C , 28-C ) :   1.0789 B( 28-C , 29-H ) :   0.9744
B( 28-C , 30-H ) :   0.9751 B( 28-C , 31-H ) :   0.9740

Dispersion correction           -0.013532930
FINAL SINGLE POINT ENERGY     -1339.871986679990

DIPOLE MOMENT
-------------
                                X             Y             Z
Electronic contribution:     11.42328      -0.35717     -11.65497
Nuclear contribution   :    -11.63786       0.42628      11.71520
                        -----------------------------------------
Total Dipole Moment    :     -0.21458       0.06912       0.06023
                        -----------------------------------------
Magnitude (a.u.)       :      0.23335
Magnitude (Debye)      :      0.59312

Rotational constants in cm-1:     0.021257     0.007366     0.005754
Rotational constants in MHz :   637.264288   220.833527   172.512055

                             ****ORCA TERMINATED NORMALLY****
TOTAL RUN TIME: 0 days 0 hours 0 minutes 19 seconds 477 msec
