                         Program Version 4.2.1 -  RELEASE  -
|  1> ! wB97X-D3 SP def2-SVP
|  2> %pal
|  3> nprocs 24
|  4> end
|  5>
|  6> * xyz 0 1
|  7> S 	 41.791 	 -20.0015 	 -112.716
|  8> C 	 43.4355 	 -20.1259 	 -113.211
|  9> C 	 44.3297 	 -19.7102 	 -112.289
| 10> C 	 43.6844 	 -19.4895 	 -111.036
| 11> C 	 42.3092 	 -19.6271 	 -111.032
| 12> H 	 44.0866 	 -19.0657 	 -110.164
| 13> C 	 45.877 	 -19.6117 	 -112.432
| 14> H 	 46.0246 	 -18.7304 	 -113.008
| 15> H 	 46.3443 	 -20.5316 	 -112.941
| 16> C 	 46.7188 	 -19.3758 	 -111.181
| 17> H 	 47.7572 	 -19.1984 	 -111.495
| 18> H 	 46.3816 	 -18.499 	 -110.574
| 19> C 	 46.9001 	 -20.6093 	 -110.347
| 20> H 	 45.9824 	 -21.0021 	 -109.989
| 21> H 	 47.3709 	 -21.367 	 -110.978
| 22> H 	 47.5249 	 -20.4037 	 -109.484
| 23> S 	 39.8851 	 -18.6298 	 -110.311
| 24> C 	 39.5615 	 -18.5044 	 -108.586
| 25> C 	 40.4821 	 -19.1662 	 -107.789
| 26> C 	 41.5146 	 -19.7775 	 -108.574
| 27> C 	 41.3897 	 -19.4584 	 -109.928
| 28> H 	 40.4332 	 -19.0975 	 -106.733
| 29> C 	 42.6724 	 -20.4732 	 -108.001
| 30> H 	 43.5009 	 -19.7926 	 -108.165
| 31> H 	 42.6999 	 -21.3623 	 -108.646
| 32> C 	 42.7001 	 -21.0153 	 -106.526
| 33> H 	 41.8899 	 -21.674 	 -106.265
| 34> H 	 42.5739 	 -20.1701 	 -105.824
| 35> C 	 44.0089 	 -21.8115 	 -106.27
| 36> H 	 44.798 	 -21.0761 	 -106.49
| 37> H 	 44.0081 	 -22.7871 	 -106.806
| 38> H 	 44.1391 	 -22.0915 	 -105.194
| 39> H 	 43.7779 	 -20.398 	 -114.239
| 40> H 	 38.8148 	 -17.7869 	 -108.164
| 41> *
| 42>
| 43>                          ****END OF INPUT****

CARTESIAN COORDINATES (ANGSTROEM)
---------------------------------
  S     41.791000  -20.001500  -112.716000
  C     43.435500  -20.125900  -113.211000
  C     44.329700  -19.710200  -112.289000
  C     43.684400  -19.489500  -111.036000
  C     42.309200  -19.627100  -111.032000
  H     44.086600  -19.065700  -110.164000
  C     45.877000  -19.611700  -112.432000
  H     46.024600  -18.730400  -113.008000
  H     46.344300  -20.531600  -112.941000
  C     46.718800  -19.375800  -111.181000
  H     47.757200  -19.198400  -111.495000
  H     46.381600  -18.499000  -110.574000
  C     46.900100  -20.609300  -110.347000
  H     45.982400  -21.002100  -109.989000
  H     47.370900  -21.367000  -110.978000
  H     47.524900  -20.403700  -109.484000
  S     39.885100  -18.629800  -110.311000
  C     39.561500  -18.504400  -108.586000
  C     40.482100  -19.166200  -107.789000
  C     41.514600  -19.777500  -108.574000
  C     41.389700  -19.458400  -109.928000
  H     40.433200  -19.097500  -106.733000
  C     42.672400  -20.473200  -108.001000
  H     43.500900  -19.792600  -108.165000
  H     42.699900  -21.362300  -108.646000
  C     42.700100  -21.015300  -106.526000
  H     41.889900  -21.674000  -106.265000
  H     42.573900  -20.170100  -105.824000
  C     44.008900  -21.811500  -106.270000
  H     44.798000  -21.076100  -106.490000
  H     44.008100  -22.787100  -106.806000
  H     44.139100  -22.091500  -105.194000
  H     43.777900  -20.398000  -114.239000
  H     38.814800  -17.786900  -108.164000

 Total Charge           Charge          ....    0
 Multiplicity           Mult            ....    1
 Number of Electrons    NEL             ....  134
 Basis Dimension        Dim             ....  322

ORBITAL ENERGIES
----------------

  NO   OCC          E(Eh)            E(eV)
   0   2.0000     -88.966611     -2420.9046
   1   2.0000     -88.964127     -2420.8370
   2   2.0000     -10.329926      -281.0916
   3   2.0000     -10.324951      -280.9562
   4   2.0000     -10.320681      -280.8400
   5   2.0000     -10.311054      -280.5780
   6   2.0000     -10.304208      -280.3918
   7   2.0000     -10.299452      -280.2623
   8   2.0000     -10.298757      -280.2434
   9   2.0000     -10.294019      -280.1145
  10   2.0000     -10.293864      -280.1103
  11   2.0000     -10.292487      -280.0728
  12   2.0000     -10.288745      -279.9710
  13   2.0000     -10.288268      -279.9580
  14   2.0000     -10.288152      -279.9549
  15   2.0000     -10.269828      -279.4562
  16   2.0000      -8.081233      -219.9015
  17   2.0000      -8.078722      -219.8332
  18   2.0000      -6.039698      -164.3485
  19   2.0000      -6.037340      -164.2844
  20   2.0000      -6.035938      -164.2462
  21   2.0000      -6.033395      -164.1770
  22   2.0000      -6.031877      -164.1357
  23   2.0000      -6.029240      -164.0640
  24   2.0000      -1.005856       -27.3707
  25   2.0000      -0.983601       -26.7651
  26   2.0000      -0.913714       -24.8634
  27   2.0000      -0.909483       -24.7483
  28   2.0000      -0.872831       -23.7509
  29   2.0000      -0.856021       -23.2935
  30   2.0000      -0.844647       -22.9840
  31   2.0000      -0.816198       -22.2099
  32   2.0000      -0.784250       -21.3405
  33   2.0000      -0.768749       -20.9187
  34   2.0000      -0.709804       -19.3148
  35   2.0000      -0.698113       -18.9966
  36   2.0000      -0.686891       -18.6913
  37   2.0000      -0.656698       -17.8697
  38   2.0000      -0.638262       -17.3680
  39   2.0000      -0.623224       -16.9588
  40   2.0000      -0.593825       -16.1588
  41   2.0000      -0.577528       -15.7153
  42   2.0000      -0.570330       -15.5195
  43   2.0000      -0.554393       -15.0858
  44   2.0000      -0.542501       -14.7622
  45   2.0000      -0.524378       -14.2690
  46   2.0000      -0.521826       -14.1996
  47   2.0000      -0.513500       -13.9731
  48   2.0000      -0.496477       -13.5098
  49   2.0000      -0.494046       -13.4437
  50   2.0000      -0.492541       -13.4027
  51   2.0000      -0.486803       -13.2466
  52   2.0000      -0.468491       -12.7483
  53   2.0000      -0.460099       -12.5199
  54   2.0000      -0.455524       -12.3954
  55   2.0000      -0.453606       -12.3432
  56   2.0000      -0.442678       -12.0459
  57   2.0000      -0.438214       -11.9244
  58   2.0000      -0.431614       -11.7448
  59   2.0000      -0.428733       -11.6664
  60   2.0000      -0.422470       -11.4960
  61   2.0000      -0.417078       -11.3493
  62   2.0000      -0.410721       -11.1763
  63   2.0000      -0.355684        -9.6787
  64   2.0000      -0.333936        -9.0869
  65   2.0000      -0.328202        -8.9308
  66   2.0000      -0.279973        -7.6184
  67   0.0000       0.024486         0.6663
  68   0.0000       0.069286         1.8854
  69   0.0000       0.100483         2.7343
  70   0.0000       0.121371         3.3027
  71   0.0000       0.135110         3.6765

MULLIKEN ATOMIC CHARGES
-----------------------
   0 S :    0.103884
   1 C :   -0.145449
   2 C :   -0.052694
   3 C :    0.002663
   4 C :   -0.130382
   5 H :   -0.010814
   6 C :    0.065574
   7 H :    0.035368
   8 H :    0.045142
   9 C :   -0.108930
  10 H :    0.028730
  11 H :    0.036510
  12 C :   -0.026429
  13 H :    0.021365
  14 H :    0.021999
  15 H :    0.031717
  16 S :    0.103836
  17 C :   -0.097526
  18 C :   -0.032556
  19 C :   -0.028470
  20 C :   -0.155080
  21 H :    0.008844
  22 C :    0.020896
  23 H :    0.045693
  24 H :    0.049307
  25 C :   -0.078126
  26 H :    0.027907
  27 H :    0.029201
  28 C :   -0.066242
  29 H :    0.037194
  30 H :    0.052724
  31 H :    0.037823
  32 H :    0.054886
  33 H :    0.071435
Sum of atomic charges:    0.0000000

LOEWDIN ATOMIC CHARGES
----------------------
   0 S :    0.384704
   1 C :   -0.205563
   2 C :   -0.068728
   3 C :   -0.064383
   4 C :   -0.174391
   5 H :    0.019783
   6 C :   -0.031188
   7 H :    0.031449
   8 H :    0.041126
   9 C :   -0.050633
  10 H :    0.031014
  11 H :    0.025307
  12 C :   -0.061593
  13 H :    0.015181
  14 H :    0.025027
  15 H :    0.025722
  16 S :    0.395465
  17 C :   -0.184175
  18 C :   -0.067288
  19 C :   -0.052627
  20 C :   -0.197926
  21 H :    0.027136
  22 C :   -0.039630
  23 H :    0.033981
  24 H :    0.045406
  25 C :   -0.042473
  26 H :    0.020921
  27 H :    0.021568
  28 C :   -0.068413
  29 H :    0.027244
  30 H :    0.032979
  31 H :    0.030241
  32 H :    0.037668
  33 H :    0.037090

  Mayer bond orders larger than 0.100000
B(  0-S ,  1-C ) :   1.1373 B(  0-S ,  4-C ) :   1.1190 B(  1-C ,  2-C ) :   1.6575
B(  1-C , 32-H ) :   0.9595 B(  2-C ,  3-C ) :   1.2323 B(  2-C ,  6-C ) :   0.9870
B(  3-C ,  4-C ) :   1.5904 B(  3-C ,  5-H ) :   0.9910 B(  4-C , 20-C ) :   1.0806
B(  6-C ,  7-H ) :   0.9277 B(  6-C ,  8-H ) :   0.9477 B(  6-C ,  9-C ) :   1.1057
B(  9-C , 10-H ) :   0.9506 B(  9-C , 11-H ) :   0.9438 B(  9-C , 12-C ) :   1.0811
B( 12-C , 13-H ) :   0.9759 B( 12-C , 14-H ) :   0.9703 B( 12-C , 15-H ) :   0.9730
B( 16-S , 17-C ) :   1.1518 B( 16-S , 20-C ) :   1.1261 B( 17-C , 18-C ) :   1.6197
B( 17-C , 33-H ) :   0.9576 B( 18-C , 19-C ) :   1.2220 B( 18-C , 21-H ) :   0.9966
B( 19-C , 20-C ) :   1.5922 B( 19-C , 22-C ) :   1.0330 B( 22-C , 23-H ) :   0.9297
B( 22-C , 24-H ) :   0.9292 B( 22-C , 25-C ) :   1.0726 B( 25-C , 26-H ) :   0.9574
B( 25-C , 27-H ) :   0.9478 B( 25-C , 28-C ) :   1.0824 B( 28-C , 29-H ) :   0.9759
B( 28-C , 30-H ) :   0.9752 B( 28-C , 31-H ) :   0.9731

Dispersion correction           -0.014349969
FINAL SINGLE POINT ENERGY     -1339.869917115304

DIPOLE MOMENT
-------------
                                X             Y             Z
Electronic contribution:    -26.87246       8.43493     -16.73486
Nuclear contribution   :     27.53299      -8.37452      17.26913
                        -----------------------------------------
Total Dipole Moment    :      0.66052       0.06041       0.53427
                        -----------------------------------------
Magnitude (a.u.)       :      0.85169
Magnitude (Debye)      :      2.16483

Rotational constants in cm-1:     0.015065     0.010796     0.006818
Rotational constants in MHz :   451.624392   323.666589   204.383949

                             ****ORCA TERMINATED NORMALLY****
TOTAL RUN TIME: 0 days 0 hours 0 minutes 22 seconds 177 msec
