                         Program Version 4.2.1 -  RELEASE  -
|  1> ! wB97X-D3 SP def2-SVP
|  2> %pal
|  3> nprocs 24
|  4> end
|  5>
|  6> * xyz 0 1
|  7> S 	 -101.808 	 10.9531 	 -123.107
|  8> C 	 -103.203 	 10.3892 	 -124.069
|  9> C 	 -103.685 	 9.21487 	 -123.472
| 10> C 	 -102.966 	 8.83497 	 -122.264
| 11> C 	 -101.861 	 9.59599 	 -122.038
| 12> H 	 -103.076 	 7.98974 	 -121.565
| 13> C 	 -104.868 	 8.36649 	 -123.962
| 14> H 	 -104.568 	 7.33609 	 -124.061
| 15> H 	 -104.965 	 8.70781 	 -124.989
| 16> C 	 -106.271 	 8.57512 	 -123.234
| 17> H 	 -106.174 	 8.08183 	 -122.242
| 18> H 	 -106.384 	 9.64807 	 -123.226
| 19> C 	 -107.594 	 8.05207 	 -123.873
| 20> H 	 -107.818 	 8.6121 	 -124.754
| 21> H 	 -107.438 	 7.03819 	 -124.255
| 22> H 	 -108.368 	 8.04747 	 -123.111
| 23> S 	 -99.3539 	 10.3339 	 -121.055
| 24> C 	 -98.9458 	 10.1732 	 -119.445
| 25> C 	 -99.8536 	 9.33437 	 -118.78
| 26> C 	 -101.032 	 9.15764 	 -119.554
| 27> C 	 -100.986 	 9.65532 	 -120.887
| 28> H 	 -99.744 	 8.92971 	 -117.856
| 29> C 	 -102.195 	 8.47045 	 -118.846
| 30> H 	 -101.87 	 7.59754 	 -118.273
| 31> H 	 -102.819 	 7.92673 	 -119.528
| 32> C 	 -103.139 	 9.29593 	 -117.993
| 33> H 	 -102.619 	 9.69894 	 -117.096
| 34> H 	 -103.765 	 8.52548 	 -117.621
| 35> C 	 -104.046 	 10.2838 	 -118.793
| 36> H 	 -104.58 	 9.72247 	 -119.533
| 37> H 	 -103.303 	 10.988 	 -119.24
| 38> H 	 -104.687 	 10.7683 	 -118.091
| 39> H 	 -103.774 	 11.0169 	 -124.839
| 40> H 	 -98.0081 	 10.4717 	 -119.081
| 41> *
| 42>
| 43>                          ****END OF INPUT****

CARTESIAN COORDINATES (ANGSTROEM)
---------------------------------
  S    -101.808000   10.953100  -123.107000
  C    -103.203000   10.389200  -124.069000
  C    -103.685000    9.214870  -123.472000
  C    -102.966000    8.834970  -122.264000
  C    -101.861000    9.595990  -122.038000
  H    -103.076000    7.989740  -121.565000
  C    -104.868000    8.366490  -123.962000
  H    -104.568000    7.336090  -124.061000
  H    -104.965000    8.707810  -124.989000
  C    -106.271000    8.575120  -123.234000
  H    -106.174000    8.081830  -122.242000
  H    -106.384000    9.648070  -123.226000
  C    -107.594000    8.052070  -123.873000
  H    -107.818000    8.612100  -124.754000
  H    -107.438000    7.038190  -124.255000
  H    -108.368000    8.047470  -123.111000
  S    -99.353900   10.333900  -121.055000
  C    -98.945800   10.173200  -119.445000
  C    -99.853600    9.334370  -118.780000
  C    -101.032000    9.157640  -119.554000
  C    -100.986000    9.655320  -120.887000
  H    -99.744000    8.929710  -117.856000
  C    -102.195000    8.470450  -118.846000
  H    -101.870000    7.597540  -118.273000
  H    -102.819000    7.926730  -119.528000
  C    -103.139000    9.295930  -117.993000
  H    -102.619000    9.698940  -117.096000
  H    -103.765000    8.525480  -117.621000
  C    -104.046000   10.283800  -118.793000
  H    -104.580000    9.722470  -119.533000
  H    -103.303000   10.988000  -119.240000
  H    -104.687000   10.768300  -118.091000
  H    -103.774000   11.016900  -124.839000
  H    -98.008100   10.471700  -119.081000

 Total Charge           Charge          ....    0
 Multiplicity           Mult            ....    1
 Number of Electrons    NEL             ....  134
 Basis Dimension        Dim             ....  322

ORBITAL ENERGIES
----------------

  NO   OCC          E(Eh)            E(eV)
   0   2.0000     -88.966174     -2420.8927
   1   2.0000     -88.963924     -2420.8314
   2   2.0000     -10.332668      -281.1662
   3   2.0000     -10.328938      -281.0647
   4   2.0000     -10.326569      -281.0002
   5   2.0000     -10.314181      -280.6631
   6   2.0000     -10.312266      -280.6110
   7   2.0000     -10.306531      -280.4550
   8   2.0000     -10.295849      -280.1643
   9   2.0000     -10.294052      -280.1154
  10   2.0000     -10.293694      -280.1057
  11   2.0000     -10.288584      -279.9666
  12   2.0000     -10.287491      -279.9369
  13   2.0000     -10.281321      -279.7690
  14   2.0000     -10.280614      -279.7497
  15   2.0000     -10.273165      -279.5470
  16   2.0000      -8.081985      -219.9220
  17   2.0000      -8.078623      -219.8305
  18   2.0000      -6.040337      -164.3659
  19   2.0000      -6.037242      -164.2817
  20   2.0000      -6.036147      -164.2519
  21   2.0000      -6.033070      -164.1682
  22   2.0000      -6.033034      -164.1672
  23   2.0000      -6.029292      -164.0654
  24   2.0000      -1.010225       -27.4896
  25   2.0000      -0.985990       -26.8301
  26   2.0000      -0.911647       -24.8072
  27   2.0000      -0.903058       -24.5734
  28   2.0000      -0.869380       -23.6570
  29   2.0000      -0.851519       -23.1710
  30   2.0000      -0.842594       -22.9281
  31   2.0000      -0.815445       -22.1894
  32   2.0000      -0.786058       -21.3897
  33   2.0000      -0.774144       -21.0655
  34   2.0000      -0.706657       -19.2291
  35   2.0000      -0.696023       -18.9398
  36   2.0000      -0.692626       -18.8473
  37   2.0000      -0.665192       -18.1008
  38   2.0000      -0.640385       -17.4258
  39   2.0000      -0.618173       -16.8213
  40   2.0000      -0.602900       -16.4057
  41   2.0000      -0.571252       -15.5446
  42   2.0000      -0.562292       -15.3007
  43   2.0000      -0.550783       -14.9876
  44   2.0000      -0.540613       -14.7108
  45   2.0000      -0.527887       -14.3645
  46   2.0000      -0.515982       -14.0406
  47   2.0000      -0.510391       -13.8885
  48   2.0000      -0.507327       -13.8051
  49   2.0000      -0.500786       -13.6271
  50   2.0000      -0.494717       -13.4619
  51   2.0000      -0.479292       -13.0422
  52   2.0000      -0.472323       -12.8526
  53   2.0000      -0.470428       -12.8010
  54   2.0000      -0.464394       -12.6368
  55   2.0000      -0.450969       -12.2715
  56   2.0000      -0.441107       -12.0031
  57   2.0000      -0.434830       -11.8323
  58   2.0000      -0.428171       -11.6511
  59   2.0000      -0.421222       -11.4620
  60   2.0000      -0.416511       -11.3338
  61   2.0000      -0.411852       -11.2071
  62   2.0000      -0.403065       -10.9680
  63   2.0000      -0.358843        -9.7646
  64   2.0000      -0.330366        -8.9897
  65   2.0000      -0.328845        -8.9483
  66   2.0000      -0.284937        -7.7535
  67   0.0000       0.019271         0.5244
  68   0.0000       0.076426         2.0797
  69   0.0000       0.103986         2.8296
  70   0.0000       0.109943         2.9917
  71   0.0000       0.128446         3.4952

MULLIKEN ATOMIC CHARGES
-----------------------
   0 S :    0.086686
   1 C :   -0.135367
   2 C :   -0.111887
   3 C :   -0.013597
   4 C :   -0.086232
   5 H :    0.025301
   6 C :    0.064043
   7 H :    0.032383
   8 H :    0.005692
   9 C :   -0.094712
  10 H :    0.039321
  11 H :    0.033424
  12 C :   -0.029710
  13 H :    0.027190
  14 H :    0.023985
  15 H :    0.045619
  16 S :    0.109572
  17 C :   -0.057077
  18 C :    0.013283
  19 C :   -0.066952
  20 C :   -0.128057
  21 H :   -0.021996
  22 C :    0.042956
  23 H :    0.018542
  24 H :   -0.018882
  25 C :   -0.069273
  26 H :    0.029098
  27 H :    0.010546
  28 C :   -0.021670
  29 H :    0.028459
  30 H :    0.052425
  31 H :    0.034325
  32 H :    0.086755
  33 H :    0.045809
Sum of atomic charges:   -0.0000000

LOEWDIN ATOMIC CHARGES
----------------------
   0 S :    0.398764
   1 C :   -0.207684
   2 C :   -0.056173
   3 C :   -0.074213
   4 C :   -0.191714
   5 H :    0.035203
   6 C :   -0.036661
   7 H :    0.027427
   8 H :    0.025866
   9 C :   -0.038794
  10 H :    0.025458
  11 H :    0.024121
  12 C :   -0.061781
  13 H :    0.021035
  14 H :    0.024522
  15 H :    0.030611
  16 S :    0.439313
  17 C :   -0.194547
  18 C :   -0.057341
  19 C :   -0.054312
  20 C :   -0.203899
  21 H :    0.013611
  22 C :   -0.040406
  23 H :    0.034736
  24 H :    0.018063
  25 C :   -0.038580
  26 H :    0.022963
  27 H :    0.017487
  28 C :   -0.054510
  29 H :    0.021957
  30 H :    0.035850
  31 H :    0.022769
  32 H :    0.051136
  33 H :    0.019723

  Mayer bond orders larger than 0.100000
B(  0-S ,  1-C ) :   1.1212 B(  0-S ,  4-C ) :   1.1473 B(  1-C ,  2-C ) :   1.6229
B(  1-C , 32-H ) :   0.9574 B(  2-C ,  3-C ) :   1.2077 B(  2-C ,  6-C ) :   1.0284
B(  3-C ,  4-C ) :   1.6088 B(  3-C ,  5-H ) :   0.9866 B(  4-C , 20-C ) :   1.0545
B(  6-C ,  7-H ) :   0.9441 B(  6-C ,  8-H ) :   0.9388 B(  6-C ,  9-C ) :   1.0475
B(  9-C , 10-H ) :   0.9605 B(  9-C , 11-H ) :   0.9603 B(  9-C , 12-C ) :   1.0811
B( 12-C , 13-H ) :   0.9761 B( 12-C , 14-H ) :   0.9753 B( 12-C , 15-H ) :   0.9751
B( 16-S , 17-C ) :   1.2112 B( 16-S , 20-C ) :   1.1444 B( 17-C , 18-C ) :   1.5045
B( 17-C , 20-C ) :   0.1074 B( 17-C , 33-H ) :   0.9755 B( 18-C , 19-C ) :   1.3138
B( 18-C , 21-H ) :   1.0083 B( 19-C , 20-C ) :   1.5263 B( 19-C , 22-C ) :   1.0364
B( 22-C , 23-H ) :   0.9286 B( 22-C , 24-H ) :   0.9333 B( 22-C , 25-C ) :   1.0846
B( 25-C , 26-H ) :   0.9558 B( 25-C , 27-H ) :   0.9480 B( 25-C , 28-C ) :   1.0681
B( 28-C , 29-H ) :   0.9732 B( 28-C , 30-H ) :   0.9792 B( 28-C , 31-H ) :   0.9748

Dispersion correction           -0.014690319
FINAL SINGLE POINT ENERGY     -1339.855846981589

DIPOLE MOMENT
-------------
                                X             Y             Z
Electronic contribution:     28.52226      10.28745      -5.78781
Nuclear contribution   :    -29.03153     -10.69851       6.12724
                        -----------------------------------------
Total Dipole Moment    :     -0.50927      -0.41106       0.33943
                        -----------------------------------------
Magnitude (a.u.)       :      0.73725
Magnitude (Debye)      :      1.87395

Rotational constants in cm-1:     0.021021     0.008478     0.006588
Rotational constants in MHz :   630.206906   254.158353   197.511468

                             ****ORCA TERMINATED NORMALLY****
TOTAL RUN TIME: 0 days 0 hours 0 minutes 20 seconds 822 msec
