                         Program Version 4.2.1 -  RELEASE  -
|  1> ! wB97X-D3 SP def2-SVP
|  2> %pal
|  3> nprocs 24
|  4> end
|  5>
|  6> * xyz 0 1
|  7> S 	 -99.2198 	 1.60512 	 -121.187
|  8> C 	 -100.544 	 1.48513 	 -122.347
|  9> C 	 -101.687 	 2.12156 	 -121.778
| 10> C 	 -101.497 	 2.42216 	 -120.374
| 11> C 	 -100.244 	 2.06576 	 -119.864
| 12> H 	 -102.269 	 2.83849 	 -119.767
| 13> C 	 -102.978 	 2.25299 	 -122.393
| 14> H 	 -102.952 	 1.9618 	 -123.401
| 15> H 	 -103.393 	 3.25683 	 -122.414
| 16> C 	 -103.98 	 1.29417 	 -121.733
| 17> H 	 -104.334 	 1.61188 	 -120.756
| 18> H 	 -104.876 	 1.53145 	 -122.38
| 19> C 	 -103.461 	 -0.14826 	 -121.874
| 20> H 	 -103.347 	 -0.330642 	 -122.941
| 21> H 	 -102.544 	 -0.309039 	 -121.296
| 22> H 	 -104.124 	 -0.920766 	 -121.588
| 23> S 	 -98.3219 	 3.4332 	 -118.45
| 24> C 	 -98.339 	 3.36324 	 -116.689
| 25> C 	 -99.3357 	 2.56363 	 -116.267
| 26> C 	 -99.982 	 1.78149 	 -117.256
| 27> C 	 -99.6518 	 2.25052 	 -118.54
| 28> H 	 -99.4159 	 2.45356 	 -115.213
| 29> C 	 -101.078 	 0.734641 	 -116.964
| 30> H 	 -100.695 	 0.0737578 	 -116.218
| 31> H 	 -101.148 	 0.102871 	 -117.883
| 32> C 	 -102.456 	 1.32635 	 -116.438
| 33> H 	 -102.837 	 1.95271 	 -117.344
| 34> H 	 -102.356 	 2.07925 	 -115.64
| 35> C 	 -103.492 	 0.281904 	 -116.041
| 36> H 	 -103.198 	 -0.303757 	 -115.111
| 37> H 	 -103.699 	 -0.452205 	 -116.832
| 38> H 	 -104.405 	 0.785789 	 -115.779
| 39> H 	 -100.41 	 1.17024 	 -123.404
| 40> H 	 -97.881 	 3.98193 	 -115.941
| 41> *
| 42>
| 43>                          ****END OF INPUT****

CARTESIAN COORDINATES (ANGSTROEM)
---------------------------------
  S    -99.219800    1.605120  -121.187000
  C    -100.544000    1.485130  -122.347000
  C    -101.687000    2.121560  -121.778000
  C    -101.497000    2.422160  -120.374000
  C    -100.244000    2.065760  -119.864000
  H    -102.269000    2.838490  -119.767000
  C    -102.978000    2.252990  -122.393000
  H    -102.952000    1.961800  -123.401000
  H    -103.393000    3.256830  -122.414000
  C    -103.980000    1.294170  -121.733000
  H    -104.334000    1.611880  -120.756000
  H    -104.876000    1.531450  -122.380000
  C    -103.461000   -0.148260  -121.874000
  H    -103.347000   -0.330642  -122.941000
  H    -102.544000   -0.309039  -121.296000
  H    -104.124000   -0.920766  -121.588000
  S    -98.321900    3.433200  -118.450000
  C    -98.339000    3.363240  -116.689000
  C    -99.335700    2.563630  -116.267000
  C    -99.982000    1.781490  -117.256000
  C    -99.651800    2.250520  -118.540000
  H    -99.415900    2.453560  -115.213000
  C    -101.078000    0.734641  -116.964000
  H    -100.695000    0.073758  -116.218000
  H    -101.148000    0.102871  -117.883000
  C    -102.456000    1.326350  -116.438000
  H    -102.837000    1.952710  -117.344000
  H    -102.356000    2.079250  -115.640000
  C    -103.492000    0.281904  -116.041000
  H    -103.198000   -0.303757  -115.111000
  H    -103.699000   -0.452205  -116.832000
  H    -104.405000    0.785789  -115.779000
  H    -100.410000    1.170240  -123.404000
  H    -97.881000    3.981930  -115.941000

 Total Charge           Charge          ....    0
 Multiplicity           Mult            ....    1
 Number of Electrons    NEL             ....  134
 Basis Dimension        Dim             ....  322

ORBITAL ENERGIES
----------------

  NO   OCC          E(Eh)            E(eV)
   0   2.0000     -88.964614     -2420.8502
   1   2.0000     -88.962561     -2420.7944
   2   2.0000     -10.332551      -281.1630
   3   2.0000     -10.331850      -281.1439
   4   2.0000     -10.321555      -280.8638
   5   2.0000     -10.311891      -280.6008
   6   2.0000     -10.307080      -280.4699
   7   2.0000     -10.302049      -280.3330
   8   2.0000     -10.301171      -280.3091
   9   2.0000     -10.297709      -280.2149
  10   2.0000     -10.296179      -280.1733
  11   2.0000     -10.290396      -280.0159
  12   2.0000     -10.285554      -279.8841
  13   2.0000     -10.284487      -279.8551
  14   2.0000     -10.281822      -279.7826
  15   2.0000     -10.273421      -279.5540
  16   2.0000      -8.078669      -219.8318
  17   2.0000      -8.077396      -219.7971
  18   2.0000      -6.037297      -164.2832
  19   2.0000      -6.035955      -164.2467
  20   2.0000      -6.033279      -164.1739
  21   2.0000      -6.031779      -164.1330
  22   2.0000      -6.029314      -164.0660
  23   2.0000      -6.028195      -164.0355
  24   2.0000      -1.003548       -27.3079
  25   2.0000      -0.982043       -26.7227
  26   2.0000      -0.923791       -25.1376
  27   2.0000      -0.898840       -24.4587
  28   2.0000      -0.866836       -23.5878
  29   2.0000      -0.848418       -23.0866
  30   2.0000      -0.839835       -22.8531
  31   2.0000      -0.815915       -22.2022
  32   2.0000      -0.784775       -21.3548
  33   2.0000      -0.771539       -20.9946
  34   2.0000      -0.713047       -19.4030
  35   2.0000      -0.696178       -18.9440
  36   2.0000      -0.692149       -18.8343
  37   2.0000      -0.654363       -17.8061
  38   2.0000      -0.643044       -17.4981
  39   2.0000      -0.625637       -17.0244
  40   2.0000      -0.590713       -16.0741
  41   2.0000      -0.572730       -15.5848
  42   2.0000      -0.560258       -15.2454
  43   2.0000      -0.553066       -15.0497
  44   2.0000      -0.536135       -14.5890
  45   2.0000      -0.528751       -14.3880
  46   2.0000      -0.514019       -13.9872
  47   2.0000      -0.508625       -13.8404
  48   2.0000      -0.506504       -13.7827
  49   2.0000      -0.501692       -13.6517
  50   2.0000      -0.493319       -13.4239
  51   2.0000      -0.472916       -12.8687
  52   2.0000      -0.468652       -12.7527
  53   2.0000      -0.462793       -12.5932
  54   2.0000      -0.455639       -12.3986
  55   2.0000      -0.450523       -12.2594
  56   2.0000      -0.443477       -12.0676
  57   2.0000      -0.440218       -11.9789
  58   2.0000      -0.434168       -11.8143
  59   2.0000      -0.428852       -11.6696
  60   2.0000      -0.419385       -11.4120
  61   2.0000      -0.411453       -11.1962
  62   2.0000      -0.410689       -11.1754
  63   2.0000      -0.342467        -9.3190
  64   2.0000      -0.328498        -8.9389
  65   2.0000      -0.322303        -8.7703
  66   2.0000      -0.294829        -8.0227
  67   0.0000       0.031031         0.8444
  68   0.0000       0.058409         1.5894
  69   0.0000       0.105951         2.8831
  70   0.0000       0.123356         3.3567
  71   0.0000       0.125576         3.4171

MULLIKEN ATOMIC CHARGES
-----------------------
   0 S :    0.102542
   1 C :   -0.130985
   2 C :   -0.107756
   3 C :    0.054250
   4 C :   -0.157986
   5 H :    0.003050
   6 C :    0.089060
   7 H :   -0.002478
   8 H :    0.033998
   9 C :   -0.106769
  10 H :    0.028687
  11 H :    0.027483
  12 C :   -0.023246
  13 H :    0.020021
  14 H :    0.060313
  15 H :    0.021004
  16 S :    0.102426
  17 C :   -0.066589
  18 C :   -0.049352
  19 C :   -0.027756
  20 C :   -0.160102
  21 H :    0.008409
  22 C :    0.078905
  23 H :    0.015510
  24 H :    0.040760
  25 C :   -0.110442
  26 H :    0.033379
  27 H :    0.037013
  28 C :   -0.042831
  29 H :    0.038018
  30 H :    0.038562
  31 H :    0.033195
  32 H :    0.069477
  33 H :    0.050228
Sum of atomic charges:   -0.0000000

LOEWDIN ATOMIC CHARGES
----------------------
   0 S :    0.407824
   1 C :   -0.204223
   2 C :   -0.059817
   3 C :   -0.054433
   4 C :   -0.201744
   5 H :    0.024694
   6 C :   -0.037871
   7 H :    0.022787
   8 H :    0.035545
   9 C :   -0.037042
  10 H :    0.016433
  11 H :    0.028566
  12 C :   -0.062195
  13 H :    0.027094
  14 H :    0.033566
  15 H :    0.019604
  16 S :    0.387147
  17 C :   -0.182014
  18 C :   -0.072201
  19 C :   -0.052954
  20 C :   -0.188660
  21 H :    0.026495
  22 C :   -0.031667
  23 H :    0.023970
  24 H :    0.038190
  25 C :   -0.046528
  26 H :    0.030151
  27 H :    0.025729
  28 C :   -0.071612
  29 H :    0.031415
  30 H :    0.027546
  31 H :    0.025697
  32 H :    0.036984
  33 H :    0.033523

  Mayer bond orders larger than 0.100000
B(  0-S ,  1-C ) :   1.1431 B(  0-S ,  4-C ) :   1.1650 B(  1-C ,  2-C ) :   1.5567
B(  1-C ,  4-C ) :   0.1066 B(  1-C , 32-H ) :   0.9672 B(  2-C ,  3-C ) :   1.2396
B(  2-C ,  6-C ) :   1.0745 B(  3-C ,  4-C ) :   1.5482 B(  3-C ,  5-H ) :   1.0015
B(  4-C , 20-C ) :   1.0250 B(  6-C ,  7-H ) :   0.9341 B(  6-C ,  8-H ) :   0.9272
B(  6-C ,  9-C ) :   1.0627 B(  9-C , 10-H ) :   0.9585 B(  9-C , 11-H ) :   0.9589
B(  9-C , 12-C ) :   1.0608 B( 12-C , 13-H ) :   0.9727 B( 12-C , 14-H ) :   0.9703
B( 12-C , 15-H ) :   0.9736 B( 16-S , 17-C ) :   1.1257 B( 16-S , 20-C ) :   1.1408
B( 17-C , 18-C ) :   1.6728 B( 17-C , 33-H ) :   0.9607 B( 18-C , 19-C ) :   1.2222
B( 18-C , 21-H ) :   0.9824 B( 19-C , 20-C ) :   1.5995 B( 19-C , 22-C ) :   1.0538
B( 22-C , 23-H ) :   0.9312 B( 22-C , 24-H ) :   0.9362 B( 22-C , 25-C ) :   1.0434
B( 25-C , 26-H ) :   0.9524 B( 25-C , 27-H ) :   0.9583 B( 25-C , 28-C ) :   1.0848
B( 28-C , 29-H ) :   0.9719 B( 28-C , 30-H ) :   0.9745 B( 28-C , 31-H ) :   0.9720

Dispersion correction           -0.014982645
FINAL SINGLE POINT ENERGY     -1339.866798137373

DIPOLE MOMENT
-------------
                                X             Y             Z
Electronic contribution:     27.67266      11.43451      -3.76663
Nuclear contribution   :    -28.45067     -11.50827       3.97846
                        -----------------------------------------
Total Dipole Moment    :     -0.77801      -0.07376       0.21183
                        -----------------------------------------
Magnitude (a.u.)       :      0.80970
Magnitude (Debye)      :      2.05809

Rotational constants in cm-1:     0.016887     0.010412     0.007080
Rotational constants in MHz :   506.268369   312.145133   212.248514

                             ****ORCA TERMINATED NORMALLY****
TOTAL RUN TIME: 0 days 0 hours 0 minutes 22 seconds 466 msec
