                         Program Version 4.2.1 -  RELEASE  -
|  1> ! wB97X-D3 SP def2-SVP
|  2> %pal
|  3> nprocs 24
|  4> end
|  5>
|  6> * xyz 0 1
|  7> S 	 -36.3518 	 -48.2469 	 -78.9657
|  8> C 	 -35.1988 	 -48.2442 	 -80.2918
|  9> C 	 -33.9234 	 -48.4129 	 -79.7643
| 10> C 	 -33.872 	 -48.0598 	 -78.3977
| 11> C 	 -35.0927 	 -47.9964 	 -77.7845
| 12> H 	 -32.9666 	 -47.9441 	 -77.8006
| 13> C 	 -32.6157 	 -48.5461 	 -80.5455
| 14> H 	 -31.815 	 -48.6856 	 -79.8295
| 15> H 	 -32.3267 	 -47.5692 	 -80.9822
| 16> C 	 -32.6609 	 -49.6853 	 -81.6551
| 17> H 	 -32.8108 	 -50.6006 	 -81.0678
| 18> H 	 -33.5183 	 -49.6049 	 -82.2677
| 19> C 	 -31.377 	 -49.6511 	 -82.4664
| 20> H 	 -30.5075 	 -50.2133 	 -82.168
| 21> H 	 -31.6451 	 -50.212 	 -83.3984
| 22> H 	 -31.1006 	 -48.5989 	 -82.7586
| 23> S 	 -36.1821 	 -49.002 	 -75.5024
| 24> C 	 -36.1413 	 -48.1007 	 -73.9747
| 25> C 	 -35.602 	 -46.8559 	 -74.2004
| 26> C 	 -35.0116 	 -46.6794 	 -75.5148
| 27> C 	 -35.2392 	 -47.7564 	 -76.3509
| 28> H 	 -35.6659 	 -46.1334 	 -73.3651
| 29> C 	 -34.2531 	 -45.4532 	 -76.0435
| 30> H 	 -34.1075 	 -45.5592 	 -77.1019
| 31> H 	 -33.2648 	 -45.4485 	 -75.631
| 32> C 	 -34.7456 	 -44.0054 	 -75.6429
| 33> H 	 -34.8532 	 -43.943 	 -74.5374
| 34> H 	 -35.7631 	 -43.865 	 -75.9881
| 35> C 	 -33.8688 	 -42.87 	 -76.2494
| 36> H 	 -32.8284 	 -42.8686 	 -75.9153
| 37> H 	 -34.2976 	 -41.9211 	 -75.9263
| 38> H 	 -33.7322 	 -42.9618 	 -77.3472
| 39> H 	 -35.5123 	 -48.1457 	 -81.3161
| 40> H 	 -36.4637 	 -48.4251 	 -72.9445
| 41> *
| 42>
| 43>                          ****END OF INPUT****

CARTESIAN COORDINATES (ANGSTROEM)
---------------------------------
  S    -36.351800  -48.246900  -78.965700
  C    -35.198800  -48.244200  -80.291800
  C    -33.923400  -48.412900  -79.764300
  C    -33.872000  -48.059800  -78.397700
  C    -35.092700  -47.996400  -77.784500
  H    -32.966600  -47.944100  -77.800600
  C    -32.615700  -48.546100  -80.545500
  H    -31.815000  -48.685600  -79.829500
  H    -32.326700  -47.569200  -80.982200
  C    -32.660900  -49.685300  -81.655100
  H    -32.810800  -50.600600  -81.067800
  H    -33.518300  -49.604900  -82.267700
  C    -31.377000  -49.651100  -82.466400
  H    -30.507500  -50.213300  -82.168000
  H    -31.645100  -50.212000  -83.398400
  H    -31.100600  -48.598900  -82.758600
  S    -36.182100  -49.002000  -75.502400
  C    -36.141300  -48.100700  -73.974700
  C    -35.602000  -46.855900  -74.200400
  C    -35.011600  -46.679400  -75.514800
  C    -35.239200  -47.756400  -76.350900
  H    -35.665900  -46.133400  -73.365100
  C    -34.253100  -45.453200  -76.043500
  H    -34.107500  -45.559200  -77.101900
  H    -33.264800  -45.448500  -75.631000
  C    -34.745600  -44.005400  -75.642900
  H    -34.853200  -43.943000  -74.537400
  H    -35.763100  -43.865000  -75.988100
  C    -33.868800  -42.870000  -76.249400
  H    -32.828400  -42.868600  -75.915300
  H    -34.297600  -41.921100  -75.926300
  H    -33.732200  -42.961800  -77.347200
  H    -35.512300  -48.145700  -81.316100
  H    -36.463700  -48.425100  -72.944500

 Total Charge           Charge          ....    0
 Multiplicity           Mult            ....    1
 Number of Electrons    NEL             ....  134
 Basis Dimension        Dim             ....  322

ORBITAL ENERGIES
----------------

  NO   OCC          E(Eh)            E(eV)
   0   2.0000     -88.966518     -2420.9020
   1   2.0000     -88.960187     -2420.7298
   2   2.0000     -10.327923      -281.0371
   3   2.0000     -10.326800      -281.0065
   4   2.0000     -10.322738      -280.8960
   5   2.0000     -10.317764      -280.7606
   6   2.0000     -10.309270      -280.5295
   7   2.0000     -10.301795      -280.3261
   8   2.0000     -10.299011      -280.2503
   9   2.0000     -10.293966      -280.1131
  10   2.0000     -10.292030      -280.0604
  11   2.0000     -10.289982      -280.0047
  12   2.0000     -10.289231      -279.9842
  13   2.0000     -10.289120      -279.9812
  14   2.0000     -10.283631      -279.8318
  15   2.0000     -10.283476      -279.8276
  16   2.0000      -8.081200      -219.9006
  17   2.0000      -8.074413      -219.7160
  18   2.0000      -6.039813      -164.3517
  19   2.0000      -6.035672      -164.2390
  20   2.0000      -6.033112      -164.1693
  21   2.0000      -6.031882      -164.1359
  22   2.0000      -6.028982      -164.0569
  23   2.0000      -6.024997      -163.9485
  24   2.0000      -1.006648       -27.3923
  25   2.0000      -0.981234       -26.7007
  26   2.0000      -0.905821       -24.6487
  27   2.0000      -0.897706       -24.4278
  28   2.0000      -0.869648       -23.6643
  29   2.0000      -0.852005       -23.1842
  30   2.0000      -0.841662       -22.9028
  31   2.0000      -0.813945       -22.1486
  32   2.0000      -0.777204       -21.1488
  33   2.0000      -0.768532       -20.9128
  34   2.0000      -0.710991       -19.3470
  35   2.0000      -0.702990       -19.1293
  36   2.0000      -0.694838       -18.9075
  37   2.0000      -0.652731       -17.7617
  38   2.0000      -0.644195       -17.5294
  39   2.0000      -0.614237       -16.7143
  40   2.0000      -0.589410       -16.0387
  41   2.0000      -0.566739       -15.4217
  42   2.0000      -0.561252       -15.2725
  43   2.0000      -0.556716       -15.1490
  44   2.0000      -0.527264       -14.3476
  45   2.0000      -0.524200       -14.2642
  46   2.0000      -0.515623       -14.0308
  47   2.0000      -0.511503       -13.9187
  48   2.0000      -0.507041       -13.7973
  49   2.0000      -0.497315       -13.5326
  50   2.0000      -0.487247       -13.2587
  51   2.0000      -0.478670       -13.0253
  52   2.0000      -0.474469       -12.9110
  53   2.0000      -0.464257       -12.6331
  54   2.0000      -0.459145       -12.4940
  55   2.0000      -0.454226       -12.3601
  56   2.0000      -0.444571       -12.0974
  57   2.0000      -0.432759       -11.7760
  58   2.0000      -0.431794       -11.7497
  59   2.0000      -0.422457       -11.4956
  60   2.0000      -0.418220       -11.3803
  61   2.0000      -0.412650       -11.2288
  62   2.0000      -0.408563       -11.1176
  63   2.0000      -0.344675        -9.3791
  64   2.0000      -0.330402        -8.9907
  65   2.0000      -0.325519        -8.8578
  66   2.0000      -0.292614        -7.9624
  67   0.0000       0.036918         1.0046
  68   0.0000       0.055598         1.5129
  69   0.0000       0.113692         3.0937
  70   0.0000       0.121654         3.3104
  71   0.0000       0.128963         3.5093

MULLIKEN ATOMIC CHARGES
-----------------------
   0 S :    0.120859
   1 C :   -0.142701
   2 C :   -0.044543
   3 C :   -0.000966
   4 C :   -0.122022
   5 H :    0.020961
   6 C :    0.029989
   7 H :    0.016329
   8 H :    0.036076
   9 C :   -0.058846
  10 H :    0.037107
  11 H :    0.023521
  12 C :   -0.057412
  13 H :    0.040131
  14 H :    0.027899
  15 H :    0.039016
  16 S :    0.081206
  17 C :   -0.109665
  18 C :   -0.056965
  19 C :    0.004984
  20 C :   -0.187283
  21 H :    0.031606
  22 C :    0.070106
  23 H :    0.023769
  24 H :    0.023959
  25 C :   -0.099185
  26 H :    0.033867
  27 H :    0.032221
  28 C :   -0.053906
  29 H :    0.024308
  30 H :    0.040264
  31 H :    0.039739
  32 H :    0.057754
  33 H :    0.077823
Sum of atomic charges:   -0.0000000

LOEWDIN ATOMIC CHARGES
----------------------
   0 S :    0.407484
   1 C :   -0.187826
   2 C :   -0.064073
   3 C :   -0.063628
   4 C :   -0.203800
   5 H :    0.034409
   6 C :   -0.034132
   7 H :    0.026069
   8 H :    0.030819
   9 C :   -0.034821
  10 H :    0.031571
  11 H :    0.017301
  12 C :   -0.075240
  13 H :    0.025273
  14 H :    0.032791
  15 H :    0.030704
  16 S :    0.375306
  17 C :   -0.188035
  18 C :   -0.079434
  19 C :   -0.053467
  20 C :   -0.181791
  21 H :    0.035779
  22 C :   -0.031104
  23 H :    0.026773
  24 H :    0.029103
  25 C :   -0.040140
  26 H :    0.024529
  27 H :    0.021698
  28 C :   -0.068510
  29 H :    0.022804
  30 H :    0.029275
  31 H :    0.030861
  32 H :    0.027234
  33 H :    0.046218

  Mayer bond orders larger than 0.100000
B(  0-S ,  1-C ) :   1.1459 B(  0-S ,  4-C ) :   1.1402 B(  1-C ,  2-C ) :   1.5653
B(  1-C , 32-H ) :   0.9796 B(  2-C ,  3-C ) :   1.2443 B(  2-C ,  6-C ) :   1.0269
B(  3-C ,  4-C ) :   1.5665 B(  3-C ,  5-H ) :   0.9945 B(  4-C , 20-C ) :   1.0423
B(  6-C ,  7-H ) :   0.9467 B(  6-C ,  8-H ) :   0.9432 B(  6-C ,  9-C ) :   1.0444
B(  9-C , 10-H ) :   0.9568 B(  9-C , 11-H ) :   0.9650 B(  9-C , 12-C ) :   1.0756
B( 12-C , 13-H ) :   0.9764 B( 12-C , 14-H ) :   0.9730 B( 12-C , 15-H ) :   0.9738
B( 16-S , 17-C ) :   1.1356 B( 16-S , 20-C ) :   1.1222 B( 17-C , 18-C ) :   1.6488
B( 17-C , 33-H ) :   0.9585 B( 18-C , 19-C ) :   1.2037 B( 18-C , 21-H ) :   0.9841
B( 19-C , 20-C ) :   1.6214 B( 19-C , 22-C ) :   1.0396 B( 22-C , 23-H ) :   0.9369
B( 22-C , 24-H ) :   0.9324 B( 22-C , 25-C ) :   1.0529 B( 25-C , 26-H ) :   0.9542
B( 25-C , 27-H ) :   0.9596 B( 25-C , 28-C ) :   1.0788 B( 28-C , 29-H ) :   0.9749
B( 28-C , 30-H ) :   0.9745 B( 28-C , 31-H ) :   0.9755

Dispersion correction           -0.013324271
FINAL SINGLE POINT ENERGY     -1339.866921395680

DIPOLE MOMENT
-------------
                                X             Y             Z
Electronic contribution:    -19.94130     -13.05688      11.22815
Nuclear contribution   :     20.48536      13.45102     -11.38539
                        -----------------------------------------
Total Dipole Moment    :      0.54406       0.39414      -0.15724
                        -----------------------------------------
Magnitude (a.u.)       :      0.68998
Magnitude (Debye)      :      1.75379

Rotational constants in cm-1:     0.018699     0.007358     0.006004
Rotational constants in MHz :   560.593432   220.582652   180.005717

                             ****ORCA TERMINATED NORMALLY****
TOTAL RUN TIME: 0 days 0 hours 0 minutes 20 seconds 671 msec
