                         Program Version 4.2.1 -  RELEASE  -
|  1> ! wB97X-D3 SP def2-SVP
|  2> %pal
|  3> nprocs 24
|  4> end
|  5>
|  6> * xyz 0 1
|  7> S 	 -83.2888 	 -42.7492 	 -88.2006
|  8> C 	 -81.9145 	 -41.819 	 -87.638
|  9> C 	 -80.8195 	 -42.5682 	 -87.5386
| 10> C 	 -81.0522 	 -43.9735 	 -87.7525
| 11> C 	 -82.3839 	 -44.2582 	 -88.128
| 12> H 	 -80.4067 	 -44.8301 	 -87.6799
| 13> C 	 -79.455 	 -41.9419 	 -87.0215
| 14> H 	 -79.6082 	 -41.7311 	 -85.9306
| 15> H 	 -79.336 	 -40.963 	 -87.5357
| 16> C 	 -78.1403 	 -42.7602 	 -87.2385
| 17> H 	 -78.2756 	 -43.7604 	 -86.9715
| 18> H 	 -77.9063 	 -42.9513 	 -88.2993
| 19> C 	 -76.9176 	 -42.0944 	 -86.5285
| 20> H 	 -76.971 	 -42.0276 	 -85.416
| 21> H 	 -75.9981 	 -42.5601 	 -86.7498
| 22> H 	 -76.7357 	 -41.0586 	 -86.8986
| 23> S 	 -84.6842 	 -45.7168 	 -88.0375
| 24> C 	 -84.7665 	 -47.2419 	 -88.853
| 25> C 	 -83.4705 	 -47.7084 	 -89.0675
| 26> C 	 -82.4752 	 -46.7644 	 -88.8936
| 27> C 	 -82.9911 	 -45.5864 	 -88.3828
| 28> H 	 -83.3875 	 -48.6872 	 -89.5292
| 29> C 	 -81.0371 	 -46.9732 	 -89.5207
| 30> H 	 -80.9003 	 -47.9855 	 -89.8191
| 31> H 	 -80.4445 	 -46.768 	 -88.6829
| 32> C 	 -80.7164 	 -45.9576 	 -90.7366
| 33> H 	 -79.6273 	 -45.8003 	 -90.9002
| 34> H 	 -80.9624 	 -44.9494 	 -90.4751
| 35> C 	 -81.5251 	 -46.2791 	 -91.963
| 36> H 	 -81.1972 	 -45.6963 	 -92.8016
| 37> H 	 -82.6045 	 -46.1786 	 -91.904
| 38> H 	 -81.257 	 -47.2879 	 -92.1835
| 39> H 	 -81.9938 	 -40.7455 	 -87.4286
| 40> H 	 -85.6195 	 -47.8588 	 -89.0929
| 41> *
| 42>
| 43>                          ****END OF INPUT****

CARTESIAN COORDINATES (ANGSTROEM)
---------------------------------
  S    -83.288800  -42.749200  -88.200600
  C    -81.914500  -41.819000  -87.638000
  C    -80.819500  -42.568200  -87.538600
  C    -81.052200  -43.973500  -87.752500
  C    -82.383900  -44.258200  -88.128000
  H    -80.406700  -44.830100  -87.679900
  C    -79.455000  -41.941900  -87.021500
  H    -79.608200  -41.731100  -85.930600
  H    -79.336000  -40.963000  -87.535700
  C    -78.140300  -42.760200  -87.238500
  H    -78.275600  -43.760400  -86.971500
  H    -77.906300  -42.951300  -88.299300
  C    -76.917600  -42.094400  -86.528500
  H    -76.971000  -42.027600  -85.416000
  H    -75.998100  -42.560100  -86.749800
  H    -76.735700  -41.058600  -86.898600
  S    -84.684200  -45.716800  -88.037500
  C    -84.766500  -47.241900  -88.853000
  C    -83.470500  -47.708400  -89.067500
  C    -82.475200  -46.764400  -88.893600
  C    -82.991100  -45.586400  -88.382800
  H    -83.387500  -48.687200  -89.529200
  C    -81.037100  -46.973200  -89.520700
  H    -80.900300  -47.985500  -89.819100
  H    -80.444500  -46.768000  -88.682900
  C    -80.716400  -45.957600  -90.736600
  H    -79.627300  -45.800300  -90.900200
  H    -80.962400  -44.949400  -90.475100
  C    -81.525100  -46.279100  -91.963000
  H    -81.197200  -45.696300  -92.801600
  H    -82.604500  -46.178600  -91.904000
  H    -81.257000  -47.287900  -92.183500
  H    -81.993800  -40.745500  -87.428600
  H    -85.619500  -47.858800  -89.092900

 Total Charge           Charge          ....    0
 Multiplicity           Mult            ....    1
 Number of Electrons    NEL             ....  134
 Basis Dimension        Dim             ....  322

ORBITAL ENERGIES
----------------

  NO   OCC          E(Eh)            E(eV)
   0   2.0000     -88.968075     -2420.9444
   1   2.0000     -88.964033     -2420.8344
   2   2.0000     -10.334728      -281.2223
   3   2.0000     -10.327534      -281.0265
   4   2.0000     -10.315085      -280.6877
   5   2.0000     -10.309569      -280.5376
   6   2.0000     -10.304332      -280.3951
   7   2.0000     -10.303289      -280.3668
   8   2.0000     -10.302904      -280.3563
   9   2.0000     -10.297293      -280.2036
  10   2.0000     -10.296881      -280.1924
  11   2.0000     -10.290637      -280.0225
  12   2.0000     -10.289725      -279.9977
  13   2.0000     -10.286224      -279.9024
  14   2.0000     -10.284008      -279.8421
  15   2.0000     -10.266952      -279.3780
  16   2.0000      -8.083263      -219.9568
  17   2.0000      -8.078645      -219.8311
  18   2.0000      -6.041626      -164.4010
  19   2.0000      -6.037703      -164.2942
  20   2.0000      -6.037253      -164.2820
  21   2.0000      -6.034134      -164.1971
  22   2.0000      -6.033152      -164.1704
  23   2.0000      -6.029314      -164.0660
  24   2.0000      -1.010127       -27.4870
  25   2.0000      -0.987185       -26.8627
  26   2.0000      -0.901611       -24.5341
  27   2.0000      -0.899699       -24.4821
  28   2.0000      -0.869407       -23.6578
  29   2.0000      -0.853681       -23.2298
  30   2.0000      -0.840094       -22.8601
  31   2.0000      -0.813983       -22.1496
  32   2.0000      -0.783533       -21.3210
  33   2.0000      -0.773048       -21.0357
  34   2.0000      -0.714962       -19.4551
  35   2.0000      -0.703189       -19.1347
  36   2.0000      -0.689515       -18.7627
  37   2.0000      -0.664207       -18.0740
  38   2.0000      -0.640867       -17.4389
  39   2.0000      -0.614361       -16.7176
  40   2.0000      -0.587700       -15.9921
  41   2.0000      -0.565100       -15.3772
  42   2.0000      -0.557923       -15.1818
  43   2.0000      -0.554801       -15.0969
  44   2.0000      -0.543062       -14.7775
  45   2.0000      -0.522076       -14.2064
  46   2.0000      -0.511221       -13.9110
  47   2.0000      -0.508643       -13.8409
  48   2.0000      -0.501326       -13.6418
  49   2.0000      -0.498989       -13.5782
  50   2.0000      -0.492325       -13.3968
  51   2.0000      -0.479594       -13.0504
  52   2.0000      -0.476112       -12.9557
  53   2.0000      -0.471872       -12.8403
  54   2.0000      -0.461930       -12.5698
  55   2.0000      -0.447332       -12.1725
  56   2.0000      -0.440010       -11.9733
  57   2.0000      -0.438572       -11.9341
  58   2.0000      -0.430687       -11.7196
  59   2.0000      -0.426832       -11.6147
  60   2.0000      -0.420924       -11.4539
  61   2.0000      -0.413991       -11.2653
  62   2.0000      -0.410432       -11.1684
  63   2.0000      -0.352566        -9.5938
  64   2.0000      -0.335725        -9.1355
  65   2.0000      -0.330852        -9.0029
  66   2.0000      -0.285026        -7.7560
  67   0.0000       0.019176         0.5218
  68   0.0000       0.085729         2.3328
  69   0.0000       0.107843         2.9346
  70   0.0000       0.125221         3.4074
  71   0.0000       0.135785         3.6949

MULLIKEN ATOMIC CHARGES
-----------------------
   0 S :    0.101121
   1 C :   -0.147308
   2 C :   -0.031333
   3 C :    0.011859
   4 C :   -0.138746
   5 H :   -0.002611
   6 C :    0.016566
   7 H :    0.055141
   8 H :    0.037978
   9 C :   -0.053754
  10 H :    0.014054
  11 H :    0.026732
  12 C :   -0.051437
  13 H :    0.040753
  14 H :    0.020646
  15 H :    0.029512
  16 S :    0.121766
  17 C :   -0.099361
  18 C :   -0.057006
  19 C :   -0.044011
  20 C :   -0.164426
  21 H :    0.016494
  22 C :    0.112143
  23 H :    0.014262
  24 H :    0.014528
  25 C :   -0.075341
  26 H :    0.030013
  27 H :    0.028559
  28 C :   -0.017337
  29 H :    0.024048
  30 H :    0.048452
  31 H :    0.008221
  32 H :    0.055582
  33 H :    0.054241
Sum of atomic charges:    0.0000000

LOEWDIN ATOMIC CHARGES
----------------------
   0 S :    0.392476
   1 C :   -0.196767
   2 C :   -0.067458
   3 C :   -0.069668
   4 C :   -0.184430
   5 H :    0.025526
   6 C :   -0.029600
   7 H :    0.038745
   8 H :    0.032892
   9 C :   -0.044189
  10 H :    0.013394
  11 H :    0.029471
  12 C :   -0.066879
  13 H :    0.029676
  14 H :    0.019484
  15 H :    0.029303
  16 S :    0.427414
  17 C :   -0.194739
  18 C :   -0.074277
  19 C :   -0.060655
  20 C :   -0.201725
  21 H :    0.030748
  22 C :   -0.009615
  23 H :    0.023579
  24 H :    0.018963
  25 C :   -0.040281
  26 H :    0.029087
  27 H :    0.021327
  28 C :   -0.060770
  29 H :    0.025609
  30 H :    0.030204
  31 H :    0.017609
  32 H :    0.034745
  33 H :    0.030803

  Mayer bond orders larger than 0.100000
B(  0-S ,  1-C ) :   1.1218 B(  0-S ,  4-C ) :   1.1539 B(  1-C ,  2-C ) :   1.6451
B(  1-C , 32-H ) :   0.9701 B(  2-C ,  3-C ) :   1.2222 B(  2-C ,  6-C ) :   0.9903
B(  3-C ,  4-C ) :   1.5656 B(  3-C ,  5-H ) :   0.9963 B(  4-C , 20-C ) :   1.0589
B(  6-C ,  7-H ) :   0.9521 B(  6-C ,  8-H ) :   0.9493 B(  6-C ,  9-C ) :   1.0600
B(  9-C , 10-H ) :   0.9508 B(  9-C , 11-H ) :   0.9555 B(  9-C , 12-C ) :   1.0794
B( 12-C , 13-H ) :   0.9776 B( 12-C , 14-H ) :   0.9739 B( 12-C , 15-H ) :   0.9751
B( 16-S , 17-C ) :   1.1600 B( 16-S , 20-C ) :   1.1629 B( 17-C , 18-C ) :   1.5883
B( 17-C , 20-C ) :   0.1070 B( 17-C , 33-H ) :   0.9698 B( 18-C , 19-C ) :   1.2835
B( 18-C , 21-H ) :   0.9858 B( 19-C , 20-C ) :   1.5568 B( 19-C , 22-C ) :   1.0145
B( 22-C , 23-H ) :   0.9446 B( 22-C , 24-H ) :   0.9320 B( 22-C , 25-C ) :   1.0583
B( 25-C , 26-H ) :   0.9572 B( 25-C , 27-H ) :   0.9544 B( 25-C , 28-C ) :   1.0716
B( 28-C , 29-H ) :   0.9693 B( 28-C , 30-H ) :   0.9766 B( 28-C , 31-H ) :   0.9770

Dispersion correction           -0.014789538
FINAL SINGLE POINT ENERGY     -1339.865687304590

DIPOLE MOMENT
-------------
                                X             Y             Z
Electronic contribution:    -28.25111      -0.59826       5.89913
Nuclear contribution   :     28.85546       0.46527      -6.06350
                        -----------------------------------------
Total Dipole Moment    :      0.60434      -0.13299      -0.16437
                        -----------------------------------------
Magnitude (a.u.)       :      0.64026
Magnitude (Debye)      :      1.62741

Rotational constants in cm-1:     0.020057     0.008437     0.006825
Rotational constants in MHz :   601.290810   252.920623   204.617242

                             ****ORCA TERMINATED NORMALLY****
TOTAL RUN TIME: 0 days 0 hours 0 minutes 22 seconds 62 msec
