                         Program Version 4.2.1 -  RELEASE  -
|  1> ! wB97X-D3 SP def2-SVP
|  2> %pal
|  3> nprocs 24
|  4> end
|  5>
|  6> * xyz 0 1
|  7> S 	 -136.818 	 7.93698 	 -9.4001
|  8> C 	 -137.351 	 9.60767 	 -9.27875
|  9> C 	 -137.687 	 9.94984 	 -7.98838
| 10> C 	 -137.216 	 8.99144 	 -7.06254
| 11> C 	 -136.686 	 7.81426 	 -7.64927
| 12> H 	 -137.401 	 9.02851 	 -6.03948
| 13> C 	 -138.37 	 11.2652 	 -7.55819
| 14> H 	 -138.544 	 11.8343 	 -8.46209
| 15> H 	 -137.737 	 11.867 	 -6.92493
| 16> C 	 -139.762 	 11.0194 	 -6.91103
| 17> H 	 -140.407 	 10.7142 	 -7.72141
| 18> H 	 -139.637 	 10.2688 	 -6.19028
| 19> C 	 -140.26 	 12.3266 	 -6.29644
| 20> H 	 -141.334 	 12.2441 	 -5.91454
| 21> H 	 -139.655 	 12.5949 	 -5.48089
| 22> H 	 -140.011 	 13.1172 	 -7.01176
| 23> S 	 -137.224 	 5.21957 	 -6.96623
| 24> C 	 -136.259 	 4.38708 	 -5.75947
| 25> C 	 -135.114 	 5.08566 	 -5.59211
| 26> C 	 -135.022 	 6.35158 	 -6.20955
| 27> C 	 -136.182 	 6.61888 	 -6.94025
| 28> H 	 -134.305 	 4.6666 	 -5.04865
| 29> C 	 -133.783 	 7.21053 	 -6.24171
| 30> H 	 -133.077 	 6.87105 	 -5.52115
| 31> H 	 -134.128 	 8.19399 	 -6.00408
| 32> C 	 -133.236 	 7.28125 	 -7.67468
| 33> H 	 -134.05 	 7.58038 	 -8.4611
| 34> H 	 -132.999 	 6.27333 	 -8.10431
| 35> C 	 -131.95 	 8.12056 	 -7.82345
| 36> H 	 -132.129 	 9.06464 	 -7.37275
| 37> H 	 -131.659 	 8.29668 	 -8.89746
| 38> H 	 -131.105 	 7.70959 	 -7.29222
| 39> H 	 -137.588 	 10.1539 	 -10.1173
| 40> H 	 -136.494 	 3.38782 	 -5.45138
| 41> *
| 42>
| 43>                          ****END OF INPUT****

CARTESIAN COORDINATES (ANGSTROEM)
---------------------------------
  S    -136.818000    7.936980   -9.400100
  C    -137.351000    9.607670   -9.278750
  C    -137.687000    9.949840   -7.988380
  C    -137.216000    8.991440   -7.062540
  C    -136.686000    7.814260   -7.649270
  H    -137.401000    9.028510   -6.039480
  C    -138.370000   11.265200   -7.558190
  H    -138.544000   11.834300   -8.462090
  H    -137.737000   11.867000   -6.924930
  C    -139.762000   11.019400   -6.911030
  H    -140.407000   10.714200   -7.721410
  H    -139.637000   10.268800   -6.190280
  C    -140.260000   12.326600   -6.296440
  H    -141.334000   12.244100   -5.914540
  H    -139.655000   12.594900   -5.480890
  H    -140.011000   13.117200   -7.011760
  S    -137.224000    5.219570   -6.966230
  C    -136.259000    4.387080   -5.759470
  C    -135.114000    5.085660   -5.592110
  C    -135.022000    6.351580   -6.209550
  C    -136.182000    6.618880   -6.940250
  H    -134.305000    4.666600   -5.048650
  C    -133.783000    7.210530   -6.241710
  H    -133.077000    6.871050   -5.521150
  H    -134.128000    8.193990   -6.004080
  C    -133.236000    7.281250   -7.674680
  H    -134.050000    7.580380   -8.461100
  H    -132.999000    6.273330   -8.104310
  C    -131.950000    8.120560   -7.823450
  H    -132.129000    9.064640   -7.372750
  H    -131.659000    8.296680   -8.897460
  H    -131.105000    7.709590   -7.292220
  H    -137.588000   10.153900  -10.117300
  H    -136.494000    3.387820   -5.451380

 Total Charge           Charge          ....    0
 Multiplicity           Mult            ....    1
 Number of Electrons    NEL             ....  134
 Basis Dimension        Dim             ....  322

ORBITAL ENERGIES
----------------

  NO   OCC          E(Eh)            E(eV)
   0   2.0000     -88.969198     -2420.9750
   1   2.0000     -88.960256     -2420.7316
   2   2.0000     -10.335513      -281.2436
   3   2.0000     -10.325807      -280.9795
   4   2.0000     -10.313932      -280.6563
   5   2.0000     -10.310332      -280.5584
   6   2.0000     -10.301658      -280.3224
   7   2.0000     -10.301139      -280.3083
   8   2.0000     -10.293763      -280.1075
   9   2.0000     -10.292542      -280.0743
  10   2.0000     -10.289673      -279.9962
  11   2.0000     -10.288014      -279.9511
  12   2.0000     -10.286964      -279.9225
  13   2.0000     -10.282122      -279.7908
  14   2.0000     -10.280180      -279.7379
  15   2.0000     -10.272818      -279.5376
  16   2.0000      -8.083197      -219.9550
  17   2.0000      -8.075399      -219.7428
  18   2.0000      -6.041655      -164.4018
  19   2.0000      -6.037808      -164.2971
  20   2.0000      -6.034061      -164.1951
  21   2.0000      -6.033837      -164.1890
  22   2.0000      -6.029815      -164.0796
  23   2.0000      -6.026247      -163.9825
  24   2.0000      -1.005769       -27.3684
  25   2.0000      -0.985814       -26.8254
  26   2.0000      -0.913507       -24.8578
  27   2.0000      -0.906553       -24.6686
  28   2.0000      -0.869756       -23.6673
  29   2.0000      -0.848725       -23.0950
  30   2.0000      -0.844961       -22.9925
  31   2.0000      -0.815105       -22.1801
  32   2.0000      -0.780863       -21.2484
  33   2.0000      -0.771206       -20.9856
  34   2.0000      -0.709102       -19.2956
  35   2.0000      -0.699292       -19.0287
  36   2.0000      -0.689950       -18.7745
  37   2.0000      -0.663566       -18.0565
  38   2.0000      -0.649333       -17.6692
  39   2.0000      -0.622235       -16.9319
  40   2.0000      -0.599379       -16.3099
  41   2.0000      -0.571675       -15.5561
  42   2.0000      -0.567161       -15.4332
  43   2.0000      -0.557711       -15.1761
  44   2.0000      -0.525521       -14.3001
  45   2.0000      -0.522839       -14.2272
  46   2.0000      -0.520632       -14.1671
  47   2.0000      -0.514024       -13.9873
  48   2.0000      -0.503975       -13.7139
  49   2.0000      -0.501068       -13.6348
  50   2.0000      -0.492960       -13.4141
  51   2.0000      -0.485121       -13.2008
  52   2.0000      -0.463905       -12.6235
  53   2.0000      -0.462113       -12.5747
  54   2.0000      -0.460450       -12.5295
  55   2.0000      -0.448875       -12.2145
  56   2.0000      -0.443163       -12.0591
  57   2.0000      -0.439059       -11.9474
  58   2.0000      -0.435516       -11.8510
  59   2.0000      -0.430459       -11.7134
  60   2.0000      -0.422648       -11.5008
  61   2.0000      -0.417480       -11.3602
  62   2.0000      -0.402819       -10.9613
  63   2.0000      -0.338283        -9.2051
  64   2.0000      -0.331573        -9.0226
  65   2.0000      -0.323169        -8.7939
  66   2.0000      -0.301006        -8.1908
  67   0.0000       0.037854         1.0301
  68   0.0000       0.051865         1.4113
  69   0.0000       0.112096         3.0503
  70   0.0000       0.122880         3.3437
  71   0.0000       0.130299         3.5456

MULLIKEN ATOMIC CHARGES
-----------------------
   0 S :    0.112640
   1 C :   -0.095428
   2 C :   -0.079138
   3 C :    0.077305
   4 C :   -0.177407
   5 H :   -0.008293
   6 C :    0.044060
   7 H :    0.012719
   8 H :    0.031919
   9 C :   -0.057283
  10 H :    0.034237
  11 H :    0.021895
  12 C :   -0.033553
  13 H :    0.055979
  14 H :    0.012860
  15 H :    0.024916
  16 S :    0.096354
  17 C :   -0.082653
  18 C :   -0.024208
  19 C :   -0.031959
  20 C :   -0.196517
  21 H :    0.000701
  22 C :    0.171486
  23 H :    0.010687
  24 H :    0.018568
  25 C :   -0.149725
  26 H :    0.047369
  27 H :    0.026267
  28 C :   -0.017551
  29 H :    0.014045
  30 H :    0.042808
  31 H :    0.025238
  32 H :    0.017235
  33 H :    0.054429
Sum of atomic charges:    0.0000000

LOEWDIN ATOMIC CHARGES
----------------------
   0 S :    0.406475
   1 C :   -0.179807
   2 C :   -0.059514
   3 C :   -0.050058
   4 C :   -0.194703
   5 H :    0.020327
   6 C :   -0.024031
   7 H :    0.026046
   8 H :    0.025782
   9 C :   -0.029621
  10 H :    0.026331
  11 H :    0.013564
  12 C :   -0.067008
  13 H :    0.038074
  14 H :    0.016221
  15 H :    0.027273
  16 S :    0.405312
  17 C :   -0.177604
  18 C :   -0.072125
  19 C :   -0.050206
  20 C :   -0.205285
  21 H :    0.025250
  22 C :   -0.021914
  23 H :    0.025802
  24 H :    0.032864
  25 C :   -0.053318
  26 H :    0.031521
  27 H :    0.022857
  28 C :   -0.067937
  29 H :    0.016675
  30 H :    0.034716
  31 H :    0.021284
  32 H :    0.009276
  33 H :    0.027483

  Mayer bond orders larger than 0.100000
B(  0-S ,  1-C ) :   1.1459 B(  0-S ,  4-C ) :   1.1570 B(  1-C ,  2-C ) :   1.6015
B(  1-C ,  4-C ) :   0.1055 B(  1-C , 32-H ) :   0.9758 B(  2-C ,  3-C ) :   1.2513
B(  2-C ,  6-C ) :   1.0204 B(  3-C ,  4-C ) :   1.5690 B(  3-C ,  5-H ) :   0.9995
B(  4-C , 20-C ) :   1.0051 B(  6-C ,  7-H ) :   0.9370 B(  6-C ,  8-H ) :   0.9511
B(  6-C ,  9-C ) :   1.0537 B(  9-C , 10-H ) :   0.9541 B(  9-C , 11-H ) :   0.9647
B(  9-C , 12-C ) :   1.0837 B( 12-C , 13-H ) :   0.9717 B( 12-C , 14-H ) :   0.9737
B( 12-C , 15-H ) :   0.9686 B( 16-S , 17-C ) :   1.1555 B( 16-S , 20-C ) :   1.1660
B( 17-C , 18-C ) :   1.5778 B( 17-C , 20-C ) :   0.1067 B( 17-C , 33-H ) :   0.9745
B( 18-C , 19-C ) :   1.2704 B( 18-C , 21-H ) :   0.9928 B( 19-C , 20-C ) :   1.5657
B( 19-C , 22-C ) :   1.0491 B( 22-C , 23-H ) :   0.9320 B( 22-C , 24-H ) :   0.9119
B( 22-C , 25-C ) :   1.0569 B( 25-C , 26-H ) :   0.9483 B( 25-C , 27-H ) :   0.9555
B( 25-C , 28-C ) :   1.0800 B( 28-C , 29-H ) :   0.9733 B( 28-C , 30-H ) :   0.9735
B( 28-C , 31-H ) :   0.9741

Dispersion correction           -0.014164787
FINAL SINGLE POINT ENERGY     -1339.874280661434

DIPOLE MOMENT
-------------
                                X             Y             Z
Electronic contribution:     -4.59151     -19.90758      -5.65967
Nuclear contribution   :      4.68823      20.24871       5.94897
                        -----------------------------------------
Total Dipole Moment    :      0.09671       0.34113       0.28930
                        -----------------------------------------
Magnitude (a.u.)       :      0.45763
Magnitude (Debye)      :      1.16319

Rotational constants in cm-1:     0.018783     0.007961     0.006917
Rotational constants in MHz :   563.096814   238.672644   207.375358

                             ****ORCA TERMINATED NORMALLY****
TOTAL RUN TIME: 0 days 0 hours 0 minutes 21 seconds 280 msec
