                         Program Version 4.2.1 -  RELEASE  -
|  1> ! wB97X-D3 SP def2-SVP
|  2> %pal
|  3> nprocs 24
|  4> end
|  5>
|  6> * xyz 0 1
|  7> S 	 22.7389 	 -5.17003 	 -109.094
|  8> C 	 22.3276 	 -6.48965 	 -110.143
|  9> C 	 21.962 	 -5.96243 	 -111.38
| 10> C 	 22.2744 	 -4.55255 	 -111.517
| 11> C 	 22.612 	 -3.97812 	 -110.282
| 12> H 	 22.2125 	 -3.90558 	 -112.375
| 13> C 	 21.4201 	 -6.88185 	 -112.44
| 14> H 	 20.3613 	 -6.93455 	 -112.318
| 15> H 	 21.8193 	 -7.88073 	 -112.328
| 16> C 	 21.6764 	 -6.38271 	 -113.873
| 17> H 	 21.4156 	 -5.34169 	 -113.877
| 18> H 	 22.7222 	 -6.47922 	 -114.089
| 19> C 	 21.0055 	 -7.0428 	 -115.071
| 20> H 	 19.9733 	 -7.19941 	 -114.935
| 21> H 	 21.1499 	 -6.34008 	 -115.908
| 22> H 	 21.3807 	 -8.03805 	 -115.265
| 23> S 	 24.219 	 -2.0813 	 -108.923
| 24> C 	 23.5949 	 -0.477907 	 -108.812
| 25> C 	 22.4453 	 -0.296658 	 -109.474
| 26> C 	 21.9892 	 -1.48618 	 -110.11
| 27> C 	 22.8746 	 -2.56872 	 -109.992
| 28> H 	 21.9086 	 0.666745 	 -109.492
| 29> C 	 20.6512 	 -1.47308 	 -110.8
| 30> H 	 20.6337 	 -2.44409 	 -111.254
| 31> H 	 20.6941 	 -0.824936 	 -111.63
| 32> C 	 19.422 	 -1.16618 	 -109.92
| 33> H 	 19.0389 	 -0.14216 	 -109.899
| 34> H 	 19.6535 	 -1.43543 	 -108.835
| 35> C 	 18.3439 	 -2.04781 	 -110.477
| 36> H 	 17.4438 	 -2.08895 	 -109.84
| 37> H 	 18.6434 	 -3.04124 	 -110.664
| 38> H 	 18.0713 	 -1.72048 	 -111.431
| 39> H 	 22.2421 	 -7.55204 	 -109.896
| 40> H 	 24.1283 	 0.355808 	 -108.407
| 41> *
| 42>
| 43>                          ****END OF INPUT****

CARTESIAN COORDINATES (ANGSTROEM)
---------------------------------
  S     22.738900   -5.170030  -109.094000
  C     22.327600   -6.489650  -110.143000
  C     21.962000   -5.962430  -111.380000
  C     22.274400   -4.552550  -111.517000
  C     22.612000   -3.978120  -110.282000
  H     22.212500   -3.905580  -112.375000
  C     21.420100   -6.881850  -112.440000
  H     20.361300   -6.934550  -112.318000
  H     21.819300   -7.880730  -112.328000
  C     21.676400   -6.382710  -113.873000
  H     21.415600   -5.341690  -113.877000
  H     22.722200   -6.479220  -114.089000
  C     21.005500   -7.042800  -115.071000
  H     19.973300   -7.199410  -114.935000
  H     21.149900   -6.340080  -115.908000
  H     21.380700   -8.038050  -115.265000
  S     24.219000   -2.081300  -108.923000
  C     23.594900   -0.477907  -108.812000
  C     22.445300   -0.296658  -109.474000
  C     21.989200   -1.486180  -110.110000
  C     22.874600   -2.568720  -109.992000
  H     21.908600    0.666745  -109.492000
  C     20.651200   -1.473080  -110.800000
  H     20.633700   -2.444090  -111.254000
  H     20.694100   -0.824936  -111.630000
  C     19.422000   -1.166180  -109.920000
  H     19.038900   -0.142160  -109.899000
  H     19.653500   -1.435430  -108.835000
  C     18.343900   -2.047810  -110.477000
  H     17.443800   -2.088950  -109.840000
  H     18.643400   -3.041240  -110.664000
  H     18.071300   -1.720480  -111.431000
  H     22.242100   -7.552040  -109.896000
  H     24.128300    0.355808  -108.407000

 Total Charge           Charge          ....    0
 Multiplicity           Mult            ....    1
 Number of Electrons    NEL             ....  134
 Basis Dimension        Dim             ....  322

ORBITAL ENERGIES
----------------

  NO   OCC          E(Eh)            E(eV)
   0   2.0000     -88.965465     -2420.8734
   1   2.0000     -88.964259     -2420.8406
   2   2.0000     -10.329493      -281.0798
   3   2.0000     -10.328062      -281.0408
   4   2.0000     -10.311883      -280.6006
   5   2.0000     -10.311325      -280.5854
   6   2.0000     -10.303414      -280.3702
   7   2.0000     -10.302752      -280.3521
   8   2.0000     -10.296183      -280.1734
   9   2.0000     -10.290087      -280.0075
  10   2.0000     -10.288483      -279.9638
  11   2.0000     -10.286454      -279.9087
  12   2.0000     -10.282235      -279.7938
  13   2.0000     -10.278577      -279.6943
  14   2.0000     -10.273829      -279.5651
  15   2.0000     -10.265055      -279.3264
  16   2.0000      -8.080230      -219.8742
  17   2.0000      -8.080133      -219.8716
  18   2.0000      -6.038816      -164.3245
  19   2.0000      -6.038571      -164.3179
  20   2.0000      -6.034756      -164.2141
  21   2.0000      -6.034202      -164.1990
  22   2.0000      -6.031165      -164.1163
  23   2.0000      -6.030868      -164.1083
  24   2.0000      -1.010263       -27.4906
  25   2.0000      -0.988626       -26.9019
  26   2.0000      -0.915419       -24.9098
  27   2.0000      -0.914266       -24.8784
  28   2.0000      -0.872660       -23.7463
  29   2.0000      -0.855126       -23.2692
  30   2.0000      -0.845303       -23.0019
  31   2.0000      -0.818877       -22.2828
  32   2.0000      -0.785036       -21.3619
  33   2.0000      -0.770731       -20.9727
  34   2.0000      -0.712220       -19.3805
  35   2.0000      -0.705218       -19.1899
  36   2.0000      -0.689193       -18.7539
  37   2.0000      -0.653285       -17.7768
  38   2.0000      -0.643012       -17.4972
  39   2.0000      -0.618150       -16.8207
  40   2.0000      -0.599150       -16.3037
  41   2.0000      -0.572375       -15.5751
  42   2.0000      -0.570056       -15.5120
  43   2.0000      -0.568680       -15.4746
  44   2.0000      -0.531399       -14.4601
  45   2.0000      -0.527585       -14.3563
  46   2.0000      -0.518272       -14.1029
  47   2.0000      -0.509799       -13.8723
  48   2.0000      -0.506753       -13.7894
  49   2.0000      -0.503371       -13.6974
  50   2.0000      -0.495861       -13.4931
  51   2.0000      -0.482242       -13.1225
  52   2.0000      -0.477381       -12.9902
  53   2.0000      -0.466816       -12.7027
  54   2.0000      -0.461560       -12.5597
  55   2.0000      -0.453891       -12.3510
  56   2.0000      -0.445916       -12.1340
  57   2.0000      -0.437532       -11.9058
  58   2.0000      -0.424756       -11.5582
  59   2.0000      -0.423323       -11.5192
  60   2.0000      -0.419085       -11.4039
  61   2.0000      -0.414596       -11.2817
  62   2.0000      -0.412469       -11.2238
  63   2.0000      -0.347482        -9.4555
  64   2.0000      -0.332040        -9.0353
  65   2.0000      -0.326720        -8.8905
  66   2.0000      -0.292983        -7.9725
  67   0.0000       0.032271         0.8781
  68   0.0000       0.074197         2.0190
  69   0.0000       0.118340         3.2202
  70   0.0000       0.124509         3.3881
  71   0.0000       0.132631         3.6091

MULLIKEN ATOMIC CHARGES
-----------------------
   0 S :    0.124404
   1 C :   -0.132624
   2 C :   -0.107025
   3 C :    0.020404
   4 C :   -0.156520
   5 H :    0.018603
   6 C :    0.114169
   7 H :    0.026095
   8 H :    0.020838
   9 C :   -0.131315
  10 H :    0.026644
  11 H :    0.029561
  12 C :   -0.007369
  13 H :    0.010229
  14 H :    0.038671
  15 H :    0.026050
  16 S :    0.101029
  17 C :   -0.066970
  18 C :   -0.026225
  19 C :   -0.089526
  20 C :   -0.155680
  21 H :    0.027996
  22 C :    0.132419
  23 H :   -0.011949
  24 H :    0.021354
  25 C :   -0.078121
  26 H :    0.035160
  27 H :    0.049958
  28 C :   -0.025048
  29 H :    0.030015
  30 H :    0.021420
  31 H :    0.006965
  32 H :    0.056373
  33 H :    0.050014
Sum of atomic charges:    0.0000000

LOEWDIN ATOMIC CHARGES
----------------------
   0 S :    0.444224
   1 C :   -0.216316
   2 C :   -0.057414
   3 C :   -0.077283
   4 C :   -0.209885
   5 H :    0.028176
   6 C :   -0.029159
   7 H :    0.029035
   8 H :    0.028333
   9 C :   -0.042682
  10 H :    0.018769
  11 H :    0.023977
  12 C :   -0.058726
  13 H :    0.014495
  14 H :    0.034580
  15 H :    0.023082
  16 S :    0.397394
  17 C :   -0.178842
  18 C :   -0.078150
  19 C :   -0.042165
  20 C :   -0.203009
  21 H :    0.038689
  22 C :   -0.028366
  23 H :    0.025754
  24 H :    0.028639
  25 C :   -0.040066
  26 H :    0.025992
  27 H :    0.033171
  28 C :   -0.057751
  29 H :    0.025614
  30 H :    0.019394
  31 H :    0.016798
  32 H :    0.035363
  33 H :    0.028335

  Mayer bond orders larger than 0.100000
B(  0-S ,  1-C ) :   1.1399 B(  0-S ,  4-C ) :   1.1950 B(  1-C ,  2-C ) :   1.5867
B(  1-C , 32-H ) :   0.9739 B(  2-C ,  3-C ) :   1.2484 B(  2-C ,  6-C ) :   1.0267
B(  3-C ,  4-C ) :   1.5295 B(  3-C ,  5-H ) :   0.9897 B(  4-C , 20-C ) :   1.0412
B(  6-C ,  7-H ) :   0.9234 B(  6-C ,  8-H ) :   0.9426 B(  6-C ,  9-C ) :   1.0770
B(  9-C , 10-H ) :   0.9504 B(  9-C , 11-H ) :   0.9602 B(  9-C , 12-C ) :   1.0901
B( 12-C , 13-H ) :   0.9728 B( 12-C , 14-H ) :   0.9733 B( 12-C , 15-H ) :   0.9735
B( 16-S , 17-C ) :   1.1578 B( 16-S , 20-C ) :   1.1195 B( 17-C , 18-C ) :   1.6228
B( 17-C , 33-H ) :   0.9608 B( 18-C , 19-C ) :   1.2420 B( 18-C , 21-H ) :   0.9889
B( 19-C , 20-C ) :   1.5845 B( 19-C , 22-C ) :   1.0490 B( 22-C , 23-H ) :   0.9289
B( 22-C , 24-H ) :   0.9158 B( 22-C , 25-C ) :   1.0366 B( 25-C , 26-H ) :   0.9511
B( 25-C , 27-H ) :   0.9651 B( 25-C , 28-C ) :   1.0865 B( 28-C , 29-H ) :   0.9716
B( 28-C , 30-H ) :   0.9778 B( 28-C , 31-H ) :   0.9688

Dispersion correction           -0.013838293
FINAL SINGLE POINT ENERGY     -1339.875556048927

DIPOLE MOMENT
-------------
                                X             Y             Z
Electronic contribution:     21.15495       4.54469      20.61678
Nuclear contribution   :    -21.69038      -4.38718     -21.03380
                        -----------------------------------------
Total Dipole Moment    :     -0.53543       0.15751      -0.41701
                        -----------------------------------------
Magnitude (a.u.)       :      0.69670
Magnitude (Debye)      :      1.77088

Rotational constants in cm-1:     0.018341     0.008465     0.006842
Rotational constants in MHz :   549.860542   253.760420   205.124525

                             ****ORCA TERMINATED NORMALLY****
TOTAL RUN TIME: 0 days 0 hours 0 minutes 21 seconds 779 msec
