                         Program Version 4.2.1 -  RELEASE  -
|  1> ! wB97X-D3 SP def2-SVP
|  2> %pal
|  3> nprocs 24
|  4> end
|  5>
|  6> * xyz 0 1
|  7> S 	 -80.5895 	 -11.3835 	 -59.5245
|  8> C 	 -80.4943 	 -10.1874 	 -60.7978
|  9> C 	 -81.3419 	 -9.12286 	 -60.6438
| 10> C 	 -82.0306 	 -9.12058 	 -59.4034
| 11> C 	 -81.8553 	 -10.3636 	 -58.7832
| 12> H 	 -82.6639 	 -8.34225 	 -59.0187
| 13> C 	 -81.405 	 -7.98458 	 -61.7274
| 14> H 	 -80.4171 	 -7.72894 	 -62.0439
| 15> H 	 -81.9414 	 -7.09835 	 -61.3935
| 16> C 	 -82.0822 	 -8.65734 	 -62.9632
| 17> H 	 -81.5272 	 -9.54831 	 -63.2231
| 18> H 	 -83.0964 	 -8.98379 	 -62.8115
| 19> C 	 -82.2226 	 -7.68613 	 -64.1861
| 20> H 	 -82.9697 	 -6.92674 	 -63.8682
| 21> H 	 -81.2327 	 -7.14624 	 -64.4106
| 22> H 	 -82.6859 	 -8.16256 	 -65.0116
| 23> S 	 -81.4315 	 -11.254 	 -56.3118
| 24> C 	 -82.75 	 -11.2962 	 -55.1984
| 25> C 	 -83.9283 	 -10.8635 	 -55.7541
| 26> C 	 -83.8103 	 -10.5473 	 -57.1392
| 27> C 	 -82.4984 	 -10.6995 	 -57.5485
| 28> H 	 -84.8143 	 -10.7513 	 -55.1296
| 29> C 	 -85.0448 	 -10.0957 	 -57.9354
| 30> H 	 -84.7413 	 -10.0872 	 -59.0164
| 31> H 	 -85.2809 	 -9.00015 	 -57.6677
| 32> C 	 -86.3487 	 -10.9167 	 -57.821
| 33> H 	 -87.2694 	 -10.4222 	 -57.974
| 34> H 	 -86.3914 	 -11.3364 	 -56.8355
| 35> C 	 -86.4074 	 -12.2014 	 -58.6888
| 36> H 	 -86.4847 	 -12.1245 	 -59.8362
| 37> H 	 -87.328 	 -12.7139 	 -58.369
| 38> H 	 -85.4587 	 -12.756 	 -58.4916
| 39> H 	 -80.0054 	 -10.4521 	 -61.7376
| 40> H 	 -82.5923 	 -11.5723 	 -54.1474
| 41> *
| 42>
| 43>                          ****END OF INPUT****

CARTESIAN COORDINATES (ANGSTROEM)
---------------------------------
  S    -80.589500  -11.383500  -59.524500
  C    -80.494300  -10.187400  -60.797800
  C    -81.341900   -9.122860  -60.643800
  C    -82.030600   -9.120580  -59.403400
  C    -81.855300  -10.363600  -58.783200
  H    -82.663900   -8.342250  -59.018700
  C    -81.405000   -7.984580  -61.727400
  H    -80.417100   -7.728940  -62.043900
  H    -81.941400   -7.098350  -61.393500
  C    -82.082200   -8.657340  -62.963200
  H    -81.527200   -9.548310  -63.223100
  H    -83.096400   -8.983790  -62.811500
  C    -82.222600   -7.686130  -64.186100
  H    -82.969700   -6.926740  -63.868200
  H    -81.232700   -7.146240  -64.410600
  H    -82.685900   -8.162560  -65.011600
  S    -81.431500  -11.254000  -56.311800
  C    -82.750000  -11.296200  -55.198400
  C    -83.928300  -10.863500  -55.754100
  C    -83.810300  -10.547300  -57.139200
  C    -82.498400  -10.699500  -57.548500
  H    -84.814300  -10.751300  -55.129600
  C    -85.044800  -10.095700  -57.935400
  H    -84.741300  -10.087200  -59.016400
  H    -85.280900   -9.000150  -57.667700
  C    -86.348700  -10.916700  -57.821000
  H    -87.269400  -10.422200  -57.974000
  H    -86.391400  -11.336400  -56.835500
  C    -86.407400  -12.201400  -58.688800
  H    -86.484700  -12.124500  -59.836200
  H    -87.328000  -12.713900  -58.369000
  H    -85.458700  -12.756000  -58.491600
  H    -80.005400  -10.452100  -61.737600
  H    -82.592300  -11.572300  -54.147400

 Total Charge           Charge          ....    0
 Multiplicity           Mult            ....    1
 Number of Electrons    NEL             ....  134
 Basis Dimension        Dim             ....  322

ORBITAL ENERGIES
----------------

  NO   OCC          E(Eh)            E(eV)
   0   2.0000     -88.969684     -2420.9882
   1   2.0000     -88.964198     -2420.8389
   2   2.0000     -10.329601      -281.0827
   3   2.0000     -10.320396      -280.8323
   4   2.0000     -10.313903      -280.6556
   5   2.0000     -10.309075      -280.5242
   6   2.0000     -10.304643      -280.4036
   7   2.0000     -10.303679      -280.3773
   8   2.0000     -10.301675      -280.3228
   9   2.0000     -10.296807      -280.1904
  10   2.0000     -10.295845      -280.1642
  11   2.0000     -10.292121      -280.0628
  12   2.0000     -10.285864      -279.8926
  13   2.0000     -10.283563      -279.8300
  14   2.0000     -10.283147      -279.8187
  15   2.0000     -10.283019      -279.8152
  16   2.0000      -8.083825      -219.9721
  17   2.0000      -8.080218      -219.8739
  18   2.0000      -6.042231      -164.4175
  19   2.0000      -6.038631      -164.3195
  20   2.0000      -6.038582      -164.3182
  21   2.0000      -6.034593      -164.2096
  22   2.0000      -6.034539      -164.2081
  23   2.0000      -6.031007      -164.1120
  24   2.0000      -1.011180       -27.5156
  25   2.0000      -0.984130       -26.7795
  26   2.0000      -0.906249       -24.6603
  27   2.0000      -0.903830       -24.5945
  28   2.0000      -0.868729       -23.6393
  29   2.0000      -0.854148       -23.2425
  30   2.0000      -0.845406       -23.0047
  31   2.0000      -0.809400       -22.0249
  32   2.0000      -0.778938       -21.1960
  33   2.0000      -0.765980       -20.8434
  34   2.0000      -0.703790       -19.1511
  35   2.0000      -0.698247       -19.0003
  36   2.0000      -0.690878       -18.7997
  37   2.0000      -0.661025       -17.9874
  38   2.0000      -0.638942       -17.3865
  39   2.0000      -0.618465       -16.8293
  40   2.0000      -0.597441       -16.2572
  41   2.0000      -0.568245       -15.4627
  42   2.0000      -0.557419       -15.1681
  43   2.0000      -0.553031       -15.0487
  44   2.0000      -0.529105       -14.3977
  45   2.0000      -0.522407       -14.2154
  46   2.0000      -0.515941       -14.0395
  47   2.0000      -0.511884       -13.9291
  48   2.0000      -0.504965       -13.7408
  49   2.0000      -0.490621       -13.3505
  50   2.0000      -0.487575       -13.2676
  51   2.0000      -0.475923       -12.9505
  52   2.0000      -0.473329       -12.8799
  53   2.0000      -0.463705       -12.6181
  54   2.0000      -0.458037       -12.4638
  55   2.0000      -0.450275       -12.2526
  56   2.0000      -0.448558       -12.2059
  57   2.0000      -0.436628       -11.8813
  58   2.0000      -0.433532       -11.7970
  59   2.0000      -0.427656       -11.6371
  60   2.0000      -0.420100       -11.4315
  61   2.0000      -0.412737       -11.2312
  62   2.0000      -0.410460       -11.1692
  63   2.0000      -0.349315        -9.5053
  64   2.0000      -0.334295        -9.0966
  65   2.0000      -0.332126        -9.0376
  66   2.0000      -0.284608        -7.7446
  67   0.0000       0.027468         0.7474
  68   0.0000       0.072662         1.9772
  69   0.0000       0.102620         2.7924
  70   0.0000       0.122970         3.3462
  71   0.0000       0.136288         3.7086

MULLIKEN ATOMIC CHARGES
-----------------------
   0 S :    0.111994
   1 C :   -0.134691
   2 C :   -0.081726
   3 C :    0.025223
   4 C :   -0.157984
   5 H :    0.020009
   6 C :    0.110915
   7 H :    0.026255
   8 H :    0.023243
   9 C :   -0.111102
  10 H :    0.025266
  11 H :    0.025891
  12 C :   -0.051439
  13 H :    0.027224
  14 H :    0.042478
  15 H :    0.032628
  16 S :    0.112885
  17 C :   -0.100453
  18 C :   -0.047211
  19 C :   -0.026465
  20 C :   -0.164430
  21 H :    0.027113
  22 C :    0.027096
  23 H :    0.037848
  24 H :    0.052625
  25 C :   -0.030073
  26 H :    0.022041
  27 H :    0.018679
  28 C :   -0.114205
  29 H :    0.041845
  30 H :    0.038683
  31 H :    0.050149
  32 H :    0.058244
  33 H :    0.061445
Sum of atomic charges:    0.0000000

LOEWDIN ATOMIC CHARGES
----------------------
   0 S :    0.388601
   1 C :   -0.205345
   2 C :   -0.054800
   3 C :   -0.054504
   4 C :   -0.178037
   5 H :    0.034165
   6 C :   -0.015728
   7 H :    0.027471
   8 H :    0.027082
   9 C :   -0.037806
  10 H :    0.017500
  11 H :    0.022270
  12 C :   -0.072218
  13 H :    0.026494
  14 H :    0.030434
  15 H :    0.019766
  16 S :    0.423425
  17 C :   -0.194150
  18 C :   -0.072895
  19 C :   -0.062767
  20 C :   -0.205381
  21 H :    0.033664
  22 C :   -0.040315
  23 H :    0.034083
  24 H :    0.041869
  25 C :   -0.041117
  26 H :    0.020092
  27 H :    0.022791
  28 C :   -0.075473
  29 H :    0.027350
  30 H :    0.026953
  31 H :    0.030647
  32 H :    0.025418
  33 H :    0.030462

  Mayer bond orders larger than 0.100000
B(  0-S ,  1-C ) :   1.1202 B(  0-S ,  4-C ) :   1.1527 B(  1-C ,  2-C ) :   1.6308
B(  1-C , 32-H ) :   0.9576 B(  2-C ,  3-C ) :   1.2409 B(  2-C ,  6-C ) :   1.0127
B(  3-C ,  4-C ) :   1.5514 B(  3-C ,  5-H ) :   0.9962 B(  4-C , 20-C ) :   1.0589
B(  6-C ,  7-H ) :   0.9427 B(  6-C ,  8-H ) :   0.9506 B(  6-C ,  9-C ) :   1.0488
B(  9-C , 10-H ) :   0.9631 B(  9-C , 11-H ) :   0.9572 B(  9-C , 12-C ) :   1.0778
B( 12-C , 13-H ) :   0.9751 B( 12-C , 14-H ) :   0.9747 B( 12-C , 15-H ) :   0.9750
B( 16-S , 17-C ) :   1.1527 B( 16-S , 20-C ) :   1.1582 B( 17-C , 18-C ) :   1.6154
B( 17-C , 33-H ) :   0.9665 B( 18-C , 19-C ) :   1.2260 B( 18-C , 21-H ) :   0.9872
B( 19-C , 20-C ) :   1.5947 B( 19-C , 22-C ) :   1.0399 B( 22-C , 23-H ) :   0.9387
B( 22-C , 24-H ) :   0.9349 B( 22-C , 25-C ) :   1.0536 B( 25-C , 26-H ) :   0.9572
B( 25-C , 27-H ) :   0.9581 B( 25-C , 28-C ) :   1.0711 B( 28-C , 29-H ) :   0.9750
B( 28-C , 30-H ) :   0.9750 B( 28-C , 31-H ) :   0.9784

Dispersion correction           -0.013806188
FINAL SINGLE POINT ENERGY     -1339.874372690249

DIPOLE MOMENT
-------------
                                X             Y             Z
Electronic contribution:     19.22991      -9.39459      19.01231
Nuclear contribution   :    -19.74007       9.77024     -19.15978
                        -----------------------------------------
Total Dipole Moment    :     -0.51015       0.37565      -0.14747
                        -----------------------------------------
Magnitude (a.u.)       :      0.65047
Magnitude (Debye)      :      1.65337

Rotational constants in cm-1:     0.019018     0.008260     0.006467
Rotational constants in MHz :   570.132921   247.616150   193.887409

                             ****ORCA TERMINATED NORMALLY****
TOTAL RUN TIME: 0 days 0 hours 0 minutes 20 seconds 72 msec
