                         Program Version 4.2.1 -  RELEASE  -
|  1> ! wB97X-D3 SP def2-SVP
|  2> %pal
|  3> nprocs 24
|  4> end
|  5>
|  6> * xyz 0 1
|  7> S 	 -98.2622 	 48.8502 	 -94.7384
|  8> C 	 -98.8814 	 47.4202 	 -94.1526
|  9> C 	 -98.4574 	 46.3633 	 -94.9614
| 10> C 	 -97.4856 	 46.7517 	 -95.9224
| 11> C 	 -97.2438 	 48.1002 	 -95.9339
| 12> H 	 -96.9746 	 46.0685 	 -96.5737
| 13> C 	 -98.7648 	 44.9267 	 -94.7041
| 14> H 	 -99.264 	 44.3978 	 -95.5716
| 15> H 	 -99.5392 	 44.8801 	 -94.0244
| 16> C 	 -97.6219 	 44.1652 	 -94.0904
| 17> H 	 -96.7729 	 44.2898 	 -94.7862
| 18> H 	 -97.2936 	 44.5884 	 -93.1876
| 19> C 	 -98.0449 	 42.6831 	 -93.8464
| 20> H 	 -97.3092 	 42.0741 	 -93.3573
| 21> H 	 -98.8581 	 42.6828 	 -93.149
| 22> H 	 -98.3448 	 42.2524 	 -94.8081
| 23> S 	 -95.6649 	 50.3329 	 -96.1498
| 24> C 	 -94.6432 	 50.5513 	 -97.5423
| 25> C 	 -94.7085 	 49.5344 	 -98.4198
| 26> C 	 -95.7707 	 48.5781 	 -98.0541
| 27> C 	 -96.4156 	 48.8836 	 -96.8402
| 28> H 	 -94.1858 	 49.5808 	 -99.392
| 29> C 	 -96.1609 	 47.4466 	 -98.9959
| 30> H 	 -95.9873 	 46.4601 	 -98.5411
| 31> H 	 -95.514 	 47.5555 	 -99.8814
| 32> C 	 -97.6323 	 47.4757 	 -99.5472
| 33> H 	 -97.8144 	 48.3864 	 -100.147
| 34> H 	 -98.2214 	 47.58 	 -98.6254
| 35> C 	 -98.1626 	 46.1619 	 -100.226
| 36> H 	 -99.246 	 46.1411 	 -100.216
| 37> H 	 -97.6261 	 45.3551 	 -99.6906
| 38> H 	 -97.8091 	 46.166 	 -101.214
| 39> H 	 -99.5875 	 47.3571 	 -93.388
| 40> H 	 -94.0073 	 51.4008 	 -97.7703
| 41> *
| 42>
| 43>                          ****END OF INPUT****

CARTESIAN COORDINATES (ANGSTROEM)
---------------------------------
  S    -98.262200   48.850200  -94.738400
  C    -98.881400   47.420200  -94.152600
  C    -98.457400   46.363300  -94.961400
  C    -97.485600   46.751700  -95.922400
  C    -97.243800   48.100200  -95.933900
  H    -96.974600   46.068500  -96.573700
  C    -98.764800   44.926700  -94.704100
  H    -99.264000   44.397800  -95.571600
  H    -99.539200   44.880100  -94.024400
  C    -97.621900   44.165200  -94.090400
  H    -96.772900   44.289800  -94.786200
  H    -97.293600   44.588400  -93.187600
  C    -98.044900   42.683100  -93.846400
  H    -97.309200   42.074100  -93.357300
  H    -98.858100   42.682800  -93.149000
  H    -98.344800   42.252400  -94.808100
  S    -95.664900   50.332900  -96.149800
  C    -94.643200   50.551300  -97.542300
  C    -94.708500   49.534400  -98.419800
  C    -95.770700   48.578100  -98.054100
  C    -96.415600   48.883600  -96.840200
  H    -94.185800   49.580800  -99.392000
  C    -96.160900   47.446600  -98.995900
  H    -95.987300   46.460100  -98.541100
  H    -95.514000   47.555500  -99.881400
  C    -97.632300   47.475700  -99.547200
  H    -97.814400   48.386400  -100.147000
  H    -98.221400   47.580000  -98.625400
  C    -98.162600   46.161900  -100.226000
  H    -99.246000   46.141100  -100.216000
  H    -97.626100   45.355100  -99.690600
  H    -97.809100   46.166000  -101.214000
  H    -99.587500   47.357100  -93.388000
  H    -94.007300   51.400800  -97.770300

 Total Charge           Charge          ....    0
 Multiplicity           Mult            ....    1
 Number of Electrons    NEL             ....  134
 Basis Dimension        Dim             ....  322

ORBITAL ENERGIES
----------------

  NO   OCC          E(Eh)            E(eV)
   0   2.0000     -88.964651     -2420.8512
   1   2.0000     -88.964081     -2420.8357
   2   2.0000     -10.331962      -281.1470
   3   2.0000     -10.329565      -281.0818
   4   2.0000     -10.315780      -280.7066
   5   2.0000     -10.311702      -280.5957
   6   2.0000     -10.308550      -280.5099
   7   2.0000     -10.298074      -280.2248
   8   2.0000     -10.297510      -280.2095
   9   2.0000     -10.296655      -280.1862
  10   2.0000     -10.291262      -280.0395
  11   2.0000     -10.286258      -279.9033
  12   2.0000     -10.283049      -279.8160
  13   2.0000     -10.281987      -279.7871
  14   2.0000     -10.278116      -279.6817
  15   2.0000     -10.277344      -279.6607
  16   2.0000      -8.081310      -219.9036
  17   2.0000      -8.078897      -219.8380
  18   2.0000      -6.039650      -164.3472
  19   2.0000      -6.037566      -164.2905
  20   2.0000      -6.035350      -164.2302
  21   2.0000      -6.033370      -164.1763
  22   2.0000      -6.032335      -164.1482
  23   2.0000      -6.029485      -164.0706
  24   2.0000      -1.015162       -27.6240
  25   2.0000      -0.988134       -26.8885
  26   2.0000      -0.918575       -24.9957
  27   2.0000      -0.900637       -24.5076
  28   2.0000      -0.876131       -23.8407
  29   2.0000      -0.853364       -23.2212
  30   2.0000      -0.843436       -22.9511
  31   2.0000      -0.821627       -22.3576
  32   2.0000      -0.780983       -21.2516
  33   2.0000      -0.769200       -20.9310
  34   2.0000      -0.712887       -19.3987
  35   2.0000      -0.701994       -19.1022
  36   2.0000      -0.686323       -18.6758
  37   2.0000      -0.665415       -18.1069
  38   2.0000      -0.645054       -17.5528
  39   2.0000      -0.630922       -17.1683
  40   2.0000      -0.592497       -16.1227
  41   2.0000      -0.574322       -15.6281
  42   2.0000      -0.566127       -15.4051
  43   2.0000      -0.558078       -15.1861
  44   2.0000      -0.527111       -14.3434
  45   2.0000      -0.521991       -14.2041
  46   2.0000      -0.520479       -14.1630
  47   2.0000      -0.512989       -13.9591
  48   2.0000      -0.507753       -13.8167
  49   2.0000      -0.503073       -13.6893
  50   2.0000      -0.496575       -13.5125
  51   2.0000      -0.489726       -13.3261
  52   2.0000      -0.471912       -12.8414
  53   2.0000      -0.463753       -12.6194
  54   2.0000      -0.461731       -12.5643
  55   2.0000      -0.449012       -12.2182
  56   2.0000      -0.446061       -12.1379
  57   2.0000      -0.439299       -11.9539
  58   2.0000      -0.433691       -11.8013
  59   2.0000      -0.423769       -11.5313
  60   2.0000      -0.422696       -11.5021
  61   2.0000      -0.411798       -11.2056
  62   2.0000      -0.405286       -11.0284
  63   2.0000      -0.363560        -9.8930
  64   2.0000      -0.334061        -9.0903
  65   2.0000      -0.326257        -8.8779
  66   2.0000      -0.286699        -7.8015
  67   0.0000       0.021783         0.5927
  68   0.0000       0.086590         2.3562
  69   0.0000       0.107916         2.9365
  70   0.0000       0.114891         3.1263
  71   0.0000       0.137355         3.7376

MULLIKEN ATOMIC CHARGES
-----------------------
   0 S :    0.114447
   1 C :   -0.072028
   2 C :   -0.104505
   3 C :    0.006490
   4 C :   -0.109980
   5 H :   -0.002355
   6 C :    0.073445
   7 H :    0.032611
   8 H :   -0.024585
   9 C :   -0.054415
  10 H :    0.023926
  11 H :    0.015553
  12 C :   -0.023744
  13 H :    0.031167
  14 H :    0.019858
  15 H :    0.031826
  16 S :    0.087883
  17 C :   -0.072429
  18 C :   -0.032436
  19 C :   -0.089659
  20 C :   -0.095711
  21 H :    0.035365
  22 C :    0.040936
  23 H :    0.033311
  24 H :    0.017708
  25 C :   -0.121989
  26 H :    0.036060
  27 H :    0.036722
  28 C :   -0.013368
  29 H :    0.047782
  30 H :    0.025716
  31 H :    0.022593
  32 H :    0.027713
  33 H :    0.056088
Sum of atomic charges:    0.0000000

LOEWDIN ATOMIC CHARGES
----------------------
   0 S :    0.446399
   1 C :   -0.209482
   2 C :   -0.061344
   3 C :   -0.062981
   4 C :   -0.197266
   5 H :    0.027157
   6 C :   -0.038804
   7 H :    0.037202
   8 H :    0.014383
   9 C :   -0.030575
  10 H :    0.021726
  11 H :    0.018214
  12 C :   -0.058058
  13 H :    0.023425
  14 H :    0.021600
  15 H :    0.026306
  16 S :    0.393742
  17 C :   -0.182494
  18 C :   -0.077282
  19 C :   -0.051690
  20 C :   -0.190329
  21 H :    0.039816
  22 C :   -0.038005
  23 H :    0.025944
  24 H :    0.027926
  25 C :   -0.044267
  26 H :    0.024629
  27 H :    0.023072
  28 C :   -0.057309
  29 H :    0.030509
  30 H :    0.027979
  31 H :    0.016510
  32 H :    0.018997
  33 H :    0.034348

  Mayer bond orders larger than 0.100000
B(  0-S ,  1-C ) :   1.1678 B(  0-S ,  4-C ) :   1.1688 B(  1-C ,  2-C ) :   1.5557
B(  1-C , 32-H ) :   0.9789 B(  2-C ,  3-C ) :   1.2745 B(  2-C ,  6-C ) :   1.0482
B(  3-C ,  4-C ) :   1.5396 B(  3-C ,  5-H ) :   0.9984 B(  4-C , 20-C ) :   1.0517
B(  6-C ,  7-H ) :   0.9329 B(  6-C ,  8-H ) :   0.9269 B(  6-C ,  9-C ) :   1.0584
B(  9-C , 10-H ) :   0.9594 B(  9-C , 11-H ) :   0.9517 B(  9-C , 12-C ) :   1.0752
B( 12-C , 13-H ) :   0.9748 B( 12-C , 14-H ) :   0.9748 B( 12-C , 15-H ) :   0.9764
B( 16-S , 17-C ) :   1.1460 B( 16-S , 20-C ) :   1.1151 B( 17-C , 18-C ) :   1.6535
B( 17-C , 33-H ) :   0.9587 B( 18-C , 19-C ) :   1.2306 B( 18-C , 21-H ) :   0.9788
B( 19-C , 20-C ) :   1.6008 B( 19-C , 22-C ) :   1.0497 B( 22-C , 23-H ) :   0.9307
B( 22-C , 24-H ) :   0.9355 B( 22-C , 25-C ) :   1.0573 B( 25-C , 26-H ) :   0.9571
B( 25-C , 27-H ) :   0.9602 B( 25-C , 28-C ) :   1.0678 B( 28-C , 29-H ) :   0.9758
B( 28-C , 30-H ) :   0.9740 B( 28-C , 31-H ) :   0.9786

Dispersion correction           -0.014136742
FINAL SINGLE POINT ENERGY     -1339.878521550204

DIPOLE MOMENT
-------------
                                X             Y             Z
Electronic contribution:      5.79044      28.01460       8.89532
Nuclear contribution   :     -5.82269     -28.50811      -9.18053
                        -----------------------------------------
Total Dipole Moment    :     -0.03225      -0.49350      -0.28521
                        -----------------------------------------
Magnitude (a.u.)       :      0.57091
Magnitude (Debye)      :      1.45113

Rotational constants in cm-1:     0.017908     0.008839     0.006911
Rotational constants in MHz :   536.879121   264.978540   207.197901

                             ****ORCA TERMINATED NORMALLY****
TOTAL RUN TIME: 0 days 0 hours 0 minutes 21 seconds 849 msec
