                         Program Version 4.2.1 -  RELEASE  -
|  1> ! wB97X-D3 SP def2-SVP
|  2> %pal
|  3> nprocs 24
|  4> end
|  5>
|  6> * xyz 0 1
|  7> S 	 -60.9733 	 5.56527 	 -13.186
|  8> C 	 -59.7236 	 5.47271 	 -11.9079
|  9> C 	 -58.519 	 6.01126 	 -12.363
| 10> C 	 -58.6347 	 6.70692 	 -13.658
| 11> C 	 -59.8826 	 6.55683 	 -14.1887
| 12> H 	 -57.8664 	 7.25688 	 -14.222
| 13> C 	 -57.2418 	 5.98406 	 -11.5988
| 14> H 	 -57.3607 	 5.65084 	 -10.5725
| 15> H 	 -56.8108 	 6.96914 	 -11.3725
| 16> C 	 -55.9965 	 5.17695 	 -12.0423
| 17> H 	 -56.1472 	 4.13743 	 -11.903
| 18> H 	 -55.7538 	 5.40951 	 -13.105
| 19> C 	 -54.6281 	 5.48644 	 -11.3937
| 20> H 	 -54.3765 	 6.5016 	 -11.7771
| 21> H 	 -54.7465 	 5.37815 	 -10.2913
| 22> H 	 -53.87 	 4.78999 	 -11.7247
| 23> S 	 -59.3115 	 8.26585 	 -16.2326
| 24> C 	 -60.0941 	 8.09744 	 -17.7999
| 25> C 	 -60.8709 	 6.95597 	 -17.8122
| 26> C 	 -60.917 	 6.21925 	 -16.5735
| 27> C 	 -60.2161 	 6.91277 	 -15.534
| 28> H 	 -61.3792 	 6.73769 	 -18.6908
| 29> C 	 -61.5008 	 4.84503 	 -16.5003
| 30> H 	 -61.78 	 4.67177 	 -17.5499
| 31> H 	 -62.3732 	 4.8444 	 -15.8509
| 32> C 	 -60.6018 	 3.66314 	 -16.2022
| 33> H 	 -61.1549 	 2.70701 	 -16.0829
| 34> H 	 -60.18 	 3.83854 	 -15.1846
| 35> C 	 -59.4423 	 3.41656 	 -17.1467
| 36> H 	 -59.3608 	 4.33038 	 -17.7679
| 37> H 	 -59.5834 	 2.53288 	 -17.7583
| 38> H 	 -58.5334 	 3.30709 	 -16.5636
| 39> H 	 -59.8447 	 4.9535 	 -10.9632
| 40> H 	 -60.2269 	 8.89437 	 -18.5239
| 41> *
| 42>
| 43>                          ****END OF INPUT****

CARTESIAN COORDINATES (ANGSTROEM)
---------------------------------
  S    -60.973300    5.565270  -13.186000
  C    -59.723600    5.472710  -11.907900
  C    -58.519000    6.011260  -12.363000
  C    -58.634700    6.706920  -13.658000
  C    -59.882600    6.556830  -14.188700
  H    -57.866400    7.256880  -14.222000
  C    -57.241800    5.984060  -11.598800
  H    -57.360700    5.650840  -10.572500
  H    -56.810800    6.969140  -11.372500
  C    -55.996500    5.176950  -12.042300
  H    -56.147200    4.137430  -11.903000
  H    -55.753800    5.409510  -13.105000
  C    -54.628100    5.486440  -11.393700
  H    -54.376500    6.501600  -11.777100
  H    -54.746500    5.378150  -10.291300
  H    -53.870000    4.789990  -11.724700
  S    -59.311500    8.265850  -16.232600
  C    -60.094100    8.097440  -17.799900
  C    -60.870900    6.955970  -17.812200
  C    -60.917000    6.219250  -16.573500
  C    -60.216100    6.912770  -15.534000
  H    -61.379200    6.737690  -18.690800
  C    -61.500800    4.845030  -16.500300
  H    -61.780000    4.671770  -17.549900
  H    -62.373200    4.844400  -15.850900
  C    -60.601800    3.663140  -16.202200
  H    -61.154900    2.707010  -16.082900
  H    -60.180000    3.838540  -15.184600
  C    -59.442300    3.416560  -17.146700
  H    -59.360800    4.330380  -17.767900
  H    -59.583400    2.532880  -17.758300
  H    -58.533400    3.307090  -16.563600
  H    -59.844700    4.953500  -10.963200
  H    -60.226900    8.894370  -18.523900

 Total Charge           Charge          ....    0
 Multiplicity           Mult            ....    1
 Number of Electrons    NEL             ....  134
 Basis Dimension        Dim             ....  322

ORBITAL ENERGIES
----------------

  NO   OCC          E(Eh)            E(eV)
   0   2.0000     -88.971985     -2421.0508
   1   2.0000     -88.967370     -2420.9252
   2   2.0000     -10.334269      -281.2097
   3   2.0000     -10.333774      -281.1963
   4   2.0000     -10.324411      -280.9415
   5   2.0000     -10.318543      -280.7818
   6   2.0000     -10.314179      -280.6631
   7   2.0000     -10.309600      -280.5385
   8   2.0000     -10.301878      -280.3283
   9   2.0000     -10.293386      -280.0973
  10   2.0000     -10.292537      -280.0742
  11   2.0000     -10.288787      -279.9721
  12   2.0000     -10.285888      -279.8932
  13   2.0000     -10.285440      -279.8810
  14   2.0000     -10.278189      -279.6837
  15   2.0000     -10.268420      -279.4179
  16   2.0000      -8.084977      -220.0034
  17   2.0000      -8.081521      -219.9094
  18   2.0000      -6.043764      -164.4592
  19   2.0000      -6.040179      -164.3616
  20   2.0000      -6.039846      -164.3526
  21   2.0000      -6.036074      -164.2499
  22   2.0000      -6.035418      -164.2321
  23   2.0000      -6.032215      -164.1449
  24   2.0000      -1.004889       -27.3444
  25   2.0000      -0.977899       -26.6100
  26   2.0000      -0.911431       -24.8013
  27   2.0000      -0.910388       -24.7729
  28   2.0000      -0.876621       -23.8541
  29   2.0000      -0.852662       -23.2021
  30   2.0000      -0.843665       -22.9573
  31   2.0000      -0.816041       -22.2056
  32   2.0000      -0.784911       -21.3585
  33   2.0000      -0.771105       -20.9828
  34   2.0000      -0.711068       -19.3491
  35   2.0000      -0.692158       -18.8346
  36   2.0000      -0.683407       -18.5964
  37   2.0000      -0.670411       -18.2428
  38   2.0000      -0.637805       -17.3556
  39   2.0000      -0.620734       -16.8910
  40   2.0000      -0.585674       -15.9370
  41   2.0000      -0.573513       -15.6061
  42   2.0000      -0.568145       -15.4600
  43   2.0000      -0.560328       -15.2473
  44   2.0000      -0.551753       -15.0140
  45   2.0000      -0.523192       -14.2368
  46   2.0000      -0.515478       -14.0269
  47   2.0000      -0.514334       -13.9957
  48   2.0000      -0.512044       -13.9334
  49   2.0000      -0.500642       -13.6232
  50   2.0000      -0.481539       -13.1033
  51   2.0000      -0.477448       -12.9920
  52   2.0000      -0.475531       -12.9399
  53   2.0000      -0.464762       -12.6468
  54   2.0000      -0.460284       -12.5250
  55   2.0000      -0.455363       -12.3911
  56   2.0000      -0.445231       -12.1154
  57   2.0000      -0.437061       -11.8930
  58   2.0000      -0.425226       -11.5710
  59   2.0000      -0.419879       -11.4255
  60   2.0000      -0.417127       -11.3506
  61   2.0000      -0.409617       -11.1463
  62   2.0000      -0.393939       -10.7196
  63   2.0000      -0.363871        -9.9014
  64   2.0000      -0.331419        -9.0184
  65   2.0000      -0.329335        -8.9616
  66   2.0000      -0.283080        -7.7030
  67   0.0000       0.013146         0.3577
  68   0.0000       0.071077         1.9341
  69   0.0000       0.094990         2.5848
  70   0.0000       0.110501         3.0069
  71   0.0000       0.130971         3.5639

MULLIKEN ATOMIC CHARGES
-----------------------
   0 S :    0.090735
   1 C :   -0.110649
   2 C :   -0.033264
   3 C :   -0.010329
   4 C :   -0.114317
   5 H :    0.041392
   6 C :    0.053553
   7 H :    0.002456
   8 H :    0.019743
   9 C :   -0.097515
  10 H :    0.024895
  11 H :    0.026924
  12 C :   -0.074955
  13 H :    0.040597
  14 H :    0.038487
  15 H :    0.042845
  16 S :    0.075460
  17 C :   -0.087022
  18 C :   -0.018706
  19 C :   -0.076010
  20 C :   -0.115213
  21 H :   -0.000456
  22 C :    0.066312
  23 H :    0.014293
  24 H :    0.043677
  25 C :   -0.091782
  26 H :    0.029724
  27 H :    0.033074
  28 C :   -0.037863
  29 H :    0.033767
  30 H :    0.033770
  31 H :    0.033013
  32 H :    0.055151
  33 H :    0.068214
Sum of atomic charges:    0.0000000

LOEWDIN ATOMIC CHARGES
----------------------
   0 S :    0.385496
   1 C :   -0.180935
   2 C :   -0.050646
   3 C :   -0.064431
   4 C :   -0.176723
   5 H :    0.033070
   6 C :   -0.046626
   7 H :    0.028505
   8 H :    0.033022
   9 C :   -0.042384
  10 H :    0.014259
  11 H :    0.023484
  12 C :   -0.064456
  13 H :    0.028527
  14 H :    0.025044
  15 H :    0.028450
  16 S :    0.398558
  17 C :   -0.188486
  18 C :   -0.061073
  19 C :   -0.060598
  20 C :   -0.178707
  21 H :    0.020895
  22 C :   -0.042484
  23 H :    0.032807
  24 H :    0.032462
  25 C :   -0.054104
  26 H :    0.027924
  27 H :    0.016254
  28 C :   -0.067287
  29 H :    0.029589
  30 H :    0.023852
  31 H :    0.029769
  32 H :    0.031906
  33 H :    0.035067

  Mayer bond orders larger than 0.100000
B(  0-S ,  1-C ) :   1.1021 B(  0-S ,  4-C ) :   1.1195 B(  1-C ,  2-C ) :   1.6480
B(  1-C , 32-H ) :   0.9669 B(  2-C ,  3-C ) :   1.1888 B(  2-C ,  6-C ) :   1.0461
B(  3-C ,  4-C ) :   1.6046 B(  3-C ,  5-H ) :   0.9757 B(  4-C , 20-C ) :   1.0836
B(  6-C ,  7-H ) :   0.9331 B(  6-C ,  8-H ) :   0.9394 B(  6-C ,  9-C ) :   1.0510
B(  9-C , 10-H ) :   0.9597 B(  9-C , 11-H ) :   0.9605 B(  9-C , 12-C ) :   1.0786
B( 12-C , 13-H ) :   0.9769 B( 12-C , 14-H ) :   0.9765 B( 12-C , 15-H ) :   0.9737
B( 16-S , 17-C ) :   1.1416 B( 16-S , 20-C ) :   1.1498 B( 17-C , 18-C ) :   1.6145
B( 17-C , 33-H ) :   0.9615 B( 18-C , 19-C ) :   1.2563 B( 18-C , 21-H ) :   0.9939
B( 19-C , 20-C ) :   1.5148 B( 19-C , 22-C ) :   1.0406 B( 22-C , 23-H ) :   0.9323
B( 22-C , 24-H ) :   0.9299 B( 22-C , 25-C ) :   1.0797 B( 25-C , 26-H ) :   0.9560
B( 25-C , 27-H ) :   0.9570 B( 25-C , 28-C ) :   1.0581 B( 28-C , 29-H ) :   0.9818
B( 28-C , 30-H ) :   0.9768 B( 28-C , 31-H ) :   0.9759

Dispersion correction           -0.014659538
FINAL SINGLE POINT ENERGY     -1339.862189241361

DIPOLE MOMENT
-------------
                                X             Y             Z
Electronic contribution:    -15.82741      14.80269      -3.25713
Nuclear contribution   :     16.09222     -15.11845       3.25728
                        -----------------------------------------
Total Dipole Moment    :      0.26481      -0.31576       0.00015
                        -----------------------------------------
Magnitude (a.u.)       :      0.41210
Magnitude (Debye)      :      1.04749

Rotational constants in cm-1:     0.019464     0.008268     0.007572
Rotational constants in MHz :   583.518240   247.869507   227.008576

                             ****ORCA TERMINATED NORMALLY****
TOTAL RUN TIME: 0 days 0 hours 0 minutes 24 seconds 34 msec
