                         Program Version 4.2.1 -  RELEASE  -
|  1> ! wB97X-D3 SP def2-SVP
|  2> %pal
|  3> nprocs 24
|  4> end
|  5>
|  6> * xyz 0 1
|  7> S 	 -131.796 	 29.5135 	 -14.2846
|  8> C 	 -131.434 	 28.9915 	 -15.8878
|  9> C 	 -131.747 	 27.682 	 -16.0733
| 10> C 	 -132.144 	 26.9635 	 -14.8377
| 11> C 	 -132.39 	 27.8993 	 -13.8258
| 12> H 	 -132.392 	 25.9807 	 -14.733
| 13> C 	 -131.678 	 26.9507 	 -17.3482
| 14> H 	 -131.378 	 27.7225 	 -18.0234
| 15> H 	 -132.699 	 26.698 	 -17.7105
| 16> C 	 -130.753 	 25.849 	 -17.4435
| 17> H 	 -131.164 	 24.9464 	 -16.8826
| 18> H 	 -130.677 	 25.5297 	 -18.4872
| 19> C 	 -129.285 	 26.1739 	 -17.1227
| 20> H 	 -128.966 	 27.0744 	 -17.7051
| 21> H 	 -129.3 	 26.3889 	 -16.0446
| 22> H 	 -128.512 	 25.4074 	 -17.239
| 23> S 	 -132.123 	 28.4939 	 -11.0992
| 24> C 	 -133.383 	 28.15 	 -9.99466
| 25> C 	 -134.084 	 27.056 	 -10.5389
| 26> C 	 -133.883 	 26.83 	 -11.9322
| 27> C 	 -132.875 	 27.6616 	 -12.4631
| 28> H 	 -134.846 	 26.5097 	 -9.94662
| 29> C 	 -134.659 	 25.7417 	 -12.6254
| 30> H 	 -135.05 	 25.0683 	 -11.8214
| 31> H 	 -133.836 	 25.1164 	 -13.1506
| 32> C 	 -135.671 	 26.2888 	 -13.6417
| 33> H 	 -134.964 	 26.6607 	 -14.3507
| 34> H 	 -136.234 	 27.1369 	 -13.2181
| 35> C 	 -136.639 	 25.2515 	 -14.2394
| 36> H 	 -136.865 	 25.5446 	 -15.2482
| 37> H 	 -137.612 	 25.122 	 -13.6881
| 38> H 	 -136.115 	 24.2817 	 -14.333
| 39> H 	 -131.13 	 29.7482 	 -16.6044
| 40> H 	 -133.368 	 28.6434 	 -8.97947
| 41> *
| 42>
| 43>                          ****END OF INPUT****

CARTESIAN COORDINATES (ANGSTROEM)
---------------------------------
  S    -131.796000   29.513500  -14.284600
  C    -131.434000   28.991500  -15.887800
  C    -131.747000   27.682000  -16.073300
  C    -132.144000   26.963500  -14.837700
  C    -132.390000   27.899300  -13.825800
  H    -132.392000   25.980700  -14.733000
  C    -131.678000   26.950700  -17.348200
  H    -131.378000   27.722500  -18.023400
  H    -132.699000   26.698000  -17.710500
  C    -130.753000   25.849000  -17.443500
  H    -131.164000   24.946400  -16.882600
  H    -130.677000   25.529700  -18.487200
  C    -129.285000   26.173900  -17.122700
  H    -128.966000   27.074400  -17.705100
  H    -129.300000   26.388900  -16.044600
  H    -128.512000   25.407400  -17.239000
  S    -132.123000   28.493900  -11.099200
  C    -133.383000   28.150000   -9.994660
  C    -134.084000   27.056000  -10.538900
  C    -133.883000   26.830000  -11.932200
  C    -132.875000   27.661600  -12.463100
  H    -134.846000   26.509700   -9.946620
  C    -134.659000   25.741700  -12.625400
  H    -135.050000   25.068300  -11.821400
  H    -133.836000   25.116400  -13.150600
  C    -135.671000   26.288800  -13.641700
  H    -134.964000   26.660700  -14.350700
  H    -136.234000   27.136900  -13.218100
  C    -136.639000   25.251500  -14.239400
  H    -136.865000   25.544600  -15.248200
  H    -137.612000   25.122000  -13.688100
  H    -136.115000   24.281700  -14.333000
  H    -131.130000   29.748200  -16.604400
  H    -133.368000   28.643400   -8.979470

 Total Charge           Charge          ....    0
 Multiplicity           Mult            ....    1
 Number of Electrons    NEL             ....  134
 Basis Dimension        Dim             ....  322

ORBITAL ENERGIES
----------------

  NO   OCC          E(Eh)            E(eV)
   0   2.0000     -88.963246     -2420.8130
   1   2.0000     -88.961390     -2420.7625
   2   2.0000     -10.337917      -281.3090
   3   2.0000     -10.328928      -281.0644
   4   2.0000     -10.323949      -280.9289
   5   2.0000     -10.313328      -280.6399
   6   2.0000     -10.304802      -280.4079
   7   2.0000     -10.302056      -280.3332
   8   2.0000     -10.300226      -280.2834
   9   2.0000     -10.298930      -280.2481
  10   2.0000     -10.296774      -280.1895
  11   2.0000     -10.286540      -279.9110
  12   2.0000     -10.284489      -279.8552
  13   2.0000     -10.282909      -279.8122
  14   2.0000     -10.281870      -279.7839
  15   2.0000     -10.279366      -279.7158
  16   2.0000      -8.078320      -219.8223
  17   2.0000      -8.076840      -219.7820
  18   2.0000      -6.036846      -164.2709
  19   2.0000      -6.035234      -164.2271
  20   2.0000      -6.032795      -164.1607
  21   2.0000      -6.031245      -164.1185
  22   2.0000      -6.029006      -164.0576
  23   2.0000      -6.027659      -164.0209
  24   2.0000      -1.005621       -27.3643
  25   2.0000      -0.986332       -26.8395
  26   2.0000      -0.925707       -25.1898
  27   2.0000      -0.909616       -24.7519
  28   2.0000      -0.869110       -23.6497
  29   2.0000      -0.850360       -23.1395
  30   2.0000      -0.843868       -22.9628
  31   2.0000      -0.812913       -22.1205
  32   2.0000      -0.781697       -21.2711
  33   2.0000      -0.772863       -21.0307
  34   2.0000      -0.709243       -19.2995
  35   2.0000      -0.697043       -18.9675
  36   2.0000      -0.686366       -18.6770
  37   2.0000      -0.661878       -18.0106
  38   2.0000      -0.646513       -17.5925
  39   2.0000      -0.621668       -16.9165
  40   2.0000      -0.593244       -16.1430
  41   2.0000      -0.564875       -15.3710
  42   2.0000      -0.562838       -15.3156
  43   2.0000      -0.556945       -15.1552
  44   2.0000      -0.548698       -14.9308
  45   2.0000      -0.523895       -14.2559
  46   2.0000      -0.519007       -14.1229
  47   2.0000      -0.515326       -14.0227
  48   2.0000      -0.508967       -13.8497
  49   2.0000      -0.500181       -13.6106
  50   2.0000      -0.489797       -13.3281
  51   2.0000      -0.484381       -13.1807
  52   2.0000      -0.468633       -12.7521
  53   2.0000      -0.463047       -12.6002
  54   2.0000      -0.459645       -12.5076
  55   2.0000      -0.452099       -12.3022
  56   2.0000      -0.444019       -12.0824
  57   2.0000      -0.438963       -11.9448
  58   2.0000      -0.433511       -11.7964
  59   2.0000      -0.418644       -11.3919
  60   2.0000      -0.414363       -11.2754
  61   2.0000      -0.410477       -11.1697
  62   2.0000      -0.400711       -10.9039
  63   2.0000      -0.351996        -9.5783
  64   2.0000      -0.326911        -8.8957
  65   2.0000      -0.323720        -8.8089
  66   2.0000      -0.288743        -7.8571
  67   0.0000       0.016162         0.4398
  68   0.0000       0.079040         2.1508
  69   0.0000       0.100595         2.7373
  70   0.0000       0.115999         3.1565
  71   0.0000       0.133007         3.6193

MULLIKEN ATOMIC CHARGES
-----------------------
   0 S :    0.102336
   1 C :   -0.122949
   2 C :   -0.121706
   3 C :    0.077474
   4 C :   -0.143569
   5 H :   -0.025600
   6 C :    0.115933
   7 H :   -0.011304
   8 H :    0.042694
   9 C :   -0.086373
  10 H :    0.034878
  11 H :    0.027564
  12 C :   -0.070004
  13 H :    0.033673
  14 H :    0.041298
  15 H :    0.040844
  16 S :    0.100994
  17 C :   -0.130528
  18 C :   -0.043225
  19 C :   -0.047177
  20 C :   -0.148360
  21 H :    0.030423
  22 C :    0.009367
  23 H :    0.026870
  24 H :    0.042272
  25 C :   -0.066002
  26 H :    0.026592
  27 H :    0.042220
  28 C :   -0.031989
  29 H :    0.027282
  30 H :    0.050009
  31 H :    0.025902
  32 H :    0.057572
  33 H :    0.092591
Sum of atomic charges:   -0.0000000

LOEWDIN ATOMIC CHARGES
----------------------
   0 S :    0.399716
   1 C :   -0.201898
   2 C :   -0.058781
   3 C :   -0.047423
   4 C :   -0.172106
   5 H :    0.011417
   6 C :   -0.043207
   7 H :    0.025820
   8 H :    0.040729
   9 C :   -0.050824
  10 H :    0.027029
  11 H :    0.026984
  12 C :   -0.069272
  13 H :    0.029415
  14 H :    0.027749
  15 H :    0.027108
  16 S :    0.415271
  17 C :   -0.205887
  18 C :   -0.080300
  19 C :   -0.059706
  20 C :   -0.204019
  21 H :    0.032763
  22 C :   -0.039003
  23 H :    0.029123
  24 H :    0.035296
  25 C :   -0.042394
  26 H :    0.024147
  27 H :    0.030261
  28 C :   -0.069071
  29 H :    0.024432
  30 H :    0.033587
  31 H :    0.026715
  32 H :    0.030958
  33 H :    0.045372

  Mayer bond orders larger than 0.100000
B(  0-S ,  1-C ) :   1.1252 B(  0-S ,  4-C ) :   1.1519 B(  1-C ,  2-C ) :   1.6387
B(  1-C , 32-H ) :   0.9645 B(  2-C ,  3-C ) :   1.1835 B(  2-C ,  6-C ) :   1.0359
B(  3-C ,  4-C ) :   1.5715 B(  3-C ,  5-H ) :   1.0009 B(  4-C , 20-C ) :   1.0709
B(  6-C ,  7-H ) :   0.9196 B(  6-C ,  8-H ) :   0.9271 B(  6-C ,  9-C ) :   1.0926
B(  9-C , 10-H ) :   0.9489 B(  9-C , 11-H ) :   0.9499 B(  9-C , 12-C ) :   1.0648
B( 12-C , 13-H ) :   0.9726 B( 12-C , 14-H ) :   0.9727 B( 12-C , 15-H ) :   0.9767
B( 16-S , 17-C ) :   1.1850 B( 16-S , 20-C ) :   1.1570 B( 17-C , 18-C ) :   1.5215
B( 17-C , 20-C ) :   0.1108 B( 17-C , 33-H ) :   0.9663 B( 18-C , 19-C ) :   1.3035
B( 18-C , 21-H ) :   0.9830 B( 19-C , 20-C ) :   1.5276 B( 19-C , 22-C ) :   1.0364
B( 22-C , 23-H ) :   0.9384 B( 22-C , 24-H ) :   0.9365 B( 22-C , 25-C ) :   1.0385
B( 25-C , 26-H ) :   0.9524 B( 25-C , 27-H ) :   0.9601 B( 25-C , 28-C ) :   1.0812
B( 28-C , 29-H ) :   0.9736 B( 28-C , 30-H ) :   0.9765 B( 28-C , 31-H ) :   0.9716

Dispersion correction           -0.014591268
FINAL SINGLE POINT ENERGY     -1339.861050265286

DIPOLE MOMENT
-------------
                                X             Y             Z
Electronic contribution:      6.35869      18.74251      17.85957
Nuclear contribution   :     -6.61827     -19.14910     -18.19029
                        -----------------------------------------
Total Dipole Moment    :     -0.25958      -0.40658      -0.33072
                        -----------------------------------------
Magnitude (a.u.)       :      0.58486
Magnitude (Debye)      :      1.48660

Rotational constants in cm-1:     0.017915     0.009262     0.007036
Rotational constants in MHz :   537.085681   277.673062   210.943354

                             ****ORCA TERMINATED NORMALLY****
TOTAL RUN TIME: 0 days 0 hours 0 minutes 22 seconds 77 msec
