                         Program Version 4.2.1 -  RELEASE  -
|  1> ! wB97X-D3 SP def2-SVP
|  2> %pal
|  3> nprocs 24
|  4> end
|  5>
|  6> * xyz 0 1
|  7> S 	 -90.9923 	 -29.4674 	 -74.049
|  8> C 	 -89.5719 	 -30.4232 	 -73.7292
|  9> C 	 -88.8028 	 -30.5809 	 -74.8677
| 10> C 	 -89.1815 	 -29.7045 	 -75.967
| 11> C 	 -90.3732 	 -29.1374 	 -75.6991
| 12> H 	 -88.6507 	 -29.4654 	 -76.9162
| 13> C 	 -87.5357 	 -31.3901 	 -74.8447
| 14> H 	 -86.938 	 -31.2557 	 -73.9707
| 15> H 	 -86.8272 	 -31.0538 	 -75.6575
| 16> C 	 -87.7096 	 -32.9444 	 -74.889
| 17> H 	 -86.6927 	 -33.2904 	 -74.8348
| 18> H 	 -88.0925 	 -33.3351 	 -73.9212
| 19> C 	 -88.4089 	 -33.5026 	 -76.1019
| 20> H 	 -87.6876 	 -33.4387 	 -76.8573
| 21> H 	 -88.5851 	 -34.6016 	 -75.8699
| 22> H 	 -89.3734 	 -32.9303 	 -76.3495
| 23> S 	 -90.9859 	 -26.5001 	 -76.485
| 24> C 	 -91.986 	 -26.3137 	 -77.8833
| 25> C 	 -92.3034 	 -27.5329 	 -78.4816
| 26> C 	 -91.901 	 -28.6428 	 -77.7064
| 27> C 	 -91.0623 	 -28.2911 	 -76.653
| 28> H 	 -92.8582 	 -27.3826 	 -79.3747
| 29> C 	 -92.1172 	 -30.0292 	 -78.2242
| 30> H 	 -93.1393 	 -30.2528 	 -77.985
| 31> H 	 -91.49 	 -30.764 	 -77.7111
| 32> C 	 -91.9395 	 -30.2375 	 -79.7566
| 33> H 	 -91.1381 	 -29.6779 	 -80.169
| 34> H 	 -92.8146 	 -29.823 	 -80.1722
| 35> C 	 -91.8053 	 -31.641 	 -80.3464
| 36> H 	 -90.8476 	 -32.0847 	 -80.1967
| 37> H 	 -91.9053 	 -31.475 	 -81.4147
| 38> H 	 -92.5622 	 -32.252 	 -79.9247
| 39> H 	 -89.265 	 -30.734 	 -72.7836
| 40> H 	 -92.3265 	 -25.3809 	 -78.3473
| 41> *
| 42>
| 43>                          ****END OF INPUT****

CARTESIAN COORDINATES (ANGSTROEM)
---------------------------------
  S    -90.992300  -29.467400  -74.049000
  C    -89.571900  -30.423200  -73.729200
  C    -88.802800  -30.580900  -74.867700
  C    -89.181500  -29.704500  -75.967000
  C    -90.373200  -29.137400  -75.699100
  H    -88.650700  -29.465400  -76.916200
  C    -87.535700  -31.390100  -74.844700
  H    -86.938000  -31.255700  -73.970700
  H    -86.827200  -31.053800  -75.657500
  C    -87.709600  -32.944400  -74.889000
  H    -86.692700  -33.290400  -74.834800
  H    -88.092500  -33.335100  -73.921200
  C    -88.408900  -33.502600  -76.101900
  H    -87.687600  -33.438700  -76.857300
  H    -88.585100  -34.601600  -75.869900
  H    -89.373400  -32.930300  -76.349500
  S    -90.985900  -26.500100  -76.485000
  C    -91.986000  -26.313700  -77.883300
  C    -92.303400  -27.532900  -78.481600
  C    -91.901000  -28.642800  -77.706400
  C    -91.062300  -28.291100  -76.653000
  H    -92.858200  -27.382600  -79.374700
  C    -92.117200  -30.029200  -78.224200
  H    -93.139300  -30.252800  -77.985000
  H    -91.490000  -30.764000  -77.711100
  C    -91.939500  -30.237500  -79.756600
  H    -91.138100  -29.677900  -80.169000
  H    -92.814600  -29.823000  -80.172200
  C    -91.805300  -31.641000  -80.346400
  H    -90.847600  -32.084700  -80.196700
  H    -91.905300  -31.475000  -81.414700
  H    -92.562200  -32.252000  -79.924700
  H    -89.265000  -30.734000  -72.783600
  H    -92.326500  -25.380900  -78.347300

 Total Charge           Charge          ....    0
 Multiplicity           Mult            ....    1
 Number of Electrons    NEL             ....  134
 Basis Dimension        Dim             ....  322

ORBITAL ENERGIES
----------------

  NO   OCC          E(Eh)            E(eV)
   0   2.0000     -88.964796     -2420.8552
   1   2.0000     -88.964564     -2420.8489
   2   2.0000     -10.324656      -280.9482
   3   2.0000     -10.323702      -280.9222
   4   2.0000     -10.315837      -280.7082
   5   2.0000     -10.309499      -280.5357
   6   2.0000     -10.303272      -280.3663
   7   2.0000     -10.301410      -280.3156
   8   2.0000     -10.298495      -280.2363
   9   2.0000     -10.289810      -280.0000
  10   2.0000     -10.287556      -279.9386
  11   2.0000     -10.285767      -279.8899
  12   2.0000     -10.283188      -279.8198
  13   2.0000     -10.279298      -279.7139
  14   2.0000     -10.276617      -279.6410
  15   2.0000     -10.272061      -279.5170
  16   2.0000      -8.079121      -219.8441
  17   2.0000      -8.078798      -219.8353
  18   2.0000      -6.037643      -164.2926
  19   2.0000      -6.037217      -164.2810
  20   2.0000      -6.033817      -164.1885
  21   2.0000      -6.033363      -164.1761
  22   2.0000      -6.029754      -164.0780
  23   2.0000      -6.029705      -164.0766
  24   2.0000      -1.002512       -27.2797
  25   2.0000      -0.981078       -26.6965
  26   2.0000      -0.908425       -24.7195
  27   2.0000      -0.907367       -24.6907
  28   2.0000      -0.870737       -23.6940
  29   2.0000      -0.854138       -23.2423
  30   2.0000      -0.846914       -23.0457
  31   2.0000      -0.815787       -22.1987
  32   2.0000      -0.784443       -21.3458
  33   2.0000      -0.769140       -20.9294
  34   2.0000      -0.705462       -19.1966
  35   2.0000      -0.698659       -19.0115
  36   2.0000      -0.693638       -18.8749
  37   2.0000      -0.649484       -17.6734
  38   2.0000      -0.644874       -17.5479
  39   2.0000      -0.610645       -16.6165
  40   2.0000      -0.592899       -16.1336
  41   2.0000      -0.573168       -15.5967
  42   2.0000      -0.567498       -15.4424
  43   2.0000      -0.545060       -14.8318
  44   2.0000      -0.542992       -14.7756
  45   2.0000      -0.531032       -14.4501
  46   2.0000      -0.518887       -14.1196
  47   2.0000      -0.517698       -14.0873
  48   2.0000      -0.502453       -13.6724
  49   2.0000      -0.494678       -13.4609
  50   2.0000      -0.485832       -13.2202
  51   2.0000      -0.481074       -13.0907
  52   2.0000      -0.472203       -12.8493
  53   2.0000      -0.463028       -12.5996
  54   2.0000      -0.460141       -12.5211
  55   2.0000      -0.447928       -12.1888
  56   2.0000      -0.439617       -11.9626
  57   2.0000      -0.434485       -11.8229
  58   2.0000      -0.431288       -11.7359
  59   2.0000      -0.425352       -11.5744
  60   2.0000      -0.419853       -11.4248
  61   2.0000      -0.411740       -11.2040
  62   2.0000      -0.407068       -11.0769
  63   2.0000      -0.337931        -9.1956
  64   2.0000      -0.330084        -8.9820
  65   2.0000      -0.313353        -8.5268
  66   2.0000      -0.309114        -8.4114
  67   0.0000       0.039024         1.0619
  68   0.0000       0.057228         1.5573
  69   0.0000       0.116698         3.1755
  70   0.0000       0.117122         3.1870
  71   0.0000       0.129670         3.5285

MULLIKEN ATOMIC CHARGES
-----------------------
   0 S :    0.116022
   1 C :   -0.091407
   2 C :   -0.062296
   3 C :    0.024139
   4 C :   -0.154462
   5 H :    0.044109
   6 C :    0.028568
   7 H :    0.019373
   8 H :    0.024011
   9 C :   -0.083811
  10 H :    0.014096
  11 H :    0.021450
  12 C :   -0.046860
  13 H :    0.018694
  14 H :    0.043947
  15 H :    0.065219
  16 S :    0.114161
  17 C :   -0.100289
  18 C :   -0.055025
  19 C :    0.015659
  20 C :   -0.216040
  21 H :    0.009187
  22 C :    0.107824
  23 H :    0.023260
  24 H :    0.024739
  25 C :   -0.106302
  26 H :    0.022685
  27 H :    0.015831
  28 C :   -0.007830
  29 H :    0.028159
  30 H :    0.032950
  31 H :    0.025350
  32 H :    0.027356
  33 H :    0.057532
Sum of atomic charges:   -0.0000000

LOEWDIN ATOMIC CHARGES
----------------------
   0 S :    0.386894
   1 C :   -0.181099
   2 C :   -0.064614
   3 C :   -0.053470
   4 C :   -0.185993
   5 H :    0.047884
   6 C :   -0.040080
   7 H :    0.027747
   8 H :    0.031635
   9 C :   -0.045067
  10 H :    0.020315
  11 H :    0.019793
  12 C :   -0.069737
  13 H :    0.016201
  14 H :    0.036867
  15 H :    0.037668
  16 S :    0.394991
  17 C :   -0.189019
  18 C :   -0.077675
  19 C :   -0.045896
  20 C :   -0.195707
  21 H :    0.028852
  22 C :   -0.028583
  23 H :    0.033033
  24 H :    0.027361
  25 C :   -0.037706
  26 H :    0.018847
  27 H :    0.015838
  28 C :   -0.051926
  29 H :    0.020437
  30 H :    0.032371
  31 H :    0.020260
  32 H :    0.016583
  33 H :    0.032995

  Mayer bond orders larger than 0.100000
B(  0-S ,  1-C ) :   1.1292 B(  0-S ,  4-C ) :   1.1217 B(  1-C ,  2-C ) :   1.6317
B(  1-C , 32-H ) :   0.9776 B(  2-C ,  3-C ) :   1.1864 B(  2-C ,  6-C ) :   1.0285
B(  3-C ,  4-C ) :   1.6313 B(  3-C ,  5-H ) :   0.9861 B(  4-C , 20-C ) :   1.0378
B(  6-C ,  7-H ) :   0.9398 B(  6-C ,  8-H ) :   0.9483 B(  6-C ,  9-C ) :   1.0725
B(  9-C , 10-H ) :   0.9531 B(  9-C , 11-H ) :   0.9577 B(  9-C , 12-C ) :   1.0695
B( 12-C , 13-H ) :   0.9756 B( 12-C , 14-H ) :   0.9715 B( 12-C , 15-H ) :   0.9736
B( 16-S , 17-C ) :   1.1682 B( 16-S , 20-C ) :   1.1265 B( 17-C , 18-C ) :   1.6247
B( 17-C , 20-C ) :   0.1012 B( 17-C , 33-H ) :   0.9601 B( 18-C , 19-C ) :   1.2098
B( 18-C , 21-H ) :   0.9975 B( 19-C , 20-C ) :   1.6003 B( 19-C , 22-C ) :   1.0500
B( 22-C , 23-H ) :   0.9125 B( 22-C , 24-H ) :   0.9432 B( 22-C , 25-C ) :   1.0613
B( 25-C , 26-H ) :   0.9632 B( 25-C , 27-H ) :   0.9468 B( 25-C , 28-C ) :   1.0939
B( 28-C , 29-H ) :   0.9749 B( 28-C , 30-H ) :   0.9726 B( 28-C , 31-H ) :   0.9747

Dispersion correction           -0.014357475
FINAL SINGLE POINT ENERGY     -1339.863292606403

DIPOLE MOMENT
-------------
                                X             Y             Z
Electronic contribution:     -6.80897      24.86855      15.05741
Nuclear contribution   :      7.07262     -25.21589     -15.48816
                        -----------------------------------------
Total Dipole Moment    :      0.26365      -0.34734      -0.43075
                        -----------------------------------------
Magnitude (a.u.)       :      0.61295
Magnitude (Debye)      :      1.55799

Rotational constants in cm-1:     0.016832     0.009528     0.006796
Rotational constants in MHz :   504.608449   285.628619   203.753643

                             ****ORCA TERMINATED NORMALLY****
TOTAL RUN TIME: 0 days 0 hours 0 minutes 20 seconds 608 msec
