                         Program Version 4.2.1 -  RELEASE  -
|  1> ! wB97X-D3 SP def2-SVP
|  2> %pal
|  3> nprocs 24
|  4> end
|  5>
|  6> * xyz 0 1
|  7> S 	 -96.1758 	 46.5035 	 -90.1825
|  8> C 	 -95.8093 	 44.765 	 -90.4586
|  9> C 	 -96.359 	 44.3879 	 -91.6194
| 10> C 	 -97.0207 	 45.4436 	 -92.3571
| 11> C 	 -96.9741 	 46.6555 	 -91.7134
| 12> H 	 -97.5841 	 45.323 	 -93.2965
| 13> C 	 -96.4542 	 42.9601 	 -92.0993
| 14> H 	 -97.4256 	 42.8477 	 -92.5922
| 15> H 	 -96.6052 	 42.4325 	 -91.1664
| 16> C 	 -95.2755 	 42.4241 	 -92.892
| 17> H 	 -94.4378 	 42.4132 	 -92.1504
| 18> H 	 -95.4691 	 41.4118 	 -93.1711
| 19> C 	 -94.8637 	 43.139 	 -94.2046
| 20> H 	 -94.128 	 42.4781 	 -94.7012
| 21> H 	 -95.7035 	 43.3364 	 -94.8071
| 22> H 	 -94.3689 	 44.0985 	 -93.9816
| 23> S 	 -96.7262 	 49.271 	 -92.6905
| 24> C 	 -98.1188 	 50.1354 	 -93.0318
| 25> C 	 -99.2728 	 49.4314 	 -92.7597
| 26> C 	 -99.0142 	 48.1877 	 -92.1039
| 27> C 	 -97.6601 	 47.8757 	 -92.0135
| 28> H 	 -100.244 	 49.8924 	 -92.9202
| 29> C 	 -100.131 	 47.3805 	 -91.5498
| 30> H 	 -100.475 	 47.828 	 -90.6439
| 31> H 	 -99.6897 	 46.4802 	 -91.1839
| 32> C 	 -101.343 	 47.0686 	 -92.5241
| 33> H 	 -100.839 	 46.6037 	 -93.3242
| 34> H 	 -101.815 	 48.028 	 -92.8978
| 35> C 	 -102.362 	 46.0673 	 -92.0129
| 36> H 	 -103.318 	 46.1426 	 -92.4308
| 37> H 	 -102.492 	 46.329 	 -90.9631
| 38> H 	 -102.075 	 45.0114 	 -92.0535
| 39> H 	 -95.3436 	 44.0562 	 -89.841
| 40> H 	 -98.108 	 51.1627 	 -93.4241
| 41> *
| 42>
| 43>                          ****END OF INPUT****

CARTESIAN COORDINATES (ANGSTROEM)
---------------------------------
  S    -96.175800   46.503500  -90.182500
  C    -95.809300   44.765000  -90.458600
  C    -96.359000   44.387900  -91.619400
  C    -97.020700   45.443600  -92.357100
  C    -96.974100   46.655500  -91.713400
  H    -97.584100   45.323000  -93.296500
  C    -96.454200   42.960100  -92.099300
  H    -97.425600   42.847700  -92.592200
  H    -96.605200   42.432500  -91.166400
  C    -95.275500   42.424100  -92.892000
  H    -94.437800   42.413200  -92.150400
  H    -95.469100   41.411800  -93.171100
  C    -94.863700   43.139000  -94.204600
  H    -94.128000   42.478100  -94.701200
  H    -95.703500   43.336400  -94.807100
  H    -94.368900   44.098500  -93.981600
  S    -96.726200   49.271000  -92.690500
  C    -98.118800   50.135400  -93.031800
  C    -99.272800   49.431400  -92.759700
  C    -99.014200   48.187700  -92.103900
  C    -97.660100   47.875700  -92.013500
  H    -100.244000   49.892400  -92.920200
  C    -100.131000   47.380500  -91.549800
  H    -100.475000   47.828000  -90.643900
  H    -99.689700   46.480200  -91.183900
  C    -101.343000   47.068600  -92.524100
  H    -100.839000   46.603700  -93.324200
  H    -101.815000   48.028000  -92.897800
  C    -102.362000   46.067300  -92.012900
  H    -103.318000   46.142600  -92.430800
  H    -102.492000   46.329000  -90.963100
  H    -102.075000   45.011400  -92.053500
  H    -95.343600   44.056200  -89.841000
  H    -98.108000   51.162700  -93.424100

 Total Charge           Charge          ....    0
 Multiplicity           Mult            ....    1
 Number of Electrons    NEL             ....  134
 Basis Dimension        Dim             ....  322

ORBITAL ENERGIES
----------------

  NO   OCC          E(Eh)            E(eV)
   0   2.0000     -88.962049     -2420.7804
   1   2.0000     -88.961972     -2420.7783
   2   2.0000     -10.325971      -280.9840
   3   2.0000     -10.325008      -280.9578
   4   2.0000     -10.315194      -280.6907
   5   2.0000     -10.309703      -280.5413
   6   2.0000     -10.304548      -280.4010
   7   2.0000     -10.295630      -280.1583
   8   2.0000     -10.295063      -280.1429
   9   2.0000     -10.289743      -279.9982
  10   2.0000     -10.289663      -279.9960
  11   2.0000     -10.288249      -279.9575
  12   2.0000     -10.287236      -279.9299
  13   2.0000     -10.284498      -279.8554
  14   2.0000     -10.277037      -279.6524
  15   2.0000     -10.273914      -279.5674
  16   2.0000      -8.077591      -219.8024
  17   2.0000      -8.076568      -219.7746
  18   2.0000      -6.035922      -164.2458
  19   2.0000      -6.035291      -164.2286
  20   2.0000      -6.031897      -164.1362
  21   2.0000      -6.031057      -164.1134
  22   2.0000      -6.028553      -164.0453
  23   2.0000      -6.027120      -164.0063
  24   2.0000      -1.007413       -27.4131
  25   2.0000      -0.986269       -26.8377
  26   2.0000      -0.913911       -24.8688
  27   2.0000      -0.909012       -24.7355
  28   2.0000      -0.872387       -23.7389
  29   2.0000      -0.854942       -23.2641
  30   2.0000      -0.839855       -22.8536
  31   2.0000      -0.814799       -22.1718
  32   2.0000      -0.787980       -21.4420
  33   2.0000      -0.776294       -21.1240
  34   2.0000      -0.710470       -19.3329
  35   2.0000      -0.702418       -19.1138
  36   2.0000      -0.700434       -19.0598
  37   2.0000      -0.653645       -17.7866
  38   2.0000      -0.638868       -17.3845
  39   2.0000      -0.613188       -16.6857
  40   2.0000      -0.597490       -16.2585
  41   2.0000      -0.574926       -15.6445
  42   2.0000      -0.565109       -15.3774
  43   2.0000      -0.549180       -14.9439
  44   2.0000      -0.547487       -14.8979
  45   2.0000      -0.525972       -14.3124
  46   2.0000      -0.518806       -14.1174
  47   2.0000      -0.515054       -14.0153
  48   2.0000      -0.511619       -13.9219
  49   2.0000      -0.498295       -13.5593
  50   2.0000      -0.486100       -13.2275
  51   2.0000      -0.478879       -13.0310
  52   2.0000      -0.472999       -12.8709
  53   2.0000      -0.468103       -12.7377
  54   2.0000      -0.464340       -12.6353
  55   2.0000      -0.454216       -12.3599
  56   2.0000      -0.443753       -12.0751
  57   2.0000      -0.436044       -11.8654
  58   2.0000      -0.426688       -11.6108
  59   2.0000      -0.421934       -11.4814
  60   2.0000      -0.417711       -11.3665
  61   2.0000      -0.417401       -11.3581
  62   2.0000      -0.410740       -11.1768
  63   2.0000      -0.332743        -9.0544
  64   2.0000      -0.330285        -8.9875
  65   2.0000      -0.325699        -8.8627
  66   2.0000      -0.308763        -8.4019
  67   0.0000       0.040547         1.1033
  68   0.0000       0.059187         1.6106
  69   0.0000       0.112029         3.0485
  70   0.0000       0.122628         3.3369
  71   0.0000       0.130469         3.5502

MULLIKEN ATOMIC CHARGES
-----------------------
   0 S :    0.100881
   1 C :   -0.085441
   2 C :   -0.119185
   3 C :    0.042173
   4 C :   -0.167782
   5 H :    0.020802
   6 C :    0.063372
   7 H :    0.019022
   8 H :    0.018548
   9 C :   -0.058341
  10 H :    0.025625
  11 H :    0.024442
  12 C :   -0.044644
  13 H :    0.041294
  14 H :    0.025234
  15 H :    0.045404
  16 S :    0.113436
  17 C :   -0.094853
  18 C :   -0.042617
  19 C :   -0.020690
  20 C :   -0.177336
  21 H :    0.019831
  22 C :    0.096946
  23 H :    0.026997
  24 H :    0.006379
  25 C :   -0.094819
  26 H :    0.020197
  27 H :    0.043497
  28 C :   -0.017007
  29 H :    0.023104
  30 H :    0.018675
  31 H :    0.037758
  32 H :    0.020352
  33 H :    0.068743
Sum of atomic charges:   -0.0000000

LOEWDIN ATOMIC CHARGES
----------------------
   0 S :    0.392922
   1 C :   -0.176076
   2 C :   -0.065896
   3 C :   -0.060542
   4 C :   -0.202238
   5 H :    0.036247
   6 C :   -0.036046
   7 H :    0.028322
   8 H :    0.031684
   9 C :   -0.039271
  10 H :    0.027058
  11 H :    0.019800
  12 C :   -0.061210
  13 H :    0.032773
  14 H :    0.017006
  15 H :    0.030316
  16 S :    0.416128
  17 C :   -0.201242
  18 C :   -0.083605
  19 C :   -0.042039
  20 C :   -0.202805
  21 H :    0.031040
  22 C :   -0.029656
  23 H :    0.029436
  24 H :    0.026617
  25 C :   -0.037020
  26 H :    0.018258
  27 H :    0.029551
  28 C :   -0.064486
  29 H :    0.020893
  30 H :    0.026150
  31 H :    0.029563
  32 H :    0.021983
  33 H :    0.036384

  Mayer bond orders larger than 0.100000
B(  0-S ,  1-C ) :   1.1056 B(  0-S ,  4-C ) :   1.1513 B(  1-C ,  2-C ) :   1.6720
B(  1-C , 32-H ) :   0.9707 B(  2-C ,  3-C ) :   1.1966 B(  2-C ,  6-C ) :   1.0008
B(  3-C ,  4-C ) :   1.6050 B(  3-C ,  5-H ) :   0.9995 B(  4-C , 20-C ) :   1.0135
B(  6-C ,  7-H ) :   0.9413 B(  6-C ,  8-H ) :   0.9410 B(  6-C ,  9-C ) :   1.0775
B(  9-C , 10-H ) :   0.9544 B(  9-C , 11-H ) :   0.9562 B(  9-C , 12-C ) :   1.0761
B( 12-C , 13-H ) :   0.9750 B( 12-C , 14-H ) :   0.9765 B( 12-C , 15-H ) :   0.9739
B( 16-S , 17-C ) :   1.1963 B( 16-S , 20-C ) :   1.1220 B( 17-C , 18-C ) :   1.5856
B( 17-C , 33-H ) :   0.9604 B( 18-C , 19-C ) :   1.2410 B( 18-C , 21-H ) :   0.9928
B( 19-C , 20-C ) :   1.5883 B( 19-C , 22-C ) :   1.0607 B( 22-C , 23-H ) :   0.9212
B( 22-C , 24-H ) :   0.9265 B( 22-C , 25-C ) :   1.0495 B( 25-C , 26-H ) :   0.9613
B( 25-C , 27-H ) :   0.9547 B( 25-C , 28-C ) :   1.0843 B( 28-C , 29-H ) :   0.9729
B( 28-C , 30-H ) :   0.9728 B( 28-C , 31-H ) :   0.9749

Dispersion correction           -0.014275750
FINAL SINGLE POINT ENERGY     -1339.878914192468

DIPOLE MOMENT
-------------
                                X             Y             Z
Electronic contribution:     12.62557      19.89482       7.86694
Nuclear contribution   :    -13.17588     -20.34668      -8.07650
                        -----------------------------------------
Total Dipole Moment    :     -0.55031      -0.45186      -0.20956
                        -----------------------------------------
Magnitude (a.u.)       :      0.74225
Magnitude (Debye)      :      1.88665

Rotational constants in cm-1:     0.017129     0.008502     0.007025
Rotational constants in MHz :   513.509078   254.874926   210.592531

                             ****ORCA TERMINATED NORMALLY****
TOTAL RUN TIME: 0 days 0 hours 0 minutes 21 seconds 458 msec
