                         Program Version 4.2.1 -  RELEASE  -
|  1> ! wB97X-D3 SP def2-SVP
|  2> %pal
|  3> nprocs 24
|  4> end
|  5>
|  6> * xyz 0 1
|  7> S 	 -122.296 	 35.6668 	 -108.853
|  8> C 	 -120.795 	 35.0975 	 -109.604
|  9> C 	 -121.056 	 34.3963 	 -110.758
| 10> C 	 -122.421 	 34.0184 	 -110.781
| 11> C 	 -123.253 	 34.6368 	 -109.851
| 12> H 	 -122.854 	 33.2599 	 -111.439
| 13> C 	 -120.111 	 33.9504 	 -111.848
| 14> H 	 -120.497 	 32.9936 	 -112.314
| 15> H 	 -119.115 	 33.6573 	 -111.487
| 16> C 	 -119.987 	 34.8956 	 -113.108
| 17> H 	 -119.733 	 35.9571 	 -112.86
| 18> H 	 -119.307 	 34.4973 	 -113.898
| 19> C 	 -121.433 	 34.9436 	 -113.767
| 20> H 	 -121.498 	 35.434 	 -114.738
| 21> H 	 -121.876 	 33.9353 	 -113.873
| 22> H 	 -122.086 	 35.4876 	 -113.1
| 23> S 	 -125.178 	 34.0338 	 -107.917
| 24> C 	 -126.839 	 33.6256 	 -108.341
| 25> C 	 -127.046 	 33.9169 	 -109.697
| 26> C 	 -125.807 	 34.3292 	 -110.35
| 27> C 	 -124.693 	 34.4016 	 -109.53
| 28> H 	 -128.047 	 33.9277 	 -110.098
| 29> C 	 -125.812 	 34.7675 	 -111.84
| 30> H 	 -124.998 	 35.4218 	 -111.916
| 31> H 	 -126.589 	 35.4721 	 -112
| 32> C 	 -125.845 	 33.6679 	 -112.906
| 33> H 	 -126.334 	 32.7251 	 -112.599
| 34> H 	 -124.846 	 33.3686 	 -113.175
| 35> C 	 -126.57 	 34.0788 	 -114.167
| 36> H 	 -127.588 	 33.9869 	 -113.99
| 37> H 	 -126.308 	 33.3668 	 -114.989
| 38> H 	 -126.355 	 35.1194 	 -114.453
| 39> H 	 -119.874 	 35.562 	 -109.379
| 40> H 	 -127.699 	 33.4645 	 -107.74
| 41> *
| 42>
| 43>                          ****END OF INPUT****

CARTESIAN COORDINATES (ANGSTROEM)
---------------------------------
  S    -122.296000   35.666800  -108.853000
  C    -120.795000   35.097500  -109.604000
  C    -121.056000   34.396300  -110.758000
  C    -122.421000   34.018400  -110.781000
  C    -123.253000   34.636800  -109.851000
  H    -122.854000   33.259900  -111.439000
  C    -120.111000   33.950400  -111.848000
  H    -120.497000   32.993600  -112.314000
  H    -119.115000   33.657300  -111.487000
  C    -119.987000   34.895600  -113.108000
  H    -119.733000   35.957100  -112.860000
  H    -119.307000   34.497300  -113.898000
  C    -121.433000   34.943600  -113.767000
  H    -121.498000   35.434000  -114.738000
  H    -121.876000   33.935300  -113.873000
  H    -122.086000   35.487600  -113.100000
  S    -125.178000   34.033800  -107.917000
  C    -126.839000   33.625600  -108.341000
  C    -127.046000   33.916900  -109.697000
  C    -125.807000   34.329200  -110.350000
  C    -124.693000   34.401600  -109.530000
  H    -128.047000   33.927700  -110.098000
  C    -125.812000   34.767500  -111.840000
  H    -124.998000   35.421800  -111.916000
  H    -126.589000   35.472100  -112.000000
  C    -125.845000   33.667900  -112.906000
  H    -126.334000   32.725100  -112.599000
  H    -124.846000   33.368600  -113.175000
  C    -126.570000   34.078800  -114.167000
  H    -127.588000   33.986900  -113.990000
  H    -126.308000   33.366800  -114.989000
  H    -126.355000   35.119400  -114.453000
  H    -119.874000   35.562000  -109.379000
  H    -127.699000   33.464500  -107.740000

 Total Charge           Charge          ....    0
 Multiplicity           Mult            ....    1
 Number of Electrons    NEL             ....  134
 Basis Dimension        Dim             ....  322

ORBITAL ENERGIES
----------------

  NO   OCC          E(Eh)            E(eV)
   0   2.0000     -88.967381     -2420.9255
   1   2.0000     -88.966216     -2420.8938
   2   2.0000     -10.335103      -281.2324
   3   2.0000     -10.330789      -281.1151
   4   2.0000     -10.319590      -280.8103
   5   2.0000     -10.316326      -280.7215
   6   2.0000     -10.306812      -280.4626
   7   2.0000     -10.306563      -280.4558
   8   2.0000     -10.304682      -280.4047
   9   2.0000     -10.302343      -280.3410
  10   2.0000     -10.298513      -280.2368
  11   2.0000     -10.296909      -280.1931
  12   2.0000     -10.282778      -279.8086
  13   2.0000     -10.282320      -279.7961
  14   2.0000     -10.278147      -279.6826
  15   2.0000     -10.273531      -279.5570
  16   2.0000      -8.082384      -219.9329
  17   2.0000      -8.080910      -219.8927
  18   2.0000      -6.040851      -164.3799
  19   2.0000      -6.039570      -164.3451
  20   2.0000      -6.036826      -164.2704
  21   2.0000      -6.035260      -164.2278
  22   2.0000      -6.033192      -164.1715
  23   2.0000      -6.031631      -164.1290
  24   2.0000      -1.008800       -27.4509
  25   2.0000      -0.986436       -26.8423
  26   2.0000      -0.908657       -24.7258
  27   2.0000      -0.907446       -24.6929
  28   2.0000      -0.866994       -23.5921
  29   2.0000      -0.849574       -23.1181
  30   2.0000      -0.841408       -22.8959
  31   2.0000      -0.817911       -22.2565
  32   2.0000      -0.781377       -21.2624
  33   2.0000      -0.772739       -21.0273
  34   2.0000      -0.703972       -19.1560
  35   2.0000      -0.701751       -19.0956
  36   2.0000      -0.696833       -18.9618
  37   2.0000      -0.662276       -18.0214
  38   2.0000      -0.645308       -17.5597
  39   2.0000      -0.618495       -16.8301
  40   2.0000      -0.591907       -16.1066
  41   2.0000      -0.577436       -15.7128
  42   2.0000      -0.561300       -15.2737
  43   2.0000      -0.546660       -14.8754
  44   2.0000      -0.545217       -14.8361
  45   2.0000      -0.530082       -14.4243
  46   2.0000      -0.518924       -14.1206
  47   2.0000      -0.512993       -13.9592
  48   2.0000      -0.503130       -13.6909
  49   2.0000      -0.500079       -13.6079
  50   2.0000      -0.490296       -13.3416
  51   2.0000      -0.479211       -13.0400
  52   2.0000      -0.465835       -12.6760
  53   2.0000      -0.460457       -12.5297
  54   2.0000      -0.457503       -12.4493
  55   2.0000      -0.447077       -12.1656
  56   2.0000      -0.442055       -12.0289
  57   2.0000      -0.441137       -12.0039
  58   2.0000      -0.435866       -11.8605
  59   2.0000      -0.427103       -11.6221
  60   2.0000      -0.420030       -11.4296
  61   2.0000      -0.414360       -11.2753
  62   2.0000      -0.410082       -11.1589
  63   2.0000      -0.349093        -9.4993
  64   2.0000      -0.333084        -9.0637
  65   2.0000      -0.326703        -8.8900
  66   2.0000      -0.299191        -8.1414
  67   0.0000       0.027698         0.7537
  68   0.0000       0.068372         1.8605
  69   0.0000       0.105019         2.8577
  70   0.0000       0.120918         3.2904
  71   0.0000       0.123284         3.3547

MULLIKEN ATOMIC CHARGES
-----------------------
   0 S :    0.099534
   1 C :   -0.100530
   2 C :   -0.062629
   3 C :    0.017918
   4 C :   -0.156445
   5 H :    0.015923
   6 C :    0.028150
   7 H :    0.033584
   8 H :    0.034536
   9 C :   -0.079174
  10 H :    0.045746
  11 H :    0.049047
  12 C :   -0.092233
  13 H :    0.036717
  14 H :    0.024790
  15 H :    0.046598
  16 S :    0.110487
  17 C :   -0.079993
  18 C :   -0.038223
  19 C :   -0.074338
  20 C :   -0.122940
  21 H :    0.023957
  22 C :    0.105412
  23 H :    0.005261
  24 H :    0.008173
  25 C :   -0.054672
  26 H :    0.029744
  27 H :    0.018352
  28 C :   -0.055977
  29 H :    0.021023
  30 H :    0.036558
  31 H :    0.034924
  32 H :    0.038851
  33 H :    0.051869
Sum of atomic charges:   -0.0000000

LOEWDIN ATOMIC CHARGES
----------------------
   0 S :    0.407791
   1 C :   -0.174241
   2 C :   -0.064576
   3 C :   -0.059277
   4 C :   -0.199580
   5 H :    0.031475
   6 C :   -0.034944
   7 H :    0.037254
   8 H :    0.030116
   9 C :   -0.036950
  10 H :    0.027831
  11 H :    0.029603
  12 C :   -0.073324
  13 H :    0.023699
  14 H :    0.020530
  15 H :    0.023004
  16 S :    0.416866
  17 C :   -0.183764
  18 C :   -0.067344
  19 C :   -0.053811
  20 C :   -0.214832
  21 H :    0.031240
  22 C :   -0.028449
  23 H :    0.024850
  24 H :    0.026144
  25 C :   -0.041427
  26 H :    0.027810
  27 H :    0.017235
  28 C :   -0.061029
  29 H :    0.014115
  30 H :    0.032537
  31 H :    0.024507
  32 H :    0.018285
  33 H :    0.028659

  Mayer bond orders larger than 0.100000
B(  0-S ,  1-C ) :   1.1469 B(  0-S ,  4-C ) :   1.1611 B(  1-C ,  2-C ) :   1.6070
B(  1-C , 32-H ) :   0.9713 B(  2-C ,  3-C ) :   1.2395 B(  2-C ,  6-C ) :   1.0180
B(  3-C ,  4-C ) :   1.5804 B(  3-C ,  5-H ) :   0.9880 B(  4-C , 20-C ) :   1.0046
B(  6-C ,  7-H ) :   0.9487 B(  6-C ,  8-H ) :   0.9480 B(  6-C ,  9-C ) :   1.0540
B(  9-C , 10-H ) :   0.9598 B(  9-C , 11-H ) :   0.9609 B(  9-C , 12-C ) :   1.0625
B( 12-C , 13-H ) :   0.9742 B( 12-C , 14-H ) :   0.9752 B( 12-C , 15-H ) :   0.9740
B( 16-S , 17-C ) :   1.1584 B( 16-S , 20-C ) :   1.1362 B( 17-C , 18-C ) :   1.6041
B( 17-C , 33-H ) :   0.9685 B( 18-C , 19-C ) :   1.2454 B( 18-C , 21-H ) :   0.9905
B( 19-C , 20-C ) :   1.6034 B( 19-C , 22-C ) :   1.0351 B( 22-C , 23-H ) :   0.9236
B( 22-C , 24-H ) :   0.9456 B( 22-C , 25-C ) :   1.0408 B( 25-C , 26-H ) :   0.9644
B( 25-C , 27-H ) :   0.9543 B( 25-C , 28-C ) :   1.0825 B( 28-C , 29-H ) :   0.9786
B( 28-C , 30-H ) :   0.9730 B( 28-C , 31-H ) :   0.9755

Dispersion correction           -0.015075493
FINAL SINGLE POINT ENERGY     -1339.871746290755

DIPOLE MOMENT
-------------
                                X             Y             Z
Electronic contribution:     -0.99073       2.61144      31.35838
Nuclear contribution   :      0.92198      -2.62157     -32.03621
                        -----------------------------------------
Total Dipole Moment    :     -0.06875      -0.01013      -0.67783
                        -----------------------------------------
Magnitude (a.u.)       :      0.68138
Magnitude (Debye)      :      1.73193

Rotational constants in cm-1:     0.016686     0.010464     0.006839
Rotational constants in MHz :   500.232780   313.711610   205.036021

                             ****ORCA TERMINATED NORMALLY****
TOTAL RUN TIME: 0 days 0 hours 0 minutes 22 seconds 397 msec
