                         Program Version 4.2.1 -  RELEASE  -
|  1> ! wB97X-D3 SP def2-SVP
|  2> %pal
|  3> nprocs 24
|  4> end
|  5>
|  6> * xyz 0 1
|  7> S 	 -112.263 	 62.4265 	 -70.797
|  8> C 	 -111.559 	 60.848 	 -71.2095
|  9> C 	 -111.555 	 59.951 	 -70.1459
| 10> C 	 -112.186 	 60.5566 	 -68.9965
| 11> C 	 -112.616 	 61.8417 	 -69.2456
| 12> H 	 -112.303 	 60.1184 	 -68.0319
| 13> C 	 -111.086 	 58.4472 	 -70.1479
| 14> H 	 -111.535 	 57.9397 	 -71.0186
| 15> H 	 -111.432 	 57.8952 	 -69.2607
| 16> C 	 -109.615 	 58.4168 	 -70.2044
| 17> H 	 -109.319 	 57.3976 	 -70.3394
| 18> H 	 -109.235 	 59.0454 	 -71.0561
| 19> C 	 -109.065 	 58.8196 	 -68.8982
| 20> H 	 -108.955 	 59.9467 	 -68.7882
| 21> H 	 -109.709 	 58.5364 	 -68.0533
| 22> H 	 -108.042 	 58.4134 	 -68.695
| 23> S 	 -112.64 	 63.9903 	 -67.5841
| 24> C 	 -114.113 	 64.3595 	 -66.5678
| 25> C 	 -115.098 	 63.4998 	 -66.9258
| 26> C 	 -114.776 	 62.5962 	 -67.9829
| 27> C 	 -113.429 	 62.6503 	 -68.372
| 28> H 	 -116.138 	 63.6048 	 -66.5034
| 29> C 	 -115.82 	 61.7547 	 -68.5878
| 30> H 	 -115.852 	 60.7882 	 -68.0506
| 31> H 	 -115.463 	 61.5436 	 -69.6266
| 32> C 	 -117.259 	 62.3582 	 -68.8474
| 33> H 	 -117.745 	 62.4243 	 -67.8906
| 34> H 	 -117.795 	 61.6606 	 -69.5056
| 35> C 	 -117.11 	 63.7109 	 -69.5303
| 36> H 	 -116.913 	 64.4939 	 -68.7727
| 37> H 	 -118.089 	 64.0315 	 -69.8913
| 38> H 	 -116.276 	 63.8381 	 -70.2969
| 39> H 	 -111.228 	 60.7596 	 -72.2234
| 40> H 	 -114.178 	 65.0627 	 -65.7619
| 41> *
| 42>
| 43>                          ****END OF INPUT****

CARTESIAN COORDINATES (ANGSTROEM)
---------------------------------
  S    -112.263000   62.426500  -70.797000
  C    -111.559000   60.848000  -71.209500
  C    -111.555000   59.951000  -70.145900
  C    -112.186000   60.556600  -68.996500
  C    -112.616000   61.841700  -69.245600
  H    -112.303000   60.118400  -68.031900
  C    -111.086000   58.447200  -70.147900
  H    -111.535000   57.939700  -71.018600
  H    -111.432000   57.895200  -69.260700
  C    -109.615000   58.416800  -70.204400
  H    -109.319000   57.397600  -70.339400
  H    -109.235000   59.045400  -71.056100
  C    -109.065000   58.819600  -68.898200
  H    -108.955000   59.946700  -68.788200
  H    -109.709000   58.536400  -68.053300
  H    -108.042000   58.413400  -68.695000
  S    -112.640000   63.990300  -67.584100
  C    -114.113000   64.359500  -66.567800
  C    -115.098000   63.499800  -66.925800
  C    -114.776000   62.596200  -67.982900
  C    -113.429000   62.650300  -68.372000
  H    -116.138000   63.604800  -66.503400
  C    -115.820000   61.754700  -68.587800
  H    -115.852000   60.788200  -68.050600
  H    -115.463000   61.543600  -69.626600
  C    -117.259000   62.358200  -68.847400
  H    -117.745000   62.424300  -67.890600
  H    -117.795000   61.660600  -69.505600
  C    -117.110000   63.710900  -69.530300
  H    -116.913000   64.493900  -68.772700
  H    -118.089000   64.031500  -69.891300
  H    -116.276000   63.838100  -70.296900
  H    -111.228000   60.759600  -72.223400
  H    -114.178000   65.062700  -65.761900

 Total Charge           Charge          ....    0
 Multiplicity           Mult            ....    1
 Number of Electrons    NEL             ....  134
 Basis Dimension        Dim             ....  322

ORBITAL ENERGIES
----------------

  NO   OCC          E(Eh)            E(eV)
   0   2.0000     -88.966803     -2420.9098
   1   2.0000     -88.959443     -2420.7095
   2   2.0000     -10.322696      -280.8948
   3   2.0000     -10.321853      -280.8719
   4   2.0000     -10.318083      -280.7693
   5   2.0000     -10.316958      -280.7387
   6   2.0000     -10.309916      -280.5471
   7   2.0000     -10.298679      -280.2413
   8   2.0000     -10.296658      -280.1863
   9   2.0000     -10.293831      -280.1094
  10   2.0000     -10.293287      -280.0946
  11   2.0000     -10.289889      -280.0021
  12   2.0000     -10.287618      -279.9403
  13   2.0000     -10.279266      -279.7131
  14   2.0000     -10.279185      -279.7108
  15   2.0000     -10.277286      -279.6592
  16   2.0000      -8.082396      -219.9332
  17   2.0000      -8.073454      -219.6899
  18   2.0000      -6.040603      -164.3732
  19   2.0000      -6.036862      -164.2714
  20   2.0000      -6.033344      -164.1756
  21   2.0000      -6.032112      -164.1421
  22   2.0000      -6.028011      -164.0305
  23   2.0000      -6.024138      -163.9251
  24   2.0000      -1.007707       -27.4211
  25   2.0000      -0.979689       -26.6587
  26   2.0000      -0.926205       -25.2033
  27   2.0000      -0.904377       -24.6094
  28   2.0000      -0.870855       -23.6972
  29   2.0000      -0.848062       -23.0769
  30   2.0000      -0.839936       -22.8558
  31   2.0000      -0.812968       -22.1220
  32   2.0000      -0.781394       -21.2628
  33   2.0000      -0.764467       -20.8022
  34   2.0000      -0.703572       -19.1452
  35   2.0000      -0.696350       -18.9487
  36   2.0000      -0.691431       -18.8148
  37   2.0000      -0.655043       -17.8246
  38   2.0000      -0.650133       -17.6910
  39   2.0000      -0.612840       -16.6762
  40   2.0000      -0.591393       -16.0926
  41   2.0000      -0.577987       -15.7278
  42   2.0000      -0.558196       -15.1893
  43   2.0000      -0.555699       -15.1213
  44   2.0000      -0.541749       -14.7417
  45   2.0000      -0.533452       -14.5160
  46   2.0000      -0.519811       -14.1448
  47   2.0000      -0.511679       -13.9235
  48   2.0000      -0.499566       -13.5939
  49   2.0000      -0.495015       -13.4700
  50   2.0000      -0.481542       -13.1034
  51   2.0000      -0.479431       -13.0460
  52   2.0000      -0.466480       -12.6936
  53   2.0000      -0.461514       -12.5584
  54   2.0000      -0.457930       -12.4609
  55   2.0000      -0.444344       -12.0912
  56   2.0000      -0.439001       -11.9458
  57   2.0000      -0.434216       -11.8156
  58   2.0000      -0.431652       -11.7459
  59   2.0000      -0.429316       -11.6823
  60   2.0000      -0.414689       -11.2843
  61   2.0000      -0.409182       -11.1344
  62   2.0000      -0.408183       -11.1072
  63   2.0000      -0.337705        -9.1894
  64   2.0000      -0.334928        -9.1138
  65   2.0000      -0.317591        -8.6421
  66   2.0000      -0.301354        -8.2003
  67   0.0000       0.043313         1.1786
  68   0.0000       0.055089         1.4990
  69   0.0000       0.110030         2.9941
  70   0.0000       0.116403         3.1675
  71   0.0000       0.126850         3.4518

MULLIKEN ATOMIC CHARGES
-----------------------
   0 S :    0.122893
   1 C :   -0.148182
   2 C :   -0.064013
   3 C :    0.054849
   4 C :   -0.174205
   5 H :    0.003234
   6 C :    0.055498
   7 H :    0.038007
   8 H :    0.028660
   9 C :   -0.036199
  10 H :    0.018619
  11 H :    0.043597
  12 C :   -0.089054
  13 H :    0.048219
  14 H :    0.023503
  15 H :    0.037402
  16 S :    0.083545
  17 C :   -0.087584
  18 C :   -0.041214
  19 C :   -0.026068
  20 C :   -0.177235
  21 H :    0.039175
  22 C :    0.024399
  23 H :    0.044364
  24 H :    0.031236
  25 C :   -0.063774
  26 H :    0.030396
  27 H :    0.041532
  28 C :   -0.065763
  29 H :    0.025104
  30 H :    0.029215
  31 H :    0.055670
  32 H :    0.044053
  33 H :    0.050123
Sum of atomic charges:    0.0000000

LOEWDIN ATOMIC CHARGES
----------------------
   0 S :    0.424077
   1 C :   -0.186261
   2 C :   -0.050312
   3 C :   -0.054182
   4 C :   -0.218587
   5 H :    0.029317
   6 C :   -0.024112
   7 H :    0.032650
   8 H :    0.029839
   9 C :   -0.051173
  10 H :    0.020917
  11 H :    0.033283
  12 C :   -0.073687
  13 H :    0.034355
  14 H :    0.022576
  15 H :    0.028411
  16 S :    0.373569
  17 C :   -0.162030
  18 C :   -0.075887
  19 C :   -0.065413
  20 C :   -0.205237
  21 H :    0.040864
  22 C :   -0.042617
  23 H :    0.034485
  24 H :    0.034408
  25 C :   -0.036199
  26 H :    0.018520
  27 H :    0.029335
  28 C :   -0.076555
  29 H :    0.027861
  30 H :    0.024485
  31 H :    0.037622
  32 H :    0.017798
  33 H :    0.027880

  Mayer bond orders larger than 0.100000
B(  0-S ,  1-C ) :   1.1444 B(  0-S ,  4-C ) :   1.1775 B(  1-C ,  2-C ) :   1.6059
B(  1-C , 32-H ) :   0.9773 B(  2-C ,  3-C ) :   1.2256 B(  2-C ,  6-C ) :   0.9933
B(  3-C ,  4-C ) :   1.5916 B(  3-C ,  5-H ) :   1.0028 B(  4-C , 20-C ) :   0.9966
B(  6-C ,  7-H ) :   0.9443 B(  6-C ,  8-H ) :   0.9495 B(  6-C ,  9-C ) :   1.0886
B(  9-C , 10-H ) :   0.9499 B(  9-C , 11-H ) :   0.9526 B(  9-C , 12-C ) :   1.0722
B( 12-C , 13-H ) :   0.9693 B( 12-C , 14-H ) :   0.9741 B( 12-C , 15-H ) :   0.9744
B( 16-S , 17-C ) :   1.1266 B( 16-S , 20-C ) :   1.1435 B( 17-C , 18-C ) :   1.6322
B( 17-C , 20-C ) :   0.1020 B( 17-C , 33-H ) :   0.9710 B( 18-C , 19-C ) :   1.2336
B( 18-C , 21-H ) :   0.9715 B( 19-C , 20-C ) :   1.6021 B( 19-C , 22-C ) :   1.0495
B( 22-C , 23-H ) :   0.9295 B( 22-C , 24-H ) :   0.9366 B( 22-C , 25-C ) :   1.0672
B( 25-C , 26-H ) :   0.9502 B( 25-C , 27-H ) :   0.9600 B( 25-C , 28-C ) :   1.0798
B( 28-C , 29-H ) :   0.9647 B( 28-C , 30-H ) :   0.9714 B( 28-C , 31-H ) :   0.9742

Dispersion correction           -0.015037879
FINAL SINGLE POINT ENERGY     -1339.874175792954

DIPOLE MOMENT
-------------
                                X             Y             Z
Electronic contribution:      4.84256      14.24051       0.99700
Nuclear contribution   :     -5.14487     -14.76957      -0.97805
                        -----------------------------------------
Total Dipole Moment    :     -0.30231      -0.52906       0.01895
                        -----------------------------------------
Magnitude (a.u.)       :      0.60964
Magnitude (Debye)      :      1.54957

Rotational constants in cm-1:     0.024098     0.007631     0.006970
Rotational constants in MHz :   722.450784   228.769562   208.958119

                             ****ORCA TERMINATED NORMALLY****
TOTAL RUN TIME: 0 days 0 hours 0 minutes 22 seconds 10 msec
