                         Program Version 4.2.1 -  RELEASE  -
|  1> ! wB97X-D3 SP def2-SVP
|  2> %pal
|  3> nprocs 24
|  4> end
|  5>
|  6> * xyz 0 1
|  7> S 	 -44.2926 	 -52.5259 	 -73.3456
|  8> C 	 -44.1176 	 -53.9529 	 -74.4407
|  9> C 	 -43.5141 	 -53.6018 	 -75.6128
| 10> C 	 -43.1605 	 -52.1988 	 -75.585
| 11> C 	 -43.3803 	 -51.5026 	 -74.3918
| 12> H 	 -42.6629 	 -51.7624 	 -76.4681
| 13> C 	 -43.344 	 -54.4347 	 -76.8937
| 14> H 	 -42.6647 	 -53.9487 	 -77.4913
| 15> H 	 -44.3801 	 -54.3004 	 -77.3166
| 16> C 	 -42.9842 	 -55.9157 	 -76.7492
| 17> H 	 -43.7783 	 -56.3942 	 -76.2137
| 18> H 	 -42.9279 	 -56.3571 	 -77.7281
| 19> C 	 -41.6004 	 -56.008 	 -76.1532
| 20> H 	 -41.3815 	 -57.0013 	 -76.0519
| 21> H 	 -40.9503 	 -55.5246 	 -76.815
| 22> H 	 -41.5786 	 -55.5149 	 -75.2673
| 23> S 	 -44.4466 	 -48.9444 	 -74.3195
| 24> C 	 -43.4206 	 -47.7211 	 -73.5146
| 25> C 	 -42.1536 	 -48.1255 	 -73.1909
| 26> C 	 -41.9277 	 -49.497 	 -73.5517
| 27> C 	 -43.0656 	 -50.0811 	 -74.1606
| 28> H 	 -41.3928 	 -47.4125 	 -72.8796
| 29> C 	 -40.5471 	 -50.1072 	 -73.3441
| 30> H 	 -40.6562 	 -51.1837 	 -73.447
| 31> H 	 -40.2413 	 -49.9085 	 -72.2651
| 32> C 	 -39.4642 	 -49.6444 	 -74.4301
| 33> H 	 -39.3991 	 -48.5345 	 -74.3829
| 34> H 	 -39.8041 	 -49.9362 	 -75.3984
| 35> C 	 -38.1146 	 -50.3961 	 -74.3258
| 36> H 	 -37.6309 	 -50.514 	 -73.344
| 37> H 	 -37.3877 	 -50.1182 	 -75.1299
| 38> H 	 -38.3087 	 -51.4402 	 -74.5494
| 39> H 	 -44.6627 	 -54.8636 	 -74.2063
| 40> H 	 -43.7241 	 -46.6713 	 -73.543
| 41> *
| 42>
| 43>                          ****END OF INPUT****

CARTESIAN COORDINATES (ANGSTROEM)
---------------------------------
  S    -44.292600  -52.525900  -73.345600
  C    -44.117600  -53.952900  -74.440700
  C    -43.514100  -53.601800  -75.612800
  C    -43.160500  -52.198800  -75.585000
  C    -43.380300  -51.502600  -74.391800
  H    -42.662900  -51.762400  -76.468100
  C    -43.344000  -54.434700  -76.893700
  H    -42.664700  -53.948700  -77.491300
  H    -44.380100  -54.300400  -77.316600
  C    -42.984200  -55.915700  -76.749200
  H    -43.778300  -56.394200  -76.213700
  H    -42.927900  -56.357100  -77.728100
  C    -41.600400  -56.008000  -76.153200
  H    -41.381500  -57.001300  -76.051900
  H    -40.950300  -55.524600  -76.815000
  H    -41.578600  -55.514900  -75.267300
  S    -44.446600  -48.944400  -74.319500
  C    -43.420600  -47.721100  -73.514600
  C    -42.153600  -48.125500  -73.190900
  C    -41.927700  -49.497000  -73.551700
  C    -43.065600  -50.081100  -74.160600
  H    -41.392800  -47.412500  -72.879600
  C    -40.547100  -50.107200  -73.344100
  H    -40.656200  -51.183700  -73.447000
  H    -40.241300  -49.908500  -72.265100
  C    -39.464200  -49.644400  -74.430100
  H    -39.399100  -48.534500  -74.382900
  H    -39.804100  -49.936200  -75.398400
  C    -38.114600  -50.396100  -74.325800
  H    -37.630900  -50.514000  -73.344000
  H    -37.387700  -50.118200  -75.129900
  H    -38.308700  -51.440200  -74.549400
  H    -44.662700  -54.863600  -74.206300
  H    -43.724100  -46.671300  -73.543000

 Total Charge           Charge          ....    0
 Multiplicity           Mult            ....    1
 Number of Electrons    NEL             ....  134
 Basis Dimension        Dim             ....  322

ORBITAL ENERGIES
----------------

  NO   OCC          E(Eh)            E(eV)
   0   2.0000     -88.967570     -2420.9306
   1   2.0000     -88.961292     -2420.7598
   2   2.0000     -10.332727      -281.1678
   3   2.0000     -10.329066      -281.0682
   4   2.0000     -10.321319      -280.8574
   5   2.0000     -10.314998      -280.6854
   6   2.0000     -10.310675      -280.5677
   7   2.0000     -10.302105      -280.3345
   8   2.0000     -10.300564      -280.2926
   9   2.0000     -10.295943      -280.1668
  10   2.0000     -10.295728      -280.1610
  11   2.0000     -10.294365      -280.1239
  12   2.0000     -10.290877      -280.0290
  13   2.0000     -10.283009      -279.8149
  14   2.0000     -10.281463      -279.7728
  15   2.0000     -10.255002      -279.0528
  16   2.0000      -8.081179      -219.9001
  17   2.0000      -8.075781      -219.7532
  18   2.0000      -6.039682      -164.3481
  19   2.0000      -6.036028      -164.2487
  20   2.0000      -6.034413      -164.2047
  21   2.0000      -6.031825      -164.1343
  22   2.0000      -6.030262      -164.0918
  23   2.0000      -6.026471      -163.9886
  24   2.0000      -0.997473       -27.1426
  25   2.0000      -0.976205       -26.5639
  26   2.0000      -0.919538       -25.0219
  27   2.0000      -0.898167       -24.4404
  28   2.0000      -0.868473       -23.6324
  29   2.0000      -0.848385       -23.0857
  30   2.0000      -0.842982       -22.9387
  31   2.0000      -0.808006       -21.9870
  32   2.0000      -0.787382       -21.4258
  33   2.0000      -0.769096       -20.9282
  34   2.0000      -0.711583       -19.3632
  35   2.0000      -0.703822       -19.1520
  36   2.0000      -0.690812       -18.7980
  37   2.0000      -0.657561       -17.8931
  38   2.0000      -0.636242       -17.3130
  39   2.0000      -0.606559       -16.5053
  40   2.0000      -0.590683       -16.0733
  41   2.0000      -0.582036       -15.8380
  42   2.0000      -0.561661       -15.2836
  43   2.0000      -0.559252       -15.2180
  44   2.0000      -0.543349       -14.7853
  45   2.0000      -0.519530       -14.1371
  46   2.0000      -0.516505       -14.0548
  47   2.0000      -0.508311       -13.8318
  48   2.0000      -0.503699       -13.7063
  49   2.0000      -0.495330       -13.4786
  50   2.0000      -0.490741       -13.3537
  51   2.0000      -0.472703       -12.8629
  52   2.0000      -0.470383       -12.7998
  53   2.0000      -0.461258       -12.5515
  54   2.0000      -0.457948       -12.4614
  55   2.0000      -0.448042       -12.1918
  56   2.0000      -0.441144       -12.0041
  57   2.0000      -0.438337       -11.9278
  58   2.0000      -0.433322       -11.7913
  59   2.0000      -0.431940       -11.7537
  60   2.0000      -0.427440       -11.6312
  61   2.0000      -0.418504       -11.3881
  62   2.0000      -0.411549       -11.1988
  63   2.0000      -0.337549        -9.1852
  64   2.0000      -0.324262        -8.8236
  65   2.0000      -0.319437        -8.6923
  66   2.0000      -0.308668        -8.3993
  67   0.0000       0.041135         1.1193
  68   0.0000       0.049467         1.3461
  69   0.0000       0.105657         2.8751
  70   0.0000       0.115986         3.1561
  71   0.0000       0.123488         3.3603

MULLIKEN ATOMIC CHARGES
-----------------------
   0 S :    0.101236
   1 C :   -0.161439
   2 C :   -0.092071
   3 C :    0.001614
   4 C :   -0.137267
   5 H :    0.016725
   6 C :    0.069631
   7 H :   -0.005127
   8 H :    0.056242
   9 C :   -0.058379
  10 H :    0.021727
  11 H :    0.024342
  12 C :    0.051799
  13 H :    0.014264
  14 H :    0.006871
  15 H :    0.013930
  16 S :    0.101716
  17 C :   -0.095516
  18 C :   -0.023611
  19 C :   -0.027602
  20 C :   -0.186082
  21 H :    0.031248
  22 C :    0.037588
  23 H :    0.026918
  24 H :    0.047453
  25 C :   -0.054100
  26 H :    0.036869
  27 H :    0.026110
  28 C :   -0.063127
  29 H :    0.035135
  30 H :    0.046173
  31 H :    0.018153
  32 H :    0.055365
  33 H :    0.063212
Sum of atomic charges:   -0.0000000

LOEWDIN ATOMIC CHARGES
----------------------
   0 S :    0.391797
   1 C :   -0.186873
   2 C :   -0.064805
   3 C :   -0.069701
   4 C :   -0.213172
   5 H :    0.029581
   6 C :   -0.023073
   7 H :    0.012997
   8 H :    0.046435
   9 C :   -0.030440
  10 H :    0.018082
  11 H :    0.025023
  12 C :   -0.036856
  13 H :    0.016259
  14 H :    0.021548
  15 H :    0.014196
  16 S :    0.374668
  17 C :   -0.164416
  18 C :   -0.072768
  19 C :   -0.043853
  20 C :   -0.192347
  21 H :    0.036945
  22 C :   -0.034071
  23 H :    0.028502
  24 H :    0.039278
  25 C :   -0.031451
  26 H :    0.023177
  27 H :    0.024367
  28 C :   -0.078163
  29 H :    0.025537
  30 H :    0.034232
  31 H :    0.024914
  32 H :    0.026369
  33 H :    0.028082

  Mayer bond orders larger than 0.100000
B(  0-S ,  1-C ) :   1.1294 B(  0-S ,  4-C ) :   1.1524 B(  1-C ,  2-C ) :   1.6064
B(  1-C , 32-H ) :   0.9715 B(  2-C ,  3-C ) :   1.2561 B(  2-C ,  6-C ) :   0.9969
B(  3-C ,  4-C ) :   1.5720 B(  3-C ,  5-H ) :   0.9861 B(  4-C , 20-C ) :   1.0177
B(  6-C ,  7-H ) :   0.9404 B(  6-C ,  8-H ) :   0.9334 B(  6-C ,  9-C ) :   1.0885
B(  9-C , 10-H ) :   0.9521 B(  9-C , 11-H ) :   0.9529 B(  9-C , 12-C ) :   1.0765
B( 12-C , 13-H ) :   0.9705 B( 12-C , 14-H ) :   0.9697 B( 12-C , 15-H ) :   0.9751
B( 16-S , 17-C ) :   1.1449 B( 16-S , 20-C ) :   1.1322 B( 17-C , 18-C ) :   1.6402
B( 17-C , 33-H ) :   0.9595 B( 18-C , 19-C ) :   1.2203 B( 18-C , 21-H ) :   0.9836
B( 19-C , 20-C ) :   1.6157 B( 19-C , 22-C ) :   1.0479 B( 22-C , 23-H ) :   0.9335
B( 22-C , 24-H ) :   0.9400 B( 22-C , 25-C ) :   1.0496 B( 25-C , 26-H ) :   0.9630
B( 25-C , 27-H ) :   0.9546 B( 25-C , 28-C ) :   1.0733 B( 28-C , 29-H ) :   0.9771
B( 28-C , 30-H ) :   0.9743 B( 28-C , 31-H ) :   0.9713

Dispersion correction           -0.013919574
FINAL SINGLE POINT ENERGY     -1339.861501108972

DIPOLE MOMENT
-------------
                                X             Y             Z
Electronic contribution:    -22.98127      13.93269       9.78812
Nuclear contribution   :     23.45657     -14.09722     -10.22328
                        -----------------------------------------
Total Dipole Moment    :      0.47530      -0.16453      -0.43516
                        -----------------------------------------
Magnitude (a.u.)       :      0.66509
Magnitude (Debye)      :      1.69051

Rotational constants in cm-1:     0.017774     0.008517     0.006437
Rotational constants in MHz :   532.840731   255.337427   192.982916

                             ****ORCA TERMINATED NORMALLY****
TOTAL RUN TIME: 0 days 0 hours 0 minutes 20 seconds 991 msec
