                         Program Version 4.2.1 -  RELEASE  -
|  1> ! wB97X-D3 SP def2-SVP
|  2> %pal
|  3> nprocs 24
|  4> end
|  5>
|  6> * xyz 0 1
|  7> S 	 -110.39 	 28.3068 	 -113.183
|  8> C 	 -108.726 	 27.8253 	 -112.928
|  9> C 	 -108.471 	 26.5164 	 -113.311
| 10> C 	 -109.646 	 25.847 	 -113.827
| 11> C 	 -110.724 	 26.7025 	 -113.96
| 12> H 	 -109.698 	 24.8292 	 -114.192
| 13> C 	 -107.083 	 25.9361 	 -113.184
| 14> H 	 -106.505 	 26.6715 	 -112.687
| 15> H 	 -106.649 	 25.9658 	 -114.183
| 16> C 	 -106.942 	 24.6084 	 -112.489
| 17> H 	 -107.498 	 23.8489 	 -113.096
| 18> H 	 -105.904 	 24.366 	 -112.476
| 19> C 	 -107.607 	 24.7487 	 -111.038
| 20> H 	 -107.112 	 25.6041 	 -110.504
| 21> H 	 -108.666 	 24.9985 	 -111.028
| 22> H 	 -107.474 	 23.8882 	 -110.49
| 23> S 	 -113.459 	 27.0571 	 -114.001
| 24> C 	 -114.354 	 26.5146 	 -115.388
| 25> C 	 -113.503 	 26.0095 	 -116.354
| 26> C 	 -112.121 	 25.9967 	 -116.011
| 27> C 	 -111.903 	 26.5097 	 -114.777
| 28> H 	 -113.887 	 25.6458 	 -117.302
| 29> C 	 -111.01 	 25.5649 	 -116.923
| 30> H 	 -111.225 	 24.6482 	 -117.327
| 31> H 	 -110.068 	 25.2601 	 -116.339
| 32> C 	 -110.756 	 26.4834 	 -118.128
| 33> H 	 -111.708 	 26.8271 	 -118.502
| 34> H 	 -110.266 	 25.8266 	 -118.849
| 35> C 	 -109.668 	 27.5621 	 -117.778
| 36> H 	 -108.839 	 27.1129 	 -117.193
| 37> H 	 -110.226 	 28.1199 	 -117.032
| 38> H 	 -109.304 	 28.2498 	 -118.612
| 39> H 	 -107.867 	 28.4063 	 -112.501
| 40> H 	 -115.416 	 26.5524 	 -115.534
| 41> *
| 42>
| 43>                          ****END OF INPUT****

CARTESIAN COORDINATES (ANGSTROEM)
---------------------------------
  S    -110.390000   28.306800  -113.183000
  C    -108.726000   27.825300  -112.928000
  C    -108.471000   26.516400  -113.311000
  C    -109.646000   25.847000  -113.827000
  C    -110.724000   26.702500  -113.960000
  H    -109.698000   24.829200  -114.192000
  C    -107.083000   25.936100  -113.184000
  H    -106.505000   26.671500  -112.687000
  H    -106.649000   25.965800  -114.183000
  C    -106.942000   24.608400  -112.489000
  H    -107.498000   23.848900  -113.096000
  H    -105.904000   24.366000  -112.476000
  C    -107.607000   24.748700  -111.038000
  H    -107.112000   25.604100  -110.504000
  H    -108.666000   24.998500  -111.028000
  H    -107.474000   23.888200  -110.490000
  S    -113.459000   27.057100  -114.001000
  C    -114.354000   26.514600  -115.388000
  C    -113.503000   26.009500  -116.354000
  C    -112.121000   25.996700  -116.011000
  C    -111.903000   26.509700  -114.777000
  H    -113.887000   25.645800  -117.302000
  C    -111.010000   25.564900  -116.923000
  H    -111.225000   24.648200  -117.327000
  H    -110.068000   25.260100  -116.339000
  C    -110.756000   26.483400  -118.128000
  H    -111.708000   26.827100  -118.502000
  H    -110.266000   25.826600  -118.849000
  C    -109.668000   27.562100  -117.778000
  H    -108.839000   27.112900  -117.193000
  H    -110.226000   28.119900  -117.032000
  H    -109.304000   28.249800  -118.612000
  H    -107.867000   28.406300  -112.501000
  H    -115.416000   26.552400  -115.534000

 Total Charge           Charge          ....    0
 Multiplicity           Mult            ....    1
 Number of Electrons    NEL             ....  134
 Basis Dimension        Dim             ....  322

ORBITAL ENERGIES
----------------

  NO   OCC          E(Eh)            E(eV)
   0   2.0000     -88.967762     -2420.9359
   1   2.0000     -88.963568     -2420.8218
   2   2.0000     -10.334436      -281.2143
   3   2.0000     -10.328206      -281.0448
   4   2.0000     -10.319301      -280.8024
   5   2.0000     -10.316015      -280.7130
   6   2.0000     -10.302817      -280.3539
   7   2.0000     -10.301342      -280.3138
   8   2.0000     -10.299590      -280.2661
   9   2.0000     -10.294987      -280.1408
  10   2.0000     -10.293070      -280.0887
  11   2.0000     -10.288621      -279.9676
  12   2.0000     -10.287608      -279.9400
  13   2.0000     -10.285703      -279.8882
  14   2.0000     -10.279246      -279.7125
  15   2.0000     -10.276192      -279.6294
  16   2.0000      -8.081355      -219.9049
  17   2.0000      -8.077814      -219.8085
  18   2.0000      -6.039991      -164.3565
  19   2.0000      -6.036427      -164.2595
  20   2.0000      -6.036195      -164.2532
  21   2.0000      -6.032448      -164.1512
  22   2.0000      -6.031860      -164.1352
  23   2.0000      -6.028436      -164.0421
  24   2.0000      -1.003216       -27.2989
  25   2.0000      -0.979815       -26.6621
  26   2.0000      -0.913210       -24.8497
  27   2.0000      -0.910669       -24.7806
  28   2.0000      -0.868059       -23.6211
  29   2.0000      -0.847411       -23.0592
  30   2.0000      -0.839022       -22.8309
  31   2.0000      -0.813586       -22.1388
  32   2.0000      -0.782957       -21.3053
  33   2.0000      -0.773665       -21.0525
  34   2.0000      -0.714795       -19.4506
  35   2.0000      -0.697406       -18.9774
  36   2.0000      -0.692987       -18.8571
  37   2.0000      -0.660929       -17.9848
  38   2.0000      -0.637508       -17.3475
  39   2.0000      -0.622595       -16.9417
  40   2.0000      -0.604303       -16.4439
  41   2.0000      -0.562042       -15.2939
  42   2.0000      -0.555596       -15.1185
  43   2.0000      -0.550891       -14.9905
  44   2.0000      -0.541030       -14.7222
  45   2.0000      -0.533643       -14.5212
  46   2.0000      -0.516202       -14.0466
  47   2.0000      -0.507490       -13.8095
  48   2.0000      -0.497553       -13.5391
  49   2.0000      -0.490711       -13.3529
  50   2.0000      -0.488412       -13.2904
  51   2.0000      -0.480901       -13.0860
  52   2.0000      -0.470889       -12.8135
  53   2.0000      -0.464159       -12.6304
  54   2.0000      -0.459547       -12.5049
  55   2.0000      -0.452137       -12.3033
  56   2.0000      -0.441346       -12.0096
  57   2.0000      -0.438909       -11.9433
  58   2.0000      -0.434910       -11.8345
  59   2.0000      -0.424655       -11.5554
  60   2.0000      -0.423874       -11.5342
  61   2.0000      -0.419598       -11.4178
  62   2.0000      -0.399026       -10.8580
  63   2.0000      -0.350981        -9.5507
  64   2.0000      -0.333280        -9.0690
  65   2.0000      -0.330480        -8.9928
  66   2.0000      -0.287956        -7.8357
  67   0.0000       0.024962         0.6793
  68   0.0000       0.066608         1.8125
  69   0.0000       0.103836         2.8255
  70   0.0000       0.118630         3.2281
  71   0.0000       0.132936         3.6174

MULLIKEN ATOMIC CHARGES
-----------------------
   0 S :    0.108282
   1 C :   -0.119509
   2 C :   -0.146080
   3 C :    0.029928
   4 C :   -0.122666
   5 H :    0.024014
   6 C :    0.087053
   7 H :   -0.009355
   8 H :    0.034395
   9 C :   -0.057140
  10 H :    0.035295
  11 H :    0.032809
  12 C :   -0.052356
  13 H :    0.028055
  14 H :    0.052599
  15 H :    0.021902
  16 S :    0.084510
  17 C :   -0.063639
  18 C :   -0.050773
  19 C :   -0.014380
  20 C :   -0.170011
  21 H :    0.013047
  22 C :    0.066320
  23 H :   -0.005901
  24 H :    0.021235
  25 C :   -0.054661
  26 H :    0.032560
  27 H :    0.023134
  28 C :   -0.060442
  29 H :    0.033534
  30 H :    0.027442
  31 H :    0.056113
  32 H :    0.060984
  33 H :    0.053704
Sum of atomic charges:   -0.0000000

LOEWDIN ATOMIC CHARGES
----------------------
   0 S :    0.376009
   1 C :   -0.209269
   2 C :   -0.062384
   3 C :   -0.060289
   4 C :   -0.169590
   5 H :    0.031639
   6 C :   -0.036266
   7 H :    0.020575
   8 H :    0.032786
   9 C :   -0.032711
  10 H :    0.025594
  11 H :    0.023787
  12 C :   -0.058975
  13 H :    0.030181
  14 H :    0.031543
  15 H :    0.011522
  16 S :    0.371795
  17 C :   -0.177743
  18 C :   -0.073594
  19 C :   -0.056518
  20 C :   -0.171041
  21 H :    0.028999
  22 C :   -0.031580
  23 H :    0.019286
  24 H :    0.039788
  25 C :   -0.029928
  26 H :    0.022889
  27 H :    0.020973
  28 C :   -0.075073
  29 H :    0.028645
  30 H :    0.025765
  31 H :    0.032727
  32 H :    0.040321
  33 H :    0.030137

  Mayer bond orders larger than 0.100000
B(  0-S ,  1-C ) :   1.1155 B(  0-S ,  4-C ) :   1.1249 B(  1-C ,  2-C ) :   1.6565
B(  1-C , 32-H ) :   0.9516 B(  2-C ,  3-C ) :   1.1982 B(  2-C ,  6-C ) :   1.0239
B(  3-C ,  4-C ) :   1.5983 B(  3-C ,  5-H ) :   0.9896 B(  4-C , 20-C ) :   1.0446
B(  6-C ,  7-H ) :   0.9309 B(  6-C ,  8-H ) :   0.9295 B(  6-C ,  9-C ) :   1.0757
B(  9-C , 10-H ) :   0.9545 B(  9-C , 11-H ) :   0.9559 B(  9-C , 12-C ) :   1.0621
B( 12-C , 13-H ) :   0.9774 B( 12-C , 14-H ) :   0.9734 B( 12-C , 15-H ) :   0.9781
B( 16-S , 17-C ) :   1.1458 B( 16-S , 20-C ) :   1.1062 B( 17-C , 18-C ) :   1.6263
B( 17-C , 33-H ) :   0.9689 B( 18-C , 19-C ) :   1.2139 B( 18-C , 21-H ) :   0.9871
B( 19-C , 20-C ) :   1.6375 B( 19-C , 22-C ) :   1.0474 B( 22-C , 23-H ) :   0.9138
B( 22-C , 24-H ) :   0.9291 B( 22-C , 25-C ) :   1.0706 B( 25-C , 26-H ) :   0.9596
B( 25-C , 27-H ) :   0.9562 B( 25-C , 28-C ) :   1.0590 B( 28-C , 29-H ) :   0.9731
B( 28-C , 30-H ) :   0.9780 B( 28-C , 31-H ) :   0.9754

Dispersion correction           -0.015596158
FINAL SINGLE POINT ENERGY     -1339.869253892537

DIPOLE MOMENT
-------------
                                X             Y             Z
Electronic contribution:    -20.17791      10.17471       7.01630
Nuclear contribution   :     20.60734     -10.65174      -7.42608
                        -----------------------------------------
Total Dipole Moment    :      0.42944      -0.47703      -0.40978
                        -----------------------------------------
Magnitude (a.u.)       :      0.76150
Magnitude (Debye)      :      1.93559

Rotational constants in cm-1:     0.020059     0.008925     0.007645
Rotational constants in MHz :   601.349429   267.560823   229.177418

                             ****ORCA TERMINATED NORMALLY****
TOTAL RUN TIME: 0 days 0 hours 0 minutes 21 seconds 389 msec
