                         Program Version 4.2.1 -  RELEASE  -
|  1> ! wB97X-D3 SP def2-SVP
|  2> %pal
|  3> nprocs 24
|  4> end
|  5>
|  6> * xyz 0 1
|  7> S 	 -50.7175 	 -48.6094 	 -81.5008
|  8> C 	 -49.7657 	 -50.0541 	 -81.7585
|  9> C 	 -50.4826 	 -51.0308 	 -82.4154
| 10> C 	 -51.7975 	 -50.6129 	 -82.796
| 11> C 	 -52.0959 	 -49.3193 	 -82.4262
| 12> H 	 -52.4784 	 -51.1713 	 -83.4044
| 13> C 	 -49.9318 	 -52.4498 	 -82.8311
| 14> H 	 -48.9028 	 -52.3033 	 -82.5037
| 15> H 	 -49.7945 	 -52.7502 	 -83.8475
| 16> C 	 -50.6143 	 -53.6383 	 -82.1168
| 17> H 	 -49.8109 	 -54.3196 	 -81.9288
| 18> H 	 -50.8513 	 -53.2447 	 -81.1176
| 19> C 	 -51.7675 	 -54.3129 	 -82.9306
| 20> H 	 -51.3878 	 -54.5412 	 -83.8896
| 21> H 	 -51.9471 	 -55.2062 	 -82.3159
| 22> H 	 -52.5803 	 -53.6126 	 -82.9859
| 23> S 	 -53.5285 	 -47.305 	 -81.3443
| 24> C 	 -55.1841 	 -47.0014 	 -81.7742
| 25> C 	 -55.6614 	 -47.8891 	 -82.7508
| 26> C 	 -54.5931 	 -48.7577 	 -83.1437
| 27> C 	 -53.4142 	 -48.6909 	 -82.3918
| 28> H 	 -56.6839 	 -47.7709 	 -83.1114
| 29> C 	 -54.8236 	 -49.7702 	 -84.3991
| 30> H 	 -55.8077 	 -49.9844 	 -84.7466
| 31> H 	 -54.6016 	 -50.7112 	 -83.9767
| 32> C 	 -53.9015 	 -49.4866 	 -85.5494
| 33> H 	 -52.8325 	 -49.6857 	 -85.2394
| 34> H 	 -54.0963 	 -48.4558 	 -85.8578
| 35> C 	 -54.227 	 -50.2339 	 -86.8344
| 36> H 	 -54.3017 	 -51.3046 	 -86.7399
| 37> H 	 -53.6126 	 -50.0497 	 -87.6742
| 38> H 	 -55.2103 	 -49.8367 	 -87.0843
| 39> H 	 -48.7432 	 -50.1922 	 -81.3859
| 40> H 	 -55.8172 	 -46.1927 	 -81.4118
| 41> *
| 42>
| 43>                          ****END OF INPUT****

CARTESIAN COORDINATES (ANGSTROEM)
---------------------------------
  S    -50.717500  -48.609400  -81.500800
  C    -49.765700  -50.054100  -81.758500
  C    -50.482600  -51.030800  -82.415400
  C    -51.797500  -50.612900  -82.796000
  C    -52.095900  -49.319300  -82.426200
  H    -52.478400  -51.171300  -83.404400
  C    -49.931800  -52.449800  -82.831100
  H    -48.902800  -52.303300  -82.503700
  H    -49.794500  -52.750200  -83.847500
  C    -50.614300  -53.638300  -82.116800
  H    -49.810900  -54.319600  -81.928800
  H    -50.851300  -53.244700  -81.117600
  C    -51.767500  -54.312900  -82.930600
  H    -51.387800  -54.541200  -83.889600
  H    -51.947100  -55.206200  -82.315900
  H    -52.580300  -53.612600  -82.985900
  S    -53.528500  -47.305000  -81.344300
  C    -55.184100  -47.001400  -81.774200
  C    -55.661400  -47.889100  -82.750800
  C    -54.593100  -48.757700  -83.143700
  C    -53.414200  -48.690900  -82.391800
  H    -56.683900  -47.770900  -83.111400
  C    -54.823600  -49.770200  -84.399100
  H    -55.807700  -49.984400  -84.746600
  H    -54.601600  -50.711200  -83.976700
  C    -53.901500  -49.486600  -85.549400
  H    -52.832500  -49.685700  -85.239400
  H    -54.096300  -48.455800  -85.857800
  C    -54.227000  -50.233900  -86.834400
  H    -54.301700  -51.304600  -86.739900
  H    -53.612600  -50.049700  -87.674200
  H    -55.210300  -49.836700  -87.084300
  H    -48.743200  -50.192200  -81.385900
  H    -55.817200  -46.192700  -81.411800

 Total Charge           Charge          ....    0
 Multiplicity           Mult            ....    1
 Number of Electrons    NEL             ....  134
 Basis Dimension        Dim             ....  322

ORBITAL ENERGIES
----------------

  NO   OCC          E(Eh)            E(eV)
   0   2.0000     -88.969846     -2420.9926
   1   2.0000     -88.967965     -2420.9414
   2   2.0000     -10.337465      -281.2967
   3   2.0000     -10.331816      -281.1430
   4   2.0000     -10.319638      -280.8116
   5   2.0000     -10.319258      -280.8013
   6   2.0000     -10.315460      -280.6979
   7   2.0000     -10.306184      -280.4455
   8   2.0000     -10.299741      -280.2702
   9   2.0000     -10.294083      -280.1162
  10   2.0000     -10.290733      -280.0251
  11   2.0000     -10.289529      -279.9923
  12   2.0000     -10.283872      -279.8384
  13   2.0000     -10.283076      -279.8167
  14   2.0000     -10.280838      -279.7558
  15   2.0000     -10.270620      -279.4778
  16   2.0000      -8.083680      -219.9681
  17   2.0000      -8.083038      -219.9507
  18   2.0000      -6.042405      -164.4222
  19   2.0000      -6.041526      -164.3983
  20   2.0000      -6.038424      -164.3139
  21   2.0000      -6.037473      -164.2880
  22   2.0000      -6.034152      -164.1976
  23   2.0000      -6.033827      -164.1888
  24   2.0000      -1.007034       -27.4028
  25   2.0000      -0.982150       -26.7257
  26   2.0000      -0.909627       -24.7522
  27   2.0000      -0.905730       -24.6462
  28   2.0000      -0.871633       -23.7183
  29   2.0000      -0.851965       -23.1831
  30   2.0000      -0.841324       -22.8936
  31   2.0000      -0.817331       -22.2407
  32   2.0000      -0.785884       -21.3850
  33   2.0000      -0.775270       -21.0962
  34   2.0000      -0.705774       -19.2051
  35   2.0000      -0.696450       -18.9514
  36   2.0000      -0.688967       -18.7478
  37   2.0000      -0.666701       -18.1419
  38   2.0000      -0.639698       -17.4071
  39   2.0000      -0.624420       -16.9913
  40   2.0000      -0.592358       -16.1189
  41   2.0000      -0.575067       -15.6484
  42   2.0000      -0.571519       -15.5518
  43   2.0000      -0.548650       -14.9295
  44   2.0000      -0.537593       -14.6286
  45   2.0000      -0.521555       -14.1922
  46   2.0000      -0.514923       -14.0118
  47   2.0000      -0.511238       -13.9115
  48   2.0000      -0.506865       -13.7925
  49   2.0000      -0.502792       -13.6817
  50   2.0000      -0.497926       -13.5493
  51   2.0000      -0.492088       -13.3904
  52   2.0000      -0.473431       -12.8827
  53   2.0000      -0.466641       -12.6979
  54   2.0000      -0.461836       -12.5672
  55   2.0000      -0.453353       -12.3364
  56   2.0000      -0.437723       -11.9111
  57   2.0000      -0.432685       -11.7740
  58   2.0000      -0.428292       -11.6544
  59   2.0000      -0.422794       -11.5048
  60   2.0000      -0.414780       -11.2867
  61   2.0000      -0.407841       -11.0979
  62   2.0000      -0.404131       -10.9970
  63   2.0000      -0.364152        -9.9091
  64   2.0000      -0.338953        -9.2234
  65   2.0000      -0.328825        -8.9478
  66   2.0000      -0.282440        -7.6856
  67   0.0000       0.016966         0.4617
  68   0.0000       0.079764         2.1705
  69   0.0000       0.092166         2.5080
  70   0.0000       0.120068         3.2672
  71   0.0000       0.131455         3.5771

MULLIKEN ATOMIC CHARGES
-----------------------
   0 S :    0.089187
   1 C :   -0.122941
   2 C :   -0.088730
   3 C :    0.016461
   4 C :   -0.095380
   5 H :    0.003793
   6 C :    0.057225
   7 H :    0.002206
   8 H :    0.024676
   9 C :   -0.098256
  10 H :    0.020976
  11 H :    0.029802
  12 C :   -0.004063
  13 H :    0.023487
  14 H :    0.048001
  15 H :    0.036838
  16 S :    0.092130
  17 C :   -0.095887
  18 C :   -0.034710
  19 C :   -0.059421
  20 C :   -0.108739
  21 H :    0.030892
  22 C :    0.082568
  23 H :   -0.002174
  24 H :    0.006047
  25 C :   -0.092540
  26 H :    0.049954
  27 H :    0.031979
  28 C :   -0.028701
  29 H :    0.019154
  30 H :    0.030010
  31 H :    0.016166
  32 H :    0.059267
  33 H :    0.060725
Sum of atomic charges:   -0.0000000

LOEWDIN ATOMIC CHARGES
----------------------
   0 S :    0.377730
   1 C :   -0.197945
   2 C :   -0.060463
   3 C :   -0.062220
   4 C :   -0.167133
   5 H :    0.025467
   6 C :   -0.033787
   7 H :    0.027241
   8 H :    0.023645
   9 C :   -0.042982
  10 H :    0.020246
  11 H :    0.025719
  12 C :   -0.051422
  13 H :    0.018953
  14 H :    0.036062
  15 H :    0.022607
  16 S :    0.418393
  17 C :   -0.189519
  18 C :   -0.075424
  19 C :   -0.046966
  20 C :   -0.199481
  21 H :    0.038704
  22 C :   -0.028364
  23 H :    0.023236
  24 H :    0.018783
  25 C :   -0.047384
  26 H :    0.028610
  27 H :    0.028621
  28 C :   -0.062300
  29 H :    0.017544
  30 H :    0.022426
  31 H :    0.024528
  32 H :    0.035003
  33 H :    0.031874

  Mayer bond orders larger than 0.100000
B(  0-S ,  1-C ) :   1.1272 B(  0-S ,  4-C ) :   1.1230 B(  1-C ,  2-C ) :   1.6384
B(  1-C , 32-H ) :   0.9575 B(  2-C ,  3-C ) :   1.2343 B(  2-C ,  6-C ) :   1.0151
B(  3-C ,  4-C ) :   1.5794 B(  3-C ,  5-H ) :   0.9899 B(  4-C , 20-C ) :   1.0838
B(  6-C ,  7-H ) :   0.9368 B(  6-C ,  8-H ) :   0.9512 B(  6-C ,  9-C ) :   1.0614
B(  9-C , 10-H ) :   0.9576 B(  9-C , 11-H ) :   0.9590 B(  9-C , 12-C ) :   1.0605
B( 12-C , 13-H ) :   0.9754 B( 12-C , 14-H ) :   0.9733 B( 12-C , 15-H ) :   0.9779
B( 16-S , 17-C ) :   1.1787 B( 16-S , 20-C ) :   1.1278 B( 17-C , 18-C ) :   1.5843
B( 17-C , 33-H ) :   0.9650 B( 18-C , 19-C ) :   1.2642 B( 18-C , 21-H ) :   0.9948
B( 19-C , 20-C ) :   1.5744 B( 19-C , 22-C ) :   1.0039 B( 22-C , 23-H ) :   0.9439
B( 22-C , 24-H ) :   0.9342 B( 22-C , 25-C ) :   1.0639 B( 25-C , 26-H ) :   0.9490
B( 25-C , 27-H ) :   0.9587 B( 25-C , 28-C ) :   1.0806 B( 28-C , 29-H ) :   0.9747
B( 28-C , 30-H ) :   0.9747 B( 28-C , 31-H ) :   0.9747

Dispersion correction           -0.014226736
FINAL SINGLE POINT ENERGY     -1339.851043727817

DIPOLE MOMENT
-------------
                                X             Y             Z
Electronic contribution:      2.73659      24.37943      18.07753
Nuclear contribution   :     -2.89699     -24.86832     -18.42841
                        -----------------------------------------
Total Dipole Moment    :     -0.16039      -0.48889      -0.35088
                        -----------------------------------------
Magnitude (a.u.)       :      0.62278
Magnitude (Debye)      :      1.58299

Rotational constants in cm-1:     0.016348     0.009842     0.007088
Rotational constants in MHz :   490.115397   295.042887   212.496077

                             ****ORCA TERMINATED NORMALLY****
TOTAL RUN TIME: 0 days 0 hours 0 minutes 20 seconds 730 msec
