                         Program Version 4.2.1 -  RELEASE  -
|  1> ! wB97X-D3 SP def2-SVP
|  2> %pal
|  3> nprocs 24
|  4> end
|  5>
|  6> * xyz 0 1
|  7> S 	 -116.209 	 16.9105 	 -106.962
|  8> C 	 -116.022 	 18.5265 	 -106.454
|  9> C 	 -116.706 	 19.3815 	 -107.333
| 10> C 	 -117.205 	 18.6621 	 -108.495
| 11> C 	 -117.007 	 17.3327 	 -108.472
| 12> H 	 -117.942 	 18.9835 	 -109.223
| 13> C 	 -116.866 	 20.9028 	 -107.181
| 14> H 	 -117.119 	 21.0864 	 -106.128
| 15> H 	 -117.686 	 21.2799 	 -107.693
| 16> C 	 -115.587 	 21.6287 	 -107.593
| 17> H 	 -114.691 	 21.0365 	 -107.37
| 18> H 	 -115.582 	 21.7628 	 -108.754
| 19> C 	 -115.297 	 23.0024 	 -106.89
| 20> H 	 -114.394 	 23.2971 	 -107.347
| 21> H 	 -115.99 	 23.7601 	 -107.243
| 22> H 	 -115.259 	 22.9016 	 -105.777
| 23> S 	 -118.416 	 14.9892 	 -108.546
| 24> C 	 -119.014 	 14.2925 	 -110.046
| 25> C 	 -118.767 	 15.1776 	 -111.099
| 26> C 	 -117.842 	 16.2093 	 -110.721
| 27> C 	 -117.675 	 16.3474 	 -109.347
| 28> H 	 -119.161 	 15.0633 	 -112.059
| 29> C 	 -117.372 	 17.1647 	 -111.808
| 30> H 	 -117.311 	 18.1234 	 -111.327
| 31> H 	 -118.164 	 17.292 	 -112.624
| 32> C 	 -116.038 	 16.7743 	 -112.496
| 33> H 	 -116.191 	 15.8745 	 -113.113
| 34> H 	 -115.326 	 16.1427 	 -111.963
| 35> C 	 -115.108 	 17.8578 	 -113.128
| 36> H 	 -114.542 	 17.327 	 -113.866
| 37> H 	 -114.509 	 18.4572 	 -112.388
| 38> H 	 -115.719 	 18.5653 	 -113.728
| 39> H 	 -115.46 	 18.8457 	 -105.553
| 40> H 	 -119.803 	 13.5408 	 -110.242
| 41> *
| 42>
| 43>                          ****END OF INPUT****

CARTESIAN COORDINATES (ANGSTROEM)
---------------------------------
  S    -116.209000   16.910500  -106.962000
  C    -116.022000   18.526500  -106.454000
  C    -116.706000   19.381500  -107.333000
  C    -117.205000   18.662100  -108.495000
  C    -117.007000   17.332700  -108.472000
  H    -117.942000   18.983500  -109.223000
  C    -116.866000   20.902800  -107.181000
  H    -117.119000   21.086400  -106.128000
  H    -117.686000   21.279900  -107.693000
  C    -115.587000   21.628700  -107.593000
  H    -114.691000   21.036500  -107.370000
  H    -115.582000   21.762800  -108.754000
  C    -115.297000   23.002400  -106.890000
  H    -114.394000   23.297100  -107.347000
  H    -115.990000   23.760100  -107.243000
  H    -115.259000   22.901600  -105.777000
  S    -118.416000   14.989200  -108.546000
  C    -119.014000   14.292500  -110.046000
  C    -118.767000   15.177600  -111.099000
  C    -117.842000   16.209300  -110.721000
  C    -117.675000   16.347400  -109.347000
  H    -119.161000   15.063300  -112.059000
  C    -117.372000   17.164700  -111.808000
  H    -117.311000   18.123400  -111.327000
  H    -118.164000   17.292000  -112.624000
  C    -116.038000   16.774300  -112.496000
  H    -116.191000   15.874500  -113.113000
  H    -115.326000   16.142700  -111.963000
  C    -115.108000   17.857800  -113.128000
  H    -114.542000   17.327000  -113.866000
  H    -114.509000   18.457200  -112.388000
  H    -115.719000   18.565300  -113.728000
  H    -115.460000   18.845700  -105.553000
  H    -119.803000   13.540800  -110.242000

 Total Charge           Charge          ....    0
 Multiplicity           Mult            ....    1
 Number of Electrons    NEL             ....  134
 Basis Dimension        Dim             ....  322

ORBITAL ENERGIES
----------------

  NO   OCC          E(Eh)            E(eV)
   0   2.0000     -88.967971     -2420.9416
   1   2.0000     -88.966189     -2420.8931
   2   2.0000     -10.332513      -281.1620
   3   2.0000     -10.329662      -281.0844
   4   2.0000     -10.319602      -280.8106
   5   2.0000     -10.319296      -280.8023
   6   2.0000     -10.308536      -280.5095
   7   2.0000     -10.304154      -280.3903
   8   2.0000     -10.297258      -280.2026
   9   2.0000     -10.294378      -280.1243
  10   2.0000     -10.292608      -280.0761
  11   2.0000     -10.291566      -280.0478
  12   2.0000     -10.288698      -279.9697
  13   2.0000     -10.284854      -279.8651
  14   2.0000     -10.283377      -279.8249
  15   2.0000     -10.279914      -279.7307
  16   2.0000      -8.082361      -219.9322
  17   2.0000      -8.081533      -219.9097
  18   2.0000      -6.041032      -164.3848
  19   2.0000      -6.040087      -164.3591
  20   2.0000      -6.036802      -164.2697
  21   2.0000      -6.035847      -164.2437
  22   2.0000      -6.033056      -164.1678
  23   2.0000      -6.032298      -164.1472
  24   2.0000      -1.010246       -27.4902
  25   2.0000      -0.986369       -26.8405
  26   2.0000      -0.907538       -24.6954
  27   2.0000      -0.899320       -24.4717
  28   2.0000      -0.872073       -23.7303
  29   2.0000      -0.850681       -23.1482
  30   2.0000      -0.843411       -22.9504
  31   2.0000      -0.819239       -22.2926
  32   2.0000      -0.781011       -21.2524
  33   2.0000      -0.770624       -20.9697
  34   2.0000      -0.705006       -19.1842
  35   2.0000      -0.695022       -18.9125
  36   2.0000      -0.692472       -18.8431
  37   2.0000      -0.667717       -18.1695
  38   2.0000      -0.647981       -17.6324
  39   2.0000      -0.616852       -16.7854
  40   2.0000      -0.589059       -16.0291
  41   2.0000      -0.573918       -15.6171
  42   2.0000      -0.557519       -15.1709
  43   2.0000      -0.542979       -14.7752
  44   2.0000      -0.528176       -14.3724
  45   2.0000      -0.523455       -14.2439
  46   2.0000      -0.520047       -14.1512
  47   2.0000      -0.513262       -13.9666
  48   2.0000      -0.507039       -13.7972
  49   2.0000      -0.502776       -13.6812
  50   2.0000      -0.490570       -13.3491
  51   2.0000      -0.484243       -13.1769
  52   2.0000      -0.473408       -12.8821
  53   2.0000      -0.469862       -12.7856
  54   2.0000      -0.462566       -12.5871
  55   2.0000      -0.443973       -12.0811
  56   2.0000      -0.442589       -12.0435
  57   2.0000      -0.438466       -11.9313
  58   2.0000      -0.427802       -11.6411
  59   2.0000      -0.420966       -11.4551
  60   2.0000      -0.417165       -11.3516
  61   2.0000      -0.414958       -11.2916
  62   2.0000      -0.387745       -10.5511
  63   2.0000      -0.358564        -9.7570
  64   2.0000      -0.330552        -8.9948
  65   2.0000      -0.325402        -8.8546
  66   2.0000      -0.291125        -7.9219
  67   0.0000       0.028374         0.7721
  68   0.0000       0.069247         1.8843
  69   0.0000       0.102107         2.7785
  70   0.0000       0.126947         3.4544
  71   0.0000       0.132236         3.5983

MULLIKEN ATOMIC CHARGES
-----------------------
   0 S :    0.109774
   1 C :   -0.124817
   2 C :   -0.122861
   3 C :    0.016395
   4 C :   -0.119634
   5 H :    0.029409
   6 C :    0.130160
   7 H :    0.020926
   8 H :    0.005706
   9 C :   -0.141624
  10 H :    0.035719
  11 H :    0.041464
  12 C :   -0.030452
  13 H :    0.022327
  14 H :    0.028256
  15 H :    0.050329
  16 S :    0.102255
  17 C :   -0.083503
  18 C :   -0.034805
  19 C :   -0.068667
  20 C :   -0.140554
  21 H :    0.005903
  22 C :    0.083349
  23 H :    0.004085
  24 H :    0.039537
  25 C :   -0.099501
  26 H :    0.009039
  27 H :    0.019942
  28 C :   -0.040303
  29 H :    0.029910
  30 H :    0.059640
  31 H :    0.023090
  32 H :    0.068732
  33 H :    0.070774
Sum of atomic charges:    0.0000000

LOEWDIN ATOMIC CHARGES
----------------------
   0 S :    0.418398
   1 C :   -0.214865
   2 C :   -0.056152
   3 C :   -0.070169
   4 C :   -0.193471
   5 H :    0.034589
   6 C :   -0.031207
   7 H :    0.031601
   8 H :    0.020993
   9 C :   -0.046500
  10 H :    0.022703
  11 H :    0.033632
  12 C :   -0.065297
  13 H :    0.022190
  14 H :    0.022824
  15 H :    0.031044
  16 S :    0.411395
  17 C :   -0.199650
  18 C :   -0.059789
  19 C :   -0.060818
  20 C :   -0.192665
  21 H :    0.021250
  22 C :   -0.032819
  23 H :    0.022330
  24 H :    0.038665
  25 C :   -0.066967
  26 H :    0.028135
  27 H :    0.030420
  28 C :   -0.065196
  29 H :    0.027110
  30 H :    0.034413
  31 H :    0.022204
  32 H :    0.040139
  33 H :    0.041531

  Mayer bond orders larger than 0.100000
B(  0-S ,  1-C ) :   1.1551 B(  0-S ,  4-C ) :   1.1440 B(  1-C ,  2-C ) :   1.5883
B(  1-C , 32-H ) :   0.9678 B(  2-C ,  3-C ) :   1.2477 B(  2-C ,  6-C ) :   1.0297
B(  3-C ,  4-C ) :   1.5998 B(  3-C ,  5-H ) :   0.9789 B(  4-C , 20-C ) :   1.0269
B(  6-C ,  7-H ) :   0.9435 B(  6-C ,  8-H ) :   0.9388 B(  6-C ,  9-C ) :   1.0470
B(  9-C , 10-H ) :   0.9673 B(  9-C , 11-H ) :   0.9537 B(  9-C , 12-C ) :   1.0750
B( 12-C , 13-H ) :   0.9731 B( 12-C , 14-H ) :   0.9752 B( 12-C , 15-H ) :   0.9755
B( 16-S , 17-C ) :   1.1499 B( 16-S , 20-C ) :   1.1391 B( 17-C , 18-C ) :   1.6075
B( 17-C , 33-H ) :   0.9588 B( 18-C , 19-C ) :   1.2512 B( 18-C , 21-H ) :   0.9909
B( 19-C , 20-C ) :   1.5994 B( 19-C , 22-C ) :   1.0403 B( 22-C , 23-H ) :   0.9407
B( 22-C , 24-H ) :   0.9412 B( 22-C , 25-C ) :   1.0309 B( 25-C , 26-H ) :   0.9468
B( 25-C , 27-H ) :   0.9512 B( 25-C , 28-C ) :   1.0727 B( 28-C , 29-H ) :   0.9720
B( 28-C , 30-H ) :   0.9762 B( 28-C , 31-H ) :   0.9781

Dispersion correction           -0.013375494
FINAL SINGLE POINT ENERGY     -1339.846924298909

DIPOLE MOMENT
-------------
                                X             Y             Z
Electronic contribution:     -9.98991     -24.20848      13.56498
Nuclear contribution   :      9.86497      24.76985     -13.88704
                        -----------------------------------------
Total Dipole Moment    :     -0.12495       0.56138      -0.32206
                        -----------------------------------------
Magnitude (a.u.)       :      0.65915
Magnitude (Debye)      :      1.67542

Rotational constants in cm-1:     0.018290     0.008090     0.006207
Rotational constants in MHz :   548.324848   242.517938   186.082107

                             ****ORCA TERMINATED NORMALLY****
TOTAL RUN TIME: 0 days 0 hours 0 minutes 19 seconds 760 msec
