                         Program Version 4.2.1 -  RELEASE  -
|  1> ! wB97X-D3 SP def2-SVP
|  2> %pal
|  3> nprocs 24
|  4> end
|  5>
|  6> * xyz 0 1
|  7> S 	 -68.1944 	 16.5816 	 -104.36
|  8> C 	 -69.7455 	 15.9743 	 -104.944
|  9> C 	 -69.5652 	 15.2304 	 -106.116
| 10> C 	 -68.1885 	 14.9415 	 -106.27
| 11> C 	 -67.3049 	 15.6457 	 -105.456
| 12> H 	 -67.8255 	 14.0976 	 -106.912
| 13> C 	 -70.6293 	 14.6309 	 -107.007
| 14> H 	 -70.2864 	 14.7926 	 -108.034
| 15> H 	 -71.4967 	 15.2085 	 -106.684
| 16> C 	 -70.9077 	 13.0848 	 -106.833
| 17> H 	 -69.9693 	 12.5104 	 -106.972
| 18> H 	 -71.1103 	 12.9891 	 -105.751
| 19> C 	 -71.9521 	 12.5184 	 -107.733
| 20> H 	 -72.9512 	 13.0047 	 -107.477
| 21> H 	 -71.6421 	 12.7418 	 -108.72
| 22> H 	 -72.109 	 11.4348 	 -107.655
| 23> S 	 -65.2271 	 13.8569 	 -105.259
| 24> C 	 -63.6358 	 14.4526 	 -105.116
| 25> C 	 -63.5297 	 15.8348 	 -105.175
| 26> C 	 -64.7788 	 16.4391 	 -105.449
| 27> C 	 -65.8227 	 15.4794 	 -105.381
| 28> H 	 -62.6228 	 16.433 	 -105.039
| 29> C 	 -64.8637 	 17.9527 	 -105.5
| 30> H 	 -65.074 	 18.3036 	 -104.417
| 31> H 	 -65.6639 	 18.3506 	 -106.126
| 32> C 	 -63.6877 	 18.7877 	 -105.994
| 33> H 	 -62.8555 	 18.5771 	 -105.356
| 34> H 	 -63.9812 	 19.8437 	 -105.865
| 35> C 	 -63.3915 	 18.6424 	 -107.53
| 36> H 	 -62.5054 	 19.2979 	 -107.785
| 37> H 	 -64.1626 	 18.8712 	 -108.166
| 38> H 	 -62.948 	 17.6599 	 -107.759
| 39> H 	 -70.6197 	 16.4772 	 -104.704
| 40> H 	 -62.7609 	 13.8093 	 -104.97
| 41> *
| 42>
| 43>                          ****END OF INPUT****

CARTESIAN COORDINATES (ANGSTROEM)
---------------------------------
  S    -68.194400   16.581600  -104.360000
  C    -69.745500   15.974300  -104.944000
  C    -69.565200   15.230400  -106.116000
  C    -68.188500   14.941500  -106.270000
  C    -67.304900   15.645700  -105.456000
  H    -67.825500   14.097600  -106.912000
  C    -70.629300   14.630900  -107.007000
  H    -70.286400   14.792600  -108.034000
  H    -71.496700   15.208500  -106.684000
  C    -70.907700   13.084800  -106.833000
  H    -69.969300   12.510400  -106.972000
  H    -71.110300   12.989100  -105.751000
  C    -71.952100   12.518400  -107.733000
  H    -72.951200   13.004700  -107.477000
  H    -71.642100   12.741800  -108.720000
  H    -72.109000   11.434800  -107.655000
  S    -65.227100   13.856900  -105.259000
  C    -63.635800   14.452600  -105.116000
  C    -63.529700   15.834800  -105.175000
  C    -64.778800   16.439100  -105.449000
  C    -65.822700   15.479400  -105.381000
  H    -62.622800   16.433000  -105.039000
  C    -64.863700   17.952700  -105.500000
  H    -65.074000   18.303600  -104.417000
  H    -65.663900   18.350600  -106.126000
  C    -63.687700   18.787700  -105.994000
  H    -62.855500   18.577100  -105.356000
  H    -63.981200   19.843700  -105.865000
  C    -63.391500   18.642400  -107.530000
  H    -62.505400   19.297900  -107.785000
  H    -64.162600   18.871200  -108.166000
  H    -62.948000   17.659900  -107.759000
  H    -70.619700   16.477200  -104.704000
  H    -62.760900   13.809300  -104.970000

 Total Charge           Charge          ....    0
 Multiplicity           Mult            ....    1
 Number of Electrons    NEL             ....  134
 Basis Dimension        Dim             ....  322

ORBITAL ENERGIES
----------------

  NO   OCC          E(Eh)            E(eV)
   0   2.0000     -88.971503     -2421.0377
   1   2.0000     -88.963753     -2420.8268
   2   2.0000     -10.328414      -281.0504
   3   2.0000     -10.326879      -281.0087
   4   2.0000     -10.315452      -280.6977
   5   2.0000     -10.309152      -280.5263
   6   2.0000     -10.305053      -280.4147
   7   2.0000     -10.300914      -280.3021
   8   2.0000     -10.296546      -280.1833
   9   2.0000     -10.295769      -280.1621
  10   2.0000     -10.292688      -280.0783
  11   2.0000     -10.290440      -280.0171
  12   2.0000     -10.290174      -280.0099
  13   2.0000     -10.289422      -279.9894
  14   2.0000     -10.280852      -279.7562
  15   2.0000     -10.277572      -279.6670
  16   2.0000      -8.086851      -220.0544
  17   2.0000      -8.079094      -219.8433
  18   2.0000      -6.045156      -164.4971
  19   2.0000      -6.041287      -164.3918
  20   2.0000      -6.037797      -164.2968
  21   2.0000      -6.037501      -164.2888
  22   2.0000      -6.033368      -164.1763
  23   2.0000      -6.030078      -164.0868
  24   2.0000      -1.009077       -27.4584
  25   2.0000      -0.988963       -26.9111
  26   2.0000      -0.911138       -24.7933
  27   2.0000      -0.909983       -24.7619
  28   2.0000      -0.867145       -23.5962
  29   2.0000      -0.853010       -23.2116
  30   2.0000      -0.844696       -22.9854
  31   2.0000      -0.808876       -22.0106
  32   2.0000      -0.785561       -21.3762
  33   2.0000      -0.773360       -21.0442
  34   2.0000      -0.705626       -19.2011
  35   2.0000      -0.697564       -18.9817
  36   2.0000      -0.687589       -18.7102
  37   2.0000      -0.661178       -17.9916
  38   2.0000      -0.634081       -17.2542
  39   2.0000      -0.615610       -16.7516
  40   2.0000      -0.604777       -16.4568
  41   2.0000      -0.572720       -15.5845
  42   2.0000      -0.560122       -15.2417
  43   2.0000      -0.548871       -14.9356
  44   2.0000      -0.537694       -14.6314
  45   2.0000      -0.524104       -14.2616
  46   2.0000      -0.519591       -14.1388
  47   2.0000      -0.513318       -13.9681
  48   2.0000      -0.499633       -13.5957
  49   2.0000      -0.493764       -13.4360
  50   2.0000      -0.490307       -13.3419
  51   2.0000      -0.481169       -13.0933
  52   2.0000      -0.476580       -12.9684
  53   2.0000      -0.469859       -12.7855
  54   2.0000      -0.458102       -12.4656
  55   2.0000      -0.452779       -12.3208
  56   2.0000      -0.445392       -12.1197
  57   2.0000      -0.435730       -11.8568
  58   2.0000      -0.427944       -11.6449
  59   2.0000      -0.421769       -11.4769
  60   2.0000      -0.419148       -11.4056
  61   2.0000      -0.416760       -11.3406
  62   2.0000      -0.414270       -11.2728
  63   2.0000      -0.339795        -9.2463
  64   2.0000      -0.332722        -9.0538
  65   2.0000      -0.326889        -8.8951
  66   2.0000      -0.292054        -7.9472
  67   0.0000       0.033563         0.9133
  68   0.0000       0.069615         1.8943
  69   0.0000       0.103114         2.8059
  70   0.0000       0.125003         3.4015
  71   0.0000       0.126431         3.4404

MULLIKEN ATOMIC CHARGES
-----------------------
   0 S :    0.106235
   1 C :   -0.101279
   2 C :   -0.112721
   3 C :   -0.021936
   4 C :   -0.130694
   5 H :    0.025991
   6 C :    0.073437
   7 H :    0.034996
   8 H :    0.022024
   9 C :   -0.100340
  10 H :    0.028119
  11 H :    0.029580
  12 C :   -0.022160
  13 H :    0.036670
  14 H :    0.022449
  15 H :    0.043311
  16 S :    0.141145
  17 C :   -0.092745
  18 C :   -0.045271
  19 C :   -0.006903
  20 C :   -0.167658
  21 H :    0.024239
  22 C :    0.009321
  23 H :    0.058008
  24 H :    0.028151
  25 C :   -0.084344
  26 H :    0.023931
  27 H :    0.037849
  28 C :   -0.044151
  29 H :    0.032905
  30 H :    0.026950
  31 H :    0.033749
  32 H :    0.031971
  33 H :    0.059170
Sum of atomic charges:   -0.0000000

LOEWDIN ATOMIC CHARGES
----------------------
   0 S :    0.429823
   1 C :   -0.193877
   2 C :   -0.059442
   3 C :   -0.082242
   4 C :   -0.214395
   5 H :    0.031539
   6 C :   -0.027627
   7 H :    0.033019
   8 H :    0.031668
   9 C :   -0.046076
  10 H :    0.023850
  11 H :    0.024597
  12 C :   -0.065547
  13 H :    0.033095
  14 H :    0.020174
  15 H :    0.031111
  16 S :    0.449209
  17 C :   -0.202962
  18 C :   -0.074215
  19 C :   -0.056247
  20 C :   -0.209989
  21 H :    0.034231
  22 C :   -0.044979
  23 H :    0.046216
  24 H :    0.029893
  25 C :   -0.039707
  26 H :    0.014746
  27 H :    0.032630
  28 C :   -0.063295
  29 H :    0.033765
  30 H :    0.013082
  31 H :    0.027780
  32 H :    0.009773
  33 H :    0.030400

  Mayer bond orders larger than 0.100000
B(  0-S ,  1-C ) :   1.1505 B(  0-S ,  4-C ) :   1.1820 B(  1-C ,  2-C ) :   1.5808
B(  1-C ,  4-C ) :   0.1014 B(  1-C , 32-H ) :   0.9670 B(  2-C ,  3-C ) :   1.2679
B(  2-C ,  6-C ) :   1.0319 B(  3-C ,  4-C ) :   1.5566 B(  3-C ,  5-H ) :   0.9828
B(  4-C , 20-C ) :   1.0014 B(  6-C ,  7-H ) :   0.9346 B(  6-C ,  8-H ) :   0.9382
B(  6-C ,  9-C ) :   1.0591 B(  9-C , 10-H ) :   0.9547 B(  9-C , 11-H ) :   0.9548
B(  9-C , 12-C ) :   1.0837 B( 12-C , 13-H ) :   0.9735 B( 12-C , 14-H ) :   0.9713
B( 12-C , 15-H ) :   0.9722 B( 16-S , 17-C ) :   1.1811 B( 16-S , 20-C ) :   1.1683
B( 17-C , 18-C ) :   1.5720 B( 17-C , 20-C ) :   0.1001 B( 17-C , 33-H ) :   0.9637
B( 18-C , 19-C ) :   1.2801 B( 18-C , 21-H ) :   0.9834 B( 19-C , 20-C ) :   1.5580
B( 19-C , 22-C ) :   1.0366 B( 22-C , 23-H ) :   0.9342 B( 22-C , 24-H ) :   0.9367
B( 22-C , 25-C ) :   1.0841 B( 25-C , 26-H ) :   0.9507 B( 25-C , 27-H ) :   0.9533
B( 25-C , 28-C ) :   1.0758 B( 28-C , 29-H ) :   0.9743 B( 28-C , 30-H ) :   0.9770
B( 28-C , 31-H ) :   0.9754

Dispersion correction           -0.013652794
FINAL SINGLE POINT ENERGY     -1339.871595516167

DIPOLE MOMENT
-------------
                                X             Y             Z
Electronic contribution:      5.31189      -3.73563      13.55858
Nuclear contribution   :     -5.25118       3.81843     -13.83772
                        -----------------------------------------
Total Dipole Moment    :      0.06072       0.08280      -0.27913
                        -----------------------------------------
Magnitude (a.u.)       :      0.29742
Magnitude (Debye)      :      0.75598

Rotational constants in cm-1:     0.023232     0.006759     0.006122
Rotational constants in MHz :   696.481386   202.635126   183.535923

                             ****ORCA TERMINATED NORMALLY****
TOTAL RUN TIME: 0 days 0 hours 0 minutes 20 seconds 709 msec
