                         Program Version 4.2.1 -  RELEASE  -
|  1> ! wB97X-D3 SP def2-SVP
|  2> %pal
|  3> nprocs 24
|  4> end
|  5>
|  6> * xyz 0 1
|  7> S 	 -103.055 	 -1.42787 	 -120.614
|  8> C 	 -104.684 	 -0.994675 	 -120.811
|  9> C 	 -105.292 	 -0.652113 	 -119.631
| 10> C 	 -104.396 	 -0.887997 	 -118.521
| 11> C 	 -103.113 	 -1.14565 	 -118.913
| 12> H 	 -104.647 	 -0.641369 	 -117.517
| 13> C 	 -106.648 	 -0.0348184 	 -119.494
| 14> H 	 -106.978 	 -0.299745 	 -118.535
| 15> H 	 -107.292 	 -0.561164 	 -120.315
| 16> C 	 -106.731 	 1.47335 	 -119.702
| 17> H 	 -105.927 	 2.00532 	 -119.049
| 18> H 	 -106.558 	 1.67726 	 -120.738
| 19> C 	 -108.102 	 1.93291 	 -119.318
| 20> H 	 -108.797 	 1.41306 	 -119.983
| 21> H 	 -108.232 	 1.57688 	 -118.285
| 22> H 	 -108.278 	 2.95735 	 -119.203
| 23> S 	 -101.624 	 0.844423 	 -117.614
| 24> C 	 -100.113 	 0.456772 	 -116.836
| 25> C 	 -99.9026 	 -0.906602 	 -116.948
| 26> C 	 -100.875 	 -1.58115 	 -117.778
| 27> C 	 -101.915 	 -0.787131 	 -118.157
| 28> H 	 -98.9988 	 -1.44653 	 -116.454
| 29> C 	 -100.664 	 -3.06918 	 -118.128
| 30> H 	 -101.685 	 -3.37021 	 -118.318
| 31> H 	 -100.244 	 -3.54356 	 -117.232
| 32> C 	 -99.8327 	 -3.29714 	 -119.38
| 33> H 	 -100.494 	 -3.17685 	 -120.201
| 34> H 	 -99.5479 	 -4.38022 	 -119.487
| 35> C 	 -98.5103 	 -2.61783 	 -119.596
| 36> H 	 -98.5474 	 -1.51464 	 -119.446
| 37> H 	 -98.1987 	 -2.78405 	 -120.676
| 38> H 	 -97.7617 	 -2.91681 	 -118.884
| 39> H 	 -105.255 	 -0.727773 	 -121.685
| 40> H 	 -99.486 	 1.07035 	 -116.244
| 41> *
| 42>
| 43>                          ****END OF INPUT****

CARTESIAN COORDINATES (ANGSTROEM)
---------------------------------
  S    -103.055000   -1.427870  -120.614000
  C    -104.684000   -0.994675  -120.811000
  C    -105.292000   -0.652113  -119.631000
  C    -104.396000   -0.887997  -118.521000
  C    -103.113000   -1.145650  -118.913000
  H    -104.647000   -0.641369  -117.517000
  C    -106.648000   -0.034818  -119.494000
  H    -106.978000   -0.299745  -118.535000
  H    -107.292000   -0.561164  -120.315000
  C    -106.731000    1.473350  -119.702000
  H    -105.927000    2.005320  -119.049000
  H    -106.558000    1.677260  -120.738000
  C    -108.102000    1.932910  -119.318000
  H    -108.797000    1.413060  -119.983000
  H    -108.232000    1.576880  -118.285000
  H    -108.278000    2.957350  -119.203000
  S    -101.624000    0.844423  -117.614000
  C    -100.113000    0.456772  -116.836000
  C    -99.902600   -0.906602  -116.948000
  C    -100.875000   -1.581150  -117.778000
  C    -101.915000   -0.787131  -118.157000
  H    -98.998800   -1.446530  -116.454000
  C    -100.664000   -3.069180  -118.128000
  H    -101.685000   -3.370210  -118.318000
  H    -100.244000   -3.543560  -117.232000
  C    -99.832700   -3.297140  -119.380000
  H    -100.494000   -3.176850  -120.201000
  H    -99.547900   -4.380220  -119.487000
  C    -98.510300   -2.617830  -119.596000
  H    -98.547400   -1.514640  -119.446000
  H    -98.198700   -2.784050  -120.676000
  H    -97.761700   -2.916810  -118.884000
  H    -105.255000   -0.727773  -121.685000
  H    -99.486000    1.070350  -116.244000

 Total Charge           Charge          ....    0
 Multiplicity           Mult            ....    1
 Number of Electrons    NEL             ....  134
 Basis Dimension        Dim             ....  322

ORBITAL ENERGIES
----------------

  NO   OCC          E(Eh)            E(eV)
   0   2.0000     -88.968058     -2420.9439
   1   2.0000     -88.965430     -2420.8724
   2   2.0000     -10.325307      -280.9659
   3   2.0000     -10.323606      -280.9196
   4   2.0000     -10.316537      -280.7273
   5   2.0000     -10.306546      -280.4554
   6   2.0000     -10.299902      -280.2746
   7   2.0000     -10.297833      -280.2183
   8   2.0000     -10.296322      -280.1772
   9   2.0000     -10.294948      -280.1398
  10   2.0000     -10.292711      -280.0789
  11   2.0000     -10.290232      -280.0114
  12   2.0000     -10.289052      -279.9794
  13   2.0000     -10.279455      -279.7182
  14   2.0000     -10.275960      -279.6231
  15   2.0000     -10.273746      -279.5628
  16   2.0000      -8.083803      -219.9715
  17   2.0000      -8.080107      -219.8709
  18   2.0000      -6.042229      -164.4174
  19   2.0000      -6.038728      -164.3221
  20   2.0000      -6.038157      -164.3066
  21   2.0000      -6.034586      -164.2094
  22   2.0000      -6.034541      -164.2082
  23   2.0000      -6.030816      -164.1069
  24   2.0000      -1.014733       -27.6123
  25   2.0000      -0.990288       -26.9471
  26   2.0000      -0.921991       -25.0887
  27   2.0000      -0.907400       -24.6916
  28   2.0000      -0.874409       -23.7939
  29   2.0000      -0.856118       -23.2962
  30   2.0000      -0.844021       -22.9670
  31   2.0000      -0.817313       -22.2402
  32   2.0000      -0.783239       -21.3130
  33   2.0000      -0.773690       -21.0532
  34   2.0000      -0.707082       -19.2407
  35   2.0000      -0.701052       -19.0766
  36   2.0000      -0.688114       -18.7245
  37   2.0000      -0.660289       -17.9674
  38   2.0000      -0.642292       -17.4777
  39   2.0000      -0.614450       -16.7200
  40   2.0000      -0.585756       -15.9392
  41   2.0000      -0.577395       -15.7117
  42   2.0000      -0.569431       -15.4950
  43   2.0000      -0.559931       -15.2365
  44   2.0000      -0.544002       -14.8030
  45   2.0000      -0.532905       -14.5011
  46   2.0000      -0.519545       -14.1375
  47   2.0000      -0.511159       -13.9094
  48   2.0000      -0.504988       -13.7414
  49   2.0000      -0.502339       -13.6693
  50   2.0000      -0.486083       -13.2270
  51   2.0000      -0.482390       -13.1265
  52   2.0000      -0.472557       -12.8589
  53   2.0000      -0.463814       -12.6210
  54   2.0000      -0.460320       -12.5259
  55   2.0000      -0.449902       -12.2425
  56   2.0000      -0.436470       -11.8769
  57   2.0000      -0.433320       -11.7912
  58   2.0000      -0.429761       -11.6944
  59   2.0000      -0.427490       -11.6326
  60   2.0000      -0.423396       -11.5212
  61   2.0000      -0.419256       -11.4085
  62   2.0000      -0.397951       -10.8288
  63   2.0000      -0.338718        -9.2170
  64   2.0000      -0.334923        -9.1137
  65   2.0000      -0.325714        -8.8631
  66   2.0000      -0.302676        -8.2362
  67   0.0000       0.036916         1.0045
  68   0.0000       0.060133         1.6363
  69   0.0000       0.108201         2.9443
  70   0.0000       0.123679         3.3655
  71   0.0000       0.129154         3.5145

MULLIKEN ATOMIC CHARGES
-----------------------
   0 S :    0.131691
   1 C :   -0.075288
   2 C :   -0.146593
   3 C :    0.049448
   4 C :   -0.170341
   5 H :    0.000501
   6 C :    0.034800
   7 H :    0.004834
   8 H :    0.041706
   9 C :   -0.071188
  10 H :    0.044347
  11 H :    0.020490
  12 C :    0.001602
  13 H :    0.028394
  14 H :    0.014638
  15 H :    0.026562
  16 S :    0.116161
  17 C :   -0.077545
  18 C :   -0.068071
  19 C :   -0.088620
  20 C :   -0.136792
  21 H :    0.050068
  22 C :    0.110376
  23 H :    0.026670
  24 H :    0.027794
  25 C :   -0.062566
  26 H :    0.010162
  27 H :    0.029488
  28 C :   -0.064818
  29 H :    0.039982
  30 H :    0.046696
  31 H :    0.024938
  32 H :    0.035162
  33 H :    0.045315
Sum of atomic charges:   -0.0000000

LOEWDIN ATOMIC CHARGES
----------------------
   0 S :    0.443401
   1 C :   -0.215978
   2 C :   -0.065331
   3 C :   -0.051646
   4 C :   -0.206603
   5 H :    0.025015
   6 C :   -0.032472
   7 H :    0.019904
   8 H :    0.042500
   9 C :   -0.040856
  10 H :    0.034405
  11 H :    0.017529
  12 C :   -0.060989
  13 H :    0.027801
  14 H :    0.027147
  15 H :    0.018510
  16 S :    0.413195
  17 C :   -0.187257
  18 C :   -0.083028
  19 C :   -0.060207
  20 C :   -0.208921
  21 H :    0.043978
  22 C :   -0.026516
  23 H :    0.031082
  24 H :    0.030508
  25 C :   -0.050336
  26 H :    0.014184
  27 H :    0.032589
  28 C :   -0.072537
  29 H :    0.026131
  30 H :    0.038514
  31 H :    0.019593
  32 H :    0.030238
  33 H :    0.026451

  Mayer bond orders larger than 0.100000
B(  0-S ,  1-C ) :   1.1435 B(  0-S ,  4-C ) :   1.1618 B(  1-C ,  2-C ) :   1.6294
B(  1-C , 32-H ) :   0.9596 B(  2-C ,  3-C ) :   1.2409 B(  2-C ,  6-C ) :   1.0288
B(  3-C ,  4-C ) :   1.5706 B(  3-C ,  5-H ) :   1.0041 B(  4-C , 20-C ) :   1.0203
B(  6-C ,  7-H ) :   0.9377 B(  6-C ,  8-H ) :   0.9367 B(  6-C ,  9-C ) :   1.0630
B(  9-C , 10-H ) :   0.9534 B(  9-C , 11-H ) :   0.9514 B(  9-C , 12-C ) :   1.0839
B( 12-C , 13-H ) :   0.9697 B( 12-C , 14-H ) :   0.9715 B( 12-C , 15-H ) :   0.9732
B( 16-S , 17-C ) :   1.1539 B( 16-S , 20-C ) :   1.1252 B( 17-C , 18-C ) :   1.6103
B( 17-C , 33-H ) :   0.9724 B( 18-C , 19-C ) :   1.2471 B( 18-C , 21-H ) :   0.9715
B( 19-C , 20-C ) :   1.6150 B( 19-C , 22-C ) :   1.0244 B( 22-C , 23-H ) :   0.9264
B( 22-C , 24-H ) :   0.9377 B( 22-C , 25-C ) :   1.0791 B( 25-C , 26-H ) :   0.9496
B( 25-C , 27-H ) :   0.9503 B( 25-C , 28-C ) :   1.0872 B( 28-C , 29-H ) :   0.9678
B( 28-C , 30-H ) :   0.9708 B( 28-C , 31-H ) :   0.9735

Dispersion correction           -0.014817971
FINAL SINGLE POINT ENERGY     -1339.865947143858

DIPOLE MOMENT
-------------
                                X             Y             Z
Electronic contribution:      6.23318       1.82178       2.10028
Nuclear contribution   :     -6.41855      -1.71278      -1.97116
                        -----------------------------------------
Total Dipole Moment    :     -0.18537       0.10900       0.12912
                        -----------------------------------------
Magnitude (a.u.)       :      0.25083
Magnitude (Debye)      :      0.63757

Rotational constants in cm-1:     0.026218     0.007678     0.006406
Rotational constants in MHz :   785.999245   230.181206   192.053146

                             ****ORCA TERMINATED NORMALLY****
TOTAL RUN TIME: 0 days 0 hours 0 minutes 20 seconds 379 msec
