                         Program Version 4.2.1 -  RELEASE  -
|  1> ! wB97X-D3 SP def2-SVP
|  2> %pal
|  3> nprocs 24
|  4> end
|  5>
|  6> * xyz 0 1
|  7> S 	 -74.1163 	 1.9609 	 -67.6351
|  8> C 	 -72.5214 	 1.9012 	 -66.844
|  9> C 	 -72.3127 	 0.712492 	 -66.131
| 10> C 	 -73.4717 	 -0.106295 	 -66.1843
| 11> C 	 -74.5271 	 0.333019 	 -66.982
| 12> H 	 -73.4947 	 -1.17927 	 -65.7503
| 13> C 	 -71.2372 	 0.260131 	 -65.2057
| 14> H 	 -70.6067 	 -0.375848 	 -65.8846
| 15> H 	 -71.7406 	 -0.477976 	 -64.5169
| 16> C 	 -70.3729 	 1.28778 	 -64.3714
| 17> H 	 -70.0592 	 2.1175 	 -64.9246
| 18> H 	 -71.0154 	 1.80219 	 -63.5607
| 19> C 	 -69.0705 	 0.655443 	 -63.7678
| 20> H 	 -68.3167 	 0.199123 	 -64.4241
| 21> H 	 -68.3845 	 1.46047 	 -63.564
| 22> H 	 -69.107 	 0.0444026 	 -62.9066
| 23> S 	 -75.7414 	 -1.84893 	 -67.8692
| 24> C 	 -77.4181 	 -1.98047 	 -68.042
| 25> C 	 -78.0024 	 -0.781389 	 -67.705
| 26> C 	 -77.0844 	 0.210293 	 -67.27
| 27> C 	 -75.8023 	 -0.283602 	 -67.1919
| 28> H 	 -79.0538 	 -0.689312 	 -67.7929
| 29> C 	 -77.4584 	 1.55997 	 -66.6674
| 30> H 	 -76.6795 	 2.21739 	 -66.9273
| 31> H 	 -77.5229 	 1.40152 	 -65.5872
| 32> C 	 -78.7081 	 2.12753 	 -67.2194
| 33> H 	 -79.592 	 1.57184 	 -66.974
| 34> H 	 -78.7294 	 2.23715 	 -68.2655
| 35> C 	 -78.886 	 3.61482 	 -66.7587
| 36> H 	 -78.1636 	 4.14415 	 -67.4125
| 37> H 	 -78.8322 	 3.90392 	 -65.7289
| 38> H 	 -79.8945 	 3.94788 	 -67.1272
| 39> H 	 -71.7555 	 2.62507 	 -66.998
| 40> H 	 -77.9196 	 -2.82301 	 -68.4893
| 41> *
| 42>
| 43>                          ****END OF INPUT****

CARTESIAN COORDINATES (ANGSTROEM)
---------------------------------
  S    -74.116300    1.960900  -67.635100
  C    -72.521400    1.901200  -66.844000
  C    -72.312700    0.712492  -66.131000
  C    -73.471700   -0.106295  -66.184300
  C    -74.527100    0.333019  -66.982000
  H    -73.494700   -1.179270  -65.750300
  C    -71.237200    0.260131  -65.205700
  H    -70.606700   -0.375848  -65.884600
  H    -71.740600   -0.477976  -64.516900
  C    -70.372900    1.287780  -64.371400
  H    -70.059200    2.117500  -64.924600
  H    -71.015400    1.802190  -63.560700
  C    -69.070500    0.655443  -63.767800
  H    -68.316700    0.199123  -64.424100
  H    -68.384500    1.460470  -63.564000
  H    -69.107000    0.044403  -62.906600
  S    -75.741400   -1.848930  -67.869200
  C    -77.418100   -1.980470  -68.042000
  C    -78.002400   -0.781389  -67.705000
  C    -77.084400    0.210293  -67.270000
  C    -75.802300   -0.283602  -67.191900
  H    -79.053800   -0.689312  -67.792900
  C    -77.458400    1.559970  -66.667400
  H    -76.679500    2.217390  -66.927300
  H    -77.522900    1.401520  -65.587200
  C    -78.708100    2.127530  -67.219400
  H    -79.592000    1.571840  -66.974000
  H    -78.729400    2.237150  -68.265500
  C    -78.886000    3.614820  -66.758700
  H    -78.163600    4.144150  -67.412500
  H    -78.832200    3.903920  -65.728900
  H    -79.894500    3.947880  -67.127200
  H    -71.755500    2.625070  -66.998000
  H    -77.919600   -2.823010  -68.489300

 Total Charge           Charge          ....    0
 Multiplicity           Mult            ....    1
 Number of Electrons    NEL             ....  134
 Basis Dimension        Dim             ....  322

ORBITAL ENERGIES
----------------

  NO   OCC          E(Eh)            E(eV)
   0   2.0000     -88.967826     -2420.9376
   1   2.0000     -88.960801     -2420.7465
   2   2.0000     -10.332088      -281.1504
   3   2.0000     -10.317065      -280.7416
   4   2.0000     -10.315997      -280.7125
   5   2.0000     -10.310301      -280.5575
   6   2.0000     -10.302642      -280.3491
   7   2.0000     -10.302318      -280.3403
   8   2.0000     -10.302271      -280.3391
   9   2.0000     -10.298489      -280.2361
  10   2.0000     -10.296921      -280.1935
  11   2.0000     -10.287681      -279.9420
  12   2.0000     -10.281262      -279.7674
  13   2.0000     -10.278441      -279.6906
  14   2.0000     -10.278389      -279.6892
  15   2.0000     -10.276296      -279.6322
  16   2.0000      -8.080723      -219.8876
  17   2.0000      -8.077603      -219.8028
  18   2.0000      -6.039399      -164.3404
  19   2.0000      -6.035853      -164.2439
  20   2.0000      -6.035541      -164.2354
  21   2.0000      -6.031653      -164.1296
  22   2.0000      -6.031370      -164.1219
  23   2.0000      -6.028658      -164.0481
  24   2.0000      -1.014456       -27.6047
  25   2.0000      -0.980891       -26.6914
  26   2.0000      -0.916547       -24.9405
  27   2.0000      -0.904384       -24.6095
  28   2.0000      -0.871047       -23.7024
  29   2.0000      -0.852416       -23.1954
  30   2.0000      -0.847548       -23.0630
  31   2.0000      -0.809802       -22.0358
  32   2.0000      -0.781627       -21.2692
  33   2.0000      -0.772125       -21.0106
  34   2.0000      -0.720289       -19.6001
  35   2.0000      -0.704737       -19.1769
  36   2.0000      -0.699331       -19.0298
  37   2.0000      -0.657917       -17.9028
  38   2.0000      -0.630382       -17.1536
  39   2.0000      -0.611936       -16.6516
  40   2.0000      -0.598233       -16.2787
  41   2.0000      -0.579514       -15.7694
  42   2.0000      -0.568997       -15.4832
  43   2.0000      -0.554793       -15.0967
  44   2.0000      -0.531001       -14.4493
  45   2.0000      -0.520634       -14.1672
  46   2.0000      -0.512282       -13.9399
  47   2.0000      -0.511546       -13.9199
  48   2.0000      -0.505358       -13.7515
  49   2.0000      -0.501200       -13.6384
  50   2.0000      -0.493268       -13.4225
  51   2.0000      -0.476005       -12.9528
  52   2.0000      -0.474411       -12.9094
  53   2.0000      -0.468390       -12.7455
  54   2.0000      -0.458497       -12.4763
  55   2.0000      -0.446733       -12.1562
  56   2.0000      -0.442207       -12.0331
  57   2.0000      -0.439803       -11.9676
  58   2.0000      -0.430824       -11.7233
  59   2.0000      -0.424342       -11.5469
  60   2.0000      -0.418963       -11.4006
  61   2.0000      -0.416771       -11.3409
  62   2.0000      -0.404636       -11.0107
  63   2.0000      -0.348681        -9.4881
  64   2.0000      -0.329662        -8.9705
  65   2.0000      -0.328192        -8.9306
  66   2.0000      -0.288115        -7.8400
  67   0.0000       0.028167         0.7665
  68   0.0000       0.073559         2.0017
  69   0.0000       0.103183         2.8078
  70   0.0000       0.123433         3.3588
  71   0.0000       0.133865         3.6427

MULLIKEN ATOMIC CHARGES
-----------------------
   0 S :    0.098410
   1 C :   -0.129821
   2 C :   -0.049454
   3 C :   -0.043331
   4 C :   -0.128209
   5 H :    0.048739
   6 C :    0.025123
   7 H :    0.048846
   8 H :    0.046077
   9 C :   -0.047873
  10 H :    0.016512
  11 H :    0.050844
  12 C :   -0.056337
  13 H :    0.021977
  14 H :    0.012441
  15 H :    0.037647
  16 S :    0.116052
  17 C :   -0.084445
  18 C :   -0.038900
  19 C :   -0.073334
  20 C :   -0.147886
  21 H :    0.002638
  22 C :    0.144015
  23 H :   -0.004233
  24 H :    0.051540
  25 C :   -0.090295
  26 H :    0.023501
  27 H :    0.017407
  28 C :   -0.064692
  29 H :    0.035330
  30 H :    0.039734
  31 H :    0.025867
  32 H :    0.039701
  33 H :    0.056408
Sum of atomic charges:    0.0000000

LOEWDIN ATOMIC CHARGES
----------------------
   0 S :    0.380971
   1 C :   -0.189382
   2 C :   -0.067374
   3 C :   -0.074482
   4 C :   -0.179541
   5 H :    0.044102
   6 C :   -0.041807
   7 H :    0.043512
   8 H :    0.039939
   9 C :   -0.035151
  10 H :    0.015787
  11 H :    0.040872
  12 C :   -0.078530
  13 H :    0.031996
  14 H :    0.029626
  15 H :    0.019723
  16 S :    0.458073
  17 C :   -0.203000
  18 C :   -0.072036
  19 C :   -0.059755
  20 C :   -0.218880
  21 H :    0.024011
  22 C :   -0.025366
  23 H :    0.012142
  24 H :    0.042432
  25 C :   -0.038178
  26 H :    0.016149
  27 H :    0.021876
  28 C :   -0.064166
  29 H :    0.028331
  30 H :    0.019123
  31 H :    0.027906
  32 H :    0.020514
  33 H :    0.030563

  Mayer bond orders larger than 0.100000
B(  0-S ,  1-C ) :   1.1307 B(  0-S ,  4-C ) :   1.1188 B(  1-C ,  2-C ) :   1.6086
B(  1-C , 32-H ) :   0.9697 B(  2-C ,  3-C ) :   1.2533 B(  2-C ,  6-C ) :   1.0077
B(  3-C ,  4-C ) :   1.5857 B(  3-C ,  5-H ) :   0.9686 B(  4-C , 20-C ) :   1.0596
B(  6-C ,  7-H ) :   0.9287 B(  6-C ,  8-H ) :   0.9520 B(  6-C ,  9-C ) :   1.0529
B(  9-C , 10-H ) :   0.9592 B(  9-C , 11-H ) :   0.9565 B(  9-C , 12-C ) :   1.0741
B( 12-C , 13-H ) :   0.9696 B( 12-C , 14-H ) :   0.9685 B( 12-C , 15-H ) :   0.9831
B( 16-S , 17-C ) :   1.1871 B( 16-S , 20-C ) :   1.1714 B( 17-C , 18-C ) :   1.5566
B( 17-C , 33-H ) :   0.9701 B( 18-C , 19-C ) :   1.2689 B( 18-C , 21-H ) :   1.0030
B( 19-C , 20-C ) :   1.5504 B( 19-C , 22-C ) :   1.0308 B( 22-C , 23-H ) :   0.9188
B( 22-C , 24-H ) :   0.9303 B( 22-C , 25-C ) :   1.0883 B( 25-C , 26-H ) :   0.9482
B( 25-C , 27-H ) :   0.9585 B( 25-C , 28-C ) :   1.0768 B( 28-C , 29-H ) :   0.9795
B( 28-C , 30-H ) :   0.9785 B( 28-C , 31-H ) :   0.9746

Dispersion correction           -0.013323353
FINAL SINGLE POINT ENERGY     -1339.855989460463

DIPOLE MOMENT
-------------
                                X             Y             Z
Electronic contribution:     -4.99586     -11.29513     -13.53916
Nuclear contribution   :      5.11432      11.33859      13.78427
                        -----------------------------------------
Total Dipole Moment    :      0.11846       0.04346       0.24510
                        -----------------------------------------
Magnitude (a.u.)       :      0.27568
Magnitude (Debye)      :      0.70072

Rotational constants in cm-1:     0.021992     0.006982     0.005765
Rotational constants in MHz :   659.296149   209.304802   172.822469

                             ****ORCA TERMINATED NORMALLY****
TOTAL RUN TIME: 0 days 0 hours 0 minutes 20 seconds 689 msec
