                         Program Version 4.2.1 -  RELEASE  -
|  1> ! wB97X-D3 SP def2-SVP
|  2> %pal
|  3> nprocs 24
|  4> end
|  5>
|  6> * xyz 0 1
|  7> S 	 -63.0567 	 9.05803 	 22.8449
|  8> C 	 -61.8909 	 9.9224 	 21.9118
|  9> C 	 -60.7155 	 9.22151 	 21.7643
| 10> C 	 -60.6748 	 8.07542 	 22.5955
| 11> C 	 -61.9494 	 7.69717 	 23.0038
| 12> H 	 -59.7283 	 7.51343 	 22.9357
| 13> C 	 -59.4585 	 9.70832 	 21.0788
| 14> H 	 -59.6678 	 10.5366 	 20.41
| 15> H 	 -59.116 	 8.88737 	 20.4283
| 16> C 	 -58.4398 	 10.1743 	 22.0664
| 17> H 	 -58.8684 	 10.5393 	 22.9706
| 18> H 	 -57.8809 	 9.29755 	 22.3776
| 19> C 	 -57.4228 	 11.2365 	 21.4957
| 20> H 	 -56.6469 	 11.5241 	 22.1838
| 21> H 	 -56.8682 	 10.9349 	 20.6243
| 22> H 	 -57.9453 	 12.0872 	 21.1821
| 23> S 	 -62.224 	 6.24913 	 25.2679
| 24> C 	 -62.2175 	 4.4502 	 25.204
| 25> C 	 -62.2224 	 4.03278 	 23.8873
| 26> C 	 -62.1027 	 5.1085 	 22.9703
| 27> C 	 -62.253 	 6.38177 	 23.5281
| 28> H 	 -62.0532 	 2.95965 	 23.6019
| 29> C 	 -62.0826 	 4.90405 	 21.4593
| 30> H 	 -61.0813 	 4.47059 	 21.2982
| 31> H 	 -62.2126 	 5.90919 	 21.0624
| 32> C 	 -63.2423 	 4.01999 	 20.9196
| 33> H 	 -64.1776 	 4.57748 	 20.9848
| 34> H 	 -63.5415 	 3.23187 	 21.4946
| 35> C 	 -63.1612 	 3.61067 	 19.4793
| 36> H 	 -64.0614 	 3.03788 	 19.2259
| 37> H 	 -62.2526 	 3.02809 	 19.351
| 38> H 	 -63.0386 	 4.51684 	 18.844
| 39> H 	 -62.0377 	 10.9798 	 21.6073
| 40> H 	 -62.2848 	 3.84146 	 26.1125
| 41> *
| 42>
| 43>                          ****END OF INPUT****

CARTESIAN COORDINATES (ANGSTROEM)
---------------------------------
  S    -63.056700    9.058030   22.844900
  C    -61.890900    9.922400   21.911800
  C    -60.715500    9.221510   21.764300
  C    -60.674800    8.075420   22.595500
  C    -61.949400    7.697170   23.003800
  H    -59.728300    7.513430   22.935700
  C    -59.458500    9.708320   21.078800
  H    -59.667800   10.536600   20.410000
  H    -59.116000    8.887370   20.428300
  C    -58.439800   10.174300   22.066400
  H    -58.868400   10.539300   22.970600
  H    -57.880900    9.297550   22.377600
  C    -57.422800   11.236500   21.495700
  H    -56.646900   11.524100   22.183800
  H    -56.868200   10.934900   20.624300
  H    -57.945300   12.087200   21.182100
  S    -62.224000    6.249130   25.267900
  C    -62.217500    4.450200   25.204000
  C    -62.222400    4.032780   23.887300
  C    -62.102700    5.108500   22.970300
  C    -62.253000    6.381770   23.528100
  H    -62.053200    2.959650   23.601900
  C    -62.082600    4.904050   21.459300
  H    -61.081300    4.470590   21.298200
  H    -62.212600    5.909190   21.062400
  C    -63.242300    4.019990   20.919600
  H    -64.177600    4.577480   20.984800
  H    -63.541500    3.231870   21.494600
  C    -63.161200    3.610670   19.479300
  H    -64.061400    3.037880   19.225900
  H    -62.252600    3.028090   19.351000
  H    -63.038600    4.516840   18.844000
  H    -62.037700   10.979800   21.607300
  H    -62.284800    3.841460   26.112500

 Total Charge           Charge          ....    0
 Multiplicity           Mult            ....    1
 Number of Electrons    NEL             ....  134
 Basis Dimension        Dim             ....  322

ORBITAL ENERGIES
----------------

  NO   OCC          E(Eh)            E(eV)
   0   2.0000     -88.966280     -2420.8956
   1   2.0000     -88.960092     -2420.7272
   2   2.0000     -10.327371      -281.0221
   3   2.0000     -10.325032      -280.9584
   4   2.0000     -10.322048      -280.8772
   5   2.0000     -10.314639      -280.6756
   6   2.0000     -10.302316      -280.3403
   7   2.0000     -10.300205      -280.2828
   8   2.0000     -10.298859      -280.2462
   9   2.0000     -10.298102      -280.2256
  10   2.0000     -10.291271      -280.0397
  11   2.0000     -10.289011      -279.9782
  12   2.0000     -10.283603      -279.8311
  13   2.0000     -10.275574      -279.6126
  14   2.0000     -10.273678      -279.5610
  15   2.0000     -10.272986      -279.5422
  16   2.0000      -8.081221      -219.9012
  17   2.0000      -8.074535      -219.7193
  18   2.0000      -6.039614      -164.3462
  19   2.0000      -6.035781      -164.2420
  20   2.0000      -6.033076      -164.1683
  21   2.0000      -6.032016      -164.1395
  22   2.0000      -6.029002      -164.0575
  23   2.0000      -6.025358      -163.9583
  24   2.0000      -1.007035       -27.4028
  25   2.0000      -0.983645       -26.7664
  26   2.0000      -0.915300       -24.9066
  27   2.0000      -0.906244       -24.6602
  28   2.0000      -0.870365       -23.6838
  29   2.0000      -0.850477       -23.1427
  30   2.0000      -0.847348       -23.0575
  31   2.0000      -0.811939       -22.0940
  32   2.0000      -0.782181       -21.2842
  33   2.0000      -0.765381       -20.8271
  34   2.0000      -0.710302       -19.3283
  35   2.0000      -0.701157       -19.0794
  36   2.0000      -0.695691       -18.9307
  37   2.0000      -0.657406       -17.8889
  38   2.0000      -0.638677       -17.3793
  39   2.0000      -0.617684       -16.8080
  40   2.0000      -0.592910       -16.1339
  41   2.0000      -0.570757       -15.5311
  42   2.0000      -0.560149       -15.2424
  43   2.0000      -0.556545       -15.1444
  44   2.0000      -0.534268       -14.5382
  45   2.0000      -0.524564       -14.2741
  46   2.0000      -0.516004       -14.0412
  47   2.0000      -0.507884       -13.8202
  48   2.0000      -0.504359       -13.7243
  49   2.0000      -0.503251       -13.6942
  50   2.0000      -0.491949       -13.3866
  51   2.0000      -0.475237       -12.9319
  52   2.0000      -0.468056       -12.7365
  53   2.0000      -0.465587       -12.6693
  54   2.0000      -0.464872       -12.6498
  55   2.0000      -0.447791       -12.1850
  56   2.0000      -0.445033       -12.1100
  57   2.0000      -0.442219       -12.0334
  58   2.0000      -0.434776       -11.8309
  59   2.0000      -0.425754       -11.5854
  60   2.0000      -0.415239       -11.2992
  61   2.0000      -0.413197       -11.2437
  62   2.0000      -0.407729       -11.0949
  63   2.0000      -0.337841        -9.1931
  64   2.0000      -0.328369        -8.9354
  65   2.0000      -0.315132        -8.5752
  66   2.0000      -0.304650        -8.2900
  67   0.0000       0.034099         0.9279
  68   0.0000       0.057718         1.5706
  69   0.0000       0.117005         3.1839
  70   0.0000       0.121627         3.3096
  71   0.0000       0.127470         3.4686

MULLIKEN ATOMIC CHARGES
-----------------------
   0 S :    0.122399
   1 C :   -0.129892
   2 C :   -0.106676
   3 C :   -0.000322
   4 C :   -0.184630
   5 H :    0.060817
   6 C :    0.086528
   7 H :    0.008246
   8 H :    0.038075
   9 C :   -0.066621
  10 H :    0.033008
  11 H :    0.024396
  12 C :   -0.034018
  13 H :    0.031119
  14 H :    0.020360
  15 H :    0.019744
  16 S :    0.083198
  17 C :   -0.106112
  18 C :   -0.027756
  19 C :   -0.079963
  20 C :   -0.146534
  21 H :    0.046227
  22 C :    0.092331
  23 H :    0.033884
  24 H :    0.040612
  25 C :   -0.062075
  26 H :    0.014813
  27 H :   -0.002763
  28 C :   -0.040451
  29 H :    0.041388
  30 H :    0.023561
  31 H :    0.033269
  32 H :    0.063902
  33 H :    0.069935
Sum of atomic charges:    0.0000000

LOEWDIN ATOMIC CHARGES
----------------------
   0 S :    0.410400
   1 C :   -0.209424
   2 C :   -0.069473
   3 C :   -0.057293
   4 C :   -0.210821
   5 H :    0.050177
   6 C :   -0.031938
   7 H :    0.024826
   8 H :    0.035966
   9 C :   -0.035049
  10 H :    0.023445
  11 H :    0.023167
  12 C :   -0.060684
  13 H :    0.026487
  14 H :    0.023529
  15 H :    0.016205
  16 S :    0.387227
  17 C :   -0.165009
  18 C :   -0.082932
  19 C :   -0.052146
  20 C :   -0.211912
  21 H :    0.043344
  22 C :   -0.024350
  23 H :    0.033132
  24 H :    0.035440
  25 C :   -0.045751
  26 H :    0.029431
  27 H :    0.007950
  28 C :   -0.061529
  29 H :    0.030710
  30 H :    0.019787
  31 H :    0.028174
  32 H :    0.036125
  33 H :    0.032792

  Mayer bond orders larger than 0.100000
B(  0-S ,  1-C ) :   1.1452 B(  0-S ,  4-C ) :   1.1485 B(  1-C ,  2-C ) :   1.6068
B(  1-C , 32-H ) :   0.9626 B(  2-C ,  3-C ) :   1.2425 B(  2-C ,  6-C ) :   1.0341
B(  3-C ,  4-C ) :   1.5632 B(  3-C ,  5-H ) :   0.9813 B(  4-C , 20-C ) :   1.0187
B(  6-C ,  7-H ) :   0.9474 B(  6-C ,  8-H ) :   0.9308 B(  6-C ,  9-C ) :   1.0511
B(  9-C , 10-H ) :   0.9639 B(  9-C , 11-H ) :   0.9486 B(  9-C , 12-C ) :   1.0834
B( 12-C , 13-H ) :   0.9758 B( 12-C , 14-H ) :   0.9746 B( 12-C , 15-H ) :   0.9767
B( 16-S , 17-C ) :   1.1639 B( 16-S , 20-C ) :   1.1397 B( 17-C , 18-C ) :   1.5913
B( 17-C , 20-C ) :   0.1038 B( 17-C , 33-H ) :   0.9665 B( 18-C , 19-C ) :   1.2560
B( 18-C , 21-H ) :   0.9761 B( 19-C , 20-C ) :   1.5967 B( 19-C , 22-C ) :   1.0352
B( 22-C , 23-H ) :   0.9298 B( 22-C , 24-H ) :   0.9412 B( 22-C , 25-C ) :   1.0553
B( 25-C , 26-H ) :   0.9454 B( 25-C , 27-H ) :   0.9558 B( 25-C , 28-C ) :   1.0926
B( 28-C , 29-H ) :   0.9714 B( 28-C , 30-H ) :   0.9763 B( 28-C , 31-H ) :   0.9738

Dispersion correction           -0.013942874
FINAL SINGLE POINT ENERGY     -1339.860023830402

DIPOLE MOMENT
-------------
                                X             Y             Z
Electronic contribution:    -13.67560       1.50938      19.49040
Nuclear contribution   :     14.20690      -1.66242     -19.79539
                        -----------------------------------------
Total Dipole Moment    :      0.53130      -0.15304      -0.30500
                        -----------------------------------------
Magnitude (a.u.)       :      0.63144
Magnitude (Debye)      :      1.60500

Rotational constants in cm-1:     0.018084     0.007691     0.006725
Rotational constants in MHz :   542.138833   230.582026   201.609241

                             ****ORCA TERMINATED NORMALLY****
TOTAL RUN TIME: 0 days 0 hours 0 minutes 21 seconds 294 msec
