                         Program Version 4.2.1 -  RELEASE  -
|  1> ! wB97X-D3 SP def2-SVP
|  2> %pal
|  3> nprocs 24
|  4> end
|  5>
|  6> * xyz 0 1
|  7> S 	 39.3501 	 -26.5549 	 -127.845
|  8> C 	 39.2878 	 -25.1248 	 -126.818
|  9> C 	 40.557 	 -24.6479 	 -126.492
| 10> C 	 41.5215 	 -25.5121 	 -127.02
| 11> C 	 41.1294 	 -26.6281 	 -127.764
| 12> H 	 42.5448 	 -25.3748 	 -126.943
| 13> C 	 40.9321 	 -23.3622 	 -125.817
| 14> H 	 41.2842 	 -23.5698 	 -124.802
| 15> H 	 40.0688 	 -22.6422 	 -125.821
| 16> C 	 42.0943 	 -22.588 	 -126.549
| 17> H 	 42.8605 	 -23.2779 	 -126.502
| 18> H 	 41.8196 	 -22.4208 	 -127.57
| 19> C 	 42.5929 	 -21.3823 	 -125.819
| 20> H 	 43.5111 	 -20.9496 	 -126.243
| 21> H 	 41.9058 	 -20.5871 	 -125.863
| 22> H 	 42.7553 	 -21.6457 	 -124.767
| 23> S 	 41.3648 	 -28.1417 	 -130.128
| 24> C 	 42.9564 	 -28.6965 	 -130.578
| 25> C 	 43.8481 	 -28.4887 	 -129.544
| 26> C 	 43.3556 	 -27.8666 	 -128.357
| 27> C 	 41.9986 	 -27.5521 	 -128.523
| 28> H 	 44.8952 	 -28.686 	 -129.716
| 29> C 	 44.2448 	 -27.6597 	 -127.168
| 30> H 	 43.6385 	 -27.6494 	 -126.211
| 31> H 	 44.6232 	 -26.6672 	 -127.463
| 32> C 	 45.4089 	 -28.6737 	 -126.88
| 33> H 	 45.8943 	 -28.961 	 -127.753
| 34> H 	 44.8684 	 -29.5039 	 -126.505
| 35> C 	 46.3065 	 -28.098 	 -125.764
| 36> H 	 45.7369 	 -27.5148 	 -125.057
| 37> H 	 47.0346 	 -27.4065 	 -126.176
| 38> H 	 46.8504 	 -28.9788 	 -125.313
| 39> H 	 38.4016 	 -24.5085 	 -126.634
| 40> H 	 43.1162 	 -28.9747 	 -131.586
| 41> *
| 42>
| 43>                          ****END OF INPUT****

CARTESIAN COORDINATES (ANGSTROEM)
---------------------------------
  S     39.350100  -26.554900  -127.845000
  C     39.287800  -25.124800  -126.818000
  C     40.557000  -24.647900  -126.492000
  C     41.521500  -25.512100  -127.020000
  C     41.129400  -26.628100  -127.764000
  H     42.544800  -25.374800  -126.943000
  C     40.932100  -23.362200  -125.817000
  H     41.284200  -23.569800  -124.802000
  H     40.068800  -22.642200  -125.821000
  C     42.094300  -22.588000  -126.549000
  H     42.860500  -23.277900  -126.502000
  H     41.819600  -22.420800  -127.570000
  C     42.592900  -21.382300  -125.819000
  H     43.511100  -20.949600  -126.243000
  H     41.905800  -20.587100  -125.863000
  H     42.755300  -21.645700  -124.767000
  S     41.364800  -28.141700  -130.128000
  C     42.956400  -28.696500  -130.578000
  C     43.848100  -28.488700  -129.544000
  C     43.355600  -27.866600  -128.357000
  C     41.998600  -27.552100  -128.523000
  H     44.895200  -28.686000  -129.716000
  C     44.244800  -27.659700  -127.168000
  H     43.638500  -27.649400  -126.211000
  H     44.623200  -26.667200  -127.463000
  C     45.408900  -28.673700  -126.880000
  H     45.894300  -28.961000  -127.753000
  H     44.868400  -29.503900  -126.505000
  C     46.306500  -28.098000  -125.764000
  H     45.736900  -27.514800  -125.057000
  H     47.034600  -27.406500  -126.176000
  H     46.850400  -28.978800  -125.313000
  H     38.401600  -24.508500  -126.634000
  H     43.116200  -28.974700  -131.586000

 Total Charge           Charge          ....    0
 Multiplicity           Mult            ....    1
 Number of Electrons    NEL             ....  134
 Basis Dimension        Dim             ....  322

ORBITAL ENERGIES
----------------

  NO   OCC          E(Eh)            E(eV)
   0   2.0000     -88.966372     -2420.8981
   1   2.0000     -88.963946     -2420.8320
   2   2.0000     -10.337078      -281.2862
   3   2.0000     -10.334024      -281.2031
   4   2.0000     -10.318413      -280.7783
   5   2.0000     -10.315929      -280.7107
   6   2.0000     -10.309487      -280.5354
   7   2.0000     -10.302942      -280.3573
   8   2.0000     -10.298624      -280.2398
   9   2.0000     -10.298445      -280.2349
  10   2.0000     -10.295190      -280.1464
  11   2.0000     -10.286604      -279.9127
  12   2.0000     -10.286414      -279.9076
  13   2.0000     -10.284118      -279.8451
  14   2.0000     -10.278231      -279.6849
  15   2.0000     -10.275439      -279.6089
  16   2.0000      -8.080029      -219.8688
  17   2.0000      -8.078089      -219.8160
  18   2.0000      -6.038675      -164.3207
  19   2.0000      -6.036630      -164.2650
  20   2.0000      -6.034646      -164.2111
  21   2.0000      -6.032746      -164.1594
  22   2.0000      -6.030764      -164.1054
  23   2.0000      -6.028788      -164.0517
  24   2.0000      -0.999339       -27.1934
  25   2.0000      -0.980426       -26.6787
  26   2.0000      -0.914736       -24.8912
  27   2.0000      -0.912684       -24.8354
  28   2.0000      -0.868999       -23.6467
  29   2.0000      -0.857412       -23.3314
  30   2.0000      -0.845336       -23.0028
  31   2.0000      -0.810443       -22.0533
  32   2.0000      -0.782474       -21.2922
  33   2.0000      -0.772440       -21.0192
  34   2.0000      -0.716784       -19.5047
  35   2.0000      -0.706563       -19.2266
  36   2.0000      -0.694309       -18.8931
  37   2.0000      -0.657284       -17.8856
  38   2.0000      -0.638944       -17.3866
  39   2.0000      -0.622180       -16.9304
  40   2.0000      -0.605696       -16.4818
  41   2.0000      -0.580827       -15.8051
  42   2.0000      -0.571734       -15.5577
  43   2.0000      -0.560439       -15.2503
  44   2.0000      -0.534225       -14.5370
  45   2.0000      -0.522382       -14.2147
  46   2.0000      -0.518902       -14.1200
  47   2.0000      -0.509936       -13.8761
  48   2.0000      -0.502608       -13.6766
  49   2.0000      -0.497043       -13.5252
  50   2.0000      -0.493724       -13.4349
  51   2.0000      -0.479098       -13.0369
  52   2.0000      -0.476398       -12.9634
  53   2.0000      -0.469050       -12.7635
  54   2.0000      -0.459426       -12.5016
  55   2.0000      -0.452384       -12.3100
  56   2.0000      -0.451048       -12.2736
  57   2.0000      -0.439456       -11.9582
  58   2.0000      -0.433689       -11.8013
  59   2.0000      -0.428894       -11.6708
  60   2.0000      -0.426206       -11.5976
  61   2.0000      -0.413623       -11.2552
  62   2.0000      -0.409110       -11.1324
  63   2.0000      -0.355648        -9.6777
  64   2.0000      -0.332705        -9.0534
  65   2.0000      -0.328302        -8.9335
  66   2.0000      -0.278869        -7.5884
  67   0.0000       0.018742         0.5100
  68   0.0000       0.075024         2.0415
  69   0.0000       0.103214         2.8086
  70   0.0000       0.123027         3.3477
  71   0.0000       0.134533         3.6608

MULLIKEN ATOMIC CHARGES
-----------------------
   0 S :    0.096835
   1 C :   -0.126840
   2 C :   -0.051562
   3 C :    0.011352
   4 C :   -0.124618
   5 H :   -0.040694
   6 C :    0.045657
   7 H :    0.036697
   8 H :    0.029691
   9 C :   -0.071973
  10 H :    0.011167
  11 H :    0.034324
  12 C :   -0.014721
  13 H :    0.035144
  14 H :    0.015244
  15 H :    0.024336
  16 S :    0.079688
  17 C :   -0.078843
  18 C :   -0.043203
  19 C :   -0.032885
  20 C :   -0.132541
  21 H :    0.016982
  22 C :   -0.034034
  23 H :    0.057543
  24 H :    0.055269
  25 C :   -0.012132
  26 H :    0.016966
  27 H :    0.028906
  28 C :   -0.053665
  29 H :    0.032353
  30 H :    0.033615
  31 H :    0.050140
  32 H :    0.052011
  33 H :    0.053792
Sum of atomic charges:    0.0000000

LOEWDIN ATOMIC CHARGES
----------------------
   0 S :    0.386641
   1 C :   -0.194864
   2 C :   -0.068866
   3 C :   -0.063220
   4 C :   -0.181694
   5 H :    0.011766
   6 C :   -0.026290
   7 H :    0.032493
   8 H :    0.031627
   9 C :   -0.032173
  10 H :    0.010871
  11 H :    0.023938
  12 C :   -0.059311
  13 H :    0.031263
  14 H :    0.016114
  15 H :    0.027707
  16 S :    0.372769
  17 C :   -0.172699
  18 C :   -0.074445
  19 C :   -0.055000
  20 C :   -0.173609
  21 H :    0.027708
  22 C :   -0.040178
  23 H :    0.042561
  24 H :    0.036619
  25 C :   -0.026633
  26 H :    0.011612
  27 H :    0.024847
  28 C :   -0.060577
  29 H :    0.024128
  30 H :    0.025010
  31 H :    0.036667
  32 H :    0.032030
  33 H :    0.023187

  Mayer bond orders larger than 0.100000
B(  0-S ,  1-C ) :   1.1484 B(  0-S ,  4-C ) :   1.1336 B(  1-C ,  2-C ) :   1.5887
B(  1-C , 32-H ) :   0.9605 B(  2-C ,  3-C ) :   1.2687 B(  2-C ,  6-C ) :   1.0284
B(  3-C ,  4-C ) :   1.5583 B(  3-C ,  5-H ) :   0.9966 B(  4-C , 20-C ) :   1.0726
B(  6-C ,  7-H ) :   0.9291 B(  6-C ,  8-H ) :   0.9487 B(  6-C ,  9-C ) :   1.0669
B(  9-C , 10-H ) :   0.9477 B(  9-C , 11-H ) :   0.9597 B(  9-C , 12-C ) :   1.0960
B( 12-C , 13-H ) :   0.9709 B( 12-C , 14-H ) :   0.9741 B( 12-C , 15-H ) :   0.9686
B( 16-S , 17-C ) :   1.1542 B( 16-S , 20-C ) :   1.1240 B( 17-C , 18-C ) :   1.5976
B( 17-C , 33-H ) :   0.9754 B( 18-C , 19-C ) :   1.2422 B( 18-C , 21-H ) :   0.9882
B( 19-C , 20-C ) :   1.5900 B( 19-C , 22-C ) :   1.0152 B( 22-C , 23-H ) :   0.9441
B( 22-C , 24-H ) :   0.9234 B( 22-C , 25-C ) :   1.0597 B( 25-C , 26-H ) :   0.9528
B( 25-C , 27-H ) :   0.9574 B( 25-C , 28-C ) :   1.0767 B( 28-C , 29-H ) :   0.9737
B( 28-C , 30-H ) :   0.9775 B( 28-C , 31-H ) :   0.9744

Dispersion correction           -0.013244588
FINAL SINGLE POINT ENERGY     -1339.864228328607

DIPOLE MOMENT
-------------
                                X             Y             Z
Electronic contribution:    -22.15241     -14.86040     -17.02601
Nuclear contribution   :     22.99213      15.28559      17.20368
                        -----------------------------------------
Total Dipole Moment    :      0.83972       0.42518       0.17767
                        -----------------------------------------
Magnitude (a.u.)       :      0.95785
Magnitude (Debye)      :      2.43467

Rotational constants in cm-1:     0.014805     0.009122     0.006407
Rotational constants in MHz :   443.829900   273.477703   192.083616

                             ****ORCA TERMINATED NORMALLY****
TOTAL RUN TIME: 0 days 0 hours 0 minutes 21 seconds 150 msec
