                         Program Version 4.2.1 -  RELEASE  -
|  1> ! wB97X-D3 SP def2-SVP
|  2> %pal
|  3> nprocs 24
|  4> end
|  5>
|  6> * xyz 0 1
|  7> S 	 -109.01 	 58.7166 	 -98.5814
|  8> C 	 -108.114 	 59.0006 	 -97.113
|  9> C 	 -106.795 	 59.1387 	 -97.3296
| 10> C 	 -106.462 	 59.0903 	 -98.7278
| 11> C 	 -107.521 	 58.8854 	 -99.5921
| 12> H 	 -105.431 	 59.1912 	 -99.0892
| 13> C 	 -105.809 	 59.3734 	 -96.221
| 14> H 	 -104.827 	 59.0038 	 -96.5913
| 15> H 	 -106.071 	 58.8157 	 -95.3047
| 16> C 	 -105.662 	 60.8562 	 -95.8816
| 17> H 	 -105.702 	 61.3857 	 -96.8584
| 18> H 	 -106.547 	 61.0857 	 -95.3141
| 19> C 	 -104.397 	 61.2549 	 -95.173
| 20> H 	 -104.346 	 62.2372 	 -94.7734
| 21> H 	 -104.248 	 60.7728 	 -94.2925
| 22> H 	 -103.486 	 61.0579 	 -95.6798
| 23> S 	 -107.741 	 57.5782 	 -101.912
| 24> C 	 -108.205 	 58.4265 	 -103.356
| 25> C 	 -108.136 	 59.8186 	 -103.199
| 26> C 	 -108.023 	 60.2035 	 -101.85
| 27> C 	 -107.693 	 59.0779 	 -101.033
| 28> H 	 -108.229 	 60.4018 	 -104.102
| 29> C 	 -108.273 	 61.6339 	 -101.346
| 30> H 	 -108.221 	 61.6045 	 -100.24
| 31> H 	 -109.319 	 61.9849 	 -101.563
| 32> C 	 -107.303 	 62.6353 	 -101.832
| 33> H 	 -107.328 	 62.7208 	 -102.913
| 34> H 	 -106.292 	 62.2182 	 -101.627
| 35> C 	 -107.718 	 63.9874 	 -101.256
| 36> H 	 -107.781 	 64.0365 	 -100.209
| 37> H 	 -108.698 	 64.3951 	 -101.63
| 38> H 	 -106.9 	 64.6799 	 -101.47
| 39> H 	 -108.506 	 59.0108 	 -96.1344
| 40> H 	 -108.175 	 58.0563 	 -104.364
| 41> *
| 42>
| 43>                          ****END OF INPUT****

CARTESIAN COORDINATES (ANGSTROEM)
---------------------------------
  S    -109.010000   58.716600  -98.581400
  C    -108.114000   59.000600  -97.113000
  C    -106.795000   59.138700  -97.329600
  C    -106.462000   59.090300  -98.727800
  C    -107.521000   58.885400  -99.592100
  H    -105.431000   59.191200  -99.089200
  C    -105.809000   59.373400  -96.221000
  H    -104.827000   59.003800  -96.591300
  H    -106.071000   58.815700  -95.304700
  C    -105.662000   60.856200  -95.881600
  H    -105.702000   61.385700  -96.858400
  H    -106.547000   61.085700  -95.314100
  C    -104.397000   61.254900  -95.173000
  H    -104.346000   62.237200  -94.773400
  H    -104.248000   60.772800  -94.292500
  H    -103.486000   61.057900  -95.679800
  S    -107.741000   57.578200  -101.912000
  C    -108.205000   58.426500  -103.356000
  C    -108.136000   59.818600  -103.199000
  C    -108.023000   60.203500  -101.850000
  C    -107.693000   59.077900  -101.033000
  H    -108.229000   60.401800  -104.102000
  C    -108.273000   61.633900  -101.346000
  H    -108.221000   61.604500  -100.240000
  H    -109.319000   61.984900  -101.563000
  C    -107.303000   62.635300  -101.832000
  H    -107.328000   62.720800  -102.913000
  H    -106.292000   62.218200  -101.627000
  C    -107.718000   63.987400  -101.256000
  H    -107.781000   64.036500  -100.209000
  H    -108.698000   64.395100  -101.630000
  H    -106.900000   64.679900  -101.470000
  H    -108.506000   59.010800  -96.134400
  H    -108.175000   58.056300  -104.364000

 Total Charge           Charge          ....    0
 Multiplicity           Mult            ....    1
 Number of Electrons    NEL             ....  134
 Basis Dimension        Dim             ....  322

ORBITAL ENERGIES
----------------

  NO   OCC          E(Eh)            E(eV)
   0   2.0000     -88.968192     -2420.9476
   1   2.0000     -88.960035     -2420.7256
   2   2.0000     -10.332482      -281.1611
   3   2.0000     -10.329123      -281.0697
   4   2.0000     -10.313368      -280.6410
   5   2.0000     -10.309072      -280.5241
   6   2.0000     -10.306927      -280.4657
   7   2.0000     -10.300258      -280.2843
   8   2.0000     -10.294244      -280.1206
   9   2.0000     -10.293342      -280.0961
  10   2.0000     -10.293293      -280.0947
  11   2.0000     -10.290205      -280.0107
  12   2.0000     -10.285482      -279.8822
  13   2.0000     -10.283561      -279.8299
  14   2.0000     -10.277314      -279.6599
  15   2.0000     -10.263315      -279.2790
  16   2.0000      -8.083015      -219.9500
  17   2.0000      -8.074297      -219.7128
  18   2.0000      -6.041359      -164.3937
  19   2.0000      -6.037430      -164.2868
  20   2.0000      -6.034016      -164.1939
  21   2.0000      -6.032915      -164.1640
  22   2.0000      -6.028847      -164.0533
  23   2.0000      -6.024973      -163.9479
  24   2.0000      -1.003473       -27.3059
  25   2.0000      -0.983586       -26.7647
  26   2.0000      -0.916867       -24.9492
  27   2.0000      -0.914698       -24.8902
  28   2.0000      -0.871317       -23.7097
  29   2.0000      -0.850695       -23.1486
  30   2.0000      -0.845298       -23.0017
  31   2.0000      -0.817194       -22.2370
  32   2.0000      -0.785304       -21.3692
  33   2.0000      -0.771196       -20.9853
  34   2.0000      -0.707919       -19.2635
  35   2.0000      -0.703729       -19.1494
  36   2.0000      -0.696127       -18.9426
  37   2.0000      -0.655258       -17.8305
  38   2.0000      -0.642248       -17.4765
  39   2.0000      -0.621572       -16.9138
  40   2.0000      -0.595907       -16.2155
  41   2.0000      -0.573266       -15.5993
  42   2.0000      -0.569415       -15.4946
  43   2.0000      -0.562438       -15.3047
  44   2.0000      -0.524617       -14.2755
  45   2.0000      -0.523684       -14.2502
  46   2.0000      -0.517052       -14.0697
  47   2.0000      -0.509802       -13.8724
  48   2.0000      -0.505092       -13.7443
  49   2.0000      -0.499418       -13.5899
  50   2.0000      -0.496447       -13.5090
  51   2.0000      -0.480450       -13.0737
  52   2.0000      -0.466950       -12.7063
  53   2.0000      -0.466572       -12.6961
  54   2.0000      -0.461467       -12.5572
  55   2.0000      -0.450735       -12.2651
  56   2.0000      -0.445492       -12.1225
  57   2.0000      -0.442047       -12.0287
  58   2.0000      -0.427806       -11.6412
  59   2.0000      -0.421087       -11.4583
  60   2.0000      -0.419086       -11.4039
  61   2.0000      -0.417956       -11.3732
  62   2.0000      -0.412168       -11.2157
  63   2.0000      -0.335223        -9.1219
  64   2.0000      -0.331843        -9.0299
  65   2.0000      -0.318625        -8.6702
  66   2.0000      -0.308242        -8.3877
  67   0.0000       0.042356         1.1526
  68   0.0000       0.048281         1.3138
  69   0.0000       0.113305         3.0832
  70   0.0000       0.122663         3.3378
  71   0.0000       0.124616         3.3910

MULLIKEN ATOMIC CHARGES
-----------------------
   0 S :    0.099833
   1 C :   -0.094478
   2 C :   -0.102866
   3 C :    0.050608
   4 C :   -0.155947
   5 H :    0.016823
   6 C :    0.048695
   7 H :    0.018466
   8 H :    0.032956
   9 C :   -0.060468
  10 H :    0.034618
  11 H :    0.020058
  12 C :    0.029680
  13 H :    0.017384
  14 H :   -0.013746
  15 H :    0.017435
  16 S :    0.125836
  17 C :   -0.084784
  18 C :   -0.065013
  19 C :    0.013130
  20 C :   -0.200786
  21 H :    0.022962
  22 C :    0.052447
  23 H :    0.028890
  24 H :    0.035726
  25 C :   -0.085467
  26 H :    0.025658
  27 H :    0.034762
  28 C :   -0.026689
  29 H :    0.015749
  30 H :    0.041571
  31 H :    0.029487
  32 H :    0.025691
  33 H :    0.051780
Sum of atomic charges:   -0.0000000

LOEWDIN ATOMIC CHARGES
----------------------
   0 S :    0.379929
   1 C :   -0.180863
   2 C :   -0.075229
   3 C :   -0.052848
   4 C :   -0.190371
   5 H :    0.034433
   6 C :   -0.030911
   7 H :    0.029202
   8 H :    0.031078
   9 C :   -0.037041
  10 H :    0.029083
  11 H :    0.022176
  12 C :   -0.064727
  13 H :    0.028582
  14 H :    0.014191
  15 H :    0.023894
  16 S :    0.433305
  17 C :   -0.195514
  18 C :   -0.069379
  19 C :   -0.046264
  20 C :   -0.215535
  21 H :    0.031991
  22 C :   -0.035363
  23 H :    0.032082
  24 H :    0.035035
  25 C :   -0.045602
  26 H :    0.021462
  27 H :    0.030727
  28 C :   -0.063723
  29 H :    0.016825
  30 H :    0.034567
  31 H :    0.028374
  32 H :    0.021082
  33 H :    0.025354

  Mayer bond orders larger than 0.100000
B(  0-S ,  1-C ) :   1.1379 B(  0-S ,  4-C ) :   1.1224 B(  1-C ,  2-C ) :   1.6405
B(  1-C , 32-H ) :   0.9680 B(  2-C ,  3-C ) :   1.2251 B(  2-C ,  6-C ) :   1.0300
B(  3-C ,  4-C ) :   1.6146 B(  3-C ,  5-H ) :   0.9930 B(  4-C , 20-C ) :   0.9920
B(  6-C ,  7-H ) :   0.9401 B(  6-C ,  8-H ) :   0.9410 B(  6-C ,  9-C ) :   1.0549
B(  9-C , 10-H ) :   0.9592 B(  9-C , 11-H ) :   0.9527 B(  9-C , 12-C ) :   1.0902
B( 12-C , 13-H ) :   0.9661 B( 12-C , 14-H ) :   0.9594 B( 12-C , 15-H ) :   0.9708
B( 16-S , 17-C ) :   1.1705 B( 16-S , 20-C ) :   1.1770 B( 17-C , 18-C ) :   1.6065
B( 17-C , 20-C ) :   0.1123 B( 17-C , 33-H ) :   0.9616 B( 18-C , 19-C ) :   1.2516
B( 18-C , 21-H ) :   0.9885 B( 19-C , 20-C ) :   1.5560 B( 19-C , 22-C ) :   1.0286
B( 22-C , 23-H ) :   0.9348 B( 22-C , 24-H ) :   0.9382 B( 22-C , 25-C ) :   1.0670
B( 25-C , 26-H ) :   0.9527 B( 25-C , 27-H ) :   0.9520 B( 25-C , 28-C ) :   1.0780
B( 28-C , 29-H ) :   0.9739 B( 28-C , 30-H ) :   0.9710 B( 28-C , 31-H ) :   0.9714

Dispersion correction           -0.013815242
FINAL SINGLE POINT ENERGY     -1339.866843172886

DIPOLE MOMENT
-------------
                                X             Y             Z
Electronic contribution:    -12.45032     -24.51728     -11.51800
Nuclear contribution   :     12.84036      25.08300      11.69381
                        -----------------------------------------
Total Dipole Moment    :      0.39004       0.56572       0.17581
                        -----------------------------------------
Magnitude (a.u.)       :      0.70928
Magnitude (Debye)      :      1.80285

Rotational constants in cm-1:     0.017519     0.008481     0.006591
Rotational constants in MHz :   525.209944   254.262204   197.578311

                             ****ORCA TERMINATED NORMALLY****
TOTAL RUN TIME: 0 days 0 hours 0 minutes 21 seconds 279 msec
