                         Program Version 4.2.1 -  RELEASE  -
|  1> ! wB97X-D3 SP def2-SVP
|  2> %pal
|  3> nprocs 24
|  4> end
|  5>
|  6> * xyz 0 1
|  7> S 	 -55.7381 	 8.16243 	 -31.5386
|  8> C 	 -56.5655 	 6.61639 	 -31.5557
|  9> C 	 -55.8766 	 5.58974 	 -32.2467
| 10> C 	 -54.7317 	 6.15839 	 -32.9256
| 11> C 	 -54.4812 	 7.50354 	 -32.5827
| 12> H 	 -54.1372 	 5.53447 	 -33.5281
| 13> C 	 -56.2831 	 4.22171 	 -32.5583
| 14> H 	 -56.9126 	 3.68404 	 -31.8478
| 15> H 	 -55.4093 	 3.55282 	 -32.7244
| 16> C 	 -57.1315 	 4.09393 	 -33.8375
| 17> H 	 -58.0143 	 4.69428 	 -33.8229
| 18> H 	 -56.558 	 4.48013 	 -34.6884
| 19> C 	 -57.4365 	 2.62901 	 -34.1687
| 20> H 	 -58.2769 	 2.31564 	 -33.5565
| 21> H 	 -57.6791 	 2.64105 	 -35.2039
| 22> H 	 -56.5807 	 2.00743 	 -34.0693
| 23> S 	 -53.7186 	 9.7285 	 -34.1424
| 24> C 	 -52.1146 	 10.1415 	 -34.2517
| 25> C 	 -51.3093 	 9.30825 	 -33.5405
| 26> C 	 -51.9982 	 8.28285 	 -32.8115
| 27> C 	 -53.3468 	 8.30737 	 -33.0921
| 28> H 	 -50.2168 	 9.37445 	 -33.5462
| 29> C 	 -51.3889 	 7.26943 	 -31.8457
| 30> H 	 -50.3282 	 7.32379 	 -31.7676
| 31> H 	 -51.622 	 6.29704 	 -32.3723
| 32> C 	 -51.9835 	 7.23591 	 -30.3906
| 33> H 	 -53.055 	 7.49935 	 -30.3408
| 34> H 	 -51.4767 	 8.12762 	 -29.8997
| 35> C 	 -51.6372 	 5.92215 	 -29.6589
| 36> H 	 -50.5884 	 5.61615 	 -29.7367
| 37> H 	 -52.2288 	 5.07458 	 -30.0037
| 38> H 	 -51.996 	 5.96862 	 -28.5893
| 39> H 	 -57.5357 	 6.41822 	 -31.1221
| 40> H 	 -51.7154 	 10.8541 	 -34.9352
| 41> *
| 42>
| 43>                          ****END OF INPUT****

CARTESIAN COORDINATES (ANGSTROEM)
---------------------------------
  S    -55.738100    8.162430  -31.538600
  C    -56.565500    6.616390  -31.555700
  C    -55.876600    5.589740  -32.246700
  C    -54.731700    6.158390  -32.925600
  C    -54.481200    7.503540  -32.582700
  H    -54.137200    5.534470  -33.528100
  C    -56.283100    4.221710  -32.558300
  H    -56.912600    3.684040  -31.847800
  H    -55.409300    3.552820  -32.724400
  C    -57.131500    4.093930  -33.837500
  H    -58.014300    4.694280  -33.822900
  H    -56.558000    4.480130  -34.688400
  C    -57.436500    2.629010  -34.168700
  H    -58.276900    2.315640  -33.556500
  H    -57.679100    2.641050  -35.203900
  H    -56.580700    2.007430  -34.069300
  S    -53.718600    9.728500  -34.142400
  C    -52.114600   10.141500  -34.251700
  C    -51.309300    9.308250  -33.540500
  C    -51.998200    8.282850  -32.811500
  C    -53.346800    8.307370  -33.092100
  H    -50.216800    9.374450  -33.546200
  C    -51.388900    7.269430  -31.845700
  H    -50.328200    7.323790  -31.767600
  H    -51.622000    6.297040  -32.372300
  C    -51.983500    7.235910  -30.390600
  H    -53.055000    7.499350  -30.340800
  H    -51.476700    8.127620  -29.899700
  C    -51.637200    5.922150  -29.658900
  H    -50.588400    5.616150  -29.736700
  H    -52.228800    5.074580  -30.003700
  H    -51.996000    5.968620  -28.589300
  H    -57.535700    6.418220  -31.122100
  H    -51.715400   10.854100  -34.935200

 Total Charge           Charge          ....    0
 Multiplicity           Mult            ....    1
 Number of Electrons    NEL             ....  134
 Basis Dimension        Dim             ....  322

ORBITAL ENERGIES
----------------

  NO   OCC          E(Eh)            E(eV)
   0   2.0000     -88.973830     -2421.1010
   1   2.0000     -88.960708     -2420.7439
   2   2.0000     -10.334121      -281.2057
   3   2.0000     -10.324108      -280.9333
   4   2.0000     -10.317824      -280.7623
   5   2.0000     -10.307220      -280.4737
   6   2.0000     -10.303510      -280.3728
   7   2.0000     -10.303276      -280.3664
   8   2.0000     -10.295562      -280.1565
   9   2.0000     -10.294069      -280.1159
  10   2.0000     -10.292845      -280.0825
  11   2.0000     -10.290493      -280.0185
  12   2.0000     -10.288790      -279.9722
  13   2.0000     -10.282195      -279.7927
  14   2.0000     -10.280273      -279.7405
  15   2.0000     -10.273194      -279.5478
  16   2.0000      -8.087401      -220.0694
  17   2.0000      -8.076706      -219.7783
  18   2.0000      -6.045921      -164.5179
  19   2.0000      -6.042068      -164.4130
  20   2.0000      -6.038221      -164.3084
  21   2.0000      -6.035005      -164.2208
  22   2.0000      -6.031024      -164.1125
  23   2.0000      -6.027608      -164.0196
  24   2.0000      -1.004314       -27.3288
  25   2.0000      -0.983115       -26.7519
  26   2.0000      -0.918521       -24.9942
  27   2.0000      -0.901547       -24.5323
  28   2.0000      -0.864000       -23.5106
  29   2.0000      -0.853830       -23.2339
  30   2.0000      -0.845611       -23.0102
  31   2.0000      -0.808740       -22.0069
  32   2.0000      -0.781836       -21.2748
  33   2.0000      -0.770266       -20.9600
  34   2.0000      -0.703837       -19.1524
  35   2.0000      -0.700915       -19.0729
  36   2.0000      -0.688744       -18.7417
  37   2.0000      -0.658515       -17.9191
  38   2.0000      -0.641489       -17.4558
  39   2.0000      -0.625593       -17.0233
  40   2.0000      -0.596423       -16.2295
  41   2.0000      -0.573163       -15.5966
  42   2.0000      -0.564005       -15.3474
  43   2.0000      -0.553155       -15.0521
  44   2.0000      -0.526423       -14.3247
  45   2.0000      -0.518815       -14.1177
  46   2.0000      -0.515014       -14.0142
  47   2.0000      -0.506327       -13.7778
  48   2.0000      -0.504574       -13.7302
  49   2.0000      -0.498462       -13.5638
  50   2.0000      -0.489413       -13.3176
  51   2.0000      -0.481894       -13.1130
  52   2.0000      -0.472447       -12.8559
  53   2.0000      -0.461646       -12.5620
  54   2.0000      -0.458732       -12.4827
  55   2.0000      -0.456394       -12.4191
  56   2.0000      -0.446004       -12.1364
  57   2.0000      -0.437799       -11.9131
  58   2.0000      -0.433362       -11.7924
  59   2.0000      -0.425057       -11.5664
  60   2.0000      -0.421122       -11.4593
  61   2.0000      -0.414664       -11.2836
  62   2.0000      -0.410075       -11.1587
  63   2.0000      -0.336513        -9.1570
  64   2.0000      -0.329836        -8.9753
  65   2.0000      -0.323074        -8.7913
  66   2.0000      -0.297868        -8.1054
  67   0.0000       0.035545         0.9672
  68   0.0000       0.061355         1.6696
  69   0.0000       0.107614         2.9283
  70   0.0000       0.124454         3.3866
  71   0.0000       0.130003         3.5376

MULLIKEN ATOMIC CHARGES
-----------------------
   0 S :    0.133588
   1 C :   -0.120801
   2 C :   -0.047932
   3 C :    0.054815
   4 C :   -0.165952
   5 H :   -0.003839
   6 C :    0.029228
   7 H :    0.019814
   8 H :    0.024749
   9 C :   -0.100646
  10 H :    0.023514
  11 H :    0.017906
  12 C :   -0.002747
  13 H :    0.037123
  14 H :    0.026222
  15 H :    0.020869
  16 S :    0.110992
  17 C :   -0.058517
  18 C :   -0.053629
  19 C :   -0.008925
  20 C :   -0.200999
  21 H :    0.014253
  22 C :    0.066952
  23 H :    0.012859
  24 H :    0.036369
  25 C :   -0.084299
  26 H :    0.046729
  27 H :    0.035568
  28 C :   -0.064220
  29 H :    0.037598
  30 H :    0.029525
  31 H :    0.040776
  32 H :    0.043389
  33 H :    0.049671
Sum of atomic charges:    0.0000000

LOEWDIN ATOMIC CHARGES
----------------------
   0 S :    0.412303
   1 C :   -0.198929
   2 C :   -0.059082
   3 C :   -0.043784
   4 C :   -0.196167
   5 H :    0.021669
   6 C :   -0.043045
   7 H :    0.029774
   8 H :    0.034643
   9 C :   -0.033632
  10 H :    0.019255
  11 H :    0.019754
  12 C :   -0.055721
  13 H :    0.026017
  14 H :    0.026490
  15 H :    0.020009
  16 S :    0.418505
  17 C :   -0.204757
  18 C :   -0.083725
  19 C :   -0.048429
  20 C :   -0.194671
  21 H :    0.030447
  22 C :   -0.032752
  23 H :    0.022435
  24 H :    0.037779
  25 C :   -0.042514
  26 H :    0.023920
  27 H :    0.029348
  28 C :   -0.074255
  29 H :    0.025266
  30 H :    0.025168
  31 H :    0.034961
  32 H :    0.025102
  33 H :    0.028618

  Mayer bond orders larger than 0.100000
B(  0-S ,  1-C ) :   1.1421 B(  0-S ,  4-C ) :   1.1476 B(  1-C ,  2-C ) :   1.5919
B(  1-C , 32-H ) :   0.9650 B(  2-C ,  3-C ) :   1.2447 B(  2-C ,  6-C ) :   1.0569
B(  3-C ,  4-C ) :   1.5642 B(  3-C ,  5-H ) :   0.9951 B(  4-C , 20-C ) :   1.0237
B(  6-C ,  7-H ) :   0.9409 B(  6-C ,  8-H ) :   0.9334 B(  6-C ,  9-C ) :   1.0578
B(  9-C , 10-H ) :   0.9553 B(  9-C , 11-H ) :   0.9585 B(  9-C , 12-C ) :   1.0809
B( 12-C , 13-H ) :   0.9756 B( 12-C , 14-H ) :   0.9731 B( 12-C , 15-H ) :   0.9724
B( 16-S , 17-C ) :   1.1808 B( 16-S , 20-C ) :   1.1355 B( 17-C , 18-C ) :   1.5910
B( 17-C , 33-H ) :   0.9649 B( 18-C , 19-C ) :   1.2576 B( 18-C , 21-H ) :   0.9885
B( 19-C , 20-C ) :   1.6006 B( 19-C , 22-C ) :   1.0258 B( 22-C , 23-H ) :   0.9374
B( 22-C , 24-H ) :   0.9399 B( 22-C , 25-C ) :   1.0403 B( 25-C , 26-H ) :   0.9575
B( 25-C , 27-H ) :   0.9550 B( 25-C , 28-C ) :   1.0760 B( 28-C , 29-H ) :   0.9754
B( 28-C , 30-H ) :   0.9737 B( 28-C , 31-H ) :   0.9723

Dispersion correction           -0.014628821
FINAL SINGLE POINT ENERGY     -1339.881898724444

DIPOLE MOMENT
-------------
                                X             Y             Z
Electronic contribution:     -1.26154      25.45785      -4.78439
Nuclear contribution   :      1.38141     -26.04331       4.68795
                        -----------------------------------------
Total Dipole Moment    :      0.11988      -0.58546      -0.09645
                        -----------------------------------------
Magnitude (a.u.)       :      0.60534
Magnitude (Debye)      :      1.53865

Rotational constants in cm-1:     0.018612     0.008318     0.007170
Rotational constants in MHz :   557.969015   249.373001   214.960252

                             ****ORCA TERMINATED NORMALLY****
TOTAL RUN TIME: 0 days 0 hours 0 minutes 21 seconds 793 msec
