                         Program Version 4.2.1 -  RELEASE  -
|  1> ! wB97X-D3 SP def2-SVP
|  2> %pal
|  3> nprocs 24
|  4> end
|  5>
|  6> * xyz 0 1
|  7> S 	 -105.537 	 49.8033 	 -9.76382
|  8> C 	 -106.737 	 50.9331 	 -9.59704
|  9> C 	 -106.456 	 52.0973 	 -10.2728
| 10> C 	 -105.264 	 51.998 	 -11.0504
| 11> C 	 -104.649 	 50.747 	 -10.9116
| 12> H 	 -104.781 	 52.817 	 -11.6242
| 13> C 	 -107.208 	 53.3958 	 -10.1975
| 14> H 	 -106.559 	 54.2775 	 -10.2603
| 15> H 	 -107.583 	 53.5031 	 -9.22691
| 16> C 	 -108.333 	 53.6613 	 -11.2559
| 17> H 	 -108.618 	 54.7115 	 -11.0697
| 18> H 	 -108 	 53.6224 	 -12.3035
| 19> C 	 -109.563 	 52.7408 	 -11.2051
| 20> H 	 -110.281 	 52.917 	 -12.0662
| 21> H 	 -109.37 	 51.6883 	 -11.3155
| 22> H 	 -110.104 	 52.8114 	 -10.2857
| 23> S 	 -101.923 	 50.371 	 -10.8806
| 24> C 	 -101.169 	 49.454 	 -12.1339
| 25> C 	 -102.087 	 48.9398 	 -13.0145
| 26> C 	 -103.42 	 49.4208 	 -12.7724
| 27> C 	 -103.503 	 50.2518 	 -11.6252
| 28> H 	 -101.678 	 48.3241 	 -13.7003
| 29> C 	 -104.587 	 49.1175 	 -13.686
| 30> H 	 -104.382 	 49.5319 	 -14.6542
| 31> H 	 -105.454 	 49.633 	 -13.2545
| 32> C 	 -105.08 	 47.6344 	 -13.7363
| 33> H 	 -104.222 	 46.8776 	 -13.5946
| 34> H 	 -105.582 	 47.3355 	 -14.6789
| 35> C 	 -106.048 	 47.2898 	 -12.5725
| 36> H 	 -106.207 	 46.2308 	 -12.5369
| 37> H 	 -107.036 	 47.6574 	 -12.6198
| 38> H 	 -105.658 	 47.5455 	 -11.5512
| 39> H 	 -107.535 	 50.8037 	 -8.92786
| 40> H 	 -100.134 	 49.1719 	 -12.1371
| 41> *
| 42>
| 43>                          ****END OF INPUT****

CARTESIAN COORDINATES (ANGSTROEM)
---------------------------------
  S    -105.537000   49.803300   -9.763820
  C    -106.737000   50.933100   -9.597040
  C    -106.456000   52.097300  -10.272800
  C    -105.264000   51.998000  -11.050400
  C    -104.649000   50.747000  -10.911600
  H    -104.781000   52.817000  -11.624200
  C    -107.208000   53.395800  -10.197500
  H    -106.559000   54.277500  -10.260300
  H    -107.583000   53.503100   -9.226910
  C    -108.333000   53.661300  -11.255900
  H    -108.618000   54.711500  -11.069700
  H    -108.000000   53.622400  -12.303500
  C    -109.563000   52.740800  -11.205100
  H    -110.281000   52.917000  -12.066200
  H    -109.370000   51.688300  -11.315500
  H    -110.104000   52.811400  -10.285700
  S    -101.923000   50.371000  -10.880600
  C    -101.169000   49.454000  -12.133900
  C    -102.087000   48.939800  -13.014500
  C    -103.420000   49.420800  -12.772400
  C    -103.503000   50.251800  -11.625200
  H    -101.678000   48.324100  -13.700300
  C    -104.587000   49.117500  -13.686000
  H    -104.382000   49.531900  -14.654200
  H    -105.454000   49.633000  -13.254500
  C    -105.080000   47.634400  -13.736300
  H    -104.222000   46.877600  -13.594600
  H    -105.582000   47.335500  -14.678900
  C    -106.048000   47.289800  -12.572500
  H    -106.207000   46.230800  -12.536900
  H    -107.036000   47.657400  -12.619800
  H    -105.658000   47.545500  -11.551200
  H    -107.535000   50.803700   -8.927860
  H    -100.134000   49.171900  -12.137100

 Total Charge           Charge          ....    0
 Multiplicity           Mult            ....    1
 Number of Electrons    NEL             ....  134
 Basis Dimension        Dim             ....  322

ORBITAL ENERGIES
----------------

  NO   OCC          E(Eh)            E(eV)
   0   2.0000     -88.966681     -2420.9065
   1   2.0000     -88.961949     -2420.7777
   2   2.0000     -10.324403      -280.9413
   3   2.0000     -10.323995      -280.9302
   4   2.0000     -10.311981      -280.6033
   5   2.0000     -10.308008      -280.4952
   6   2.0000     -10.306272      -280.4479
   7   2.0000     -10.297321      -280.2044
   8   2.0000     -10.296846      -280.1914
   9   2.0000     -10.294620      -280.1308
  10   2.0000     -10.291496      -280.0458
  11   2.0000     -10.288611      -279.9673
  12   2.0000     -10.287692      -279.9423
  13   2.0000     -10.284560      -279.8571
  14   2.0000     -10.275812      -279.6191
  15   2.0000     -10.266645      -279.3696
  16   2.0000      -8.083132      -219.9532
  17   2.0000      -8.077229      -219.7926
  18   2.0000      -6.041313      -164.3925
  19   2.0000      -6.037155      -164.2793
  20   2.0000      -6.035605      -164.2372
  21   2.0000      -6.034358      -164.2032
  22   2.0000      -6.031550      -164.1268
  23   2.0000      -6.028212      -164.0360
  24   2.0000      -1.013738       -27.5852
  25   2.0000      -0.988851       -26.9080
  26   2.0000      -0.907516       -24.6948
  27   2.0000      -0.899190       -24.4682
  28   2.0000      -0.874048       -23.7840
  29   2.0000      -0.850664       -23.1477
  30   2.0000      -0.842917       -22.9369
  31   2.0000      -0.816490       -22.2178
  32   2.0000      -0.785899       -21.3854
  33   2.0000      -0.769777       -20.9467
  34   2.0000      -0.709403       -19.3038
  35   2.0000      -0.698467       -19.0063
  36   2.0000      -0.691674       -18.8214
  37   2.0000      -0.655403       -17.8344
  38   2.0000      -0.650067       -17.6892
  39   2.0000      -0.620886       -16.8952
  40   2.0000      -0.593688       -16.1551
  41   2.0000      -0.576143       -15.6776
  42   2.0000      -0.554504       -15.0888
  43   2.0000      -0.539996       -14.6941
  44   2.0000      -0.539113       -14.6700
  45   2.0000      -0.527470       -14.3532
  46   2.0000      -0.521635       -14.1944
  47   2.0000      -0.514203       -13.9922
  48   2.0000      -0.507047       -13.7975
  49   2.0000      -0.492781       -13.4093
  50   2.0000      -0.489163       -13.3108
  51   2.0000      -0.481913       -13.1135
  52   2.0000      -0.466915       -12.7054
  53   2.0000      -0.461923       -12.5696
  54   2.0000      -0.461700       -12.5635
  55   2.0000      -0.447969       -12.1899
  56   2.0000      -0.440931       -11.9983
  57   2.0000      -0.434228       -11.8159
  58   2.0000      -0.430994       -11.7279
  59   2.0000      -0.424669       -11.5558
  60   2.0000      -0.416676       -11.3383
  61   2.0000      -0.414971       -11.2919
  62   2.0000      -0.410847       -11.1797
  63   2.0000      -0.335292        -9.1237
  64   2.0000      -0.329874        -8.9763
  65   2.0000      -0.316878        -8.6227
  66   2.0000      -0.311690        -8.4815
  67   0.0000       0.048713         1.3255
  68   0.0000       0.050985         1.3874
  69   0.0000       0.115427         3.1409
  70   0.0000       0.120259         3.2724
  71   0.0000       0.137586         3.7439

MULLIKEN ATOMIC CHARGES
-----------------------
   0 S :    0.150556
   1 C :   -0.101764
   2 C :   -0.081309
   3 C :    0.034945
   4 C :   -0.194997
   5 H :    0.031520
   6 C :    0.084579
   7 H :    0.022116
   8 H :    0.003317
   9 C :   -0.064629
  10 H :    0.030979
  11 H :    0.031561
  12 C :   -0.065197
  13 H :    0.037832
  14 H :    0.027712
  15 H :    0.020449
  16 S :    0.110079
  17 C :   -0.096435
  18 C :    0.007149
  19 C :   -0.021284
  20 C :   -0.176860
  21 H :   -0.026329
  22 C :    0.100919
  23 H :    0.034771
  24 H :    0.030121
  25 C :   -0.100942
  26 H :    0.039053
  27 H :    0.035643
  28 C :   -0.057684
  29 H :    0.015907
  30 H :    0.022276
  31 H :    0.033257
  32 H :    0.029338
  33 H :    0.053353
Sum of atomic charges:   -0.0000000

LOEWDIN ATOMIC CHARGES
----------------------
   0 S :    0.476492
   1 C :   -0.215250
   2 C :   -0.071097
   3 C :   -0.051115
   4 C :   -0.220868
   5 H :    0.040936
   6 C :   -0.030719
   7 H :    0.035441
   8 H :    0.021812
   9 C :   -0.037862
  10 H :    0.026508
  11 H :    0.025999
  12 C :   -0.075795
  13 H :    0.034754
  14 H :    0.021942
  15 H :    0.017362
  16 S :    0.415969
  17 C :   -0.184156
  18 C :   -0.062524
  19 C :   -0.041897
  20 C :   -0.215062
  21 H :    0.014305
  22 C :   -0.032562
  23 H :    0.030479
  24 H :    0.035461
  25 C :   -0.043597
  26 H :    0.029751
  27 H :    0.026643
  28 C :   -0.074882
  29 H :    0.021788
  30 H :    0.015616
  31 H :    0.019386
  32 H :    0.019459
  33 H :    0.027285

  Mayer bond orders larger than 0.100000
B(  0-S ,  1-C ) :   1.1892 B(  0-S ,  4-C ) :   1.1821 B(  1-C ,  2-C ) :   1.5581
B(  1-C , 32-H ) :   0.9763 B(  2-C ,  3-C ) :   1.2814 B(  2-C ,  6-C ) :   1.0254
B(  3-C ,  4-C ) :   1.5409 B(  3-C ,  5-H ) :   0.9912 B(  4-C , 20-C ) :   1.0299
B(  6-C ,  7-H ) :   0.9420 B(  6-C ,  8-H ) :   0.9378 B(  6-C ,  9-C ) :   1.0656
B(  9-C , 10-H ) :   0.9561 B(  9-C , 11-H ) :   0.9598 B(  9-C , 12-C ) :   1.0758
B( 12-C , 13-H ) :   0.9740 B( 12-C , 14-H ) :   0.9739 B( 12-C , 15-H ) :   0.9764
B( 16-S , 17-C ) :   1.1698 B( 16-S , 20-C ) :   1.1547 B( 17-C , 18-C ) :   1.6085
B( 17-C , 33-H ) :   0.9663 B( 18-C , 19-C ) :   1.2220 B( 18-C , 21-H ) :   1.0144
B( 19-C , 20-C ) :   1.5696 B( 19-C , 22-C ) :   1.0475 B( 22-C , 23-H ) :   0.9397
B( 22-C , 24-H ) :   0.9344 B( 22-C , 25-C ) :   1.0422 B( 25-C , 26-H ) :   0.9659
B( 25-C , 27-H ) :   0.9576 B( 25-C , 28-C ) :   1.0764 B( 28-C , 29-H ) :   0.9706
B( 28-C , 30-H ) :   0.9741 B( 28-C , 31-H ) :   0.9718

Dispersion correction           -0.015226351
FINAL SINGLE POINT ENERGY     -1339.879275767340

DIPOLE MOMENT
-------------
                                X             Y             Z
Electronic contribution:     22.13921      -1.56794      10.15668
Nuclear contribution   :    -22.41358       1.65297     -10.36300
                        -----------------------------------------
Total Dipole Moment    :     -0.27438       0.08503      -0.20632
                        -----------------------------------------
Magnitude (a.u.)       :      0.35367
Magnitude (Debye)      :      0.89895

Rotational constants in cm-1:     0.021068     0.008509     0.007278
Rotational constants in MHz :   631.614115   255.092020   218.184847

                             ****ORCA TERMINATED NORMALLY****
TOTAL RUN TIME: 0 days 0 hours 0 minutes 22 seconds 7 msec
