                         Program Version 4.2.1 -  RELEASE  -
|  1> ! wB97X-D3 SP def2-SVP
|  2> %pal
|  3> nprocs 24
|  4> end
|  5>
|  6> * xyz 0 1
|  7> S 	 -54.0301 	 16.4515 	 23.0881
|  8> C 	 -55.4421 	 15.562 	 23.5374
|  9> C 	 -55.85 	 15.8528 	 24.8384
| 10> C 	 -55.1847 	 16.982 	 25.2715
| 11> C 	 -54.2837 	 17.522 	 24.3961
| 12> H 	 -55.1107 	 17.5124 	 26.1797
| 13> C 	 -56.9884 	 15.2569 	 25.6087
| 14> H 	 -56.7785 	 15.2738 	 26.6733
| 15> H 	 -57.0862 	 14.2341 	 25.4224
| 16> C 	 -58.4709 	 15.772 	 25.3153
| 17> H 	 -58.7121 	 16.747 	 25.7371
| 18> H 	 -58.68 	 15.8947 	 24.2292
| 19> C 	 -59.5286 	 14.869 	 25.7798
| 20> H 	 -59.3164 	 13.9078 	 25.345
| 21> H 	 -59.6303 	 14.7979 	 26.8298
| 22> H 	 -60.5231 	 15.2604 	 25.4612
| 23> S 	 -51.7048 	 18.2816 	 24.8818
| 24> C 	 -51.3394 	 19.9433 	 25.3128
| 25> C 	 -52.4294 	 20.7902 	 25.3082
| 26> C 	 -53.6552 	 20.032 	 25.016
| 27> C 	 -53.4036 	 18.6522 	 24.7275
| 28> H 	 -52.358 	 21.8254 	 25.6569
| 29> C 	 -54.9466 	 20.7546 	 25.0838
| 30> H 	 -54.9204 	 21.463 	 25.9087
| 31> H 	 -55.6491 	 20.0261 	 25.39
| 32> C 	 -55.4143 	 21.3488 	 23.7318
| 33> H 	 -54.5855 	 21.8439 	 23.3043
| 34> H 	 -56.2191 	 22.0486 	 23.8837
| 35> C 	 -55.8831 	 20.2026 	 22.841
| 36> H 	 -55.0815 	 19.5377 	 22.7417
| 37> H 	 -56.182 	 20.6617 	 21.8417
| 38> H 	 -56.7009 	 19.6575 	 23.1865
| 39> H 	 -55.9304 	 14.7952 	 22.956
| 40> H 	 -50.3532 	 20.2757 	 25.4925
| 41> *
| 42>
| 43>                          ****END OF INPUT****

CARTESIAN COORDINATES (ANGSTROEM)
---------------------------------
  S    -54.030100   16.451500   23.088100
  C    -55.442100   15.562000   23.537400
  C    -55.850000   15.852800   24.838400
  C    -55.184700   16.982000   25.271500
  C    -54.283700   17.522000   24.396100
  H    -55.110700   17.512400   26.179700
  C    -56.988400   15.256900   25.608700
  H    -56.778500   15.273800   26.673300
  H    -57.086200   14.234100   25.422400
  C    -58.470900   15.772000   25.315300
  H    -58.712100   16.747000   25.737100
  H    -58.680000   15.894700   24.229200
  C    -59.528600   14.869000   25.779800
  H    -59.316400   13.907800   25.345000
  H    -59.630300   14.797900   26.829800
  H    -60.523100   15.260400   25.461200
  S    -51.704800   18.281600   24.881800
  C    -51.339400   19.943300   25.312800
  C    -52.429400   20.790200   25.308200
  C    -53.655200   20.032000   25.016000
  C    -53.403600   18.652200   24.727500
  H    -52.358000   21.825400   25.656900
  C    -54.946600   20.754600   25.083800
  H    -54.920400   21.463000   25.908700
  H    -55.649100   20.026100   25.390000
  C    -55.414300   21.348800   23.731800
  H    -54.585500   21.843900   23.304300
  H    -56.219100   22.048600   23.883700
  C    -55.883100   20.202600   22.841000
  H    -55.081500   19.537700   22.741700
  H    -56.182000   20.661700   21.841700
  H    -56.700900   19.657500   23.186500
  H    -55.930400   14.795200   22.956000
  H    -50.353200   20.275700   25.492500

 Total Charge           Charge          ....    0
 Multiplicity           Mult            ....    1
 Number of Electrons    NEL             ....  134
 Basis Dimension        Dim             ....  322

ORBITAL ENERGIES
----------------

  NO   OCC          E(Eh)            E(eV)
   0   2.0000     -88.970212     -2421.0026
   1   2.0000     -88.965743     -2420.8810
   2   2.0000     -10.330199      -281.0990
   3   2.0000     -10.321315      -280.8573
   4   2.0000     -10.314821      -280.6806
   5   2.0000     -10.314037      -280.6592
   6   2.0000     -10.308398      -280.5058
   7   2.0000     -10.299944      -280.2757
   8   2.0000     -10.297562      -280.2109
   9   2.0000     -10.291906      -280.0570
  10   2.0000     -10.287057      -279.9251
  11   2.0000     -10.281673      -279.7786
  12   2.0000     -10.280027      -279.7338
  13   2.0000     -10.276599      -279.6405
  14   2.0000     -10.272662      -279.5333
  15   2.0000     -10.261799      -279.2377
  16   2.0000      -8.085640      -220.0215
  17   2.0000      -8.080514      -219.8820
  18   2.0000      -6.043890      -164.4626
  19   2.0000      -6.040144      -164.3607
  20   2.0000      -6.039004      -164.3297
  21   2.0000      -6.036528      -164.2623
  22   2.0000      -6.035022      -164.2213
  23   2.0000      -6.031301      -164.1201
  24   2.0000      -1.014889       -27.6165
  25   2.0000      -0.983633       -26.7660
  26   2.0000      -0.915243       -24.9050
  27   2.0000      -0.911253       -24.7965
  28   2.0000      -0.874313       -23.7913
  29   2.0000      -0.859992       -23.4016
  30   2.0000      -0.844731       -22.9863
  31   2.0000      -0.816291       -22.2124
  32   2.0000      -0.785356       -21.3706
  33   2.0000      -0.768315       -20.9069
  34   2.0000      -0.704970       -19.1832
  35   2.0000      -0.698759       -19.0142
  36   2.0000      -0.694072       -18.8867
  37   2.0000      -0.659897       -17.9567
  38   2.0000      -0.652573       -17.7574
  39   2.0000      -0.621315       -16.9068
  40   2.0000      -0.598251       -16.2792
  41   2.0000      -0.572903       -15.5895
  42   2.0000      -0.567426       -15.4405
  43   2.0000      -0.553408       -15.0590
  44   2.0000      -0.537967       -14.6388
  45   2.0000      -0.528911       -14.3924
  46   2.0000      -0.517015       -14.0687
  47   2.0000      -0.514486       -13.9999
  48   2.0000      -0.506127       -13.7724
  49   2.0000      -0.497208       -13.5297
  50   2.0000      -0.492617       -13.4048
  51   2.0000      -0.477217       -12.9857
  52   2.0000      -0.466995       -12.7076
  53   2.0000      -0.465945       -12.6790
  54   2.0000      -0.461397       -12.5553
  55   2.0000      -0.448509       -12.2045
  56   2.0000      -0.447008       -12.1637
  57   2.0000      -0.437914       -11.9163
  58   2.0000      -0.429157       -11.6779
  59   2.0000      -0.428009       -11.6467
  60   2.0000      -0.420724       -11.4485
  61   2.0000      -0.416998       -11.3471
  62   2.0000      -0.415267       -11.3000
  63   2.0000      -0.343874        -9.3573
  64   2.0000      -0.332881        -9.0582
  65   2.0000      -0.326319        -8.8796
  66   2.0000      -0.292254        -7.9526
  67   0.0000       0.035259         0.9594
  68   0.0000       0.058894         1.6026
  69   0.0000       0.108630         2.9560
  70   0.0000       0.119215         3.2440
  71   0.0000       0.129248         3.5170

MULLIKEN ATOMIC CHARGES
-----------------------
   0 S :    0.134685
   1 C :   -0.114898
   2 C :   -0.045497
   3 C :    0.048550
   4 C :   -0.189740
   5 H :   -0.003224
   6 C :    0.106172
   7 H :    0.025972
   8 H :   -0.009451
   9 C :   -0.073354
  10 H :    0.021257
  11 H :    0.029122
  12 C :   -0.041440
  13 H :    0.024054
  14 H :    0.022005
  15 H :    0.034097
  16 S :    0.106205
  17 C :   -0.075826
  18 C :   -0.030272
  19 C :   -0.088745
  20 C :   -0.166599
  21 H :    0.034155
  22 C :    0.085717
  23 H :    0.018637
  24 H :   -0.003771
  25 C :   -0.016357
  26 H :    0.016019
  27 H :    0.024310
  28 C :   -0.029212
  29 H :    0.024544
  30 H :    0.034010
  31 H :    0.017695
  32 H :    0.040188
  33 H :    0.040992
Sum of atomic charges:    0.0000000

LOEWDIN ATOMIC CHARGES
----------------------
   0 S :    0.438268
   1 C :   -0.194284
   2 C :   -0.064304
   3 C :   -0.057994
   4 C :   -0.216697
   5 H :    0.028007
   6 C :   -0.027271
   7 H :    0.035318
   8 H :    0.020082
   9 C :   -0.040409
  10 H :    0.020279
  11 H :    0.028769
  12 C :   -0.063132
  13 H :    0.020325
  14 H :    0.016584
  15 H :    0.034071
  16 S :    0.404127
  17 C :   -0.175010
  18 C :   -0.070605
  19 C :   -0.049702
  20 C :   -0.209033
  21 H :    0.038353
  22 C :   -0.036028
  23 H :    0.028826
  24 H :    0.022529
  25 C :   -0.024086
  26 H :    0.018015
  27 H :    0.020187
  28 C :   -0.053745
  29 H :    0.016028
  30 H :    0.032344
  31 H :    0.015952
  32 H :    0.026041
  33 H :    0.018196

  Mayer bond orders larger than 0.100000
B(  0-S ,  1-C ) :   1.1666 B(  0-S ,  4-C ) :   1.1559 B(  1-C ,  2-C ) :   1.5604
B(  1-C ,  4-C ) :   0.1040 B(  1-C , 32-H ) :   0.9732 B(  2-C ,  3-C ) :   1.2421
B(  2-C ,  6-C ) :   1.0521 B(  3-C ,  4-C ) :   1.5695 B(  3-C ,  5-H ) :   1.0017
B(  4-C , 20-C ) :   1.0216 B(  6-C ,  7-H ) :   0.9365 B(  6-C ,  8-H ) :   0.9288
B(  6-C ,  9-C ) :   1.0452 B(  9-C , 10-H ) :   0.9541 B(  9-C , 11-H ) :   0.9582
B(  9-C , 12-C ) :   1.0952 B( 12-C , 13-H ) :   0.9724 B( 12-C , 14-H ) :   0.9746
B( 12-C , 15-H ) :   0.9693 B( 16-S , 17-C ) :   1.1539 B( 16-S , 20-C ) :   1.1452
B( 17-C , 18-C ) :   1.6253 B( 17-C , 33-H ) :   0.9696 B( 18-C , 19-C ) :   1.2271
B( 18-C , 21-H ) :   0.9848 B( 19-C , 20-C ) :   1.5907 B( 19-C , 22-C ) :   1.0546
B( 22-C , 23-H ) :   0.9307 B( 22-C , 24-H ) :   0.9247 B( 22-C , 25-C ) :   1.0645
B( 25-C , 26-H ) :   0.9563 B( 25-C , 27-H ) :   0.9553 B( 25-C , 28-C ) :   1.0797
B( 28-C , 29-H ) :   0.9729 B( 28-C , 30-H ) :   0.9710 B( 28-C , 31-H ) :   0.9754

Dispersion correction           -0.014928348
FINAL SINGLE POINT ENERGY     -1339.860181099204

DIPOLE MOMENT
-------------
                                X             Y             Z
Electronic contribution:     27.28386      -2.93746      -3.41012
Nuclear contribution   :    -27.76817       3.05740       3.76831
                        -----------------------------------------
Total Dipole Moment    :     -0.48431       0.11995       0.35819
                        -----------------------------------------
Magnitude (a.u.)       :      0.61420
Magnitude (Debye)      :      1.56117

Rotational constants in cm-1:     0.021154     0.008273     0.007089
Rotational constants in MHz :   634.183932   248.009216   212.535133

                             ****ORCA TERMINATED NORMALLY****
TOTAL RUN TIME: 0 days 0 hours 0 minutes 22 seconds 332 msec
