                         Program Version 4.2.1 -  RELEASE  -
|  1> ! wB97X-D3 SP def2-SVP
|  2> %pal
|  3> nprocs 24
|  4> end
|  5>
|  6> * xyz 0 1
|  7> S 	 -97.0517 	 -28.7333 	 -61.0344
|  8> C 	 -98.11 	 -27.3569 	 -60.8604
|  9> C 	 -97.4644 	 -26.2041 	 -60.4532
| 10> C 	 -96.0832 	 -26.4033 	 -60.2164
| 11> C 	 -95.706 	 -27.7148 	 -60.4445
| 12> H 	 -95.2531 	 -25.7298 	 -60.012
| 13> C 	 -98.0537 	 -24.8459 	 -60.3148
| 14> H 	 -99.0207 	 -24.824 	 -60.8061
| 15> H 	 -97.5306 	 -24.1513 	 -61.0184
| 16> C 	 -98.068 	 -24.3512 	 -58.8898
| 17> H 	 -98.6841 	 -23.4894 	 -58.8163
| 18> H 	 -98.5467 	 -25.0936 	 -58.2865
| 19> C 	 -96.6992 	 -24.0844 	 -58.1564
| 20> H 	 -96.8637 	 -23.6124 	 -57.0889
| 21> H 	 -96.1563 	 -24.9961 	 -57.9123
| 22> H 	 -96.1593 	 -23.3435 	 -58.7468
| 23> S 	 -93.2272 	 -27.7957 	 -61.7165
| 24> C 	 -91.9747 	 -28.6703 	 -60.9565
| 25> C 	 -92.3397 	 -29.2347 	 -59.7655
| 26> C 	 -93.7048 	 -28.951 	 -59.444
| 27> C 	 -94.3516 	 -28.2214 	 -60.413
| 28> H 	 -91.6263 	 -29.8907 	 -59.2362
| 29> C 	 -94.4051 	 -29.4256 	 -58.2057
| 30> H 	 -95.4088 	 -29.1033 	 -58.1694
| 31> H 	 -93.8317 	 -28.9642 	 -57.3691
| 32> C 	 -94.4296 	 -30.9296 	 -58.1828
| 33> H 	 -93.3554 	 -31.0982 	 -58.1384
| 34> H 	 -94.7649 	 -31.4315 	 -59.1204
| 35> C 	 -95.1626 	 -31.5495 	 -57.0196
| 36> H 	 -94.9414 	 -31.017 	 -56.1046
| 37> H 	 -94.7747 	 -32.5488 	 -56.8246
| 38> H 	 -96.2258 	 -31.7249 	 -57.1871
| 39> H 	 -99.0712 	 -27.3358 	 -61.1915
| 40> H 	 -90.962 	 -28.9022 	 -61.3227
| 41> *
| 42>
| 43>                          ****END OF INPUT****

CARTESIAN COORDINATES (ANGSTROEM)
---------------------------------
  S    -97.051700  -28.733300  -61.034400
  C    -98.110000  -27.356900  -60.860400
  C    -97.464400  -26.204100  -60.453200
  C    -96.083200  -26.403300  -60.216400
  C    -95.706000  -27.714800  -60.444500
  H    -95.253100  -25.729800  -60.012000
  C    -98.053700  -24.845900  -60.314800
  H    -99.020700  -24.824000  -60.806100
  H    -97.530600  -24.151300  -61.018400
  C    -98.068000  -24.351200  -58.889800
  H    -98.684100  -23.489400  -58.816300
  H    -98.546700  -25.093600  -58.286500
  C    -96.699200  -24.084400  -58.156400
  H    -96.863700  -23.612400  -57.088900
  H    -96.156300  -24.996100  -57.912300
  H    -96.159300  -23.343500  -58.746800
  S    -93.227200  -27.795700  -61.716500
  C    -91.974700  -28.670300  -60.956500
  C    -92.339700  -29.234700  -59.765500
  C    -93.704800  -28.951000  -59.444000
  C    -94.351600  -28.221400  -60.413000
  H    -91.626300  -29.890700  -59.236200
  C    -94.405100  -29.425600  -58.205700
  H    -95.408800  -29.103300  -58.169400
  H    -93.831700  -28.964200  -57.369100
  C    -94.429600  -30.929600  -58.182800
  H    -93.355400  -31.098200  -58.138400
  H    -94.764900  -31.431500  -59.120400
  C    -95.162600  -31.549500  -57.019600
  H    -94.941400  -31.017000  -56.104600
  H    -94.774700  -32.548800  -56.824600
  H    -96.225800  -31.724900  -57.187100
  H    -99.071200  -27.335800  -61.191500
  H    -90.962000  -28.902200  -61.322700

 Total Charge           Charge          ....    0
 Multiplicity           Mult            ....    1
 Number of Electrons    NEL             ....  134
 Basis Dimension        Dim             ....  322

ORBITAL ENERGIES
----------------

  NO   OCC          E(Eh)            E(eV)
   0   2.0000     -88.966804     -2420.9098
   1   2.0000     -88.963574     -2420.8219
   2   2.0000     -10.325482      -280.9707
   3   2.0000     -10.317474      -280.7527
   4   2.0000     -10.313466      -280.6437
   5   2.0000     -10.306623      -280.4575
   6   2.0000     -10.297736      -280.2156
   7   2.0000     -10.297435      -280.2075
   8   2.0000     -10.292064      -280.0613
   9   2.0000     -10.291517      -280.0464
  10   2.0000     -10.290864      -280.0287
  11   2.0000     -10.288241      -279.9573
  12   2.0000     -10.282511      -279.8013
  13   2.0000     -10.281457      -279.7727
  14   2.0000     -10.279935      -279.7313
  15   2.0000     -10.271845      -279.5111
  16   2.0000      -8.080891      -219.8922
  17   2.0000      -8.078728      -219.8334
  18   2.0000      -6.039289      -164.3374
  19   2.0000      -6.037185      -164.2801
  20   2.0000      -6.035623      -164.2376
  21   2.0000      -6.033216      -164.1721
  22   2.0000      -6.031690      -164.1306
  23   2.0000      -6.029478      -164.0704
  24   2.0000      -1.006192       -27.3799
  25   2.0000      -0.985066       -26.8050
  26   2.0000      -0.915973       -24.9249
  27   2.0000      -0.912529       -24.8312
  28   2.0000      -0.869615       -23.6634
  29   2.0000      -0.849756       -23.1230
  30   2.0000      -0.844115       -22.9695
  31   2.0000      -0.815821       -22.1996
  32   2.0000      -0.785334       -21.3700
  33   2.0000      -0.770719       -20.9723
  34   2.0000      -0.703344       -19.1390
  35   2.0000      -0.701640       -19.0926
  36   2.0000      -0.694693       -18.9035
  37   2.0000      -0.657047       -17.8792
  38   2.0000      -0.644021       -17.5247
  39   2.0000      -0.615902       -16.7595
  40   2.0000      -0.597620       -16.2621
  41   2.0000      -0.574143       -15.6232
  42   2.0000      -0.567164       -15.4333
  43   2.0000      -0.546124       -14.8608
  44   2.0000      -0.537126       -14.6160
  45   2.0000      -0.523956       -14.2576
  46   2.0000      -0.516695       -14.0600
  47   2.0000      -0.510688       -13.8965
  48   2.0000      -0.503521       -13.7015
  49   2.0000      -0.494930       -13.4677
  50   2.0000      -0.488913       -13.3040
  51   2.0000      -0.484366       -13.1803
  52   2.0000      -0.471292       -12.8245
  53   2.0000      -0.466367       -12.6905
  54   2.0000      -0.459223       -12.4961
  55   2.0000      -0.449433       -12.2297
  56   2.0000      -0.441647       -12.0178
  57   2.0000      -0.440641       -11.9904
  58   2.0000      -0.435833       -11.8596
  59   2.0000      -0.424313       -11.5461
  60   2.0000      -0.420510       -11.4426
  61   2.0000      -0.411830       -11.2065
  62   2.0000      -0.397722       -10.8226
  63   2.0000      -0.337423        -9.1818
  64   2.0000      -0.329192        -8.9578
  65   2.0000      -0.322310        -8.7705
  66   2.0000      -0.305400        -8.3104
  67   0.0000       0.045936         1.2500
  68   0.0000       0.057171         1.5557
  69   0.0000       0.110986         3.0201
  70   0.0000       0.118356         3.2206
  71   0.0000       0.135076         3.6756

MULLIKEN ATOMIC CHARGES
-----------------------
   0 S :    0.113782
   1 C :   -0.071181
   2 C :   -0.090656
   3 C :    0.033899
   4 C :   -0.199265
   5 H :    0.027580
   6 C :    0.078125
   7 H :    0.006043
   8 H :    0.033178
   9 C :   -0.030974
  10 H :    0.022631
  11 H :    0.019494
  12 C :   -0.101470
  13 H :    0.044106
  14 H :    0.053022
  15 H :    0.037878
  16 S :    0.123296
  17 C :   -0.086347
  18 C :   -0.063972
  19 C :   -0.036619
  20 C :   -0.188963
  21 H :    0.031613
  22 C :    0.129045
  23 H :    0.010961
  24 H :    0.036523
  25 C :   -0.119471
  26 H :    0.012110
  27 H :    0.038805
  28 C :   -0.005704
  29 H :    0.019790
  30 H :    0.019896
  31 H :    0.042149
  32 H :    0.003292
  33 H :    0.057405
Sum of atomic charges:   -0.0000000

LOEWDIN ATOMIC CHARGES
----------------------
   0 S :    0.392522
   1 C :   -0.182646
   2 C :   -0.060697
   3 C :   -0.053260
   4 C :   -0.183349
   5 H :    0.039518
   6 C :   -0.038318
   7 H :    0.029803
   8 H :    0.035933
   9 C :   -0.036647
  10 H :    0.021082
  11 H :    0.023894
  12 C :   -0.073168
  13 H :    0.039041
  14 H :    0.025231
  15 H :    0.021518
  16 S :    0.411238
  17 C :   -0.198395
  18 C :   -0.084915
  19 C :   -0.046628
  20 C :   -0.209047
  21 H :    0.035913
  22 C :   -0.026507
  23 H :    0.018642
  24 H :    0.038248
  25 C :   -0.046668
  26 H :    0.019635
  27 H :    0.031265
  28 C :   -0.067093
  29 H :    0.023757
  30 H :    0.027870
  31 H :    0.028780
  32 H :    0.006330
  33 H :    0.037115

  Mayer bond orders larger than 0.100000
B(  0-S ,  1-C ) :   1.1351 B(  0-S ,  4-C ) :   1.1394 B(  1-C ,  2-C ) :   1.6292
B(  1-C , 32-H ) :   0.9724 B(  2-C ,  3-C ) :   1.2095 B(  2-C ,  6-C ) :   1.0305
B(  3-C ,  4-C ) :   1.6081 B(  3-C ,  5-H ) :   0.9884 B(  4-C , 20-C ) :   1.0239
B(  6-C ,  7-H ) :   0.9282 B(  6-C ,  8-H ) :   0.9366 B(  6-C ,  9-C ) :   1.0684
B(  9-C , 10-H ) :   0.9556 B(  9-C , 11-H ) :   0.9498 B(  9-C , 12-C ) :   1.0795
B( 12-C , 13-H ) :   0.9709 B( 12-C , 14-H ) :   0.9676 B( 12-C , 15-H ) :   0.9763
B( 16-S , 17-C ) :   1.1652 B( 16-S , 20-C ) :   1.1198 B( 17-C , 18-C ) :   1.6356
B( 17-C , 33-H ) :   0.9564 B( 18-C , 19-C ) :   1.2185 B( 18-C , 21-H ) :   0.9831
B( 19-C , 20-C ) :   1.6290 B( 19-C , 22-C ) :   1.0490 B( 22-C , 23-H ) :   0.9252
B( 22-C , 24-H ) :   0.9247 B( 22-C , 25-C ) :   1.0535 B( 25-C , 26-H ) :   0.9572
B( 25-C , 27-H ) :   0.9552 B( 25-C , 28-C ) :   1.0955 B( 28-C , 29-H ) :   0.9679
B( 28-C , 30-H ) :   0.9687 B( 28-C , 31-H ) :   0.9740

Dispersion correction           -0.014708200
FINAL SINGLE POINT ENERGY     -1339.877052901152

DIPOLE MOMENT
-------------
                                X             Y             Z
Electronic contribution:      5.55232      -3.60914     -20.00490
Nuclear contribution   :     -5.57123       3.74965      20.33091
                        -----------------------------------------
Total Dipole Moment    :     -0.01891       0.14051       0.32601
                        -----------------------------------------
Magnitude (a.u.)       :      0.35550
Magnitude (Debye)      :      0.90362

Rotational constants in cm-1:     0.017735     0.008793     0.007759
Rotational constants in MHz :   531.696127   263.616784   232.618511

                             ****ORCA TERMINATED NORMALLY****
TOTAL RUN TIME: 0 days 0 hours 0 minutes 21 seconds 998 msec
