                         Program Version 4.2.1 -  RELEASE  -
|  1> ! wB97X-D3 SP def2-SVP
|  2> %pal
|  3> nprocs 24
|  4> end
|  5>
|  6> * xyz 0 1
|  7> S 	 -118.817 	 61.1714 	 -37.0329
|  8> C 	 -120.029 	 60.8944 	 -38.2322
|  9> C 	 -120.827 	 59.8114 	 -37.9709
| 10> C 	 -120.464 	 59.1933 	 -36.7596
| 11> C 	 -119.428 	 59.8678 	 -36.1215
| 12> H 	 -121.013 	 58.4632 	 -36.1911
| 13> C 	 -122.062 	 59.5236 	 -38.8272
| 14> H 	 -121.704 	 59.6387 	 -39.8442
| 15> H 	 -122.778 	 60.3541 	 -38.6466
| 16> C 	 -122.732 	 58.0918 	 -38.799
| 17> H 	 -123.411 	 58.2291 	 -39.6156
| 18> H 	 -122.041 	 57.3383 	 -39.0318
| 19> C 	 -123.557 	 57.7032 	 -37.6104
| 20> H 	 -123.832 	 56.6298 	 -37.7806
| 21> H 	 -122.869 	 57.7151 	 -36.739
| 22> H 	 -124.508 	 58.2455 	 -37.4066
| 23> S 	 -118.486 	 60.7094 	 -33.7284
| 24> C 	 -118.02 	 59.5605 	 -32.529
| 25> C 	 -118.394 	 58.3137 	 -32.8769
| 26> C 	 -118.73 	 58.1415 	 -34.2847
| 27> C 	 -118.851 	 59.4434 	 -34.8429
| 28> H 	 -118.271 	 57.6133 	 -32.0429
| 29> C 	 -119.11 	 56.7974 	 -34.9109
| 30> H 	 -118.661 	 56.7258 	 -35.8466
| 31> H 	 -120.211 	 56.8123 	 -35.0743
| 32> C 	 -118.66 	 55.5371 	 -34.1796
| 33> H 	 -119.358 	 55.4906 	 -33.3747
| 34> H 	 -117.618 	 55.7408 	 -33.8573
| 35> C 	 -118.562 	 54.1949 	 -34.9188
| 36> H 	 -119.581 	 53.9661 	 -35.304
| 37> H 	 -118.202 	 53.4222 	 -34.2893
| 38> H 	 -117.822 	 54.1582 	 -35.8007
| 39> H 	 -120.135 	 61.3377 	 -39.2028
| 40> H 	 -117.664 	 59.8466 	 -31.5704
| 41> *
| 42>
| 43>                          ****END OF INPUT****

CARTESIAN COORDINATES (ANGSTROEM)
---------------------------------
  S    -118.817000   61.171400  -37.032900
  C    -120.029000   60.894400  -38.232200
  C    -120.827000   59.811400  -37.970900
  C    -120.464000   59.193300  -36.759600
  C    -119.428000   59.867800  -36.121500
  H    -121.013000   58.463200  -36.191100
  C    -122.062000   59.523600  -38.827200
  H    -121.704000   59.638700  -39.844200
  H    -122.778000   60.354100  -38.646600
  C    -122.732000   58.091800  -38.799000
  H    -123.411000   58.229100  -39.615600
  H    -122.041000   57.338300  -39.031800
  C    -123.557000   57.703200  -37.610400
  H    -123.832000   56.629800  -37.780600
  H    -122.869000   57.715100  -36.739000
  H    -124.508000   58.245500  -37.406600
  S    -118.486000   60.709400  -33.728400
  C    -118.020000   59.560500  -32.529000
  C    -118.394000   58.313700  -32.876900
  C    -118.730000   58.141500  -34.284700
  C    -118.851000   59.443400  -34.842900
  H    -118.271000   57.613300  -32.042900
  C    -119.110000   56.797400  -34.910900
  H    -118.661000   56.725800  -35.846600
  H    -120.211000   56.812300  -35.074300
  C    -118.660000   55.537100  -34.179600
  H    -119.358000   55.490600  -33.374700
  H    -117.618000   55.740800  -33.857300
  C    -118.562000   54.194900  -34.918800
  H    -119.581000   53.966100  -35.304000
  H    -118.202000   53.422200  -34.289300
  H    -117.822000   54.158200  -35.800700
  H    -120.135000   61.337700  -39.202800
  H    -117.664000   59.846600  -31.570400

 Total Charge           Charge          ....    0
 Multiplicity           Mult            ....    1
 Number of Electrons    NEL             ....  134
 Basis Dimension        Dim             ....  322

ORBITAL ENERGIES
----------------

  NO   OCC          E(Eh)            E(eV)
   0   2.0000     -88.969423     -2420.9811
   1   2.0000     -88.961239     -2420.7584
   2   2.0000     -10.326353      -280.9944
   3   2.0000     -10.322739      -280.8960
   4   2.0000     -10.311077      -280.5787
   5   2.0000     -10.305537      -280.4279
   6   2.0000     -10.302736      -280.3517
   7   2.0000     -10.296090      -280.1709
   8   2.0000     -10.294157      -280.1182
   9   2.0000     -10.291605      -280.0488
  10   2.0000     -10.290556      -280.0203
  11   2.0000     -10.287407      -279.9346
  12   2.0000     -10.286967      -279.9226
  13   2.0000     -10.286005      -279.8964
  14   2.0000     -10.284858      -279.8652
  15   2.0000     -10.284006      -279.8420
  16   2.0000      -8.084968      -220.0032
  17   2.0000      -8.077267      -219.7936
  18   2.0000      -6.043289      -164.4463
  19   2.0000      -6.039334      -164.3386
  20   2.0000      -6.035914      -164.2456
  21   2.0000      -6.035639      -164.2381
  22   2.0000      -6.031701      -164.1309
  23   2.0000      -6.027994      -164.0301
  24   2.0000      -1.012456       -27.5503
  25   2.0000      -0.988834       -26.9075
  26   2.0000      -0.911763       -24.8103
  27   2.0000      -0.909863       -24.7586
  28   2.0000      -0.872774       -23.7494
  29   2.0000      -0.854635       -23.2558
  30   2.0000      -0.845359       -23.0034
  31   2.0000      -0.818254       -22.2658
  32   2.0000      -0.787230       -21.4216
  33   2.0000      -0.773861       -21.0578
  34   2.0000      -0.707832       -19.2611
  35   2.0000      -0.697606       -18.9828
  36   2.0000      -0.690948       -18.8017
  37   2.0000      -0.648367       -17.6430
  38   2.0000      -0.633655       -17.2426
  39   2.0000      -0.622027       -16.9262
  40   2.0000      -0.599054       -16.3011
  41   2.0000      -0.578299       -15.7363
  42   2.0000      -0.573227       -15.5983
  43   2.0000      -0.543428       -14.7874
  44   2.0000      -0.537848       -14.6356
  45   2.0000      -0.527272       -14.3478
  46   2.0000      -0.522292       -14.2123
  47   2.0000      -0.512453       -13.9446
  48   2.0000      -0.500433       -13.6175
  49   2.0000      -0.497511       -13.5380
  50   2.0000      -0.488747       -13.2995
  51   2.0000      -0.486252       -13.2316
  52   2.0000      -0.471059       -12.8182
  53   2.0000      -0.468949       -12.7608
  54   2.0000      -0.463905       -12.6235
  55   2.0000      -0.455566       -12.3966
  56   2.0000      -0.446928       -12.1615
  57   2.0000      -0.444719       -12.1014
  58   2.0000      -0.433196       -11.7879
  59   2.0000      -0.422667       -11.5014
  60   2.0000      -0.417674       -11.3655
  61   2.0000      -0.409835       -11.1522
  62   2.0000      -0.407679       -11.0935
  63   2.0000      -0.349698        -9.5158
  64   2.0000      -0.334052        -9.0900
  65   2.0000      -0.327184        -8.9031
  66   2.0000      -0.283903        -7.7254
  67   0.0000       0.028120         0.7652
  68   0.0000       0.083245         2.2652
  69   0.0000       0.111014         3.0208
  70   0.0000       0.121491         3.3059
  71   0.0000       0.130593         3.5536

MULLIKEN ATOMIC CHARGES
-----------------------
   0 S :    0.142281
   1 C :   -0.118458
   2 C :   -0.060847
   3 C :    0.003479
   4 C :   -0.147480
   5 H :   -0.003607
   6 C :    0.020364
   7 H :    0.024769
   8 H :    0.052737
   9 C :   -0.039718
  10 H :    0.021513
  11 H :    0.025458
  12 C :   -0.061684
  13 H :    0.035788
  14 H :    0.024038
  15 H :    0.047610
  16 S :    0.100921
  17 C :   -0.080902
  18 C :   -0.057784
  19 C :   -0.060398
  20 C :   -0.146275
  21 H :    0.027330
  22 C :    0.094815
  23 H :    0.010915
  24 H :    0.040464
  25 C :   -0.099719
  26 H :    0.028978
  27 H :    0.038229
  28 C :   -0.041689
  29 H :    0.033087
  30 H :    0.034655
  31 H :    0.040098
  32 H :    0.030274
  33 H :    0.040757
Sum of atomic charges:    0.0000000

LOEWDIN ATOMIC CHARGES
----------------------
   0 S :    0.441711
   1 C :   -0.213483
   2 C :   -0.064263
   3 C :   -0.070513
   4 C :   -0.208772
   5 H :    0.024822
   6 C :   -0.032099
   7 H :    0.031477
   8 H :    0.039608
   9 C :   -0.038778
  10 H :    0.026506
  11 H :    0.021886
  12 C :   -0.071462
  13 H :    0.033225
  14 H :    0.022505
  15 H :    0.030693
  16 S :    0.416575
  17 C :   -0.191701
  18 C :   -0.075414
  19 C :   -0.053653
  20 C :   -0.200428
  21 H :    0.035588
  22 C :   -0.031245
  23 H :    0.024925
  24 H :    0.032225
  25 C :   -0.044182
  26 H :    0.020687
  27 H :    0.030157
  28 C :   -0.066027
  29 H :    0.026190
  30 H :    0.023641
  31 H :    0.033678
  32 H :    0.024548
  33 H :    0.021374

  Mayer bond orders larger than 0.100000
B(  0-S ,  1-C ) :   1.1375 B(  0-S ,  4-C ) :   1.1802 B(  1-C ,  2-C ) :   1.6122
B(  1-C , 32-H ) :   0.9671 B(  2-C ,  3-C ) :   1.2652 B(  2-C ,  6-C ) :   1.0000
B(  3-C ,  4-C ) :   1.5535 B(  3-C ,  5-H ) :   0.9892 B(  4-C , 20-C ) :   1.0392
B(  6-C ,  7-H ) :   0.9383 B(  6-C ,  8-H ) :   0.9467 B(  6-C ,  9-C ) :   1.0721
B(  9-C , 10-H ) :   0.9518 B(  9-C , 11-H ) :   0.9572 B(  9-C , 12-C ) :   1.0856
B( 12-C , 13-H ) :   0.9678 B( 12-C , 14-H ) :   0.9780 B( 12-C , 15-H ) :   0.9720
B( 16-S , 17-C ) :   1.1404 B( 16-S , 20-C ) :   1.1684 B( 17-C , 18-C ) :   1.6426
B( 17-C , 33-H ) :   0.9699 B( 18-C , 19-C ) :   1.2100 B( 18-C , 21-H ) :   0.9818
B( 19-C , 20-C ) :   1.5768 B( 19-C , 22-C ) :   1.0388 B( 22-C , 23-H ) :   0.9223
B( 22-C , 24-H ) :   0.9270 B( 22-C , 25-C ) :   1.0722 B( 25-C , 26-H ) :   0.9483
B( 25-C , 27-H ) :   0.9563 B( 25-C , 28-C ) :   1.0910 B( 28-C , 29-H ) :   0.9736
B( 28-C , 30-H ) :   0.9722 B( 28-C , 31-H ) :   0.9714

Dispersion correction           -0.013776598
FINAL SINGLE POINT ENERGY     -1339.862678892285

DIPOLE MOMENT
-------------
                                X             Y             Z
Electronic contribution:     14.36418      27.02582       6.65359
Nuclear contribution   :    -14.77725     -27.61912      -6.77171
                        -----------------------------------------
Total Dipole Moment    :     -0.41307      -0.59330      -0.11812
                        -----------------------------------------
Magnitude (a.u.)       :      0.73252
Magnitude (Debye)      :      1.86191

Rotational constants in cm-1:     0.014910     0.010038     0.006743
Rotational constants in MHz :   446.982321   300.932803   202.137924

                             ****ORCA TERMINATED NORMALLY****
TOTAL RUN TIME: 0 days 0 hours 0 minutes 21 seconds 553 msec
