                         Program Version 4.2.1 -  RELEASE  -
|  1> ! wB97X-D3 SP def2-SVP
|  2> %pal
|  3> nprocs 24
|  4> end
|  5>
|  6> * xyz 0 1
|  7> S 	 -141.112 	 29.7228 	 -12.7945
|  8> C 	 -139.672 	 30.7239 	 -13.1028
|  9> C 	 -139.695 	 31.2412 	 -14.3773
| 10> C 	 -140.862 	 31.0119 	 -15.0885
| 11> C 	 -141.773 	 30.2641 	 -14.3296
| 12> H 	 -141.057 	 31.4692 	 -16.0667
| 13> C 	 -138.649 	 32.1848 	 -14.9189
| 14> H 	 -137.908 	 32.3949 	 -14.077
| 15> H 	 -139.058 	 33.1771 	 -15.198
| 16> C 	 -137.902 	 31.5996 	 -16.0391
| 17> H 	 -137.576 	 30.6115 	 -15.8475
| 18> H 	 -138.699 	 31.5808 	 -16.9075
| 19> C 	 -136.612 	 32.3654 	 -16.5147
| 20> H 	 -135.841 	 32.2907 	 -15.7834
| 21> H 	 -136.18 	 31.9782 	 -17.3908
| 22> H 	 -136.758 	 33.4193 	 -16.5626
| 23> S 	 -144.455 	 30.1934 	 -13.5834
| 24> C 	 -145.581 	 29.579 	 -14.6813
| 25> C 	 -144.991 	 29.0405 	 -15.7989
| 26> C 	 -143.623 	 29.3729 	 -15.9596
| 27> C 	 -143.125 	 29.896 	 -14.749
| 28> H 	 -145.642 	 28.5504 	 -16.6231
| 29> C 	 -142.737 	 28.8965 	 -17.0615
| 30> H 	 -142.184 	 29.7455 	 -17.4743
| 31> H 	 -143.434 	 28.6732 	 -17.8678
| 32> C 	 -141.92 	 27.6334 	 -16.7465
| 33> H 	 -142.585 	 26.8428 	 -16.3041
| 34> H 	 -141.027 	 27.9581 	 -16.1781
| 35> C 	 -141.366 	 26.9979 	 -18.0059
| 36> H 	 -142.092 	 26.2991 	 -18.3688
| 37> H 	 -140.581 	 26.3292 	 -17.6208
| 38> H 	 -141.019 	 27.6619 	 -18.8658
| 39> H 	 -138.858 	 30.8484 	 -12.3481
| 40> H 	 -146.626 	 29.4904 	 -14.4242
| 41> *
| 42>
| 43>                          ****END OF INPUT****

CARTESIAN COORDINATES (ANGSTROEM)
---------------------------------
  S    -141.112000   29.722800  -12.794500
  C    -139.672000   30.723900  -13.102800
  C    -139.695000   31.241200  -14.377300
  C    -140.862000   31.011900  -15.088500
  C    -141.773000   30.264100  -14.329600
  H    -141.057000   31.469200  -16.066700
  C    -138.649000   32.184800  -14.918900
  H    -137.908000   32.394900  -14.077000
  H    -139.058000   33.177100  -15.198000
  C    -137.902000   31.599600  -16.039100
  H    -137.576000   30.611500  -15.847500
  H    -138.699000   31.580800  -16.907500
  C    -136.612000   32.365400  -16.514700
  H    -135.841000   32.290700  -15.783400
  H    -136.180000   31.978200  -17.390800
  H    -136.758000   33.419300  -16.562600
  S    -144.455000   30.193400  -13.583400
  C    -145.581000   29.579000  -14.681300
  C    -144.991000   29.040500  -15.798900
  C    -143.623000   29.372900  -15.959600
  C    -143.125000   29.896000  -14.749000
  H    -145.642000   28.550400  -16.623100
  C    -142.737000   28.896500  -17.061500
  H    -142.184000   29.745500  -17.474300
  H    -143.434000   28.673200  -17.867800
  C    -141.920000   27.633400  -16.746500
  H    -142.585000   26.842800  -16.304100
  H    -141.027000   27.958100  -16.178100
  C    -141.366000   26.997900  -18.005900
  H    -142.092000   26.299100  -18.368800
  H    -140.581000   26.329200  -17.620800
  H    -141.019000   27.661900  -18.865800
  H    -138.858000   30.848400  -12.348100
  H    -146.626000   29.490400  -14.424200

 Total Charge           Charge          ....    0
 Multiplicity           Mult            ....    1
 Number of Electrons    NEL             ....  134
 Basis Dimension        Dim             ....  322

ORBITAL ENERGIES
----------------

  NO   OCC          E(Eh)            E(eV)
   0   2.0000     -88.969604     -2420.9860
   1   2.0000     -88.964533     -2420.8480
   2   2.0000     -10.332787      -281.1694
   3   2.0000     -10.326044      -280.9859
   4   2.0000     -10.316141      -280.7165
   5   2.0000     -10.311018      -280.5771
   6   2.0000     -10.301797      -280.3261
   7   2.0000     -10.297069      -280.1975
   8   2.0000     -10.295261      -280.1483
   9   2.0000     -10.292823      -280.0819
  10   2.0000     -10.292746      -280.0799
  11   2.0000     -10.289941      -280.0035
  12   2.0000     -10.288439      -279.9627
  13   2.0000     -10.288172      -279.9554
  14   2.0000     -10.276539      -279.6389
  15   2.0000     -10.271765      -279.5089
  16   2.0000      -8.083577      -219.9653
  17   2.0000      -8.079890      -219.8650
  18   2.0000      -6.042046      -164.4124
  19   2.0000      -6.038247      -164.3090
  20   2.0000      -6.038222      -164.3084
  21   2.0000      -6.034376      -164.2037
  22   2.0000      -6.034247      -164.2002
  23   2.0000      -6.030864      -164.1082
  24   2.0000      -1.006022       -27.3753
  25   2.0000      -0.986170       -26.8351
  26   2.0000      -0.916585       -24.9416
  27   2.0000      -0.912490       -24.8301
  28   2.0000      -0.864304       -23.5189
  29   2.0000      -0.856688       -23.3117
  30   2.0000      -0.846965       -23.0471
  31   2.0000      -0.809132       -22.0176
  32   2.0000      -0.786349       -21.3977
  33   2.0000      -0.771500       -20.9936
  34   2.0000      -0.704751       -19.1773
  35   2.0000      -0.692871       -18.8540
  36   2.0000      -0.686721       -18.6866
  37   2.0000      -0.655554       -17.8385
  38   2.0000      -0.634217       -17.2579
  39   2.0000      -0.624108       -16.9829
  40   2.0000      -0.597636       -16.2625
  41   2.0000      -0.573015       -15.5925
  42   2.0000      -0.566159       -15.4060
  43   2.0000      -0.548545       -14.9267
  44   2.0000      -0.529511       -14.4087
  45   2.0000      -0.526905       -14.3378
  46   2.0000      -0.517108       -14.0712
  47   2.0000      -0.511197       -13.9104
  48   2.0000      -0.506125       -13.7724
  49   2.0000      -0.489967       -13.3327
  50   2.0000      -0.487348       -13.2614
  51   2.0000      -0.482220       -13.1219
  52   2.0000      -0.472103       -12.8466
  53   2.0000      -0.465847       -12.6763
  54   2.0000      -0.455414       -12.3924
  55   2.0000      -0.448316       -12.1993
  56   2.0000      -0.446209       -12.1420
  57   2.0000      -0.441183       -12.0052
  58   2.0000      -0.436518       -11.8783
  59   2.0000      -0.421768       -11.4769
  60   2.0000      -0.417938       -11.3727
  61   2.0000      -0.410922       -11.1818
  62   2.0000      -0.406296       -11.0559
  63   2.0000      -0.343197        -9.3389
  64   2.0000      -0.337797        -9.1919
  65   2.0000      -0.332329        -9.0431
  66   2.0000      -0.284299        -7.7362
  67   0.0000       0.025282         0.6880
  68   0.0000       0.070554         1.9199
  69   0.0000       0.112020         3.0482
  70   0.0000       0.124688         3.3929
  71   0.0000       0.128608         3.4996

MULLIKEN ATOMIC CHARGES
-----------------------
   0 S :    0.113669
   1 C :   -0.157638
   2 C :   -0.041886
   3 C :    0.010766
   4 C :   -0.140258
   5 H :    0.026656
   6 C :    0.042334
   7 H :    0.014941
   8 H :    0.040854
   9 C :   -0.109367
  10 H :    0.026088
  11 H :    0.030735
  12 C :    0.008036
  13 H :    0.012525
  14 H :    0.027867
  15 H :    0.016044
  16 S :    0.114630
  17 C :   -0.087285
  18 C :   -0.069945
  19 C :   -0.035544
  20 C :   -0.174651
  21 H :    0.045664
  22 C :    0.069895
  23 H :    0.024630
  24 H :    0.000456
  25 C :   -0.067973
  26 H :    0.047245
  27 H :    0.052434
  28 C :   -0.063907
  29 H :    0.020586
  30 H :    0.032341
  31 H :    0.049761
  32 H :    0.062899
  33 H :    0.057396
Sum of atomic charges:   -0.0000000

LOEWDIN ATOMIC CHARGES
----------------------
   0 S :    0.394851
   1 C :   -0.199602
   2 C :   -0.065414
   3 C :   -0.066700
   4 C :   -0.183112
   5 H :    0.036644
   6 C :   -0.037790
   7 H :    0.029670
   8 H :    0.033273
   9 C :   -0.041061
  10 H :    0.019335
  11 H :    0.028181
  12 C :   -0.057693
  13 H :    0.021429
  14 H :    0.021971
  15 H :    0.020566
  16 S :    0.417687
  17 C :   -0.204660
  18 C :   -0.087592
  19 C :   -0.055237
  20 C :   -0.190328
  21 H :    0.043890
  22 C :   -0.039325
  23 H :    0.031770
  24 H :    0.026613
  25 C :   -0.038007
  26 H :    0.038796
  27 H :    0.031779
  28 C :   -0.075919
  29 H :    0.018745
  30 H :    0.030680
  31 H :    0.032560
  32 H :    0.035552
  33 H :    0.028449

  Mayer bond orders larger than 0.100000
B(  0-S ,  1-C ) :   1.1171 B(  0-S ,  4-C ) :   1.1705 B(  1-C ,  2-C ) :   1.6048
B(  1-C ,  4-C ) :   0.1018 B(  1-C , 32-H ) :   0.9626 B(  2-C ,  3-C ) :   1.2619
B(  2-C ,  6-C ) :   1.0260 B(  3-C ,  4-C ) :   1.5361 B(  3-C ,  5-H ) :   0.9906
B(  4-C , 20-C ) :   1.0606 B(  6-C ,  7-H ) :   0.9409 B(  6-C ,  8-H ) :   0.9409
B(  6-C ,  9-C ) :   1.0610 B(  9-C , 10-H ) :   0.9568 B(  9-C , 11-H ) :   0.9530
B(  9-C , 12-C ) :   1.0802 B( 12-C , 13-H ) :   0.9713 B( 12-C , 14-H ) :   0.9755
B( 12-C , 15-H ) :   0.9731 B( 16-S , 17-C ) :   1.1785 B( 16-S , 20-C ) :   1.1503
B( 17-C , 18-C ) :   1.5884 B( 17-C , 20-C ) :   0.1046 B( 17-C , 33-H ) :   0.9664
B( 18-C , 19-C ) :   1.2713 B( 18-C , 21-H ) :   0.9687 B( 19-C , 20-C ) :   1.5423
B( 19-C , 22-C ) :   1.0629 B( 22-C , 23-H ) :   0.9200 B( 22-C , 24-H ) :   0.9264
B( 22-C , 25-C ) :   1.0656 B( 25-C , 26-H ) :   0.9543 B( 25-C , 27-H ) :   0.9560
B( 25-C , 28-C ) :   1.0772 B( 28-C , 29-H ) :   0.9764 B( 28-C , 30-H ) :   0.9733
B( 28-C , 31-H ) :   0.9730

Dispersion correction           -0.014293156
FINAL SINGLE POINT ENERGY     -1339.870662820644

DIPOLE MOMENT
-------------
                                X             Y             Z
Electronic contribution:    -20.64123       1.02814      22.28163
Nuclear contribution   :     20.89347      -1.05979     -22.76789
                        -----------------------------------------
Total Dipole Moment    :      0.25224      -0.03166      -0.48627
                        -----------------------------------------
Magnitude (a.u.)       :      0.54871
Magnitude (Debye)      :      1.39471

Rotational constants in cm-1:     0.018545     0.008743     0.006849
Rotational constants in MHz :   555.964166   262.101943   205.325399

                             ****ORCA TERMINATED NORMALLY****
TOTAL RUN TIME: 0 days 0 hours 0 minutes 20 seconds 723 msec
