                         Program Version 4.2.1 -  RELEASE  -
|  1> ! wB97X-D3 SP def2-SVP
|  2> %pal
|  3> nprocs 24
|  4> end
|  5>
|  6> * xyz 0 1
|  7> S 	 -103.913 	 60.2555 	 -5.80212
|  8> C 	 -103.485 	 61.1804 	 -4.44674
|  9> C 	 -103.881 	 62.4272 	 -4.52292
| 10> C 	 -104.839 	 62.6094 	 -5.54223
| 11> C 	 -104.959 	 61.5369 	 -6.39886
| 12> H 	 -105.442 	 63.5386 	 -5.68658
| 13> C 	 -103.609 	 63.4604 	 -3.49636
| 14> H 	 -103.029 	 62.9412 	 -2.66447
| 15> H 	 -104.514 	 63.7736 	 -2.89782
| 16> C 	 -102.849 	 64.72 	 -3.98086
| 17> H 	 -101.8 	 64.4959 	 -4.18859
| 18> H 	 -103.236 	 65.0759 	 -4.86707
| 19> C 	 -102.927 	 65.8937 	 -3.02887
| 20> H 	 -102.588 	 66.7515 	 -3.60433
| 21> H 	 -104.019 	 66.0971 	 -2.89168
| 22> H 	 -102.408 	 65.8526 	 -2.04624
| 23> S 	 -105.105 	 61.3539 	 -8.99765
| 24> C 	 -106.578 	 61.3683 	 -9.89326
| 25> C 	 -107.614 	 61.5126 	 -9.06684
| 26> C 	 -107.207 	 61.5212 	 -7.67833
| 27> C 	 -105.85 	 61.4747 	 -7.50834
| 28> H 	 -108.626 	 61.6306 	 -9.34889
| 29> C 	 -108.222 	 61.7477 	 -6.56284
| 30> H 	 -107.808 	 61.3042 	 -5.65681
| 31> H 	 -109.139 	 61.1769 	 -6.81838
| 32> C 	 -108.629 	 63.1348 	 -6.33173
| 33> H 	 -109.245 	 63.5213 	 -7.12813
| 34> H 	 -107.678 	 63.6646 	 -6.3014
| 35> C 	 -109.561 	 63.193 	 -5.10265
| 36> H 	 -108.998 	 62.7644 	 -4.2695
| 37> H 	 -110.547 	 62.6423 	 -5.22255
| 38> H 	 -109.751 	 64.1931 	 -4.8366
| 39> H 	 -102.669 	 60.9558 	 -3.79158
| 40> H 	 -106.619 	 61.3701 	 -10.9599
| 41> *
| 42>
| 43>                          ****END OF INPUT****

CARTESIAN COORDINATES (ANGSTROEM)
---------------------------------
  S    -103.913000   60.255500   -5.802120
  C    -103.485000   61.180400   -4.446740
  C    -103.881000   62.427200   -4.522920
  C    -104.839000   62.609400   -5.542230
  C    -104.959000   61.536900   -6.398860
  H    -105.442000   63.538600   -5.686580
  C    -103.609000   63.460400   -3.496360
  H    -103.029000   62.941200   -2.664470
  H    -104.514000   63.773600   -2.897820
  C    -102.849000   64.720000   -3.980860
  H    -101.800000   64.495900   -4.188590
  H    -103.236000   65.075900   -4.867070
  C    -102.927000   65.893700   -3.028870
  H    -102.588000   66.751500   -3.604330
  H    -104.019000   66.097100   -2.891680
  H    -102.408000   65.852600   -2.046240
  S    -105.105000   61.353900   -8.997650
  C    -106.578000   61.368300   -9.893260
  C    -107.614000   61.512600   -9.066840
  C    -107.207000   61.521200   -7.678330
  C    -105.850000   61.474700   -7.508340
  H    -108.626000   61.630600   -9.348890
  C    -108.222000   61.747700   -6.562840
  H    -107.808000   61.304200   -5.656810
  H    -109.139000   61.176900   -6.818380
  C    -108.629000   63.134800   -6.331730
  H    -109.245000   63.521300   -7.128130
  H    -107.678000   63.664600   -6.301400
  C    -109.561000   63.193000   -5.102650
  H    -108.998000   62.764400   -4.269500
  H    -110.547000   62.642300   -5.222550
  H    -109.751000   64.193100   -4.836600
  H    -102.669000   60.955800   -3.791580
  H    -106.619000   61.370100  -10.959900

 Total Charge           Charge          ....    0
 Multiplicity           Mult            ....    1
 Number of Electrons    NEL             ....  134
 Basis Dimension        Dim             ....  322

ORBITAL ENERGIES
----------------

  NO   OCC          E(Eh)            E(eV)
   0   2.0000     -88.965752     -2420.8812
   1   2.0000     -88.956654     -2420.6336
   2   2.0000     -10.326731      -281.0046
   3   2.0000     -10.315027      -280.6862
   4   2.0000     -10.308780      -280.5162
   5   2.0000     -10.301645      -280.3220
   6   2.0000     -10.297283      -280.2033
   7   2.0000     -10.296619      -280.1853
   8   2.0000     -10.294482      -280.1271
   9   2.0000     -10.287603      -279.9399
  10   2.0000     -10.286334      -279.9054
  11   2.0000     -10.282300      -279.7956
  12   2.0000     -10.281411      -279.7714
  13   2.0000     -10.281280      -279.7679
  14   2.0000     -10.279501      -279.7194
  15   2.0000     -10.278971      -279.7050
  16   2.0000      -8.081509      -219.9090
  17   2.0000      -8.074183      -219.7097
  18   2.0000      -6.040013      -164.3571
  19   2.0000      -6.035919      -164.2457
  20   2.0000      -6.032633      -164.1563
  21   2.0000      -6.032142      -164.1429
  22   2.0000      -6.028175      -164.0350
  23   2.0000      -6.024926      -163.9466
  24   2.0000      -1.023671       -27.8555
  25   2.0000      -1.002340       -27.2750
  26   2.0000      -0.919303       -25.0155
  27   2.0000      -0.915268       -24.9057
  28   2.0000      -0.885243       -24.0887
  29   2.0000      -0.855276       -23.2732
  30   2.0000      -0.847565       -23.0634
  31   2.0000      -0.823866       -22.4185
  32   2.0000      -0.779406       -21.2087
  33   2.0000      -0.771310       -20.9884
  34   2.0000      -0.714212       -19.4347
  35   2.0000      -0.697828       -18.9889
  36   2.0000      -0.694376       -18.8949
  37   2.0000      -0.670300       -18.2398
  38   2.0000      -0.642904       -17.4943
  39   2.0000      -0.624317       -16.9885
  40   2.0000      -0.602153       -16.3854
  41   2.0000      -0.578701       -15.7473
  42   2.0000      -0.574893       -15.6436
  43   2.0000      -0.561201       -15.2711
  44   2.0000      -0.530360       -14.4318
  45   2.0000      -0.528186       -14.3727
  46   2.0000      -0.520205       -14.1555
  47   2.0000      -0.515744       -14.0341
  48   2.0000      -0.511451       -13.9173
  49   2.0000      -0.500467       -13.6184
  50   2.0000      -0.495443       -13.4817
  51   2.0000      -0.479702       -13.0533
  52   2.0000      -0.474113       -12.9013
  53   2.0000      -0.464782       -12.6474
  54   2.0000      -0.457307       -12.4440
  55   2.0000      -0.452146       -12.3035
  56   2.0000      -0.448075       -12.1927
  57   2.0000      -0.439125       -11.9492
  58   2.0000      -0.435713       -11.8564
  59   2.0000      -0.422966       -11.5095
  60   2.0000      -0.418466       -11.3870
  61   2.0000      -0.415390       -11.3033
  62   2.0000      -0.408215       -11.1081
  63   2.0000      -0.348057        -9.4711
  64   2.0000      -0.332710        -9.0535
  65   2.0000      -0.325828        -8.8662
  66   2.0000      -0.307121        -8.3572
  67   0.0000       0.044727         1.2171
  68   0.0000       0.069968         1.9039
  69   0.0000       0.117285         3.1915
  70   0.0000       0.128567         3.4985
  71   0.0000       0.132076         3.5940

MULLIKEN ATOMIC CHARGES
-----------------------
   0 S :    0.128250
   1 C :   -0.099813
   2 C :   -0.045498
   3 C :    0.001944
   4 C :   -0.136620
   5 H :    0.029658
   6 C :    0.005604
   7 H :    0.016127
   8 H :    0.037717
   9 C :   -0.034160
  10 H :    0.028316
  11 H :    0.007837
  12 C :   -0.065463
  13 H :    0.029023
  14 H :    0.025753
  15 H :    0.049209
  16 S :    0.100569
  17 C :   -0.062727
  18 C :   -0.008454
  19 C :   -0.051857
  20 C :   -0.177807
  21 H :    0.000160
  22 C :    0.042910
  23 H :    0.026090
  24 H :    0.013391
  25 C :   -0.046953
  26 H :    0.019929
  27 H :    0.018475
  28 C :   -0.032097
  29 H :    0.023692
  30 H :    0.046090
  31 H :    0.022447
  32 H :    0.041153
  33 H :    0.047102
Sum of atomic charges:   -0.0000000

LOEWDIN ATOMIC CHARGES
----------------------
   0 S :    0.422981
   1 C :   -0.200811
   2 C :   -0.081836
   3 C :   -0.054973
   4 C :   -0.201090
   5 H :    0.035596
   6 C :   -0.038600
   7 H :    0.032961
   8 H :    0.035573
   9 C :   -0.037112
  10 H :    0.026603
  11 H :    0.014425
  12 C :   -0.068920
  13 H :    0.027595
  14 H :    0.026883
  15 H :    0.028085
  16 S :    0.445509
  17 C :   -0.183337
  18 C :   -0.065777
  19 C :   -0.057126
  20 C :   -0.227647
  21 H :    0.025639
  22 C :   -0.036688
  23 H :    0.029127
  24 H :    0.029094
  25 C :   -0.041648
  26 H :    0.021856
  27 H :    0.021701
  28 C :   -0.060274
  29 H :    0.024216
  30 H :    0.036062
  31 H :    0.017278
  32 H :    0.028381
  33 H :    0.026276

  Mayer bond orders larger than 0.100000
B(  0-S ,  1-C ) :   1.1423 B(  0-S ,  4-C ) :   1.1384 B(  1-C ,  2-C ) :   1.6569
B(  1-C , 32-H ) :   0.9484 B(  2-C ,  3-C ) :   1.2213 B(  2-C ,  6-C ) :   1.0352
B(  3-C ,  4-C ) :   1.5888 B(  3-C ,  5-H ) :   0.9875 B(  4-C , 20-C ) :   1.0253
B(  6-C ,  7-H ) :   0.9393 B(  6-C ,  8-H ) :   0.9465 B(  6-C ,  9-C ) :   1.0475
B(  9-C , 10-H ) :   0.9492 B(  9-C , 11-H ) :   0.9588 B(  9-C , 12-C ) :   1.0907
B( 12-C , 13-H ) :   0.9724 B( 12-C , 14-H ) :   0.9725 B( 12-C , 15-H ) :   0.9761
B( 16-S , 17-C ) :   1.1576 B( 16-S , 20-C ) :   1.1672 B( 17-C , 18-C ) :   1.5938
B( 17-C , 33-H ) :   0.9743 B( 18-C , 19-C ) :   1.2405 B( 18-C , 21-H ) :   1.0020
B( 19-C , 20-C ) :   1.6054 B( 19-C , 22-C ) :   1.0567 B( 22-C , 23-H ) :   0.9332
B( 22-C , 24-H ) :   0.9246 B( 22-C , 25-C ) :   1.0798 B( 25-C , 26-H ) :   0.9462
B( 25-C , 27-H ) :   0.9491 B( 25-C , 28-C ) :   1.0820 B( 28-C , 29-H ) :   0.9744
B( 28-C , 30-H ) :   0.9716 B( 28-C , 31-H ) :   0.9732

Dispersion correction           -0.014014792
FINAL SINGLE POINT ENERGY     -1339.871994454414

DIPOLE MOMENT
-------------
                                X             Y             Z
Electronic contribution:      9.38838     -20.80276     -18.42385
Nuclear contribution   :     -9.67154      21.35314      18.65827
                        -----------------------------------------
Total Dipole Moment    :     -0.28316       0.55038       0.23442
                        -----------------------------------------
Magnitude (a.u.)       :      0.66186
Magnitude (Debye)      :      1.68231

Rotational constants in cm-1:     0.017164     0.008846     0.007046
Rotational constants in MHz :   514.555602   265.208266   211.221759

                             ****ORCA TERMINATED NORMALLY****
TOTAL RUN TIME: 0 days 0 hours 0 minutes 21 seconds 903 msec
