                         Program Version 4.2.1 -  RELEASE  -
|  1> ! wB97X-D3 SP def2-SVP
|  2> %pal
|  3> nprocs 24
|  4> end
|  5>
|  6> * xyz 0 1
|  7> S 	 -107.036 	 47.3964 	 -5.26319
|  8> C 	 -107.935 	 48.7868 	 -4.67302
|  9> C 	 -108.902 	 49.1091 	 -5.60968
| 10> C 	 -108.946 	 48.2251 	 -6.70854
| 11> C 	 -108.031 	 47.2592 	 -6.70323
| 12> H 	 -109.528 	 48.2308 	 -7.60635
| 13> C 	 -109.78 	 50.3426 	 -5.49956
| 14> H 	 -109.896 	 50.6219 	 -4.42606
| 15> H 	 -110.892 	 50.0884 	 -5.70745
| 16> C 	 -109.294 	 51.584 	 -6.23753
| 17> H 	 -109.784 	 52.3782 	 -5.67779
| 18> H 	 -108.213 	 51.7476 	 -6.17957
| 19> C 	 -109.75 	 51.5309 	 -7.7177
| 20> H 	 -110.809 	 51.4548 	 -7.85755
| 21> H 	 -109.344 	 52.418 	 -8.20157
| 22> H 	 -109.31 	 50.6781 	 -8.20638
| 23> S 	 -108.913 	 45.1704 	 -8.14813
| 24> C 	 -108.061 	 44.6438 	 -9.52757
| 25> C 	 -106.852 	 45.2667 	 -9.76707
| 26> C 	 -106.641 	 46.2213 	 -8.75593
| 27> C 	 -107.684 	 46.3605 	 -7.78801
| 28> H 	 -106.289 	 45.026 	 -10.6804
| 29> C 	 -105.355 	 47.0501 	 -8.71004
| 30> H 	 -104.755 	 46.6066 	 -9.54206
| 31> H 	 -105.036 	 46.7968 	 -7.7561
| 32> C 	 -105.523 	 48.6168 	 -8.78867
| 33> H 	 -104.56 	 49.1103 	 -8.72986
| 34> H 	 -105.975 	 48.9262 	 -7.79463
| 35> C 	 -106.137 	 49.0585 	 -10.0993
| 36> H 	 -106.243 	 50.1054 	 -10.1875
| 37> H 	 -107.12 	 48.5425 	 -10.2311
| 38> H 	 -105.458 	 48.8161 	 -10.8914
| 39> H 	 -107.716 	 49.2937 	 -3.77476
| 40> H 	 -108.374 	 43.8345 	 -10.2195
| 41> *
| 42>
| 43>                          ****END OF INPUT****

CARTESIAN COORDINATES (ANGSTROEM)
---------------------------------
  S    -107.036000   47.396400   -5.263190
  C    -107.935000   48.786800   -4.673020
  C    -108.902000   49.109100   -5.609680
  C    -108.946000   48.225100   -6.708540
  C    -108.031000   47.259200   -6.703230
  H    -109.528000   48.230800   -7.606350
  C    -109.780000   50.342600   -5.499560
  H    -109.896000   50.621900   -4.426060
  H    -110.892000   50.088400   -5.707450
  C    -109.294000   51.584000   -6.237530
  H    -109.784000   52.378200   -5.677790
  H    -108.213000   51.747600   -6.179570
  C    -109.750000   51.530900   -7.717700
  H    -110.809000   51.454800   -7.857550
  H    -109.344000   52.418000   -8.201570
  H    -109.310000   50.678100   -8.206380
  S    -108.913000   45.170400   -8.148130
  C    -108.061000   44.643800   -9.527570
  C    -106.852000   45.266700   -9.767070
  C    -106.641000   46.221300   -8.755930
  C    -107.684000   46.360500   -7.788010
  H    -106.289000   45.026000  -10.680400
  C    -105.355000   47.050100   -8.710040
  H    -104.755000   46.606600   -9.542060
  H    -105.036000   46.796800   -7.756100
  C    -105.523000   48.616800   -8.788670
  H    -104.560000   49.110300   -8.729860
  H    -105.975000   48.926200   -7.794630
  C    -106.137000   49.058500  -10.099300
  H    -106.243000   50.105400  -10.187500
  H    -107.120000   48.542500  -10.231100
  H    -105.458000   48.816100  -10.891400
  H    -107.716000   49.293700   -3.774760
  H    -108.374000   43.834500  -10.219500

 Total Charge           Charge          ....    0
 Multiplicity           Mult            ....    1
 Number of Electrons    NEL             ....  134
 Basis Dimension        Dim             ....  322

ORBITAL ENERGIES
----------------

  NO   OCC          E(Eh)            E(eV)
   0   2.0000     -88.968032     -2420.9432
   1   2.0000     -88.962746     -2420.7994
   2   2.0000     -10.325138      -280.9613
   3   2.0000     -10.324722      -280.9500
   4   2.0000     -10.315076      -280.6875
   5   2.0000     -10.315048      -280.6867
   6   2.0000     -10.307184      -280.4727
   7   2.0000     -10.301939      -280.3300
   8   2.0000     -10.297026      -280.1963
   9   2.0000     -10.293641      -280.1042
  10   2.0000     -10.287417      -279.9348
  11   2.0000     -10.286685      -279.9149
  12   2.0000     -10.285622      -279.8860
  13   2.0000     -10.285583      -279.8850
  14   2.0000     -10.273277      -279.5501
  15   2.0000     -10.269998      -279.4609
  16   2.0000      -8.083306      -219.9579
  17   2.0000      -8.077274      -219.7938
  18   2.0000      -6.041529      -164.3984
  19   2.0000      -6.037604      -164.2915
  20   2.0000      -6.035733      -164.2406
  21   2.0000      -6.034474      -164.2064
  22   2.0000      -6.031715      -164.1313
  23   2.0000      -6.028187      -164.0353
  24   2.0000      -1.011733       -27.5306
  25   2.0000      -0.989586       -26.9280
  26   2.0000      -0.910477       -24.7753
  27   2.0000      -0.903517       -24.5860
  28   2.0000      -0.875040       -23.8111
  29   2.0000      -0.850257       -23.1367
  30   2.0000      -0.844948       -22.9922
  31   2.0000      -0.819338       -22.2953
  32   2.0000      -0.782655       -21.2971
  33   2.0000      -0.768195       -20.9036
  34   2.0000      -0.709053       -19.2943
  35   2.0000      -0.700571       -19.0635
  36   2.0000      -0.686742       -18.6872
  37   2.0000      -0.662863       -18.0374
  38   2.0000      -0.647782       -17.6270
  39   2.0000      -0.617379       -16.7997
  40   2.0000      -0.582777       -15.8582
  41   2.0000      -0.573347       -15.6016
  42   2.0000      -0.556577       -15.1452
  43   2.0000      -0.548275       -14.9193
  44   2.0000      -0.542561       -14.7638
  45   2.0000      -0.536439       -14.5972
  46   2.0000      -0.523027       -14.2323
  47   2.0000      -0.515033       -14.0148
  48   2.0000      -0.502328       -13.6690
  49   2.0000      -0.492690       -13.4068
  50   2.0000      -0.488849       -13.3023
  51   2.0000      -0.478662       -13.0251
  52   2.0000      -0.475379       -12.9357
  53   2.0000      -0.467784       -12.7291
  54   2.0000      -0.462397       -12.5825
  55   2.0000      -0.446931       -12.1616
  56   2.0000      -0.443550       -12.0696
  57   2.0000      -0.436691       -11.8830
  58   2.0000      -0.431794       -11.7497
  59   2.0000      -0.423247       -11.5171
  60   2.0000      -0.417437       -11.3590
  61   2.0000      -0.406730       -11.0677
  62   2.0000      -0.401501       -10.9254
  63   2.0000      -0.343004        -9.3336
  64   2.0000      -0.337214        -9.1761
  65   2.0000      -0.325722        -8.8633
  66   2.0000      -0.297050        -8.0831
  67   0.0000       0.035217         0.9583
  68   0.0000       0.063974         1.7408
  69   0.0000       0.116979         3.1831
  70   0.0000       0.122405         3.3308
  71   0.0000       0.128253         3.4899

MULLIKEN ATOMIC CHARGES
-----------------------
   0 S :    0.091517
   1 C :   -0.103995
   2 C :   -0.049584
   3 C :    0.055409
   4 C :   -0.160621
   5 H :    0.002123
   6 C :   -0.009109
   7 H :    0.018490
   8 H :    0.041831
   9 C :   -0.039454
  10 H :    0.027318
  11 H :    0.034770
  12 C :   -0.037667
  13 H :    0.026865
  14 H :    0.031959
  15 H :    0.028478
  16 S :    0.129859
  17 C :   -0.095457
  18 C :   -0.067587
  19 C :   -0.045565
  20 C :   -0.192156
  21 H :    0.035085
  22 C :    0.093079
  23 H :    0.020308
  24 H :    0.017706
  25 C :   -0.075801
  26 H :    0.020526
  27 H :    0.040166
  28 C :   -0.023746
  29 H :    0.023102
  30 H :    0.047514
  31 H :    0.018775
  32 H :    0.035579
  33 H :    0.060282
Sum of atomic charges:   -0.0000000

LOEWDIN ATOMIC CHARGES
----------------------
   0 S :    0.392836
   1 C :   -0.179366
   2 C :   -0.064301
   3 C :   -0.064250
   4 C :   -0.198689
   5 H :    0.031115
   6 C :   -0.045351
   7 H :    0.029132
   8 H :    0.039434
   9 C :   -0.036160
  10 H :    0.024833
  11 H :    0.028093
  12 C :   -0.061616
  13 H :    0.021248
  14 H :    0.026031
  15 H :    0.023331
  16 S :    0.442962
  17 C :   -0.201284
  18 C :   -0.087594
  19 C :   -0.045699
  20 C :   -0.218226
  21 H :    0.042504
  22 C :   -0.026486
  23 H :    0.030691
  24 H :    0.021853
  25 C :   -0.043858
  26 H :    0.021669
  27 H :    0.029235
  28 C :   -0.063603
  29 H :    0.019841
  30 H :    0.031491
  31 H :    0.023924
  32 H :    0.021990
  33 H :    0.034269

  Mayer bond orders larger than 0.100000
B(  0-S ,  1-C ) :   1.1357 B(  0-S ,  4-C ) :   1.1321 B(  1-C ,  2-C ) :   1.6024
B(  1-C , 32-H ) :   0.9812 B(  2-C ,  3-C ) :   1.2167 B(  2-C ,  6-C ) :   1.0294
B(  3-C ,  4-C ) :   1.6224 B(  3-C ,  5-H ) :   0.9955 B(  4-C , 20-C ) :   1.0055
B(  6-C ,  7-H ) :   0.9431 B(  6-C ,  8-H ) :   0.9432 B(  6-C ,  9-C ) :   1.0593
B(  9-C , 10-H ) :   0.9556 B(  9-C , 11-H ) :   0.9550 B(  9-C , 12-C ) :   1.0792
B( 12-C , 13-H ) :   0.9768 B( 12-C , 14-H ) :   0.9735 B( 12-C , 15-H ) :   0.9735
B( 16-S , 17-C ) :   1.1992 B( 16-S , 20-C ) :   1.1567 B( 17-C , 18-C ) :   1.5776
B( 17-C , 20-C ) :   0.1089 B( 17-C , 33-H ) :   0.9554 B( 18-C , 19-C ) :   1.2815
B( 18-C , 21-H ) :   0.9894 B( 19-C , 20-C ) :   1.5395 B( 19-C , 22-C ) :   1.0094
B( 22-C , 23-H ) :   0.9406 B( 22-C , 24-H ) :   0.9323 B( 22-C , 25-C ) :   1.0768
B( 25-C , 26-H ) :   0.9542 B( 25-C , 27-H ) :   0.9510 B( 25-C , 28-C ) :   1.0695
B( 28-C , 29-H ) :   0.9725 B( 28-C , 30-H ) :   0.9761 B( 28-C , 31-H ) :   0.9706

Dispersion correction           -0.016223728
FINAL SINGLE POINT ENERGY     -1339.872755177176

DIPOLE MOMENT
-------------
                                X             Y             Z
Electronic contribution:     -1.43468     -23.35283       9.42984
Nuclear contribution   :      1.46837      23.83440      -9.73553
                        -----------------------------------------
Total Dipole Moment    :      0.03369       0.48158      -0.30569
                        -----------------------------------------
Magnitude (a.u.)       :      0.57140
Magnitude (Debye)      :      1.45238

Rotational constants in cm-1:     0.019072     0.009555     0.008587
Rotational constants in MHz :   571.754785   286.449659   257.425391

                             ****ORCA TERMINATED NORMALLY****
TOTAL RUN TIME: 0 days 0 hours 0 minutes 23 seconds 78 msec
