                         Program Version 4.2.1 -  RELEASE  -
|  1> ! wB97X-D3 SP def2-SVP
|  2> %pal
|  3> nprocs 24
|  4> end
|  5>
|  6> * xyz 0 1
|  7> S 	 -105.703 	 59.9369 	 -97.7942
|  8> C 	 -105.462 	 59.458 	 -96.1312
|  9> C 	 -106.282 	 58.366 	 -95.8538
| 10> C 	 -107.125 	 57.9356 	 -96.924
| 11> C 	 -106.962 	 58.6942 	 -98.0701
| 12> H 	 -107.822 	 57.1678 	 -96.9611
| 13> C 	 -106.327 	 57.6678 	 -94.4674
| 14> H 	 -107.349 	 57.2968 	 -94.3586
| 15> H 	 -106.206 	 58.5137 	 -93.7681
| 16> C 	 -105.211 	 56.7437 	 -94.1439
| 17> H 	 -105.036 	 56.2326 	 -95.1097
| 18> H 	 -104.23 	 57.251 	 -93.8492
| 19> C 	 -105.606 	 55.7104 	 -93.027
| 20> H 	 -105.783 	 56.2187 	 -92.048
| 21> H 	 -106.502 	 55.114 	 -93.1651
| 22> H 	 -104.724 	 55.0722 	 -93.0327
| 23> S 	 -108.427 	 56.9636 	 -99.5088
| 24> C 	 -108.793 	 57.2639 	 -101.186
| 25> C 	 -108.549 	 58.5507 	 -101.533
| 26> C 	 -107.782 	 59.2393 	 -100.532
| 27> C 	 -107.678 	 58.5078 	 -99.3279
| 28> H 	 -108.815 	 58.8932 	 -102.467
| 29> C 	 -107.325 	 60.6687 	 -100.799
| 30> H 	 -107.255 	 61.2142 	 -99.8612
| 31> H 	 -108.194 	 61.1238 	 -101.271
| 32> C 	 -105.993 	 60.8458 	 -101.66
| 33> H 	 -106.061 	 59.934 	 -102.32
| 34> H 	 -105.093 	 60.7869 	 -100.982
| 35> C 	 -105.843 	 62.0938 	 -102.537
| 36> H 	 -106.618 	 62.1936 	 -103.331
| 37> H 	 -104.838 	 62.1338 	 -102.934
| 38> H 	 -105.839 	 63.029 	 -101.982
| 39> H 	 -104.901 	 60.0923 	 -95.4902
| 40> H 	 -109.295 	 56.5924 	 -101.883
| 41> *
| 42>
| 43>                          ****END OF INPUT****

CARTESIAN COORDINATES (ANGSTROEM)
---------------------------------
  S    -105.703000   59.936900  -97.794200
  C    -105.462000   59.458000  -96.131200
  C    -106.282000   58.366000  -95.853800
  C    -107.125000   57.935600  -96.924000
  C    -106.962000   58.694200  -98.070100
  H    -107.822000   57.167800  -96.961100
  C    -106.327000   57.667800  -94.467400
  H    -107.349000   57.296800  -94.358600
  H    -106.206000   58.513700  -93.768100
  C    -105.211000   56.743700  -94.143900
  H    -105.036000   56.232600  -95.109700
  H    -104.230000   57.251000  -93.849200
  C    -105.606000   55.710400  -93.027000
  H    -105.783000   56.218700  -92.048000
  H    -106.502000   55.114000  -93.165100
  H    -104.724000   55.072200  -93.032700
  S    -108.427000   56.963600  -99.508800
  C    -108.793000   57.263900  -101.186000
  C    -108.549000   58.550700  -101.533000
  C    -107.782000   59.239300  -100.532000
  C    -107.678000   58.507800  -99.327900
  H    -108.815000   58.893200  -102.467000
  C    -107.325000   60.668700  -100.799000
  H    -107.255000   61.214200  -99.861200
  H    -108.194000   61.123800  -101.271000
  C    -105.993000   60.845800  -101.660000
  H    -106.061000   59.934000  -102.320000
  H    -105.093000   60.786900  -100.982000
  C    -105.843000   62.093800  -102.537000
  H    -106.618000   62.193600  -103.331000
  H    -104.838000   62.133800  -102.934000
  H    -105.839000   63.029000  -101.982000
  H    -104.901000   60.092300  -95.490200
  H    -109.295000   56.592400  -101.883000

 Total Charge           Charge          ....    0
 Multiplicity           Mult            ....    1
 Number of Electrons    NEL             ....  134
 Basis Dimension        Dim             ....  322

ORBITAL ENERGIES
----------------

  NO   OCC          E(Eh)            E(eV)
   0   2.0000     -88.966875     -2420.9118
   1   2.0000     -88.965284     -2420.8684
   2   2.0000     -10.335395      -281.2404
   3   2.0000     -10.330381      -281.1040
   4   2.0000     -10.317256      -280.7468
   5   2.0000     -10.313801      -280.6528
   6   2.0000     -10.308414      -280.5062
   7   2.0000     -10.305015      -280.4137
   8   2.0000     -10.296975      -280.1949
   9   2.0000     -10.291878      -280.0562
  10   2.0000     -10.291217      -280.0383
  11   2.0000     -10.290208      -280.0108
  12   2.0000     -10.288681      -279.9692
  13   2.0000     -10.287400      -279.9344
  14   2.0000     -10.281737      -279.7803
  15   2.0000     -10.279708      -279.7251
  16   2.0000      -8.082233      -219.9287
  17   2.0000      -8.079054      -219.8422
  18   2.0000      -6.040850      -164.3799
  19   2.0000      -6.037629      -164.2923
  20   2.0000      -6.036695      -164.2668
  21   2.0000      -6.033618      -164.1831
  22   2.0000      -6.032817      -164.1613
  23   2.0000      -6.029900      -164.0819
  24   2.0000      -1.008926       -27.4543
  25   2.0000      -0.983712       -26.7682
  26   2.0000      -0.908577       -24.7236
  27   2.0000      -0.898957       -24.4619
  28   2.0000      -0.876754       -23.8577
  29   2.0000      -0.850451       -23.1420
  30   2.0000      -0.842913       -22.9368
  31   2.0000      -0.818196       -22.2643
  32   2.0000      -0.781579       -21.2678
  33   2.0000      -0.767346       -20.8805
  34   2.0000      -0.705534       -19.1986
  35   2.0000      -0.695689       -18.9306
  36   2.0000      -0.689741       -18.7688
  37   2.0000      -0.673747       -18.3336
  38   2.0000      -0.644392       -17.5348
  39   2.0000      -0.616058       -16.7638
  40   2.0000      -0.593674       -16.1547
  41   2.0000      -0.566003       -15.4017
  42   2.0000      -0.562177       -15.2976
  43   2.0000      -0.555131       -15.1059
  44   2.0000      -0.533210       -14.5094
  45   2.0000      -0.522834       -14.2270
  46   2.0000      -0.518020       -14.0960
  47   2.0000      -0.513375       -13.9696
  48   2.0000      -0.509350       -13.8601
  49   2.0000      -0.505028       -13.7425
  50   2.0000      -0.489831       -13.3290
  51   2.0000      -0.477439       -12.9918
  52   2.0000      -0.472038       -12.8448
  53   2.0000      -0.465309       -12.6617
  54   2.0000      -0.459177       -12.4948
  55   2.0000      -0.455868       -12.4048
  56   2.0000      -0.448363       -12.2006
  57   2.0000      -0.438587       -11.9346
  58   2.0000      -0.427997       -11.6464
  59   2.0000      -0.418195       -11.3797
  60   2.0000      -0.411692       -11.2027
  61   2.0000      -0.406299       -11.0560
  62   2.0000      -0.403080       -10.9684
  63   2.0000      -0.365993        -9.9592
  64   2.0000      -0.331294        -9.0150
  65   2.0000      -0.330123        -8.9831
  66   2.0000      -0.281244        -7.6530
  67   0.0000       0.017062         0.4643
  68   0.0000       0.084140         2.2896
  69   0.0000       0.106961         2.9106
  70   0.0000       0.120430         3.2771
  71   0.0000       0.135970         3.6999

MULLIKEN ATOMIC CHARGES
-----------------------
   0 S :    0.088540
   1 C :   -0.120399
   2 C :   -0.076598
   3 C :    0.006502
   4 C :   -0.092848
   5 H :   -0.006995
   6 C :    0.070884
   7 H :    0.026488
   8 H :    0.019582
   9 C :   -0.087835
  10 H :    0.034120
  11 H :    0.044803
  12 C :   -0.061264
  13 H :    0.036981
  14 H :    0.034242
  15 H :    0.040857
  16 S :    0.079546
  17 C :   -0.073652
  18 C :    0.005371
  19 C :   -0.089978
  20 C :   -0.110785
  21 H :   -0.011654
  22 C :    0.042454
  23 H :    0.023131
  24 H :    0.024287
  25 C :   -0.086824
  26 H :    0.039416
  27 H :    0.046208
  28 C :   -0.044868
  29 H :    0.039306
  30 H :    0.031876
  31 H :    0.024721
  32 H :    0.046726
  33 H :    0.057660
Sum of atomic charges:    0.0000000

LOEWDIN ATOMIC CHARGES
----------------------
   0 S :    0.394191
   1 C :   -0.197669
   2 C :   -0.054401
   3 C :   -0.073466
   4 C :   -0.166627
   5 H :    0.012955
   6 C :   -0.039546
   7 H :    0.029809
   8 H :    0.031736
   9 C :   -0.047489
  10 H :    0.025526
  11 H :    0.034460
  12 C :   -0.067293
  13 H :    0.028527
  14 H :    0.022974
  15 H :    0.028895
  16 S :    0.421076
  17 C :   -0.179800
  18 C :   -0.060676
  19 C :   -0.054775
  20 C :   -0.199897
  21 H :    0.019680
  22 C :   -0.042304
  23 H :    0.020231
  24 H :    0.032698
  25 C :   -0.043836
  26 H :    0.029102
  27 H :    0.030909
  28 C :   -0.073370
  29 H :    0.027659
  30 H :    0.029375
  31 H :    0.024446
  32 H :    0.023137
  33 H :    0.033764

  Mayer bond orders larger than 0.100000
B(  0-S ,  1-C ) :   1.1315 B(  0-S ,  4-C ) :   1.1427 B(  1-C ,  2-C ) :   1.5878
B(  1-C , 32-H ) :   0.9789 B(  2-C ,  3-C ) :   1.2468 B(  2-C ,  6-C ) :   1.0198
B(  3-C ,  4-C ) :   1.5442 B(  3-C ,  5-H ) :   0.9981 B(  4-C , 20-C ) :   1.0941
B(  6-C ,  7-H ) :   0.9501 B(  6-C ,  8-H ) :   0.9331 B(  6-C ,  9-C ) :   1.0570
B(  9-C , 10-H ) :   0.9606 B(  9-C , 11-H ) :   0.9516 B(  9-C , 12-C ) :   1.0704
B( 12-C , 13-H ) :   0.9756 B( 12-C , 14-H ) :   0.9789 B( 12-C , 15-H ) :   0.9776
B( 16-S , 17-C ) :   1.1507 B( 16-S , 20-C ) :   1.1382 B( 17-C , 18-C ) :   1.6271
B( 17-C , 33-H ) :   0.9629 B( 18-C , 19-C ) :   1.2305 B( 18-C , 21-H ) :   0.9993
B( 19-C , 20-C ) :   1.5661 B( 19-C , 22-C ) :   1.0400 B( 22-C , 23-H ) :   0.9372
B( 22-C , 24-H ) :   0.9412 B( 22-C , 25-C ) :   1.0299 B( 25-C , 26-H ) :   0.9640
B( 25-C , 27-H ) :   0.9536 B( 25-C , 28-C ) :   1.0865 B( 28-C , 29-H ) :   0.9750
B( 28-C , 30-H ) :   0.9708 B( 28-C , 31-H ) :   0.9723

Dispersion correction           -0.013455785
FINAL SINGLE POINT ENERGY     -1339.870848383514

DIPOLE MOMENT
-------------
                                X             Y             Z
Electronic contribution:     -7.84617      -3.01951      -5.56268
Nuclear contribution   :      7.76912       3.10169       5.52071
                        -----------------------------------------
Total Dipole Moment    :     -0.07705       0.08218      -0.04197
                        -----------------------------------------
Magnitude (a.u.)       :      0.12021
Magnitude (Debye)      :      0.30556

Rotational constants in cm-1:     0.023393     0.007176     0.005671
Rotational constants in MHz :   701.318696   215.142933   170.013374

                             ****ORCA TERMINATED NORMALLY****
TOTAL RUN TIME: 0 days 0 hours 0 minutes 20 seconds 644 msec
