                         Program Version 4.2.1 -  RELEASE  -
|  1> ! wB97X-D3 SP def2-SVP
|  2> %pal
|  3> nprocs 24
|  4> end
|  5>
|  6> * xyz 0 1
|  7> S 	 -105.959 	 63.517 	 -97.7354
|  8> C 	 -107.476 	 62.7868 	 -98.2183
|  9> C 	 -107.646 	 61.5005 	 -97.7674
| 10> C 	 -106.544 	 61.0275 	 -96.9338
| 11> C 	 -105.645 	 62.0184 	 -96.7808
| 12> H 	 -106.458 	 60.0497 	 -96.4891
| 13> C 	 -109.013 	 60.7729 	 -97.8589
| 14> H 	 -109.534 	 61.4272 	 -98.5311
| 15> H 	 -109.58 	 60.7692 	 -96.9914
| 16> C 	 -109.13 	 59.3415 	 -98.4493
| 17> H 	 -110.179 	 59.1617 	 -98.523
| 18> H 	 -108.783 	 59.3106 	 -99.5417
| 19> C 	 -108.542 	 58.2182 	 -97.5652
| 20> H 	 -107.464 	 58.4256 	 -97.264
| 21> H 	 -109.026 	 57.9972 	 -96.654
| 22> H 	 -108.603 	 57.3987 	 -98.1297
| 23> S 	 -102.939 	 61.4976 	 -96.9403
| 24> C 	 -102.029 	 61.1128 	 -95.4689
| 25> C 	 -102.839 	 61.2835 	 -94.3555
| 26> C 	 -104.19 	 61.6705 	 -94.661
| 27> C 	 -104.397 	 61.8159 	 -96.0282
| 28> H 	 -102.339 	 61.1095 	 -93.4164
| 29> C 	 -105.307 	 61.7322 	 -93.6689
| 30> H 	 -106.34 	 61.8504 	 -94.1261
| 31> H 	 -105.094 	 62.6129 	 -93.0242
| 32> C 	 -105.273 	 60.5603 	 -92.7117
| 33> H 	 -104.337 	 60.5361 	 -92.1866
| 34> H 	 -105.381 	 59.6684 	 -93.3352
| 35> C 	 -106.602 	 60.7964 	 -91.8073
| 36> H 	 -106.76 	 59.9062 	 -91.2076
| 37> H 	 -107.567 	 61.0364 	 -92.354
| 38> H 	 -106.336 	 61.7289 	 -91.1832
| 39> H 	 -108.202 	 63.3555 	 -98.7803
| 40> H 	 -100.96 	 60.8657 	 -95.4837
| 41> *
| 42>
| 43>                          ****END OF INPUT****

CARTESIAN COORDINATES (ANGSTROEM)
---------------------------------
  S    -105.959000   63.517000  -97.735400
  C    -107.476000   62.786800  -98.218300
  C    -107.646000   61.500500  -97.767400
  C    -106.544000   61.027500  -96.933800
  C    -105.645000   62.018400  -96.780800
  H    -106.458000   60.049700  -96.489100
  C    -109.013000   60.772900  -97.858900
  H    -109.534000   61.427200  -98.531100
  H    -109.580000   60.769200  -96.991400
  C    -109.130000   59.341500  -98.449300
  H    -110.179000   59.161700  -98.523000
  H    -108.783000   59.310600  -99.541700
  C    -108.542000   58.218200  -97.565200
  H    -107.464000   58.425600  -97.264000
  H    -109.026000   57.997200  -96.654000
  H    -108.603000   57.398700  -98.129700
  S    -102.939000   61.497600  -96.940300
  C    -102.029000   61.112800  -95.468900
  C    -102.839000   61.283500  -94.355500
  C    -104.190000   61.670500  -94.661000
  C    -104.397000   61.815900  -96.028200
  H    -102.339000   61.109500  -93.416400
  C    -105.307000   61.732200  -93.668900
  H    -106.340000   61.850400  -94.126100
  H    -105.094000   62.612900  -93.024200
  C    -105.273000   60.560300  -92.711700
  H    -104.337000   60.536100  -92.186600
  H    -105.381000   59.668400  -93.335200
  C    -106.602000   60.796400  -91.807300
  H    -106.760000   59.906200  -91.207600
  H    -107.567000   61.036400  -92.354000
  H    -106.336000   61.728900  -91.183200
  H    -108.202000   63.355500  -98.780300
  H    -100.960000   60.865700  -95.483700

 Total Charge           Charge          ....    0
 Multiplicity           Mult            ....    1
 Number of Electrons    NEL             ....  134
 Basis Dimension        Dim             ....  322

ORBITAL ENERGIES
----------------

  NO   OCC          E(Eh)            E(eV)
   0   2.0000     -88.967188     -2420.9203
   1   2.0000     -88.959805     -2420.7194
   2   2.0000     -10.328930      -281.0645
   3   2.0000     -10.320479      -280.8345
   4   2.0000     -10.319463      -280.8069
   5   2.0000     -10.314329      -280.6672
   6   2.0000     -10.303818      -280.3812
   7   2.0000     -10.301511      -280.3184
   8   2.0000     -10.295710      -280.1605
   9   2.0000     -10.294984      -280.1408
  10   2.0000     -10.293667      -280.1049
  11   2.0000     -10.291810      -280.0544
  12   2.0000     -10.289659      -279.9959
  13   2.0000     -10.289153      -279.9821
  14   2.0000     -10.285766      -279.8899
  15   2.0000     -10.271693      -279.5070
  16   2.0000      -8.081301      -219.9034
  17   2.0000      -8.074411      -219.7159
  18   2.0000      -6.039791      -164.3511
  19   2.0000      -6.036200      -164.2534
  20   2.0000      -6.032932      -164.1644
  21   2.0000      -6.031813      -164.1340
  22   2.0000      -6.028875      -164.0540
  23   2.0000      -6.025244      -163.9552
  24   2.0000      -1.001467       -27.2513
  25   2.0000      -0.978594       -26.6289
  26   2.0000      -0.909260       -24.7422
  27   2.0000      -0.904765       -24.6199
  28   2.0000      -0.869519       -23.6608
  29   2.0000      -0.847780       -23.0693
  30   2.0000      -0.838040       -22.8042
  31   2.0000      -0.818343       -22.2682
  32   2.0000      -0.783045       -21.3078
  33   2.0000      -0.762691       -20.7539
  34   2.0000      -0.703321       -19.1383
  35   2.0000      -0.698490       -19.0069
  36   2.0000      -0.693798       -18.8792
  37   2.0000      -0.653320       -17.7777
  38   2.0000      -0.645175       -17.5561
  39   2.0000      -0.618433       -16.8284
  40   2.0000      -0.595106       -16.1937
  41   2.0000      -0.571264       -15.5449
  42   2.0000      -0.568643       -15.4736
  43   2.0000      -0.542792       -14.7701
  44   2.0000      -0.534622       -14.5478
  45   2.0000      -0.524844       -14.2817
  46   2.0000      -0.519236       -14.1291
  47   2.0000      -0.510170       -13.8824
  48   2.0000      -0.505486       -13.7550
  49   2.0000      -0.499298       -13.5866
  50   2.0000      -0.482359       -13.1256
  51   2.0000      -0.475499       -12.9390
  52   2.0000      -0.471618       -12.8334
  53   2.0000      -0.468815       -12.7571
  54   2.0000      -0.454633       -12.3712
  55   2.0000      -0.447162       -12.1679
  56   2.0000      -0.443887       -12.0788
  57   2.0000      -0.433905       -11.8072
  58   2.0000      -0.432303       -11.7636
  59   2.0000      -0.428771       -11.6675
  60   2.0000      -0.425689       -11.5836
  61   2.0000      -0.410968       -11.1830
  62   2.0000      -0.404197       -10.9988
  63   2.0000      -0.343212        -9.3393
  64   2.0000      -0.326917        -8.8959
  65   2.0000      -0.321142        -8.7387
  66   2.0000      -0.303748        -8.2654
  67   0.0000       0.045295         1.2325
  68   0.0000       0.058716         1.5977
  69   0.0000       0.111244         3.0271
  70   0.0000       0.121145         3.2965
  71   0.0000       0.126007         3.4288

MULLIKEN ATOMIC CHARGES
-----------------------
   0 S :    0.110644
   1 C :   -0.126023
   2 C :   -0.055313
   3 C :    0.045863
   4 C :   -0.164298
   5 H :    0.021880
   6 C :    0.077053
   7 H :    0.000791
   8 H :    0.022657
   9 C :   -0.094483
  10 H :    0.021447
  11 H :    0.042194
  12 C :   -0.007059
  13 H :    0.032179
  14 H :    0.020023
  15 H :    0.007927
  16 S :    0.099138
  17 C :   -0.120698
  18 C :   -0.040977
  19 C :    0.012959
  20 C :   -0.184090
  21 H :    0.019128
  22 C :    0.035457
  23 H :    0.048929
  24 H :    0.028936
  25 C :   -0.099440
  26 H :    0.040851
  27 H :    0.034253
  28 C :   -0.081455
  29 H :    0.041760
  30 H :    0.049543
  31 H :    0.043351
  32 H :    0.047853
  33 H :    0.069017
Sum of atomic charges:   -0.0000000

LOEWDIN ATOMIC CHARGES
----------------------
   0 S :    0.376341
   1 C :   -0.188587
   2 C :   -0.057962
   3 C :   -0.050020
   4 C :   -0.173749
   5 H :    0.033866
   6 C :   -0.028014
   7 H :    0.027140
   8 H :    0.021630
   9 C :   -0.038083
  10 H :    0.021547
  11 H :    0.033404
  12 C :   -0.057878
  13 H :    0.030885
  14 H :    0.020725
  15 H :    0.011124
  16 S :    0.391982
  17 C :   -0.180345
  18 C :   -0.075965
  19 C :   -0.058118
  20 C :   -0.204737
  21 H :    0.030821
  22 C :   -0.040960
  23 H :    0.038192
  24 H :    0.033751
  25 C :   -0.034436
  26 H :    0.021636
  27 H :    0.021389
  28 C :   -0.072950
  29 H :    0.020415
  30 H :    0.033203
  31 H :    0.034762
  32 H :    0.024874
  33 H :    0.034117

  Mayer bond orders larger than 0.100000
B(  0-S ,  1-C ) :   1.1186 B(  0-S ,  4-C ) :   1.1229 B(  1-C ,  2-C ) :   1.6719
B(  1-C , 32-H ) :   0.9631 B(  2-C ,  3-C ) :   1.1718 B(  2-C ,  6-C ) :   1.0139
B(  3-C ,  4-C ) :   1.6462 B(  3-C ,  5-H ) :   0.9905 B(  4-C , 20-C ) :   1.0064
B(  6-C ,  7-H ) :   0.9337 B(  6-C ,  8-H ) :   0.9472 B(  6-C ,  9-C ) :   1.0822
B(  9-C , 10-H ) :   0.9511 B(  9-C , 11-H ) :   0.9576 B(  9-C , 12-C ) :   1.0733
B( 12-C , 13-H ) :   0.9734 B( 12-C , 14-H ) :   0.9731 B( 12-C , 15-H ) :   0.9692
B( 16-S , 17-C ) :   1.1538 B( 16-S , 20-C ) :   1.1456 B( 17-C , 18-C ) :   1.6207
B( 17-C , 33-H ) :   0.9656 B( 18-C , 19-C ) :   1.2052 B( 18-C , 21-H ) :   0.9928
B( 19-C , 20-C ) :   1.6140 B( 19-C , 22-C ) :   1.0410 B( 22-C , 23-H ) :   0.9442
B( 22-C , 24-H ) :   0.9212 B( 22-C , 25-C ) :   1.0564 B( 25-C , 26-H ) :   0.9526
B( 25-C , 27-H ) :   0.9620 B( 25-C , 28-C ) :   1.0618 B( 28-C , 29-H ) :   0.9766
B( 28-C , 30-H ) :   0.9765 B( 28-C , 31-H ) :   0.9744

Dispersion correction           -0.014214677
FINAL SINGLE POINT ENERGY     -1339.857501049440

DIPOLE MOMENT
-------------
                                X             Y             Z
Electronic contribution:     18.80450      16.07428     -13.44073
Nuclear contribution   :    -19.26926     -16.48906      13.83238
                        -----------------------------------------
Total Dipole Moment    :     -0.46476      -0.41477       0.39165
                        -----------------------------------------
Magnitude (a.u.)       :      0.73582
Magnitude (Debye)      :      1.87030

Rotational constants in cm-1:     0.015738     0.009338     0.007462
Rotational constants in MHz :   471.810014   279.937838   223.714319

                             ****ORCA TERMINATED NORMALLY****
TOTAL RUN TIME: 0 days 0 hours 0 minutes 20 seconds 633 msec
