                         Program Version 4.2.1 -  RELEASE  -
|  1> ! wB97X-D3 SP def2-SVP
|  2> %pal
|  3> nprocs 24
|  4> end
|  5>
|  6> * xyz 0 1
|  7> S 	 -65.4721 	 -45.7693 	 -90.7395
|  8> C 	 -64.8027 	 -46.2071 	 -92.284
|  9> C 	 -63.978 	 -47.2542 	 -92.1721
| 10> C 	 -63.9624 	 -47.8334 	 -90.8185
| 11> C 	 -64.841 	 -47.2065 	 -89.9414
| 12> H 	 -63.4064 	 -48.7143 	 -90.5315
| 13> C 	 -63.1393 	 -47.8496 	 -93.2712
| 14> H 	 -63.7231 	 -48.2052 	 -94.1273
| 15> H 	 -62.5021 	 -48.6572 	 -92.901
| 16> C 	 -62.2215 	 -46.793 	 -93.8392
| 17> H 	 -62.7505 	 -46.011 	 -94.3912
| 18> H 	 -61.6786 	 -46.2974 	 -93.059
| 19> C 	 -61.2231 	 -47.2969 	 -94.8656
| 20> H 	 -60.531 	 -48.1394 	 -94.6741
| 21> H 	 -61.721 	 -47.4417 	 -95.8911
| 22> H 	 -60.606 	 -46.4722 	 -95.1211
| 23> S 	 -64.9504 	 -46.2054 	 -87.4767
| 24> C 	 -65.3793 	 -47.1514 	 -86.1153
| 25> C 	 -65.5422 	 -48.4765 	 -86.4908
| 26> C 	 -65.4059 	 -48.7279 	 -87.8762
| 27> C 	 -65.1383 	 -47.532 	 -88.5587
| 28> H 	 -65.6594 	 -49.2615 	 -85.7687
| 29> C 	 -65.5247 	 -50.1408 	 -88.4109
| 30> H 	 -65.324 	 -50.8354 	 -87.6248
| 31> H 	 -64.8507 	 -50.1528 	 -89.2509
| 32> C 	 -66.8843 	 -50.4541 	 -88.9825
| 33> H 	 -66.8994 	 -51.3969 	 -89.3987
| 34> H 	 -67.1826 	 -49.6438 	 -89.711
| 35> C 	 -68.0171 	 -50.3935 	 -87.9367
| 36> H 	 -68.9884 	 -50.7825 	 -88.3273
| 37> H 	 -68.2202 	 -49.3911 	 -87.5208
| 38> H 	 -67.8578 	 -51.1249 	 -87.1579
| 39> H 	 -64.874 	 -45.6618 	 -93.2244
| 40> H 	 -65.6231 	 -46.6794 	 -85.1767
| 41> *
| 42>
| 43>                          ****END OF INPUT****

CARTESIAN COORDINATES (ANGSTROEM)
---------------------------------
  S    -65.472100  -45.769300  -90.739500
  C    -64.802700  -46.207100  -92.284000
  C    -63.978000  -47.254200  -92.172100
  C    -63.962400  -47.833400  -90.818500
  C    -64.841000  -47.206500  -89.941400
  H    -63.406400  -48.714300  -90.531500
  C    -63.139300  -47.849600  -93.271200
  H    -63.723100  -48.205200  -94.127300
  H    -62.502100  -48.657200  -92.901000
  C    -62.221500  -46.793000  -93.839200
  H    -62.750500  -46.011000  -94.391200
  H    -61.678600  -46.297400  -93.059000
  C    -61.223100  -47.296900  -94.865600
  H    -60.531000  -48.139400  -94.674100
  H    -61.721000  -47.441700  -95.891100
  H    -60.606000  -46.472200  -95.121100
  S    -64.950400  -46.205400  -87.476700
  C    -65.379300  -47.151400  -86.115300
  C    -65.542200  -48.476500  -86.490800
  C    -65.405900  -48.727900  -87.876200
  C    -65.138300  -47.532000  -88.558700
  H    -65.659400  -49.261500  -85.768700
  C    -65.524700  -50.140800  -88.410900
  H    -65.324000  -50.835400  -87.624800
  H    -64.850700  -50.152800  -89.250900
  C    -66.884300  -50.454100  -88.982500
  H    -66.899400  -51.396900  -89.398700
  H    -67.182600  -49.643800  -89.711000
  C    -68.017100  -50.393500  -87.936700
  H    -68.988400  -50.782500  -88.327300
  H    -68.220200  -49.391100  -87.520800
  H    -67.857800  -51.124900  -87.157900
  H    -64.874000  -45.661800  -93.224400
  H    -65.623100  -46.679400  -85.176700

 Total Charge           Charge          ....    0
 Multiplicity           Mult            ....    1
 Number of Electrons    NEL             ....  134
 Basis Dimension        Dim             ....  322

ORBITAL ENERGIES
----------------

  NO   OCC          E(Eh)            E(eV)
   0   2.0000     -88.964724     -2420.8532
   1   2.0000     -88.963056     -2420.8078
   2   2.0000     -10.331361      -281.1306
   3   2.0000     -10.325915      -280.9824
   4   2.0000     -10.313859      -280.6544
   5   2.0000     -10.308946      -280.5207
   6   2.0000     -10.303248      -280.3656
   7   2.0000     -10.297201      -280.2011
   8   2.0000     -10.296509      -280.1823
   9   2.0000     -10.291154      -280.0365
  10   2.0000     -10.290024      -280.0058
  11   2.0000     -10.288098      -279.9534
  12   2.0000     -10.282889      -279.8116
  13   2.0000     -10.280405      -279.7441
  14   2.0000     -10.279722      -279.7255
  15   2.0000     -10.274069      -279.5716
  16   2.0000      -8.080789      -219.8894
  17   2.0000      -8.077958      -219.8124
  18   2.0000      -6.039099      -164.3322
  19   2.0000      -6.036730      -164.2678
  20   2.0000      -6.034971      -164.2199
  21   2.0000      -6.032392      -164.1497
  22   2.0000      -6.031815      -164.1340
  23   2.0000      -6.028460      -164.0427
  24   2.0000      -1.011685       -27.5293
  25   2.0000      -0.988310       -26.8933
  26   2.0000      -0.918620       -24.9969
  27   2.0000      -0.915999       -24.9256
  28   2.0000      -0.873066       -23.7573
  29   2.0000      -0.850081       -23.1319
  30   2.0000      -0.843556       -22.9543
  31   2.0000      -0.813548       -22.1378
  32   2.0000      -0.785229       -21.3672
  33   2.0000      -0.775173       -21.0935
  34   2.0000      -0.708583       -19.2815
  35   2.0000      -0.698223       -18.9996
  36   2.0000      -0.687729       -18.7141
  37   2.0000      -0.670236       -18.2381
  38   2.0000      -0.638672       -17.3792
  39   2.0000      -0.616958       -16.7883
  40   2.0000      -0.597263       -16.2524
  41   2.0000      -0.574642       -15.6368
  42   2.0000      -0.569336       -15.4924
  43   2.0000      -0.561946       -15.2913
  44   2.0000      -0.550261       -14.9734
  45   2.0000      -0.519968       -14.1490
  46   2.0000      -0.514483       -13.9998
  47   2.0000      -0.511525       -13.9193
  48   2.0000      -0.509106       -13.8535
  49   2.0000      -0.498115       -13.5544
  50   2.0000      -0.488260       -13.2862
  51   2.0000      -0.484216       -13.1762
  52   2.0000      -0.475800       -12.9472
  53   2.0000      -0.469760       -12.7828
  54   2.0000      -0.454602       -12.3704
  55   2.0000      -0.449425       -12.2295
  56   2.0000      -0.443135       -12.0583
  57   2.0000      -0.433700       -11.8016
  58   2.0000      -0.430202       -11.7064
  59   2.0000      -0.423491       -11.5238
  60   2.0000      -0.419156       -11.4058
  61   2.0000      -0.416599       -11.3362
  62   2.0000      -0.413352       -11.2479
  63   2.0000      -0.348223        -9.4756
  64   2.0000      -0.332456        -9.0466
  65   2.0000      -0.325306        -8.8520
  66   2.0000      -0.292749        -7.9661
  67   0.0000       0.027921         0.7598
  68   0.0000       0.074096         2.0163
  69   0.0000       0.107514         2.9256
  70   0.0000       0.124421         3.3857
  71   0.0000       0.140301         3.8178

MULLIKEN ATOMIC CHARGES
-----------------------
   0 S :    0.102708
   1 C :   -0.115743
   2 C :   -0.086847
   3 C :    0.032351
   4 C :   -0.148244
   5 H :    0.015324
   6 C :    0.107643
   7 H :    0.035023
   8 H :    0.018810
   9 C :   -0.108850
  10 H :    0.024977
  11 H :    0.030699
  12 C :   -0.059818
  13 H :    0.042324
  14 H :    0.027436
  15 H :    0.018124
  16 S :    0.114763
  17 C :   -0.092180
  18 C :   -0.040196
  19 C :   -0.062116
  20 C :   -0.173157
  21 H :    0.011543
  22 C :    0.148773
  23 H :    0.015674
  24 H :    0.011328
  25 C :   -0.048171
  26 H :    0.017152
  27 H :    0.046004
  28 C :   -0.085165
  29 H :    0.027222
  30 H :    0.053860
  31 H :    0.010289
  32 H :    0.046604
  33 H :    0.061858
Sum of atomic charges:    0.0000000

LOEWDIN ATOMIC CHARGES
----------------------
   0 S :    0.397314
   1 C :   -0.199184
   2 C :   -0.064058
   3 C :   -0.062650
   4 C :   -0.193384
   5 H :    0.027248
   6 C :   -0.031365
   7 H :    0.035418
   8 H :    0.030728
   9 C :   -0.042075
  10 H :    0.025016
  11 H :    0.022115
  12 C :   -0.077319
  13 H :    0.025760
  14 H :    0.030984
  15 H :    0.022795
  16 S :    0.441890
  17 C :   -0.199215
  18 C :   -0.069768
  19 C :   -0.052298
  20 C :   -0.210911
  21 H :    0.027253
  22 C :   -0.021720
  23 H :    0.027831
  24 H :    0.030531
  25 C :   -0.032185
  26 H :    0.013740
  27 H :    0.036558
  28 C :   -0.074652
  29 H :    0.028731
  30 H :    0.029189
  31 H :    0.015484
  32 H :    0.033866
  33 H :    0.028334

  Mayer bond orders larger than 0.100000
B(  0-S ,  1-C ) :   1.1161 B(  0-S ,  4-C ) :   1.1429 B(  1-C ,  2-C ) :   1.6513
B(  1-C , 32-H ) :   0.9663 B(  2-C ,  3-C ) :   1.2142 B(  2-C ,  6-C ) :   1.0283
B(  3-C ,  4-C ) :   1.5842 B(  3-C ,  5-H ) :   0.9913 B(  4-C , 20-C ) :   1.0358
B(  6-C ,  7-H ) :   0.9333 B(  6-C ,  8-H ) :   0.9427 B(  6-C ,  9-C ) :   1.0678
B(  9-C , 10-H ) :   0.9483 B(  9-C , 11-H ) :   0.9603 B(  9-C , 12-C ) :   1.0934
B( 12-C , 13-H ) :   0.9745 B( 12-C , 14-H ) :   0.9702 B( 12-C , 15-H ) :   0.9693
B( 16-S , 17-C ) :   1.1771 B( 16-S , 20-C ) :   1.1831 B( 17-C , 18-C ) :   1.5535
B( 17-C , 20-C ) :   0.1101 B( 17-C , 33-H ) :   0.9723 B( 18-C , 19-C ) :   1.2839
B( 18-C , 21-H ) :   0.9917 B( 19-C , 20-C ) :   1.5501 B( 19-C , 22-C ) :   1.0366
B( 22-C , 23-H ) :   0.9307 B( 22-C , 24-H ) :   0.9185 B( 22-C , 25-C ) :   1.0886
B( 25-C , 26-H ) :   0.9551 B( 25-C , 27-H ) :   0.9550 B( 25-C , 28-C ) :   1.0785
B( 28-C , 29-H ) :   0.9727 B( 28-C , 30-H ) :   0.9738 B( 28-C , 31-H ) :   0.9729

Dispersion correction           -0.014040983
FINAL SINGLE POINT ENERGY     -1339.880086198108

DIPOLE MOMENT
-------------
                                X             Y             Z
Electronic contribution:     -4.13553      16.69591      14.48903
Nuclear contribution   :      4.35881     -17.18669     -14.69530
                        -----------------------------------------
Total Dipole Moment    :      0.22328      -0.49078      -0.20626
                        -----------------------------------------
Magnitude (a.u.)       :      0.57729
Magnitude (Debye)      :      1.46736

Rotational constants in cm-1:     0.023156     0.007271     0.006354
Rotational constants in MHz :   694.209916   217.975424   190.483458

                             ****ORCA TERMINATED NORMALLY****
TOTAL RUN TIME: 0 days 0 hours 0 minutes 21 seconds 272 msec
