                         Program Version 4.2.1 -  RELEASE  -
|  1> ! wB97X-D3 SP def2-SVP
|  2> %pal
|  3> nprocs 24
|  4> end
|  5>
|  6> * xyz 0 1
|  7> S 	 -65.7773 	 9.87663 	 -72.9506
|  8> C 	 -65.2214 	 10.3015 	 -71.3688
|  9> C 	 -66.2704 	 10.6102 	 -70.4991
| 10> C 	 -67.5291 	 10.7055 	 -71.201
| 11> C 	 -67.4193 	 10.227 	 -72.5164
| 12> H 	 -68.4005 	 11.1282 	 -70.7621
| 13> C 	 -66.2116 	 10.8099 	 -68.9775
| 14> H 	 -66.7629 	 11.6259 	 -68.4843
| 15> H 	 -65.1946 	 11.0785 	 -68.8292
| 16> C 	 -66.3111 	 9.57713 	 -68.1364
| 17> H 	 -66.0435 	 9.84178 	 -67.1755
| 18> H 	 -67.3507 	 9.15734 	 -68.0844
| 19> C 	 -65.4189 	 8.43893 	 -68.6645
| 20> H 	 -64.4032 	 8.79027 	 -68.66
| 21> H 	 -65.4585 	 7.46873 	 -68.1631
| 22> H 	 -65.6764 	 8.23129 	 -69.7389
| 23> S 	 -68.3403 	 10.3454 	 -75.0542
| 24> C 	 -70.0279 	 10.2078 	 -75.4295
| 25> C 	 -70.7649 	 9.95103 	 -74.3078
| 26> C 	 -69.931 	 9.67973 	 -73.1539
| 27> C 	 -68.5865 	 10.0677 	 -73.3555
| 28> H 	 -71.8592 	 9.84576 	 -74.2601
| 29> C 	 -70.4912 	 9.08743 	 -71.8406
| 30> H 	 -71.599 	 9.15741 	 -71.742
| 31> H 	 -70.2199 	 9.74248 	 -70.9982
| 32> C 	 -70.0748 	 7.58853 	 -71.6861
| 33> H 	 -70.5392 	 7.11565 	 -70.8538
| 34> H 	 -68.9742 	 7.49267 	 -71.6171
| 35> C 	 -70.3726 	 6.62432 	 -72.8829
| 36> H 	 -71.4224 	 6.49914 	 -72.9922
| 37> H 	 -69.8574 	 5.61923 	 -72.83
| 38> H 	 -70.1072 	 7.14599 	 -73.8948
| 39> H 	 -64.1737 	 10.3524 	 -71.1276
| 40> H 	 -70.4798 	 10.3741 	 -76.406
| 41> *
| 42>
| 43>                          ****END OF INPUT****

CARTESIAN COORDINATES (ANGSTROEM)
---------------------------------
  S    -65.777300    9.876630  -72.950600
  C    -65.221400   10.301500  -71.368800
  C    -66.270400   10.610200  -70.499100
  C    -67.529100   10.705500  -71.201000
  C    -67.419300   10.227000  -72.516400
  H    -68.400500   11.128200  -70.762100
  C    -66.211600   10.809900  -68.977500
  H    -66.762900   11.625900  -68.484300
  H    -65.194600   11.078500  -68.829200
  C    -66.311100    9.577130  -68.136400
  H    -66.043500    9.841780  -67.175500
  H    -67.350700    9.157340  -68.084400
  C    -65.418900    8.438930  -68.664500
  H    -64.403200    8.790270  -68.660000
  H    -65.458500    7.468730  -68.163100
  H    -65.676400    8.231290  -69.738900
  S    -68.340300   10.345400  -75.054200
  C    -70.027900   10.207800  -75.429500
  C    -70.764900    9.951030  -74.307800
  C    -69.931000    9.679730  -73.153900
  C    -68.586500   10.067700  -73.355500
  H    -71.859200    9.845760  -74.260100
  C    -70.491200    9.087430  -71.840600
  H    -71.599000    9.157410  -71.742000
  H    -70.219900    9.742480  -70.998200
  C    -70.074800    7.588530  -71.686100
  H    -70.539200    7.115650  -70.853800
  H    -68.974200    7.492670  -71.617100
  C    -70.372600    6.624320  -72.882900
  H    -71.422400    6.499140  -72.992200
  H    -69.857400    5.619230  -72.830000
  H    -70.107200    7.145990  -73.894800
  H    -64.173700   10.352400  -71.127600
  H    -70.479800   10.374100  -76.406000

 Total Charge           Charge          ....    0
 Multiplicity           Mult            ....    1
 Number of Electrons    NEL             ....  134
 Basis Dimension        Dim             ....  322

ORBITAL ENERGIES
----------------

  NO   OCC          E(Eh)            E(eV)
   0   2.0000     -88.972927     -2421.0764
   1   2.0000     -88.963079     -2420.8084
   2   2.0000     -10.331481      -281.1339
   3   2.0000     -10.328494      -281.0526
   4   2.0000     -10.317180      -280.7448
   5   2.0000     -10.316875      -280.7364
   6   2.0000     -10.310090      -280.5518
   7   2.0000     -10.306686      -280.4592
   8   2.0000     -10.300901      -280.3018
   9   2.0000     -10.297173      -280.2003
  10   2.0000     -10.293985      -280.1136
  11   2.0000     -10.290382      -280.0155
  12   2.0000     -10.285985      -279.8959
  13   2.0000     -10.281225      -279.7664
  14   2.0000     -10.279917      -279.7308
  15   2.0000     -10.273100      -279.5453
  16   2.0000      -8.087895      -220.0828
  17   2.0000      -8.078631      -219.8307
  18   2.0000      -6.046438      -164.5319
  19   2.0000      -6.042339      -164.4204
  20   2.0000      -6.038660      -164.3203
  21   2.0000      -6.037153      -164.2793
  22   2.0000      -6.032956      -164.1651
  23   2.0000      -6.029396      -164.0682
  24   2.0000      -1.009222       -27.4623
  25   2.0000      -0.985935       -26.8287
  26   2.0000      -0.919108       -25.0102
  27   2.0000      -0.898094       -24.4384
  28   2.0000      -0.871048       -23.7024
  29   2.0000      -0.849939       -23.1280
  30   2.0000      -0.837778       -22.7971
  31   2.0000      -0.809331       -22.0230
  32   2.0000      -0.784016       -21.3342
  33   2.0000      -0.772109       -21.0102
  34   2.0000      -0.707621       -19.2554
  35   2.0000      -0.697402       -18.9773
  36   2.0000      -0.684737       -18.6326
  37   2.0000      -0.662778       -18.0351
  38   2.0000      -0.641766       -17.4633
  39   2.0000      -0.621513       -16.9122
  40   2.0000      -0.593236       -16.1428
  41   2.0000      -0.569903       -15.5078
  42   2.0000      -0.555292       -15.1103
  43   2.0000      -0.550017       -14.9667
  44   2.0000      -0.546889       -14.8816
  45   2.0000      -0.539973       -14.6934
  46   2.0000      -0.511029       -13.9058
  47   2.0000      -0.505635       -13.7590
  48   2.0000      -0.504949       -13.7404
  49   2.0000      -0.496437       -13.5087
  50   2.0000      -0.487683       -13.2705
  51   2.0000      -0.473560       -12.8862
  52   2.0000      -0.466983       -12.7072
  53   2.0000      -0.462157       -12.5759
  54   2.0000      -0.454683       -12.3726
  55   2.0000      -0.450714       -12.2646
  56   2.0000      -0.447087       -12.1659
  57   2.0000      -0.444407       -12.0929
  58   2.0000      -0.430372       -11.7110
  59   2.0000      -0.425208       -11.5705
  60   2.0000      -0.413545       -11.2531
  61   2.0000      -0.409856       -11.1528
  62   2.0000      -0.403469       -10.9789
  63   2.0000      -0.352794        -9.6000
  64   2.0000      -0.333846        -9.0844
  65   2.0000      -0.327424        -8.9097
  66   2.0000      -0.284528        -7.7424
  67   0.0000       0.020747         0.5646
  68   0.0000       0.081195         2.2094
  69   0.0000       0.103081         2.8050
  70   0.0000       0.113912         3.0997
  71   0.0000       0.132717         3.6114

MULLIKEN ATOMIC CHARGES
-----------------------
   0 S :    0.129045
   1 C :   -0.126615
   2 C :   -0.105756
   3 C :    0.019236
   4 C :   -0.109964
   5 H :    0.013222
   6 C :    0.080771
   7 H :    0.036974
   8 H :   -0.003365
   9 C :   -0.028546
  10 H :    0.012775
  11 H :    0.028576
  12 C :   -0.086025
  13 H :    0.012335
  14 H :    0.038243
  15 H :    0.057699
  16 S :    0.093987
  17 C :   -0.080099
  18 C :   -0.032530
  19 C :   -0.091881
  20 C :   -0.143419
  21 H :    0.030168
  22 C :    0.068190
  23 H :    0.018490
  24 H :    0.027951
  25 C :   -0.058099
  26 H :    0.026492
  27 H :    0.045162
  28 C :   -0.107492
  29 H :    0.017314
  30 H :    0.054131
  31 H :    0.051178
  32 H :    0.049781
  33 H :    0.062076
Sum of atomic charges:   -0.0000000

LOEWDIN ATOMIC CHARGES
----------------------
   0 S :    0.424258
   1 C :   -0.203279
   2 C :   -0.054472
   3 C :   -0.051194
   4 C :   -0.204734
   5 H :    0.027369
   6 C :   -0.035016
   7 H :    0.036322
   8 H :    0.025581
   9 C :   -0.033274
  10 H :    0.013902
  11 H :    0.024133
  12 C :   -0.070155
  13 H :    0.015571
  14 H :    0.025787
  15 H :    0.033885
  16 S :    0.411450
  17 C :   -0.191600
  18 C :   -0.075169
  19 C :   -0.055860
  20 C :   -0.198096
  21 H :    0.036112
  22 C :   -0.036174
  23 H :    0.030488
  24 H :    0.031168
  25 C :   -0.039159
  26 H :    0.018415
  27 H :    0.029635
  28 C :   -0.078615
  29 H :    0.011384
  30 H :    0.034869
  31 H :    0.036883
  32 H :    0.025783
  33 H :    0.033800

  Mayer bond orders larger than 0.100000
B(  0-S ,  1-C ) :   1.1405 B(  0-S ,  4-C ) :   1.1541 B(  1-C ,  2-C ) :   1.5884
B(  1-C , 32-H ) :   0.9702 B(  2-C ,  3-C ) :   1.2594 B(  2-C ,  6-C ) :   1.0211
B(  3-C ,  4-C ) :   1.5302 B(  3-C ,  5-H ) :   1.0000 B(  4-C , 20-C ) :   1.0821
B(  6-C ,  7-H ) :   0.9468 B(  6-C ,  8-H ) :   0.9274 B(  6-C ,  9-C ) :   1.0758
B(  9-C , 10-H ) :   0.9537 B(  9-C , 11-H ) :   0.9531 B(  9-C , 12-C ) :   1.0779
B( 12-C , 13-H ) :   0.9756 B( 12-C , 14-H ) :   0.9742 B( 12-C , 15-H ) :   0.9684
B( 16-S , 17-C ) :   1.1591 B( 16-S , 20-C ) :   1.1393 B( 17-C , 18-C ) :   1.5964
B( 17-C , 33-H ) :   0.9678 B( 18-C , 19-C ) :   1.2569 B( 18-C , 21-H ) :   0.9844
B( 19-C , 20-C ) :   1.5612 B( 19-C , 22-C ) :   1.0330 B( 22-C , 23-H ) :   0.9402
B( 22-C , 24-H ) :   0.9419 B( 22-C , 25-C ) :   1.0537 B( 25-C , 26-H ) :   0.9606
B( 25-C , 27-H ) :   0.9622 B( 25-C , 28-C ) :   1.0668 B( 28-C , 29-H ) :   0.9767
B( 28-C , 30-H ) :   0.9755 B( 28-C , 31-H ) :   0.9707

Dispersion correction           -0.015590617
FINAL SINGLE POINT ENERGY     -1339.869874775228

DIPOLE MOMENT
-------------
                                X             Y             Z
Electronic contribution:      5.63171      12.35210     -21.83432
Nuclear contribution   :     -5.92316     -12.37035      22.40159
                        -----------------------------------------
Total Dipole Moment    :     -0.29145      -0.01825       0.56728
                        -----------------------------------------
Magnitude (a.u.)       :      0.63803
Magnitude (Debye)      :      1.62174

Rotational constants in cm-1:     0.021040     0.009301     0.007506
Rotational constants in MHz :   630.754312   278.838674   225.033333

                             ****ORCA TERMINATED NORMALLY****
TOTAL RUN TIME: 0 days 0 hours 0 minutes 22 seconds 737 msec
