                         Program Version 4.2.1 -  RELEASE  -
|  1> ! wB97X-D3 SP def2-SVP
|  2> %pal
|  3> nprocs 24
|  4> end
|  5>
|  6> * xyz 0 1
|  7> S 	 -79.7932 	 -21.3439 	 -55.4239
|  8> C 	 -79.0399 	 -20.1839 	 -54.3846
|  9> C 	 -78.6554 	 -20.7065 	 -53.1769
| 10> C 	 -79.0595 	 -22.088 	 -53.1221
| 11> C 	 -79.509 	 -22.628 	 -54.3064
| 12> H 	 -79.1139 	 -22.7664 	 -52.2787
| 13> C 	 -77.9522 	 -19.9732 	 -52.0304
| 14> H 	 -78.6954 	 -19.3332 	 -51.6092
| 15> H 	 -77.0668 	 -19.3408 	 -52.3827
| 16> C 	 -77.6002 	 -20.7834 	 -50.7559
| 17> H 	 -78.4733 	 -21.2945 	 -50.4081
| 18> H 	 -76.9062 	 -21.5974 	 -50.9885
| 19> C 	 -76.9759 	 -19.8884 	 -49.5522
| 20> H 	 -76.6944 	 -20.4639 	 -48.7156
| 21> H 	 -76.0815 	 -19.3259 	 -49.936
| 22> H 	 -77.7333 	 -19.1452 	 -49.2479
| 23> S 	 -81.4933 	 -24.1153 	 -55.6985
| 24> C 	 -81.7531 	 -25.7932 	 -55.3018
| 25> C 	 -80.7211 	 -26.2183 	 -54.4162
| 26> C 	 -79.894 	 -25.1511 	 -53.9291
| 27> C 	 -80.2361 	 -23.9081 	 -54.4411
| 28> H 	 -80.5314 	 -27.3025 	 -54.1919
| 29> C 	 -78.6967 	 -25.4732 	 -53.0394
| 30> H 	 -79.0564 	 -25.8883 	 -52.1286
| 31> H 	 -78.0946 	 -24.58 	 -52.8227
| 32> C 	 -77.7082 	 -26.4741 	 -53.5609
| 33> H 	 -78.1207 	 -27.4741 	 -53.6867
| 34> H 	 -76.8198 	 -26.5867 	 -52.9596
| 35> C 	 -77.1083 	 -26.1131 	 -54.9224
| 36> H 	 -77.9793 	 -26.0508 	 -55.6397
| 37> H 	 -76.2194 	 -26.763 	 -55.1588
| 38> H 	 -76.6868 	 -25.1355 	 -54.8802
| 39> H 	 -78.9153 	 -19.1692 	 -54.7191
| 40> H 	 -82.462 	 -26.553 	 -55.5905
| 41> *
| 42>
| 43>                          ****END OF INPUT****

CARTESIAN COORDINATES (ANGSTROEM)
---------------------------------
  S    -79.793200  -21.343900  -55.423900
  C    -79.039900  -20.183900  -54.384600
  C    -78.655400  -20.706500  -53.176900
  C    -79.059500  -22.088000  -53.122100
  C    -79.509000  -22.628000  -54.306400
  H    -79.113900  -22.766400  -52.278700
  C    -77.952200  -19.973200  -52.030400
  H    -78.695400  -19.333200  -51.609200
  H    -77.066800  -19.340800  -52.382700
  C    -77.600200  -20.783400  -50.755900
  H    -78.473300  -21.294500  -50.408100
  H    -76.906200  -21.597400  -50.988500
  C    -76.975900  -19.888400  -49.552200
  H    -76.694400  -20.463900  -48.715600
  H    -76.081500  -19.325900  -49.936000
  H    -77.733300  -19.145200  -49.247900
  S    -81.493300  -24.115300  -55.698500
  C    -81.753100  -25.793200  -55.301800
  C    -80.721100  -26.218300  -54.416200
  C    -79.894000  -25.151100  -53.929100
  C    -80.236100  -23.908100  -54.441100
  H    -80.531400  -27.302500  -54.191900
  C    -78.696700  -25.473200  -53.039400
  H    -79.056400  -25.888300  -52.128600
  H    -78.094600  -24.580000  -52.822700
  C    -77.708200  -26.474100  -53.560900
  H    -78.120700  -27.474100  -53.686700
  H    -76.819800  -26.586700  -52.959600
  C    -77.108300  -26.113100  -54.922400
  H    -77.979300  -26.050800  -55.639700
  H    -76.219400  -26.763000  -55.158800
  H    -76.686800  -25.135500  -54.880200
  H    -78.915300  -19.169200  -54.719100
  H    -82.462000  -26.553000  -55.590500

 Total Charge           Charge          ....    0
 Multiplicity           Mult            ....    1
 Number of Electrons    NEL             ....  134
 Basis Dimension        Dim             ....  322

ORBITAL ENERGIES
----------------

  NO   OCC          E(Eh)            E(eV)
   0   2.0000     -88.971647     -2421.0416
   1   2.0000     -88.965647     -2420.8783
   2   2.0000     -10.334177      -281.2072
   3   2.0000     -10.328416      -281.0505
   4   2.0000     -10.323707      -280.9223
   5   2.0000     -10.313540      -280.6457
   6   2.0000     -10.308417      -280.5063
   7   2.0000     -10.305196      -280.4186
   8   2.0000     -10.301585      -280.3204
   9   2.0000     -10.301509      -280.3183
  10   2.0000     -10.294920      -280.1390
  11   2.0000     -10.294474      -280.1269
  12   2.0000     -10.289695      -279.9968
  13   2.0000     -10.288751      -279.9711
  14   2.0000     -10.278849      -279.7017
  15   2.0000     -10.272502      -279.5290
  16   2.0000      -8.085245      -220.0107
  17   2.0000      -8.081400      -219.9061
  18   2.0000      -6.043966      -164.4647
  19   2.0000      -6.039969      -164.3559
  20   2.0000      -6.039954      -164.3555
  21   2.0000      -6.035789      -164.2422
  22   2.0000      -6.035761      -164.2414
  23   2.0000      -6.032061      -164.1407
  24   2.0000      -1.010412       -27.4947
  25   2.0000      -0.984235       -26.7824
  26   2.0000      -0.914127       -24.8747
  27   2.0000      -0.906598       -24.6698
  28   2.0000      -0.868900       -23.6440
  29   2.0000      -0.849853       -23.1257
  30   2.0000      -0.839545       -22.8452
  31   2.0000      -0.812652       -22.1134
  32   2.0000      -0.783572       -21.3221
  33   2.0000      -0.776724       -21.1357
  34   2.0000      -0.711900       -19.3718
  35   2.0000      -0.694704       -18.9039
  36   2.0000      -0.690778       -18.7970
  37   2.0000      -0.655134       -17.8271
  38   2.0000      -0.645547       -17.5662
  39   2.0000      -0.619200       -16.8493
  40   2.0000      -0.595202       -16.1963
  41   2.0000      -0.569374       -15.4935
  42   2.0000      -0.563934       -15.3454
  43   2.0000      -0.557359       -15.1665
  44   2.0000      -0.546248       -14.8642
  45   2.0000      -0.521456       -14.1895
  46   2.0000      -0.514921       -14.0117
  47   2.0000      -0.513177       -13.9643
  48   2.0000      -0.504913       -13.7394
  49   2.0000      -0.496260       -13.5039
  50   2.0000      -0.486643       -13.2422
  51   2.0000      -0.484364       -13.1802
  52   2.0000      -0.466773       -12.7016
  53   2.0000      -0.462238       -12.5781
  54   2.0000      -0.459728       -12.5098
  55   2.0000      -0.450136       -12.2488
  56   2.0000      -0.447014       -12.1639
  57   2.0000      -0.438204       -11.9241
  58   2.0000      -0.432660       -11.7733
  59   2.0000      -0.424584       -11.5535
  60   2.0000      -0.421587       -11.4720
  61   2.0000      -0.414969       -11.2919
  62   2.0000      -0.407529       -11.0894
  63   2.0000      -0.361048        -9.8246
  64   2.0000      -0.332647        -9.0518
  65   2.0000      -0.327211        -8.9039
  66   2.0000      -0.284909        -7.7528
  67   0.0000       0.021338         0.5806
  68   0.0000       0.074177         2.0185
  69   0.0000       0.100503         2.7348
  70   0.0000       0.114822         3.1245
  71   0.0000       0.137067         3.7298

MULLIKEN ATOMIC CHARGES
-----------------------
   0 S :    0.090379
   1 C :   -0.130169
   2 C :   -0.043843
   3 C :   -0.041990
   4 C :   -0.093933
   5 H :    0.027935
   6 C :    0.055226
   7 H :    0.032351
   8 H :    0.054270
   9 C :   -0.111338
  10 H :    0.030567
  11 H :    0.031342
  12 C :   -0.051467
  13 H :    0.036761
  14 H :    0.040856
  15 H :    0.037485
  16 S :    0.104255
  17 C :   -0.079052
  18 C :   -0.074774
  19 C :   -0.085220
  20 C :   -0.131782
  21 H :    0.042776
  22 C :    0.112768
  23 H :    0.026691
  24 H :    0.024074
  25 C :   -0.095155
  26 H :    0.022971
  27 H :    0.024590
  28 C :   -0.073890
  29 H :    0.053048
  30 H :    0.042317
  31 H :    0.016973
  32 H :    0.044902
  33 H :    0.060077
Sum of atomic charges:   -0.0000000

LOEWDIN ATOMIC CHARGES
----------------------
   0 S :    0.418145
   1 C :   -0.191611
   2 C :   -0.062136
   3 C :   -0.066718
   4 C :   -0.198360
   5 H :    0.029496
   6 C :   -0.037410
   7 H :    0.033406
   8 H :    0.041920
   9 C :   -0.040089
  10 H :    0.018743
  11 H :    0.019413
  12 C :   -0.060591
  13 H :    0.020770
  14 H :    0.031010
  15 H :    0.026868
  16 S :    0.395976
  17 C :   -0.195399
  18 C :   -0.076158
  19 C :   -0.063338
  20 C :   -0.183954
  21 H :    0.037979
  22 C :   -0.030298
  23 H :    0.030573
  24 H :    0.032058
  25 C :   -0.045597
  26 H :    0.017514
  27 H :    0.024781
  28 C :   -0.071115
  29 H :    0.033320
  30 H :    0.032074
  31 H :    0.016624
  32 H :    0.025087
  33 H :    0.037015

  Mayer bond orders larger than 0.100000
B(  0-S ,  1-C ) :   1.1595 B(  0-S ,  4-C ) :   1.1416 B(  1-C ,  2-C ) :   1.6023
B(  1-C , 32-H ) :   0.9769 B(  2-C ,  3-C ) :   1.2466 B(  2-C ,  6-C ) :   1.0028
B(  3-C ,  4-C ) :   1.5681 B(  3-C ,  5-H ) :   0.9821 B(  4-C , 20-C ) :   1.0573
B(  6-C ,  7-H ) :   0.9345 B(  6-C ,  8-H ) :   0.9466 B(  6-C ,  9-C ) :   1.0776
B(  9-C , 10-H ) :   0.9481 B(  9-C , 11-H ) :   0.9583 B(  9-C , 12-C ) :   1.0703
B( 12-C , 13-H ) :   0.9770 B( 12-C , 14-H ) :   0.9781 B( 12-C , 15-H ) :   0.9780
B( 16-S , 17-C ) :   1.1541 B( 16-S , 20-C ) :   1.1194 B( 17-C , 18-C ) :   1.5946
B( 17-C , 33-H ) :   0.9682 B( 18-C , 19-C ) :   1.2667 B( 18-C , 21-H ) :   0.9770
B( 19-C , 20-C ) :   1.5894 B( 19-C , 22-C ) :   1.0372 B( 22-C , 23-H ) :   0.9272
B( 22-C , 24-H ) :   0.9293 B( 22-C , 25-C ) :   1.0859 B( 25-C , 26-H ) :   0.9514
B( 25-C , 27-H ) :   0.9545 B( 25-C , 28-C ) :   1.0757 B( 28-C , 29-H ) :   0.9713
B( 28-C , 30-H ) :   0.9742 B( 28-C , 31-H ) :   0.9742

Dispersion correction           -0.014246857
FINAL SINGLE POINT ENERGY     -1339.865698474544

DIPOLE MOMENT
-------------
                                X             Y             Z
Electronic contribution:    -20.17996       2.53855     -20.32290
Nuclear contribution   :     20.52718      -2.60283      20.96517
                        -----------------------------------------
Total Dipole Moment    :      0.34721      -0.06429       0.64227
                        -----------------------------------------
Magnitude (a.u.)       :      0.73294
Magnitude (Debye)      :      1.86298

Rotational constants in cm-1:     0.018881     0.008518     0.006686
Rotational constants in MHz :   566.049795   255.356139   200.445595

                             ****ORCA TERMINATED NORMALLY****
TOTAL RUN TIME: 0 days 0 hours 0 minutes 20 seconds 461 msec
