                         Program Version 4.2.1 -  RELEASE  -
|  1> ! wB97X-D3 SP def2-SVP
|  2> %pal
|  3> nprocs 24
|  4> end
|  5>
|  6> * xyz 0 1
|  7> S 	 -47.7304 	 0.105627 	 14.4266
|  8> C 	 -47.7745 	 0.402568 	 16.125
|  9> C 	 -46.5471 	 0.342656 	 16.6817
| 10> C 	 -45.5233 	 -0.196187 	 15.8057
| 11> C 	 -45.9899 	 -0.335033 	 14.4455
| 12> H 	 -44.4852 	 -0.442203 	 15.9325
| 13> C 	 -46.3894 	 0.636723 	 18.129
| 14> H 	 -45.6999 	 -0.117542 	 18.5619
| 15> H 	 -47.3676 	 0.637834 	 18.5355
| 16> C 	 -45.6057 	 1.89729 	 18.364
| 17> H 	 -44.6895 	 1.91676 	 17.7545
| 18> H 	 -46.135 	 2.76904 	 18.0058
| 19> C 	 -45.316 	 2.07406 	 19.8742
| 20> H 	 -44.7066 	 2.97858 	 20.119
| 21> H 	 -46.3323 	 2.12253 	 20.338
| 22> H 	 -44.8031 	 1.2346 	 20.4199
| 23> S 	 -43.4656 	 -0.640675 	 13.3474
| 24> C 	 -43.2994 	 -0.909226 	 11.589
| 25> C 	 -44.5076 	 -1.33019 	 11.123
| 26> C 	 -45.638 	 -1.07154 	 12.0239
| 27> C 	 -45.2397 	 -0.688382 	 13.2794
| 28> H 	 -44.6096 	 -1.66024 	 10.1173
| 29> C 	 -47.0129 	 -1.25016 	 11.4971
| 30> H 	 -47.0947 	 -0.890668 	 10.4925
| 31> H 	 -47.6984 	 -0.522113 	 12.0379
| 32> C 	 -47.5101 	 -2.73694 	 11.4448
| 33> H 	 -47.393 	 -3.23699 	 12.4326
| 34> H 	 -46.8432 	 -3.31058 	 10.8336
| 35> C 	 -48.9211 	 -2.91258 	 10.8613
| 36> H 	 -49.2092 	 -3.91875 	 10.7313
| 37> H 	 -49.0589 	 -2.29557 	 9.91396
| 38> H 	 -49.729 	 -2.54872 	 11.5227
| 39> H 	 -48.5098 	 0.961578 	 16.5954
| 40> H 	 -42.3046 	 -1.14607 	 11.0781
| 41> *
| 42>
| 43>                          ****END OF INPUT****

CARTESIAN COORDINATES (ANGSTROEM)
---------------------------------
  S    -47.730400    0.105627   14.426600
  C    -47.774500    0.402568   16.125000
  C    -46.547100    0.342656   16.681700
  C    -45.523300   -0.196187   15.805700
  C    -45.989900   -0.335033   14.445500
  H    -44.485200   -0.442203   15.932500
  C    -46.389400    0.636723   18.129000
  H    -45.699900   -0.117542   18.561900
  H    -47.367600    0.637834   18.535500
  C    -45.605700    1.897290   18.364000
  H    -44.689500    1.916760   17.754500
  H    -46.135000    2.769040   18.005800
  C    -45.316000    2.074060   19.874200
  H    -44.706600    2.978580   20.119000
  H    -46.332300    2.122530   20.338000
  H    -44.803100    1.234600   20.419900
  S    -43.465600   -0.640675   13.347400
  C    -43.299400   -0.909226   11.589000
  C    -44.507600   -1.330190   11.123000
  C    -45.638000   -1.071540   12.023900
  C    -45.239700   -0.688382   13.279400
  H    -44.609600   -1.660240   10.117300
  C    -47.012900   -1.250160   11.497100
  H    -47.094700   -0.890668   10.492500
  H    -47.698400   -0.522113   12.037900
  C    -47.510100   -2.736940   11.444800
  H    -47.393000   -3.236990   12.432600
  H    -46.843200   -3.310580   10.833600
  C    -48.921100   -2.912580   10.861300
  H    -49.209200   -3.918750   10.731300
  H    -49.058900   -2.295570    9.913960
  H    -49.729000   -2.548720   11.522700
  H    -48.509800    0.961578   16.595400
  H    -42.304600   -1.146070   11.078100

 Total Charge           Charge          ....    0
 Multiplicity           Mult            ....    1
 Number of Electrons    NEL             ....  134
 Basis Dimension        Dim             ....  322

ORBITAL ENERGIES
----------------

  NO   OCC          E(Eh)            E(eV)
   0   2.0000     -88.966459     -2420.9004
   1   2.0000     -88.963323     -2420.8151
   2   2.0000     -10.340775      -281.3868
   3   2.0000     -10.332769      -281.1689
   4   2.0000     -10.327397      -281.0228
   5   2.0000     -10.306078      -280.4426
   6   2.0000     -10.302954      -280.3576
   7   2.0000     -10.302079      -280.3338
   8   2.0000     -10.299266      -280.2573
   9   2.0000     -10.296820      -280.1907
  10   2.0000     -10.294667      -280.1321
  11   2.0000     -10.290471      -280.0179
  12   2.0000     -10.286600      -279.9126
  13   2.0000     -10.286264      -279.9035
  14   2.0000     -10.284576      -279.8576
  15   2.0000     -10.280463      -279.7456
  16   2.0000      -8.080305      -219.8763
  17   2.0000      -8.077417      -219.7977
  18   2.0000      -6.038985      -164.3291
  19   2.0000      -6.036338      -164.2571
  20   2.0000      -6.034908      -164.2182
  21   2.0000      -6.032241      -164.1456
  22   2.0000      -6.030975      -164.1112
  23   2.0000      -6.027553      -164.0181
  24   2.0000      -1.005029       -27.3482
  25   2.0000      -0.983937       -26.7743
  26   2.0000      -0.918976       -25.0066
  27   2.0000      -0.905608       -24.6429
  28   2.0000      -0.877561       -23.8796
  29   2.0000      -0.850169       -23.1343
  30   2.0000      -0.841849       -22.9079
  31   2.0000      -0.817095       -22.2343
  32   2.0000      -0.780444       -21.2370
  33   2.0000      -0.768383       -20.9088
  34   2.0000      -0.715007       -19.4563
  35   2.0000      -0.701908       -19.0999
  36   2.0000      -0.693820       -18.8798
  37   2.0000      -0.671715       -18.2783
  38   2.0000      -0.638814       -17.3830
  39   2.0000      -0.614269       -16.7151
  40   2.0000      -0.596677       -16.2364
  41   2.0000      -0.578243       -15.7348
  42   2.0000      -0.564690       -15.3660
  43   2.0000      -0.553706       -15.0671
  44   2.0000      -0.530134       -14.4257
  45   2.0000      -0.524840       -14.2816
  46   2.0000      -0.520072       -14.1519
  47   2.0000      -0.513656       -13.9773
  48   2.0000      -0.503995       -13.7144
  49   2.0000      -0.502131       -13.6637
  50   2.0000      -0.490300       -13.3418
  51   2.0000      -0.481354       -13.0983
  52   2.0000      -0.470973       -12.8158
  53   2.0000      -0.463579       -12.6146
  54   2.0000      -0.461722       -12.5641
  55   2.0000      -0.449469       -12.2307
  56   2.0000      -0.442440       -12.0394
  57   2.0000      -0.438670       -11.9368
  58   2.0000      -0.435506       -11.8507
  59   2.0000      -0.422624       -11.5002
  60   2.0000      -0.416966       -11.3462
  61   2.0000      -0.415203       -11.2982
  62   2.0000      -0.402488       -10.9523
  63   2.0000      -0.369667       -10.0592
  64   2.0000      -0.329220        -8.9585
  65   2.0000      -0.325241        -8.8503
  66   2.0000      -0.284064        -7.7298
  67   0.0000       0.011939         0.3249
  68   0.0000       0.081455         2.2165
  69   0.0000       0.107477         2.9246
  70   0.0000       0.116143         3.1604
  71   0.0000       0.123613         3.3637

MULLIKEN ATOMIC CHARGES
-----------------------
   0 S :    0.075178
   1 C :   -0.061351
   2 C :   -0.099577
   3 C :    0.012494
   4 C :   -0.146387
   5 H :    0.015715
   6 C :    0.087050
   7 H :    0.030837
   8 H :    0.013192
   9 C :   -0.076528
  10 H :    0.032284
  11 H :    0.019902
  12 C :   -0.075119
  13 H :    0.046366
  14 H :    0.030601
  15 H :    0.037392
  16 S :    0.061061
  17 C :   -0.099798
  18 C :   -0.012904
  19 C :   -0.088386
  20 C :   -0.078236
  21 H :    0.015288
  22 C :    0.033844
  23 H :    0.012979
  24 H :    0.042168
  25 C :   -0.054693
  26 H :    0.037775
  27 H :    0.017275
  28 C :   -0.046747
  29 H :    0.028316
  30 H :    0.034376
  31 H :    0.031513
  32 H :    0.031973
  33 H :    0.092146
Sum of atomic charges:    0.0000000

LOEWDIN ATOMIC CHARGES
----------------------
   0 S :    0.406708
   1 C :   -0.203961
   2 C :   -0.055625
   3 C :   -0.065617
   4 C :   -0.165362
   5 H :    0.023553
   6 C :   -0.027535
   7 H :    0.039802
   8 H :    0.025200
   9 C :   -0.042678
  10 H :    0.025435
  11 H :    0.021258
  12 C :   -0.077457
  13 H :    0.029727
  14 H :    0.028619
  15 H :    0.026981
  16 S :    0.366171
  17 C :   -0.181279
  18 C :   -0.061034
  19 C :   -0.058635
  20 C :   -0.182057
  21 H :    0.026112
  22 C :   -0.042875
  23 H :    0.027336
  24 H :    0.023658
  25 C :   -0.035893
  26 H :    0.030543
  27 H :    0.019531
  28 C :   -0.070776
  29 H :    0.020685
  30 H :    0.031657
  31 H :    0.028317
  32 H :    0.018742
  33 H :    0.050748

  Mayer bond orders larger than 0.100000
B(  0-S ,  1-C ) :   1.1182 B(  0-S ,  4-C ) :   1.1452 B(  1-C ,  2-C ) :   1.6457
B(  1-C , 32-H ) :   0.9586 B(  2-C ,  3-C ) :   1.2157 B(  2-C ,  6-C ) :   1.0431
B(  3-C ,  4-C ) :   1.5425 B(  3-C ,  5-H ) :   0.9870 B(  4-C , 20-C ) :   1.1437
B(  6-C ,  7-H ) :   0.9377 B(  6-C ,  8-H ) :   0.9405 B(  6-C ,  9-C ) :   1.0529
B(  9-C , 10-H ) :   0.9580 B(  9-C , 11-H ) :   0.9504 B(  9-C , 12-C ) :   1.0726
B( 12-C , 13-H ) :   0.9751 B( 12-C , 14-H ) :   0.9718 B( 12-C , 15-H ) :   0.9763
B( 16-S , 17-C ) :   1.1173 B( 16-S , 20-C ) :   1.0998 B( 17-C , 18-C ) :   1.6589
B( 17-C , 33-H ) :   0.9530 B( 18-C , 19-C ) :   1.2045 B( 18-C , 21-H ) :   0.9856
B( 19-C , 20-C ) :   1.5948 B( 19-C , 22-C ) :   1.0645 B( 22-C , 23-H ) :   0.9211
B( 22-C , 24-H ) :   0.9310 B( 22-C , 25-C ) :   1.0453 B( 25-C , 26-H ) :   0.9550
B( 25-C , 27-H ) :   0.9550 B( 25-C , 28-C ) :   1.0822 B( 28-C , 29-H ) :   0.9740
B( 28-C , 30-H ) :   0.9719 B( 28-C , 31-H ) :   0.9746

Dispersion correction           -0.013540053
FINAL SINGLE POINT ENERGY     -1339.867091367742

DIPOLE MOMENT
-------------
                                X             Y             Z
Electronic contribution:      8.21726       0.34717      -8.04169
Nuclear contribution   :     -8.27294      -0.42728       7.94423
                        -----------------------------------------
Total Dipole Moment    :     -0.05569      -0.08011      -0.09745
                        -----------------------------------------
Magnitude (a.u.)       :      0.13790
Magnitude (Debye)      :      0.35051

Rotational constants in cm-1:     0.022248     0.007568     0.005864
Rotational constants in MHz :   666.973676   226.878951   175.812345

                             ****ORCA TERMINATED NORMALLY****
TOTAL RUN TIME: 0 days 0 hours 0 minutes 22 seconds 33 msec
