                         Program Version 4.2.1 -  RELEASE  -
|  1> ! wB97X-D3 SP def2-SVP
|  2> %pal
|  3> nprocs 24
|  4> end
|  5>
|  6> * xyz 0 1
|  7> S 	 -108.577 	 14.2221 	 -9.11434
|  8> C 	 -107.5 	 14.4768 	 -7.73059
|  9> C 	 -107.747 	 13.5919 	 -6.66448
| 10> C 	 -108.646 	 12.561 	 -7.11808
| 11> C 	 -109.19 	 12.8133 	 -8.3615
| 12> H 	 -108.94 	 11.6294 	 -6.62312
| 13> C 	 -107.093 	 13.5006 	 -5.29038
| 14> H 	 -107.861 	 13.0575 	 -4.60033
| 15> H 	 -106.95 	 14.4902 	 -4.8675
| 16> C 	 -105.874 	 12.6191 	 -5.19765
| 17> H 	 -105.148 	 12.8649 	 -6.00229
| 18> H 	 -105.323 	 12.8735 	 -4.30334
| 19> C 	 -106.219 	 11.1808 	 -5.22443
| 20> H 	 -106.982 	 10.8803 	 -4.48159
| 21> H 	 -106.543 	 10.8572 	 -6.19856
| 22> H 	 -105.369 	 10.524 	 -4.98891
| 23> S 	 -109.633 	 10.4325 	 -9.90995
| 24> C 	 -111.254 	 9.87971 	 -9.87783
| 25> C 	 -112.148 	 10.9126 	 -9.70873
| 26> C 	 -111.542 	 12.0999 	 -9.13412
| 27> C 	 -110.129 	 11.9065 	 -9.04755
| 28> H 	 -113.195 	 10.7409 	 -9.80719
| 29> C 	 -112.333 	 13.2628 	 -8.65256
| 30> H 	 -111.729 	 13.7244 	 -7.85976
| 31> H 	 -113.245 	 12.9351 	 -8.14942
| 32> C 	 -112.746 	 14.2599 	 -9.77408
| 33> H 	 -113.281 	 13.7127 	 -10.5831
| 34> H 	 -111.907 	 14.6895 	 -10.3127
| 35> C 	 -113.607 	 15.4436 	 -9.21008
| 36> H 	 -113.733 	 16.1401 	 -10.0605
| 37> H 	 -113.086 	 16.1243 	 -8.4581
| 38> H 	 -114.629 	 15.1978 	 -8.97038
| 39> H 	 -106.922 	 15.4644 	 -7.69621
| 40> H 	 -111.543 	 9.05563 	 -10.3945
| 41> *
| 42>
| 43>                          ****END OF INPUT****

CARTESIAN COORDINATES (ANGSTROEM)
---------------------------------
  S    -108.577000   14.222100   -9.114340
  C    -107.500000   14.476800   -7.730590
  C    -107.747000   13.591900   -6.664480
  C    -108.646000   12.561000   -7.118080
  C    -109.190000   12.813300   -8.361500
  H    -108.940000   11.629400   -6.623120
  C    -107.093000   13.500600   -5.290380
  H    -107.861000   13.057500   -4.600330
  H    -106.950000   14.490200   -4.867500
  C    -105.874000   12.619100   -5.197650
  H    -105.148000   12.864900   -6.002290
  H    -105.323000   12.873500   -4.303340
  C    -106.219000   11.180800   -5.224430
  H    -106.982000   10.880300   -4.481590
  H    -106.543000   10.857200   -6.198560
  H    -105.369000   10.524000   -4.988910
  S    -109.633000   10.432500   -9.909950
  C    -111.254000    9.879710   -9.877830
  C    -112.148000   10.912600   -9.708730
  C    -111.542000   12.099900   -9.134120
  C    -110.129000   11.906500   -9.047550
  H    -113.195000   10.740900   -9.807190
  C    -112.333000   13.262800   -8.652560
  H    -111.729000   13.724400   -7.859760
  H    -113.245000   12.935100   -8.149420
  C    -112.746000   14.259900   -9.774080
  H    -113.281000   13.712700  -10.583100
  H    -111.907000   14.689500  -10.312700
  C    -113.607000   15.443600   -9.210080
  H    -113.733000   16.140100  -10.060500
  H    -113.086000   16.124300   -8.458100
  H    -114.629000   15.197800   -8.970380
  H    -106.922000   15.464400   -7.696210
  H    -111.543000    9.055630  -10.394500

 Total Charge           Charge          ....    0
 Multiplicity           Mult            ....    1
 Number of Electrons    NEL             ....  134
 Basis Dimension        Dim             ....  322

ORBITAL ENERGIES
----------------

  NO   OCC          E(Eh)            E(eV)
   0   2.0000     -88.967034     -2420.9161
   1   2.0000     -88.964234     -2420.8399
   2   2.0000     -10.326478      -280.9977
   3   2.0000     -10.323386      -280.9136
   4   2.0000     -10.322163      -280.8803
   5   2.0000     -10.308454      -280.5073
   6   2.0000     -10.304255      -280.3930
   7   2.0000     -10.303600      -280.3752
   8   2.0000     -10.294220      -280.1200
   9   2.0000     -10.293354      -280.0964
  10   2.0000     -10.292430      -280.0713
  11   2.0000     -10.289886      -280.0020
  12   2.0000     -10.289232      -279.9842
  13   2.0000     -10.283973      -279.8411
  14   2.0000     -10.282848      -279.8105
  15   2.0000     -10.273217      -279.5484
  16   2.0000      -8.082053      -219.9238
  17   2.0000      -8.079148      -219.8448
  18   2.0000      -6.040333      -164.3658
  19   2.0000      -6.037562      -164.2904
  20   2.0000      -6.036589      -164.2639
  21   2.0000      -6.033902      -164.1908
  22   2.0000      -6.032970      -164.1655
  23   2.0000      -6.029738      -164.0775
  24   2.0000      -1.002501       -27.2794
  25   2.0000      -0.981617       -26.7112
  26   2.0000      -0.918629       -24.9972
  27   2.0000      -0.903675       -24.5903
  28   2.0000      -0.863656       -23.5013
  29   2.0000      -0.847350       -23.0576
  30   2.0000      -0.845139       -22.9974
  31   2.0000      -0.809436       -22.0259
  32   2.0000      -0.784605       -21.3502
  33   2.0000      -0.768166       -20.9029
  34   2.0000      -0.702318       -19.1110
  35   2.0000      -0.700734       -19.0680
  36   2.0000      -0.691316       -18.8117
  37   2.0000      -0.653924       -17.7942
  38   2.0000      -0.641396       -17.4533
  39   2.0000      -0.611912       -16.6510
  40   2.0000      -0.595936       -16.2162
  41   2.0000      -0.570604       -15.5269
  42   2.0000      -0.558332       -15.1930
  43   2.0000      -0.552566       -15.0361
  44   2.0000      -0.536629       -14.6024
  45   2.0000      -0.516862       -14.0645
  46   2.0000      -0.513752       -13.9799
  47   2.0000      -0.509402       -13.8615
  48   2.0000      -0.505357       -13.7515
  49   2.0000      -0.489004       -13.3065
  50   2.0000      -0.483514       -13.1571
  51   2.0000      -0.479630       -13.0514
  52   2.0000      -0.470512       -12.8033
  53   2.0000      -0.461105       -12.5473
  54   2.0000      -0.455785       -12.4025
  55   2.0000      -0.447099       -12.1662
  56   2.0000      -0.442228       -12.0336
  57   2.0000      -0.438050       -11.9200
  58   2.0000      -0.433505       -11.7963
  59   2.0000      -0.426448       -11.6043
  60   2.0000      -0.419136       -11.4053
  61   2.0000      -0.418259       -11.3814
  62   2.0000      -0.415197       -11.2981
  63   2.0000      -0.334451        -9.1009
  64   2.0000      -0.324300        -8.8247
  65   2.0000      -0.319166        -8.6850
  66   2.0000      -0.306293        -8.3347
  67   0.0000       0.039315         1.0698
  68   0.0000       0.054291         1.4773
  69   0.0000       0.108279         2.9464
  70   0.0000       0.109203         2.9716
  71   0.0000       0.126564         3.4440

MULLIKEN ATOMIC CHARGES
-----------------------
   0 S :    0.120703
   1 C :   -0.164408
   2 C :   -0.070073
   3 C :    0.023771
   4 C :   -0.196012
   5 H :    0.024565
   6 C :    0.048559
   7 H :    0.027797
   8 H :    0.023337
   9 C :   -0.031764
  10 H :    0.032183
  11 H :    0.023313
  12 C :   -0.057524
  13 H :    0.025612
  14 H :    0.036908
  15 H :    0.029621
  16 S :    0.117611
  17 C :   -0.046000
  18 C :   -0.034231
  19 C :   -0.027899
  20 C :   -0.177692
  21 H :    0.012129
  22 C :    0.083464
  23 H :    0.032754
  24 H :    0.021230
  25 C :   -0.079755
  26 H :    0.030376
  27 H :    0.025929
  28 C :   -0.066876
  29 H :    0.025296
  30 H :    0.050625
  31 H :    0.036539
  32 H :    0.076698
  33 H :    0.023215
Sum of atomic charges:   -0.0000000

LOEWDIN ATOMIC CHARGES
----------------------
   0 S :    0.415992
   1 C :   -0.204770
   2 C :   -0.058307
   3 C :   -0.060637
   4 C :   -0.214579
   5 H :    0.036653
   6 C :   -0.034295
   7 H :    0.036510
   8 H :    0.028905
   9 C :   -0.044149
  10 H :    0.031259
  11 H :    0.024186
  12 C :   -0.068479
  13 H :    0.025618
  14 H :    0.024709
  15 H :    0.029132
  16 S :    0.406539
  17 C :   -0.184520
  18 C :   -0.062931
  19 C :   -0.045020
  20 C :   -0.202179
  21 H :    0.024906
  22 C :   -0.038477
  23 H :    0.034460
  24 H :    0.031292
  25 C :   -0.036039
  26 H :    0.027639
  27 H :    0.022111
  28 C :   -0.077362
  29 H :    0.028939
  30 H :    0.036458
  31 H :    0.021553
  32 H :    0.038051
  33 H :    0.006834

  Mayer bond orders larger than 0.100000
B(  0-S ,  1-C ) :   1.1470 B(  0-S ,  4-C ) :   1.1638 B(  1-C ,  2-C ) :   1.6045
B(  1-C , 32-H ) :   0.9576 B(  2-C ,  3-C ) :   1.2245 B(  2-C ,  6-C ) :   1.0264
B(  3-C ,  4-C ) :   1.6013 B(  3-C ,  5-H ) :   0.9842 B(  4-C , 20-C ) :   1.0169
B(  6-C ,  7-H ) :   0.9414 B(  6-C ,  8-H ) :   0.9382 B(  6-C ,  9-C ) :   1.0720
B(  9-C , 10-H ) :   0.9484 B(  9-C , 11-H ) :   0.9503 B(  9-C , 12-C ) :   1.0945
B( 12-C , 13-H ) :   0.9713 B( 12-C , 14-H ) :   0.9686 B( 12-C , 15-H ) :   0.9677
B( 16-S , 17-C ) :   1.1591 B( 16-S , 20-C ) :   1.1437 B( 17-C , 18-C ) :   1.6224
B( 17-C , 33-H ) :   0.9680 B( 18-C , 19-C ) :   1.2371 B( 18-C , 21-H ) :   0.9889
B( 19-C , 20-C ) :   1.5749 B( 19-C , 22-C ) :   1.0609 B( 22-C , 23-H ) :   0.9241
B( 22-C , 24-H ) :   0.9350 B( 22-C , 25-C ) :   1.0533 B( 25-C , 26-H ) :   0.9570
B( 25-C , 27-H ) :   0.9551 B( 25-C , 28-C ) :   1.0804 B( 28-C , 29-H ) :   0.9727
B( 28-C , 30-H ) :   0.9740 B( 28-C , 31-H ) :   0.9759

Dispersion correction           -0.014640431
FINAL SINGLE POINT ENERGY     -1339.872891510747

DIPOLE MOMENT
-------------
                                X             Y             Z
Electronic contribution:      3.77701      -6.44484     -13.85239
Nuclear contribution   :     -3.96896       6.59325      14.18319
                        -----------------------------------------
Total Dipole Moment    :     -0.19195       0.14842       0.33080
                        -----------------------------------------
Magnitude (a.u.)       :      0.41024
Magnitude (Debye)      :      1.04275

Rotational constants in cm-1:     0.018924     0.008611     0.006872
Rotational constants in MHz :   567.321081   258.140922   206.015402

                             ****ORCA TERMINATED NORMALLY****
TOTAL RUN TIME: 0 days 0 hours 0 minutes 21 seconds 348 msec
