                         Program Version 4.2.1 -  RELEASE  -
|  1> ! wB97X-D3 SP def2-SVP
|  2> %pal
|  3> nprocs 24
|  4> end
|  5>
|  6> * xyz 0 1
|  7> S 	 -48.7624 	 5.17774 	 -20.4329
|  8> C 	 -49.626 	 3.68974 	 -20.8221
|  9> C 	 -50.4029 	 3.24264 	 -19.8247
| 10> C 	 -50.4574 	 4.19405 	 -18.7696
| 11> C 	 -49.5735 	 5.27261 	 -18.918
| 12> H 	 -51.004 	 4.05705 	 -17.8807
| 13> C 	 -51.0588 	 1.87819 	 -19.7587
| 14> H 	 -50.4307 	 1.28832 	 -19.0928
| 15> H 	 -51.0395 	 1.49374 	 -20.8026
| 16> C 	 -52.4501 	 1.90198 	 -19.2704
| 17> H 	 -52.3948 	 2.41942 	 -18.303
| 18> H 	 -53.1238 	 2.40549 	 -20.0123
| 19> C 	 -52.9375 	 0.462714 	 -18.9499
| 20> H 	 -53.8806 	 0.400131 	 -18.3851
| 21> H 	 -53.0574 	 -0.0471536 	 -19.9257
| 22> H 	 -52.1462 	 0.026491 	 -18.281
| 23> S 	 -49.3322 	 8.04362 	 -18.8887
| 24> C 	 -48.8191 	 8.76723 	 -17.3217
| 25> C 	 -49.0108 	 7.91647 	 -16.2694
| 26> C 	 -49.3162 	 6.56914 	 -16.6888
| 27> C 	 -49.4266 	 6.47101 	 -18.0729
| 28> H 	 -48.7853 	 8.22195 	 -15.3143
| 29> C 	 -49.5332 	 5.45375 	 -15.6188
| 30> H 	 -50.3222 	 4.77209 	 -15.8718
| 31> H 	 -50.096 	 5.97726 	 -14.8723
| 32> C 	 -48.2816 	 4.75761 	 -15.1142
| 33> H 	 -48.0922 	 3.91342 	 -15.8417
| 34> H 	 -48.4781 	 4.26936 	 -14.1871
| 35> C 	 -47.1428 	 5.6783 	 -14.798
| 36> H 	 -46.8836 	 6.28217 	 -15.6562
| 37> H 	 -46.3222 	 5.08766 	 -14.4516
| 38> H 	 -47.4209 	 6.31553 	 -13.9545
| 39> H 	 -49.5354 	 3.24695 	 -21.7899
| 40> H 	 -48.3014 	 9.6816 	 -17.2048
| 41> *
| 42>
| 43>                          ****END OF INPUT****

CARTESIAN COORDINATES (ANGSTROEM)
---------------------------------
  S    -48.762400    5.177740  -20.432900
  C    -49.626000    3.689740  -20.822100
  C    -50.402900    3.242640  -19.824700
  C    -50.457400    4.194050  -18.769600
  C    -49.573500    5.272610  -18.918000
  H    -51.004000    4.057050  -17.880700
  C    -51.058800    1.878190  -19.758700
  H    -50.430700    1.288320  -19.092800
  H    -51.039500    1.493740  -20.802600
  C    -52.450100    1.901980  -19.270400
  H    -52.394800    2.419420  -18.303000
  H    -53.123800    2.405490  -20.012300
  C    -52.937500    0.462714  -18.949900
  H    -53.880600    0.400131  -18.385100
  H    -53.057400   -0.047154  -19.925700
  H    -52.146200    0.026491  -18.281000
  S    -49.332200    8.043620  -18.888700
  C    -48.819100    8.767230  -17.321700
  C    -49.010800    7.916470  -16.269400
  C    -49.316200    6.569140  -16.688800
  C    -49.426600    6.471010  -18.072900
  H    -48.785300    8.221950  -15.314300
  C    -49.533200    5.453750  -15.618800
  H    -50.322200    4.772090  -15.871800
  H    -50.096000    5.977260  -14.872300
  C    -48.281600    4.757610  -15.114200
  H    -48.092200    3.913420  -15.841700
  H    -48.478100    4.269360  -14.187100
  C    -47.142800    5.678300  -14.798000
  H    -46.883600    6.282170  -15.656200
  H    -46.322200    5.087660  -14.451600
  H    -47.420900    6.315530  -13.954500
  H    -49.535400    3.246950  -21.789900
  H    -48.301400    9.681600  -17.204800

 Total Charge           Charge          ....    0
 Multiplicity           Mult            ....    1
 Number of Electrons    NEL             ....  134
 Basis Dimension        Dim             ....  322

ORBITAL ENERGIES
----------------

  NO   OCC          E(Eh)            E(eV)
   0   2.0000     -88.965422     -2420.8722
   1   2.0000     -88.963833     -2420.8290
   2   2.0000     -10.329453      -281.0787
   3   2.0000     -10.328282      -281.0468
   4   2.0000     -10.315125      -280.6888
   5   2.0000     -10.306432      -280.4523
   6   2.0000     -10.306390      -280.4511
   7   2.0000     -10.294102      -280.1168
   8   2.0000     -10.292312      -280.0680
   9   2.0000     -10.289780      -279.9992
  10   2.0000     -10.289233      -279.9843
  11   2.0000     -10.289041      -279.9790
  12   2.0000     -10.288374      -279.9609
  13   2.0000     -10.286777      -279.9174
  14   2.0000     -10.283452      -279.8270
  15   2.0000     -10.270674      -279.4792
  16   2.0000      -8.079138      -219.8445
  17   2.0000      -8.079089      -219.8432
  18   2.0000      -6.037823      -164.2975
  19   2.0000      -6.037519      -164.2892
  20   2.0000      -6.033990      -164.1932
  21   2.0000      -6.033547      -164.1812
  22   2.0000      -6.029895      -164.0818
  23   2.0000      -6.029547      -164.0723
  24   2.0000      -1.005285       -27.3552
  25   2.0000      -0.980755       -26.6877
  26   2.0000      -0.922356       -25.0986
  27   2.0000      -0.911028       -24.7903
  28   2.0000      -0.870593       -23.6900
  29   2.0000      -0.848027       -23.0760
  30   2.0000      -0.842494       -22.9254
  31   2.0000      -0.815117       -22.1805
  32   2.0000      -0.786739       -21.4083
  33   2.0000      -0.775551       -21.1038
  34   2.0000      -0.711059       -19.3489
  35   2.0000      -0.693836       -18.8802
  36   2.0000      -0.684920       -18.6376
  37   2.0000      -0.663958       -18.0672
  38   2.0000      -0.641135       -17.4462
  39   2.0000      -0.624502       -16.9936
  40   2.0000      -0.593120       -16.1396
  41   2.0000      -0.583409       -15.8754
  42   2.0000      -0.566636       -15.4190
  43   2.0000      -0.560635       -15.2557
  44   2.0000      -0.548741       -14.9320
  45   2.0000      -0.524888       -14.2829
  46   2.0000      -0.512914       -13.9571
  47   2.0000      -0.508499       -13.8369
  48   2.0000      -0.505033       -13.7427
  49   2.0000      -0.500247       -13.6124
  50   2.0000      -0.482191       -13.1211
  51   2.0000      -0.479792       -13.0558
  52   2.0000      -0.475582       -12.9412
  53   2.0000      -0.463005       -12.5990
  54   2.0000      -0.457873       -12.4593
  55   2.0000      -0.452603       -12.3160
  56   2.0000      -0.445518       -12.1232
  57   2.0000      -0.437669       -11.9096
  58   2.0000      -0.433055       -11.7840
  59   2.0000      -0.426475       -11.6050
  60   2.0000      -0.423958       -11.5365
  61   2.0000      -0.413310       -11.2467
  62   2.0000      -0.407516       -11.0891
  63   2.0000      -0.343778        -9.3547
  64   2.0000      -0.335207        -9.1214
  65   2.0000      -0.329276        -8.9601
  66   2.0000      -0.288967        -7.8632
  67   0.0000       0.023580         0.6416
  68   0.0000       0.079898         2.1741
  69   0.0000       0.099226         2.7001
  70   0.0000       0.114410         3.1133
  71   0.0000       0.140352         3.8192

MULLIKEN ATOMIC CHARGES
-----------------------
   0 S :    0.105894
   1 C :   -0.147703
   2 C :   -0.049059
   3 C :    0.031015
   4 C :   -0.137542
   5 H :   -0.018266
   6 C :    0.088544
   7 H :    0.038412
   8 H :    0.019548
   9 C :   -0.119469
  10 H :    0.031921
  11 H :    0.048051
  12 C :   -0.055231
  13 H :    0.042127
  14 H :    0.039597
  15 H :    0.032854
  16 S :    0.098034
  17 C :   -0.088947
  18 C :    0.009929
  19 C :   -0.067500
  20 C :   -0.147823
  21 H :   -0.010741
  22 C :    0.089292
  23 H :    0.005186
  24 H :    0.009751
  25 C :   -0.055315
  26 H :    0.041486
  27 H :    0.015297
  28 C :   -0.036418
  29 H :    0.053491
  30 H :    0.028760
  31 H :    0.023222
  32 H :    0.034894
  33 H :    0.046708
Sum of atomic charges:    0.0000000

LOEWDIN ATOMIC CHARGES
----------------------
   0 S :    0.410046
   1 C :   -0.186774
   2 C :   -0.065483
   3 C :   -0.061254
   4 C :   -0.196655
   5 H :    0.015759
   6 C :   -0.028153
   7 H :    0.034419
   8 H :    0.032166
   9 C :   -0.048251
  10 H :    0.022973
  11 H :    0.032146
  12 C :   -0.068488
  13 H :    0.026328
  14 H :    0.027583
  15 H :    0.029089
  16 S :    0.366897
  17 C :   -0.161119
  18 C :   -0.054434
  19 C :   -0.052078
  20 C :   -0.186808
  21 H :    0.017707
  22 C :   -0.032677
  23 H :    0.025123
  24 H :    0.028849
  25 C :   -0.041752
  26 H :    0.031997
  27 H :    0.021150
  28 C :   -0.060031
  29 H :    0.026650
  30 H :    0.025645
  31 H :    0.025564
  32 H :    0.020875
  33 H :    0.022992

  Mayer bond orders larger than 0.100000
B(  0-S ,  1-C ) :   1.1318 B(  0-S ,  4-C ) :   1.1631 B(  1-C ,  2-C ) :   1.6267
B(  1-C , 32-H ) :   0.9698 B(  2-C ,  3-C ) :   1.2415 B(  2-C ,  6-C ) :   1.0106
B(  3-C ,  4-C ) :   1.5605 B(  3-C ,  5-H ) :   0.9967 B(  4-C , 20-C ) :   1.0479
B(  6-C ,  7-H ) :   0.9323 B(  6-C ,  8-H ) :   0.9365 B(  6-C ,  9-C ) :   1.0761
B(  9-C , 10-H ) :   0.9499 B(  9-C , 11-H ) :   0.9558 B(  9-C , 12-C ) :   1.0795
B( 12-C , 13-H ) :   0.9753 B( 12-C , 14-H ) :   0.9747 B( 12-C , 15-H ) :   0.9736
B( 16-S , 17-C ) :   1.1195 B( 16-S , 20-C ) :   1.1264 B( 17-C , 18-C ) :   1.6527
B( 17-C , 33-H ) :   0.9695 B( 18-C , 19-C ) :   1.2073 B( 18-C , 21-H ) :   0.9965
B( 19-C , 20-C ) :   1.6326 B( 19-C , 22-C ) :   1.0099 B( 22-C , 23-H ) :   0.9396
B( 22-C , 24-H ) :   0.9288 B( 22-C , 25-C ) :   1.0738 B( 25-C , 26-H ) :   0.9544
B( 25-C , 27-H ) :   0.9493 B( 25-C , 28-C ) :   1.0940 B( 28-C , 29-H ) :   0.9673
B( 28-C , 30-H ) :   0.9690 B( 28-C , 31-H ) :   0.9704

Dispersion correction           -0.014186450
FINAL SINGLE POINT ENERGY     -1339.870834356562

DIPOLE MOMENT
-------------
                                X             Y             Z
Electronic contribution:      6.76494      21.10620     -15.84004
Nuclear contribution   :     -6.88945     -21.58412      16.39306
                        -----------------------------------------
Total Dipole Moment    :     -0.12451      -0.47792       0.55302
                        -----------------------------------------
Magnitude (a.u.)       :      0.74145
Magnitude (Debye)      :      1.88460

Rotational constants in cm-1:     0.019492     0.008314     0.006717
Rotational constants in MHz :   584.366877   249.255564   201.383577

                             ****ORCA TERMINATED NORMALLY****
TOTAL RUN TIME: 0 days 0 hours 0 minutes 23 seconds 55 msec
