                         Program Version 4.2.1 -  RELEASE  -
|  1> ! wB97X-D3 SP def2-SVP
|  2> %pal
|  3> nprocs 24
|  4> end
|  5>
|  6> * xyz 0 1
|  7> S 	 -43.1202 	 21.546 	 23.5804
|  8> C 	 -43.7353 	 19.9657 	 24.127
|  9> C 	 -43.2228 	 19.6115 	 25.4113
| 10> C 	 -42.2654 	 20.5812 	 25.8321
| 11> C 	 -42.0523 	 21.6295 	 24.9525
| 12> H 	 -41.8974 	 20.6957 	 26.8329
| 13> C 	 -43.541 	 18.4672 	 26.2733
| 14> H 	 -44.3367 	 17.8143 	 25.8804
| 15> H 	 -43.8367 	 19.0955 	 27.151
| 16> C 	 -42.328 	 17.5986 	 26.7078
| 17> H 	 -41.8121 	 17.1664 	 25.8653
| 18> H 	 -41.5008 	 18.2576 	 27.0636
| 19> C 	 -42.6485 	 16.4984 	 27.7662
| 20> H 	 -43.3426 	 15.8035 	 27.3579
| 21> H 	 -41.6605 	 15.9672 	 27.9767
| 22> H 	 -43.0108 	 16.8619 	 28.7022
| 23> S 	 -41.569 	 24.3176 	 25.4143
| 24> C 	 -40.0419 	 24.817 	 25.9157
| 25> C 	 -39.1004 	 23.7755 	 25.8876
| 26> C 	 -39.7092 	 22.5944 	 25.3606
| 27> C 	 -41.0713 	 22.6953 	 25.2152
| 28> H 	 -38.1643 	 24.1347 	 26.2799
| 29> C 	 -38.8802 	 21.3287 	 25.201
| 30> H 	 -38.6908 	 21.2008 	 24.1531
| 31> H 	 -39.4577 	 20.4286 	 25.5094
| 32> C 	 -37.5009 	 21.3456 	 25.9505
| 33> H 	 -36.8575 	 22.1405 	 25.5381
| 34> H 	 -36.8842 	 20.5548 	 25.5702
| 35> C 	 -37.6599 	 21.2966 	 27.4894
| 36> H 	 -37.2086 	 22.1854 	 27.9217
| 37> H 	 -36.985 	 20.5151 	 27.9121
| 38> H 	 -38.6091 	 20.9717 	 27.9262
| 39> H 	 -44.4882 	 19.3901 	 23.6174
| 40> H 	 -39.8153 	 25.7935 	 26.2796
| 41> *
| 42>
| 43>                          ****END OF INPUT****

CARTESIAN COORDINATES (ANGSTROEM)
---------------------------------
  S    -43.120200   21.546000   23.580400
  C    -43.735300   19.965700   24.127000
  C    -43.222800   19.611500   25.411300
  C    -42.265400   20.581200   25.832100
  C    -42.052300   21.629500   24.952500
  H    -41.897400   20.695700   26.832900
  C    -43.541000   18.467200   26.273300
  H    -44.336700   17.814300   25.880400
  H    -43.836700   19.095500   27.151000
  C    -42.328000   17.598600   26.707800
  H    -41.812100   17.166400   25.865300
  H    -41.500800   18.257600   27.063600
  C    -42.648500   16.498400   27.766200
  H    -43.342600   15.803500   27.357900
  H    -41.660500   15.967200   27.976700
  H    -43.010800   16.861900   28.702200
  S    -41.569000   24.317600   25.414300
  C    -40.041900   24.817000   25.915700
  C    -39.100400   23.775500   25.887600
  C    -39.709200   22.594400   25.360600
  C    -41.071300   22.695300   25.215200
  H    -38.164300   24.134700   26.279900
  C    -38.880200   21.328700   25.201000
  H    -38.690800   21.200800   24.153100
  H    -39.457700   20.428600   25.509400
  C    -37.500900   21.345600   25.950500
  H    -36.857500   22.140500   25.538100
  H    -36.884200   20.554800   25.570200
  C    -37.659900   21.296600   27.489400
  H    -37.208600   22.185400   27.921700
  H    -36.985000   20.515100   27.912100
  H    -38.609100   20.971700   27.926200
  H    -44.488200   19.390100   23.617400
  H    -39.815300   25.793500   26.279600

 Total Charge           Charge          ....    0
 Multiplicity           Mult            ....    1
 Number of Electrons    NEL             ....  134
 Basis Dimension        Dim             ....  322

ORBITAL ENERGIES
----------------

  NO   OCC          E(Eh)            E(eV)
   0   2.0000     -88.967994     -2420.9422
   1   2.0000     -88.962252     -2420.7859
   2   2.0000     -10.328194      -281.0444
   3   2.0000     -10.318304      -280.7753
   4   2.0000     -10.317126      -280.7433
   5   2.0000     -10.308601      -280.5113
   6   2.0000     -10.304388      -280.3966
   7   2.0000     -10.302374      -280.3419
   8   2.0000     -10.298070      -280.2247
   9   2.0000     -10.292085      -280.0619
  10   2.0000     -10.291592      -280.0485
  11   2.0000     -10.288676      -279.9691
  12   2.0000     -10.287989      -279.9504
  13   2.0000     -10.287697      -279.9425
  14   2.0000     -10.283350      -279.8242
  15   2.0000     -10.280818      -279.7553
  16   2.0000      -8.082025      -219.9231
  17   2.0000      -8.079061      -219.8424
  18   2.0000      -6.040526      -164.3711
  19   2.0000      -6.037209      -164.2808
  20   2.0000      -6.036620      -164.2648
  21   2.0000      -6.033162      -164.1707
  22   2.0000      -6.032861      -164.1625
  23   2.0000      -6.030211      -164.0904
  24   2.0000      -1.011076       -27.5128
  25   2.0000      -0.984196       -26.7813
  26   2.0000      -0.913070       -24.8459
  27   2.0000      -0.903020       -24.5724
  28   2.0000      -0.865753       -23.5583
  29   2.0000      -0.850448       -23.1419
  30   2.0000      -0.843861       -22.9626
  31   2.0000      -0.812723       -22.1153
  32   2.0000      -0.782773       -21.3003
  33   2.0000      -0.772319       -21.0159
  34   2.0000      -0.710634       -19.3373
  35   2.0000      -0.704039       -19.1579
  36   2.0000      -0.695886       -18.9360
  37   2.0000      -0.652934       -17.7673
  38   2.0000      -0.639562       -17.4034
  39   2.0000      -0.624435       -16.9917
  40   2.0000      -0.594419       -16.1750
  41   2.0000      -0.567600       -15.4452
  42   2.0000      -0.559144       -15.2151
  43   2.0000      -0.552735       -15.0407
  44   2.0000      -0.528070       -14.3695
  45   2.0000      -0.523665       -14.2496
  46   2.0000      -0.518318       -14.1042
  47   2.0000      -0.510648       -13.8954
  48   2.0000      -0.502163       -13.6646
  49   2.0000      -0.500299       -13.6138
  50   2.0000      -0.494456       -13.4548
  51   2.0000      -0.482274       -13.1233
  52   2.0000      -0.471520       -12.8307
  53   2.0000      -0.462678       -12.5901
  54   2.0000      -0.453864       -12.3503
  55   2.0000      -0.451887       -12.2965
  56   2.0000      -0.446905       -12.1609
  57   2.0000      -0.437658       -11.9093
  58   2.0000      -0.432059       -11.7569
  59   2.0000      -0.427538       -11.6339
  60   2.0000      -0.420674       -11.4471
  61   2.0000      -0.416375       -11.3301
  62   2.0000      -0.403716       -10.9857
  63   2.0000      -0.335868        -9.1394
  64   2.0000      -0.328877        -8.9492
  65   2.0000      -0.324704        -8.8357
  66   2.0000      -0.293943        -7.9986
  67   0.0000       0.038241         1.0406
  68   0.0000       0.066683         1.8145
  69   0.0000       0.111199         3.0259
  70   0.0000       0.123980         3.3737
  71   0.0000       0.132527         3.6062

MULLIKEN ATOMIC CHARGES
-----------------------
   0 S :    0.116941
   1 C :   -0.127741
   2 C :   -0.067276
   3 C :    0.005974
   4 C :   -0.154823
   5 H :    0.021517
   6 C :    0.064417
   7 H :    0.028766
   8 H :    0.048044
   9 C :   -0.103642
  10 H :    0.025943
  11 H :    0.024395
  12 C :   -0.033629
  13 H :    0.030759
  14 H :    0.042469
  15 H :    0.029560
  16 S :    0.129749
  17 C :   -0.098726
  18 C :   -0.054940
  19 C :   -0.010956
  20 C :   -0.174554
  21 H :    0.016574
  22 C :    0.076972
  23 H :    0.028980
  24 H :    0.033820
  25 C :   -0.079666
  26 H :    0.024309
  27 H :    0.015249
  28 C :   -0.041977
  29 H :    0.033570
  30 H :    0.022559
  31 H :    0.043823
  32 H :    0.039914
  33 H :    0.043628
Sum of atomic charges:    0.0000000

LOEWDIN ATOMIC CHARGES
----------------------
   0 S :    0.399938
   1 C :   -0.199860
   2 C :   -0.056743
   3 C :   -0.066190
   4 C :   -0.194171
   5 H :    0.030207
   6 C :   -0.038499
   7 H :    0.032092
   8 H :    0.049229
   9 C :   -0.044588
  10 H :    0.023003
  11 H :    0.024483
  12 C :   -0.060818
  13 H :    0.020089
  14 H :    0.038008
  15 H :    0.019853
  16 S :    0.451373
  17 C :   -0.201974
  18 C :   -0.076100
  19 C :   -0.052113
  20 C :   -0.225326
  21 H :    0.034790
  22 C :   -0.028770
  23 H :    0.031853
  24 H :    0.032031
  25 C :   -0.049150
  26 H :    0.026455
  27 H :    0.022193
  28 C :   -0.075843
  29 H :    0.027275
  30 H :    0.031750
  31 H :    0.030197
  32 H :    0.022933
  33 H :    0.022393

  Mayer bond orders larger than 0.100000
B(  0-S ,  1-C ) :   1.1316 B(  0-S ,  4-C ) :   1.1565 B(  1-C ,  2-C ) :   1.5853
B(  1-C , 32-H ) :   0.9715 B(  2-C ,  3-C ) :   1.2394 B(  2-C ,  6-C ) :   1.0267
B(  3-C ,  4-C ) :   1.5878 B(  3-C ,  5-H ) :   0.9848 B(  4-C , 20-C ) :   1.0174
B(  6-C ,  7-H ) :   0.9434 B(  6-C ,  8-H ) :   0.9303 B(  6-C ,  9-C ) :   1.0563
B(  9-C , 10-H ) :   0.9552 B(  9-C , 11-H ) :   0.9525 B(  9-C , 12-C ) :   1.0786
B( 12-C , 13-H ) :   0.9762 B( 12-C , 14-H ) :   0.9739 B( 12-C , 15-H ) :   0.9782
B( 16-S , 17-C ) :   1.1989 B( 16-S , 20-C ) :   1.1580 B( 17-C , 18-C ) :   1.5853
B( 17-C , 33-H ) :   0.9661 B( 18-C , 19-C ) :   1.2278 B( 18-C , 21-H ) :   1.0009
B( 19-C , 20-C ) :   1.5879 B( 19-C , 22-C ) :   1.0274 B( 22-C , 23-H ) :   0.9208
B( 22-C , 24-H ) :   0.9391 B( 22-C , 25-C ) :   1.0994 B( 25-C , 26-H ) :   0.9476
B( 25-C , 27-H ) :   0.9565 B( 25-C , 28-C ) :   1.0456 B( 28-C , 29-H ) :   0.9773
B( 28-C , 30-H ) :   0.9748 B( 28-C , 31-H ) :   0.9810

Dispersion correction           -0.014447376
FINAL SINGLE POINT ENERGY     -1339.862847673176

DIPOLE MOMENT
-------------
                                X             Y             Z
Electronic contribution:    -13.53620      23.10683     -15.92857
Nuclear contribution   :     13.89427     -23.54555      16.40569
                        -----------------------------------------
Total Dipole Moment    :      0.35806      -0.43872       0.47712
                        -----------------------------------------
Magnitude (a.u.)       :      0.74049
Magnitude (Debye)      :      1.88218

Rotational constants in cm-1:     0.016759     0.009409     0.006762
Rotational constants in MHz :   502.432254   282.072455   202.734262

                             ****ORCA TERMINATED NORMALLY****
TOTAL RUN TIME: 0 days 0 hours 0 minutes 21 seconds 814 msec
