                         Program Version 4.2.1 -  RELEASE  -
|  1> ! wB97X-D3 SP def2-SVP
|  2> %pal
|  3> nprocs 24
|  4> end
|  5>
|  6> * xyz 0 1
|  7> S 	 -66.6353 	 10.6379 	 -74.2454
|  8> C 	 -65.829 	 11.7608 	 -75.323
|  9> C 	 -65.7272 	 12.98 	 -74.7027
| 10> C 	 -66.4288 	 13.05 	 -73.4647
| 11> C 	 -66.9603 	 11.8304 	 -73.0286
| 12> H 	 -66.4638 	 13.8113 	 -72.676
| 13> C 	 -64.9476 	 14.1546 	 -75.282
| 14> H 	 -64.009 	 13.8457 	 -75.7447
| 15> H 	 -64.6 	 14.8012 	 -74.4703
| 16> C 	 -65.6995 	 14.9825 	 -76.2441
| 17> H 	 -66.7222 	 15.18 	 -75.8435
| 18> H 	 -65.2172 	 15.9481 	 -76.4563
| 19> C 	 -65.8737 	 14.2589 	 -77.6609
| 20> H 	 -66.247 	 15.0377 	 -78.325
| 21> H 	 -65.0105 	 13.8935 	 -78.1168
| 22> H 	 -66.5129 	 13.4058 	 -77.7125
| 23> S 	 -66.6513 	 11.1846 	 -70.3838
| 24> C 	 -67.9783 	 10.753 	 -69.4065
| 25> C 	 -69.1524 	 11.1676 	 -69.942
| 26> C 	 -68.9927 	 11.5544 	 -71.3302
| 27> C 	 -67.6761 	 11.4943 	 -71.778
| 28> H 	 -70.0907 	 11.116 	 -69.3956
| 29> C 	 -70.1733 	 12.0868 	 -72.1013
| 30> H 	 -70.2381 	 11.2805 	 -72.8956
| 31> H 	 -69.8658 	 13.0418 	 -72.472
| 32> C 	 -71.5876 	 12.1201 	 -71.4963
| 33> H 	 -71.7071 	 12.602 	 -70.5153
| 34> H 	 -71.7157 	 11.081 	 -71.1618
| 35> C 	 -72.7469 	 12.524 	 -72.4208
| 36> H 	 -72.7772 	 13.6232 	 -72.5049
| 37> H 	 -73.7352 	 12.1123 	 -72.1055
| 38> H 	 -72.6679 	 12.1945 	 -73.4229
| 39> H 	 -65.4688 	 11.5462 	 -76.3602
| 40> H 	 -67.9626 	 10.221 	 -68.4324
| 41> *
| 42>
| 43>                          ****END OF INPUT****

CARTESIAN COORDINATES (ANGSTROEM)
---------------------------------
  S    -66.635300   10.637900  -74.245400
  C    -65.829000   11.760800  -75.323000
  C    -65.727200   12.980000  -74.702700
  C    -66.428800   13.050000  -73.464700
  C    -66.960300   11.830400  -73.028600
  H    -66.463800   13.811300  -72.676000
  C    -64.947600   14.154600  -75.282000
  H    -64.009000   13.845700  -75.744700
  H    -64.600000   14.801200  -74.470300
  C    -65.699500   14.982500  -76.244100
  H    -66.722200   15.180000  -75.843500
  H    -65.217200   15.948100  -76.456300
  C    -65.873700   14.258900  -77.660900
  H    -66.247000   15.037700  -78.325000
  H    -65.010500   13.893500  -78.116800
  H    -66.512900   13.405800  -77.712500
  S    -66.651300   11.184600  -70.383800
  C    -67.978300   10.753000  -69.406500
  C    -69.152400   11.167600  -69.942000
  C    -68.992700   11.554400  -71.330200
  C    -67.676100   11.494300  -71.778000
  H    -70.090700   11.116000  -69.395600
  C    -70.173300   12.086800  -72.101300
  H    -70.238100   11.280500  -72.895600
  H    -69.865800   13.041800  -72.472000
  C    -71.587600   12.120100  -71.496300
  H    -71.707100   12.602000  -70.515300
  H    -71.715700   11.081000  -71.161800
  C    -72.746900   12.524000  -72.420800
  H    -72.777200   13.623200  -72.504900
  H    -73.735200   12.112300  -72.105500
  H    -72.667900   12.194500  -73.422900
  H    -65.468800   11.546200  -76.360200
  H    -67.962600   10.221000  -68.432400

 Total Charge           Charge          ....    0
 Multiplicity           Mult            ....    1
 Number of Electrons    NEL             ....  134
 Basis Dimension        Dim             ....  322

ORBITAL ENERGIES
----------------

  NO   OCC          E(Eh)            E(eV)
   0   2.0000     -88.964121     -2420.8368
   1   2.0000     -88.961724     -2420.7716
   2   2.0000     -10.331328      -281.1297
   3   2.0000     -10.326993      -281.0118
   4   2.0000     -10.317994      -280.7669
   5   2.0000     -10.314470      -280.6710
   6   2.0000     -10.309003      -280.5222
   7   2.0000     -10.301977      -280.3310
   8   2.0000     -10.297023      -280.1963
   9   2.0000     -10.293498      -280.1003
  10   2.0000     -10.291161      -280.0367
  11   2.0000     -10.290586      -280.0211
  12   2.0000     -10.290384      -280.0156
  13   2.0000     -10.286960      -279.9224
  14   2.0000     -10.281741      -279.7804
  15   2.0000     -10.270871      -279.4846
  16   2.0000      -8.078965      -219.8398
  17   2.0000      -8.077420      -219.7978
  18   2.0000      -6.037416      -164.2864
  19   2.0000      -6.035970      -164.2471
  20   2.0000      -6.033218      -164.1722
  21   2.0000      -6.031861      -164.1353
  22   2.0000      -6.029992      -164.0844
  23   2.0000      -6.027998      -164.0302
  24   2.0000      -1.008271       -27.4365
  25   2.0000      -0.989151       -26.9162
  26   2.0000      -0.913528       -24.8584
  27   2.0000      -0.908513       -24.7219
  28   2.0000      -0.867971       -23.6187
  29   2.0000      -0.849693       -23.1213
  30   2.0000      -0.841206       -22.8904
  31   2.0000      -0.814477       -22.1631
  32   2.0000      -0.787879       -21.4393
  33   2.0000      -0.775296       -21.0969
  34   2.0000      -0.711391       -19.3579
  35   2.0000      -0.700931       -19.0733
  36   2.0000      -0.691506       -18.8168
  37   2.0000      -0.650985       -17.7142
  38   2.0000      -0.643107       -17.4998
  39   2.0000      -0.613694       -16.6995
  40   2.0000      -0.595315       -16.1994
  41   2.0000      -0.577989       -15.7279
  42   2.0000      -0.570545       -15.5253
  43   2.0000      -0.545656       -14.8481
  44   2.0000      -0.536596       -14.6015
  45   2.0000      -0.522800       -14.2261
  46   2.0000      -0.518176       -14.1003
  47   2.0000      -0.512363       -13.9421
  48   2.0000      -0.506921       -13.7940
  49   2.0000      -0.501053       -13.6343
  50   2.0000      -0.485421       -13.2090
  51   2.0000      -0.479524       -13.0485
  52   2.0000      -0.476737       -12.9727
  53   2.0000      -0.473599       -12.8873
  54   2.0000      -0.464415       -12.6374
  55   2.0000      -0.451481       -12.2854
  56   2.0000      -0.444629       -12.0990
  57   2.0000      -0.432996       -11.7824
  58   2.0000      -0.425539       -11.5795
  59   2.0000      -0.419109       -11.4045
  60   2.0000      -0.416786       -11.3413
  61   2.0000      -0.412849       -11.2342
  62   2.0000      -0.407673       -11.0934
  63   2.0000      -0.332539        -9.0488
  64   2.0000      -0.327783        -8.9194
  65   2.0000      -0.320212        -8.7134
  66   2.0000      -0.313056        -8.5187
  67   0.0000       0.044732         1.2172
  68   0.0000       0.049874         1.3571
  69   0.0000       0.109677         2.9845
  70   0.0000       0.124018         3.3747
  71   0.0000       0.141391         3.8474

MULLIKEN ATOMIC CHARGES
-----------------------
   0 S :    0.117717
   1 C :   -0.139059
   2 C :   -0.086610
   3 C :    0.051582
   4 C :   -0.192748
   5 H :    0.017598
   6 C :    0.085052
   7 H :    0.021321
   8 H :    0.019502
   9 C :   -0.068134
  10 H :    0.035846
  11 H :    0.035695
  12 C :   -0.053882
  13 H :    0.030890
  14 H :    0.006271
  15 H :    0.030199
  16 S :    0.115549
  17 C :   -0.080313
  18 C :   -0.054895
  19 C :   -0.045398
  20 C :   -0.188132
  21 H :    0.022498
  22 C :    0.083879
  23 H :    0.048784
  24 H :    0.035735
  25 C :   -0.106365
  26 H :    0.030333
  27 H :    0.018285
  28 C :   -0.019537
  29 H :    0.036394
  30 H :    0.038905
  31 H :    0.016827
  32 H :    0.069293
  33 H :    0.066917
Sum of atomic charges:    0.0000000

LOEWDIN ATOMIC CHARGES
----------------------
   0 S :    0.419214
   1 C :   -0.201773
   2 C :   -0.066554
   3 C :   -0.067600
   4 C :   -0.208795
   5 H :    0.035389
   6 C :   -0.037695
   7 H :    0.029122
   8 H :    0.031795
   9 C :   -0.034529
  10 H :    0.030024
  11 H :    0.026442
  12 C :   -0.067903
  13 H :    0.028751
  14 H :    0.012293
  15 H :    0.019814
  16 S :    0.422519
  17 C :   -0.196410
  18 C :   -0.085477
  19 C :   -0.043698
  20 C :   -0.216737
  21 H :    0.032741
  22 C :   -0.034486
  23 H :    0.050977
  24 H :    0.027879
  25 C :   -0.053784
  26 H :    0.022754
  27 H :    0.023334
  28 C :   -0.063113
  29 H :    0.029004
  30 H :    0.034578
  31 H :    0.019531
  32 H :    0.041816
  33 H :    0.040575

  Mayer bond orders larger than 0.100000
B(  0-S ,  1-C ) :   1.1520 B(  0-S ,  4-C ) :   1.1708 B(  1-C ,  2-C ) :   1.5967
B(  1-C ,  4-C ) :   0.1044 B(  1-C , 32-H ) :   0.9617 B(  2-C ,  3-C ) :   1.2447
B(  2-C ,  6-C ) :   1.0182 B(  3-C ,  4-C ) :   1.5790 B(  3-C ,  5-H ) :   0.9905
B(  4-C , 20-C ) :   1.0061 B(  6-C ,  7-H ) :   0.9434 B(  6-C ,  8-H ) :   0.9353
B(  6-C ,  9-C ) :   1.0871 B(  9-C , 10-H ) :   0.9520 B(  9-C , 11-H ) :   0.9564
B(  9-C , 12-C ) :   1.0679 B( 12-C , 13-H ) :   0.9758 B( 12-C , 14-H ) :   0.9762
B( 12-C , 15-H ) :   0.9750 B( 16-S , 17-C ) :   1.1770 B( 16-S , 20-C ) :   1.1347
B( 17-C , 18-C ) :   1.5955 B( 17-C , 33-H ) :   0.9560 B( 18-C , 19-C ) :   1.2494
B( 18-C , 21-H ) :   0.9869 B( 19-C , 20-C ) :   1.6067 B( 19-C , 22-C ) :   1.0193
B( 22-C , 23-H ) :   0.9258 B( 22-C , 24-H ) :   0.9371 B( 22-C , 25-C ) :   1.0809
B( 25-C , 26-H ) :   0.9502 B( 25-C , 27-H ) :   0.9468 B( 25-C , 28-C ) :   1.0799
B( 28-C , 29-H ) :   0.9749 B( 28-C , 30-H ) :   0.9736 B( 28-C , 31-H ) :   0.9739

Dispersion correction           -0.013785215
FINAL SINGLE POINT ENERGY     -1339.862950226168

DIPOLE MOMENT
-------------
                                X             Y             Z
Electronic contribution:     13.51965     -15.26884      13.88645
Nuclear contribution   :    -13.82532      15.64588     -13.95078
                        -----------------------------------------
Total Dipole Moment    :     -0.30567       0.37704      -0.06434
                        -----------------------------------------
Magnitude (a.u.)       :      0.48963
Magnitude (Debye)      :      1.24454

Rotational constants in cm-1:     0.018946     0.007564     0.006162
Rotational constants in MHz :   567.997736   226.773110   184.722884

                             ****ORCA TERMINATED NORMALLY****
TOTAL RUN TIME: 0 days 0 hours 0 minutes 20 seconds 897 msec
