                         Program Version 4.2.1 -  RELEASE  -
|  1> ! wB97X-D3 SP def2-SVP
|  2> %pal
|  3> nprocs 24
|  4> end
|  5>
|  6> * xyz 0 1
|  7> S 	 -107.642 	 48.5704 	 -4.76224
|  8> C 	 -108.112 	 50.2325 	 -4.73732
|  9> C 	 -107.039 	 51.1238 	 -4.68435
| 10> C 	 -105.787 	 50.4007 	 -4.91222
| 11> C 	 -105.939 	 49.0258 	 -5.02934
| 12> H 	 -104.821 	 50.855 	 -5.07286
| 13> C 	 -107.224 	 52.597 	 -4.72272
| 14> H 	 -106.487 	 53.0546 	 -4.0306
| 15> H 	 -108.136 	 52.7925 	 -4.18716
| 16> C 	 -107.146 	 53.2807 	 -6.13238
| 17> H 	 -107.351 	 54.3442 	 -5.9609
| 18> H 	 -106.081 	 53.2675 	 -6.50974
| 19> C 	 -108.111 	 52.6781 	 -7.23477
| 20> H 	 -109.149 	 52.7147 	 -6.94186
| 21> H 	 -108.092 	 53.1986 	 -8.19668
| 22> H 	 -107.95 	 51.5867 	 -7.27401
| 23> S 	 -104.971 	 46.5749 	 -4.22238
| 24> C 	 -103.521 	 45.9104 	 -4.99853
| 25> C 	 -103.152 	 46.671 	 -6.09317
| 26> C 	 -103.931 	 47.8155 	 -6.19418
| 27> C 	 -104.919 	 47.9822 	 -5.26052
| 28> H 	 -102.358 	 46.3175 	 -6.79735
| 29> C 	 -103.705 	 48.7792 	 -7.35147
| 30> H 	 -102.689 	 48.9296 	 -7.49902
| 31> H 	 -104.088 	 49.7586 	 -7.03996
| 32> C 	 -104.257 	 48.3108 	 -8.73527
| 33> H 	 -104.104 	 47.2786 	 -8.93056
| 34> H 	 -103.835 	 48.8387 	 -9.58372
| 35> C 	 -105.782 	 48.3546 	 -8.74764
| 36> H 	 -106.219 	 47.6561 	 -8.06567
| 37> H 	 -106.21 	 47.9869 	 -9.7036
| 38> H 	 -106.121 	 49.374 	 -8.59451
| 39> H 	 -109.13 	 50.6655 	 -4.92794
| 40> H 	 -103.044 	 44.9431 	 -4.87432
| 41> *
| 42>
| 43>                          ****END OF INPUT****

CARTESIAN COORDINATES (ANGSTROEM)
---------------------------------
  S    -107.642000   48.570400   -4.762240
  C    -108.112000   50.232500   -4.737320
  C    -107.039000   51.123800   -4.684350
  C    -105.787000   50.400700   -4.912220
  C    -105.939000   49.025800   -5.029340
  H    -104.821000   50.855000   -5.072860
  C    -107.224000   52.597000   -4.722720
  H    -106.487000   53.054600   -4.030600
  H    -108.136000   52.792500   -4.187160
  C    -107.146000   53.280700   -6.132380
  H    -107.351000   54.344200   -5.960900
  H    -106.081000   53.267500   -6.509740
  C    -108.111000   52.678100   -7.234770
  H    -109.149000   52.714700   -6.941860
  H    -108.092000   53.198600   -8.196680
  H    -107.950000   51.586700   -7.274010
  S    -104.971000   46.574900   -4.222380
  C    -103.521000   45.910400   -4.998530
  C    -103.152000   46.671000   -6.093170
  C    -103.931000   47.815500   -6.194180
  C    -104.919000   47.982200   -5.260520
  H    -102.358000   46.317500   -6.797350
  C    -103.705000   48.779200   -7.351470
  H    -102.689000   48.929600   -7.499020
  H    -104.088000   49.758600   -7.039960
  C    -104.257000   48.310800   -8.735270
  H    -104.104000   47.278600   -8.930560
  H    -103.835000   48.838700   -9.583720
  C    -105.782000   48.354600   -8.747640
  H    -106.219000   47.656100   -8.065670
  H    -106.210000   47.986900   -9.703600
  H    -106.121000   49.374000   -8.594510
  H    -109.130000   50.665500   -4.927940
  H    -103.044000   44.943100   -4.874320

 Total Charge           Charge          ....    0
 Multiplicity           Mult            ....    1
 Number of Electrons    NEL             ....  134
 Basis Dimension        Dim             ....  322

ORBITAL ENERGIES
----------------

  NO   OCC          E(Eh)            E(eV)
   0   2.0000     -88.969542     -2420.9843
   1   2.0000     -88.967527     -2420.9295
   2   2.0000     -10.337144      -281.2880
   3   2.0000     -10.328024      -281.0398
   4   2.0000     -10.318833      -280.7897
   5   2.0000     -10.317843      -280.7628
   6   2.0000     -10.304288      -280.3939
   7   2.0000     -10.301136      -280.3082
   8   2.0000     -10.301096      -280.3071
   9   2.0000     -10.297431      -280.2073
  10   2.0000     -10.295819      -280.1635
  11   2.0000     -10.294311      -280.1225
  12   2.0000     -10.284288      -279.8497
  13   2.0000     -10.282265      -279.7947
  14   2.0000     -10.280147      -279.7370
  15   2.0000     -10.265872      -279.3486
  16   2.0000      -8.083933      -219.9750
  17   2.0000      -8.081809      -219.9172
  18   2.0000      -6.042538      -164.4258
  19   2.0000      -6.040395      -164.3675
  20   2.0000      -6.038549      -164.3173
  21   2.0000      -6.036396      -164.2587
  22   2.0000      -6.034540      -164.2082
  23   2.0000      -6.032487      -164.1523
  24   2.0000      -1.007271       -27.4092
  25   2.0000      -0.984787       -26.7974
  26   2.0000      -0.907962       -24.7069
  27   2.0000      -0.904842       -24.6220
  28   2.0000      -0.866583       -23.5809
  29   2.0000      -0.849433       -23.1142
  30   2.0000      -0.842010       -22.9123
  31   2.0000      -0.816440       -22.2165
  32   2.0000      -0.782835       -21.3020
  33   2.0000      -0.772378       -21.0175
  34   2.0000      -0.711207       -19.3529
  35   2.0000      -0.696373       -18.9493
  36   2.0000      -0.694086       -18.8870
  37   2.0000      -0.661779       -18.0079
  38   2.0000      -0.637842       -17.3566
  39   2.0000      -0.619002       -16.8439
  40   2.0000      -0.594462       -16.1761
  41   2.0000      -0.569177       -15.4881
  42   2.0000      -0.548599       -14.9281
  43   2.0000      -0.544699       -14.8220
  44   2.0000      -0.539618       -14.6838
  45   2.0000      -0.537526       -14.6268
  46   2.0000      -0.520293       -14.1579
  47   2.0000      -0.507972       -13.8226
  48   2.0000      -0.505024       -13.7424
  49   2.0000      -0.494332       -13.4515
  50   2.0000      -0.488686       -13.2978
  51   2.0000      -0.471351       -12.8261
  52   2.0000      -0.470823       -12.8118
  53   2.0000      -0.464950       -12.6519
  54   2.0000      -0.456795       -12.4300
  55   2.0000      -0.448185       -12.1957
  56   2.0000      -0.442885       -12.0515
  57   2.0000      -0.441023       -12.0009
  58   2.0000      -0.429679       -11.6922
  59   2.0000      -0.423104       -11.5133
  60   2.0000      -0.421062       -11.4577
  61   2.0000      -0.418031       -11.3752
  62   2.0000      -0.411367       -11.1939
  63   2.0000      -0.352067        -9.5802
  64   2.0000      -0.334457        -9.1010
  65   2.0000      -0.329814        -8.9747
  66   2.0000      -0.289294        -7.8721
  67   0.0000       0.029399         0.8000
  68   0.0000       0.060555         1.6478
  69   0.0000       0.106686         2.9031
  70   0.0000       0.116619         3.1734
  71   0.0000       0.129658         3.5282

MULLIKEN ATOMIC CHARGES
-----------------------
   0 S :    0.116724
   1 C :   -0.126030
   2 C :   -0.125844
   3 C :    0.041844
   4 C :   -0.150367
   5 H :    0.018017
   6 C :    0.057645
   7 H :    0.033568
   8 H :    0.018450
   9 C :   -0.071416
  10 H :    0.035815
  11 H :    0.039579
  12 C :   -0.072387
  13 H :    0.016514
  14 H :    0.047206
  15 H :    0.057187
  16 S :    0.098533
  17 C :   -0.084811
  18 C :   -0.062031
  19 C :   -0.055548
  20 C :   -0.141783
  21 H :    0.041327
  22 C :    0.119936
  23 H :    0.001632
  24 H :    0.002724
  25 C :   -0.044883
  26 H :    0.012157
  27 H :    0.028637
  28 C :   -0.060955
  29 H :    0.032937
  30 H :    0.020801
  31 H :    0.032103
  32 H :    0.067276
  33 H :    0.055444
Sum of atomic charges:    0.0000000

LOEWDIN ATOMIC CHARGES
----------------------
   0 S :    0.398656
   1 C :   -0.211856
   2 C :   -0.066495
   3 C :   -0.056779
   4 C :   -0.178538
   5 H :    0.029776
   6 C :   -0.041134
   7 H :    0.039186
   8 H :    0.029005
   9 C :   -0.037878
  10 H :    0.024932
  11 H :    0.028724
  12 C :   -0.074795
  13 H :    0.020147
  14 H :    0.030745
  15 H :    0.031911
  16 S :    0.397907
  17 C :   -0.180070
  18 C :   -0.073920
  19 C :   -0.064522
  20 C :   -0.197905
  21 H :    0.044267
  22 C :   -0.021897
  23 H :    0.018952
  24 H :    0.026596
  25 C :   -0.034188
  26 H :    0.019893
  27 H :    0.023125
  28 C :   -0.064048
  29 H :    0.022234
  30 H :    0.024910
  31 H :    0.020142
  32 H :    0.040520
  33 H :    0.032398

  Mayer bond orders larger than 0.100000
B(  0-S ,  1-C ) :   1.1404 B(  0-S ,  4-C ) :   1.1296 B(  1-C ,  2-C ) :   1.6215
B(  1-C , 32-H ) :   0.9562 B(  2-C ,  3-C ) :   1.2047 B(  2-C ,  6-C ) :   1.0492
B(  3-C ,  4-C ) :   1.6055 B(  3-C ,  5-H ) :   0.9909 B(  4-C , 20-C ) :   1.0250
B(  6-C ,  7-H ) :   0.9326 B(  6-C ,  8-H ) :   0.9375 B(  6-C ,  9-C ) :   1.0559
B(  9-C , 10-H ) :   0.9571 B(  9-C , 11-H ) :   0.9591 B(  9-C , 12-C ) :   1.0623
B( 12-C , 13-H ) :   0.9739 B( 12-C , 14-H ) :   0.9757 B( 12-C , 15-H ) :   0.9726
B( 16-S , 17-C ) :   1.1521 B( 16-S , 20-C ) :   1.1291 B( 17-C , 18-C ) :   1.6086
B( 17-C , 20-C ) :   0.1031 B( 17-C , 33-H ) :   0.9626 B( 18-C , 19-C ) :   1.2628
B( 18-C , 21-H ) :   0.9821 B( 19-C , 20-C ) :   1.6050 B( 19-C , 22-C ) :   1.0404
B( 22-C , 23-H ) :   0.9264 B( 22-C , 24-H ) :   0.9349 B( 22-C , 25-C ) :   1.0669
B( 25-C , 26-H ) :   0.9572 B( 25-C , 27-H ) :   0.9581 B( 25-C , 28-C ) :   1.0753
B( 28-C , 29-H ) :   0.9759 B( 28-C , 30-H ) :   0.9714 B( 28-C , 31-H ) :   0.9783

Dispersion correction           -0.016037013
FINAL SINGLE POINT ENERGY     -1339.878233180795

DIPOLE MOMENT
-------------
                                X             Y             Z
Electronic contribution:      1.33255     -18.78444      19.48782
Nuclear contribution   :     -1.14180      19.22060     -20.00381
                        -----------------------------------------
Total Dipole Moment    :      0.19076       0.43616      -0.51599
                        -----------------------------------------
Magnitude (a.u.)       :      0.70205
Magnitude (Debye)      :      1.78446

Rotational constants in cm-1:     0.021350     0.009307     0.007595
Rotational constants in MHz :   640.063209   279.002525   227.690537

                             ****ORCA TERMINATED NORMALLY****
TOTAL RUN TIME: 0 days 0 hours 0 minutes 22 seconds 936 msec
