                         Program Version 4.2.1 -  RELEASE  -
|  1> ! wB97X-D3 SP def2-SVP
|  2> %pal
|  3> nprocs 24
|  4> end
|  5>
|  6> * xyz 0 1
|  7> S 	 -44.5882 	 27.9702 	 28.6521
|  8> C 	 -45.4866 	 26.6125 	 28.0414
|  9> C 	 -46.2721 	 25.9011 	 28.9561
| 10> C 	 -45.9951 	 26.4575 	 30.2305
| 11> C 	 -45.2357 	 27.6185 	 30.2559
| 12> H 	 -46.4141 	 26.1594 	 31.1544
| 13> C 	 -47.1368 	 24.6579 	 28.7789
| 14> H 	 -47.5193 	 24.8439 	 27.8461
| 15> H 	 -48.0287 	 24.7208 	 29.4855
| 16> C 	 -46.3017 	 23.3693 	 28.7952
| 17> H 	 -45.3264 	 23.4104 	 28.2497
| 18> H 	 -46.0504 	 23.1072 	 29.8467
| 19> C 	 -47.0505 	 22.14 	 28.0465
| 20> H 	 -46.2683 	 21.4047 	 27.7948
| 21> H 	 -47.8725 	 21.8508 	 28.8176
| 22> H 	 -47.5916 	 22.5423 	 27.1988
| 23> S 	 -45.66 	 29.8623 	 31.6731
| 24> C 	 -44.8948 	 30.1596 	 33.1113
| 25> C 	 -44.2171 	 29.0765 	 33.5438
| 26> C 	 -44.0897 	 28.0088 	 32.5349
| 27> C 	 -44.8097 	 28.3712 	 31.4206
| 28> H 	 -43.7548 	 29.1069 	 34.5019
| 29> C 	 -43.2905 	 26.8116 	 32.6741
| 30> H 	 -42.369 	 27.0487 	 33.3074
| 31> H 	 -43.0147 	 26.3763 	 31.6902
| 32> C 	 -44.0841 	 25.6853 	 33.3277
| 33> H 	 -45.0768 	 25.4939 	 32.8988
| 34> H 	 -44.4171 	 26.0168 	 34.3813
| 35> C 	 -43.2257 	 24.3161 	 33.305
| 36> H 	 -42.2734 	 24.4054 	 33.8646
| 37> H 	 -43.1375 	 23.9571 	 32.2975
| 38> H 	 -43.6305 	 23.4273 	 33.8488
| 39> H 	 -45.4077 	 26.2258 	 27.0482
| 40> H 	 -45.1771 	 30.9773 	 33.7665
| 41> *
| 42>
| 43>                          ****END OF INPUT****

CARTESIAN COORDINATES (ANGSTROEM)
---------------------------------
  S    -44.588200   27.970200   28.652100
  C    -45.486600   26.612500   28.041400
  C    -46.272100   25.901100   28.956100
  C    -45.995100   26.457500   30.230500
  C    -45.235700   27.618500   30.255900
  H    -46.414100   26.159400   31.154400
  C    -47.136800   24.657900   28.778900
  H    -47.519300   24.843900   27.846100
  H    -48.028700   24.720800   29.485500
  C    -46.301700   23.369300   28.795200
  H    -45.326400   23.410400   28.249700
  H    -46.050400   23.107200   29.846700
  C    -47.050500   22.140000   28.046500
  H    -46.268300   21.404700   27.794800
  H    -47.872500   21.850800   28.817600
  H    -47.591600   22.542300   27.198800
  S    -45.660000   29.862300   31.673100
  C    -44.894800   30.159600   33.111300
  C    -44.217100   29.076500   33.543800
  C    -44.089700   28.008800   32.534900
  C    -44.809700   28.371200   31.420600
  H    -43.754800   29.106900   34.501900
  C    -43.290500   26.811600   32.674100
  H    -42.369000   27.048700   33.307400
  H    -43.014700   26.376300   31.690200
  C    -44.084100   25.685300   33.327700
  H    -45.076800   25.493900   32.898800
  H    -44.417100   26.016800   34.381300
  C    -43.225700   24.316100   33.305000
  H    -42.273400   24.405400   33.864600
  H    -43.137500   23.957100   32.297500
  H    -43.630500   23.427300   33.848800
  H    -45.407700   26.225800   27.048200
  H    -45.177100   30.977300   33.766500

 Total Charge           Charge          ....    0
 Multiplicity           Mult            ....    1
 Number of Electrons    NEL             ....  134
 Basis Dimension        Dim             ....  322

ORBITAL ENERGIES
----------------

  NO   OCC          E(Eh)            E(eV)
   0   2.0000     -88.969214     -2420.9754
   1   2.0000     -88.955576     -2420.6043
   2   2.0000     -10.323426      -280.9147
   3   2.0000     -10.316433      -280.7244
   4   2.0000     -10.312983      -280.6305
   5   2.0000     -10.304445      -280.3982
   6   2.0000     -10.301295      -280.3125
   7   2.0000     -10.300941      -280.3028
   8   2.0000     -10.299576      -280.2657
   9   2.0000     -10.298386      -280.2333
  10   2.0000     -10.298249      -280.2296
  11   2.0000     -10.293850      -280.1099
  12   2.0000     -10.293680      -280.1053
  13   2.0000     -10.288517      -279.9648
  14   2.0000     -10.287455      -279.9359
  15   2.0000     -10.285438      -279.8810
  16   2.0000      -8.083611      -219.9663
  17   2.0000      -8.073130      -219.6810
  18   2.0000      -6.041966      -164.4102
  19   2.0000      -6.038237      -164.3088
  20   2.0000      -6.034499      -164.2071
  21   2.0000      -6.031383      -164.1223
  22   2.0000      -6.027271      -164.0104
  23   2.0000      -6.023940      -163.9197
  24   2.0000      -1.013048       -27.5664
  25   2.0000      -0.987682       -26.8762
  26   2.0000      -0.913880       -24.8679
  27   2.0000      -0.909385       -24.7456
  28   2.0000      -0.867128       -23.5958
  29   2.0000      -0.847521       -23.0622
  30   2.0000      -0.842316       -22.9206
  31   2.0000      -0.811460       -22.0809
  32   2.0000      -0.782585       -21.2952
  33   2.0000      -0.770609       -20.9693
  34   2.0000      -0.705258       -19.1911
  35   2.0000      -0.700602       -19.0643
  36   2.0000      -0.692288       -18.8381
  37   2.0000      -0.660402       -17.9704
  38   2.0000      -0.643743       -17.5171
  39   2.0000      -0.619702       -16.8629
  40   2.0000      -0.601077       -16.3561
  41   2.0000      -0.571205       -15.5433
  42   2.0000      -0.560876       -15.2622
  43   2.0000      -0.549395       -14.9498
  44   2.0000      -0.535913       -14.5829
  45   2.0000      -0.518684       -14.1141
  46   2.0000      -0.514407       -13.9977
  47   2.0000      -0.512891       -13.9565
  48   2.0000      -0.504275       -13.7220
  49   2.0000      -0.491638       -13.3782
  50   2.0000      -0.488050       -13.2805
  51   2.0000      -0.474805       -12.9201
  52   2.0000      -0.468580       -12.7507
  53   2.0000      -0.467235       -12.7141
  54   2.0000      -0.460401       -12.5282
  55   2.0000      -0.451172       -12.2770
  56   2.0000      -0.447713       -12.1829
  57   2.0000      -0.441101       -12.0030
  58   2.0000      -0.431762       -11.7488
  59   2.0000      -0.427856       -11.6426
  60   2.0000      -0.423006       -11.5106
  61   2.0000      -0.411424       -11.1954
  62   2.0000      -0.406965       -11.0741
  63   2.0000      -0.337421        -9.1817
  64   2.0000      -0.330429        -8.9914
  65   2.0000      -0.320995        -8.7347
  66   2.0000      -0.301501        -8.2043
  67   0.0000       0.043136         1.1738
  68   0.0000       0.064507         1.7553
  69   0.0000       0.115669         3.1475
  70   0.0000       0.122721         3.3394
  71   0.0000       0.127618         3.4727

MULLIKEN ATOMIC CHARGES
-----------------------
   0 S :    0.133175
   1 C :   -0.108438
   2 C :   -0.121166
   3 C :    0.050017
   4 C :   -0.182834
   5 H :   -0.005137
   6 C :    0.125039
   7 H :   -0.003466
   8 H :    0.048668
   9 C :   -0.113352
  10 H :    0.042572
  11 H :    0.039442
  12 C :   -0.078727
  13 H :    0.057878
  14 H :    0.047327
  15 H :    0.036388
  16 S :    0.111521
  17 C :   -0.068100
  18 C :   -0.046314
  19 C :   -0.007772
  20 C :   -0.180412
  21 H :    0.004497
  22 C :    0.064301
  23 H :    0.044062
  24 H :    0.035361
  25 C :   -0.112279
  26 H :    0.026273
  27 H :    0.028212
  28 C :   -0.061979
  29 H :    0.037641
  30 H :    0.039825
  31 H :    0.030081
  32 H :    0.028668
  33 H :    0.059029
Sum of atomic charges:    0.0000000

LOEWDIN ATOMIC CHARGES
----------------------
   0 S :    0.413766
   1 C :   -0.195064
   2 C :   -0.061091
   3 C :   -0.051227
   4 C :   -0.205080
   5 H :    0.019873
   6 C :   -0.029358
   7 H :    0.018129
   8 H :    0.044621
   9 C :   -0.043273
  10 H :    0.028980
  11 H :    0.025609
  12 C :   -0.072303
  13 H :    0.031085
  14 H :    0.036634
  15 H :    0.020562
  16 S :    0.443634
  17 C :   -0.212699
  18 C :   -0.074885
  19 C :   -0.050696
  20 C :   -0.213172
  21 H :    0.023832
  22 C :   -0.040920
  23 H :    0.043710
  24 H :    0.038602
  25 C :   -0.041606
  26 H :    0.020891
  27 H :    0.026254
  28 C :   -0.077458
  29 H :    0.028933
  30 H :    0.023263
  31 H :    0.029278
  32 H :    0.018269
  33 H :    0.032906

  Mayer bond orders larger than 0.100000
B(  0-S ,  1-C ) :   1.1645 B(  0-S ,  4-C ) :   1.1389 B(  1-C ,  2-C ) :   1.6063
B(  1-C ,  4-C ) :   0.1039 B(  1-C , 32-H ) :   0.9622 B(  2-C ,  3-C ) :   1.2460
B(  2-C ,  6-C ) :   1.0129 B(  3-C ,  4-C ) :   1.5989 B(  3-C ,  5-H ) :   0.9924
B(  4-C , 20-C ) :   1.0001 B(  6-C ,  7-H ) :   0.9265 B(  6-C ,  8-H ) :   0.9401
B(  6-C ,  9-C ) :   1.0486 B(  9-C , 10-H ) :   0.9654 B(  9-C , 11-H ) :   0.9600
B(  9-C , 12-C ) :   1.0544 B( 12-C , 13-H ) :   0.9788 B( 12-C , 14-H ) :   0.9777
B( 12-C , 15-H ) :   0.9802 B( 16-S , 17-C ) :   1.1714 B( 16-S , 20-C ) :   1.1616
B( 17-C , 18-C ) :   1.6210 B( 17-C , 33-H ) :   0.9630 B( 18-C , 19-C ) :   1.2081
B( 18-C , 21-H ) :   0.9953 B( 19-C , 20-C ) :   1.6090 B( 19-C , 22-C ) :   1.0744
B( 22-C , 23-H ) :   0.9278 B( 22-C , 24-H ) :   0.9292 B( 22-C , 25-C ) :   1.0482
B( 25-C , 26-H ) :   0.9565 B( 25-C , 27-H ) :   0.9555 B( 25-C , 28-C ) :   1.0606
B( 28-C , 29-H ) :   0.9761 B( 28-C , 30-H ) :   0.9768 B( 28-C , 31-H ) :   0.9763

Dispersion correction           -0.014614885
FINAL SINGLE POINT ENERGY     -1339.855030475726

DIPOLE MOMENT
-------------
                                X             Y             Z
Electronic contribution:      0.58763      30.99685      -4.21199
Nuclear contribution   :     -0.66938     -31.65359       4.44546
                        -----------------------------------------
Total Dipole Moment    :     -0.08175      -0.65674       0.23347
                        -----------------------------------------
Magnitude (a.u.)       :      0.70178
Magnitude (Debye)      :      1.78379

Rotational constants in cm-1:     0.018917     0.008722     0.006743
Rotational constants in MHz :   567.131922   261.493629   202.150468

                             ****ORCA TERMINATED NORMALLY****
TOTAL RUN TIME: 0 days 0 hours 0 minutes 21 seconds 950 msec
