                         Program Version 4.2.1 -  RELEASE  -
|  1> ! wB97X-D3 SP def2-SVP
|  2> %pal
|  3> nprocs 24
|  4> end
|  5>
|  6> * xyz 0 1
|  7> S 	 -47.9663 	 3.77942 	 -23.7169
|  8> C 	 -47.0436 	 2.36305 	 -23.9932
|  9> C 	 -47.5424 	 1.2977 	 -23.273
| 10> C 	 -48.7272 	 1.66435 	 -22.5496
| 11> C 	 -49.0873 	 3.00595 	 -22.6415
| 12> H 	 -49.1968 	 0.994769 	 -21.9112
| 13> C 	 -46.8681 	 0.00227008 	 -23.0234
| 14> H 	 -47.573 	 -0.802885 	 -22.7757
| 15> H 	 -46.2967 	 0.0607762 	 -22.17
| 16> C 	 -46.0191 	 -0.597874 	 -24.1078
| 17> H 	 -46.56 	 -1.15799 	 -24.8526
| 18> H 	 -45.4129 	 0.165257 	 -24.5973
| 19> C 	 -45.0258 	 -1.67757 	 -23.4861
| 20> H 	 -43.9889 	 -1.28654 	 -23.5111
| 21> H 	 -45.3476 	 -1.99668 	 -22.4677
| 22> H 	 -44.886 	 -2.52363 	 -24.1663
| 23> S 	 -50.9423 	 4.94808 	 -22.9011
| 24> C 	 -52.2216 	 5.08482 	 -21.6671
| 25> C 	 -52.1294 	 4.08521 	 -20.678
| 26> C 	 -50.8786 	 3.43012 	 -20.7843
| 27> C 	 -50.181 	 3.70735 	 -21.9852
| 28> H 	 -52.9036 	 3.97034 	 -20.0139
| 29> C 	 -50.5334 	 2.39717 	 -19.7118
| 30> H 	 -50.3031 	 1.49025 	 -20.1722
| 31> H 	 -51.4482 	 2.29325 	 -19.1666
| 32> C 	 -49.5355 	 2.79629 	 -18.5118
| 33> H 	 -49.1374 	 1.90527 	 -17.9181
| 34> H 	 -50.0245 	 3.53352 	 -17.8538
| 35> C 	 -48.3443 	 3.55363 	 -19.1024
| 36> H 	 -47.4332 	 3.62397 	 -18.4779
| 37> H 	 -48.7014 	 4.60834 	 -19.3209
| 38> H 	 -47.9515 	 3.19466 	 -20.1217
| 39> H 	 -46.1981 	 2.19687 	 -24.66
| 40> H 	 -53.1195 	 5.66071 	 -21.6911
| 41> *
| 42>
| 43>                          ****END OF INPUT****

CARTESIAN COORDINATES (ANGSTROEM)
---------------------------------
  S    -47.966300    3.779420  -23.716900
  C    -47.043600    2.363050  -23.993200
  C    -47.542400    1.297700  -23.273000
  C    -48.727200    1.664350  -22.549600
  C    -49.087300    3.005950  -22.641500
  H    -49.196800    0.994769  -21.911200
  C    -46.868100    0.002270  -23.023400
  H    -47.573000   -0.802885  -22.775700
  H    -46.296700    0.060776  -22.170000
  C    -46.019100   -0.597874  -24.107800
  H    -46.560000   -1.157990  -24.852600
  H    -45.412900    0.165257  -24.597300
  C    -45.025800   -1.677570  -23.486100
  H    -43.988900   -1.286540  -23.511100
  H    -45.347600   -1.996680  -22.467700
  H    -44.886000   -2.523630  -24.166300
  S    -50.942300    4.948080  -22.901100
  C    -52.221600    5.084820  -21.667100
  C    -52.129400    4.085210  -20.678000
  C    -50.878600    3.430120  -20.784300
  C    -50.181000    3.707350  -21.985200
  H    -52.903600    3.970340  -20.013900
  C    -50.533400    2.397170  -19.711800
  H    -50.303100    1.490250  -20.172200
  H    -51.448200    2.293250  -19.166600
  C    -49.535500    2.796290  -18.511800
  H    -49.137400    1.905270  -17.918100
  H    -50.024500    3.533520  -17.853800
  C    -48.344300    3.553630  -19.102400
  H    -47.433200    3.623970  -18.477900
  H    -48.701400    4.608340  -19.320900
  H    -47.951500    3.194660  -20.121700
  H    -46.198100    2.196870  -24.660000
  H    -53.119500    5.660710  -21.691100

 Total Charge           Charge          ....    0
 Multiplicity           Mult            ....    1
 Number of Electrons    NEL             ....  134
 Basis Dimension        Dim             ....  322

ORBITAL ENERGIES
----------------

  NO   OCC          E(Eh)            E(eV)
   0   2.0000     -88.973644     -2421.0959
   1   2.0000     -88.967396     -2420.9259
   2   2.0000     -10.331617      -281.1376
   3   2.0000     -10.330700      -281.1126
   4   2.0000     -10.319903      -280.8188
   5   2.0000     -10.310861      -280.5728
   6   2.0000     -10.308176      -280.4997
   7   2.0000     -10.297539      -280.2103
   8   2.0000     -10.296770      -280.1894
   9   2.0000     -10.293924      -280.1119
  10   2.0000     -10.289488      -279.9912
  11   2.0000     -10.288102      -279.9535
  12   2.0000     -10.287563      -279.9388
  13   2.0000     -10.285963      -279.8953
  14   2.0000     -10.283813      -279.8368
  15   2.0000     -10.276210      -279.6299
  16   2.0000      -8.087908      -220.0832
  17   2.0000      -8.082723      -219.9421
  18   2.0000      -6.046340      -164.5293
  19   2.0000      -6.042443      -164.4232
  20   2.0000      -6.041318      -164.3926
  21   2.0000      -6.038815      -164.3245
  22   2.0000      -6.036967      -164.2742
  23   2.0000      -6.033548      -164.1812
  24   2.0000      -1.011092       -27.5132
  25   2.0000      -0.986988       -26.8573
  26   2.0000      -0.918747       -25.0004
  27   2.0000      -0.900859       -24.5136
  28   2.0000      -0.872534       -23.7429
  29   2.0000      -0.850256       -23.1366
  30   2.0000      -0.844855       -22.9897
  31   2.0000      -0.813065       -22.1246
  32   2.0000      -0.781233       -21.2584
  33   2.0000      -0.770156       -20.9570
  34   2.0000      -0.711956       -19.3733
  35   2.0000      -0.701136       -19.0789
  36   2.0000      -0.685072       -18.6417
  37   2.0000      -0.672525       -18.3003
  38   2.0000      -0.640698       -17.4343
  39   2.0000      -0.624368       -16.9899
  40   2.0000      -0.589202       -16.0330
  41   2.0000      -0.581770       -15.8308
  42   2.0000      -0.566627       -15.4187
  43   2.0000      -0.551747       -15.0138
  44   2.0000      -0.537511       -14.6264
  45   2.0000      -0.526120       -14.3165
  46   2.0000      -0.519957       -14.1488
  47   2.0000      -0.510775       -13.8989
  48   2.0000      -0.506185       -13.7740
  49   2.0000      -0.502609       -13.6767
  50   2.0000      -0.489223       -13.3124
  51   2.0000      -0.484258       -13.1773
  52   2.0000      -0.472083       -12.8460
  53   2.0000      -0.464620       -12.6430
  54   2.0000      -0.454657       -12.3719
  55   2.0000      -0.452268       -12.3068
  56   2.0000      -0.440673       -11.9913
  57   2.0000      -0.437774       -11.9124
  58   2.0000      -0.426092       -11.5946
  59   2.0000      -0.420548       -11.4437
  60   2.0000      -0.415313       -11.3012
  61   2.0000      -0.414670       -11.2838
  62   2.0000      -0.409957       -11.1555
  63   2.0000      -0.354973        -9.6593
  64   2.0000      -0.336446        -9.1552
  65   2.0000      -0.327396        -8.9089
  66   2.0000      -0.282879        -7.6975
  67   0.0000       0.019280         0.5246
  68   0.0000       0.078649         2.1401
  69   0.0000       0.098331         2.6757
  70   0.0000       0.113806         3.0968
  71   0.0000       0.139568         3.7979

MULLIKEN ATOMIC CHARGES
-----------------------
   0 S :    0.114752
   1 C :   -0.116836
   2 C :   -0.087510
   3 C :    0.042393
   4 C :   -0.125054
   5 H :   -0.034542
   6 C :    0.082516
   7 H :    0.022526
   8 H :    0.024525
   9 C :   -0.085338
  10 H :    0.037256
  11 H :    0.023747
  12 C :   -0.087851
  13 H :    0.036210
  14 H :    0.045424
  15 H :    0.029049
  16 S :    0.121674
  17 C :   -0.079696
  18 C :   -0.026022
  19 C :   -0.071917
  20 C :   -0.117810
  21 H :   -0.001093
  22 C :    0.099451
  23 H :    0.020182
  24 H :    0.007355
  25 C :   -0.066147
  26 H :    0.050229
  27 H :    0.036406
  28 C :   -0.120093
  29 H :    0.036586
  30 H :    0.045675
  31 H :    0.050027
  32 H :    0.048614
  33 H :    0.045312
Sum of atomic charges:    0.0000000

LOEWDIN ATOMIC CHARGES
----------------------
   0 S :    0.426435
   1 C :   -0.214952
   2 C :   -0.062456
   3 C :   -0.057287
   4 C :   -0.197742
   5 H :    0.013568
   6 C :   -0.034497
   7 H :    0.035525
   8 H :    0.025400
   9 C :   -0.034222
  10 H :    0.023463
  11 H :    0.018540
  12 C :   -0.072628
  13 H :    0.030009
  14 H :    0.027443
  15 H :    0.025290
  16 S :    0.421687
  17 C :   -0.176586
  18 C :   -0.051429
  19 C :   -0.052824
  20 C :   -0.207774
  21 H :    0.020804
  22 C :   -0.022208
  23 H :    0.017484
  24 H :    0.027987
  25 C :   -0.040193
  26 H :    0.033593
  27 H :    0.027181
  28 C :   -0.090525
  29 H :    0.022005
  30 H :    0.031300
  31 H :    0.031711
  32 H :    0.032120
  33 H :    0.023778

  Mayer bond orders larger than 0.100000
B(  0-S ,  1-C ) :   1.1413 B(  0-S ,  4-C ) :   1.1573 B(  1-C ,  2-C ) :   1.5962
B(  1-C , 32-H ) :   0.9625 B(  2-C ,  3-C ) :   1.2805 B(  2-C ,  6-C ) :   1.0219
B(  3-C ,  4-C ) :   1.5304 B(  3-C ,  5-H ) :   1.0079 B(  4-C , 20-C ) :   1.0659
B(  6-C ,  7-H ) :   0.9308 B(  6-C ,  8-H ) :   0.9377 B(  6-C ,  9-C ) :   1.0672
B(  9-C , 10-H ) :   0.9670 B(  9-C , 11-H ) :   0.9598 B(  9-C , 12-C ) :   1.0598
B( 12-C , 13-H ) :   0.9781 B( 12-C , 14-H ) :   0.9776 B( 12-C , 15-H ) :   0.9778
B( 16-S , 17-C ) :   1.1560 B( 16-S , 20-C ) :   1.1576 B( 17-C , 18-C ) :   1.6032
B( 17-C , 20-C ) :   0.1070 B( 17-C , 33-H ) :   0.9670 B( 18-C , 19-C ) :   1.2702
B( 18-C , 21-H ) :   0.9979 B( 19-C , 20-C ) :   1.5349 B( 19-C , 22-C ) :   1.0351
B( 22-C , 23-H ) :   0.9435 B( 22-C , 24-H ) :   0.9333 B( 22-C , 25-C ) :   1.0512
B( 25-C , 26-H ) :   0.9604 B( 25-C , 27-H ) :   0.9592 B( 25-C , 28-C ) :   1.0693
B( 28-C , 29-H ) :   0.9759 B( 28-C , 30-H ) :   0.9695 B( 28-C , 31-H ) :   0.9762

Dispersion correction           -0.014665677
FINAL SINGLE POINT ENERGY     -1339.850549328768

DIPOLE MOMENT
-------------
                                X             Y             Z
Electronic contribution:    -14.01749      21.01805     -12.19007
Nuclear contribution   :     13.98744     -21.60007      12.54733
                        -----------------------------------------
Total Dipole Moment    :     -0.03005      -0.58202       0.35726
                        -----------------------------------------
Magnitude (a.u.)       :      0.68358
Magnitude (Debye)      :      1.73753

Rotational constants in cm-1:     0.022681     0.007917     0.006554
Rotational constants in MHz :   679.953456   237.348583   196.488668

                             ****ORCA TERMINATED NORMALLY****
TOTAL RUN TIME: 0 days 0 hours 0 minutes 21 seconds 995 msec
