                         Program Version 4.2.1 -  RELEASE  -
|  1> ! wB97X-D3 SP def2-SVP
|  2> %pal
|  3> nprocs 24
|  4> end
|  5>
|  6> * xyz 0 1
|  7> S 	 47.6112 	 -18.3296 	 -106.647
|  8> C 	 45.9845 	 -18.0205 	 -107.151
|  9> C 	 45.6128 	 -16.6879 	 -107.006
| 10> C 	 46.7218 	 -15.9189 	 -106.552
| 11> C 	 47.9439 	 -16.5994 	 -106.349
| 12> H 	 46.6136 	 -14.8879 	 -106.387
| 13> C 	 44.2522 	 -16.0876 	 -107.318
| 14> H 	 44.1702 	 -15.2539 	 -106.573
| 15> H 	 43.5667 	 -16.8743 	 -107.132
| 16> C 	 44.1588 	 -15.5738 	 -108.77
| 17> H 	 44.7 	 -14.6092 	 -108.87
| 18> H 	 44.6141 	 -16.3796 	 -109.415
| 19> C 	 42.6937 	 -15.468 	 -109.234
| 20> H 	 42.5923 	 -14.9783 	 -110.215
| 21> H 	 42.2429 	 -16.4642 	 -109.357
| 22> H 	 42.1776 	 -14.814 	 -108.545
| 23> S 	 50.0191 	 -16.9063 	 -104.424
| 24> C 	 51.1096 	 -15.614 	 -104.171
| 25> C 	 50.8214 	 -14.4838 	 -104.902
| 26> C 	 49.728 	 -14.7283 	 -105.803
| 27> C 	 49.14 	 -16.0331 	 -105.738
| 28> H 	 51.4692 	 -13.5981 	 -104.832
| 29> C 	 49.3219 	 -13.587 	 -106.779
| 30> H 	 49.6 	 -12.6628 	 -106.235
| 31> H 	 48.26 	 -13.522 	 -106.986
| 32> C 	 49.9622 	 -13.5158 	 -108.241
| 33> H 	 51.0509 	 -13.5849 	 -108.001
| 34> H 	 49.7228 	 -12.5642 	 -108.743
| 35> C 	 49.4209 	 -14.6452 	 -109.115
| 36> H 	 48.3679 	 -14.4509 	 -109.31
| 37> H 	 49.5714 	 -15.6098 	 -108.627
| 38> H 	 49.9679 	 -14.7126 	 -110.063
| 39> H 	 45.1503 	 -18.7332 	 -107.375
| 40> H 	 51.949 	 -15.7541 	 -103.596
| 41> *
| 42>
| 43>                          ****END OF INPUT****

CARTESIAN COORDINATES (ANGSTROEM)
---------------------------------
  S     47.611200  -18.329600  -106.647000
  C     45.984500  -18.020500  -107.151000
  C     45.612800  -16.687900  -107.006000
  C     46.721800  -15.918900  -106.552000
  C     47.943900  -16.599400  -106.349000
  H     46.613600  -14.887900  -106.387000
  C     44.252200  -16.087600  -107.318000
  H     44.170200  -15.253900  -106.573000
  H     43.566700  -16.874300  -107.132000
  C     44.158800  -15.573800  -108.770000
  H     44.700000  -14.609200  -108.870000
  H     44.614100  -16.379600  -109.415000
  C     42.693700  -15.468000  -109.234000
  H     42.592300  -14.978300  -110.215000
  H     42.242900  -16.464200  -109.357000
  H     42.177600  -14.814000  -108.545000
  S     50.019100  -16.906300  -104.424000
  C     51.109600  -15.614000  -104.171000
  C     50.821400  -14.483800  -104.902000
  C     49.728000  -14.728300  -105.803000
  C     49.140000  -16.033100  -105.738000
  H     51.469200  -13.598100  -104.832000
  C     49.321900  -13.587000  -106.779000
  H     49.600000  -12.662800  -106.235000
  H     48.260000  -13.522000  -106.986000
  C     49.962200  -13.515800  -108.241000
  H     51.050900  -13.584900  -108.001000
  H     49.722800  -12.564200  -108.743000
  C     49.420900  -14.645200  -109.115000
  H     48.367900  -14.450900  -109.310000
  H     49.571400  -15.609800  -108.627000
  H     49.967900  -14.712600  -110.063000
  H     45.150300  -18.733200  -107.375000
  H     51.949000  -15.754100  -103.596000

 Total Charge           Charge          ....    0
 Multiplicity           Mult            ....    1
 Number of Electrons    NEL             ....  134
 Basis Dimension        Dim             ....  322

ORBITAL ENERGIES
----------------

  NO   OCC          E(Eh)            E(eV)
   0   2.0000     -88.972437     -2421.0631
   1   2.0000     -88.966127     -2420.8914
   2   2.0000     -10.339165      -281.3430
   3   2.0000     -10.338537      -281.3259
   4   2.0000     -10.317895      -280.7642
   5   2.0000     -10.315011      -280.6857
   6   2.0000     -10.312472      -280.6166
   7   2.0000     -10.298949      -280.2487
   8   2.0000     -10.298701      -280.2419
   9   2.0000     -10.296699      -280.1874
  10   2.0000     -10.295731      -280.1611
  11   2.0000     -10.294157      -280.1183
  12   2.0000     -10.293007      -280.0870
  13   2.0000     -10.290022      -280.0057
  14   2.0000     -10.281779      -279.7814
  15   2.0000     -10.270133      -279.4645
  16   2.0000      -8.086249      -220.0380
  17   2.0000      -8.080890      -219.8922
  18   2.0000      -6.044899      -164.4901
  19   2.0000      -6.040793      -164.3783
  20   2.0000      -6.039349      -164.3390
  21   2.0000      -6.036995      -164.2750
  22   2.0000      -6.035272      -164.2281
  23   2.0000      -6.031821      -164.1342
  24   2.0000      -1.000619       -27.2282
  25   2.0000      -0.982680       -26.7401
  26   2.0000      -0.912875       -24.8406
  27   2.0000      -0.897805       -24.4305
  28   2.0000      -0.869116       -23.6498
  29   2.0000      -0.850584       -23.1456
  30   2.0000      -0.844684       -22.9850
  31   2.0000      -0.811240       -22.0750
  32   2.0000      -0.780604       -21.2413
  33   2.0000      -0.769217       -20.9315
  34   2.0000      -0.708633       -19.2829
  35   2.0000      -0.696117       -18.9423
  36   2.0000      -0.687620       -18.7111
  37   2.0000      -0.659260       -17.9394
  38   2.0000      -0.633174       -17.2295
  39   2.0000      -0.624238       -16.9864
  40   2.0000      -0.596401       -16.2289
  41   2.0000      -0.575631       -15.6637
  42   2.0000      -0.564069       -15.3491
  43   2.0000      -0.548836       -14.9346
  44   2.0000      -0.538166       -14.6442
  45   2.0000      -0.521271       -14.1845
  46   2.0000      -0.516326       -14.0499
  47   2.0000      -0.510961       -13.9040
  48   2.0000      -0.505224       -13.7479
  49   2.0000      -0.496042       -13.4980
  50   2.0000      -0.488266       -13.2864
  51   2.0000      -0.476522       -12.9668
  52   2.0000      -0.470449       -12.8016
  53   2.0000      -0.465192       -12.6585
  54   2.0000      -0.461821       -12.5668
  55   2.0000      -0.446489       -12.1496
  56   2.0000      -0.439215       -11.9516
  57   2.0000      -0.437076       -11.8934
  58   2.0000      -0.432204       -11.7609
  59   2.0000      -0.430521       -11.7151
  60   2.0000      -0.417209       -11.3528
  61   2.0000      -0.412233       -11.2174
  62   2.0000      -0.410018       -11.1572
  63   2.0000      -0.354840        -9.6557
  64   2.0000      -0.332859        -9.0576
  65   2.0000      -0.329794        -8.9742
  66   2.0000      -0.283747        -7.7211
  67   0.0000       0.016066         0.4372
  68   0.0000       0.075606         2.0573
  69   0.0000       0.105016         2.8576
  70   0.0000       0.119922         3.2632
  71   0.0000       0.123311         3.3555

MULLIKEN ATOMIC CHARGES
-----------------------
   0 S :    0.120554
   1 C :   -0.120589
   2 C :   -0.137591
   3 C :    0.039585
   4 C :   -0.138509
   5 H :   -0.013032
   6 C :    0.082467
   7 H :    0.038727
   8 H :    0.011779
   9 C :   -0.090147
  10 H :    0.040265
  11 H :    0.042112
  12 C :   -0.048816
  13 H :    0.034903
  14 H :    0.040159
  15 H :    0.029266
  16 S :    0.097310
  17 C :   -0.062644
  18 C :   -0.031052
  19 C :   -0.054862
  20 C :   -0.126625
  21 H :    0.034847
  22 C :    0.028271
  23 H :    0.025303
  24 H :    0.013001
  25 C :   -0.076488
  26 H :    0.031361
  27 H :    0.036412
  28 C :   -0.048990
  29 H :    0.030981
  30 H :    0.045172
  31 H :    0.033818
  32 H :    0.059900
  33 H :    0.033155
Sum of atomic charges:    0.0000000

LOEWDIN ATOMIC CHARGES
----------------------
   0 S :    0.408710
   1 C :   -0.216279
   2 C :   -0.067686
   3 C :   -0.049839
   4 C :   -0.191577
   5 H :    0.017288
   6 C :   -0.028111
   7 H :    0.037677
   8 H :    0.024014
   9 C :   -0.042183
  10 H :    0.027709
  11 H :    0.031348
  12 C :   -0.069117
  13 H :    0.028188
  14 H :    0.027937
  15 H :    0.021990
  16 S :    0.402565
  17 C :   -0.176837
  18 C :   -0.076029
  19 C :   -0.051315
  20 C :   -0.188788
  21 H :    0.040025
  22 C :   -0.036719
  23 H :    0.030670
  24 H :    0.019440
  25 C :   -0.038332
  26 H :    0.023536
  27 H :    0.025132
  28 C :   -0.067390
  29 H :    0.024462
  30 H :    0.028922
  31 H :    0.026628
  32 H :    0.041224
  33 H :    0.012737

  Mayer bond orders larger than 0.100000
B(  0-S ,  1-C ) :   1.1520 B(  0-S ,  4-C ) :   1.1357 B(  1-C ,  2-C ) :   1.5912
B(  1-C , 32-H ) :   0.9518 B(  2-C ,  3-C ) :   1.2975 B(  2-C ,  6-C ) :   1.0214
B(  3-C ,  4-C ) :   1.5194 B(  3-C ,  5-H ) :   0.9925 B(  4-C , 20-C ) :   1.1004
B(  6-C ,  7-H ) :   0.9358 B(  6-C ,  8-H ) :   0.9380 B(  6-C ,  9-C ) :   1.0570
B(  9-C , 10-H ) :   0.9543 B(  9-C , 11-H ) :   0.9602 B(  9-C , 12-C ) :   1.0823
B( 12-C , 13-H ) :   0.9739 B( 12-C , 14-H ) :   0.9766 B( 12-C , 15-H ) :   0.9735
B( 16-S , 17-C ) :   1.1818 B( 16-S , 20-C ) :   1.1218 B( 17-C , 18-C ) :   1.5795
B( 17-C , 33-H ) :   0.9741 B( 18-C , 19-C ) :   1.2634 B( 18-C , 21-H ) :   0.9891
B( 19-C , 20-C ) :   1.5550 B( 19-C , 22-C ) :   1.0346 B( 22-C , 23-H ) :   0.9390
B( 22-C , 24-H ) :   0.9429 B( 22-C , 25-C ) :   1.0584 B( 25-C , 26-H ) :   0.9569
B( 25-C , 27-H ) :   0.9564 B( 25-C , 28-C ) :   1.0784 B( 28-C , 29-H ) :   0.9738
B( 28-C , 30-H ) :   0.9746 B( 28-C , 31-H ) :   0.9719

Dispersion correction           -0.014750150
FINAL SINGLE POINT ENERGY     -1339.878042873411

DIPOLE MOMENT
-------------
                                X             Y             Z
Electronic contribution:     14.94442     -16.98741      19.30838
Nuclear contribution   :    -15.27366      17.52877     -19.51277
                        -----------------------------------------
Total Dipole Moment    :     -0.32924       0.54136      -0.20439
                        -----------------------------------------
Magnitude (a.u.)       :      0.66577
Magnitude (Debye)      :      1.69224

Rotational constants in cm-1:     0.020510     0.008345     0.006703
Rotational constants in MHz :   614.869381   250.167588   200.965289

                             ****ORCA TERMINATED NORMALLY****
TOTAL RUN TIME: 0 days 0 hours 0 minutes 22 seconds 76 msec
