                         Program Version 4.2.1 -  RELEASE  -
|  1> ! wB97X-D3 SP def2-SVP
|  2> %pal
|  3> nprocs 24
|  4> end
|  5>
|  6> * xyz 0 1
|  7> S 	 -102.396 	 15.488 	 -120.493
|  8> C 	 -102.27 	 17.1215 	 -119.866
|  9> C 	 -100.992 	 17.7114 	 -120.183
| 10> C 	 -100.113 	 16.7533 	 -120.868
| 11> C 	 -100.812 	 15.6104 	 -121.169
| 12> H 	 -99.11 	 16.9439 	 -121.245
| 13> C 	 -100.548 	 19.0813 	 -119.6
| 14> H 	 -100.778 	 19.7773 	 -120.363
| 15> H 	 -99.4871 	 19.1281 	 -119.578
| 16> C 	 -101.13 	 19.4915 	 -118.303
| 17> H 	 -102.225 	 19.4129 	 -118.39
| 18> H 	 -100.754 	 18.7111 	 -117.632
| 19> C 	 -100.548 	 20.8342 	 -117.861
| 20> H 	 -100.942 	 21.2332 	 -116.903
| 21> H 	 -99.4658 	 20.7197 	 -117.564
| 22> H 	 -100.541 	 21.5435 	 -118.638
| 23> S 	 -99.7632 	 13.0302 	 -121.144
| 24> C 	 -99.4019 	 12.3168 	 -122.687
| 25> C 	 -99.5313 	 13.1783 	 -123.76
| 26> C 	 -99.9392 	 14.497 	 -123.329
| 27> C 	 -100.305 	 14.5333 	 -121.958
| 28> H 	 -99.1913 	 12.8075 	 -124.737
| 29> C 	 -100.109 	 15.5706 	 -124.332
| 30> H 	 -99.9074 	 15.3169 	 -125.401
| 31> H 	 -99.297 	 16.3449 	 -124.214
| 32> C 	 -101.514 	 16.3038 	 -124.174
| 33> H 	 -101.492 	 16.9605 	 -123.326
| 34> H 	 -102.339 	 15.5792 	 -124.038
| 35> C 	 -101.841 	 17.1504 	 -125.418
| 36> H 	 -101.227 	 17.9945 	 -125.609
| 37> H 	 -102.882 	 17.6204 	 -125.284
| 38> H 	 -101.681 	 16.5497 	 -126.31
| 39> H 	 -103.022 	 17.7467 	 -119.481
| 40> H 	 -98.8415 	 11.3712 	 -122.767
| 41> *
| 42>
| 43>                          ****END OF INPUT****

CARTESIAN COORDINATES (ANGSTROEM)
---------------------------------
  S    -102.396000   15.488000  -120.493000
  C    -102.270000   17.121500  -119.866000
  C    -100.992000   17.711400  -120.183000
  C    -100.113000   16.753300  -120.868000
  C    -100.812000   15.610400  -121.169000
  H    -99.110000   16.943900  -121.245000
  C    -100.548000   19.081300  -119.600000
  H    -100.778000   19.777300  -120.363000
  H    -99.487100   19.128100  -119.578000
  C    -101.130000   19.491500  -118.303000
  H    -102.225000   19.412900  -118.390000
  H    -100.754000   18.711100  -117.632000
  C    -100.548000   20.834200  -117.861000
  H    -100.942000   21.233200  -116.903000
  H    -99.465800   20.719700  -117.564000
  H    -100.541000   21.543500  -118.638000
  S    -99.763200   13.030200  -121.144000
  C    -99.401900   12.316800  -122.687000
  C    -99.531300   13.178300  -123.760000
  C    -99.939200   14.497000  -123.329000
  C    -100.305000   14.533300  -121.958000
  H    -99.191300   12.807500  -124.737000
  C    -100.109000   15.570600  -124.332000
  H    -99.907400   15.316900  -125.401000
  H    -99.297000   16.344900  -124.214000
  C    -101.514000   16.303800  -124.174000
  H    -101.492000   16.960500  -123.326000
  H    -102.339000   15.579200  -124.038000
  C    -101.841000   17.150400  -125.418000
  H    -101.227000   17.994500  -125.609000
  H    -102.882000   17.620400  -125.284000
  H    -101.681000   16.549700  -126.310000
  H    -103.022000   17.746700  -119.481000
  H    -98.841500   11.371200  -122.767000

 Total Charge           Charge          ....    0
 Multiplicity           Mult            ....    1
 Number of Electrons    NEL             ....  134
 Basis Dimension        Dim             ....  322

ORBITAL ENERGIES
----------------

  NO   OCC          E(Eh)            E(eV)
   0   2.0000     -88.970966     -2421.0231
   1   2.0000     -88.964482     -2420.8466
   2   2.0000     -10.325132      -280.9611
   3   2.0000     -10.323749      -280.9235
   4   2.0000     -10.315519      -280.6995
   5   2.0000     -10.314560      -280.6735
   6   2.0000     -10.311878      -280.6005
   7   2.0000     -10.308783      -280.5162
   8   2.0000     -10.298674      -280.2412
   9   2.0000     -10.297100      -280.1983
  10   2.0000     -10.294978      -280.1406
  11   2.0000     -10.287396      -279.9343
  12   2.0000     -10.284716      -279.8614
  13   2.0000     -10.283224      -279.8208
  14   2.0000     -10.283220      -279.8206
  15   2.0000     -10.275184      -279.6020
  16   2.0000      -8.085466      -220.0167
  17   2.0000      -8.078791      -219.8351
  18   2.0000      -6.043922      -164.4635
  19   2.0000      -6.040013      -164.3571
  20   2.0000      -6.037224      -164.2812
  21   2.0000      -6.036287      -164.2557
  22   2.0000      -6.033450      -164.1785
  23   2.0000      -6.029583      -164.0733
  24   2.0000      -1.002958       -27.2919
  25   2.0000      -0.976293       -26.5663
  26   2.0000      -0.921208       -25.0673
  27   2.0000      -0.900910       -24.5150
  28   2.0000      -0.866295       -23.5731
  29   2.0000      -0.849603       -23.1189
  30   2.0000      -0.845698       -23.0126
  31   2.0000      -0.810486       -22.0545
  32   2.0000      -0.782235       -21.2857
  33   2.0000      -0.763052       -20.7637
  34   2.0000      -0.713072       -19.4037
  35   2.0000      -0.704507       -19.1706
  36   2.0000      -0.686110       -18.6700
  37   2.0000      -0.653515       -17.7830
  38   2.0000      -0.641503       -17.4562
  39   2.0000      -0.611936       -16.6516
  40   2.0000      -0.593586       -16.1523
  41   2.0000      -0.578515       -15.7422
  42   2.0000      -0.565025       -15.3751
  43   2.0000      -0.555801       -15.1241
  44   2.0000      -0.527479       -14.3534
  45   2.0000      -0.523071       -14.2335
  46   2.0000      -0.518368       -14.1055
  47   2.0000      -0.502991       -13.6871
  48   2.0000      -0.502041       -13.6612
  49   2.0000      -0.495472       -13.4825
  50   2.0000      -0.488113       -13.2822
  51   2.0000      -0.483656       -13.1609
  52   2.0000      -0.471941       -12.8422
  53   2.0000      -0.461588       -12.5604
  54   2.0000      -0.455342       -12.3905
  55   2.0000      -0.446939       -12.1618
  56   2.0000      -0.443512       -12.0686
  57   2.0000      -0.438283       -11.9263
  58   2.0000      -0.430071       -11.7028
  59   2.0000      -0.427464       -11.6319
  60   2.0000      -0.417282       -11.3548
  61   2.0000      -0.416109       -11.3229
  62   2.0000      -0.412479       -11.2241
  63   2.0000      -0.337980        -9.1969
  64   2.0000      -0.327022        -8.8987
  65   2.0000      -0.323284        -8.7970
  66   2.0000      -0.294636        -8.0175
  67   0.0000       0.035900         0.9769
  68   0.0000       0.054532         1.4839
  69   0.0000       0.113400         3.0858
  70   0.0000       0.117343         3.1931
  71   0.0000       0.123378         3.3573

MULLIKEN ATOMIC CHARGES
-----------------------
   0 S :    0.142900
   1 C :   -0.103071
   2 C :   -0.130862
   3 C :    0.050949
   4 C :   -0.196075
   5 H :    0.023827
   6 C :    0.079648
   7 H :    0.016909
   8 H :    0.004453
   9 C :   -0.073895
  10 H :    0.036138
  11 H :    0.039634
  12 C :   -0.037625
  13 H :    0.039576
  14 H :    0.028661
  15 H :    0.021573
  16 S :    0.110791
  17 C :   -0.105292
  18 C :   -0.044002
  19 C :    0.013029
  20 C :   -0.169487
  21 H :    0.028448
  22 C :    0.027845
  23 H :    0.019852
  24 H :    0.033267
  25 C :   -0.082240
  26 H :    0.046264
  27 H :    0.044780
  28 C :   -0.048787
  29 H :    0.013139
  30 H :    0.045539
  31 H :    0.023551
  32 H :    0.033360
  33 H :    0.067204
Sum of atomic charges:    0.0000000

LOEWDIN ATOMIC CHARGES
----------------------
   0 S :    0.429859
   1 C :   -0.208287
   2 C :   -0.046267
   3 C :   -0.059115
   4 C :   -0.207550
   5 H :    0.036348
   6 C :   -0.034547
   7 H :    0.025505
   8 H :    0.024186
   9 C :   -0.043462
  10 H :    0.023971
  11 H :    0.032721
  12 C :   -0.065052
  13 H :    0.031460
  14 H :    0.034024
  15 H :    0.016067
  16 S :    0.395161
  17 C :   -0.191982
  18 C :   -0.077387
  19 C :   -0.045541
  20 C :   -0.201698
  21 H :    0.037204
  22 C :   -0.043007
  23 H :    0.031158
  24 H :    0.038331
  25 C :   -0.034264
  26 H :    0.023935
  27 H :    0.028354
  28 C :   -0.073007
  29 H :    0.014984
  30 H :    0.037488
  31 H :    0.021095
  32 H :    0.016306
  33 H :    0.033008

  Mayer bond orders larger than 0.100000
B(  0-S ,  1-C ) :   1.1325 B(  0-S ,  4-C ) :   1.1649 B(  1-C ,  2-C ) :   1.6142
B(  1-C , 32-H ) :   0.9693 B(  2-C ,  3-C ) :   1.2263 B(  2-C ,  6-C ) :   1.0078
B(  3-C ,  4-C ) :   1.5882 B(  3-C ,  5-H ) :   0.9904 B(  4-C , 20-C ) :   1.0335
B(  6-C ,  7-H ) :   0.9157 B(  6-C ,  8-H ) :   0.9475 B(  6-C ,  9-C ) :   1.0785
B(  9-C , 10-H ) :   0.9473 B(  9-C , 11-H ) :   0.9576 B(  9-C , 12-C ) :   1.0811
B( 12-C , 13-H ) :   0.9722 B( 12-C , 14-H ) :   0.9700 B( 12-C , 15-H ) :   0.9771
B( 16-S , 17-C ) :   1.1638 B( 16-S , 20-C ) :   1.1345 B( 17-C , 18-C ) :   1.6203
B( 17-C , 20-C ) :   0.1012 B( 17-C , 33-H ) :   0.9583 B( 18-C , 19-C ) :   1.2310
B( 18-C , 21-H ) :   0.9874 B( 19-C , 20-C ) :   1.5770 B( 19-C , 22-C ) :   1.0590
B( 22-C , 23-H ) :   0.9480 B( 22-C , 24-H ) :   0.9178 B( 22-C , 25-C ) :   1.0457
B( 25-C , 26-H ) :   0.9469 B( 25-C , 27-H ) :   0.9647 B( 25-C , 28-C ) :   1.0875
B( 28-C , 29-H ) :   0.9738 B( 28-C , 30-H ) :   0.9726 B( 28-C , 31-H ) :   0.9744

Dispersion correction           -0.014676474
FINAL SINGLE POINT ENERGY     -1339.861837018070

DIPOLE MOMENT
-------------
                                X             Y             Z
Electronic contribution:     -0.17168     -26.20038       4.60712
Nuclear contribution   :      0.54834      26.79960      -4.85125
                        -----------------------------------------
Total Dipole Moment    :      0.37666       0.59922      -0.24413
                        -----------------------------------------
Magnitude (a.u.)       :      0.74869
Magnitude (Debye)      :      1.90302

Rotational constants in cm-1:     0.020773     0.007896     0.006660
Rotational constants in MHz :   622.770768   236.727831   199.649491

                             ****ORCA TERMINATED NORMALLY****
TOTAL RUN TIME: 0 days 0 hours 0 minutes 20 seconds 737 msec
