                         Program Version 4.2.1 -  RELEASE  -
|  1> ! wB97X-D3 SP def2-SVP
|  2> %pal
|  3> nprocs 24
|  4> end
|  5>
|  6> * xyz 0 1
|  7> S 	 -91.3503 	 -35.6583 	 -64.9325
|  8> C 	 -93.0128 	 -36.0166 	 -65.1517
|  9> C 	 -93.5605 	 -35.1704 	 -66.14
| 10> C 	 -92.5273 	 -34.4219 	 -66.8015
| 11> C 	 -91.2601 	 -34.5947 	 -66.3154
| 12> H 	 -92.7073 	 -33.83 	 -67.7154
| 13> C 	 -95.0288 	 -35.1087 	 -66.5603
| 14> H 	 -95.3686 	 -34.1138 	 -66.8071
| 15> H 	 -95.6117 	 -35.5494 	 -65.6611
| 16> C 	 -95.4503 	 -35.9096 	 -67.7681
| 17> H 	 -95.4758 	 -36.9399 	 -67.7478
| 18> H 	 -96.5355 	 -35.6833 	 -67.9029
| 19> C 	 -94.7451 	 -35.5092 	 -69.1186
| 20> H 	 -94.8491 	 -34.4111 	 -69.1803
| 21> H 	 -93.6898 	 -35.8027 	 -69.0253
| 22> H 	 -95.114 	 -35.9083 	 -70.0685
| 23> S 	 -89.1765 	 -32.8596 	 -65.7066
| 24> C 	 -87.9544 	 -32.7008 	 -66.9202
| 25> C 	 -88.1991 	 -33.3517 	 -68.1149
| 26> C 	 -89.2858 	 -34.2082 	 -68.0108
| 27> C 	 -89.991 	 -34.0659 	 -66.8261
| 28> H 	 -87.3955 	 -33.2389 	 -68.8072
| 29> C 	 -89.606 	 -35.1241 	 -69.2035
| 30> H 	 -89.4252 	 -34.7317 	 -70.1634
| 31> H 	 -90.6804 	 -35.2854 	 -69.2662
| 32> C 	 -88.8744 	 -36.4883 	 -69.1075
| 33> H 	 -89.0119 	 -36.923 	 -68.0868
| 34> H 	 -87.7931 	 -36.3731 	 -69.1492
| 35> C 	 -89.5452 	 -37.5013 	 -70.097
| 36> H 	 -89.3375 	 -37.2832 	 -71.1592
| 37> H 	 -90.6111 	 -37.6158 	 -69.9127
| 38> H 	 -89.3096 	 -38.5157 	 -69.8441
| 39> H 	 -93.6776 	 -36.7503 	 -64.6838
| 40> H 	 -87.0127 	 -32.2198 	 -66.8439
| 41> *
| 42>
| 43>                          ****END OF INPUT****

CARTESIAN COORDINATES (ANGSTROEM)
---------------------------------
  S    -91.350300  -35.658300  -64.932500
  C    -93.012800  -36.016600  -65.151700
  C    -93.560500  -35.170400  -66.140000
  C    -92.527300  -34.421900  -66.801500
  C    -91.260100  -34.594700  -66.315400
  H    -92.707300  -33.830000  -67.715400
  C    -95.028800  -35.108700  -66.560300
  H    -95.368600  -34.113800  -66.807100
  H    -95.611700  -35.549400  -65.661100
  C    -95.450300  -35.909600  -67.768100
  H    -95.475800  -36.939900  -67.747800
  H    -96.535500  -35.683300  -67.902900
  C    -94.745100  -35.509200  -69.118600
  H    -94.849100  -34.411100  -69.180300
  H    -93.689800  -35.802700  -69.025300
  H    -95.114000  -35.908300  -70.068500
  S    -89.176500  -32.859600  -65.706600
  C    -87.954400  -32.700800  -66.920200
  C    -88.199100  -33.351700  -68.114900
  C    -89.285800  -34.208200  -68.010800
  C    -89.991000  -34.065900  -66.826100
  H    -87.395500  -33.238900  -68.807200
  C    -89.606000  -35.124100  -69.203500
  H    -89.425200  -34.731700  -70.163400
  H    -90.680400  -35.285400  -69.266200
  C    -88.874400  -36.488300  -69.107500
  H    -89.011900  -36.923000  -68.086800
  H    -87.793100  -36.373100  -69.149200
  C    -89.545200  -37.501300  -70.097000
  H    -89.337500  -37.283200  -71.159200
  H    -90.611100  -37.615800  -69.912700
  H    -89.309600  -38.515700  -69.844100
  H    -93.677600  -36.750300  -64.683800
  H    -87.012700  -32.219800  -66.843900

 Total Charge           Charge          ....    0
 Multiplicity           Mult            ....    1
 Number of Electrons    NEL             ....  134
 Basis Dimension        Dim             ....  322

ORBITAL ENERGIES
----------------

  NO   OCC          E(Eh)            E(eV)
   0   2.0000     -88.967123     -2420.9185
   1   2.0000     -88.966302     -2420.8962
   2   2.0000     -10.331983      -281.1476
   3   2.0000     -10.326837      -281.0075
   4   2.0000     -10.317902      -280.7644
   5   2.0000     -10.311712      -280.5959
   6   2.0000     -10.306949      -280.4663
   7   2.0000     -10.303087      -280.3613
   8   2.0000     -10.302404      -280.3427
   9   2.0000     -10.293825      -280.1092
  10   2.0000     -10.290028      -280.0059
  11   2.0000     -10.288088      -279.9531
  12   2.0000     -10.285681      -279.8876
  13   2.0000     -10.284282      -279.8495
  14   2.0000     -10.282288      -279.7953
  15   2.0000     -10.278533      -279.6931
  16   2.0000      -8.081454      -219.9075
  17   2.0000      -8.081075      -219.8972
  18   2.0000      -6.039974      -164.3560
  19   2.0000      -6.039399      -164.3404
  20   2.0000      -6.035878      -164.2446
  21   2.0000      -6.035707      -164.2399
  22   2.0000      -6.032348      -164.1485
  23   2.0000      -6.031896      -164.1362
  24   2.0000      -1.005092       -27.3499
  25   2.0000      -0.984961       -26.8021
  26   2.0000      -0.911854       -24.8128
  27   2.0000      -0.903254       -24.5788
  28   2.0000      -0.867271       -23.5996
  29   2.0000      -0.850124       -23.1330
  30   2.0000      -0.841824       -22.9072
  31   2.0000      -0.813469       -22.1356
  32   2.0000      -0.784623       -21.3507
  33   2.0000      -0.773049       -21.0357
  34   2.0000      -0.707692       -19.2573
  35   2.0000      -0.701454       -19.0875
  36   2.0000      -0.697325       -18.9752
  37   2.0000      -0.659095       -17.9349
  38   2.0000      -0.638929       -17.3861
  39   2.0000      -0.616643       -16.7797
  40   2.0000      -0.598060       -16.2740
  41   2.0000      -0.581142       -15.8137
  42   2.0000      -0.558614       -15.2007
  43   2.0000      -0.548013       -14.9122
  44   2.0000      -0.538897       -14.6641
  45   2.0000      -0.520472       -14.1628
  46   2.0000      -0.509860       -13.8740
  47   2.0000      -0.505311       -13.7502
  48   2.0000      -0.502781       -13.6814
  49   2.0000      -0.499282       -13.5861
  50   2.0000      -0.493114       -13.4183
  51   2.0000      -0.483230       -13.1494
  52   2.0000      -0.475026       -12.9261
  53   2.0000      -0.464438       -12.6380
  54   2.0000      -0.457925       -12.4608
  55   2.0000      -0.447233       -12.1698
  56   2.0000      -0.441758       -12.0208
  57   2.0000      -0.438321       -11.9273
  58   2.0000      -0.433209       -11.7882
  59   2.0000      -0.419324       -11.4104
  60   2.0000      -0.417333       -11.3562
  61   2.0000      -0.414776       -11.2866
  62   2.0000      -0.409181       -11.1344
  63   2.0000      -0.339360        -9.2345
  64   2.0000      -0.335652        -9.1335
  65   2.0000      -0.325762        -8.8644
  66   2.0000      -0.297367        -8.0918
  67   0.0000       0.035221         0.9584
  68   0.0000       0.056533         1.5384
  69   0.0000       0.107003         2.9117
  70   0.0000       0.115001         3.1293
  71   0.0000       0.128682         3.5016

MULLIKEN ATOMIC CHARGES
-----------------------
   0 S :    0.127771
   1 C :   -0.108379
   2 C :   -0.117008
   3 C :    0.041441
   4 C :   -0.165016
   5 H :    0.021344
   6 C :    0.055039
   7 H :    0.033246
   8 H :    0.039945
   9 C :   -0.055230
  10 H :    0.010226
  11 H :    0.026704
  12 C :   -0.095880
  13 H :    0.026483
  14 H :    0.051670
  15 H :    0.040277
  16 S :    0.108016
  17 C :   -0.072916
  18 C :   -0.048389
  19 C :    0.017061
  20 C :   -0.179693
  21 H :    0.012132
  22 C :    0.097348
  23 H :    0.009561
  24 H :    0.010133
  25 C :   -0.090691
  26 H :    0.033999
  27 H :    0.031067
  28 C :   -0.039762
  29 H :    0.044062
  30 H :    0.026370
  31 H :    0.019997
  32 H :    0.052067
  33 H :    0.037003
Sum of atomic charges:   -0.0000000

LOEWDIN ATOMIC CHARGES
----------------------
   0 S :    0.426465
   1 C :   -0.211587
   2 C :   -0.070896
   3 C :   -0.062568
   4 C :   -0.211246
   5 H :    0.035479
   6 C :   -0.033318
   7 H :    0.033080
   8 H :    0.044413
   9 C :   -0.040123
  10 H :    0.009103
  11 H :    0.028390
  12 C :   -0.071795
  13 H :    0.021944
  14 H :    0.025582
  15 H :    0.027012
  16 S :    0.382839
  17 C :   -0.175627
  18 C :   -0.075842
  19 C :   -0.043454
  20 C :   -0.176414
  21 H :    0.031465
  22 C :   -0.025148
  23 H :    0.022968
  24 H :    0.027896
  25 C :   -0.037608
  26 H :    0.029950
  27 H :    0.022027
  28 C :   -0.070892
  29 H :    0.026831
  30 H :    0.028753
  31 H :    0.024296
  32 H :    0.036450
  33 H :    0.021573

  Mayer bond orders larger than 0.100000
B(  0-S ,  1-C ) :   1.1603 B(  0-S ,  4-C ) :   1.1496 B(  1-C ,  2-C ) :   1.5898
B(  1-C ,  4-C ) :   0.1009 B(  1-C , 32-H ) :   0.9635 B(  2-C ,  3-C ) :   1.2469
B(  2-C ,  6-C ) :   1.0281 B(  3-C ,  4-C ) :   1.5822 B(  3-C ,  5-H ) :   0.9917
B(  4-C , 20-C ) :   1.0157 B(  6-C ,  7-H ) :   0.9427 B(  6-C ,  8-H ) :   0.9361
B(  6-C ,  9-C ) :   1.0731 B(  9-C , 10-H ) :   0.9594 B(  9-C , 11-H ) :   0.9538
B(  9-C , 12-C ) :   1.0679 B( 12-C , 13-H ) :   0.9750 B( 12-C , 14-H ) :   0.9741
B( 12-C , 15-H ) :   0.9739 B( 16-S , 17-C ) :   1.1624 B( 16-S , 20-C ) :   1.1201
B( 17-C , 18-C ) :   1.6400 B( 17-C , 20-C ) :   0.1080 B( 17-C , 33-H ) :   0.9626
B( 18-C , 19-C ) :   1.2195 B( 18-C , 21-H ) :   0.9931 B( 19-C , 20-C ) :   1.6252
B( 19-C , 22-C ) :   1.0334 B( 22-C , 23-H ) :   0.9399 B( 22-C , 24-H ) :   0.9372
B( 22-C , 25-C ) :   1.0504 B( 25-C , 26-H ) :   0.9578 B( 25-C , 27-H ) :   0.9601
B( 25-C , 28-C ) :   1.0747 B( 28-C , 29-H ) :   0.9772 B( 28-C , 30-H ) :   0.9714
B( 28-C , 31-H ) :   0.9721

Dispersion correction           -0.014654844
FINAL SINGLE POINT ENERGY     -1339.858318733028

DIPOLE MOMENT
-------------
                                X             Y             Z
Electronic contribution:     12.49650      12.58491      22.83819
Nuclear contribution   :    -12.73221     -12.82531     -23.42457
                        -----------------------------------------
Total Dipole Moment    :     -0.23571      -0.24040      -0.58638
                        -----------------------------------------
Magnitude (a.u.)       :      0.67616
Magnitude (Debye)      :      1.71866

Rotational constants in cm-1:     0.016873     0.009554     0.007401
Rotational constants in MHz :   505.845516   286.410174   221.873571

                             ****ORCA TERMINATED NORMALLY****
TOTAL RUN TIME: 0 days 0 hours 0 minutes 22 seconds 46 msec
