                         Program Version 4.2.1 -  RELEASE  -
|  1> ! wB97X-D3 SP def2-SVP
|  2> %pal
|  3> nprocs 24
|  4> end
|  5>
|  6> * xyz 0 1
|  7> S 	 -108.249 	 1.52507 	 -109.238
|  8> C 	 -108.212 	 2.89452 	 -110.305
|  9> C 	 -106.943 	 3.27889 	 -110.663
| 10> C 	 -105.969 	 2.33266 	 -110.215
| 11> C 	 -106.516 	 1.32008 	 -109.389
| 12> H 	 -104.92 	 2.42814 	 -110.39
| 13> C 	 -106.567 	 4.42358 	 -111.581
| 14> H 	 -107.073 	 4.12586 	 -112.532
| 15> H 	 -105.461 	 4.49464 	 -111.669
| 16> C 	 -107.069 	 5.8265 	 -111.077
| 17> H 	 -107.161 	 6.44341 	 -111.993
| 18> H 	 -108.085 	 5.76196 	 -110.825
| 19> C 	 -106.288 	 6.53558 	 -110.016
| 20> H 	 -106.295 	 5.95285 	 -109.085
| 21> H 	 -105.275 	 6.62208 	 -110.348
| 22> H 	 -106.891 	 7.41803 	 -109.715
| 23> S 	 -106.287 	 0.0221363 	 -107.033
| 24> C 	 -105.274 	 -1.49561 	 -107.005
| 25> C 	 -104.422 	 -1.48977 	 -108.054
| 26> C 	 -104.718 	 -0.479951 	 -109.053
| 27> C 	 -105.805 	 0.307773 	 -108.689
| 28> H 	 -103.664 	 -2.19949 	 -108.165
| 29> C 	 -104.019 	 -0.432609 	 -110.395
| 30> H 	 -104.22 	 0.560853 	 -110.879
| 31> H 	 -104.515 	 -1.22802 	 -110.956
| 32> C 	 -102.476 	 -0.829518 	 -110.311
| 33> H 	 -102.133 	 -1.21373 	 -111.266
| 34> H 	 -102.23 	 -1.65555 	 -109.705
| 35> C 	 -101.566 	 0.298208 	 -109.733
| 36> H 	 -101.824 	 1.36172 	 -109.973
| 37> H 	 -100.527 	 0.0801626 	 -110.023
| 38> H 	 -101.425 	 0.273198 	 -108.723
| 39> H 	 -109.046 	 3.42522 	 -110.732
| 40> H 	 -105.247 	 -2.27499 	 -106.33
| 41> *
| 42>
| 43>                          ****END OF INPUT****

CARTESIAN COORDINATES (ANGSTROEM)
---------------------------------
  S    -108.249000    1.525070  -109.238000
  C    -108.212000    2.894520  -110.305000
  C    -106.943000    3.278890  -110.663000
  C    -105.969000    2.332660  -110.215000
  C    -106.516000    1.320080  -109.389000
  H    -104.920000    2.428140  -110.390000
  C    -106.567000    4.423580  -111.581000
  H    -107.073000    4.125860  -112.532000
  H    -105.461000    4.494640  -111.669000
  C    -107.069000    5.826500  -111.077000
  H    -107.161000    6.443410  -111.993000
  H    -108.085000    5.761960  -110.825000
  C    -106.288000    6.535580  -110.016000
  H    -106.295000    5.952850  -109.085000
  H    -105.275000    6.622080  -110.348000
  H    -106.891000    7.418030  -109.715000
  S    -106.287000    0.022136  -107.033000
  C    -105.274000   -1.495610  -107.005000
  C    -104.422000   -1.489770  -108.054000
  C    -104.718000   -0.479951  -109.053000
  C    -105.805000    0.307773  -108.689000
  H    -103.664000   -2.199490  -108.165000
  C    -104.019000   -0.432609  -110.395000
  H    -104.220000    0.560853  -110.879000
  H    -104.515000   -1.228020  -110.956000
  C    -102.476000   -0.829518  -110.311000
  H    -102.133000   -1.213730  -111.266000
  H    -102.230000   -1.655550  -109.705000
  C    -101.566000    0.298208  -109.733000
  H    -101.824000    1.361720  -109.973000
  H    -100.527000    0.080163  -110.023000
  H    -101.425000    0.273198  -108.723000
  H    -109.046000    3.425220  -110.732000
  H    -105.247000   -2.274990  -106.330000

 Total Charge           Charge          ....    0
 Multiplicity           Mult            ....    1
 Number of Electrons    NEL             ....  134
 Basis Dimension        Dim             ....  322

ORBITAL ENERGIES
----------------

  NO   OCC          E(Eh)            E(eV)
   0   2.0000     -88.970777     -2421.0179
   1   2.0000     -88.961154     -2420.7561
   2   2.0000     -10.329042      -281.0675
   3   2.0000     -10.321234      -280.8551
   4   2.0000     -10.312192      -280.6090
   5   2.0000     -10.309106      -280.5250
   6   2.0000     -10.300678      -280.2957
   7   2.0000     -10.300535      -280.2918
   8   2.0000     -10.299130      -280.2536
   9   2.0000     -10.297522      -280.2098
  10   2.0000     -10.294160      -280.1183
  11   2.0000     -10.292278      -280.0671
  12   2.0000     -10.288323      -279.9595
  13   2.0000     -10.282642      -279.8049
  14   2.0000     -10.277816      -279.6736
  15   2.0000     -10.275132      -279.6005
  16   2.0000      -8.085147      -220.0080
  17   2.0000      -8.075049      -219.7333
  18   2.0000      -6.043648      -164.4560
  19   2.0000      -6.039628      -164.3466
  20   2.0000      -6.036012      -164.2482
  21   2.0000      -6.033849      -164.1894
  22   2.0000      -6.029925      -164.0826
  23   2.0000      -6.025288      -163.9564
  24   2.0000      -1.005249       -27.3542
  25   2.0000      -0.979209       -26.6456
  26   2.0000      -0.911965       -24.8158
  27   2.0000      -0.899579       -24.4788
  28   2.0000      -0.874583       -23.7986
  29   2.0000      -0.853679       -23.2298
  30   2.0000      -0.842381       -22.9224
  31   2.0000      -0.815621       -22.1942
  32   2.0000      -0.782180       -21.2842
  33   2.0000      -0.770959       -20.9789
  34   2.0000      -0.715029       -19.4569
  35   2.0000      -0.707850       -19.2616
  36   2.0000      -0.699715       -19.0402
  37   2.0000      -0.662409       -18.0251
  38   2.0000      -0.637162       -17.3381
  39   2.0000      -0.611148       -16.6302
  40   2.0000      -0.591643       -16.0994
  41   2.0000      -0.578405       -15.7392
  42   2.0000      -0.553538       -15.0625
  43   2.0000      -0.550722       -14.9859
  44   2.0000      -0.540291       -14.7021
  45   2.0000      -0.528209       -14.3733
  46   2.0000      -0.524605       -14.2752
  47   2.0000      -0.515396       -14.0246
  48   2.0000      -0.500626       -13.6227
  49   2.0000      -0.497343       -13.5334
  50   2.0000      -0.490443       -13.3456
  51   2.0000      -0.482315       -13.1245
  52   2.0000      -0.469614       -12.7788
  53   2.0000      -0.466093       -12.6830
  54   2.0000      -0.462283       -12.5794
  55   2.0000      -0.446230       -12.1425
  56   2.0000      -0.444421       -12.0933
  57   2.0000      -0.439356       -11.9555
  58   2.0000      -0.433789       -11.8040
  59   2.0000      -0.431438       -11.7400
  60   2.0000      -0.426422       -11.6035
  61   2.0000      -0.407627       -11.0921
  62   2.0000      -0.406073       -11.0498
  63   2.0000      -0.351383        -9.5616
  64   2.0000      -0.331287        -9.0148
  65   2.0000      -0.325797        -8.8654
  66   2.0000      -0.279659        -7.6099
  67   0.0000       0.021180         0.5763
  68   0.0000       0.075746         2.0612
  69   0.0000       0.097715         2.6590
  70   0.0000       0.119369         3.2482
  71   0.0000       0.135128         3.6770

MULLIKEN ATOMIC CHARGES
-----------------------
   0 S :    0.137650
   1 C :   -0.117093
   2 C :   -0.085339
   3 C :    0.018597
   4 C :   -0.163097
   5 H :    0.007793
   6 C :    0.037503
   7 H :    0.052677
   8 H :    0.026104
   9 C :   -0.079269
  10 H :    0.021120
  11 H :    0.000347
  12 C :   -0.011831
  13 H :    0.032231
  14 H :    0.032749
  15 H :    0.042572
  16 S :    0.086315
  17 C :   -0.045731
  18 C :   -0.009387
  19 C :   -0.045001
  20 C :   -0.143313
  21 H :   -0.007258
  22 C :    0.064398
  23 H :    0.032340
  24 H :    0.045707
  25 C :   -0.056984
  26 H :    0.023541
  27 H :    0.011839
  28 C :   -0.038089
  29 H :    0.038160
  30 H :    0.021723
  31 H :    0.012653
  32 H :    0.037211
  33 H :    0.019163
Sum of atomic charges:    0.0000000

LOEWDIN ATOMIC CHARGES
----------------------
   0 S :    0.424568
   1 C :   -0.208088
   2 C :   -0.066293
   3 C :   -0.060360
   4 C :   -0.196869
   5 H :    0.023265
   6 C :   -0.031355
   7 H :    0.043836
   8 H :    0.030461
   9 C :   -0.045970
  10 H :    0.024912
  11 H :    0.012101
  12 C :   -0.062940
  13 H :    0.029676
  14 H :    0.023123
  15 H :    0.038368
  16 S :    0.363317
  17 C :   -0.148738
  18 C :   -0.055630
  19 C :   -0.058645
  20 C :   -0.197875
  21 H :    0.019920
  22 C :   -0.029728
  23 H :    0.035420
  24 H :    0.039090
  25 C :   -0.034444
  26 H :    0.023784
  27 H :    0.018933
  28 C :   -0.067374
  29 H :    0.028358
  30 H :    0.031064
  31 H :    0.012770
  32 H :    0.025873
  33 H :    0.015474

  Mayer bond orders larger than 0.100000
B(  0-S ,  1-C ) :   1.1389 B(  0-S ,  4-C ) :   1.1569 B(  1-C ,  2-C ) :   1.6019
B(  1-C , 32-H ) :   0.9623 B(  2-C ,  3-C ) :   1.2744 B(  2-C ,  6-C ) :   1.0095
B(  3-C ,  4-C ) :   1.5226 B(  3-C ,  5-H ) :   0.9851 B(  4-C , 20-C ) :   1.0939
B(  6-C ,  7-H ) :   0.9375 B(  6-C ,  8-H ) :   0.9493 B(  6-C ,  9-C ) :   1.0675
B(  9-C , 10-H ) :   0.9522 B(  9-C , 11-H ) :   0.9538 B(  9-C , 12-C ) :   1.0842
B( 12-C , 13-H ) :   0.9732 B( 12-C , 14-H ) :   0.9731 B( 12-C , 15-H ) :   0.9664
B( 16-S , 17-C ) :   1.1024 B( 16-S , 20-C ) :   1.1183 B( 17-C , 18-C ) :   1.6665
B( 17-C , 33-H ) :   0.9742 B( 18-C , 19-C ) :   1.2017 B( 18-C , 21-H ) :   0.9931
B( 19-C , 20-C ) :   1.6101 B( 19-C , 22-C ) :   1.0331 B( 22-C , 23-H ) :   0.9423
B( 22-C , 24-H ) :   0.9291 B( 22-C , 25-C ) :   1.0659 B( 25-C , 26-H ) :   0.9621
B( 25-C , 27-H ) :   0.9532 B( 25-C , 28-C ) :   1.0620 B( 28-C , 29-H ) :   0.9804
B( 28-C , 30-H ) :   0.9706 B( 28-C , 31-H ) :   0.9760

Dispersion correction           -0.014017744
FINAL SINGLE POINT ENERGY     -1339.853543238092

DIPOLE MOMENT
-------------
                                X             Y             Z
Electronic contribution:    -17.65125     -13.53957      13.37725
Nuclear contribution   :     18.11046      13.61246     -13.85915
                        -----------------------------------------
Total Dipole Moment    :      0.45921       0.07289      -0.48190
                        -----------------------------------------
Magnitude (a.u.)       :      0.66964
Magnitude (Debye)      :      1.70209

Rotational constants in cm-1:     0.019452     0.008285     0.006584
Rotational constants in MHz :   583.154504   248.387884   197.380171

                             ****ORCA TERMINATED NORMALLY****
TOTAL RUN TIME: 0 days 0 hours 0 minutes 21 seconds 519 msec
