                         Program Version 4.2.1 -  RELEASE  -
|  1> ! wB97X-D3 SP def2-SVP
|  2> %pal
|  3> nprocs 24
|  4> end
|  5>
|  6> * xyz 0 1
|  7> S 	 -122.822 	 26.0308 	 -114.781
|  8> C 	 -121.665 	 26.4044 	 -113.53
|  9> C 	 -122.234 	 26.9931 	 -112.436
| 10> C 	 -123.645 	 27.1834 	 -112.624
| 11> C 	 -124.13 	 26.6258 	 -113.778
| 12> H 	 -124.365 	 27.6942 	 -111.994
| 13> C 	 -121.411 	 27.6254 	 -111.327
| 14> H 	 -122.269 	 27.9876 	 -110.756
| 15> H 	 -120.876 	 28.5495 	 -111.581
| 16> C 	 -120.417 	 26.623 	 -110.616
| 17> H 	 -119.794 	 26.0376 	 -111.337
| 18> H 	 -119.612 	 27.1094 	 -110.012
| 19> C 	 -121.238 	 25.6793 	 -109.783
| 20> H 	 -120.607 	 25.1313 	 -109.068
| 21> H 	 -122.05 	 26.1489 	 -109.293
| 22> H 	 -121.674 	 24.9967 	 -110.51
| 23> S 	 -125.745 	 27.6821 	 -115.823
| 24> C 	 -127.41 	 28.1171 	 -115.361
| 25> C 	 -127.769 	 27.3634 	 -114.25
| 26> C 	 -126.697 	 26.6495 	 -113.541
| 27> C 	 -125.506 	 26.7935 	 -114.242
| 28> H 	 -128.774 	 27.3369 	 -113.857
| 29> C 	 -126.923 	 26.0747 	 -112.152
| 30> H 	 -125.925 	 25.8522 	 -111.76
| 31> H 	 -127.466 	 25.0778 	 -112.16
| 32> C 	 -127.434 	 26.9872 	 -111.045
| 33> H 	 -128.464 	 27.2367 	 -111.328
| 34> H 	 -126.877 	 27.9763 	 -111.039
| 35> C 	 -127.222 	 26.377 	 -109.654
| 36> H 	 -127.895 	 25.5627 	 -109.604
| 37> H 	 -127.396 	 27.0939 	 -108.867
| 38> H 	 -126.239 	 25.925 	 -109.522
| 39> H 	 -120.575 	 26.2799 	 -113.628
| 40> H 	 -128.044 	 28.5303 	 -116.035
| 41> *
| 42>
| 43>                          ****END OF INPUT****

CARTESIAN COORDINATES (ANGSTROEM)
---------------------------------
  S    -122.822000   26.030800  -114.781000
  C    -121.665000   26.404400  -113.530000
  C    -122.234000   26.993100  -112.436000
  C    -123.645000   27.183400  -112.624000
  C    -124.130000   26.625800  -113.778000
  H    -124.365000   27.694200  -111.994000
  C    -121.411000   27.625400  -111.327000
  H    -122.269000   27.987600  -110.756000
  H    -120.876000   28.549500  -111.581000
  C    -120.417000   26.623000  -110.616000
  H    -119.794000   26.037600  -111.337000
  H    -119.612000   27.109400  -110.012000
  C    -121.238000   25.679300  -109.783000
  H    -120.607000   25.131300  -109.068000
  H    -122.050000   26.148900  -109.293000
  H    -121.674000   24.996700  -110.510000
  S    -125.745000   27.682100  -115.823000
  C    -127.410000   28.117100  -115.361000
  C    -127.769000   27.363400  -114.250000
  C    -126.697000   26.649500  -113.541000
  C    -125.506000   26.793500  -114.242000
  H    -128.774000   27.336900  -113.857000
  C    -126.923000   26.074700  -112.152000
  H    -125.925000   25.852200  -111.760000
  H    -127.466000   25.077800  -112.160000
  C    -127.434000   26.987200  -111.045000
  H    -128.464000   27.236700  -111.328000
  H    -126.877000   27.976300  -111.039000
  C    -127.222000   26.377000  -109.654000
  H    -127.895000   25.562700  -109.604000
  H    -127.396000   27.093900  -108.867000
  H    -126.239000   25.925000  -109.522000
  H    -120.575000   26.279900  -113.628000
  H    -128.044000   28.530300  -116.035000

 Total Charge           Charge          ....    0
 Multiplicity           Mult            ....    1
 Number of Electrons    NEL             ....  134
 Basis Dimension        Dim             ....  322

ORBITAL ENERGIES
----------------

  NO   OCC          E(Eh)            E(eV)
   0   2.0000     -88.967700     -2420.9342
   1   2.0000     -88.962462     -2420.7917
   2   2.0000     -10.335974      -281.2562
   3   2.0000     -10.328052      -281.0406
   4   2.0000     -10.317954      -280.7658
   5   2.0000     -10.314122      -280.6615
   6   2.0000     -10.311513      -280.5905
   7   2.0000     -10.300699      -280.2963
   8   2.0000     -10.300521      -280.2914
   9   2.0000     -10.298056      -280.2244
  10   2.0000     -10.296441      -280.1804
  11   2.0000     -10.296130      -280.1719
  12   2.0000     -10.294527      -280.1283
  13   2.0000     -10.294511      -280.1279
  14   2.0000     -10.278895      -279.7030
  15   2.0000     -10.269757      -279.4543
  16   2.0000      -8.082548      -219.9373
  17   2.0000      -8.076009      -219.7594
  18   2.0000      -6.041070      -164.3859
  19   2.0000      -6.037094      -164.2777
  20   2.0000      -6.034782      -164.2148
  21   2.0000      -6.033237      -164.1727
  22   2.0000      -6.030830      -164.1072
  23   2.0000      -6.026391      -163.9864
  24   2.0000      -1.005019       -27.3480
  25   2.0000      -0.976865       -26.5818
  26   2.0000      -0.912900       -24.8413
  27   2.0000      -0.911272       -24.7970
  28   2.0000      -0.870050       -23.6753
  29   2.0000      -0.853725       -23.2311
  30   2.0000      -0.845241       -23.0002
  31   2.0000      -0.811988       -22.0953
  32   2.0000      -0.782590       -21.2954
  33   2.0000      -0.772169       -21.0118
  34   2.0000      -0.709473       -19.3058
  35   2.0000      -0.702587       -19.1184
  36   2.0000      -0.697636       -18.9836
  37   2.0000      -0.661549       -18.0017
  38   2.0000      -0.641868       -17.4661
  39   2.0000      -0.611296       -16.6342
  40   2.0000      -0.600536       -16.3414
  41   2.0000      -0.572023       -15.5655
  42   2.0000      -0.568824       -15.4785
  43   2.0000      -0.551713       -15.0129
  44   2.0000      -0.534909       -14.5556
  45   2.0000      -0.528756       -14.3882
  46   2.0000      -0.517640       -14.0857
  47   2.0000      -0.515631       -14.0310
  48   2.0000      -0.512948       -13.9580
  49   2.0000      -0.492218       -13.3939
  50   2.0000      -0.490134       -13.3372
  51   2.0000      -0.480236       -13.0679
  52   2.0000      -0.475185       -12.9304
  53   2.0000      -0.468586       -12.7509
  54   2.0000      -0.458052       -12.4642
  55   2.0000      -0.449145       -12.2218
  56   2.0000      -0.446094       -12.1388
  57   2.0000      -0.438608       -11.9351
  58   2.0000      -0.430964       -11.7271
  59   2.0000      -0.420387       -11.4393
  60   2.0000      -0.419195       -11.4069
  61   2.0000      -0.411684       -11.2025
  62   2.0000      -0.410850       -11.1798
  63   2.0000      -0.349382        -9.5072
  64   2.0000      -0.331704        -9.0261
  65   2.0000      -0.328134        -8.9290
  66   2.0000      -0.294692        -8.0190
  67   0.0000       0.025846         0.7033
  68   0.0000       0.062363         1.6970
  69   0.0000       0.106797         2.9061
  70   0.0000       0.116779         3.1777
  71   0.0000       0.122402         3.3307

MULLIKEN ATOMIC CHARGES
-----------------------
   0 S :    0.112143
   1 C :   -0.126771
   2 C :   -0.087216
   3 C :    0.024956
   4 C :   -0.155994
   5 H :    0.013565
   6 C :    0.045910
   7 H :    0.017361
   8 H :    0.049128
   9 C :   -0.090461
  10 H :    0.031113
  11 H :    0.030034
  12 C :   -0.026522
  13 H :    0.035059
  14 H :    0.020084
  15 H :    0.037619
  16 S :    0.071789
  17 C :   -0.049701
  18 C :   -0.031301
  19 C :   -0.031775
  20 C :   -0.131491
  21 H :    0.020591
  22 C :    0.026613
  23 H :    0.011756
  24 H :    0.053085
  25 C :   -0.107423
  26 H :    0.031175
  27 H :    0.038044
  28 C :   -0.015327
  29 H :    0.019279
  30 H :    0.041484
  31 H :    0.031060
  32 H :    0.058786
  33 H :    0.033349
Sum of atomic charges:   -0.0000000

LOEWDIN ATOMIC CHARGES
----------------------
   0 S :    0.405568
   1 C :   -0.191486
   2 C :   -0.073403
   3 C :   -0.060153
   4 C :   -0.194906
   5 H :    0.032081
   6 C :   -0.031862
   7 H :    0.030037
   8 H :    0.034428
   9 C :   -0.043749
  10 H :    0.025879
  11 H :    0.023216
  12 C :   -0.062467
  13 H :    0.026503
  14 H :    0.017130
  15 H :    0.029978
  16 S :    0.350875
  17 C :   -0.156425
  18 C :   -0.059388
  19 C :   -0.053527
  20 C :   -0.164429
  21 H :    0.026023
  22 C :   -0.044644
  23 H :    0.027942
  24 H :    0.041774
  25 C :   -0.044282
  26 H :    0.019851
  27 H :    0.027720
  28 C :   -0.057619
  29 H :    0.021141
  30 H :    0.028276
  31 H :    0.028082
  32 H :    0.033037
  33 H :    0.008797

  Mayer bond orders larger than 0.100000
B(  0-S ,  1-C ) :   1.1426 B(  0-S ,  4-C ) :   1.1421 B(  1-C ,  2-C ) :   1.6159
B(  1-C , 32-H ) :   0.9634 B(  2-C ,  3-C ) :   1.2322 B(  2-C ,  6-C ) :   0.9918
B(  3-C ,  4-C ) :   1.5897 B(  3-C ,  5-H ) :   0.9848 B(  4-C , 20-C ) :   1.0314
B(  6-C ,  7-H ) :   0.9528 B(  6-C ,  8-H ) :   0.9466 B(  6-C ,  9-C ) :   1.0532
B(  9-C , 10-H ) :   0.9598 B(  9-C , 11-H ) :   0.9614 B(  9-C , 12-C ) :   1.0647
B( 12-C , 13-H ) :   0.9742 B( 12-C , 14-H ) :   0.9787 B( 12-C , 15-H ) :   0.9743
B( 16-S , 17-C ) :   1.1267 B( 16-S , 20-C ) :   1.1130 B( 17-C , 18-C ) :   1.6395
B( 17-C , 33-H ) :   0.9790 B( 18-C , 19-C ) :   1.1975 B( 18-C , 21-H ) :   0.9848
B( 19-C , 20-C ) :   1.6338 B( 19-C , 22-C ) :   1.0493 B( 22-C , 23-H ) :   0.9348
B( 22-C , 24-H ) :   0.9295 B( 22-C , 25-C ) :   1.0533 B( 25-C , 26-H ) :   0.9520
B( 25-C , 27-H ) :   0.9550 B( 25-C , 28-C ) :   1.0773 B( 28-C , 29-H ) :   0.9735
B( 28-C , 30-H ) :   0.9748 B( 28-C , 31-H ) :   0.9728

Dispersion correction           -0.014402321
FINAL SINGLE POINT ENERGY     -1339.862689283794

DIPOLE MOMENT
-------------
                                X             Y             Z
Electronic contribution:     -1.55682       2.25286     -30.72079
Nuclear contribution   :      1.44655      -2.11651      31.41742
                        -----------------------------------------
Total Dipole Moment    :     -0.11028       0.13636       0.69664
                        -----------------------------------------
Magnitude (a.u.)       :      0.71837
Magnitude (Debye)      :      1.82595

Rotational constants in cm-1:     0.017433     0.009458     0.006609
Rotational constants in MHz :   522.638528   283.535206   198.122612

                             ****ORCA TERMINATED NORMALLY****
TOTAL RUN TIME: 0 days 0 hours 0 minutes 21 seconds 974 msec
