                         Program Version 4.2.1 -  RELEASE  -
|  1> ! wB97X-D3 SP def2-SVP
|  2> %pal
|  3> nprocs 24
|  4> end
|  5>
|  6> * xyz 0 1
|  7> S 	 -114.834 	 53.4803 	 -95.9438
|  8> C 	 -114.553 	 55.05 	 -96.6272
|  9> C 	 -114.332 	 56.0383 	 -95.71
| 10> C 	 -114.392 	 55.4645 	 -94.4187
| 11> C 	 -114.782 	 54.1682 	 -94.3108
| 12> H 	 -114.14 	 56.1648 	 -93.6078
| 13> C 	 -113.931 	 57.5298 	 -95.8685
| 14> H 	 -114.036 	 57.6918 	 -96.8763
| 15> H 	 -112.899 	 57.766 	 -95.7067
| 16> C 	 -114.887 	 58.5688 	 -95.2164
| 17> H 	 -115.892 	 58.176 	 -95.1128
| 18> H 	 -114.637 	 58.7407 	 -94.1964
| 19> C 	 -114.878 	 59.9263 	 -95.897
| 20> H 	 -115.274 	 59.8364 	 -96.9119
| 21> H 	 -115.529 	 60.6113 	 -95.3756
| 22> H 	 -113.934 	 60.4576 	 -95.8376
| 23> S 	 -113.946 	 51.7311 	 -93.181
| 24> C 	 -114.214 	 51.3813 	 -91.4701
| 25> C 	 -114.886 	 52.4044 	 -90.9138
| 26> C 	 -115.145 	 53.5448 	 -91.8028
| 27> C 	 -114.705 	 53.3265 	 -93.1101
| 28> H 	 -115.275 	 52.4415 	 -89.8711
| 29> C 	 -115.743 	 54.8341 	 -91.233
| 30> H 	 -116.651 	 54.5067 	 -90.7306
| 31> H 	 -116.07 	 55.4401 	 -92.0938
| 32> C 	 -114.809 	 55.6085 	 -90.2757
| 33> H 	 -113.941 	 55.9063 	 -90.9137
| 34> H 	 -114.615 	 54.9034 	 -89.4339
| 35> C 	 -115.406 	 56.9086 	 -89.7696
| 36> H 	 -115.099 	 57.72 	 -90.4104
| 37> H 	 -115.058 	 57.1456 	 -88.8434
| 38> H 	 -116.496 	 56.9215 	 -89.7057
| 39> H 	 -114.541 	 55.2379 	 -97.6422
| 40> H 	 -114.062 	 50.4743 	 -90.9334
| 41> *
| 42>
| 43>                          ****END OF INPUT****

CARTESIAN COORDINATES (ANGSTROEM)
---------------------------------
  S    -114.834000   53.480300  -95.943800
  C    -114.553000   55.050000  -96.627200
  C    -114.332000   56.038300  -95.710000
  C    -114.392000   55.464500  -94.418700
  C    -114.782000   54.168200  -94.310800
  H    -114.140000   56.164800  -93.607800
  C    -113.931000   57.529800  -95.868500
  H    -114.036000   57.691800  -96.876300
  H    -112.899000   57.766000  -95.706700
  C    -114.887000   58.568800  -95.216400
  H    -115.892000   58.176000  -95.112800
  H    -114.637000   58.740700  -94.196400
  C    -114.878000   59.926300  -95.897000
  H    -115.274000   59.836400  -96.911900
  H    -115.529000   60.611300  -95.375600
  H    -113.934000   60.457600  -95.837600
  S    -113.946000   51.731100  -93.181000
  C    -114.214000   51.381300  -91.470100
  C    -114.886000   52.404400  -90.913800
  C    -115.145000   53.544800  -91.802800
  C    -114.705000   53.326500  -93.110100
  H    -115.275000   52.441500  -89.871100
  C    -115.743000   54.834100  -91.233000
  H    -116.651000   54.506700  -90.730600
  H    -116.070000   55.440100  -92.093800
  C    -114.809000   55.608500  -90.275700
  H    -113.941000   55.906300  -90.913700
  H    -114.615000   54.903400  -89.433900
  C    -115.406000   56.908600  -89.769600
  H    -115.099000   57.720000  -90.410400
  H    -115.058000   57.145600  -88.843400
  H    -116.496000   56.921500  -89.705700
  H    -114.541000   55.237900  -97.642200
  H    -114.062000   50.474300  -90.933400

 Total Charge           Charge          ....    0
 Multiplicity           Mult            ....    1
 Number of Electrons    NEL             ....  134
 Basis Dimension        Dim             ....  322

ORBITAL ENERGIES
----------------

  NO   OCC          E(Eh)            E(eV)
   0   2.0000     -88.969226     -2420.9757
   1   2.0000     -88.961221     -2420.7579
   2   2.0000     -10.331397      -281.1316
   3   2.0000     -10.330614      -281.1103
   4   2.0000     -10.313895      -280.6553
   5   2.0000     -10.311596      -280.5928
   6   2.0000     -10.301833      -280.3271
   7   2.0000     -10.299642      -280.2675
   8   2.0000     -10.293879      -280.1107
   9   2.0000     -10.292025      -280.0602
  10   2.0000     -10.291600      -280.0487
  11   2.0000     -10.291360      -280.0421
  12   2.0000     -10.289741      -279.9981
  13   2.0000     -10.286486      -279.9095
  14   2.0000     -10.279868      -279.7294
  15   2.0000     -10.268687      -279.4252
  16   2.0000      -8.083902      -219.9742
  17   2.0000      -8.075516      -219.7460
  18   2.0000      -6.042556      -164.4263
  19   2.0000      -6.038517      -164.3164
  20   2.0000      -6.034411      -164.2047
  21   2.0000      -6.034370      -164.2036
  22   2.0000      -6.030073      -164.0866
  23   2.0000      -6.025920      -163.9736
  24   2.0000      -1.007325       -27.4107
  25   2.0000      -0.983083       -26.7510
  26   2.0000      -0.913422       -24.8555
  27   2.0000      -0.906982       -24.6802
  28   2.0000      -0.873724       -23.7752
  29   2.0000      -0.854095       -23.2411
  30   2.0000      -0.844265       -22.9736
  31   2.0000      -0.819200       -22.2916
  32   2.0000      -0.787081       -21.4176
  33   2.0000      -0.773901       -21.0589
  34   2.0000      -0.713594       -19.4179
  35   2.0000      -0.702759       -19.1230
  36   2.0000      -0.693754       -18.8780
  37   2.0000      -0.657432       -17.8896
  38   2.0000      -0.644111       -17.5271
  39   2.0000      -0.628313       -17.0973
  40   2.0000      -0.590871       -16.0784
  41   2.0000      -0.576151       -15.6779
  42   2.0000      -0.570283       -15.5182
  43   2.0000      -0.562563       -15.3081
  44   2.0000      -0.526263       -14.3204
  45   2.0000      -0.522442       -14.2164
  46   2.0000      -0.519583       -14.1386
  47   2.0000      -0.513519       -13.9736
  48   2.0000      -0.506108       -13.7719
  49   2.0000      -0.503950       -13.7132
  50   2.0000      -0.496715       -13.5163
  51   2.0000      -0.483653       -13.1609
  52   2.0000      -0.468424       -12.7465
  53   2.0000      -0.464410       -12.6372
  54   2.0000      -0.461481       -12.5575
  55   2.0000      -0.449796       -12.2396
  56   2.0000      -0.446647       -12.1539
  57   2.0000      -0.435225       -11.8431
  58   2.0000      -0.431007       -11.7283
  59   2.0000      -0.426239       -11.5986
  60   2.0000      -0.422733       -11.5032
  61   2.0000      -0.420536       -11.4434
  62   2.0000      -0.409765       -11.1503
  63   2.0000      -0.358857        -9.7650
  64   2.0000      -0.335033        -9.1167
  65   2.0000      -0.324170        -8.8211
  66   2.0000      -0.291971        -7.9449
  67   0.0000       0.028910         0.7867
  68   0.0000       0.077343         2.1046
  69   0.0000       0.109318         2.9747
  70   0.0000       0.119569         3.2536
  71   0.0000       0.129322         3.5190

MULLIKEN ATOMIC CHARGES
-----------------------
   0 S :    0.107043
   1 C :   -0.093667
   2 C :   -0.108331
   3 C :    0.003452
   4 C :   -0.108422
   5 H :    0.013745
   6 C :    0.139615
   7 H :   -0.019908
   8 H :    0.038664
   9 C :   -0.076011
  10 H :    0.031125
  11 H :    0.014978
  12 C :   -0.053012
  13 H :    0.039707
  14 H :    0.024049
  15 H :    0.033054
  16 S :    0.080951
  17 C :   -0.065117
  18 C :   -0.037571
  19 C :   -0.082225
  20 C :   -0.124483
  21 H :    0.031199
  22 C :    0.042546
  23 H :    0.022366
  24 H :    0.023846
  25 C :   -0.093864
  26 H :    0.043924
  27 H :    0.037599
  28 C :    0.019703
  29 H :    0.021034
  30 H :    0.007059
  31 H :    0.024038
  32 H :    0.012528
  33 H :    0.050389
Sum of atomic charges:    0.0000000

LOEWDIN ATOMIC CHARGES
----------------------
   0 S :    0.404739
   1 C :   -0.176687
   2 C :   -0.064513
   3 C :   -0.057139
   4 C :   -0.189062
   5 H :    0.032041
   6 C :   -0.021790
   7 H :    0.018173
   8 H :    0.033734
   9 C :   -0.039763
  10 H :    0.027430
  11 H :    0.016315
  12 C :   -0.063993
  13 H :    0.026613
  14 H :    0.026987
  15 H :    0.026372
  16 S :    0.378817
  17 C :   -0.178824
  18 C :   -0.074833
  19 C :   -0.060001
  20 C :   -0.188386
  21 H :    0.035264
  22 C :   -0.037852
  23 H :    0.027272
  24 H :    0.027572
  25 C :   -0.039581
  26 H :    0.032532
  27 H :    0.027950
  28 C :   -0.058536
  29 H :    0.025973
  30 H :    0.013689
  31 H :    0.026040
  32 H :    0.011796
  33 H :    0.031649

  Mayer bond orders larger than 0.100000
B(  0-S ,  1-C ) :   1.1528 B(  0-S ,  4-C ) :   1.1218 B(  1-C ,  2-C ) :   1.6235
B(  1-C , 32-H ) :   0.9676 B(  2-C ,  3-C ) :   1.2667 B(  2-C ,  6-C ) :   1.0136
B(  3-C ,  4-C ) :   1.5638 B(  3-C ,  5-H ) :   0.9861 B(  4-C , 20-C ) :   1.0502
B(  6-C ,  7-H ) :   0.9295 B(  6-C ,  8-H ) :   0.9390 B(  6-C ,  9-C ) :   1.0473
B(  9-C , 10-H ) :   0.9588 B(  9-C , 11-H ) :   0.9497 B(  9-C , 12-C ) :   1.1037
B( 12-C , 13-H ) :   0.9743 B( 12-C , 14-H ) :   0.9706 B( 12-C , 15-H ) :   0.9730
B( 16-S , 17-C ) :   1.1237 B( 16-S , 20-C ) :   1.1163 B( 17-C , 18-C ) :   1.6430
B( 17-C , 33-H ) :   0.9688 B( 18-C , 19-C ) :   1.2275 B( 18-C , 21-H ) :   0.9768
B( 19-C , 20-C ) :   1.6240 B( 19-C , 22-C ) :   1.0487 B( 22-C , 23-H ) :   0.9273
B( 22-C , 24-H ) :   0.9348 B( 22-C , 25-C ) :   1.0677 B( 25-C , 26-H ) :   0.9588
B( 25-C , 27-H ) :   0.9550 B( 25-C , 28-C ) :   1.0794 B( 28-C , 29-H ) :   0.9748
B( 28-C , 30-H ) :   0.9709 B( 28-C , 31-H ) :   0.9732

Dispersion correction           -0.013781451
FINAL SINGLE POINT ENERGY     -1339.869461279090

DIPOLE MOMENT
-------------
                                X             Y             Z
Electronic contribution:      3.70590     -32.02755     -10.06631
Nuclear contribution   :     -3.74635      32.85511      10.37838
                        -----------------------------------------
Total Dipole Moment    :     -0.04045       0.82756       0.31207
                        -----------------------------------------
Magnitude (a.u.)       :      0.88537
Magnitude (Debye)      :      2.25044

Rotational constants in cm-1:     0.016742     0.009301     0.006213
Rotational constants in MHz :   501.915896   278.840757   186.253965

                             ****ORCA TERMINATED NORMALLY****
TOTAL RUN TIME: 0 days 0 hours 0 minutes 21 seconds 448 msec
