                         Program Version 4.2.1 -  RELEASE  -
|  1> ! wB97X-D3 SP def2-SVP
|  2> %pal
|  3> nprocs 24
|  4> end
|  5>
|  6> * xyz 0 1
|  7> S 	 -38.9156 	 -7.30379 	 11.5846
|  8> C 	 -37.7738 	 -6.05774 	 11.0359
|  9> C 	 -38.1494 	 -5.39883 	 9.9195
| 10> C 	 -39.4459 	 -5.86707 	 9.50722
| 11> C 	 -40.0463 	 -6.79677 	 10.3457
| 12> H 	 -39.9778 	 -5.41928 	 8.65937
| 13> C 	 -37.3378 	 -4.38256 	 9.23999
| 14> H 	 -36.4545 	 -4.09952 	 9.87316
| 15> H 	 -37.9266 	 -3.44292 	 9.20003
| 16> C 	 -36.8273 	 -4.86124 	 7.82222
| 17> H 	 -36.2467 	 -5.77639 	 7.86131
| 18> H 	 -37.6069 	 -5.15742 	 7.17425
| 19> C 	 -35.8493 	 -4.00758 	 7.03675
| 20> H 	 -35.3456 	 -4.59656 	 6.21817
| 21> H 	 -36.3991 	 -3.19488 	 6.66115
| 22> H 	 -35.0536 	 -3.64863 	 7.71367
| 23> S 	 -41.6316 	 -8.99219 	 10.1388
| 24> C 	 -43.3571 	 -8.81212 	 10.3425
| 25> C 	 -43.7611 	 -7.45427 	 10.2571
| 26> C 	 -42.6585 	 -6.62618 	 10.3106
| 27> C 	 -41.4302 	 -7.2399 	 10.3121
| 28> H 	 -44.8047 	 -7.14928 	 10.4809
| 29> C 	 -42.7461 	 -5.14438 	 10.4423
| 30> H 	 -41.8872 	 -4.645 	 10.8601
| 31> H 	 -43.5724 	 -4.94947 	 11.0998
| 32> C 	 -43.1277 	 -4.52687 	 9.11604
| 33> H 	 -44.0803 	 -4.82868 	 8.71382
| 34> H 	 -42.2799 	 -4.55123 	 8.37573
| 35> C 	 -43.2543 	 -2.96815 	 9.41284
| 36> H 	 -43.0789 	 -2.50564 	 8.42205
| 37> H 	 -42.3725 	 -2.61791 	 9.95207
| 38> H 	 -44.1624 	 -2.77004 	 9.96142
| 39> H 	 -36.952 	 -5.81933 	 11.6574
| 40> H 	 -43.9888 	 -9.632 	 10.265
| 41> *
| 42>
| 43>                          ****END OF INPUT****

CARTESIAN COORDINATES (ANGSTROEM)
---------------------------------
  S    -38.915600   -7.303790   11.584600
  C    -37.773800   -6.057740   11.035900
  C    -38.149400   -5.398830    9.919500
  C    -39.445900   -5.867070    9.507220
  C    -40.046300   -6.796770   10.345700
  H    -39.977800   -5.419280    8.659370
  C    -37.337800   -4.382560    9.239990
  H    -36.454500   -4.099520    9.873160
  H    -37.926600   -3.442920    9.200030
  C    -36.827300   -4.861240    7.822220
  H    -36.246700   -5.776390    7.861310
  H    -37.606900   -5.157420    7.174250
  C    -35.849300   -4.007580    7.036750
  H    -35.345600   -4.596560    6.218170
  H    -36.399100   -3.194880    6.661150
  H    -35.053600   -3.648630    7.713670
  S    -41.631600   -8.992190   10.138800
  C    -43.357100   -8.812120   10.342500
  C    -43.761100   -7.454270   10.257100
  C    -42.658500   -6.626180   10.310600
  C    -41.430200   -7.239900   10.312100
  H    -44.804700   -7.149280   10.480900
  C    -42.746100   -5.144380   10.442300
  H    -41.887200   -4.645000   10.860100
  H    -43.572400   -4.949470   11.099800
  C    -43.127700   -4.526870    9.116040
  H    -44.080300   -4.828680    8.713820
  H    -42.279900   -4.551230    8.375730
  C    -43.254300   -2.968150    9.412840
  H    -43.078900   -2.505640    8.422050
  H    -42.372500   -2.617910    9.952070
  H    -44.162400   -2.770040    9.961420
  H    -36.952000   -5.819330   11.657400
  H    -43.988800   -9.632000   10.265000

 Total Charge           Charge          ....    0
 Multiplicity           Mult            ....    1
 Number of Electrons    NEL             ....  134
 Basis Dimension        Dim             ....  322

ORBITAL ENERGIES
----------------

  NO   OCC          E(Eh)            E(eV)
   0   2.0000     -88.963358     -2420.8161
   1   2.0000     -88.962445     -2420.7912
   2   2.0000     -10.329530      -281.0808
   3   2.0000     -10.320592      -280.8376
   4   2.0000     -10.317143      -280.7437
   5   2.0000     -10.309591      -280.5382
   6   2.0000     -10.303641      -280.3763
   7   2.0000     -10.298172      -280.2275
   8   2.0000     -10.296980      -280.1951
   9   2.0000     -10.296368      -280.1784
  10   2.0000     -10.295028      -280.1419
  11   2.0000     -10.288853      -279.9739
  12   2.0000     -10.283682      -279.8332
  13   2.0000     -10.281848      -279.7833
  14   2.0000     -10.279031      -279.7066
  15   2.0000     -10.278222      -279.6846
  16   2.0000      -8.078096      -219.8162
  17   2.0000      -8.077238      -219.7928
  18   2.0000      -6.036582      -164.2637
  19   2.0000      -6.035498      -164.2343
  20   2.0000      -6.032783      -164.1604
  21   2.0000      -6.031750      -164.1323
  22   2.0000      -6.028695      -164.0491
  23   2.0000      -6.028253      -164.0371
  24   2.0000      -1.006678       -27.3931
  25   2.0000      -0.985543       -26.8180
  26   2.0000      -0.915123       -24.9018
  27   2.0000      -0.912044       -24.8180
  28   2.0000      -0.871814       -23.7233
  29   2.0000      -0.851062       -23.1586
  30   2.0000      -0.848307       -23.0836
  31   2.0000      -0.812632       -22.1129
  32   2.0000      -0.781524       -21.2664
  33   2.0000      -0.769416       -20.9369
  34   2.0000      -0.706552       -19.2263
  35   2.0000      -0.696692       -18.9580
  36   2.0000      -0.695526       -18.9262
  37   2.0000      -0.668299       -18.1853
  38   2.0000      -0.644150       -17.5282
  39   2.0000      -0.620554       -16.8861
  40   2.0000      -0.601139       -16.3578
  41   2.0000      -0.575743       -15.6668
  42   2.0000      -0.567986       -15.4557
  43   2.0000      -0.559417       -15.2225
  44   2.0000      -0.531739       -14.4693
  45   2.0000      -0.526684       -14.3318
  46   2.0000      -0.518972       -14.1219
  47   2.0000      -0.510501       -13.8914
  48   2.0000      -0.509899       -13.8751
  49   2.0000      -0.500684       -13.6243
  50   2.0000      -0.489899       -13.3308
  51   2.0000      -0.476703       -12.9718
  52   2.0000      -0.474297       -12.9063
  53   2.0000      -0.462482       -12.5848
  54   2.0000      -0.453615       -12.3435
  55   2.0000      -0.452002       -12.2996
  56   2.0000      -0.444915       -12.1067
  57   2.0000      -0.440277       -11.9806
  58   2.0000      -0.432678       -11.7738
  59   2.0000      -0.430248       -11.7076
  60   2.0000      -0.429392       -11.6843
  61   2.0000      -0.411380       -11.1942
  62   2.0000      -0.399262       -10.8645
  63   2.0000      -0.339166        -9.2292
  64   2.0000      -0.333946        -9.0871
  65   2.0000      -0.329075        -8.9546
  66   2.0000      -0.292150        -7.9498
  67   0.0000       0.030321         0.8251
  68   0.0000       0.063342         1.7236
  69   0.0000       0.111497         3.0340
  70   0.0000       0.120900         3.2899
  71   0.0000       0.128062         3.4848

MULLIKEN ATOMIC CHARGES
-----------------------
   0 S :    0.106102
   1 C :   -0.125193
   2 C :   -0.060864
   3 C :    0.026912
   4 C :   -0.137304
   5 H :    0.009906
   6 C :    0.075469
   7 H :    0.022210
   8 H :    0.037388
   9 C :   -0.086903
  10 H :    0.023252
  11 H :    0.018217
  12 C :   -0.041082
  13 H :    0.045948
  14 H :    0.022823
  15 H :    0.029390
  16 S :    0.093792
  17 C :   -0.070678
  18 C :   -0.053606
  19 C :    0.001113
  20 C :   -0.169874
  21 H :    0.038195
  22 C :    0.075816
  23 H :    0.030505
  24 H :    0.006642
  25 C :   -0.111181
  26 H :    0.036838
  27 H :    0.034412
  28 C :   -0.045466
  29 H :    0.032016
  30 H :    0.020374
  31 H :    0.042248
  32 H :    0.034561
  33 H :    0.038024
Sum of atomic charges:   -0.0000000

LOEWDIN ATOMIC CHARGES
----------------------
   0 S :    0.387269
   1 C :   -0.172037
   2 C :   -0.068908
   3 C :   -0.059086
   4 C :   -0.197089
   5 H :    0.029458
   6 C :   -0.031026
   7 H :    0.035774
   8 H :    0.034884
   9 C :   -0.044851
  10 H :    0.028295
  11 H :    0.017359
  12 C :   -0.061721
  13 H :    0.036059
  14 H :    0.014084
  15 H :    0.025860
  16 S :    0.400200
  17 C :   -0.164384
  18 C :   -0.076559
  19 C :   -0.056835
  20 C :   -0.195559
  21 H :    0.040530
  22 C :   -0.028412
  23 H :    0.030320
  24 H :    0.027024
  25 C :   -0.030833
  26 H :    0.021863
  27 H :    0.024504
  28 C :   -0.066351
  29 H :    0.028176
  30 H :    0.021396
  31 H :    0.021909
  32 H :    0.017577
  33 H :    0.011114

  Mayer bond orders larger than 0.100000
B(  0-S ,  1-C ) :   1.1255 B(  0-S ,  4-C ) :   1.1427 B(  1-C ,  2-C ) :   1.6413
B(  1-C , 32-H ) :   0.9689 B(  2-C ,  3-C ) :   1.2077 B(  2-C ,  6-C ) :   1.0444
B(  3-C ,  4-C ) :   1.5831 B(  3-C ,  5-H ) :   0.9957 B(  4-C , 20-C ) :   1.0252
B(  6-C ,  7-H ) :   0.9374 B(  6-C ,  8-H ) :   0.9314 B(  6-C ,  9-C ) :   1.0399
B(  9-C , 10-H ) :   0.9584 B(  9-C , 11-H ) :   0.9579 B(  9-C , 12-C ) :   1.0893
B( 12-C , 13-H ) :   0.9758 B( 12-C , 14-H ) :   0.9768 B( 12-C , 15-H ) :   0.9732
B( 16-S , 17-C ) :   1.1880 B( 16-S , 20-C ) :   1.1355 B( 17-C , 18-C ) :   1.5665
B( 17-C , 20-C ) :   0.1154 B( 17-C , 33-H ) :   0.9742 B( 18-C , 19-C ) :   1.2707
B( 18-C , 21-H ) :   0.9792 B( 19-C , 20-C ) :   1.6051 B( 19-C , 22-C ) :   1.0382
B( 22-C , 23-H ) :   0.9407 B( 22-C , 24-H ) :   0.9279 B( 22-C , 25-C ) :   1.0730
B( 25-C , 26-H ) :   0.9571 B( 25-C , 27-H ) :   0.9564 B( 25-C , 28-C ) :   1.0748
B( 28-C , 29-H ) :   0.9773 B( 28-C , 30-H ) :   0.9730 B( 28-C , 31-H ) :   0.9779

Dispersion correction           -0.014023702
FINAL SINGLE POINT ENERGY     -1339.864077197432

DIPOLE MOMENT
-------------
                                X             Y             Z
Electronic contribution:     -4.00606     -25.83056      14.25628
Nuclear contribution   :      3.94199      26.45802     -14.47579
                        -----------------------------------------
Total Dipole Moment    :     -0.06407       0.62747      -0.21951
                        -----------------------------------------
Magnitude (a.u.)       :      0.66784
Magnitude (Debye)      :      1.69750

Rotational constants in cm-1:     0.017798     0.008565     0.006673
Rotational constants in MHz :   533.566584   256.781581   200.065319

                             ****ORCA TERMINATED NORMALLY****
TOTAL RUN TIME: 0 days 0 hours 0 minutes 21 seconds 773 msec
