                         Program Version 4.2.1 -  RELEASE  -
|  1> ! wB97X-D3 SP def2-SVP
|  2> %pal
|  3> nprocs 24
|  4> end
|  5>
|  6> * xyz 0 1
|  7> S 	 20.4911 	 -26.3099 	 -116.976
|  8> C 	 21.3135 	 -27.6921 	 -117.563
|  9> C 	 22.6192 	 -27.4256 	 -117.959
| 10> C 	 22.9298 	 -26.0618 	 -117.783
| 11> C 	 21.8735 	 -25.3255 	 -117.343
| 12> H 	 23.8078 	 -25.4819 	 -118.116
| 13> C 	 23.5638 	 -28.4983 	 -118.516
| 14> H 	 24.2161 	 -27.955 	 -119.216
| 15> H 	 22.9612 	 -29.217 	 -119.051
| 16> C 	 24.4776 	 -29.0719 	 -117.461
| 17> H 	 25.0256 	 -28.2447 	 -117.061
| 18> H 	 24.2098 	 -29.5464 	 -116.539
| 19> C 	 25.436 	 -30.1904 	 -117.984
| 20> H 	 25.7528 	 -29.909 	 -118.938
| 21> H 	 26.2914 	 -30.5001 	 -117.365
| 22> H 	 24.8962 	 -31.1829 	 -118.075
| 23> S 	 23.0222 	 -23.3883 	 -115.899
| 24> C 	 22.6337 	 -21.733 	 -116.237
| 25> C 	 21.832 	 -21.6106 	 -117.332
| 26> C 	 21.3053 	 -22.8569 	 -117.74
| 27> C 	 21.8985 	 -23.9385 	 -117.118
| 28> H 	 21.6329 	 -20.5709 	 -117.739
| 29> C 	 20.2449 	 -22.9089 	 -118.833
| 30> H 	 20.2305 	 -23.8979 	 -119.191
| 31> H 	 20.5901 	 -22.3876 	 -119.724
| 32> C 	 18.8989 	 -22.472 	 -118.304
| 33> H 	 19.2208 	 -21.6917 	 -117.607
| 34> H 	 18.3872 	 -23.3047 	 -117.865
| 35> C 	 17.8601 	 -21.9306 	 -119.339
| 36> H 	 18.2798 	 -21.2831 	 -120.156
| 37> H 	 17.0595 	 -21.3852 	 -118.883
| 38> H 	 17.4203 	 -22.8001 	 -119.833
| 39> H 	 20.9371 	 -28.6951 	 -117.353
| 40> H 	 23.1563 	 -20.907 	 -115.761
| 41> *
| 42>
| 43>                          ****END OF INPUT****

CARTESIAN COORDINATES (ANGSTROEM)
---------------------------------
  S     20.491100  -26.309900  -116.976000
  C     21.313500  -27.692100  -117.563000
  C     22.619200  -27.425600  -117.959000
  C     22.929800  -26.061800  -117.783000
  C     21.873500  -25.325500  -117.343000
  H     23.807800  -25.481900  -118.116000
  C     23.563800  -28.498300  -118.516000
  H     24.216100  -27.955000  -119.216000
  H     22.961200  -29.217000  -119.051000
  C     24.477600  -29.071900  -117.461000
  H     25.025600  -28.244700  -117.061000
  H     24.209800  -29.546400  -116.539000
  C     25.436000  -30.190400  -117.984000
  H     25.752800  -29.909000  -118.938000
  H     26.291400  -30.500100  -117.365000
  H     24.896200  -31.182900  -118.075000
  S     23.022200  -23.388300  -115.899000
  C     22.633700  -21.733000  -116.237000
  C     21.832000  -21.610600  -117.332000
  C     21.305300  -22.856900  -117.740000
  C     21.898500  -23.938500  -117.118000
  H     21.632900  -20.570900  -117.739000
  C     20.244900  -22.908900  -118.833000
  H     20.230500  -23.897900  -119.191000
  H     20.590100  -22.387600  -119.724000
  C     18.898900  -22.472000  -118.304000
  H     19.220800  -21.691700  -117.607000
  H     18.387200  -23.304700  -117.865000
  C     17.860100  -21.930600  -119.339000
  H     18.279800  -21.283100  -120.156000
  H     17.059500  -21.385200  -118.883000
  H     17.420300  -22.800100  -119.833000
  H     20.937100  -28.695100  -117.353000
  H     23.156300  -20.907000  -115.761000

 Total Charge           Charge          ....    0
 Multiplicity           Mult            ....    1
 Number of Electrons    NEL             ....  134
 Basis Dimension        Dim             ....  322

ORBITAL ENERGIES
----------------

  NO   OCC          E(Eh)            E(eV)
   0   2.0000     -88.967212     -2420.9209
   1   2.0000     -88.962366     -2420.7890
   2   2.0000     -10.319796      -280.8159
   3   2.0000     -10.318734      -280.7870
   4   2.0000     -10.312827      -280.6263
   5   2.0000     -10.309997      -280.5493
   6   2.0000     -10.301309      -280.3129
   7   2.0000     -10.300015      -280.2777
   8   2.0000     -10.297103      -280.1984
   9   2.0000     -10.294432      -280.1257
  10   2.0000     -10.292022      -280.0602
  11   2.0000     -10.281267      -279.7675
  12   2.0000     -10.281156      -279.7645
  13   2.0000     -10.280232      -279.7393
  14   2.0000     -10.277638      -279.6688
  15   2.0000     -10.277145      -279.6553
  16   2.0000      -8.082772      -219.9434
  17   2.0000      -8.077752      -219.8068
  18   2.0000      -6.040979      -164.3834
  19   2.0000      -6.037205      -164.2807
  20   2.0000      -6.036213      -164.2537
  21   2.0000      -6.033768      -164.1872
  22   2.0000      -6.032169      -164.1437
  23   2.0000      -6.028522      -164.0444
  24   2.0000      -1.016516       -27.6608
  25   2.0000      -0.991106       -26.9694
  26   2.0000      -0.913791       -24.8655
  27   2.0000      -0.909107       -24.7381
  28   2.0000      -0.877443       -23.8764
  29   2.0000      -0.853235       -23.2177
  30   2.0000      -0.845252       -23.0005
  31   2.0000      -0.814400       -22.1609
  32   2.0000      -0.785028       -21.3617
  33   2.0000      -0.770516       -20.9668
  34   2.0000      -0.708578       -19.2814
  35   2.0000      -0.700726       -19.0677
  36   2.0000      -0.694316       -18.8933
  37   2.0000      -0.664190       -18.0735
  38   2.0000      -0.644510       -17.5380
  39   2.0000      -0.617394       -16.8002
  40   2.0000      -0.600174       -16.3316
  41   2.0000      -0.573382       -15.6025
  42   2.0000      -0.562514       -15.3068
  43   2.0000      -0.555071       -15.1043
  44   2.0000      -0.528460       -14.3801
  45   2.0000      -0.521966       -14.2034
  46   2.0000      -0.518390       -14.1061
  47   2.0000      -0.514997       -14.0138
  48   2.0000      -0.506353       -13.7786
  49   2.0000      -0.505122       -13.7451
  50   2.0000      -0.496196       -13.5022
  51   2.0000      -0.473002       -12.8710
  52   2.0000      -0.466582       -12.6964
  53   2.0000      -0.465500       -12.6669
  54   2.0000      -0.459484       -12.5032
  55   2.0000      -0.448508       -12.2045
  56   2.0000      -0.447387       -12.1740
  57   2.0000      -0.441668       -12.0184
  58   2.0000      -0.430768       -11.7218
  59   2.0000      -0.425423       -11.5763
  60   2.0000      -0.416923       -11.3450
  61   2.0000      -0.415135       -11.2964
  62   2.0000      -0.402982       -10.9657
  63   2.0000      -0.344001        -9.3607
  64   2.0000      -0.336690        -9.1618
  65   2.0000      -0.328188        -8.9304
  66   2.0000      -0.296021        -8.0552
  67   0.0000       0.039589         1.0773
  68   0.0000       0.064751         1.7620
  69   0.0000       0.110848         3.0163
  70   0.0000       0.119642         3.2556
  71   0.0000       0.133503         3.6328

MULLIKEN ATOMIC CHARGES
-----------------------
   0 S :    0.130683
   1 C :   -0.124154
   2 C :   -0.096606
   3 C :    0.011907
   4 C :   -0.182785
   5 H :    0.028391
   6 C :    0.110658
   7 H :    0.027188
   8 H :    0.027709
   9 C :   -0.062209
  10 H :    0.015466
  11 H :    0.021724
  12 C :   -0.058103
  13 H :    0.010186
  14 H :    0.038449
  15 H :    0.031888
  16 S :    0.111921
  17 C :   -0.094318
  18 C :   -0.060324
  19 C :   -0.051903
  20 C :   -0.172961
  21 H :    0.046386
  22 C :    0.119033
  23 H :   -0.002404
  24 H :    0.020624
  25 C :   -0.063927
  26 H :    0.033750
  27 H :    0.032817
  28 C :   -0.057835
  29 H :    0.032127
  30 H :    0.034843
  31 H :    0.029565
  32 H :    0.054341
  33 H :    0.057871
Sum of atomic charges:   -0.0000000

LOEWDIN ATOMIC CHARGES
----------------------
   0 S :    0.432311
   1 C :   -0.211707
   2 C :   -0.060368
   3 C :   -0.068621
   4 C :   -0.206714
   5 H :    0.039352
   6 C :   -0.020196
   7 H :    0.037495
   8 H :    0.028846
   9 C :   -0.047107
  10 H :    0.022658
  11 H :    0.024286
  12 C :   -0.067405
  13 H :    0.008903
  14 H :    0.029054
  15 H :    0.029507
  16 S :    0.416312
  17 C :   -0.189292
  18 C :   -0.081817
  19 C :   -0.053520
  20 C :   -0.205065
  21 H :    0.045577
  22 C :   -0.029819
  23 H :    0.018187
  24 H :    0.031131
  25 C :   -0.037149
  26 H :    0.025306
  27 H :    0.026719
  28 C :   -0.068800
  29 H :    0.025836
  30 H :    0.023307
  31 H :    0.025448
  32 H :    0.028571
  33 H :    0.028774

  Mayer bond orders larger than 0.100000
B(  0-S ,  1-C ) :   1.1566 B(  0-S ,  4-C ) :   1.1583 B(  1-C ,  2-C ) :   1.6014
B(  1-C , 32-H ) :   0.9637 B(  2-C ,  3-C ) :   1.2539 B(  2-C ,  6-C ) :   1.0184
B(  3-C ,  4-C ) :   1.5798 B(  3-C ,  5-H ) :   0.9878 B(  4-C , 20-C ) :   1.0385
B(  6-C ,  7-H ) :   0.9310 B(  6-C ,  8-H ) :   0.9480 B(  6-C ,  9-C ) :   1.0526
B(  9-C , 10-H ) :   0.9527 B(  9-C , 11-H ) :   0.9653 B(  9-C , 12-C ) :   1.0700
B( 12-C , 13-H ) :   0.9753 B( 12-C , 14-H ) :   0.9757 B( 12-C , 15-H ) :   0.9775
B( 16-S , 17-C ) :   1.1598 B( 16-S , 20-C ) :   1.1441 B( 17-C , 18-C ) :   1.6199
B( 17-C , 33-H ) :   0.9639 B( 18-C , 19-C ) :   1.2306 B( 18-C , 21-H ) :   0.9796
B( 19-C , 20-C ) :   1.6005 B( 19-C , 22-C ) :   1.0485 B( 22-C , 23-H ) :   0.9169
B( 22-C , 24-H ) :   0.9382 B( 22-C , 25-C ) :   1.0492 B( 25-C , 26-H ) :   0.9679
B( 25-C , 27-H ) :   0.9517 B( 25-C , 28-C ) :   1.0753 B( 28-C , 29-H ) :   0.9782
B( 28-C , 30-H ) :   0.9761 B( 28-C , 31-H ) :   0.9763

Dispersion correction           -0.013806616
FINAL SINGLE POINT ENERGY     -1339.868149615452

DIPOLE MOMENT
-------------
                                X             Y             Z
Electronic contribution:     -0.12600       7.06264      12.41983
Nuclear contribution   :      0.28606      -7.07311     -12.72530
                        -----------------------------------------
Total Dipole Moment    :      0.16005      -0.01047      -0.30547
                        -----------------------------------------
Magnitude (a.u.)       :      0.34502
Magnitude (Debye)      :      0.87696

Rotational constants in cm-1:     0.023385     0.007152     0.006016
Rotational constants in MHz :   701.051791   214.410489   180.365347

                             ****ORCA TERMINATED NORMALLY****
TOTAL RUN TIME: 0 days 0 hours 0 minutes 19 seconds 947 msec
