                         Program Version 4.2.1 -  RELEASE  -
|  1> ! wB97X-D3 SP def2-SVP
|  2> %pal
|  3> nprocs 24
|  4> end
|  5>
|  6> * xyz 0 1
|  7> S 	 -40.1419 	 -2.24322 	 13.1756
|  8> C 	 -40.1165 	 -1.51571 	 14.7507
|  9> C 	 -41.1644 	 -0.653427 	 14.9204
| 10> C 	 -42.0325 	 -0.511803 	 13.766
| 11> C 	 -41.5222 	 -1.25037 	 12.6927
| 12> H 	 -42.9237 	 0.125081 	 13.6955
| 13> C 	 -41.6189 	 -0.034432 	 16.2643
| 14> H 	 -41.6934 	 -0.894825 	 16.9243
| 15> H 	 -42.5603 	 0.467993 	 15.9506
| 16> C 	 -40.6801 	 0.963357 	 16.8367
| 17> H 	 -41.0582 	 1.3501 	 17.7945
| 18> H 	 -39.8237 	 0.401703 	 17.1555
| 19> C 	 -40.249 	 2.00913 	 15.8146
| 20> H 	 -39.8146 	 2.91843 	 16.2755
| 21> H 	 -39.5331 	 1.57712 	 15.0776
| 22> H 	 -41.0563 	 2.4231 	 15.2739
| 23> S 	 -42.128 	 -3.02752 	 10.7554
| 24> C 	 -42.8892 	 -2.52095 	 9.23274
| 25> C 	 -43.166 	 -1.18641 	 9.27113
| 26> C 	 -42.7897 	 -0.480953 	 10.4552
| 27> C 	 -42.1612 	 -1.36287 	 11.3872
| 28> H 	 -43.6327 	 -0.768044 	 8.44012
| 29> C 	 -42.9711 	 1.09364 	 10.6088
| 30> H 	 -42.6722 	 1.39779 	 11.6139
| 31> H 	 -44.0753 	 1.33407 	 10.579
| 32> C 	 -42.1634 	 1.99623 	 9.66012
| 33> H 	 -42.5326 	 1.89206 	 8.64863
| 34> H 	 -41.0741 	 1.76978 	 9.60559
| 35> C 	 -42.3269 	 3.58315 	 9.87473
| 36> H 	 -41.7798 	 4.02486 	 8.9966
| 37> H 	 -41.9698 	 3.98258 	 10.8002
| 38> H 	 -43.3833 	 3.91084 	 9.88087
| 39> H 	 -39.484 	 -1.82914 	 15.5485
| 40> H 	 -43.0182 	 -3.14642 	 8.40424
| 41> *
| 42>
| 43>                          ****END OF INPUT****

CARTESIAN COORDINATES (ANGSTROEM)
---------------------------------
  S    -40.141900   -2.243220   13.175600
  C    -40.116500   -1.515710   14.750700
  C    -41.164400   -0.653427   14.920400
  C    -42.032500   -0.511803   13.766000
  C    -41.522200   -1.250370   12.692700
  H    -42.923700    0.125081   13.695500
  C    -41.618900   -0.034432   16.264300
  H    -41.693400   -0.894825   16.924300
  H    -42.560300    0.467993   15.950600
  C    -40.680100    0.963357   16.836700
  H    -41.058200    1.350100   17.794500
  H    -39.823700    0.401703   17.155500
  C    -40.249000    2.009130   15.814600
  H    -39.814600    2.918430   16.275500
  H    -39.533100    1.577120   15.077600
  H    -41.056300    2.423100   15.273900
  S    -42.128000   -3.027520   10.755400
  C    -42.889200   -2.520950    9.232740
  C    -43.166000   -1.186410    9.271130
  C    -42.789700   -0.480953   10.455200
  C    -42.161200   -1.362870   11.387200
  H    -43.632700   -0.768044    8.440120
  C    -42.971100    1.093640   10.608800
  H    -42.672200    1.397790   11.613900
  H    -44.075300    1.334070   10.579000
  C    -42.163400    1.996230    9.660120
  H    -42.532600    1.892060    8.648630
  H    -41.074100    1.769780    9.605590
  C    -42.326900    3.583150    9.874730
  H    -41.779800    4.024860    8.996600
  H    -41.969800    3.982580   10.800200
  H    -43.383300    3.910840    9.880870
  H    -39.484000   -1.829140   15.548500
  H    -43.018200   -3.146420    8.404240

 Total Charge           Charge          ....    0
 Multiplicity           Mult            ....    1
 Number of Electrons    NEL             ....  134
 Basis Dimension        Dim             ....  322

ORBITAL ENERGIES
----------------

  NO   OCC          E(Eh)            E(eV)
   0   2.0000     -88.969474     -2420.9825
   1   2.0000     -88.962993     -2420.8061
   2   2.0000     -10.335752      -281.2501
   3   2.0000     -10.334015      -281.2028
   4   2.0000     -10.315809      -280.7074
   5   2.0000     -10.313857      -280.6543
   6   2.0000     -10.309846      -280.5452
   7   2.0000     -10.305271      -280.4207
   8   2.0000     -10.300031      -280.2781
   9   2.0000     -10.299221      -280.2561
  10   2.0000     -10.294294      -280.1220
  11   2.0000     -10.290513      -280.0191
  12   2.0000     -10.289783      -279.9992
  13   2.0000     -10.286722      -279.9159
  14   2.0000     -10.281456      -279.7726
  15   2.0000     -10.274497      -279.5833
  16   2.0000      -8.083967      -219.9759
  17   2.0000      -8.077162      -219.7907
  18   2.0000      -6.042615      -164.4279
  19   2.0000      -6.038517      -164.3164
  20   2.0000      -6.035737      -164.2408
  21   2.0000      -6.034567      -164.2089
  22   2.0000      -6.031721      -164.1315
  23   2.0000      -6.027908      -164.0277
  24   2.0000      -1.002531       -27.2802
  25   2.0000      -0.978720       -26.6323
  26   2.0000      -0.917550       -24.9678
  27   2.0000      -0.894961       -24.3531
  28   2.0000      -0.870454       -23.6862
  29   2.0000      -0.848066       -23.0770
  30   2.0000      -0.838620       -22.8200
  31   2.0000      -0.812058       -22.0972
  32   2.0000      -0.781348       -21.2616
  33   2.0000      -0.773029       -21.0352
  34   2.0000      -0.708903       -19.2902
  35   2.0000      -0.703653       -19.1474
  36   2.0000      -0.694529       -18.8991
  37   2.0000      -0.662019       -18.0145
  38   2.0000      -0.639632       -17.4053
  39   2.0000      -0.609323       -16.5805
  40   2.0000      -0.593993       -16.1634
  41   2.0000      -0.571751       -15.5581
  42   2.0000      -0.558875       -15.2078
  43   2.0000      -0.556066       -15.1313
  44   2.0000      -0.542733       -14.7685
  45   2.0000      -0.524833       -14.2814
  46   2.0000      -0.512700       -13.9513
  47   2.0000      -0.506362       -13.7788
  48   2.0000      -0.502879       -13.6840
  49   2.0000      -0.497357       -13.5338
  50   2.0000      -0.489314       -13.3149
  51   2.0000      -0.479934       -13.0597
  52   2.0000      -0.470841       -12.8122
  53   2.0000      -0.467629       -12.7248
  54   2.0000      -0.456030       -12.4092
  55   2.0000      -0.448312       -12.1992
  56   2.0000      -0.443900       -12.0791
  57   2.0000      -0.436840       -11.8870
  58   2.0000      -0.435259       -11.8440
  59   2.0000      -0.426777       -11.6132
  60   2.0000      -0.417743       -11.3674
  61   2.0000      -0.413054       -11.2398
  62   2.0000      -0.405334       -11.0297
  63   2.0000      -0.353957        -9.6317
  64   2.0000      -0.333029        -9.0622
  65   2.0000      -0.329550        -8.9675
  66   2.0000      -0.286984        -7.8092
  67   0.0000       0.020166         0.5487
  68   0.0000       0.074336         2.0228
  69   0.0000       0.104018         2.8305
  70   0.0000       0.124993         3.4012
  71   0.0000       0.128996         3.5102

MULLIKEN ATOMIC CHARGES
-----------------------
   0 S :    0.117370
   1 C :   -0.109366
   2 C :   -0.133176
   3 C :    0.010830
   4 C :   -0.127343
   5 H :    0.034338
   6 C :    0.078479
   7 H :    0.040922
   8 H :    0.022114
   9 C :   -0.048406
  10 H :    0.028673
  11 H :    0.010756
  12 C :   -0.048692
  13 H :    0.031696
  14 H :    0.056348
  15 H :    0.010666
  16 S :    0.075451
  17 C :   -0.067667
  18 C :   -0.016445
  19 C :   -0.016042
  20 C :   -0.165038
  21 H :   -0.003837
  22 C :    0.067234
  23 H :    0.011946
  24 H :    0.041857
  25 C :   -0.085817
  26 H :    0.024335
  27 H :    0.049736
  28 C :   -0.083647
  29 H :    0.050210
  30 H :    0.031527
  31 H :    0.030848
  32 H :    0.039900
  33 H :    0.040239
Sum of atomic charges:   -0.0000000

LOEWDIN ATOMIC CHARGES
----------------------
   0 S :    0.407920
   1 C :   -0.205913
   2 C :   -0.061095
   3 C :   -0.064364
   4 C :   -0.189886
   5 H :    0.035824
   6 C :   -0.026605
   7 H :    0.034711
   8 H :    0.029835
   9 C :   -0.047341
  10 H :    0.025985
  11 H :    0.019662
  12 C :   -0.067545
  13 H :    0.029222
  14 H :    0.036653
  15 H :    0.015575
  16 S :    0.377643
  17 C :   -0.166970
  18 C :   -0.063478
  19 C :   -0.056024
  20 C :   -0.176938
  21 H :    0.022194
  22 C :   -0.035195
  23 H :    0.024905
  24 H :    0.038100
  25 C :   -0.042524
  26 H :    0.019530
  27 H :    0.032837
  28 C :   -0.069345
  29 H :    0.036301
  30 H :    0.016460
  31 H :    0.025123
  32 H :    0.024693
  33 H :    0.020051

  Mayer bond orders larger than 0.100000
B(  0-S ,  1-C ) :   1.1219 B(  0-S ,  4-C ) :   1.1552 B(  1-C ,  2-C ) :   1.6231
B(  1-C , 32-H ) :   0.9718 B(  2-C ,  3-C ) :   1.2423 B(  2-C ,  6-C ) :   0.9914
B(  3-C ,  4-C ) :   1.5559 B(  3-C ,  5-H ) :   0.9834 B(  4-C , 20-C ) :   1.0660
B(  6-C ,  7-H ) :   0.9425 B(  6-C ,  8-H ) :   0.9436 B(  6-C ,  9-C ) :   1.0896
B(  9-C , 10-H ) :   0.9557 B(  9-C , 11-H ) :   0.9487 B(  9-C , 12-C ) :   1.0740
B( 12-C , 13-H ) :   0.9729 B( 12-C , 14-H ) :   0.9654 B( 12-C , 15-H ) :   0.9786
B( 16-S , 17-C ) :   1.1303 B( 16-S , 20-C ) :   1.1470 B( 17-C , 18-C ) :   1.6237
B( 17-C , 20-C ) :   0.1017 B( 17-C , 33-H ) :   0.9764 B( 18-C , 19-C ) :   1.2325
B( 18-C , 21-H ) :   0.9981 B( 19-C , 20-C ) :   1.5757 B( 19-C , 22-C ) :   1.0270
B( 22-C , 23-H ) :   0.9402 B( 22-C , 24-H ) :   0.9396 B( 22-C , 25-C ) :   1.0595
B( 25-C , 26-H ) :   0.9574 B( 25-C , 27-H ) :   0.9587 B( 25-C , 28-C ) :   1.0668
B( 28-C , 29-H ) :   0.9776 B( 28-C , 30-H ) :   0.9799 B( 28-C , 31-H ) :   0.9767

Dispersion correction           -0.013889769
FINAL SINGLE POINT ENERGY     -1339.873866534151

DIPOLE MOMENT
-------------
                                X             Y             Z
Electronic contribution:      1.89351     -29.09147      -6.71353
Nuclear contribution   :     -2.10483      29.62939       6.83314
                        -----------------------------------------
Total Dipole Moment    :     -0.21132       0.53792       0.11961
                        -----------------------------------------
Magnitude (a.u.)       :      0.59019
Magnitude (Debye)      :      1.50015

Rotational constants in cm-1:     0.016669     0.009252     0.006441
Rotational constants in MHz :   499.724320   277.366879   193.100715

                             ****ORCA TERMINATED NORMALLY****
TOTAL RUN TIME: 0 days 0 hours 0 minutes 21 seconds 197 msec
