                         Program Version 4.2.1 -  RELEASE  -
|  1> ! wB97X-D3 SP def2-SVP
|  2> %pal
|  3> nprocs 24
|  4> end
|  5>
|  6> * xyz 0 1
|  7> S 	 -62.7995 	 12.6306 	 -73.412
|  8> C 	 -64.4806 	 12.2256 	 -73.1165
|  9> C 	 -65.1627 	 12.3372 	 -74.2952
| 10> C 	 -64.3666 	 12.7791 	 -75.3861
| 11> C 	 -63.0535 	 12.9108 	 -75.1264
| 12> H 	 -64.8243 	 12.895 	 -76.3235
| 13> C 	 -66.6157 	 11.852 	 -74.4642
| 14> H 	 -66.495 	 10.7221 	 -74.354
| 15> H 	 -66.9092 	 11.9535 	 -75.5111
| 16> C 	 -67.7662 	 12.4312 	 -73.5884
| 17> H 	 -68.6487 	 12.1006 	 -74.044
| 18> H 	 -67.8675 	 11.931 	 -72.6801
| 19> C 	 -67.7252 	 13.9499 	 -73.6429
| 20> H 	 -66.7079 	 14.254 	 -73.4351
| 21> H 	 -67.8774 	 14.3572 	 -74.6913
| 22> H 	 -68.4792 	 14.4197 	 -72.97
| 23> S 	 -60.4069 	 12.4859 	 -75.6578
| 24> C 	 -59.7533 	 12.5702 	 -77.2702
| 25> C 	 -60.6883 	 13.0757 	 -78.1487
| 26> C 	 -61.963 	 13.4094 	 -77.454
| 27> C 	 -61.9473 	 13.0662 	 -76.114
| 28> H 	 -60.393 	 13.1893 	 -79.1648
| 29> C 	 -63.1069 	 13.8445 	 -78.3598
| 30> H 	 -62.7679 	 14.5683 	 -79.1163
| 31> H 	 -63.8533 	 14.3064 	 -77.6755
| 32> C 	 -63.776 	 12.6798 	 -79.0935
| 33> H 	 -63.9547 	 11.933 	 -78.3081
| 34> H 	 -63.2087 	 12.1675 	 -79.8904
| 35> C 	 -65.1653 	 12.9697 	 -79.6073
| 36> H 	 -65.7848 	 13.2494 	 -78.8233
| 37> H 	 -65.6878 	 12.1061 	 -80.0136
| 38> H 	 -64.9546 	 13.7542 	 -80.3762
| 39> H 	 -64.9516 	 11.8092 	 -72.2412
| 40> H 	 -58.7394 	 12.3357 	 -77.5695
| 41> *
| 42>
| 43>                          ****END OF INPUT****

CARTESIAN COORDINATES (ANGSTROEM)
---------------------------------
  S    -62.799500   12.630600  -73.412000
  C    -64.480600   12.225600  -73.116500
  C    -65.162700   12.337200  -74.295200
  C    -64.366600   12.779100  -75.386100
  C    -63.053500   12.910800  -75.126400
  H    -64.824300   12.895000  -76.323500
  C    -66.615700   11.852000  -74.464200
  H    -66.495000   10.722100  -74.354000
  H    -66.909200   11.953500  -75.511100
  C    -67.766200   12.431200  -73.588400
  H    -68.648700   12.100600  -74.044000
  H    -67.867500   11.931000  -72.680100
  C    -67.725200   13.949900  -73.642900
  H    -66.707900   14.254000  -73.435100
  H    -67.877400   14.357200  -74.691300
  H    -68.479200   14.419700  -72.970000
  S    -60.406900   12.485900  -75.657800
  C    -59.753300   12.570200  -77.270200
  C    -60.688300   13.075700  -78.148700
  C    -61.963000   13.409400  -77.454000
  C    -61.947300   13.066200  -76.114000
  H    -60.393000   13.189300  -79.164800
  C    -63.106900   13.844500  -78.359800
  H    -62.767900   14.568300  -79.116300
  H    -63.853300   14.306400  -77.675500
  C    -63.776000   12.679800  -79.093500
  H    -63.954700   11.933000  -78.308100
  H    -63.208700   12.167500  -79.890400
  C    -65.165300   12.969700  -79.607300
  H    -65.784800   13.249400  -78.823300
  H    -65.687800   12.106100  -80.013600
  H    -64.954600   13.754200  -80.376200
  H    -64.951600   11.809200  -72.241200
  H    -58.739400   12.335700  -77.569500

 Total Charge           Charge          ....    0
 Multiplicity           Mult            ....    1
 Number of Electrons    NEL             ....  134
 Basis Dimension        Dim             ....  322

ORBITAL ENERGIES
----------------

  NO   OCC          E(Eh)            E(eV)
   0   2.0000     -88.966884     -2420.9120
   1   2.0000     -88.964464     -2420.8461
   2   2.0000     -10.335215      -281.2355
   3   2.0000     -10.333057      -281.1768
   4   2.0000     -10.317854      -280.7631
   5   2.0000     -10.312417      -280.6151
   6   2.0000     -10.310227      -280.5555
   7   2.0000     -10.299654      -280.2678
   8   2.0000     -10.298827      -280.2453
   9   2.0000     -10.298201      -280.2283
  10   2.0000     -10.296732      -280.1883
  11   2.0000     -10.287610      -279.9401
  12   2.0000     -10.285026      -279.8698
  13   2.0000     -10.281781      -279.7815
  14   2.0000     -10.281045      -279.7615
  15   2.0000     -10.275517      -279.6110
  16   2.0000      -8.081382      -219.9056
  17   2.0000      -8.080261      -219.8751
  18   2.0000      -6.040129      -164.3603
  19   2.0000      -6.038921      -164.3274
  20   2.0000      -6.035895      -164.2450
  21   2.0000      -6.034539      -164.2082
  22   2.0000      -6.031909      -164.1366
  23   2.0000      -6.030879      -164.1085
  24   2.0000      -1.012550       -27.5529
  25   2.0000      -0.989381       -26.9224
  26   2.0000      -0.915127       -24.9019
  27   2.0000      -0.910817       -24.7846
  28   2.0000      -0.872140       -23.7321
  29   2.0000      -0.855126       -23.2692
  30   2.0000      -0.845478       -23.0066
  31   2.0000      -0.822467       -22.3805
  32   2.0000      -0.779345       -21.2071
  33   2.0000      -0.772929       -21.0325
  34   2.0000      -0.712690       -19.3933
  35   2.0000      -0.705008       -19.1842
  36   2.0000      -0.690900       -18.8004
  37   2.0000      -0.667510       -18.1639
  38   2.0000      -0.637742       -17.3538
  39   2.0000      -0.624676       -16.9983
  40   2.0000      -0.593246       -16.1431
  41   2.0000      -0.577580       -15.7167
  42   2.0000      -0.574142       -15.6232
  43   2.0000      -0.556047       -15.1308
  44   2.0000      -0.546257       -14.8644
  45   2.0000      -0.523598       -14.2478
  46   2.0000      -0.521838       -14.1999
  47   2.0000      -0.517199       -14.0737
  48   2.0000      -0.504571       -13.7301
  49   2.0000      -0.499573       -13.5941
  50   2.0000      -0.493858       -13.4386
  51   2.0000      -0.484192       -13.1755
  52   2.0000      -0.480533       -13.0760
  53   2.0000      -0.467293       -12.7157
  54   2.0000      -0.460300       -12.5254
  55   2.0000      -0.446932       -12.1616
  56   2.0000      -0.441157       -12.0045
  57   2.0000      -0.436154       -11.8684
  58   2.0000      -0.435330       -11.8459
  59   2.0000      -0.424023       -11.5383
  60   2.0000      -0.423050       -11.5118
  61   2.0000      -0.408114       -11.1054
  62   2.0000      -0.406159       -11.0521
  63   2.0000      -0.364489        -9.9182
  64   2.0000      -0.334522        -9.1028
  65   2.0000      -0.323934        -8.8147
  66   2.0000      -0.291800        -7.9403
  67   0.0000       0.024398         0.6639
  68   0.0000       0.085727         2.3327
  69   0.0000       0.105072         2.8592
  70   0.0000       0.115276         3.1368
  71   0.0000       0.127742         3.4760

MULLIKEN ATOMIC CHARGES
-----------------------
   0 S :    0.098319
   1 C :   -0.102055
   2 C :   -0.121810
   3 C :    0.022769
   4 C :   -0.062360
   5 H :   -0.045959
   6 C :   -0.006847
   7 H :    0.054100
   8 H :    0.015033
   9 C :    0.017805
  10 H :    0.006748
  11 H :    0.009301
  12 C :   -0.068159
  13 H :    0.042616
  14 H :    0.030078
  15 H :    0.046810
  16 S :    0.095075
  17 C :   -0.086435
  18 C :   -0.027547
  19 C :   -0.082225
  20 C :   -0.087973
  21 H :    0.014189
  22 C :    0.048211
  23 H :    0.032842
  24 H :    0.031580
  25 C :   -0.094939
  26 H :    0.021301
  27 H :    0.035374
  28 C :   -0.022482
  29 H :    0.013042
  30 H :    0.034620
  31 H :    0.035752
  32 H :    0.045159
  33 H :    0.058068
Sum of atomic charges:    0.0000000

LOEWDIN ATOMIC CHARGES
----------------------
   0 S :    0.396890
   1 C :   -0.194947
   2 C :   -0.068022
   3 C :   -0.070269
   4 C :   -0.175956
   5 H :    0.018621
   6 C :   -0.035742
   7 H :    0.043550
   8 H :    0.024885
   9 C :   -0.038745
  10 H :    0.021964
  11 H :    0.015907
  12 C :   -0.067517
  13 H :    0.024226
  14 H :    0.031996
  15 H :    0.030348
  16 S :    0.419191
  17 C :   -0.185229
  18 C :   -0.064602
  19 C :   -0.054745
  20 C :   -0.204010
  21 H :    0.028184
  22 C :   -0.034762
  23 H :    0.032341
  24 H :    0.032575
  25 C :   -0.048624
  26 H :    0.021298
  27 H :    0.026354
  28 C :   -0.060644
  29 H :    0.011265
  30 H :    0.028922
  31 H :    0.030532
  32 H :    0.032981
  33 H :    0.031785

  Mayer bond orders larger than 0.100000
B(  0-S ,  1-C ) :   1.1218 B(  0-S ,  4-C ) :   1.1435 B(  1-C ,  2-C ) :   1.6189
B(  1-C , 32-H ) :   0.9719 B(  2-C ,  3-C ) :   1.2680 B(  2-C ,  6-C ) :   1.0052
B(  3-C ,  4-C ) :   1.5591 B(  3-C ,  5-H ) :   0.9999 B(  4-C , 20-C ) :   1.0389
B(  6-C ,  7-H ) :   0.9423 B(  6-C ,  8-H ) :   0.9480 B(  6-C ,  9-C ) :   1.0694
B(  9-C , 10-H ) :   0.9473 B(  9-C , 11-H ) :   0.9541 B(  9-C , 12-C ) :   1.0654
B( 12-C , 13-H ) :   0.9745 B( 12-C , 14-H ) :   0.9733 B( 12-C , 15-H ) :   0.9743
B( 16-S , 17-C ) :   1.1492 B( 16-S , 20-C ) :   1.1349 B( 17-C , 18-C ) :   1.6356
B( 17-C , 33-H ) :   0.9678 B( 18-C , 19-C ) :   1.2040 B( 18-C , 21-H ) :   0.9970
B( 19-C , 20-C ) :   1.6111 B( 19-C , 22-C ) :   1.0624 B( 22-C , 23-H ) :   0.9285
B( 22-C , 24-H ) :   0.9344 B( 22-C , 25-C ) :   1.0593 B( 25-C , 26-H ) :   0.9525
B( 25-C , 27-H ) :   0.9532 B( 25-C , 28-C ) :   1.0897 B( 28-C , 29-H ) :   0.9739
B( 28-C , 30-H ) :   0.9705 B( 28-C , 31-H ) :   0.9736

Dispersion correction           -0.014625661
FINAL SINGLE POINT ENERGY     -1339.866100951532

DIPOLE MOMENT
-------------
                                X             Y             Z
Electronic contribution:     27.76778      -2.02115      12.51642
Nuclear contribution   :    -28.31367       1.76634     -13.04998
                        -----------------------------------------
Total Dipole Moment    :     -0.54589      -0.25480      -0.53356
                        -----------------------------------------
Magnitude (a.u.)       :      0.80474
Magnitude (Debye)      :      2.04549

Rotational constants in cm-1:     0.019012     0.009282     0.006586
Rotational constants in MHz :   569.954146   278.259340   197.457880

                             ****ORCA TERMINATED NORMALLY****
TOTAL RUN TIME: 0 days 0 hours 0 minutes 22 seconds 130 msec
