                         Program Version 4.2.1 -  RELEASE  -
|  1> ! wB97X-D3 SP def2-SVP
|  2> %pal
|  3> nprocs 24
|  4> end
|  5>
|  6> * xyz 0 1
|  7> S 	 32.7414 	 -30.8211 	 -130.925
|  8> C 	 32.832 	 -29.4012 	 -131.972
|  9> C 	 34.1597 	 -29.1831 	 -132.334
| 10> C 	 35.1081 	 -30.1504 	 -131.772
| 11> C 	 34.51 	 -31.027 	 -130.892
| 12> H 	 36.1977 	 -30.2229 	 -132.072
| 13> C 	 34.6154 	 -28.0999 	 -133.249
| 14> H 	 35.5284 	 -27.7248 	 -132.725
| 15> H 	 34.0948 	 -27.1466 	 -133.188
| 16> C 	 34.8463 	 -28.5258 	 -134.722
| 17> H 	 35.6528 	 -29.3198 	 -134.661
| 18> H 	 34.0286 	 -29.0709 	 -135.287
| 19> C 	 35.2937 	 -27.4196 	 -135.668
| 20> H 	 34.6026 	 -26.6477 	 -135.859
| 21> H 	 36.1715 	 -26.9437 	 -135.27
| 22> H 	 35.6955 	 -27.8968 	 -136.569
| 23> S 	 34.3104 	 -33.7061 	 -130.523
| 24> C 	 35.4195 	 -34.5849 	 -129.509
| 25> C 	 36.3481 	 -33.7156 	 -128.991
| 26> C 	 36.2982 	 -32.4202 	 -129.585
| 27> C 	 35.1596 	 -32.2065 	 -130.313
| 28> H 	 37.0928 	 -34.0746 	 -128.279
| 29> C 	 37.3117 	 -31.3619 	 -129.187
| 30> H 	 37.3779 	 -31.3523 	 -128.101
| 31> H 	 36.9564 	 -30.3497 	 -129.464
| 32> C 	 38.7144 	 -31.7701 	 -129.919
| 33> H 	 38.5549 	 -31.6235 	 -130.987
| 34> H 	 39.0209 	 -32.7909 	 -129.618
| 35> C 	 39.7759 	 -30.8055 	 -129.567
| 36> H 	 40.708 	 -31.1158 	 -130.001
| 37> H 	 39.9317 	 -30.6847 	 -128.539
| 38> H 	 39.477 	 -29.8397 	 -130.017
| 39> H 	 32.0552 	 -28.795 	 -132.345
| 40> H 	 35.3061 	 -35.6647 	 -129.286
| 41> *
| 42>
| 43>                          ****END OF INPUT****

CARTESIAN COORDINATES (ANGSTROEM)
---------------------------------
  S     32.741400  -30.821100  -130.925000
  C     32.832000  -29.401200  -131.972000
  C     34.159700  -29.183100  -132.334000
  C     35.108100  -30.150400  -131.772000
  C     34.510000  -31.027000  -130.892000
  H     36.197700  -30.222900  -132.072000
  C     34.615400  -28.099900  -133.249000
  H     35.528400  -27.724800  -132.725000
  H     34.094800  -27.146600  -133.188000
  C     34.846300  -28.525800  -134.722000
  H     35.652800  -29.319800  -134.661000
  H     34.028600  -29.070900  -135.287000
  C     35.293700  -27.419600  -135.668000
  H     34.602600  -26.647700  -135.859000
  H     36.171500  -26.943700  -135.270000
  H     35.695500  -27.896800  -136.569000
  S     34.310400  -33.706100  -130.523000
  C     35.419500  -34.584900  -129.509000
  C     36.348100  -33.715600  -128.991000
  C     36.298200  -32.420200  -129.585000
  C     35.159600  -32.206500  -130.313000
  H     37.092800  -34.074600  -128.279000
  C     37.311700  -31.361900  -129.187000
  H     37.377900  -31.352300  -128.101000
  H     36.956400  -30.349700  -129.464000
  C     38.714400  -31.770100  -129.919000
  H     38.554900  -31.623500  -130.987000
  H     39.020900  -32.790900  -129.618000
  C     39.775900  -30.805500  -129.567000
  H     40.708000  -31.115800  -130.001000
  H     39.931700  -30.684700  -128.539000
  H     39.477000  -29.839700  -130.017000
  H     32.055200  -28.795000  -132.345000
  H     35.306100  -35.664700  -129.286000

 Total Charge           Charge          ....    0
 Multiplicity           Mult            ....    1
 Number of Electrons    NEL             ....  134
 Basis Dimension        Dim             ....  322

ORBITAL ENERGIES
----------------

  NO   OCC          E(Eh)            E(eV)
   0   2.0000     -88.968253     -2420.9492
   1   2.0000     -88.959257     -2420.7044
   2   2.0000     -10.334919      -281.2274
   3   2.0000     -10.323499      -280.9167
   4   2.0000     -10.317343      -280.7492
   5   2.0000     -10.314676      -280.6766
   6   2.0000     -10.304340      -280.3953
   7   2.0000     -10.302940      -280.3572
   8   2.0000     -10.299813      -280.2722
   9   2.0000     -10.296752      -280.1889
  10   2.0000     -10.296046      -280.1696
  11   2.0000     -10.294049      -280.1153
  12   2.0000     -10.293032      -280.0876
  13   2.0000     -10.291205      -280.0379
  14   2.0000     -10.273342      -279.5518
  15   2.0000     -10.268410      -279.4176
  16   2.0000      -8.081883      -219.9192
  17   2.0000      -8.074802      -219.7265
  18   2.0000      -6.040652      -164.3745
  19   2.0000      -6.036527      -164.2623
  20   2.0000      -6.033297      -164.1744
  21   2.0000      -6.032419      -164.1505
  22   2.0000      -6.029140      -164.0612
  23   2.0000      -6.025567      -163.9640
  24   2.0000      -1.007509       -27.4157
  25   2.0000      -0.981542       -26.7091
  26   2.0000      -0.909226       -24.7413
  27   2.0000      -0.906356       -24.6632
  28   2.0000      -0.870510       -23.6878
  29   2.0000      -0.856518       -23.3070
  30   2.0000      -0.846048       -23.0221
  31   2.0000      -0.816743       -22.2247
  32   2.0000      -0.777705       -21.1624
  33   2.0000      -0.769058       -20.9271
  34   2.0000      -0.702608       -19.1189
  35   2.0000      -0.699508       -19.0346
  36   2.0000      -0.694474       -18.8976
  37   2.0000      -0.662660       -18.0319
  38   2.0000      -0.638820       -17.3832
  39   2.0000      -0.617689       -16.8082
  40   2.0000      -0.593649       -16.1540
  41   2.0000      -0.570028       -15.5113
  42   2.0000      -0.565829       -15.3970
  43   2.0000      -0.552854       -15.0439
  44   2.0000      -0.533436       -14.5155
  45   2.0000      -0.529075       -14.3969
  46   2.0000      -0.519991       -14.1497
  47   2.0000      -0.513369       -13.9695
  48   2.0000      -0.507494       -13.8096
  49   2.0000      -0.505962       -13.7679
  50   2.0000      -0.502069       -13.6620
  51   2.0000      -0.472146       -12.8477
  52   2.0000      -0.466057       -12.6820
  53   2.0000      -0.464601       -12.6424
  54   2.0000      -0.454870       -12.3776
  55   2.0000      -0.450007       -12.2453
  56   2.0000      -0.445630       -12.1262
  57   2.0000      -0.436380       -11.8745
  58   2.0000      -0.431596       -11.7443
  59   2.0000      -0.429383       -11.6841
  60   2.0000      -0.423890       -11.5346
  61   2.0000      -0.409799       -11.1512
  62   2.0000      -0.398284       -10.8379
  63   2.0000      -0.353264        -9.6128
  64   2.0000      -0.326919        -8.8959
  65   2.0000      -0.325865        -8.8672
  66   2.0000      -0.291880        -7.9425
  67   0.0000       0.030527         0.8307
  68   0.0000       0.072672         1.9775
  69   0.0000       0.114051         3.1035
  70   0.0000       0.119682         3.2567
  71   0.0000       0.126158         3.4329

MULLIKEN ATOMIC CHARGES
-----------------------
   0 S :    0.102255
   1 C :   -0.082746
   2 C :   -0.089927
   3 C :   -0.004135
   4 C :   -0.116442
   5 H :    0.046200
   6 C :    0.040738
   7 H :    0.024721
   8 H :    0.014997
   9 C :   -0.101737
  10 H :    0.025817
  11 H :    0.044850
  12 C :   -0.013432
  13 H :    0.033995
  14 H :    0.009512
  15 H :    0.033157
  16 S :    0.091260
  17 C :   -0.109287
  18 C :   -0.029200
  19 C :   -0.043957
  20 C :   -0.140964
  21 H :    0.025282
  22 C :    0.030636
  23 H :    0.032202
  24 H :    0.025695
  25 C :   -0.104831
  26 H :    0.035931
  27 H :    0.039555
  28 C :    0.011239
  29 H :    0.025275
  30 H :    0.015637
  31 H :    0.021297
  32 H :    0.032742
  33 H :    0.073663
Sum of atomic charges:   -0.0000000

LOEWDIN ATOMIC CHARGES
----------------------
   0 S :    0.387666
   1 C :   -0.185227
   2 C :   -0.061160
   3 C :   -0.069019
   4 C :   -0.183181
   5 H :    0.043097
   6 C :   -0.049001
   7 H :    0.038221
   8 H :    0.027349
   9 C :   -0.046806
  10 H :    0.027518
  11 H :    0.032988
  12 C :   -0.065123
  13 H :    0.019056
  14 H :    0.020735
  15 H :    0.032957
  16 S :    0.406569
  17 C :   -0.190965
  18 C :   -0.072929
  19 C :   -0.062167
  20 C :   -0.200446
  21 H :    0.033009
  22 C :   -0.027471
  23 H :    0.028822
  24 H :    0.028120
  25 C :   -0.031788
  26 H :    0.027017
  27 H :    0.025236
  28 C :   -0.061751
  29 H :    0.023370
  30 H :    0.014572
  31 H :    0.027533
  32 H :    0.025254
  33 H :    0.037942

  Mayer bond orders larger than 0.100000
B(  0-S ,  1-C ) :   1.1146 B(  0-S ,  4-C ) :   1.1373 B(  1-C ,  2-C ) :   1.6274
B(  1-C , 32-H ) :   0.9755 B(  2-C ,  3-C ) :   1.2252 B(  2-C ,  6-C ) :   1.0303
B(  3-C ,  4-C ) :   1.5798 B(  3-C ,  5-H ) :   0.9789 B(  4-C , 20-C ) :   1.0384
B(  6-C ,  7-H ) :   0.9363 B(  6-C ,  8-H ) :   0.9457 B(  6-C ,  9-C ) :   1.0416
B(  9-C , 10-H ) :   0.9540 B(  9-C , 11-H ) :   0.9609 B(  9-C , 12-C ) :   1.0867
B( 12-C , 13-H ) :   0.9764 B( 12-C , 14-H ) :   0.9703 B( 12-C , 15-H ) :   0.9707
B( 16-S , 17-C ) :   1.1544 B( 16-S , 20-C ) :   1.1390 B( 17-C , 18-C ) :   1.6051
B( 17-C , 33-H ) :   0.9659 B( 18-C , 19-C ) :   1.2356 B( 18-C , 21-H ) :   0.9875
B( 19-C , 20-C ) :   1.6054 B( 19-C , 22-C ) :   1.0500 B( 22-C , 23-H ) :   0.9433
B( 22-C , 24-H ) :   0.9408 B( 22-C , 25-C ) :   1.0407 B( 25-C , 26-H ) :   0.9573
B( 25-C , 27-H ) :   0.9604 B( 25-C , 28-C ) :   1.0983 B( 28-C , 29-H ) :   0.9694
B( 28-C , 30-H ) :   0.9713 B( 28-C , 31-H ) :   0.9702

Dispersion correction           -0.013654896
FINAL SINGLE POINT ENERGY     -1339.871523993125

DIPOLE MOMENT
-------------
                                X             Y             Z
Electronic contribution:    -22.19286     -17.09882      10.51093
Nuclear contribution   :     22.81491      17.39913     -10.65418
                        -----------------------------------------
Total Dipole Moment    :      0.62205       0.30031      -0.14325
                        -----------------------------------------
Magnitude (a.u.)       :      0.70545
Magnitude (Debye)      :      1.79310

Rotational constants in cm-1:     0.017106     0.008438     0.006274
Rotational constants in MHz :   512.817772   252.963508   188.078759

                             ****ORCA TERMINATED NORMALLY****
TOTAL RUN TIME: 0 days 0 hours 0 minutes 19 seconds 946 msec
