                         Program Version 4.2.1 -  RELEASE  -
|  1> ! wB97X-D3 SP def2-SVP
|  2> %pal
|  3> nprocs 24
|  4> end
|  5>
|  6> * xyz 0 1
|  7> S 	 -44.7814 	 11.3834 	 24.0333
|  8> C 	 -44.26 	 11.9046 	 22.43
|  9> C 	 -45.3259 	 12.5493 	 21.8325
| 10> C 	 -46.5017 	 12.643 	 22.6262
| 11> C 	 -46.4171 	 11.9552 	 23.8141
| 12> H 	 -47.477 	 13.1019 	 22.3797
| 13> C 	 -45.151 	 13.3535 	 20.6134
| 14> H 	 -44.3236 	 14.0688 	 20.7605
| 15> H 	 -46.0871 	 13.9285 	 20.4569
| 16> C 	 -44.8698 	 12.5835 	 19.2941
| 17> H 	 -44.1932 	 11.7391 	 19.4466
| 18> H 	 -45.747 	 12.1897 	 18.9533
| 19> C 	 -44.4601 	 13.5343 	 18.1487
| 20> H 	 -43.6686 	 14.2111 	 18.5132
| 21> H 	 -43.9274 	 12.9209 	 17.4043
| 22> H 	 -45.3647 	 13.9364 	 17.6539
| 23> S 	 -47.2598 	 12.6159 	 26.3687
| 24> C 	 -48.84 	 12.0668 	 26.8028
| 25> C 	 -49.5255 	 11.4874 	 25.765
| 26> C 	 -48.7723 	 11.4589 	 24.5685
| 27> C 	 -47.497 	 11.9221 	 24.8217
| 28> H 	 -50.5115 	 11.1462 	 25.8206
| 29> C 	 -49.1934 	 10.7183 	 23.3085
| 30> H 	 -49.3027 	 9.67678 	 23.5442
| 31> H 	 -48.4781 	 10.6656 	 22.5635
| 32> C 	 -50.5516 	 11.199 	 22.7916
| 33> H 	 -50.6235 	 12.1779 	 22.5148
| 34> H 	 -51.232 	 11.0509 	 23.5607
| 35> C 	 -50.9832 	 10.3694 	 21.5438
| 36> H 	 -51.0428 	 9.29576 	 21.8152
| 37> H 	 -50.2715 	 10.4405 	 20.725
| 38> H 	 -51.9631 	 10.5618 	 21.1719
| 39> H 	 -43.3018 	 11.701 	 22.0273
| 40> H 	 -49.3646 	 12.276 	 27.7305
| 41> *
| 42>
| 43>                          ****END OF INPUT****

CARTESIAN COORDINATES (ANGSTROEM)
---------------------------------
  S    -44.781400   11.383400   24.033300
  C    -44.260000   11.904600   22.430000
  C    -45.325900   12.549300   21.832500
  C    -46.501700   12.643000   22.626200
  C    -46.417100   11.955200   23.814100
  H    -47.477000   13.101900   22.379700
  C    -45.151000   13.353500   20.613400
  H    -44.323600   14.068800   20.760500
  H    -46.087100   13.928500   20.456900
  C    -44.869800   12.583500   19.294100
  H    -44.193200   11.739100   19.446600
  H    -45.747000   12.189700   18.953300
  C    -44.460100   13.534300   18.148700
  H    -43.668600   14.211100   18.513200
  H    -43.927400   12.920900   17.404300
  H    -45.364700   13.936400   17.653900
  S    -47.259800   12.615900   26.368700
  C    -48.840000   12.066800   26.802800
  C    -49.525500   11.487400   25.765000
  C    -48.772300   11.458900   24.568500
  C    -47.497000   11.922100   24.821700
  H    -50.511500   11.146200   25.820600
  C    -49.193400   10.718300   23.308500
  H    -49.302700    9.676780   23.544200
  H    -48.478100   10.665600   22.563500
  C    -50.551600   11.199000   22.791600
  H    -50.623500   12.177900   22.514800
  H    -51.232000   11.050900   23.560700
  C    -50.983200   10.369400   21.543800
  H    -51.042800    9.295760   21.815200
  H    -50.271500   10.440500   20.725000
  H    -51.963100   10.561800   21.171900
  H    -43.301800   11.701000   22.027300
  H    -49.364600   12.276000   27.730500

 Total Charge           Charge          ....    0
 Multiplicity           Mult            ....    1
 Number of Electrons    NEL             ....  134
 Basis Dimension        Dim             ....  322

ORBITAL ENERGIES
----------------

  NO   OCC          E(Eh)            E(eV)
   0   2.0000     -88.970572     -2421.0124
   1   2.0000     -88.963592     -2420.8224
   2   2.0000     -10.325209      -280.9632
   3   2.0000     -10.321376      -280.8589
   4   2.0000     -10.313366      -280.6409
   5   2.0000     -10.311187      -280.5817
   6   2.0000     -10.298217      -280.2287
   7   2.0000     -10.295272      -280.1486
   8   2.0000     -10.290858      -280.0285
   9   2.0000     -10.287498      -279.9370
  10   2.0000     -10.287182      -279.9285
  11   2.0000     -10.283083      -279.8169
  12   2.0000     -10.282055      -279.7889
  13   2.0000     -10.277288      -279.6592
  14   2.0000     -10.277063      -279.6531
  15   2.0000     -10.276026      -279.6249
  16   2.0000      -8.086134      -220.0349
  17   2.0000      -8.077992      -219.8133
  18   2.0000      -6.044457      -164.4780
  19   2.0000      -6.040646      -164.3743
  20   2.0000      -6.036938      -164.2734
  21   2.0000      -6.036530      -164.2623
  22   2.0000      -6.032375      -164.1493
  23   2.0000      -6.028931      -164.0556
  24   2.0000      -1.012230       -27.5442
  25   2.0000      -0.988383       -26.8953
  26   2.0000      -0.914935       -24.8967
  27   2.0000      -0.910836       -24.7851
  28   2.0000      -0.869007       -23.6469
  29   2.0000      -0.856081       -23.2951
  30   2.0000      -0.847627       -23.0651
  31   2.0000      -0.815058       -22.1788
  32   2.0000      -0.782368       -21.2893
  33   2.0000      -0.766940       -20.8695
  34   2.0000      -0.714865       -19.4525
  35   2.0000      -0.703408       -19.1407
  36   2.0000      -0.696920       -18.9642
  37   2.0000      -0.663523       -18.0554
  38   2.0000      -0.643464       -17.5096
  39   2.0000      -0.617309       -16.7978
  40   2.0000      -0.603299       -16.4166
  41   2.0000      -0.573029       -15.5929
  42   2.0000      -0.571634       -15.5550
  43   2.0000      -0.561738       -15.2857
  44   2.0000      -0.528777       -14.3888
  45   2.0000      -0.522285       -14.2121
  46   2.0000      -0.518907       -14.1202
  47   2.0000      -0.511826       -13.9275
  48   2.0000      -0.506356       -13.7786
  49   2.0000      -0.495437       -13.4815
  50   2.0000      -0.491044       -13.3620
  51   2.0000      -0.480567       -13.0769
  52   2.0000      -0.471590       -12.8326
  53   2.0000      -0.464993       -12.6531
  54   2.0000      -0.461812       -12.5666
  55   2.0000      -0.458087       -12.4652
  56   2.0000      -0.442105       -12.0303
  57   2.0000      -0.440397       -11.9838
  58   2.0000      -0.434528       -11.8241
  59   2.0000      -0.430196       -11.7062
  60   2.0000      -0.422652       -11.5009
  61   2.0000      -0.417422       -11.3586
  62   2.0000      -0.413946       -11.2640
  63   2.0000      -0.343928        -9.3588
  64   2.0000      -0.335294        -9.1238
  65   2.0000      -0.326299        -8.8791
  66   2.0000      -0.293701        -7.9920
  67   0.0000       0.035513         0.9664
  68   0.0000       0.069836         1.9003
  69   0.0000       0.117548         3.1986
  70   0.0000       0.123321         3.3557
  71   0.0000       0.128079         3.4852

MULLIKEN ATOMIC CHARGES
-----------------------
   0 S :    0.100401
   1 C :   -0.117771
   2 C :   -0.048304
   3 C :    0.021936
   4 C :   -0.175346
   5 H :    0.027558
   6 C :    0.028190
   7 H :    0.039304
   8 H :    0.020147
   9 C :   -0.055904
  10 H :    0.027360
  11 H :    0.000981
  12 C :   -0.061247
  13 H :    0.034621
  14 H :    0.028481
  15 H :    0.049922
  16 S :    0.142171
  17 C :   -0.083904
  18 C :   -0.015893
  19 C :   -0.014390
  20 C :   -0.171280
  21 H :   -0.005074
  22 C :    0.095303
  23 H :    0.022829
  24 H :    0.002616
  25 C :   -0.029522
  26 H :    0.009532
  27 H :    0.007592
  28 C :   -0.051316
  29 H :    0.020813
  30 H :    0.031215
  31 H :    0.025611
  32 H :    0.041262
  33 H :    0.052106
Sum of atomic charges:   -0.0000000

LOEWDIN ATOMIC CHARGES
----------------------
   0 S :    0.400196
   1 C :   -0.186792
   2 C :   -0.070103
   3 C :   -0.069084
   4 C :   -0.195380
   5 H :    0.038101
   6 C :   -0.035316
   7 H :    0.032471
   8 H :    0.031504
   9 C :   -0.036017
  10 H :    0.020715
  11 H :    0.011245
  12 C :   -0.068043
  13 H :    0.025704
  14 H :    0.028605
  15 H :    0.031974
  16 S :    0.436791
  17 C :   -0.193086
  18 C :   -0.060590
  19 C :   -0.051757
  20 C :   -0.210239
  21 H :    0.021251
  22 C :   -0.018360
  23 H :    0.034833
  24 H :    0.017620
  25 C :   -0.021240
  26 H :    0.011430
  27 H :    0.014289
  28 C :   -0.063107
  29 H :    0.025825
  30 H :    0.023562
  31 H :    0.020083
  32 H :    0.022932
  33 H :    0.029985

  Mayer bond orders larger than 0.100000
B(  0-S ,  1-C ) :   1.1358 B(  0-S ,  4-C ) :   1.1653 B(  1-C ,  2-C ) :   1.5706
B(  1-C , 32-H ) :   0.9827 B(  2-C ,  3-C ) :   1.2549 B(  2-C ,  6-C ) :   1.0303
B(  3-C ,  4-C ) :   1.5613 B(  3-C ,  5-H ) :   0.9875 B(  4-C , 20-C ) :   1.0136
B(  6-C ,  7-H ) :   0.9484 B(  6-C ,  8-H ) :   0.9441 B(  6-C ,  9-C ) :   1.0535
B(  9-C , 10-H ) :   0.9651 B(  9-C , 11-H ) :   0.9511 B(  9-C , 12-C ) :   1.0795
B( 12-C , 13-H ) :   0.9760 B( 12-C , 14-H ) :   0.9733 B( 12-C , 15-H ) :   0.9775
B( 16-S , 17-C ) :   1.1498 B( 16-S , 20-C ) :   1.1650 B( 17-C , 18-C ) :   1.6108
B( 17-C , 33-H ) :   0.9645 B( 18-C , 19-C ) :   1.2524 B( 18-C , 21-H ) :   0.9946
B( 19-C , 20-C ) :   1.5902 B( 19-C , 22-C ) :   1.0401 B( 22-C , 23-H ) :   0.9340
B( 22-C , 24-H ) :   0.9360 B( 22-C , 25-C ) :   1.0481 B( 25-C , 26-H ) :   0.9602
B( 25-C , 27-H ) :   0.9555 B( 25-C , 28-C ) :   1.0859 B( 28-C , 29-H ) :   0.9735
B( 28-C , 30-H ) :   0.9771 B( 28-C , 31-H ) :   0.9748

Dispersion correction           -0.013654526
FINAL SINGLE POINT ENERGY     -1339.869595273027

DIPOLE MOMENT
-------------
                                X             Y             Z
Electronic contribution:      9.81644       0.59953      29.63919
Nuclear contribution   :    -10.23743      -0.58598     -30.13952
                        -----------------------------------------
Total Dipole Moment    :     -0.42099       0.01354      -0.50033
                        -----------------------------------------
Magnitude (a.u.)       :      0.65402
Magnitude (Debye)      :      1.66240

Rotational constants in cm-1:     0.017832     0.008413     0.006218
Rotational constants in MHz :   534.604216   252.216045   186.420128

                             ****ORCA TERMINATED NORMALLY****
TOTAL RUN TIME: 0 days 0 hours 0 minutes 20 seconds 184 msec
