                         Program Version 4.2.1 -  RELEASE  -
|  1> ! wB97X-D3 SP def2-SVP
|  2> %pal
|  3> nprocs 24
|  4> end
|  5>
|  6> * xyz 0 1
|  7> S 	 -68.3924 	 8.24074 	 17.7136
|  8> C 	 -67.0134 	 9.02375 	 18.434
|  9> C 	 -66.6733 	 8.47974 	 19.6877
| 10> C 	 -67.6076 	 7.48647 	 20.0936
| 11> C 	 -68.5751 	 7.22636 	 19.1774
| 12> H 	 -67.5461 	 6.93447 	 20.998
| 13> C 	 -65.5305 	 8.93524 	 20.5381
| 14> H 	 -65.4862 	 8.24909 	 21.3528
| 15> H 	 -65.8349 	 9.84663 	 21.0644
| 16> C 	 -64.1499 	 9.0998 	 19.9316
| 17> H 	 -63.7833 	 8.13066 	 19.473
| 18> H 	 -64.1166 	 9.69732 	 19.0215
| 19> C 	 -63.1075 	 9.53579 	 20.9191
| 20> H 	 -63.4109 	 10.5401 	 21.3335
| 21> H 	 -63.1549 	 8.88484 	 21.8123
| 22> H 	 -62.1228 	 9.51353 	 20.4506
| 23> S 	 -71.2521 	 6.67649 	 18.8511
| 24> C 	 -71.8272 	 5.10336 	 19.2117
| 25> C 	 -70.8148 	 4.24092 	 19.5578
| 26> C 	 -69.521 	 4.85999 	 19.6367
| 27> C 	 -69.6177 	 6.2526 	 19.2954
| 28> H 	 -70.9793 	 3.25092 	 19.8488
| 29> C 	 -68.3031 	 4.11107 	 20.0626
| 30> H 	 -68.2902 	 3.94391 	 21.138
| 31> H 	 -67.4771 	 4.75191 	 19.8272
| 32> C 	 -68.1761 	 2.66994 	 19.564
| 33> H 	 -68.1339 	 2.69165 	 18.3973
| 34> H 	 -69.0616 	 2.05476 	 19.8827
| 35> C 	 -66.9524 	 1.97533 	 20.0945
| 36> H 	 -66.892 	 2.19382 	 21.1962
| 37> H 	 -66.0711 	 2.33724 	 19.646
| 38> H 	 -66.8211 	 0.892387 	 20.0339
| 39> H 	 -66.4149 	 9.77927 	 17.9083
| 40> H 	 -72.774 	 4.84796 	 19.0712
| 41> *
| 42>
| 43>                          ****END OF INPUT****

CARTESIAN COORDINATES (ANGSTROEM)
---------------------------------
  S    -68.392400    8.240740   17.713600
  C    -67.013400    9.023750   18.434000
  C    -66.673300    8.479740   19.687700
  C    -67.607600    7.486470   20.093600
  C    -68.575100    7.226360   19.177400
  H    -67.546100    6.934470   20.998000
  C    -65.530500    8.935240   20.538100
  H    -65.486200    8.249090   21.352800
  H    -65.834900    9.846630   21.064400
  C    -64.149900    9.099800   19.931600
  H    -63.783300    8.130660   19.473000
  H    -64.116600    9.697320   19.021500
  C    -63.107500    9.535790   20.919100
  H    -63.410900   10.540100   21.333500
  H    -63.154900    8.884840   21.812300
  H    -62.122800    9.513530   20.450600
  S    -71.252100    6.676490   18.851100
  C    -71.827200    5.103360   19.211700
  C    -70.814800    4.240920   19.557800
  C    -69.521000    4.859990   19.636700
  C    -69.617700    6.252600   19.295400
  H    -70.979300    3.250920   19.848800
  C    -68.303100    4.111070   20.062600
  H    -68.290200    3.943910   21.138000
  H    -67.477100    4.751910   19.827200
  C    -68.176100    2.669940   19.564000
  H    -68.133900    2.691650   18.397300
  H    -69.061600    2.054760   19.882700
  C    -66.952400    1.975330   20.094500
  H    -66.892000    2.193820   21.196200
  H    -66.071100    2.337240   19.646000
  H    -66.821100    0.892387   20.033900
  H    -66.414900    9.779270   17.908300
  H    -72.774000    4.847960   19.071200

 Total Charge           Charge          ....    0
 Multiplicity           Mult            ....    1
 Number of Electrons    NEL             ....  134
 Basis Dimension        Dim             ....  322

ORBITAL ENERGIES
----------------

  NO   OCC          E(Eh)            E(eV)
   0   2.0000     -88.966697     -2420.9069
   1   2.0000     -88.965741     -2420.8809
   2   2.0000     -10.326308      -280.9931
   3   2.0000     -10.326069      -280.9866
   4   2.0000     -10.315453      -280.6977
   5   2.0000     -10.305883      -280.4373
   6   2.0000     -10.305694      -280.4322
   7   2.0000     -10.301236      -280.3109
   8   2.0000     -10.297906      -280.2203
   9   2.0000     -10.289678      -279.9964
  10   2.0000     -10.289535      -279.9925
  11   2.0000     -10.289385      -279.9884
  12   2.0000     -10.288426      -279.9623
  13   2.0000     -10.287984      -279.9503
  14   2.0000     -10.284089      -279.8443
  15   2.0000     -10.277276      -279.6589
  16   2.0000      -8.081223      -219.9013
  17   2.0000      -8.080957      -219.8940
  18   2.0000      -6.039614      -164.3463
  19   2.0000      -6.039462      -164.3421
  20   2.0000      -6.035583      -164.2366
  21   2.0000      -6.035507      -164.2345
  22   2.0000      -6.032212      -164.1448
  23   2.0000      -6.031697      -164.1308
  24   2.0000      -1.006171       -27.3793
  25   2.0000      -0.983033       -26.7497
  26   2.0000      -0.916795       -24.9473
  27   2.0000      -0.915930       -24.9237
  28   2.0000      -0.872414       -23.7396
  29   2.0000      -0.857986       -23.3470
  30   2.0000      -0.851256       -23.1638
  31   2.0000      -0.816715       -22.2239
  32   2.0000      -0.785078       -21.3631
  33   2.0000      -0.767917       -20.8961
  34   2.0000      -0.708701       -19.2847
  35   2.0000      -0.703118       -19.1328
  36   2.0000      -0.697700       -18.9854
  37   2.0000      -0.657839       -17.9007
  38   2.0000      -0.642669       -17.4879
  39   2.0000      -0.622448       -16.9377
  40   2.0000      -0.607054       -16.5188
  41   2.0000      -0.574025       -15.6200
  42   2.0000      -0.569872       -15.5070
  43   2.0000      -0.557874       -15.1805
  44   2.0000      -0.534520       -14.5450
  45   2.0000      -0.530131       -14.4256
  46   2.0000      -0.522413       -14.2156
  47   2.0000      -0.512597       -13.9485
  48   2.0000      -0.500706       -13.6249
  49   2.0000      -0.497892       -13.5483
  50   2.0000      -0.492985       -13.4148
  51   2.0000      -0.481356       -13.0983
  52   2.0000      -0.473694       -12.8899
  53   2.0000      -0.463174       -12.6036
  54   2.0000      -0.460494       -12.5307
  55   2.0000      -0.453881       -12.3507
  56   2.0000      -0.452830       -12.3221
  57   2.0000      -0.444111       -12.0849
  58   2.0000      -0.431908       -11.7528
  59   2.0000      -0.426147       -11.5961
  60   2.0000      -0.422402       -11.4941
  61   2.0000      -0.416781       -11.3412
  62   2.0000      -0.406628       -11.0649
  63   2.0000      -0.350227        -9.5302
  64   2.0000      -0.330772        -9.0008
  65   2.0000      -0.328819        -8.9476
  66   2.0000      -0.285116        -7.7584
  67   0.0000       0.028399         0.7728
  68   0.0000       0.069964         1.9038
  69   0.0000       0.112019         3.0482
  70   0.0000       0.121205         3.2982
  71   0.0000       0.133457         3.6315

MULLIKEN ATOMIC CHARGES
-----------------------
   0 S :    0.113025
   1 C :   -0.135349
   2 C :   -0.086176
   3 C :    0.027497
   4 C :   -0.142545
   5 H :    0.003702
   6 C :    0.098966
   7 H :   -0.005063
   8 H :    0.036070
   9 C :   -0.091822
  10 H :    0.025333
  11 H :    0.022932
  12 C :   -0.044065
  13 H :    0.030537
  14 H :    0.027938
  15 H :    0.047091
  16 S :    0.115491
  17 C :   -0.024659
  18 C :   -0.012635
  19 C :   -0.024743
  20 C :   -0.174593
  21 H :   -0.006677
  22 C :    0.084178
  23 H :    0.028791
  24 H :    0.022362
  25 C :   -0.131099
  26 H :    0.048934
  27 H :    0.043012
  28 C :   -0.027619
  29 H :    0.019212
  30 H :    0.019050
  31 H :    0.036052
  32 H :    0.056116
  33 H :    0.000755
Sum of atomic charges:    0.0000000

LOEWDIN ATOMIC CHARGES
----------------------
   0 S :    0.391908
   1 C :   -0.201912
   2 C :   -0.060098
   3 C :   -0.058731
   4 C :   -0.181329
   5 H :    0.028740
   6 C :   -0.035663
   7 H :    0.025024
   8 H :    0.037379
   9 C :   -0.050528
  10 H :    0.029122
  11 H :    0.019917
  12 C :   -0.065507
  13 H :    0.028184
  14 H :    0.025974
  15 H :    0.030496
  16 S :    0.428361
  17 C :   -0.170485
  18 C :   -0.060440
  19 C :   -0.044826
  20 C :   -0.208295
  21 H :    0.019667
  22 C :   -0.036948
  23 H :    0.033419
  24 H :    0.029205
  25 C :   -0.047282
  26 H :    0.033730
  27 H :    0.027679
  28 C :   -0.070880
  29 H :    0.027598
  30 H :    0.019053
  31 H :    0.028833
  32 H :    0.029283
  33 H :   -0.000647

  Mayer bond orders larger than 0.100000
B(  0-S ,  1-C ) :   1.1400 B(  0-S ,  4-C ) :   1.1334 B(  1-C ,  2-C ) :   1.5956
B(  1-C , 32-H ) :   0.9677 B(  2-C ,  3-C ) :   1.2430 B(  2-C ,  6-C ) :   1.0229
B(  3-C ,  4-C ) :   1.5755 B(  3-C ,  5-H ) :   0.9995 B(  4-C , 20-C ) :   1.0746
B(  6-C ,  7-H ) :   0.9328 B(  6-C ,  8-H ) :   0.9271 B(  6-C ,  9-C ) :   1.0592
B(  9-C , 10-H ) :   0.9506 B(  9-C , 11-H ) :   0.9523 B(  9-C , 12-C ) :   1.0907
B( 12-C , 13-H ) :   0.9717 B( 12-C , 14-H ) :   0.9727 B( 12-C , 15-H ) :   0.9718
B( 16-S , 17-C ) :   1.1685 B( 16-S , 20-C ) :   1.1550 B( 17-C , 18-C ) :   1.5759
B( 17-C , 33-H ) :   0.9847 B( 18-C , 19-C ) :   1.2657 B( 18-C , 21-H ) :   0.9969
B( 19-C , 20-C ) :   1.5304 B( 19-C , 22-C ) :   1.0613 B( 22-C , 23-H ) :   0.9199
B( 22-C , 24-H ) :   0.9247 B( 22-C , 25-C ) :   1.0613 B( 25-C , 26-H ) :   0.9551
B( 25-C , 27-H ) :   0.9475 B( 25-C , 28-C ) :   1.0836 B( 28-C , 29-H ) :   0.9671
B( 28-C , 30-H ) :   0.9732 B( 28-C , 31-H ) :   0.9744

Dispersion correction           -0.013277374
FINAL SINGLE POINT ENERGY     -1339.882133324759

DIPOLE MOMENT
-------------
                                X             Y             Z
Electronic contribution:    -26.44573       9.59598     -12.31934
Nuclear contribution   :     26.93229      -9.93570      12.70257
                        -----------------------------------------
Total Dipole Moment    :      0.48656      -0.33972       0.38323
                        -----------------------------------------
Magnitude (a.u.)       :      0.70641
Magnitude (Debye)      :      1.79555

Rotational constants in cm-1:     0.017949     0.007983     0.005963
Rotational constants in MHz :   538.088607   239.335081   178.757692

                             ****ORCA TERMINATED NORMALLY****
TOTAL RUN TIME: 0 days 0 hours 0 minutes 20 seconds 991 msec
