                         Program Version 4.2.1 -  RELEASE  -
|  1> ! wB97X-D3 SP def2-SVP
|  2> %pal
|  3> nprocs 24
|  4> end
|  5>
|  6> * xyz 0 1
|  7> S 	 -56.7106 	 15.7356 	 -87.238
|  8> C 	 -57.4015 	 15.9392 	 -88.7791
|  9> C 	 -57.2891 	 17.2397 	 -89.2733
| 10> C 	 -56.5924 	 18.0877 	 -88.374
| 11> C 	 -56.0917 	 17.44 	 -87.2359
| 12> H 	 -56.3558 	 19.1542 	 -88.6131
| 13> C 	 -58.0182 	 17.745 	 -90.4678
| 14> H 	 -58.6631 	 18.6234 	 -90.0808
| 15> H 	 -58.644 	 16.9373 	 -90.9479
| 16> C 	 -57.1499 	 18.4162 	 -91.62
| 17> H 	 -56.4518 	 19.1048 	 -91.0765
| 18> H 	 -56.4865 	 17.6697 	 -92.0759
| 19> C 	 -57.9541 	 19.2552 	 -92.6249
| 20> H 	 -58.769 	 19.8742 	 -92.2148
| 21> H 	 -57.3532 	 20.121 	 -92.9684
| 22> H 	 -58.3877 	 18.7012 	 -93.4787
| 23> S 	 -55.54 	 17.9921 	 -84.6563
| 24> C 	 -54.0114 	 18.6281 	 -84.3165
| 25> C 	 -53.2582 	 18.9827 	 -85.4027
| 26> C 	 -53.9407 	 18.7435 	 -86.5639
| 27> C 	 -55.1455 	 18.0565 	 -86.3402
| 28> H 	 -52.2968 	 19.4255 	 -85.3472
| 29> C 	 -53.3504 	 18.8955 	 -87.9338
| 30> H 	 -52.6867 	 19.8106 	 -87.8838
| 31> H 	 -54.082 	 19.1675 	 -88.6757
| 32> C 	 -52.6039 	 17.6859 	 -88.2982
| 33> H 	 -53.3681 	 16.8831 	 -88.4477
| 34> H 	 -51.9239 	 17.4512 	 -87.4918
| 35> C 	 -51.9356 	 17.8284 	 -89.6776
| 36> H 	 -51.1283 	 17.0636 	 -89.7696
| 37> H 	 -51.384 	 18.776 	 -89.7675
| 38> H 	 -52.5031 	 17.6768 	 -90.5745
| 39> H 	 -57.9172 	 15.1936 	 -89.3809
| 40> H 	 -53.6252 	 18.8832 	 -83.3058
| 41> *
| 42>
| 43>                          ****END OF INPUT****

CARTESIAN COORDINATES (ANGSTROEM)
---------------------------------
  S    -56.710600   15.735600  -87.238000
  C    -57.401500   15.939200  -88.779100
  C    -57.289100   17.239700  -89.273300
  C    -56.592400   18.087700  -88.374000
  C    -56.091700   17.440000  -87.235900
  H    -56.355800   19.154200  -88.613100
  C    -58.018200   17.745000  -90.467800
  H    -58.663100   18.623400  -90.080800
  H    -58.644000   16.937300  -90.947900
  C    -57.149900   18.416200  -91.620000
  H    -56.451800   19.104800  -91.076500
  H    -56.486500   17.669700  -92.075900
  C    -57.954100   19.255200  -92.624900
  H    -58.769000   19.874200  -92.214800
  H    -57.353200   20.121000  -92.968400
  H    -58.387700   18.701200  -93.478700
  S    -55.540000   17.992100  -84.656300
  C    -54.011400   18.628100  -84.316500
  C    -53.258200   18.982700  -85.402700
  C    -53.940700   18.743500  -86.563900
  C    -55.145500   18.056500  -86.340200
  H    -52.296800   19.425500  -85.347200
  C    -53.350400   18.895500  -87.933800
  H    -52.686700   19.810600  -87.883800
  H    -54.082000   19.167500  -88.675700
  C    -52.603900   17.685900  -88.298200
  H    -53.368100   16.883100  -88.447700
  H    -51.923900   17.451200  -87.491800
  C    -51.935600   17.828400  -89.677600
  H    -51.128300   17.063600  -89.769600
  H    -51.384000   18.776000  -89.767500
  H    -52.503100   17.676800  -90.574500
  H    -57.917200   15.193600  -89.380900
  H    -53.625200   18.883200  -83.305800

 Total Charge           Charge          ....    0
 Multiplicity           Mult            ....    1
 Number of Electrons    NEL             ....  134
 Basis Dimension        Dim             ....  322

ORBITAL ENERGIES
----------------

  NO   OCC          E(Eh)            E(eV)
   0   2.0000     -88.970902     -2421.0213
   1   2.0000     -88.968156     -2420.9466
   2   2.0000     -10.331904      -281.1454
   3   2.0000     -10.319728      -280.8141
   4   2.0000     -10.312543      -280.6185
   5   2.0000     -10.311887      -280.6007
   6   2.0000     -10.303092      -280.3614
   7   2.0000     -10.296966      -280.1947
   8   2.0000     -10.296702      -280.1875
   9   2.0000     -10.296545      -280.1832
  10   2.0000     -10.295646      -280.1588
  11   2.0000     -10.285597      -279.8853
  12   2.0000     -10.284029      -279.8427
  13   2.0000     -10.283980      -279.8413
  14   2.0000     -10.281581      -279.7760
  15   2.0000     -10.275505      -279.6107
  16   2.0000      -8.085028      -220.0048
  17   2.0000      -8.084291      -219.9848
  18   2.0000      -6.043566      -164.4538
  19   2.0000      -6.042334      -164.4203
  20   2.0000      -6.039625      -164.3466
  21   2.0000      -6.038682      -164.3209
  22   2.0000      -6.035785      -164.2421
  23   2.0000      -6.035396      -164.2315
  24   2.0000      -1.014647       -27.6100
  25   2.0000      -0.988163       -26.8893
  26   2.0000      -0.920531       -25.0489
  27   2.0000      -0.903323       -24.5807
  28   2.0000      -0.872777       -23.7495
  29   2.0000      -0.856075       -23.2950
  30   2.0000      -0.849240       -23.1090
  31   2.0000      -0.811093       -22.0710
  32   2.0000      -0.780886       -21.2490
  33   2.0000      -0.764950       -20.8153
  34   2.0000      -0.708473       -19.2785
  35   2.0000      -0.695542       -18.9267
  36   2.0000      -0.691941       -18.8287
  37   2.0000      -0.666691       -18.1416
  38   2.0000      -0.633073       -17.2268
  39   2.0000      -0.622990       -16.9524
  40   2.0000      -0.600367       -16.3368
  41   2.0000      -0.569717       -15.5028
  42   2.0000      -0.564282       -15.3549
  43   2.0000      -0.556143       -15.1334
  44   2.0000      -0.526034       -14.3141
  45   2.0000      -0.516914       -14.0659
  46   2.0000      -0.510276       -13.8853
  47   2.0000      -0.508838       -13.8462
  48   2.0000      -0.501725       -13.6526
  49   2.0000      -0.497513       -13.5380
  50   2.0000      -0.495642       -13.4871
  51   2.0000      -0.482815       -13.1381
  52   2.0000      -0.472020       -12.8443
  53   2.0000      -0.468991       -12.7619
  54   2.0000      -0.458930       -12.4881
  55   2.0000      -0.453797       -12.3484
  56   2.0000      -0.444703       -12.1010
  57   2.0000      -0.435629       -11.8541
  58   2.0000      -0.429874       -11.6975
  59   2.0000      -0.427861       -11.6427
  60   2.0000      -0.424631       -11.5548
  61   2.0000      -0.413797       -11.2600
  62   2.0000      -0.406781       -11.0691
  63   2.0000      -0.347183        -9.4473
  64   2.0000      -0.339281        -9.2323
  65   2.0000      -0.326341        -8.8802
  66   2.0000      -0.283580        -7.7166
  67   0.0000       0.027527         0.7490
  68   0.0000       0.067025         1.8238
  69   0.0000       0.113104         3.0777
  70   0.0000       0.120726         3.2851
  71   0.0000       0.124966         3.4005

MULLIKEN ATOMIC CHARGES
-----------------------
   0 S :    0.128711
   1 C :   -0.114961
   2 C :   -0.067921
   3 C :    0.006669
   4 C :   -0.137482
   5 H :    0.038689
   6 C :    0.002959
   7 H :    0.051041
   8 H :    0.033994
   9 C :   -0.089172
  10 H :    0.022227
  11 H :    0.037689
  12 C :   -0.058753
  13 H :    0.022832
  14 H :    0.032460
  15 H :    0.049270
  16 S :    0.137608
  17 C :   -0.077343
  18 C :   -0.049788
  19 C :   -0.008251
  20 C :   -0.214200
  21 H :    0.001908
  22 C :    0.064119
  23 H :    0.017415
  24 H :    0.004231
  25 C :   -0.048725
  26 H :    0.045730
  27 H :    0.026453
  28 C :   -0.041971
  29 H :    0.025737
  30 H :    0.020380
  31 H :    0.035450
  32 H :    0.046641
  33 H :    0.056357
Sum of atomic charges:   -0.0000000

LOEWDIN ATOMIC CHARGES
----------------------
   0 S :    0.405941
   1 C :   -0.213069
   2 C :   -0.079508
   3 C :   -0.060373
   4 C :   -0.190706
   5 H :    0.037190
   6 C :   -0.040473
   7 H :    0.044081
   8 H :    0.031843
   9 C :   -0.047066
  10 H :    0.023233
  11 H :    0.025928
  12 C :   -0.081319
  13 H :    0.028083
  14 H :    0.033486
  15 H :    0.029517
  16 S :    0.449990
  17 C :   -0.203295
  18 C :   -0.073448
  19 C :   -0.049153
  20 C :   -0.211301
  21 H :    0.029621
  22 C :   -0.035870
  23 H :    0.029884
  24 H :    0.022656
  25 C :   -0.037561
  26 H :    0.037567
  27 H :    0.025510
  28 C :   -0.071116
  29 H :    0.029698
  30 H :    0.021897
  31 H :    0.023561
  32 H :    0.031681
  33 H :    0.032890

  Mayer bond orders larger than 0.100000
B(  0-S ,  1-C ) :   1.1489 B(  0-S ,  4-C ) :   1.1264 B(  1-C ,  2-C ) :   1.5900
B(  1-C , 32-H ) :   0.9608 B(  2-C ,  3-C ) :   1.2580 B(  2-C ,  6-C ) :   1.0382
B(  3-C ,  4-C ) :   1.5491 B(  3-C ,  5-H ) :   0.9801 B(  4-C , 20-C ) :   1.0772
B(  6-C ,  7-H ) :   0.9418 B(  6-C ,  8-H ) :   0.9455 B(  6-C ,  9-C ) :   1.0428
B(  9-C , 10-H ) :   0.9616 B(  9-C , 11-H ) :   0.9568 B(  9-C , 12-C ) :   1.0723
B( 12-C , 13-H ) :   0.9704 B( 12-C , 14-H ) :   0.9733 B( 12-C , 15-H ) :   0.9777
B( 16-S , 17-C ) :   1.1854 B( 16-S , 20-C ) :   1.1690 B( 17-C , 18-C ) :   1.5616
B( 17-C , 20-C ) :   0.1048 B( 17-C , 33-H ) :   0.9588 B( 18-C , 19-C ) :   1.3024
B( 18-C , 21-H ) :   0.9985 B( 19-C , 20-C ) :   1.5215 B( 19-C , 22-C ) :   1.0579
B( 22-C , 23-H ) :   0.9219 B( 22-C , 24-H ) :   0.9223 B( 22-C , 25-C ) :   1.0838
B( 25-C , 26-H ) :   0.9481 B( 25-C , 27-H ) :   0.9533 B( 25-C , 28-C ) :   1.0770
B( 28-C , 29-H ) :   0.9730 B( 28-C , 30-H ) :   0.9736 B( 28-C , 31-H ) :   0.9758

Dispersion correction           -0.014606599
FINAL SINGLE POINT ENERGY     -1339.873719224067

DIPOLE MOMENT
-------------
                                X             Y             Z
Electronic contribution:     -6.76871      -9.53259      28.98397
Nuclear contribution   :      6.97862       9.87250     -29.46301
                        -----------------------------------------
Total Dipole Moment    :      0.20991       0.33991      -0.47905
                        -----------------------------------------
Magnitude (a.u.)       :      0.62377
Magnitude (Debye)      :      1.58550

Rotational constants in cm-1:     0.018120     0.008962     0.007169
Rotational constants in MHz :   543.209750   268.676474   214.924245

                             ****ORCA TERMINATED NORMALLY****
TOTAL RUN TIME: 0 days 0 hours 0 minutes 22 seconds 294 msec
