                         Program Version 4.2.1 -  RELEASE  -
|  1> ! wB97X-D3 SP def2-SVP
|  2> %pal
|  3> nprocs 24
|  4> end
|  5>
|  6> * xyz 0 1
|  7> S 	 -75.2085 	 -3.45353 	 6.41265
|  8> C 	 -73.4406 	 -3.1189 	 6.38698
|  9> C 	 -72.758 	 -3.82945 	 7.36266
| 10> C 	 -73.6361 	 -4.44967 	 8.25546
| 11> C 	 -74.9961 	 -4.36695 	 7.90832
| 12> H 	 -73.3984 	 -4.95155 	 9.14335
| 13> C 	 -71.2323 	 -3.94408 	 7.52121
| 14> H 	 -71.0752 	 -4.3142 	 6.52553
| 15> H 	 -71.0652 	 -4.78168 	 8.18466
| 16> C 	 -70.3663 	 -2.69861 	 7.7698
| 17> H 	 -69.3073 	 -2.99314 	 7.6757
| 18> H 	 -70.5908 	 -1.9939 	 6.97857
| 19> C 	 -70.6839 	 -2.00801 	 9.12428
| 20> H 	 -70.1415 	 -1.11843 	 9.08252
| 21> H 	 -71.8058 	 -1.79306 	 9.05928
| 22> H 	 -70.4113 	 -2.64829 	 9.96639
| 23> S 	 -76.5581 	 -4.61261 	 10.103
| 24> C 	 -78.0721 	 -5.4353 	 9.91165
| 25> C 	 -78.0694 	 -6.25313 	 8.78775
| 26> C 	 -77.0081 	 -5.92482 	 7.81907
| 27> C 	 -76.0571 	 -5.185 	 8.46149
| 28> H 	 -78.8579 	 -6.9286 	 8.56383
| 29> C 	 -76.9478 	 -6.47571 	 6.39146
| 30> H 	 -76.1399 	 -7.15715 	 6.45581
| 31> H 	 -76.5404 	 -5.7531 	 5.65612
| 32> C 	 -78.128 	 -7.45096 	 5.86968
| 33> H 	 -79.047 	 -6.92981 	 6.04371
| 34> H 	 -78.0768 	 -8.39327 	 6.36659
| 35> C 	 -77.9443 	 -7.93028 	 4.3923
| 36> H 	 -78.3369 	 -8.95053 	 4.19921
| 37> H 	 -76.9385 	 -7.98424 	 4.02642
| 38> H 	 -78.4283 	 -7.15181 	 3.70362
| 39> H 	 -72.9848 	 -2.43334 	 5.62853
| 40> H 	 -78.7662 	 -5.65559 	 10.7422
| 41> *
| 42>
| 43>                          ****END OF INPUT****

CARTESIAN COORDINATES (ANGSTROEM)
---------------------------------
  S    -75.208500   -3.453530    6.412650
  C    -73.440600   -3.118900    6.386980
  C    -72.758000   -3.829450    7.362660
  C    -73.636100   -4.449670    8.255460
  C    -74.996100   -4.366950    7.908320
  H    -73.398400   -4.951550    9.143350
  C    -71.232300   -3.944080    7.521210
  H    -71.075200   -4.314200    6.525530
  H    -71.065200   -4.781680    8.184660
  C    -70.366300   -2.698610    7.769800
  H    -69.307300   -2.993140    7.675700
  H    -70.590800   -1.993900    6.978570
  C    -70.683900   -2.008010    9.124280
  H    -70.141500   -1.118430    9.082520
  H    -71.805800   -1.793060    9.059280
  H    -70.411300   -2.648290    9.966390
  S    -76.558100   -4.612610   10.103000
  C    -78.072100   -5.435300    9.911650
  C    -78.069400   -6.253130    8.787750
  C    -77.008100   -5.924820    7.819070
  C    -76.057100   -5.185000    8.461490
  H    -78.857900   -6.928600    8.563830
  C    -76.947800   -6.475710    6.391460
  H    -76.139900   -7.157150    6.455810
  H    -76.540400   -5.753100    5.656120
  C    -78.128000   -7.450960    5.869680
  H    -79.047000   -6.929810    6.043710
  H    -78.076800   -8.393270    6.366590
  C    -77.944300   -7.930280    4.392300
  H    -78.336900   -8.950530    4.199210
  H    -76.938500   -7.984240    4.026420
  H    -78.428300   -7.151810    3.703620
  H    -72.984800   -2.433340    5.628530
  H    -78.766200   -5.655590   10.742200

 Total Charge           Charge          ....    0
 Multiplicity           Mult            ....    1
 Number of Electrons    NEL             ....  134
 Basis Dimension        Dim             ....  322

ORBITAL ENERGIES
----------------

  NO   OCC          E(Eh)            E(eV)
   0   2.0000     -88.968254     -2420.9493
   1   2.0000     -88.962311     -2420.7875
   2   2.0000     -10.326101      -280.9875
   3   2.0000     -10.322518      -280.8900
   4   2.0000     -10.319009      -280.7945
   5   2.0000     -10.317708      -280.7591
   6   2.0000     -10.310307      -280.5577
   7   2.0000     -10.301491      -280.3178
   8   2.0000     -10.297213      -280.2014
   9   2.0000     -10.295417      -280.1525
  10   2.0000     -10.295200      -280.1466
  11   2.0000     -10.289883      -280.0019
  12   2.0000     -10.289114      -279.9810
  13   2.0000     -10.287630      -279.9407
  14   2.0000     -10.287054      -279.9250
  15   2.0000     -10.277239      -279.6579
  16   2.0000      -8.081424      -219.9067
  17   2.0000      -8.076657      -219.7770
  18   2.0000      -6.039882      -164.3535
  19   2.0000      -6.036207      -164.2535
  20   2.0000      -6.035369      -164.2307
  21   2.0000      -6.032291      -164.1470
  22   2.0000      -6.031356      -164.1215
  23   2.0000      -6.027075      -164.0050
  24   2.0000      -1.000328       -27.2203
  25   2.0000      -0.976344       -26.5677
  26   2.0000      -0.908815       -24.7301
  27   2.0000      -0.899455       -24.4754
  28   2.0000      -0.865447       -23.5500
  29   2.0000      -0.848233       -23.0816
  30   2.0000      -0.846134       -23.0245
  31   2.0000      -0.807217       -21.9655
  32   2.0000      -0.784370       -21.3438
  33   2.0000      -0.771126       -20.9834
  34   2.0000      -0.710213       -19.3259
  35   2.0000      -0.701274       -19.0826
  36   2.0000      -0.692485       -18.8435
  37   2.0000      -0.655945       -17.8492
  38   2.0000      -0.636515       -17.3205
  39   2.0000      -0.604971       -16.4621
  40   2.0000      -0.591719       -16.1015
  41   2.0000      -0.572833       -15.5876
  42   2.0000      -0.568262       -15.4632
  43   2.0000      -0.552971       -15.0471
  44   2.0000      -0.536881       -14.6093
  45   2.0000      -0.520527       -14.1643
  46   2.0000      -0.517477       -14.0813
  47   2.0000      -0.511046       -13.9063
  48   2.0000      -0.498957       -13.5773
  49   2.0000      -0.490557       -13.3487
  50   2.0000      -0.483263       -13.1503
  51   2.0000      -0.478678       -13.0255
  52   2.0000      -0.473279       -12.8786
  53   2.0000      -0.460737       -12.5373
  54   2.0000      -0.457176       -12.4404
  55   2.0000      -0.452169       -12.3041
  56   2.0000      -0.442062       -12.0291
  57   2.0000      -0.436319       -11.8728
  58   2.0000      -0.430769       -11.7218
  59   2.0000      -0.426783       -11.6133
  60   2.0000      -0.421274       -11.4635
  61   2.0000      -0.414569       -11.2810
  62   2.0000      -0.411528       -11.1982
  63   2.0000      -0.339526        -9.2390
  64   2.0000      -0.332302        -9.0424
  65   2.0000      -0.325955        -8.8697
  66   2.0000      -0.288243        -7.8435
  67   0.0000       0.029595         0.8053
  68   0.0000       0.060328         1.6416
  69   0.0000       0.101992         2.7753
  70   0.0000       0.111103         3.0233
  71   0.0000       0.124569         3.3897

MULLIKEN ATOMIC CHARGES
-----------------------
   0 S :    0.104075
   1 C :   -0.170773
   2 C :   -0.083429
   3 C :    0.032639
   4 C :   -0.132428
   5 H :   -0.010849
   6 C :    0.084014
   7 H :    0.029621
   8 H :    0.017061
   9 C :   -0.069588
  10 H :    0.036918
  11 H :    0.021920
  12 C :   -0.047717
  13 H :    0.028916
  14 H :    0.056640
  15 H :    0.041013
  16 S :    0.094115
  17 C :   -0.082418
  18 C :   -0.035637
  19 C :   -0.074204
  20 C :   -0.152606
  21 H :    0.013425
  22 C :    0.051522
  23 H :    0.028205
  24 H :    0.040904
  25 C :   -0.072004
  26 H :    0.046293
  27 H :    0.035581
  28 C :   -0.081350
  29 H :    0.043552
  30 H :    0.027142
  31 H :    0.044883
  32 H :    0.064602
  33 H :    0.069963
Sum of atomic charges:    0.0000000

LOEWDIN ATOMIC CHARGES
----------------------
   0 S :    0.393573
   1 C :   -0.197857
   2 C :   -0.062504
   3 C :   -0.059993
   4 C :   -0.191164
   5 H :    0.021504
   6 C :   -0.031926
   7 H :    0.035765
   8 H :    0.027104
   9 C :   -0.037829
  10 H :    0.026540
  11 H :    0.021897
  12 C :   -0.061962
  13 H :    0.017370
  14 H :    0.040478
  15 H :    0.025811
  16 S :    0.385994
  17 C :   -0.194260
  18 C :   -0.065042
  19 C :   -0.045820
  20 C :   -0.188452
  21 H :    0.022318
  22 C :   -0.041918
  23 H :    0.036121
  24 H :    0.028393
  25 C :   -0.032142
  26 H :    0.020974
  27 H :    0.024069
  28 C :   -0.072929
  29 H :    0.030679
  30 H :    0.021495
  31 H :    0.034802
  32 H :    0.033731
  33 H :    0.035179

  Mayer bond orders larger than 0.100000
B(  0-S ,  1-C ) :   1.1356 B(  0-S ,  4-C ) :   1.1524 B(  1-C ,  2-C ) :   1.5900
B(  1-C ,  4-C ) :   0.1015 B(  1-C , 32-H ) :   0.9663 B(  2-C ,  3-C ) :   1.2600
B(  2-C ,  6-C ) :   0.9815 B(  3-C ,  4-C ) :   1.5405 B(  3-C ,  5-H ) :   1.0043
B(  4-C , 20-C ) :   1.0167 B(  6-C ,  7-H ) :   0.9322 B(  6-C ,  8-H ) :   0.9464
B(  6-C ,  9-C ) :   1.0744 B(  9-C , 10-H ) :   0.9529 B(  9-C , 11-H ) :   0.9552
B(  9-C , 12-C ) :   1.0733 B( 12-C , 13-H ) :   0.9756 B( 12-C , 14-H ) :   0.9734
B( 12-C , 15-H ) :   0.9773 B( 16-S , 17-C ) :   1.1492 B( 16-S , 20-C ) :   1.1151
B( 17-C , 18-C ) :   1.6455 B( 17-C , 33-H ) :   0.9520 B( 18-C , 19-C ) :   1.2016
B( 18-C , 21-H ) :   0.9817 B( 19-C , 20-C ) :   1.6537 B( 19-C , 22-C ) :   1.0173
B( 22-C , 23-H ) :   0.9264 B( 22-C , 24-H ) :   0.9344 B( 22-C , 25-C ) :   1.0583
B( 25-C , 26-H ) :   0.9652 B( 25-C , 27-H ) :   0.9584 B( 25-C , 28-C ) :   1.0652
B( 28-C , 29-H ) :   0.9798 B( 28-C , 30-H ) :   0.9761 B( 28-C , 31-H ) :   0.9772

Dispersion correction           -0.013860644
FINAL SINGLE POINT ENERGY     -1339.845465043660

DIPOLE MOMENT
-------------
                                X             Y             Z
Electronic contribution:    -10.06632       6.22264       9.86575
Nuclear contribution   :     10.36466      -6.65405     -10.17735
                        -----------------------------------------
Total Dipole Moment    :      0.29834      -0.43141      -0.31160
                        -----------------------------------------
Magnitude (a.u.)       :      0.61010
Magnitude (Debye)      :      1.55074

Rotational constants in cm-1:     0.021217     0.007484     0.006047
Rotational constants in MHz :   636.083660   224.371760   181.287459

                             ****ORCA TERMINATED NORMALLY****
TOTAL RUN TIME: 0 days 0 hours 0 minutes 19 seconds 634 msec
