                         Program Version 4.2.1 -  RELEASE  -
|  1> ! wB97X-D3 SP def2-SVP
|  2> %pal
|  3> nprocs 24
|  4> end
|  5>
|  6> * xyz 0 1
|  7> S 	 -109.12 	 40.9676 	 -11.7082
|  8> C 	 -109.505 	 42.6918 	 -12.0279
|  9> C 	 -110.474 	 43.1504 	 -11.0996
| 10> C 	 -110.805 	 42.1368 	 -10.1668
| 11> C 	 -110.105 	 40.9539 	 -10.3455
| 12> H 	 -111.548 	 42.1554 	 -9.35562
| 13> C 	 -111.217 	 44.5208 	 -11.0446
| 14> H 	 -110.477 	 45.2391 	 -11.2429
| 15> H 	 -111.695 	 44.6995 	 -10.0798
| 16> C 	 -112.247 	 44.775 	 -12.2065
| 17> H 	 -112.615 	 45.8061 	 -12.0235
| 18> H 	 -111.682 	 44.7183 	 -13.1584
| 19> C 	 -113.482 	 43.8658 	 -12.2045
| 20> H 	 -114.352 	 44.3554 	 -12.6375
| 21> H 	 -113.411 	 42.9225 	 -12.791
| 22> H 	 -113.645 	 43.6803 	 -11.1578
| 23> S 	 -110.763 	 38.3063 	 -10.2667
| 24> C 	 -110.499 	 37.4257 	 -8.76974
| 25> C 	 -110.182 	 38.2405 	 -7.72405
| 26> C 	 -110.077 	 39.6081 	 -8.13879
| 27> C 	 -110.239 	 39.7707 	 -9.50772
| 28> H 	 -110.049 	 37.7906 	 -6.72264
| 29> C 	 -109.677 	 40.6871 	 -7.11222
| 30> H 	 -110.078 	 41.7099 	 -7.35882
| 31> H 	 -108.58 	 40.6469 	 -7.16781
| 32> C 	 -110.184 	 40.4782 	 -5.64313
| 33> H 	 -109.847 	 41.3281 	 -5.02943
| 34> H 	 -109.755 	 39.6204 	 -5.17642
| 35> C 	 -111.733 	 40.3632 	 -5.51225
| 36> H 	 -111.967 	 40.2275 	 -4.47908
| 37> H 	 -112.079 	 39.5369 	 -6.09376
| 38> H 	 -112.273 	 41.3008 	 -5.84138
| 39> H 	 -109.236 	 43.1927 	 -12.9574
| 40> H 	 -110.62 	 36.3443 	 -8.70622
| 41> *
| 42>
| 43>                          ****END OF INPUT****

CARTESIAN COORDINATES (ANGSTROEM)
---------------------------------
  S    -109.120000   40.967600  -11.708200
  C    -109.505000   42.691800  -12.027900
  C    -110.474000   43.150400  -11.099600
  C    -110.805000   42.136800  -10.166800
  C    -110.105000   40.953900  -10.345500
  H    -111.548000   42.155400   -9.355620
  C    -111.217000   44.520800  -11.044600
  H    -110.477000   45.239100  -11.242900
  H    -111.695000   44.699500  -10.079800
  C    -112.247000   44.775000  -12.206500
  H    -112.615000   45.806100  -12.023500
  H    -111.682000   44.718300  -13.158400
  C    -113.482000   43.865800  -12.204500
  H    -114.352000   44.355400  -12.637500
  H    -113.411000   42.922500  -12.791000
  H    -113.645000   43.680300  -11.157800
  S    -110.763000   38.306300  -10.266700
  C    -110.499000   37.425700   -8.769740
  C    -110.182000   38.240500   -7.724050
  C    -110.077000   39.608100   -8.138790
  C    -110.239000   39.770700   -9.507720
  H    -110.049000   37.790600   -6.722640
  C    -109.677000   40.687100   -7.112220
  H    -110.078000   41.709900   -7.358820
  H    -108.580000   40.646900   -7.167810
  C    -110.184000   40.478200   -5.643130
  H    -109.847000   41.328100   -5.029430
  H    -109.755000   39.620400   -5.176420
  C    -111.733000   40.363200   -5.512250
  H    -111.967000   40.227500   -4.479080
  H    -112.079000   39.536900   -6.093760
  H    -112.273000   41.300800   -5.841380
  H    -109.236000   43.192700  -12.957400
  H    -110.620000   36.344300   -8.706220

 Total Charge           Charge          ....    0
 Multiplicity           Mult            ....    1
 Number of Electrons    NEL             ....  134
 Basis Dimension        Dim             ....  322

ORBITAL ENERGIES
----------------

  NO   OCC          E(Eh)            E(eV)
   0   2.0000     -88.968403     -2420.9533
   1   2.0000     -88.963791     -2420.8278
   2   2.0000     -10.322199      -280.8813
   3   2.0000     -10.321274      -280.8561
   4   2.0000     -10.319374      -280.8044
   5   2.0000     -10.315783      -280.7067
   6   2.0000     -10.308309      -280.5033
   7   2.0000     -10.305392      -280.4240
   8   2.0000     -10.298102      -280.2256
   9   2.0000     -10.295349      -280.1507
  10   2.0000     -10.294236      -280.1204
  11   2.0000     -10.292429      -280.0712
  12   2.0000     -10.290053      -280.0066
  13   2.0000     -10.289047      -279.9792
  14   2.0000     -10.277148      -279.6554
  15   2.0000     -10.274512      -279.5837
  16   2.0000      -8.083461      -219.9622
  17   2.0000      -8.079050      -219.8421
  18   2.0000      -6.041801      -164.4058
  19   2.0000      -6.037840      -164.2980
  20   2.0000      -6.037476      -164.2881
  21   2.0000      -6.034452      -164.2058
  22   2.0000      -6.033585      -164.1822
  23   2.0000      -6.029776      -164.0786
  24   2.0000      -1.009540       -27.4710
  25   2.0000      -0.983745       -26.7691
  26   2.0000      -0.907085       -24.6830
  27   2.0000      -0.901129       -24.5210
  28   2.0000      -0.866541       -23.5798
  29   2.0000      -0.847747       -23.0684
  30   2.0000      -0.842941       -22.9376
  31   2.0000      -0.810226       -22.0474
  32   2.0000      -0.785291       -21.3688
  33   2.0000      -0.772091       -21.0097
  34   2.0000      -0.702415       -19.1137
  35   2.0000      -0.697190       -18.9715
  36   2.0000      -0.688472       -18.7343
  37   2.0000      -0.655641       -17.8409
  38   2.0000      -0.638776       -17.3820
  39   2.0000      -0.611187       -16.6312
  40   2.0000      -0.594035       -16.1645
  41   2.0000      -0.574178       -15.6242
  42   2.0000      -0.555065       -15.1041
  43   2.0000      -0.552255       -15.0276
  44   2.0000      -0.537614       -14.6292
  45   2.0000      -0.536037       -14.5863
  46   2.0000      -0.513868       -13.9831
  47   2.0000      -0.509796       -13.8722
  48   2.0000      -0.497528       -13.5384
  49   2.0000      -0.495412       -13.4808
  50   2.0000      -0.486077       -13.2268
  51   2.0000      -0.474679       -12.9167
  52   2.0000      -0.469841       -12.7850
  53   2.0000      -0.466353       -12.6901
  54   2.0000      -0.461238       -12.5509
  55   2.0000      -0.448612       -12.2073
  56   2.0000      -0.439884       -11.9699
  57   2.0000      -0.435807       -11.8589
  58   2.0000      -0.434891       -11.8340
  59   2.0000      -0.426329       -11.6010
  60   2.0000      -0.421342       -11.4653
  61   2.0000      -0.415970       -11.3191
  62   2.0000      -0.413694       -11.2572
  63   2.0000      -0.340758        -9.2725
  64   2.0000      -0.333257        -9.0684
  65   2.0000      -0.327526        -8.9124
  66   2.0000      -0.293483        -7.9861
  67   0.0000       0.032538         0.8854
  68   0.0000       0.069812         1.8997
  69   0.0000       0.112103         3.0505
  70   0.0000       0.118033         3.2119
  71   0.0000       0.130151         3.5416

MULLIKEN ATOMIC CHARGES
-----------------------
   0 S :    0.123821
   1 C :   -0.145922
   2 C :   -0.069588
   3 C :    0.018786
   4 C :   -0.167184
   5 H :    0.017965
   6 C :    0.085808
   7 H :    0.019614
   8 H :    0.029035
   9 C :   -0.105328
  10 H :    0.037159
  11 H :    0.033141
  12 C :   -0.040931
  13 H :    0.030970
  14 H :    0.047139
  15 H :    0.019361
  16 S :    0.109106
  17 C :   -0.099795
  18 C :   -0.045867
  19 C :   -0.036716
  20 C :   -0.170862
  21 H :    0.034949
  22 C :    0.061313
  23 H :    0.035200
  24 H :    0.054181
  25 C :   -0.093433
  26 H :    0.034626
  27 H :    0.020420
  28 C :   -0.052163
  29 H :    0.030219
  30 H :    0.038827
  31 H :    0.033843
  32 H :    0.055052
  33 H :    0.057254
Sum of atomic charges:    0.0000000

LOEWDIN ATOMIC CHARGES
----------------------
   0 S :    0.431046
   1 C :   -0.202625
   2 C :   -0.052278
   3 C :   -0.072516
   4 C :   -0.219292
   5 H :    0.033128
   6 C :   -0.024297
   7 H :    0.027550
   8 H :    0.028804
   9 C :   -0.039275
  10 H :    0.028159
  11 H :    0.023072
  12 C :   -0.071562
  13 H :    0.025954
  14 H :    0.032620
  15 H :    0.021851
  16 S :    0.406104
  17 C :   -0.179737
  18 C :   -0.078126
  19 C :   -0.057096
  20 C :   -0.210800
  21 H :    0.040538
  22 C :   -0.032723
  23 H :    0.033920
  24 H :    0.040365
  25 C :   -0.041896
  26 H :    0.028572
  27 H :    0.013894
  28 C :   -0.062961
  29 H :    0.022817
  30 H :    0.021457
  31 H :    0.029256
  32 H :    0.027242
  33 H :    0.028835

  Mayer bond orders larger than 0.100000
B(  0-S ,  1-C ) :   1.1402 B(  0-S ,  4-C ) :   1.1889 B(  1-C ,  2-C ) :   1.5747
B(  1-C ,  4-C ) :   0.1079 B(  1-C , 32-H ) :   0.9704 B(  2-C ,  3-C ) :   1.2660
B(  2-C ,  6-C ) :   1.0090 B(  3-C ,  4-C ) :   1.5513 B(  3-C ,  5-H ) :   0.9894
B(  4-C , 20-C ) :   1.0165 B(  6-C ,  7-H ) :   0.9339 B(  6-C ,  8-H ) :   0.9475
B(  6-C ,  9-C ) :   1.0829 B(  9-C , 10-H ) :   0.9574 B(  9-C , 11-H ) :   0.9584
B(  9-C , 12-C ) :   1.0654 B( 12-C , 13-H ) :   0.9763 B( 12-C , 14-H ) :   0.9748
B( 12-C , 15-H ) :   0.9770 B( 16-S , 17-C ) :   1.1520 B( 16-S , 20-C ) :   1.1502
B( 17-C , 18-C ) :   1.6263 B( 17-C , 33-H ) :   0.9648 B( 18-C , 19-C ) :   1.2208
B( 18-C , 21-H ) :   0.9861 B( 19-C , 20-C ) :   1.6178 B( 19-C , 22-C ) :   1.0205
B( 22-C , 23-H ) :   0.9422 B( 22-C , 24-H ) :   0.9364 B( 22-C , 25-C ) :   1.0725
B( 25-C , 26-H ) :   0.9579 B( 25-C , 27-H ) :   0.9504 B( 25-C , 28-C ) :   1.0765
B( 28-C , 29-H ) :   0.9748 B( 28-C , 30-H ) :   0.9746 B( 28-C , 31-H ) :   0.9755

Dispersion correction           -0.014505563
FINAL SINGLE POINT ENERGY     -1339.884339993879

DIPOLE MOMENT
-------------
                                X             Y             Z
Electronic contribution:     12.41751     -16.91710     -12.71954
Nuclear contribution   :    -12.65085      17.22103      13.13943
                        -----------------------------------------
Total Dipole Moment    :     -0.23334       0.30393       0.41989
                        -----------------------------------------
Magnitude (a.u.)       :      0.56844
Magnitude (Debye)      :      1.44487

Rotational constants in cm-1:     0.019339     0.008324     0.006981
Rotational constants in MHz :   579.782927   249.548293   209.299642

                             ****ORCA TERMINATED NORMALLY****
TOTAL RUN TIME: 0 days 0 hours 0 minutes 21 seconds 660 msec
