                         Program Version 4.2.1 -  RELEASE  -
|  1> ! wB97X-D3 SP def2-SVP
|  2> %pal
|  3> nprocs 24
|  4> end
|  5>
|  6> * xyz 0 1
|  7> S 	 -117.592 	 25.2499 	 -116.359
|  8> C 	 -119.186 	 24.8561 	 -117.058
|  9> C 	 -119.695 	 26.0047 	 -117.551
| 10> C 	 -118.938 	 27.1637 	 -117.333
| 11> C 	 -117.79 	 26.974 	 -116.57
| 12> H 	 -119.319 	 28.2149 	 -117.467
| 13> C 	 -121.095 	 26.1036 	 -118.192
| 14> H 	 -121.4 	 25.0834 	 -118.517
| 15> H 	 -120.995 	 26.673 	 -119.096
| 16> C 	 -122.219 	 26.7607 	 -117.369
| 17> H 	 -121.681 	 27.6601 	 -116.991
| 18> H 	 -123.183 	 27.03 	 -117.969
| 19> C 	 -122.703 	 26.0664 	 -116.134
| 20> H 	 -121.859 	 25.6548 	 -115.578
| 21> H 	 -123.35 	 26.6951 	 -115.47
| 22> H 	 -123.35 	 25.2442 	 -116.461
| 23> S 	 -115.181 	 28.0488 	 -116.933
| 24> C 	 -114.581 	 29.1747 	 -115.71
| 25> C 	 -115.553 	 29.6027 	 -114.851
| 26> C 	 -116.838 	 29.0361 	 -115.255
| 27> C 	 -116.798 	 28.0143 	 -116.224
| 28> H 	 -115.37 	 30.2551 	 -114.003
| 29> C 	 -118.073 	 29.4135 	 -114.514
| 30> H 	 -118.822 	 28.9383 	 -115.079
| 31> H 	 -118.251 	 30.4674 	 -114.68
| 32> C 	 -118.272 	 28.8896 	 -113.049
| 33> H 	 -119.214 	 29.1587 	 -112.581
| 34> H 	 -117.441 	 29.3922 	 -112.501
| 35> C 	 -118.082 	 27.4319 	 -112.773
| 36> H 	 -118.429 	 27.1699 	 -111.778
| 37> H 	 -117.032 	 27.0521 	 -112.881
| 38> H 	 -118.757 	 26.7941 	 -113.347
| 39> H 	 -119.679 	 23.924 	 -117.116
| 40> H 	 -113.581 	 29.5967 	 -115.72
| 41> *
| 42>
| 43>                          ****END OF INPUT****

CARTESIAN COORDINATES (ANGSTROEM)
---------------------------------
  S    -117.592000   25.249900  -116.359000
  C    -119.186000   24.856100  -117.058000
  C    -119.695000   26.004700  -117.551000
  C    -118.938000   27.163700  -117.333000
  C    -117.790000   26.974000  -116.570000
  H    -119.319000   28.214900  -117.467000
  C    -121.095000   26.103600  -118.192000
  H    -121.400000   25.083400  -118.517000
  H    -120.995000   26.673000  -119.096000
  C    -122.219000   26.760700  -117.369000
  H    -121.681000   27.660100  -116.991000
  H    -123.183000   27.030000  -117.969000
  C    -122.703000   26.066400  -116.134000
  H    -121.859000   25.654800  -115.578000
  H    -123.350000   26.695100  -115.470000
  H    -123.350000   25.244200  -116.461000
  S    -115.181000   28.048800  -116.933000
  C    -114.581000   29.174700  -115.710000
  C    -115.553000   29.602700  -114.851000
  C    -116.838000   29.036100  -115.255000
  C    -116.798000   28.014300  -116.224000
  H    -115.370000   30.255100  -114.003000
  C    -118.073000   29.413500  -114.514000
  H    -118.822000   28.938300  -115.079000
  H    -118.251000   30.467400  -114.680000
  C    -118.272000   28.889600  -113.049000
  H    -119.214000   29.158700  -112.581000
  H    -117.441000   29.392200  -112.501000
  C    -118.082000   27.431900  -112.773000
  H    -118.429000   27.169900  -111.778000
  H    -117.032000   27.052100  -112.881000
  H    -118.757000   26.794100  -113.347000
  H    -119.679000   23.924000  -117.116000
  H    -113.581000   29.596700  -115.720000

 Total Charge           Charge          ....    0
 Multiplicity           Mult            ....    1
 Number of Electrons    NEL             ....  134
 Basis Dimension        Dim             ....  322

ORBITAL ENERGIES
----------------

  NO   OCC          E(Eh)            E(eV)
   0   2.0000     -88.969589     -2420.9856
   1   2.0000     -88.965272     -2420.8681
   2   2.0000     -10.338306      -281.3196
   3   2.0000     -10.333808      -281.1972
   4   2.0000     -10.321266      -280.8559
   5   2.0000     -10.317243      -280.7464
   6   2.0000     -10.308412      -280.5062
   7   2.0000     -10.299998      -280.2772
   8   2.0000     -10.298229      -280.2291
   9   2.0000     -10.297914      -280.2205
  10   2.0000     -10.295036      -280.1422
  11   2.0000     -10.294655      -280.1318
  12   2.0000     -10.287643      -279.9410
  13   2.0000     -10.281721      -279.7799
  14   2.0000     -10.277327      -279.6603
  15   2.0000     -10.271877      -279.5120
  16   2.0000      -8.083552      -219.9646
  17   2.0000      -8.079579      -219.8565
  18   2.0000      -6.042168      -164.4158
  19   2.0000      -6.038272      -164.3097
  20   2.0000      -6.038049      -164.3037
  21   2.0000      -6.034294      -164.2015
  22   2.0000      -6.034104      -164.1963
  23   2.0000      -6.030193      -164.0899
  24   2.0000      -1.007083       -27.4041
  25   2.0000      -0.985829       -26.8258
  26   2.0000      -0.911242       -24.7962
  27   2.0000      -0.906301       -24.6617
  28   2.0000      -0.872690       -23.7471
  29   2.0000      -0.848886       -23.0994
  30   2.0000      -0.845276       -23.0011
  31   2.0000      -0.821357       -22.3503
  32   2.0000      -0.785200       -21.3664
  33   2.0000      -0.772981       -21.0339
  34   2.0000      -0.710849       -19.3432
  35   2.0000      -0.694122       -18.8880
  36   2.0000      -0.685096       -18.6424
  37   2.0000      -0.657243       -17.8845
  38   2.0000      -0.639116       -17.3912
  39   2.0000      -0.619880       -16.8678
  40   2.0000      -0.593253       -16.1432
  41   2.0000      -0.577726       -15.7207
  42   2.0000      -0.556223       -15.1356
  43   2.0000      -0.551470       -15.0063
  44   2.0000      -0.545822       -14.8526
  45   2.0000      -0.541665       -14.7394
  46   2.0000      -0.519778       -14.1439
  47   2.0000      -0.513879       -13.9834
  48   2.0000      -0.508234       -13.8297
  49   2.0000      -0.498891       -13.5755
  50   2.0000      -0.482822       -13.1382
  51   2.0000      -0.480638       -13.0788
  52   2.0000      -0.472977       -12.8704
  53   2.0000      -0.462060       -12.5733
  54   2.0000      -0.456299       -12.4165
  55   2.0000      -0.448172       -12.1954
  56   2.0000      -0.445521       -12.1233
  57   2.0000      -0.438720       -11.9382
  58   2.0000      -0.435573       -11.8526
  59   2.0000      -0.416804       -11.3418
  60   2.0000      -0.410162       -11.1611
  61   2.0000      -0.405559       -11.0358
  62   2.0000      -0.399357       -10.8671
  63   2.0000      -0.342140        -9.3101
  64   2.0000      -0.336021        -9.1436
  65   2.0000      -0.328662        -8.9434
  66   2.0000      -0.303261        -8.2521
  67   0.0000       0.032001         0.8708
  68   0.0000       0.054479         1.4825
  69   0.0000       0.112501         3.0613
  70   0.0000       0.122544         3.3346
  71   0.0000       0.126942         3.4543

MULLIKEN ATOMIC CHARGES
-----------------------
   0 S :    0.112360
   1 C :   -0.102653
   2 C :   -0.091822
   3 C :    0.026371
   4 C :   -0.167492
   5 H :    0.044923
   6 C :    0.087245
   7 H :    0.011171
   8 H :    0.029538
   9 C :   -0.106585
  10 H :    0.022561
  11 H :    0.050690
  12 C :   -0.056973
  13 H :    0.035544
  14 H :    0.043007
  15 H :    0.022419
  16 S :    0.102505
  17 C :   -0.092210
  18 C :   -0.013411
  19 C :   -0.101300
  20 C :   -0.148395
  21 H :    0.032355
  22 C :    0.122217
  23 H :   -0.017442
  24 H :    0.033355
  25 C :   -0.067019
  26 H :    0.033054
  27 H :    0.022594
  28 C :   -0.056604
  29 H :    0.021696
  30 H :    0.048360
  31 H :    0.022548
  32 H :    0.034792
  33 H :    0.062600
Sum of atomic charges:    0.0000000

LOEWDIN ATOMIC CHARGES
----------------------
   0 S :    0.403715
   1 C :   -0.174937
   2 C :   -0.072915
   3 C :   -0.071280
   4 C :   -0.192041
   5 H :    0.040750
   6 C :   -0.028492
   7 H :    0.024266
   8 H :    0.031891
   9 C :   -0.054754
  10 H :    0.023812
  11 H :    0.037288
  12 C :   -0.073480
  13 H :    0.024369
  14 H :    0.032084
  15 H :    0.021736
  16 S :    0.389636
  17 C :   -0.170842
  18 C :   -0.072470
  19 C :   -0.044685
  20 C :   -0.203043
  21 H :    0.036919
  22 C :   -0.038595
  23 H :    0.018612
  24 H :    0.034786
  25 C :   -0.039593
  26 H :    0.026615
  27 H :    0.023381
  28 C :   -0.072452
  29 H :    0.027120
  30 H :    0.031828
  31 H :    0.021998
  32 H :    0.027533
  33 H :    0.031239

  Mayer bond orders larger than 0.100000
B(  0-S ,  1-C ) :   1.1269 B(  0-S ,  4-C ) :   1.1557 B(  1-C ,  2-C ) :   1.6106
B(  1-C ,  4-C ) :   0.1006 B(  1-C , 32-H ) :   0.9776 B(  2-C ,  3-C ) :   1.2558
B(  2-C ,  6-C ) :   1.0195 B(  3-C ,  4-C ) :   1.5639 B(  3-C ,  5-H ) :   0.9763
B(  4-C , 20-C ) :   1.0361 B(  6-C ,  7-H ) :   0.9426 B(  6-C ,  8-H ) :   0.9359
B(  6-C ,  9-C ) :   1.0611 B(  9-C , 10-H ) :   0.9527 B(  9-C , 11-H ) :   0.9552
B(  9-C , 12-C ) :   1.0842 B( 12-C , 13-H ) :   0.9728 B( 12-C , 14-H ) :   0.9727
B( 12-C , 15-H ) :   0.9730 B( 16-S , 17-C ) :   1.1536 B( 16-S , 20-C ) :   1.1216
B( 17-C , 18-C ) :   1.6185 B( 17-C , 33-H ) :   0.9633 B( 18-C , 19-C ) :   1.2200
B( 18-C , 21-H ) :   0.9925 B( 19-C , 20-C ) :   1.5988 B( 19-C , 22-C ) :   1.0562
B( 22-C , 23-H ) :   0.9179 B( 22-C , 24-H ) :   0.9316 B( 22-C , 25-C ) :   1.0525
B( 25-C , 26-H ) :   0.9583 B( 25-C , 27-H ) :   0.9572 B( 25-C , 28-C ) :   1.0902
B( 28-C , 29-H ) :   0.9686 B( 28-C , 30-H ) :   0.9719 B( 28-C , 31-H ) :   0.9695

Dispersion correction           -0.015650708
FINAL SINGLE POINT ENERGY     -1339.865968236121

DIPOLE MOMENT
-------------
                                X             Y             Z
Electronic contribution:     24.35032      -3.02604     -10.81193
Nuclear contribution   :    -24.85390       3.32119      11.04755
                        -----------------------------------------
Total Dipole Moment    :     -0.50359       0.29514       0.23562
                        -----------------------------------------
Magnitude (a.u.)       :      0.62947
Magnitude (Debye)      :      1.59998

Rotational constants in cm-1:     0.020625     0.008979     0.007572
Rotational constants in MHz :   618.311504   269.172264   226.989054

                             ****ORCA TERMINATED NORMALLY****
TOTAL RUN TIME: 0 days 0 hours 0 minutes 22 seconds 542 msec
