                         Program Version 4.2.1 -  RELEASE  -
|  1> ! wB97X-D3 SP def2-SVP
|  2> %pal
|  3> nprocs 24
|  4> end
|  5>
|  6> * xyz 0 1
|  7> S 	 46.1473 	 -35.9 	 -121.529
|  8> C 	 45.6516 	 -34.3626 	 -122.343
|  9> C 	 45.1442 	 -33.4156 	 -121.507
| 10> C 	 45.2323 	 -33.8449 	 -120.169
| 11> C 	 45.6654 	 -35.1612 	 -120.028
| 12> H 	 45.1605 	 -33.3644 	 -119.236
| 13> C 	 44.7002 	 -32.0715 	 -121.89
| 14> H 	 43.6625 	 -32.0785 	 -121.601
| 15> H 	 44.7601 	 -31.8332 	 -122.995
| 16> C 	 45.4133 	 -30.875 	 -121.144
| 17> H 	 45.3645 	 -31.0016 	 -120.012
| 18> H 	 46.45 	 -30.9164 	 -121.392
| 19> C 	 44.7027 	 -29.5509 	 -121.432
| 20> H 	 43.7052 	 -29.4765 	 -121.137
| 21> H 	 45.2206 	 -28.7438 	 -120.902
| 22> H 	 44.717 	 -29.3549 	 -122.466
| 23> S 	 47.2104 	 -35.8794 	 -117.907
| 24> C 	 46.5002 	 -36.2591 	 -116.365
| 25> C 	 45.1399 	 -36.4323 	 -116.513
| 26> C 	 44.6262 	 -36.2543 	 -117.87
| 27> C 	 45.6602 	 -35.8802 	 -118.704
| 28> H 	 44.5254 	 -36.7765 	 -115.629
| 29> C 	 43.1528 	 -36.3267 	 -118.308
| 30> H 	 42.8451 	 -37.3164 	 -118.159
| 31> H 	 43.1708 	 -36.272 	 -119.414
| 32> C 	 42.2913 	 -35.2941 	 -117.623
| 33> H 	 42.7856 	 -34.3652 	 -117.582
| 34> H 	 42.2378 	 -35.5885 	 -116.53
| 35> C 	 40.8324 	 -35.1785 	 -118.179
| 36> H 	 40.8637 	 -34.4694 	 -119.014
| 37> H 	 40.0996 	 -34.6802 	 -117.585
| 38> H 	 40.3761 	 -36.1359 	 -118.487
| 39> H 	 45.7495 	 -34.168 	 -123.461
| 40> H 	 46.8981 	 -36.4557 	 -115.371
| 41> *
| 42>
| 43>                          ****END OF INPUT****

CARTESIAN COORDINATES (ANGSTROEM)
---------------------------------
  S     46.147300  -35.900000  -121.529000
  C     45.651600  -34.362600  -122.343000
  C     45.144200  -33.415600  -121.507000
  C     45.232300  -33.844900  -120.169000
  C     45.665400  -35.161200  -120.028000
  H     45.160500  -33.364400  -119.236000
  C     44.700200  -32.071500  -121.890000
  H     43.662500  -32.078500  -121.601000
  H     44.760100  -31.833200  -122.995000
  C     45.413300  -30.875000  -121.144000
  H     45.364500  -31.001600  -120.012000
  H     46.450000  -30.916400  -121.392000
  C     44.702700  -29.550900  -121.432000
  H     43.705200  -29.476500  -121.137000
  H     45.220600  -28.743800  -120.902000
  H     44.717000  -29.354900  -122.466000
  S     47.210400  -35.879400  -117.907000
  C     46.500200  -36.259100  -116.365000
  C     45.139900  -36.432300  -116.513000
  C     44.626200  -36.254300  -117.870000
  C     45.660200  -35.880200  -118.704000
  H     44.525400  -36.776500  -115.629000
  C     43.152800  -36.326700  -118.308000
  H     42.845100  -37.316400  -118.159000
  H     43.170800  -36.272000  -119.414000
  C     42.291300  -35.294100  -117.623000
  H     42.785600  -34.365200  -117.582000
  H     42.237800  -35.588500  -116.530000
  C     40.832400  -35.178500  -118.179000
  H     40.863700  -34.469400  -119.014000
  H     40.099600  -34.680200  -117.585000
  H     40.376100  -36.135900  -118.487000
  H     45.749500  -34.168000  -123.461000
  H     46.898100  -36.455700  -115.371000

 Total Charge           Charge          ....    0
 Multiplicity           Mult            ....    1
 Number of Electrons    NEL             ....  134
 Basis Dimension        Dim             ....  322

ORBITAL ENERGIES
----------------

  NO   OCC          E(Eh)            E(eV)
   0   2.0000     -88.968167     -2420.9469
   1   2.0000     -88.963729     -2420.8261
   2   2.0000     -10.329179      -281.0713
   3   2.0000     -10.324908      -280.9550
   4   2.0000     -10.318102      -280.7698
   5   2.0000     -10.316233      -280.7190
   6   2.0000     -10.306440      -280.4525
   7   2.0000     -10.298079      -280.2250
   8   2.0000     -10.297906      -280.2203
   9   2.0000     -10.295633      -280.1584
  10   2.0000     -10.293551      -280.1017
  11   2.0000     -10.289021      -279.9785
  12   2.0000     -10.288821      -279.9731
  13   2.0000     -10.288553      -279.9658
  14   2.0000     -10.279668      -279.7240
  15   2.0000     -10.272140      -279.5191
  16   2.0000      -8.082031      -219.9232
  17   2.0000      -8.078664      -219.8316
  18   2.0000      -6.040491      -164.3701
  19   2.0000      -6.037293      -164.2831
  20   2.0000      -6.036819      -164.2702
  21   2.0000      -6.033057      -164.1678
  22   2.0000      -6.032751      -164.1595
  23   2.0000      -6.029350      -164.0669
  24   2.0000      -1.003811       -27.3151
  25   2.0000      -0.983044       -26.7500
  26   2.0000      -0.912268       -24.8241
  27   2.0000      -0.907478       -24.6937
  28   2.0000      -0.866797       -23.5867
  29   2.0000      -0.849860       -23.1259
  30   2.0000      -0.842980       -22.9386
  31   2.0000      -0.813335       -22.1320
  32   2.0000      -0.784373       -21.3439
  33   2.0000      -0.774338       -21.0708
  34   2.0000      -0.709294       -19.3009
  35   2.0000      -0.705489       -19.1973
  36   2.0000      -0.691620       -18.8199
  37   2.0000      -0.651139       -17.7184
  38   2.0000      -0.641719       -17.4621
  39   2.0000      -0.616733       -16.7822
  40   2.0000      -0.590838       -16.0775
  41   2.0000      -0.568623       -15.4730
  42   2.0000      -0.562383       -15.3032
  43   2.0000      -0.556712       -15.1489
  44   2.0000      -0.524547       -14.2737
  45   2.0000      -0.521857       -14.2005
  46   2.0000      -0.514847       -14.0097
  47   2.0000      -0.512527       -13.9466
  48   2.0000      -0.504633       -13.7318
  49   2.0000      -0.502869       -13.6838
  50   2.0000      -0.487359       -13.2617
  51   2.0000      -0.473769       -12.8919
  52   2.0000      -0.470100       -12.7921
  53   2.0000      -0.464854       -12.6493
  54   2.0000      -0.457606       -12.4521
  55   2.0000      -0.452205       -12.3051
  56   2.0000      -0.446375       -12.1465
  57   2.0000      -0.445244       -12.1157
  58   2.0000      -0.436156       -11.8684
  59   2.0000      -0.424657       -11.5555
  60   2.0000      -0.422906       -11.5079
  61   2.0000      -0.418419       -11.3858
  62   2.0000      -0.406786       -11.0692
  63   2.0000      -0.335260        -9.1229
  64   2.0000      -0.331173        -9.0117
  65   2.0000      -0.321288        -8.7427
  66   2.0000      -0.308159        -8.3854
  67   0.0000       0.045506         1.2383
  68   0.0000       0.059466         1.6182
  69   0.0000       0.112335         3.0568
  70   0.0000       0.121655         3.3104
  71   0.0000       0.129291         3.5182

MULLIKEN ATOMIC CHARGES
-----------------------
   0 S :    0.111991
   1 C :   -0.157756
   2 C :   -0.023651
   3 C :    0.047565
   4 C :   -0.184878
   5 H :    0.002251
   6 C :    0.056471
   7 H :    0.030266
   8 H :    0.031414
   9 C :   -0.113922
  10 H :    0.040124
  11 H :    0.036340
  12 C :    0.000197
  13 H :    0.017418
  14 H :    0.033111
  15 H :    0.015160
  16 S :    0.114316
  17 C :   -0.079269
  18 C :   -0.086950
  19 C :   -0.046428
  20 C :   -0.193505
  21 H :    0.039098
  22 C :    0.127093
  23 H :    0.013360
  24 H :    0.028188
  25 C :   -0.077769
  26 H :    0.021536
  27 H :    0.031203
  28 C :   -0.038488
  29 H :    0.027352
  30 H :    0.022722
  31 H :    0.038073
  32 H :    0.061968
  33 H :    0.055397
Sum of atomic charges:   -0.0000000

LOEWDIN ATOMIC CHARGES
----------------------
   0 S :    0.383368
   1 C :   -0.189571
   2 C :   -0.069036
   3 C :   -0.055258
   4 C :   -0.198035
   5 H :    0.026572
   6 C :   -0.033398
   7 H :    0.033495
   8 H :    0.035331
   9 C :   -0.034866
  10 H :    0.029178
  11 H :    0.021938
  12 C :   -0.057737
  13 H :    0.018757
  14 H :    0.031420
  15 H :    0.017689
  16 S :    0.413324
  17 C :   -0.199382
  18 C :   -0.083722
  19 C :   -0.050881
  20 C :   -0.206576
  21 H :    0.037343
  22 C :   -0.025412
  23 H :    0.024819
  24 H :    0.034996
  25 C :   -0.037966
  26 H :    0.018426
  27 H :    0.028800
  28 C :   -0.069816
  29 H :    0.028255
  30 H :    0.022268
  31 H :    0.029034
  32 H :    0.038975
  33 H :    0.037668

  Mayer bond orders larger than 0.100000
B(  0-S ,  1-C ) :   1.1164 B(  0-S ,  4-C ) :   1.1518 B(  1-C ,  2-C ) :   1.6489
B(  1-C , 32-H ) :   0.9551 B(  2-C ,  3-C ) :   1.1877 B(  2-C ,  6-C ) :   1.0299
B(  3-C ,  4-C ) :   1.6114 B(  3-C ,  5-H ) :   1.0004 B(  4-C , 20-C ) :   0.9682
B(  6-C ,  7-H ) :   0.9254 B(  6-C ,  8-H ) :   0.9455 B(  6-C ,  9-C ) :   1.0539
B(  9-C , 10-H ) :   0.9547 B(  9-C , 11-H ) :   0.9599 B(  9-C , 12-C ) :   1.0823
B( 12-C , 13-H ) :   0.9739 B( 12-C , 14-H ) :   0.9718 B( 12-C , 15-H ) :   0.9734
B( 16-S , 17-C ) :   1.1425 B( 16-S , 20-C ) :   1.1494 B( 17-C , 18-C ) :   1.6440
B( 17-C , 33-H ) :   0.9642 B( 18-C , 19-C ) :   1.2165 B( 18-C , 21-H ) :   0.9755
B( 19-C , 20-C ) :   1.6347 B( 19-C , 22-C ) :   1.0340 B( 22-C , 23-H ) :   0.9234
B( 22-C , 24-H ) :   0.9349 B( 22-C , 25-C ) :   1.0537 B( 25-C , 26-H ) :   0.9625
B( 25-C , 27-H ) :   0.9535 B( 25-C , 28-C ) :   1.0718 B( 28-C , 29-H ) :   0.9752
B( 28-C , 30-H ) :   0.9754 B( 28-C , 31-H ) :   0.9768

Dispersion correction           -0.014269085
FINAL SINGLE POINT ENERGY     -1339.866488381027

DIPOLE MOMENT
-------------
                                X             Y             Z
Electronic contribution:     21.15065     -19.53851      -0.06678
Nuclear contribution   :    -21.69793      20.04971       0.22887
                        -----------------------------------------
Total Dipole Moment    :     -0.54728       0.51120       0.16209
                        -----------------------------------------
Magnitude (a.u.)       :      0.76624
Magnitude (Debye)      :      1.94762

Rotational constants in cm-1:     0.015702     0.008789     0.007327
Rotational constants in MHz :   470.741762   263.487386   219.672630

                             ****ORCA TERMINATED NORMALLY****
TOTAL RUN TIME: 0 days 0 hours 0 minutes 21 seconds 528 msec
