                         Program Version 4.2.1 -  RELEASE  -
|  1> ! wB97X-D3 SP def2-SVP
|  2> %pal
|  3> nprocs 24
|  4> end
|  5>
|  6> * xyz 0 1
|  7> S 	 -73.441 	 5.93091 	 -104.149
|  8> C 	 -73.3331 	 7.43946 	 -103.202
|  9> C 	 -72.932 	 8.51237 	 -103.979
| 10> C 	 -72.591 	 8.11547 	 -105.287
| 11> C 	 -72.8521 	 6.78236 	 -105.591
| 12> H 	 -72.2039 	 8.73123 	 -106.077
| 13> C 	 -72.8974 	 9.9546 	 -103.475
| 14> H 	 -73.5362 	 9.89261 	 -102.512
| 15> H 	 -73.4495 	 10.5419 	 -104.165
| 16> C 	 -71.5021 	 10.4502 	 -103.217
| 17> H 	 -70.8815 	 10.498 	 -104.074
| 18> H 	 -71.606 	 11.5243 	 -103.02
| 19> C 	 -70.6865 	 9.95826 	 -102.058
| 20> H 	 -69.7911 	 10.5252 	 -101.966
| 21> H 	 -71.3357 	 10.0493 	 -101.166
| 22> H 	 -70.2766 	 8.96029 	 -102.328
| 23> S 	 -73.9711 	 5.24018 	 -107.481
| 24> C 	 -73.1326 	 5.05843 	 -109.02
| 25> C 	 -71.8985 	 5.68793 	 -109.061
| 26> C 	 -71.6215 	 6.37677 	 -107.817
| 27> C 	 -72.6344 	 6.1948 	 -106.908
| 28> H 	 -71.3896 	 5.63181 	 -110.056
| 29> C 	 -70.3442 	 7.21832 	 -107.577
| 30> H 	 -70.3686 	 7.63618 	 -106.589
| 31> H 	 -70.5404 	 8.01175 	 -108.352
| 32> C 	 -68.983 	 6.54931 	 -107.938
| 33> H 	 -69.1191 	 6.21288 	 -108.969
| 34> H 	 -68.7538 	 5.76715 	 -107.17
| 35> C 	 -67.8279 	 7.5384 	 -107.898
| 36> H 	 -67.4931 	 7.8874 	 -106.895
| 37> H 	 -67.9803 	 8.4362 	 -108.457
| 38> H 	 -67.0045 	 7.00692 	 -108.329
| 39> H 	 -73.6305 	 7.44131 	 -102.171
| 40> H 	 -73.4339 	 4.45326 	 -109.935
| 41> *
| 42>
| 43>                          ****END OF INPUT****

CARTESIAN COORDINATES (ANGSTROEM)
---------------------------------
  S    -73.441000    5.930910  -104.149000
  C    -73.333100    7.439460  -103.202000
  C    -72.932000    8.512370  -103.979000
  C    -72.591000    8.115470  -105.287000
  C    -72.852100    6.782360  -105.591000
  H    -72.203900    8.731230  -106.077000
  C    -72.897400    9.954600  -103.475000
  H    -73.536200    9.892610  -102.512000
  H    -73.449500   10.541900  -104.165000
  C    -71.502100   10.450200  -103.217000
  H    -70.881500   10.498000  -104.074000
  H    -71.606000   11.524300  -103.020000
  C    -70.686500    9.958260  -102.058000
  H    -69.791100   10.525200  -101.966000
  H    -71.335700   10.049300  -101.166000
  H    -70.276600    8.960290  -102.328000
  S    -73.971100    5.240180  -107.481000
  C    -73.132600    5.058430  -109.020000
  C    -71.898500    5.687930  -109.061000
  C    -71.621500    6.376770  -107.817000
  C    -72.634400    6.194800  -106.908000
  H    -71.389600    5.631810  -110.056000
  C    -70.344200    7.218320  -107.577000
  H    -70.368600    7.636180  -106.589000
  H    -70.540400    8.011750  -108.352000
  C    -68.983000    6.549310  -107.938000
  H    -69.119100    6.212880  -108.969000
  H    -68.753800    5.767150  -107.170000
  C    -67.827900    7.538400  -107.898000
  H    -67.493100    7.887400  -106.895000
  H    -67.980300    8.436200  -108.457000
  H    -67.004500    7.006920  -108.329000
  H    -73.630500    7.441310  -102.171000
  H    -73.433900    4.453260  -109.935000

 Total Charge           Charge          ....    0
 Multiplicity           Mult            ....    1
 Number of Electrons    NEL             ....  134
 Basis Dimension        Dim             ....  322

ORBITAL ENERGIES
----------------

  NO   OCC          E(Eh)            E(eV)
   0   2.0000     -88.966063     -2420.8896
   1   2.0000     -88.965888     -2420.8849
   2   2.0000     -10.329331      -281.0754
   3   2.0000     -10.322534      -280.8904
   4   2.0000     -10.320881      -280.8455
   5   2.0000     -10.314266      -280.6655
   6   2.0000     -10.307207      -280.4734
   7   2.0000     -10.299799      -280.2718
   8   2.0000     -10.299419      -280.2614
   9   2.0000     -10.297921      -280.2207
  10   2.0000     -10.295608      -280.1577
  11   2.0000     -10.293625      -280.1038
  12   2.0000     -10.289316      -279.9865
  13   2.0000     -10.279294      -279.7138
  14   2.0000     -10.277409      -279.6625
  15   2.0000     -10.275841      -279.6198
  16   2.0000      -8.080845      -219.8910
  17   2.0000      -8.079637      -219.8581
  18   2.0000      -6.039405      -164.3406
  19   2.0000      -6.038194      -164.3076
  20   2.0000      -6.035468      -164.2334
  21   2.0000      -6.034353      -164.2031
  22   2.0000      -6.031421      -164.1233
  23   2.0000      -6.030346      -164.0941
  24   2.0000      -1.003906       -27.3177
  25   2.0000      -0.979270       -26.6473
  26   2.0000      -0.915682       -24.9170
  27   2.0000      -0.906141       -24.6574
  28   2.0000      -0.868749       -23.6399
  29   2.0000      -0.854314       -23.2471
  30   2.0000      -0.846045       -23.0220
  31   2.0000      -0.813364       -22.1328
  32   2.0000      -0.785261       -21.3680
  33   2.0000      -0.772285       -21.0150
  34   2.0000      -0.706010       -19.2115
  35   2.0000      -0.694001       -18.8847
  36   2.0000      -0.691988       -18.8299
  37   2.0000      -0.654362       -17.8061
  38   2.0000      -0.638332       -17.3699
  39   2.0000      -0.619212       -16.8496
  40   2.0000      -0.587018       -15.9736
  41   2.0000      -0.569857       -15.5066
  42   2.0000      -0.566654       -15.4194
  43   2.0000      -0.563808       -15.3420
  44   2.0000      -0.538771       -14.6607
  45   2.0000      -0.527750       -14.3608
  46   2.0000      -0.519668       -14.1409
  47   2.0000      -0.512453       -13.9446
  48   2.0000      -0.496504       -13.5106
  49   2.0000      -0.495120       -13.4729
  50   2.0000      -0.485765       -13.2183
  51   2.0000      -0.476520       -12.9668
  52   2.0000      -0.470926       -12.8146
  53   2.0000      -0.465024       -12.6539
  54   2.0000      -0.460458       -12.5297
  55   2.0000      -0.451552       -12.2874
  56   2.0000      -0.448257       -12.1977
  57   2.0000      -0.437431       -11.9031
  58   2.0000      -0.433416       -11.7939
  59   2.0000      -0.425359       -11.5746
  60   2.0000      -0.423913       -11.5352
  61   2.0000      -0.415684       -11.3113
  62   2.0000      -0.400171       -10.8892
  63   2.0000      -0.348421        -9.4810
  64   2.0000      -0.332384        -9.0446
  65   2.0000      -0.329962        -8.9787
  66   2.0000      -0.286988        -7.8093
  67   0.0000       0.031495         0.8570
  68   0.0000       0.073726         2.0062
  69   0.0000       0.107032         2.9125
  70   0.0000       0.126142         3.4325
  71   0.0000       0.128679         3.5015

MULLIKEN ATOMIC CHARGES
-----------------------
   0 S :    0.100097
   1 C :   -0.137948
   2 C :   -0.071323
   3 C :    0.007812
   4 C :   -0.142072
   5 H :    0.009408
   6 C :    0.096315
   7 H :    0.027459
   8 H :    0.027864
   9 C :   -0.081890
  10 H :    0.011071
  11 H :    0.016476
  12 C :   -0.019437
  13 H :    0.023560
  14 H :    0.036878
  15 H :    0.036797
  16 S :    0.111906
  17 C :   -0.113946
  18 C :   -0.079458
  19 C :   -0.022033
  20 C :   -0.158348
  21 H :    0.041794
  22 C :    0.035229
  23 H :    0.025603
  24 H :    0.039524
  25 C :   -0.068227
  26 H :    0.032444
  27 H :    0.051757
  28 C :   -0.035220
  29 H :    0.032743
  30 H :    0.018446
  31 H :    0.029024
  32 H :    0.045456
  33 H :    0.072237
Sum of atomic charges:    0.0000000

LOEWDIN ATOMIC CHARGES
----------------------
   0 S :    0.376653
   1 C :   -0.185151
   2 C :   -0.064165
   3 C :   -0.067001
   4 C :   -0.185278
   5 H :    0.028353
   6 C :   -0.023887
   7 H :    0.039507
   8 H :    0.029847
   9 C :   -0.051792
  10 H :    0.017972
  11 H :    0.025616
  12 C :   -0.059575
  13 H :    0.023950
  14 H :    0.029363
  15 H :    0.029988
  16 S :    0.402626
  17 C :   -0.194646
  18 C :   -0.083470
  19 C :   -0.055585
  20 C :   -0.202076
  21 H :    0.042663
  22 C :   -0.033812
  23 H :    0.023064
  24 H :    0.038562
  25 C :   -0.036215
  26 H :    0.025799
  27 H :    0.036107
  28 C :   -0.066488
  29 H :    0.028114
  30 H :    0.018638
  31 H :    0.026012
  32 H :    0.022799
  33 H :    0.043509

  Mayer bond orders larger than 0.100000
B(  0-S ,  1-C ) :   1.1280 B(  0-S ,  4-C ) :   1.1440 B(  1-C ,  2-C ) :   1.6053
B(  1-C ,  4-C ) :   0.1023 B(  1-C , 32-H ) :   0.9709 B(  2-C ,  3-C ) :   1.2396
B(  2-C ,  6-C ) :   1.0101 B(  3-C ,  4-C ) :   1.5725 B(  3-C ,  5-H ) :   0.9941
B(  4-C , 20-C ) :   1.0389 B(  6-C ,  7-H ) :   0.9411 B(  6-C ,  8-H ) :   0.9359
B(  6-C ,  9-C ) :   1.0752 B(  9-C , 10-H ) :   0.9520 B(  9-C , 11-H ) :   0.9483
B(  9-C , 12-C ) :   1.0896 B( 12-C , 13-H ) :   0.9680 B( 12-C , 14-H ) :   0.9738
B( 12-C , 15-H ) :   0.9715 B( 16-S , 17-C ) :   1.1372 B( 16-S , 20-C ) :   1.1283
B( 17-C , 18-C ) :   1.6724 B( 17-C , 33-H ) :   0.9541 B( 18-C , 19-C ) :   1.1868
B( 18-C , 21-H ) :   0.9793 B( 19-C , 20-C ) :   1.6410 B( 19-C , 22-C ) :   1.0218
B( 22-C , 23-H ) :   0.9368 B( 22-C , 24-H ) :   0.9337 B( 22-C , 25-C ) :   1.0695
B( 25-C , 26-H ) :   0.9506 B( 25-C , 27-H ) :   0.9542 B( 25-C , 28-C ) :   1.0910
B( 28-C , 29-H ) :   0.9739 B( 28-C , 30-H ) :   0.9733 B( 28-C , 31-H ) :   0.9730

Dispersion correction           -0.013801903
FINAL SINGLE POINT ENERGY     -1339.873972835431

DIPOLE MOMENT
-------------
                                X             Y             Z
Electronic contribution:    -23.29411     -19.44389      -3.64072
Nuclear contribution   :     23.80422      20.05204       3.42903
                        -----------------------------------------
Total Dipole Moment    :      0.51012       0.60815      -0.21169
                        -----------------------------------------
Magnitude (a.u.)       :      0.82151
Magnitude (Debye)      :      2.08811

Rotational constants in cm-1:     0.016515     0.009386     0.006576
Rotational constants in MHz :   495.119150   281.391648   197.144791

                             ****ORCA TERMINATED NORMALLY****
TOTAL RUN TIME: 0 days 0 hours 0 minutes 21 seconds 489 msec
