                         Program Version 4.2.1 -  RELEASE  -
|  1> ! wB97X-D3 SP def2-SVP
|  2> %pal
|  3> nprocs 24
|  4> end
|  5>
|  6> * xyz 0 1
|  7> S 	 -135.067 	 31.7651 	 -18.4146
|  8> C 	 -135.175 	 30.6059 	 -19.7091
|  9> C 	 -135.994 	 29.5274 	 -19.3507
| 10> C 	 -136.729 	 29.8094 	 -18.2138
| 11> C 	 -136.393 	 31.0364 	 -17.5743
| 12> H 	 -137.467 	 29.1859 	 -17.7535
| 13> C 	 -136.172 	 28.2663 	 -20.1838
| 14> H 	 -136.611 	 27.4578 	 -19.5794
| 15> H 	 -135.173 	 28.019 	 -20.4458
| 16> C 	 -136.96 	 28.4694 	 -21.4508
| 17> H 	 -138.019 	 28.5577 	 -21.1857
| 18> H 	 -136.671 	 29.4216 	 -21.8537
| 19> C 	 -136.848 	 27.3108 	 -22.4146
| 20> H 	 -137.173 	 27.6092 	 -23.4402
| 21> H 	 -135.835 	 26.8893 	 -22.6318
| 22> H 	 -137.381 	 26.432 	 -21.9998
| 23> S 	 -138.574 	 30.9359 	 -15.8806
| 24> C 	 -138.618 	 31.8697 	 -14.3729
| 25> C 	 -137.47 	 32.6095 	 -14.2556
| 26> C 	 -136.54 	 32.5005 	 -15.3878
| 27> C 	 -137.004 	 31.5377 	 -16.3286
| 28> H 	 -137.264 	 33.1301 	 -13.3444
| 29> C 	 -135.172 	 33.1537 	 -15.253
| 30> H 	 -134.421 	 32.5917 	 -15.7793
| 31> H 	 -135 	 33.1501 	 -14.2038
| 32> C 	 -135.011 	 34.6455 	 -15.6906
| 33> H 	 -135.743 	 35.1936 	 -15.0774
| 34> H 	 -135.299 	 34.9046 	 -16.7544
| 35> C 	 -133.657 	 35.2888 	 -15.271
| 36> H 	 -132.836 	 35.0631 	 -15.9348
| 37> H 	 -133.438 	 35.122 	 -14.2322
| 38> H 	 -133.858 	 36.4074 	 -15.2994
| 39> H 	 -134.694 	 30.6377 	 -20.6707
| 40> H 	 -139.333 	 31.7615 	 -13.5673
| 41> *
| 42>
| 43>                          ****END OF INPUT****

CARTESIAN COORDINATES (ANGSTROEM)
---------------------------------
  S    -135.067000   31.765100  -18.414600
  C    -135.175000   30.605900  -19.709100
  C    -135.994000   29.527400  -19.350700
  C    -136.729000   29.809400  -18.213800
  C    -136.393000   31.036400  -17.574300
  H    -137.467000   29.185900  -17.753500
  C    -136.172000   28.266300  -20.183800
  H    -136.611000   27.457800  -19.579400
  H    -135.173000   28.019000  -20.445800
  C    -136.960000   28.469400  -21.450800
  H    -138.019000   28.557700  -21.185700
  H    -136.671000   29.421600  -21.853700
  C    -136.848000   27.310800  -22.414600
  H    -137.173000   27.609200  -23.440200
  H    -135.835000   26.889300  -22.631800
  H    -137.381000   26.432000  -21.999800
  S    -138.574000   30.935900  -15.880600
  C    -138.618000   31.869700  -14.372900
  C    -137.470000   32.609500  -14.255600
  C    -136.540000   32.500500  -15.387800
  C    -137.004000   31.537700  -16.328600
  H    -137.264000   33.130100  -13.344400
  C    -135.172000   33.153700  -15.253000
  H    -134.421000   32.591700  -15.779300
  H    -135.000000   33.150100  -14.203800
  C    -135.011000   34.645500  -15.690600
  H    -135.743000   35.193600  -15.077400
  H    -135.299000   34.904600  -16.754400
  C    -133.657000   35.288800  -15.271000
  H    -132.836000   35.063100  -15.934800
  H    -133.438000   35.122000  -14.232200
  H    -133.858000   36.407400  -15.299400
  H    -134.694000   30.637700  -20.670700
  H    -139.333000   31.761500  -13.567300

 Total Charge           Charge          ....    0
 Multiplicity           Mult            ....    1
 Number of Electrons    NEL             ....  134
 Basis Dimension        Dim             ....  322

ORBITAL ENERGIES
----------------

  NO   OCC          E(Eh)            E(eV)
   0   2.0000     -88.974765     -2421.1264
   1   2.0000     -88.966696     -2420.9069
   2   2.0000     -10.336011      -281.2571
   3   2.0000     -10.334100      -281.2051
   4   2.0000     -10.318391      -280.7777
   5   2.0000     -10.313399      -280.6419
   6   2.0000     -10.308739      -280.5151
   7   2.0000     -10.299045      -280.2513
   8   2.0000     -10.295493      -280.1546
   9   2.0000     -10.291607      -280.0489
  10   2.0000     -10.290993      -280.0322
  11   2.0000     -10.290629      -280.0223
  12   2.0000     -10.288062      -279.9524
  13   2.0000     -10.284932      -279.8672
  14   2.0000     -10.283234      -279.8210
  15   2.0000     -10.281128      -279.7637
  16   2.0000      -8.088773      -220.1067
  17   2.0000      -8.080936      -219.8934
  18   2.0000      -6.047258      -164.5543
  19   2.0000      -6.043240      -164.4449
  20   2.0000      -6.039774      -164.3506
  21   2.0000      -6.039663      -164.3476
  22   2.0000      -6.035488      -164.2340
  23   2.0000      -6.031535      -164.1264
  24   2.0000      -1.006145       -27.3786
  25   2.0000      -0.982657       -26.7394
  26   2.0000      -0.918832       -25.0027
  27   2.0000      -0.902676       -24.5631
  28   2.0000      -0.868815       -23.6416
  29   2.0000      -0.855882       -23.2897
  30   2.0000      -0.843252       -22.9460
  31   2.0000      -0.812283       -22.1033
  32   2.0000      -0.783546       -21.3214
  33   2.0000      -0.769165       -20.9300
  34   2.0000      -0.704580       -19.1726
  35   2.0000      -0.702475       -19.1153
  36   2.0000      -0.688742       -18.7416
  37   2.0000      -0.668143       -18.1811
  38   2.0000      -0.635824       -17.3016
  39   2.0000      -0.616071       -16.7642
  40   2.0000      -0.593777       -16.1575
  41   2.0000      -0.581389       -15.8204
  42   2.0000      -0.565034       -15.3753
  43   2.0000      -0.561141       -15.2694
  44   2.0000      -0.523963       -14.2578
  45   2.0000      -0.520982       -14.1766
  46   2.0000      -0.514667       -14.0048
  47   2.0000      -0.511092       -13.9075
  48   2.0000      -0.509150       -13.8547
  49   2.0000      -0.504784       -13.7359
  50   2.0000      -0.491755       -13.3813
  51   2.0000      -0.480286       -13.0693
  52   2.0000      -0.471765       -12.8374
  53   2.0000      -0.470067       -12.7912
  54   2.0000      -0.463075       -12.6009
  55   2.0000      -0.446627       -12.1533
  56   2.0000      -0.442312       -12.0359
  57   2.0000      -0.432642       -11.7728
  58   2.0000      -0.430647       -11.7185
  59   2.0000      -0.426479       -11.6051
  60   2.0000      -0.421318       -11.4646
  61   2.0000      -0.417247       -11.3539
  62   2.0000      -0.412631       -11.2282
  63   2.0000      -0.359976        -9.7954
  64   2.0000      -0.336728        -9.1628
  65   2.0000      -0.327045        -8.8993
  66   2.0000      -0.277100        -7.5403
  67   0.0000       0.015054         0.4097
  68   0.0000       0.083174         2.2633
  69   0.0000       0.100322         2.7299
  70   0.0000       0.124803         3.3961
  71   0.0000       0.132103         3.5947

MULLIKEN ATOMIC CHARGES
-----------------------
   0 S :    0.131171
   1 C :   -0.127869
   2 C :   -0.079808
   3 C :   -0.012750
   4 C :   -0.118444
   5 H :    0.005025
   6 C :    0.085490
   7 H :    0.026202
   8 H :    0.013646
   9 C :   -0.046517
  10 H :    0.031267
  11 H :    0.016152
  12 C :   -0.065202
  13 H :    0.042418
  14 H :    0.025507
  15 H :    0.036761
  16 S :    0.085370
  17 C :   -0.084237
  18 C :   -0.029409
  19 C :   -0.057470
  20 C :   -0.114815
  21 H :    0.015214
  22 C :    0.067246
  23 H :    0.022042
  24 H :    0.013289
  25 C :   -0.099606
  26 H :    0.017288
  27 H :    0.045320
  28 C :   -0.056746
  29 H :    0.045896
  30 H :    0.025973
  31 H :    0.038530
  32 H :    0.043242
  33 H :    0.059824
Sum of atomic charges:    0.0000000

LOEWDIN ATOMIC CHARGES
----------------------
   0 S :    0.440951
   1 C :   -0.208665
   2 C :   -0.057485
   3 C :   -0.070120
   4 C :   -0.197066
   5 H :    0.021269
   6 C :   -0.025573
   7 H :    0.032199
   8 H :    0.025773
   9 C :   -0.041235
  10 H :    0.030207
  11 H :    0.019153
  12 C :   -0.074786
  13 H :    0.032366
  14 H :    0.024633
  15 H :    0.029697
  16 S :    0.400877
  17 C :   -0.184264
  18 C :   -0.064075
  19 C :   -0.062585
  20 C :   -0.189624
  21 H :    0.027460
  22 C :   -0.033851
  23 H :    0.017887
  24 H :    0.029349
  25 C :   -0.045277
  26 H :    0.021233
  27 H :    0.029415
  28 C :   -0.067917
  29 H :    0.022773
  30 H :    0.021255
  31 H :    0.036708
  32 H :    0.026168
  33 H :    0.033150

  Mayer bond orders larger than 0.100000
B(  0-S ,  1-C ) :   1.1584 B(  0-S ,  4-C ) :   1.1730 B(  1-C ,  2-C ) :   1.5410
B(  1-C ,  4-C ) :   0.1096 B(  1-C , 32-H ) :   0.9687 B(  2-C ,  3-C ) :   1.3240
B(  2-C ,  6-C ) :   1.0213 B(  3-C ,  4-C ) :   1.4754 B(  3-C ,  5-H ) :   0.9920
B(  4-C , 20-C ) :   1.0909 B(  6-C ,  7-H ) :   0.9421 B(  6-C ,  8-H ) :   0.9308
B(  6-C ,  9-C ) :   1.0737 B(  9-C , 10-H ) :   0.9493 B(  9-C , 11-H ) :   0.9573
B(  9-C , 12-C ) :   1.0782 B( 12-C , 13-H ) :   0.9732 B( 12-C , 14-H ) :   0.9762
B( 12-C , 15-H ) :   0.9725 B( 16-S , 17-C ) :   1.1242 B( 16-S , 20-C ) :   1.1455
B( 17-C , 18-C ) :   1.6410 B( 17-C , 33-H ) :   0.9670 B( 18-C , 19-C ) :   1.2303
B( 18-C , 21-H ) :   0.9856 B( 19-C , 20-C ) :   1.5573 B( 19-C , 22-C ) :   1.0451
B( 22-C , 23-H ) :   0.9402 B( 22-C , 24-H ) :   0.9324 B( 22-C , 25-C ) :   1.0561
B( 25-C , 26-H ) :   0.9569 B( 25-C , 27-H ) :   0.9566 B( 25-C , 28-C ) :   1.0777
B( 28-C , 29-H ) :   0.9783 B( 28-C , 30-H ) :   0.9726 B( 28-C , 31-H ) :   0.9765

Dispersion correction           -0.013346001
FINAL SINGLE POINT ENERGY     -1339.879101283408

DIPOLE MOMENT
-------------
                                X             Y             Z
Electronic contribution:     -7.98746       0.44954       8.83567
Nuclear contribution   :      8.15737      -0.57801      -8.78982
                        -----------------------------------------
Total Dipole Moment    :      0.16991      -0.12848       0.04585
                        -----------------------------------------
Magnitude (a.u.)       :      0.21789
Magnitude (Debye)      :      0.55384

Rotational constants in cm-1:     0.022727     0.007201     0.005605
Rotational constants in MHz :   681.341327   215.871484   168.047453

                             ****ORCA TERMINATED NORMALLY****
TOTAL RUN TIME: 0 days 0 hours 0 minutes 20 seconds 558 msec
