                         Program Version 4.2.1 -  RELEASE  -
|  1> ! wB97X-D3 SP def2-SVP
|  2> %pal
|  3> nprocs 24
|  4> end
|  5>
|  6> * xyz 0 1
|  7> S 	 -52.0474 	 -50.782 	 -78.8781
|  8> C 	 -53.2624 	 -50.1367 	 -77.7856
|  9> C 	 -52.7915 	 -49.0413 	 -77.0789
| 10> C 	 -51.4739 	 -48.7119 	 -77.4715
| 11> C 	 -50.9066 	 -49.5579 	 -78.3978
| 12> H 	 -50.872 	 -47.8899 	 -77.0856
| 13> C 	 -53.5319 	 -48.1581 	 -76.015
| 14> H 	 -52.8438 	 -48.1057 	 -75.1457
| 15> H 	 -54.3524 	 -48.7225 	 -75.6775
| 16> C 	 -53.9984 	 -46.7508 	 -76.3153
| 17> H 	 -54.3389 	 -46.4365 	 -75.3847
| 18> H 	 -53.2255 	 -46.0719 	 -76.5898
| 19> C 	 -55.0514 	 -46.6694 	 -77.4103
| 20> H 	 -54.6769 	 -46.6168 	 -78.39
| 21> H 	 -55.7824 	 -47.4241 	 -77.3628
| 22> H 	 -55.6138 	 -45.748 	 -77.2474
| 23> S 	 -48.3957 	 -48.928 	 -77.7002
| 24> C 	 -47.0128 	 -49.3872 	 -78.6478
| 25> C 	 -47.4043 	 -49.8672 	 -79.875
| 26> C 	 -48.822 	 -49.9492 	 -80.0258
| 27> C 	 -49.5229 	 -49.5724 	 -78.8836
| 28> H 	 -46.6776 	 -50.2681 	 -80.6422
| 29> C 	 -49.4444 	 -50.4284 	 -81.2963
| 30> H 	 -48.9858 	 -49.9213 	 -82.1791
| 31> H 	 -50.4494 	 -49.9363 	 -81.4112
| 32> C 	 -49.6304 	 -51.9364 	 -81.5347
| 33> H 	 -50.0981 	 -52.0545 	 -82.5465
| 34> H 	 -50.2975 	 -52.3982 	 -80.888
| 35> C 	 -48.2832 	 -52.7837 	 -81.5985
| 36> H 	 -47.995 	 -52.931 	 -80.5174
| 37> H 	 -47.4119 	 -52.3245 	 -82.1219
| 38> H 	 -48.5619 	 -53.7605 	 -81.9982
| 39> H 	 -54.2864 	 -50.4418 	 -77.5916
| 40> H 	 -46.0355 	 -49.3947 	 -78.3396
| 41> *
| 42>
| 43>                          ****END OF INPUT****

CARTESIAN COORDINATES (ANGSTROEM)
---------------------------------
  S    -52.047400  -50.782000  -78.878100
  C    -53.262400  -50.136700  -77.785600
  C    -52.791500  -49.041300  -77.078900
  C    -51.473900  -48.711900  -77.471500
  C    -50.906600  -49.557900  -78.397800
  H    -50.872000  -47.889900  -77.085600
  C    -53.531900  -48.158100  -76.015000
  H    -52.843800  -48.105700  -75.145700
  H    -54.352400  -48.722500  -75.677500
  C    -53.998400  -46.750800  -76.315300
  H    -54.338900  -46.436500  -75.384700
  H    -53.225500  -46.071900  -76.589800
  C    -55.051400  -46.669400  -77.410300
  H    -54.676900  -46.616800  -78.390000
  H    -55.782400  -47.424100  -77.362800
  H    -55.613800  -45.748000  -77.247400
  S    -48.395700  -48.928000  -77.700200
  C    -47.012800  -49.387200  -78.647800
  C    -47.404300  -49.867200  -79.875000
  C    -48.822000  -49.949200  -80.025800
  C    -49.522900  -49.572400  -78.883600
  H    -46.677600  -50.268100  -80.642200
  C    -49.444400  -50.428400  -81.296300
  H    -48.985800  -49.921300  -82.179100
  H    -50.449400  -49.936300  -81.411200
  C    -49.630400  -51.936400  -81.534700
  H    -50.098100  -52.054500  -82.546500
  H    -50.297500  -52.398200  -80.888000
  C    -48.283200  -52.783700  -81.598500
  H    -47.995000  -52.931000  -80.517400
  H    -47.411900  -52.324500  -82.121900
  H    -48.561900  -53.760500  -81.998200
  H    -54.286400  -50.441800  -77.591600
  H    -46.035500  -49.394700  -78.339600

 Total Charge           Charge          ....    0
 Multiplicity           Mult            ....    1
 Number of Electrons    NEL             ....  134
 Basis Dimension        Dim             ....  322

ORBITAL ENERGIES
----------------

  NO   OCC          E(Eh)            E(eV)
   0   2.0000     -88.970919     -2421.0218
   1   2.0000     -88.964020     -2420.8341
   2   2.0000     -10.331461      -281.1333
   3   2.0000     -10.330548      -281.1085
   4   2.0000     -10.314455      -280.6706
   5   2.0000     -10.311424      -280.5881
   6   2.0000     -10.303575      -280.3745
   7   2.0000     -10.301327      -280.3133
   8   2.0000     -10.297055      -280.1971
   9   2.0000     -10.293374      -280.0969
  10   2.0000     -10.292505      -280.0733
  11   2.0000     -10.289636      -279.9952
  12   2.0000     -10.286912      -279.9211
  13   2.0000     -10.284341      -279.8512
  14   2.0000     -10.278631      -279.6958
  15   2.0000     -10.266309      -279.3605
  16   2.0000      -8.084920      -220.0018
  17   2.0000      -8.078960      -219.8397
  18   2.0000      -6.043545      -164.4532
  19   2.0000      -6.039536      -164.3441
  20   2.0000      -6.037568      -164.2906
  21   2.0000      -6.035613      -164.2374
  22   2.0000      -6.033382      -164.1767
  23   2.0000      -6.029664      -164.0755
  24   2.0000      -1.008899       -27.4535
  25   2.0000      -0.985687       -26.8219
  26   2.0000      -0.914114       -24.8743
  27   2.0000      -0.902761       -24.5654
  28   2.0000      -0.871926       -23.7263
  29   2.0000      -0.851315       -23.1655
  30   2.0000      -0.841564       -22.9001
  31   2.0000      -0.811964       -22.0947
  32   2.0000      -0.788911       -21.4674
  33   2.0000      -0.774826       -21.0841
  34   2.0000      -0.713435       -19.4136
  35   2.0000      -0.701633       -19.0924
  36   2.0000      -0.691974       -18.8296
  37   2.0000      -0.670631       -18.2488
  38   2.0000      -0.631040       -17.1715
  39   2.0000      -0.618510       -16.8305
  40   2.0000      -0.597377       -16.2554
  41   2.0000      -0.571124       -15.5411
  42   2.0000      -0.549986       -14.9659
  43   2.0000      -0.547329       -14.8936
  44   2.0000      -0.542209       -14.7543
  45   2.0000      -0.539977       -14.6935
  46   2.0000      -0.519224       -14.1288
  47   2.0000      -0.515833       -14.0365
  48   2.0000      -0.501561       -13.6482
  49   2.0000      -0.492259       -13.3951
  50   2.0000      -0.485112       -13.2006
  51   2.0000      -0.477919       -13.0048
  52   2.0000      -0.475649       -12.9431
  53   2.0000      -0.471559       -12.8318
  54   2.0000      -0.464278       -12.6337
  55   2.0000      -0.449024       -12.2186
  56   2.0000      -0.444740       -12.1020
  57   2.0000      -0.436518       -11.8783
  58   2.0000      -0.432411       -11.7665
  59   2.0000      -0.426318       -11.6007
  60   2.0000      -0.417570       -11.3627
  61   2.0000      -0.410338       -11.1659
  62   2.0000      -0.405799       -11.0423
  63   2.0000      -0.358075        -9.7437
  64   2.0000      -0.333954        -9.0874
  65   2.0000      -0.330443        -8.9918
  66   2.0000      -0.285286        -7.7630
  67   0.0000       0.023945         0.6516
  68   0.0000       0.078665         2.1406
  69   0.0000       0.105221         2.8632
  70   0.0000       0.118295         3.2190
  71   0.0000       0.136167         3.7053

MULLIKEN ATOMIC CHARGES
-----------------------
   0 S :    0.114455
   1 C :   -0.108024
   2 C :   -0.092950
   3 C :   -0.014025
   4 C :   -0.114607
   5 H :    0.018015
   6 C :    0.057586
   7 H :    0.033072
   8 H :    0.001869
   9 C :   -0.007838
  10 H :    0.011855
  11 H :    0.019673
  12 C :   -0.017924
  13 H :    0.034208
  14 H :    0.006684
  15 H :    0.021384
  16 S :    0.084086
  17 C :   -0.043381
  18 C :   -0.049744
  19 C :   -0.042567
  20 C :   -0.126074
  21 H :    0.039665
  22 C :    0.005711
  23 H :    0.032863
  24 H :    0.027773
  25 C :   -0.037204
  26 H :    0.030492
  27 H :    0.017538
  28 C :   -0.094910
  29 H :    0.045500
  30 H :    0.043941
  31 H :    0.039518
  32 H :    0.038523
  33 H :    0.024836
Sum of atomic charges:   -0.0000000

LOEWDIN ATOMIC CHARGES
----------------------
   0 S :    0.418022
   1 C :   -0.204399
   2 C :   -0.061603
   3 C :   -0.078017
   4 C :   -0.192952
   5 H :    0.026406
   6 C :   -0.024539
   7 H :    0.036731
   8 H :    0.020033
   9 C :   -0.030874
  10 H :    0.020263
  11 H :    0.022887
  12 C :   -0.055876
  13 H :    0.023278
  14 H :    0.015067
  15 H :    0.030086
  16 S :    0.413924
  17 C :   -0.174201
  18 C :   -0.072574
  19 C :   -0.067480
  20 C :   -0.184878
  21 H :    0.042178
  22 C :   -0.051862
  23 H :    0.038215
  24 H :    0.034857
  25 C :   -0.033258
  26 H :    0.029073
  27 H :    0.009431
  28 C :   -0.075263
  29 H :    0.030887
  30 H :    0.025397
  31 H :    0.026292
  32 H :    0.030766
  33 H :    0.013983

  Mayer bond orders larger than 0.100000
B(  0-S ,  1-C ) :   1.1297 B(  0-S ,  4-C ) :   1.1436 B(  1-C ,  2-C ) :   1.6269
B(  1-C , 32-H ) :   0.9604 B(  2-C ,  3-C ) :   1.2502 B(  2-C ,  6-C ) :   1.0119
B(  3-C ,  4-C ) :   1.5672 B(  3-C ,  5-H ) :   0.9848 B(  4-C , 20-C ) :   1.0509
B(  6-C ,  7-H ) :   0.9399 B(  6-C ,  8-H ) :   0.9370 B(  6-C ,  9-C ) :   1.0868
B(  9-C , 10-H ) :   0.9490 B(  9-C , 11-H ) :   0.9516 B(  9-C , 12-C ) :   1.0773
B( 12-C , 13-H ) :   0.9765 B( 12-C , 14-H ) :   0.9772 B( 12-C , 15-H ) :   0.9707
B( 16-S , 17-C ) :   1.1545 B( 16-S , 20-C ) :   1.1397 B( 17-C , 18-C ) :   1.6024
B( 17-C , 33-H ) :   0.9793 B( 18-C , 19-C ) :   1.2467 B( 18-C , 21-H ) :   0.9790
B( 19-C , 20-C ) :   1.5777 B( 19-C , 22-C ) :   1.0442 B( 22-C , 23-H ) :   0.9364
B( 22-C , 24-H ) :   0.9310 B( 22-C , 25-C ) :   1.0751 B( 25-C , 26-H ) :   0.9552
B( 25-C , 27-H ) :   0.9555 B( 25-C , 28-C ) :   1.0678 B( 28-C , 29-H ) :   0.9757
B( 28-C , 30-H ) :   0.9764 B( 28-C , 31-H ) :   0.9752

Dispersion correction           -0.014497513
FINAL SINGLE POINT ENERGY     -1339.875729637778

DIPOLE MOMENT
-------------
                                X             Y             Z
Electronic contribution:      9.49209      -1.85427       5.29340
Nuclear contribution   :     -9.63240       1.99239      -5.29514
                        -----------------------------------------
Total Dipole Moment    :     -0.14031       0.13813      -0.00173
                        -----------------------------------------
Magnitude (a.u.)       :      0.19690
Magnitude (Debye)      :      0.50048

Rotational constants in cm-1:     0.024531     0.007673     0.006361
Rotational constants in MHz :   735.434604   230.022380   190.693834

                             ****ORCA TERMINATED NORMALLY****
TOTAL RUN TIME: 0 days 0 hours 0 minutes 21 seconds 140 msec
