                         Program Version 4.2.1 -  RELEASE  -
|  1> ! wB97X-D3 SP def2-SVP
|  2> %pal
|  3> nprocs 24
|  4> end
|  5>
|  6> * xyz 0 1
|  7> S 	 39.0199 	 -26.4223 	 -111.913
|  8> C 	 40.6884 	 -26.455 	 -111.525
|  9> C 	 41.271 	 -25.1676 	 -111.541
| 10> C 	 40.3547 	 -24.2022 	 -112.032
| 11> C 	 39.0604 	 -24.6874 	 -112.191
| 12> H 	 40.5516 	 -23.1996 	 -112.204
| 13> C 	 42.7833 	 -24.914 	 -111.224
| 14> H 	 43.2369 	 -24.204 	 -111.975
| 15> H 	 43.4252 	 -25.8313 	 -111.319
| 16> C 	 43.1212 	 -24.4597 	 -109.77
| 17> H 	 44.1654 	 -24.0835 	 -109.869
| 18> H 	 42.534 	 -23.5534 	 -109.626
| 19> C 	 42.7554 	 -25.4574 	 -108.611
| 20> H 	 41.6799 	 -25.7496 	 -108.613
| 21> H 	 43.2601 	 -26.4032 	 -108.593
| 22> H 	 42.96 	 -24.9797 	 -107.642
| 23> S 	 36.6974 	 -24.6133 	 -113.621
| 24> C 	 35.7423 	 -23.1645 	 -113.502
| 25> C 	 36.1225 	 -22.3739 	 -112.434
| 26> C 	 37.3649 	 -22.7549 	 -111.876
| 27> C 	 37.8071 	 -23.9822 	 -112.372
| 28> H 	 35.5146 	 -21.509 	 -112.108
| 29> C 	 38.05 	 -22.0016 	 -110.78
| 30> H 	 38.7259 	 -22.7028 	 -110.303
| 31> H 	 37.3256 	 -21.7239 	 -110.051
| 32> C 	 38.7528 	 -20.8034 	 -111.259
| 33> H 	 38.177 	 -20.2389 	 -111.912
| 34> H 	 39.7255 	 -20.9561 	 -111.813
| 35> C 	 39.2103 	 -19.8039 	 -110.205
| 36> H 	 39.7185 	 -18.8977 	 -110.683
| 37> H 	 40.0227 	 -20.3689 	 -109.784
| 38> H 	 38.4222 	 -19.471 	 -109.477
| 39> H 	 41.1106 	 -27.4124 	 -111.221
| 40> H 	 34.8346 	 -23.0522 	 -114.079
| 41> *
| 42>
| 43>                          ****END OF INPUT****

CARTESIAN COORDINATES (ANGSTROEM)
---------------------------------
  S     39.019900  -26.422300  -111.913000
  C     40.688400  -26.455000  -111.525000
  C     41.271000  -25.167600  -111.541000
  C     40.354700  -24.202200  -112.032000
  C     39.060400  -24.687400  -112.191000
  H     40.551600  -23.199600  -112.204000
  C     42.783300  -24.914000  -111.224000
  H     43.236900  -24.204000  -111.975000
  H     43.425200  -25.831300  -111.319000
  C     43.121200  -24.459700  -109.770000
  H     44.165400  -24.083500  -109.869000
  H     42.534000  -23.553400  -109.626000
  C     42.755400  -25.457400  -108.611000
  H     41.679900  -25.749600  -108.613000
  H     43.260100  -26.403200  -108.593000
  H     42.960000  -24.979700  -107.642000
  S     36.697400  -24.613300  -113.621000
  C     35.742300  -23.164500  -113.502000
  C     36.122500  -22.373900  -112.434000
  C     37.364900  -22.754900  -111.876000
  C     37.807100  -23.982200  -112.372000
  H     35.514600  -21.509000  -112.108000
  C     38.050000  -22.001600  -110.780000
  H     38.725900  -22.702800  -110.303000
  H     37.325600  -21.723900  -110.051000
  C     38.752800  -20.803400  -111.259000
  H     38.177000  -20.238900  -111.912000
  H     39.725500  -20.956100  -111.813000
  C     39.210300  -19.803900  -110.205000
  H     39.718500  -18.897700  -110.683000
  H     40.022700  -20.368900  -109.784000
  H     38.422200  -19.471000  -109.477000
  H     41.110600  -27.412400  -111.221000
  H     34.834600  -23.052200  -114.079000

 Total Charge           Charge          ....    0
 Multiplicity           Mult            ....    1
 Number of Electrons    NEL             ....  134
 Basis Dimension        Dim             ....  322

ORBITAL ENERGIES
----------------

  NO   OCC          E(Eh)            E(eV)
   0   2.0000     -88.965403     -2420.8717
   1   2.0000     -88.965189     -2420.8659
   2   2.0000     -10.328876      -281.0630
   3   2.0000     -10.327315      -281.0205
   4   2.0000     -10.318937      -280.7925
   5   2.0000     -10.316173      -280.7173
   6   2.0000     -10.308774      -280.5160
   7   2.0000     -10.303310      -280.3673
   8   2.0000     -10.303084      -280.3612
   9   2.0000     -10.297038      -280.1966
  10   2.0000     -10.294418      -280.1254
  11   2.0000     -10.292836      -280.0823
  12   2.0000     -10.285178      -279.8739
  13   2.0000     -10.283109      -279.8176
  14   2.0000     -10.282861      -279.8109
  15   2.0000     -10.279108      -279.7088
  16   2.0000      -8.080951      -219.8939
  17   2.0000      -8.079877      -219.8646
  18   2.0000      -6.039215      -164.3354
  19   2.0000      -6.038288      -164.3102
  20   2.0000      -6.035297      -164.2288
  21   2.0000      -6.034508      -164.2073
  22   2.0000      -6.031989      -164.1388
  23   2.0000      -6.030633      -164.1019
  24   2.0000      -1.007168       -27.4064
  25   2.0000      -0.984622       -26.7929
  26   2.0000      -0.922843       -25.1118
  27   2.0000      -0.899448       -24.4752
  28   2.0000      -0.866994       -23.5921
  29   2.0000      -0.856746       -23.3132
  30   2.0000      -0.847170       -23.0527
  31   2.0000      -0.809927       -22.0392
  32   2.0000      -0.786036       -21.3891
  33   2.0000      -0.772526       -21.0215
  34   2.0000      -0.703505       -19.1433
  35   2.0000      -0.694102       -18.8875
  36   2.0000      -0.691482       -18.8162
  37   2.0000      -0.663544       -18.0560
  38   2.0000      -0.646623       -17.5955
  39   2.0000      -0.622375       -16.9357
  40   2.0000      -0.601915       -16.3789
  41   2.0000      -0.575856       -15.6698
  42   2.0000      -0.562287       -15.3006
  43   2.0000      -0.538783       -14.6610
  44   2.0000      -0.534143       -14.5348
  45   2.0000      -0.530742       -14.4422
  46   2.0000      -0.524271       -14.2662
  47   2.0000      -0.511006       -13.9052
  48   2.0000      -0.508010       -13.8237
  49   2.0000      -0.498017       -13.5517
  50   2.0000      -0.488564       -13.2945
  51   2.0000      -0.482134       -13.1195
  52   2.0000      -0.468901       -12.7595
  53   2.0000      -0.466785       -12.7019
  54   2.0000      -0.459601       -12.5064
  55   2.0000      -0.453151       -12.3309
  56   2.0000      -0.444194       -12.0871
  57   2.0000      -0.438626       -11.9356
  58   2.0000      -0.431966       -11.7544
  59   2.0000      -0.418925       -11.3995
  60   2.0000      -0.417887       -11.3713
  61   2.0000      -0.414234       -11.2719
  62   2.0000      -0.412550       -11.2260
  63   2.0000      -0.349080        -9.4990
  64   2.0000      -0.335159        -9.1201
  65   2.0000      -0.333201        -9.0669
  66   2.0000      -0.284669        -7.7462
  67   0.0000       0.025970         0.7067
  68   0.0000       0.066817         1.8182
  69   0.0000       0.109159         2.9704
  70   0.0000       0.119505         3.2519
  71   0.0000       0.123890         3.3712

MULLIKEN ATOMIC CHARGES
-----------------------
   0 S :    0.107358
   1 C :   -0.124252
   2 C :   -0.065176
   3 C :    0.058223
   4 C :   -0.146852
   5 H :   -0.031808
   6 C :   -0.000592
   7 H :    0.041554
   8 H :    0.031495
   9 C :   -0.068688
  10 H :    0.037997
  11 H :    0.020655
  12 C :   -0.057095
  13 H :    0.045603
  14 H :    0.025861
  15 H :    0.039346
  16 S :    0.098221
  17 C :   -0.094208
  18 C :   -0.031961
  19 C :   -0.054602
  20 C :   -0.137530
  21 H :    0.030757
  22 C :    0.126763
  23 H :    0.027558
  24 H :    0.012537
  25 C :   -0.078498
  26 H :    0.005260
  27 H :    0.029174
  28 C :   -0.076573
  29 H :    0.042223
  30 H :    0.023632
  31 H :    0.046004
  32 H :    0.057322
  33 H :    0.060294
Sum of atomic charges:    0.0000000

LOEWDIN ATOMIC CHARGES
----------------------
   0 S :    0.420528
   1 C :   -0.205510
   2 C :   -0.064048
   3 C :   -0.055840
   4 C :   -0.191000
   5 H :    0.018281
   6 C :   -0.040969
   7 H :    0.035723
   8 H :    0.031893
   9 C :   -0.045534
  10 H :    0.029754
  11 H :    0.019773
  12 C :   -0.071399
  13 H :    0.034166
  14 H :    0.019396
  15 H :    0.030826
  16 S :    0.393047
  17 C :   -0.180084
  18 C :   -0.073929
  19 C :   -0.047589
  20 C :   -0.192626
  21 H :    0.037838
  22 C :   -0.027228
  23 H :    0.033510
  24 H :    0.031262
  25 C :   -0.045778
  26 H :    0.010348
  27 H :    0.030258
  28 C :   -0.070455
  29 H :    0.034349
  30 H :    0.021104
  31 H :    0.026028
  32 H :    0.026580
  33 H :    0.027325

  Mayer bond orders larger than 0.100000
B(  0-S ,  1-C ) :   1.1701 B(  0-S ,  4-C ) :   1.1658 B(  1-C ,  2-C ) :   1.5602
B(  1-C ,  4-C ) :   0.1056 B(  1-C , 32-H ) :   0.9718 B(  2-C ,  3-C ) :   1.2660
B(  2-C ,  6-C ) :   1.0101 B(  3-C ,  4-C ) :   1.5418 B(  3-C ,  5-H ) :   1.0128
B(  4-C , 20-C ) :   1.0302 B(  6-C ,  7-H ) :   0.9498 B(  6-C ,  8-H ) :   0.9530
B(  6-C ,  9-C ) :   1.0624 B(  9-C , 10-H ) :   0.9580 B(  9-C , 11-H ) :   0.9580
B(  9-C , 12-C ) :   1.0602 B( 12-C , 13-H ) :   0.9726 B( 12-C , 14-H ) :   0.9786
B( 12-C , 15-H ) :   0.9758 B( 16-S , 17-C ) :   1.1680 B( 16-S , 20-C ) :   1.1257
B( 17-C , 18-C ) :   1.5949 B( 17-C , 20-C ) :   0.1049 B( 17-C , 33-H ) :   0.9667
B( 18-C , 19-C ) :   1.2407 B( 18-C , 21-H ) :   0.9849 B( 19-C , 20-C ) :   1.6012
B( 19-C , 22-C ) :   1.0479 B( 22-C , 23-H ) :   0.9221 B( 22-C , 24-H ) :   0.9265
B( 22-C , 25-C ) :   1.0681 B( 25-C , 26-H ) :   0.9560 B( 25-C , 27-H ) :   0.9461
B( 25-C , 28-C ) :   1.0762 B( 28-C , 29-H ) :   0.9734 B( 28-C , 30-H ) :   0.9798
B( 28-C , 31-H ) :   0.9733

Dispersion correction           -0.014533816
FINAL SINGLE POINT ENERGY     -1339.876140180657

DIPOLE MOMENT
-------------
                                X             Y             Z
Electronic contribution:    -19.40930     -16.87662     -17.52502
Nuclear contribution   :     19.62564      17.34326      17.86878
                        -----------------------------------------
Total Dipole Moment    :      0.21634       0.46664       0.34376
                        -----------------------------------------
Magnitude (a.u.)       :      0.61865
Magnitude (Debye)      :      1.57249

Rotational constants in cm-1:     0.017831     0.009547     0.006679
Rotational constants in MHz :   534.553941   286.217336   200.229201

                             ****ORCA TERMINATED NORMALLY****
TOTAL RUN TIME: 0 days 0 hours 0 minutes 21 seconds 972 msec
