                         Program Version 4.2.1 -  RELEASE  -
|  1> ! wB97X-D3 SP def2-SVP
|  2> %pal
|  3> nprocs 24
|  4> end
|  5>
|  6> * xyz 0 1
|  7> S 	 31.9397 	 -31.9448 	 -114.459
|  8> C 	 32.5734 	 -30.3314 	 -114.624
|  9> C 	 33.4642 	 -30.2984 	 -115.733
| 10> C 	 33.8402 	 -31.585 	 -116.263
| 11> C 	 33.0575 	 -32.6262 	 -115.678
| 12> H 	 34.5219 	 -31.8972 	 -117.048
| 13> C 	 34.2525 	 -29.0534 	 -116.086
| 14> H 	 33.6414 	 -28.1737 	 -115.817
| 15> H 	 34.3468 	 -29.0341 	 -117.137
| 16> C 	 35.6714 	 -28.9332 	 -115.515
| 17> H 	 36.217 	 -29.8191 	 -115.63
| 18> H 	 36.1354 	 -28.0946 	 -116.099
| 19> C 	 35.5759 	 -28.6594 	 -113.987
| 20> H 	 36.6169 	 -28.4774 	 -113.584
| 21> H 	 34.9395 	 -27.8317 	 -113.726
| 22> H 	 35.204 	 -29.5211 	 -113.398
| 23> S 	 31.7395 	 -34.792 	 -116.669
| 24> C 	 32.6594 	 -36.1036 	 -117.284
| 25> C 	 34.0226 	 -35.989 	 -116.928
| 26> C 	 34.2728 	 -34.7456 	 -116.19
| 27> C 	 33.1712 	 -34.024 	 -116.014
| 28> H 	 34.7735 	 -36.7605 	 -117.105
| 29> C 	 35.6502 	 -34.3999 	 -115.714
| 30> H 	 35.6816 	 -33.3866 	 -115.397
| 31> H 	 36.3303 	 -34.4347 	 -116.486
| 32> C 	 36.0795 	 -35.1815 	 -114.393
| 33> H 	 36.2239 	 -36.2153 	 -114.586
| 34> H 	 35.3119 	 -35.0342 	 -113.654
| 35> C 	 37.4585 	 -34.6657 	 -113.876
| 36> H 	 38.1306 	 -34.7856 	 -114.689
| 37> H 	 37.9988 	 -35.2091 	 -113.091
| 38> H 	 37.3234 	 -33.6925 	 -113.374
| 39> H 	 32.1376 	 -29.4092 	 -114.151
| 40> H 	 32.2784 	 -36.9739 	 -117.822
| 41> *
| 42>
| 43>                          ****END OF INPUT****

CARTESIAN COORDINATES (ANGSTROEM)
---------------------------------
  S     31.939700  -31.944800  -114.459000
  C     32.573400  -30.331400  -114.624000
  C     33.464200  -30.298400  -115.733000
  C     33.840200  -31.585000  -116.263000
  C     33.057500  -32.626200  -115.678000
  H     34.521900  -31.897200  -117.048000
  C     34.252500  -29.053400  -116.086000
  H     33.641400  -28.173700  -115.817000
  H     34.346800  -29.034100  -117.137000
  C     35.671400  -28.933200  -115.515000
  H     36.217000  -29.819100  -115.630000
  H     36.135400  -28.094600  -116.099000
  C     35.575900  -28.659400  -113.987000
  H     36.616900  -28.477400  -113.584000
  H     34.939500  -27.831700  -113.726000
  H     35.204000  -29.521100  -113.398000
  S     31.739500  -34.792000  -116.669000
  C     32.659400  -36.103600  -117.284000
  C     34.022600  -35.989000  -116.928000
  C     34.272800  -34.745600  -116.190000
  C     33.171200  -34.024000  -116.014000
  H     34.773500  -36.760500  -117.105000
  C     35.650200  -34.399900  -115.714000
  H     35.681600  -33.386600  -115.397000
  H     36.330300  -34.434700  -116.486000
  C     36.079500  -35.181500  -114.393000
  H     36.223900  -36.215300  -114.586000
  H     35.311900  -35.034200  -113.654000
  C     37.458500  -34.665700  -113.876000
  H     38.130600  -34.785600  -114.689000
  H     37.998800  -35.209100  -113.091000
  H     37.323400  -33.692500  -113.374000
  H     32.137600  -29.409200  -114.151000
  H     32.278400  -36.973900  -117.822000

 Total Charge           Charge          ....    0
 Multiplicity           Mult            ....    1
 Number of Electrons    NEL             ....  134
 Basis Dimension        Dim             ....  322

ORBITAL ENERGIES
----------------

  NO   OCC          E(Eh)            E(eV)
   0   2.0000     -88.968612     -2420.9590
   1   2.0000     -88.965245     -2420.8674
   2   2.0000     -10.334575      -281.2181
   3   2.0000     -10.322260      -280.8830
   4   2.0000     -10.321694      -280.8676
   5   2.0000     -10.319320      -280.8030
   6   2.0000     -10.306432      -280.4523
   7   2.0000     -10.301726      -280.3242
   8   2.0000     -10.300346      -280.2867
   9   2.0000     -10.300172      -280.2819
  10   2.0000     -10.287387      -279.9340
  11   2.0000     -10.286878      -279.9202
  12   2.0000     -10.284802      -279.8637
  13   2.0000     -10.283650      -279.8323
  14   2.0000     -10.278510      -279.6925
  15   2.0000     -10.277593      -279.6675
  16   2.0000      -8.082466      -219.9351
  17   2.0000      -8.080886      -219.8921
  18   2.0000      -6.040995      -164.3838
  19   2.0000      -6.039436      -164.3414
  20   2.0000      -6.036919      -164.2729
  21   2.0000      -6.035261      -164.2278
  22   2.0000      -6.033451      -164.1786
  23   2.0000      -6.031534      -164.1264
  24   2.0000      -1.008107       -27.4320
  25   2.0000      -0.978451       -26.6250
  26   2.0000      -0.908891       -24.7322
  27   2.0000      -0.907513       -24.6947
  28   2.0000      -0.869137       -23.6504
  29   2.0000      -0.850511       -23.1436
  30   2.0000      -0.841300       -22.8929
  31   2.0000      -0.807344       -21.9689
  32   2.0000      -0.782679       -21.2978
  33   2.0000      -0.770159       -20.9571
  34   2.0000      -0.708694       -19.2845
  35   2.0000      -0.701775       -19.0963
  36   2.0000      -0.691810       -18.8251
  37   2.0000      -0.666738       -18.1429
  38   2.0000      -0.640853       -17.4385
  39   2.0000      -0.613826       -16.7031
  40   2.0000      -0.597094       -16.2478
  41   2.0000      -0.574089       -15.6218
  42   2.0000      -0.564742       -15.3674
  43   2.0000      -0.545516       -14.8443
  44   2.0000      -0.535141       -14.5619
  45   2.0000      -0.524923       -14.2839
  46   2.0000      -0.519958       -14.1488
  47   2.0000      -0.511443       -13.9171
  48   2.0000      -0.505124       -13.7451
  49   2.0000      -0.498435       -13.5631
  50   2.0000      -0.489802       -13.3282
  51   2.0000      -0.482848       -13.1390
  52   2.0000      -0.464533       -12.6406
  53   2.0000      -0.459368       -12.5000
  54   2.0000      -0.455318       -12.3898
  55   2.0000      -0.452243       -12.3062
  56   2.0000      -0.442411       -12.0386
  57   2.0000      -0.439055       -11.9473
  58   2.0000      -0.437664       -11.9094
  59   2.0000      -0.426957       -11.6181
  60   2.0000      -0.417673       -11.3655
  61   2.0000      -0.412273       -11.2185
  62   2.0000      -0.411330       -11.1929
  63   2.0000      -0.346716        -9.4346
  64   2.0000      -0.330937        -9.0053
  65   2.0000      -0.327705        -8.9173
  66   2.0000      -0.292202        -7.9512
  67   0.0000       0.030136         0.8200
  68   0.0000       0.064183         1.7465
  69   0.0000       0.111273         3.0279
  70   0.0000       0.120208         3.2710
  71   0.0000       0.124589         3.3902

MULLIKEN ATOMIC CHARGES
-----------------------
   0 S :    0.110082
   1 C :   -0.129360
   2 C :   -0.105060
   3 C :    0.032052
   4 C :   -0.176522
   5 H :    0.029882
   6 C :    0.052066
   7 H :    0.019367
   8 H :    0.012483
   9 C :   -0.031551
  10 H :    0.020632
  11 H :    0.041760
  12 C :   -0.086155
  13 H :    0.036503
  14 H :    0.022134
  15 H :    0.048368
  16 S :    0.115445
  17 C :   -0.095952
  18 C :   -0.037922
  19 C :   -0.077428
  20 C :   -0.125519
  21 H :    0.025085
  22 C :    0.108040
  23 H :    0.004621
  24 H :    0.004531
  25 C :   -0.054682
  26 H :    0.023106
  27 H :    0.035995
  28 C :   -0.064078
  29 H :    0.025790
  30 H :    0.027381
  31 H :    0.044051
  32 H :    0.078437
  33 H :    0.066415
Sum of atomic charges:    0.0000000

LOEWDIN ATOMIC CHARGES
----------------------
   0 S :    0.397720
   1 C :   -0.219196
   2 C :   -0.062288
   3 C :   -0.058863
   4 C :   -0.182415
   5 H :    0.036760
   6 C :   -0.035780
   7 H :    0.028947
   8 H :    0.022095
   9 C :   -0.030597
  10 H :    0.016940
  11 H :    0.032329
  12 C :   -0.072259
  13 H :    0.029288
  14 H :    0.017306
  15 H :    0.030513
  16 S :    0.418240
  17 C :   -0.192910
  18 C :   -0.070116
  19 C :   -0.053549
  20 C :   -0.206406
  21 H :    0.031450
  22 C :   -0.022457
  23 H :    0.026061
  24 H :    0.017597
  25 C :   -0.021311
  26 H :    0.015506
  27 H :    0.024507
  28 C :   -0.073774
  29 H :    0.021384
  30 H :    0.027319
  31 H :    0.030295
  32 H :    0.043539
  33 H :    0.034125

  Mayer bond orders larger than 0.100000
B(  0-S ,  1-C ) :   1.1452 B(  0-S ,  4-C ) :   1.1553 B(  1-C ,  2-C ) :   1.5750
B(  1-C ,  4-C ) :   0.1094 B(  1-C , 32-H ) :   0.9594 B(  2-C ,  3-C ) :   1.2383
B(  2-C ,  6-C ) :   1.0487 B(  3-C ,  4-C ) :   1.5505 B(  3-C ,  5-H ) :   0.9908
B(  4-C , 20-C ) :   1.0257 B(  6-C ,  7-H ) :   0.9435 B(  6-C ,  8-H ) :   0.9333
B(  6-C ,  9-C ) :   1.0695 B(  9-C , 10-H ) :   0.9544 B(  9-C , 11-H ) :   0.9552
B(  9-C , 12-C ) :   1.0717 B( 12-C , 13-H ) :   0.9747 B( 12-C , 14-H ) :   0.9781
B( 12-C , 15-H ) :   0.9736 B( 16-S , 17-C ) :   1.1678 B( 16-S , 20-C ) :   1.1149
B( 17-C , 18-C ) :   1.6047 B( 17-C , 33-H ) :   0.9669 B( 18-C , 19-C ) :   1.2095
B( 18-C , 21-H ) :   0.9902 B( 19-C , 20-C ) :   1.6533 B( 19-C , 22-C ) :   1.0593
B( 22-C , 23-H ) :   0.9277 B( 22-C , 24-H ) :   0.9283 B( 22-C , 25-C ) :   1.0462
B( 25-C , 26-H ) :   0.9614 B( 25-C , 27-H ) :   0.9609 B( 25-C , 28-C ) :   1.0788
B( 28-C , 29-H ) :   0.9745 B( 28-C , 30-H ) :   0.9749 B( 28-C , 31-H ) :   0.9767

Dispersion correction           -0.014673591
FINAL SINGLE POINT ENERGY     -1339.867417770244

DIPOLE MOMENT
-------------
                                X             Y             Z
Electronic contribution:    -26.61402     -10.48112      -6.89068
Nuclear contribution   :     27.26222      10.52067       6.71865
                        -----------------------------------------
Total Dipole Moment    :      0.64820       0.03955      -0.17203
                        -----------------------------------------
Magnitude (a.u.)       :      0.67181
Magnitude (Debye)      :      1.70760

Rotational constants in cm-1:     0.017569     0.009456     0.007119
Rotational constants in MHz :   526.694001   283.481348   213.426755

                             ****ORCA TERMINATED NORMALLY****
TOTAL RUN TIME: 0 days 0 hours 0 minutes 20 seconds 835 msec
