                         Program Version 4.2.1 -  RELEASE  -
|  1> ! wB97X-D3 SP def2-SVP
|  2> %pal
|  3> nprocs 24
|  4> end
|  5>
|  6> * xyz 0 1
|  7> S 	 -20.354 	 -33.5387 	 -92.9921
|  8> C 	 -18.749 	 -34.0787 	 -93.11
|  9> C 	 -18.1026 	 -33.1799 	 -93.9077
| 10> C 	 -18.7683 	 -31.9752 	 -94.3484
| 11> C 	 -20.0525 	 -31.9575 	 -93.7999
| 12> H 	 -18.4236 	 -31.1978 	 -94.9817
| 13> C 	 -16.6628 	 -33.4944 	 -94.4002
| 14> H 	 -16.1233 	 -34.2298 	 -93.7076
| 15> H 	 -16.1236 	 -32.5395 	 -94.4634
| 16> C 	 -16.5048 	 -34.1186 	 -95.7503
| 17> H 	 -17.108 	 -35.0239 	 -95.7671
| 18> H 	 -16.9954 	 -33.4169 	 -96.3794
| 19> C 	 -15.1152 	 -34.4596 	 -96.3008
| 20> H 	 -14.5102 	 -35.001 	 -95.526
| 21> H 	 -15.1871 	 -35.2391 	 -97.0495
| 22> H 	 -14.4507 	 -33.6801 	 -96.6908
| 23> S 	 -22.6224 	 -31.5372 	 -94.5132
| 24> C 	 -23.3006 	 -29.9738 	 -94.7252
| 25> C 	 -22.437 	 -29.0096 	 -94.2246
| 26> C 	 -21.1919 	 -29.5299 	 -93.8147
| 27> C 	 -21.0719 	 -30.9142 	 -94.0142
| 28> H 	 -22.8039 	 -27.9772 	 -94.0478
| 29> C 	 -20.136 	 -28.6192 	 -93.1599
| 30> H 	 -19.1273 	 -29.0594 	 -92.9047
| 31> H 	 -20.6876 	 -28.2588 	 -92.3143
| 32> C 	 -19.8616 	 -27.3714 	 -94.0206
| 33> H 	 -19.2575 	 -26.6606 	 -93.4818
| 34> H 	 -20.6586 	 -26.7054 	 -94.2707
| 35> C 	 -19.1393 	 -27.8628 	 -95.3571
| 36> H 	 -19.622 	 -28.6486 	 -95.9729
| 37> H 	 -18.1475 	 -28.3058 	 -95.116
| 38> H 	 -18.9855 	 -26.9524 	 -95.9122
| 39> H 	 -18.4652 	 -35.0602 	 -92.8985
| 40> H 	 -24.3677 	 -29.8141 	 -94.8508
| 41> *
| 42>
| 43>                          ****END OF INPUT****

CARTESIAN COORDINATES (ANGSTROEM)
---------------------------------
  S    -20.354000  -33.538700  -92.992100
  C    -18.749000  -34.078700  -93.110000
  C    -18.102600  -33.179900  -93.907700
  C    -18.768300  -31.975200  -94.348400
  C    -20.052500  -31.957500  -93.799900
  H    -18.423600  -31.197800  -94.981700
  C    -16.662800  -33.494400  -94.400200
  H    -16.123300  -34.229800  -93.707600
  H    -16.123600  -32.539500  -94.463400
  C    -16.504800  -34.118600  -95.750300
  H    -17.108000  -35.023900  -95.767100
  H    -16.995400  -33.416900  -96.379400
  C    -15.115200  -34.459600  -96.300800
  H    -14.510200  -35.001000  -95.526000
  H    -15.187100  -35.239100  -97.049500
  H    -14.450700  -33.680100  -96.690800
  S    -22.622400  -31.537200  -94.513200
  C    -23.300600  -29.973800  -94.725200
  C    -22.437000  -29.009600  -94.224600
  C    -21.191900  -29.529900  -93.814700
  C    -21.071900  -30.914200  -94.014200
  H    -22.803900  -27.977200  -94.047800
  C    -20.136000  -28.619200  -93.159900
  H    -19.127300  -29.059400  -92.904700
  H    -20.687600  -28.258800  -92.314300
  C    -19.861600  -27.371400  -94.020600
  H    -19.257500  -26.660600  -93.481800
  H    -20.658600  -26.705400  -94.270700
  C    -19.139300  -27.862800  -95.357100
  H    -19.622000  -28.648600  -95.972900
  H    -18.147500  -28.305800  -95.116000
  H    -18.985500  -26.952400  -95.912200
  H    -18.465200  -35.060200  -92.898500
  H    -24.367700  -29.814100  -94.850800

 Total Charge           Charge          ....    0
 Multiplicity           Mult            ....    1
 Number of Electrons    NEL             ....  134
 Basis Dimension        Dim             ....  322

ORBITAL ENERGIES
----------------

  NO   OCC          E(Eh)            E(eV)
   0   2.0000     -88.964596     -2420.8497
   1   2.0000     -88.963619     -2420.8231
   2   2.0000     -10.340145      -281.3696
   3   2.0000     -10.330439      -281.1055
   4   2.0000     -10.317588      -280.7559
   5   2.0000     -10.310144      -280.5533
   6   2.0000     -10.309524      -280.5364
   7   2.0000     -10.304562      -280.4014
   8   2.0000     -10.300150      -280.2813
   9   2.0000     -10.298231      -280.2291
  10   2.0000     -10.297907      -280.2203
  11   2.0000     -10.290395      -280.0159
  12   2.0000     -10.288384      -279.9612
  13   2.0000     -10.281634      -279.7775
  14   2.0000     -10.281542      -279.7750
  15   2.0000     -10.277890      -279.6756
  16   2.0000      -8.079645      -219.8583
  17   2.0000      -8.079259      -219.8478
  18   2.0000      -6.038261      -164.3094
  19   2.0000      -6.037623      -164.2921
  20   2.0000      -6.034048      -164.1948
  21   2.0000      -6.033568      -164.1817
  22   2.0000      -6.030294      -164.0926
  23   2.0000      -6.030177      -164.0895
  24   2.0000      -1.009960       -27.4824
  25   2.0000      -0.991062       -26.9682
  26   2.0000      -0.909597       -24.7514
  27   2.0000      -0.907444       -24.6928
  28   2.0000      -0.875352       -23.8195
  29   2.0000      -0.848216       -23.0811
  30   2.0000      -0.841614       -22.9015
  31   2.0000      -0.817045       -22.2329
  32   2.0000      -0.779459       -21.2102
  33   2.0000      -0.771898       -21.0044
  34   2.0000      -0.711396       -19.3581
  35   2.0000      -0.699044       -19.0219
  36   2.0000      -0.691754       -18.8236
  37   2.0000      -0.661230       -17.9930
  38   2.0000      -0.650958       -17.7135
  39   2.0000      -0.618360       -16.8264
  40   2.0000      -0.598290       -16.2803
  41   2.0000      -0.571025       -15.5384
  42   2.0000      -0.562292       -15.3008
  43   2.0000      -0.555746       -15.1226
  44   2.0000      -0.533445       -14.5158
  45   2.0000      -0.527872       -14.3641
  46   2.0000      -0.516832       -14.0637
  47   2.0000      -0.513880       -13.9834
  48   2.0000      -0.508053       -13.8248
  49   2.0000      -0.500231       -13.6120
  50   2.0000      -0.493585       -13.4311
  51   2.0000      -0.480855       -13.0847
  52   2.0000      -0.474548       -12.9131
  53   2.0000      -0.469102       -12.7649
  54   2.0000      -0.460396       -12.5280
  55   2.0000      -0.454476       -12.3669
  56   2.0000      -0.448555       -12.2058
  57   2.0000      -0.434348       -11.8192
  58   2.0000      -0.424706       -11.5568
  59   2.0000      -0.416593       -11.3361
  60   2.0000      -0.414176       -11.2703
  61   2.0000      -0.408201       -11.1077
  62   2.0000      -0.406633       -11.0651
  63   2.0000      -0.354213        -9.6386
  64   2.0000      -0.330859        -9.0031
  65   2.0000      -0.325571        -8.8592
  66   2.0000      -0.294671        -8.0184
  67   0.0000       0.025710         0.6996
  68   0.0000       0.066388         1.8065
  69   0.0000       0.114486         3.1153
  70   0.0000       0.119272         3.2456
  71   0.0000       0.126227         3.4348

MULLIKEN ATOMIC CHARGES
-----------------------
   0 S :    0.097106
   1 C :   -0.073667
   2 C :   -0.091952
   3 C :    0.050048
   4 C :   -0.122357
   5 H :    0.008031
   6 C :    0.020619
   7 H :    0.023423
   8 H :    0.020011
   9 C :   -0.038423
  10 H :    0.015787
  11 H :    0.007994
  12 C :   -0.044573
  13 H :    0.019185
  14 H :    0.028766
  15 H :    0.041232
  16 S :    0.098884
  17 C :   -0.083372
  18 C :   -0.067560
  19 C :   -0.031465
  20 C :   -0.184189
  21 H :    0.035521
  22 C :    0.086557
  23 H :    0.049331
  24 H :    0.029944
  25 C :   -0.078540
  26 H :    0.020122
  27 H :    0.020116
  28 C :   -0.083971
  29 H :    0.059419
  30 H :    0.027445
  31 H :    0.033538
  32 H :    0.040185
  33 H :    0.066805
Sum of atomic charges:   -0.0000000

LOEWDIN ATOMIC CHARGES
----------------------
   0 S :    0.403985
   1 C :   -0.201631
   2 C :   -0.061214
   3 C :   -0.056911
   4 C :   -0.173686
   5 H :    0.030487
   6 C :   -0.038579
   7 H :    0.028924
   8 H :    0.025647
   9 C :   -0.047941
  10 H :    0.023248
  11 H :    0.017152
  12 C :   -0.071390
  13 H :    0.027624
  14 H :    0.028724
  15 H :    0.026685
  16 S :    0.426281
  17 C :   -0.195734
  18 C :   -0.078286
  19 C :   -0.054010
  20 C :   -0.205977
  21 H :    0.038479
  22 C :   -0.026335
  23 H :    0.041034
  24 H :    0.032279
  25 C :   -0.040362
  26 H :    0.022580
  27 H :    0.017320
  28 C :   -0.070623
  29 H :    0.030472
  30 H :    0.022754
  31 H :    0.022816
  32 H :    0.023886
  33 H :    0.032298

  Mayer bond orders larger than 0.100000
B(  0-S ,  1-C ) :   1.1309 B(  0-S ,  4-C ) :   1.1568 B(  1-C ,  2-C ) :   1.6050
B(  1-C , 32-H ) :   0.9794 B(  2-C ,  3-C ) :   1.2257 B(  2-C ,  6-C ) :   1.0298
B(  3-C ,  4-C ) :   1.5498 B(  3-C ,  5-H ) :   1.0044 B(  4-C , 20-C ) :   1.0488
B(  6-C ,  7-H ) :   0.9450 B(  6-C ,  8-H ) :   0.9408 B(  6-C ,  9-C ) :   1.0727
B(  9-C , 10-H ) :   0.9513 B(  9-C , 11-H ) :   0.9500 B(  9-C , 12-C ) :   1.0806
B( 12-C , 13-H ) :   0.9701 B( 12-C , 14-H ) :   0.9735 B( 12-C , 15-H ) :   0.9763
B( 16-S , 17-C ) :   1.1838 B( 16-S , 20-C ) :   1.1551 B( 17-C , 18-C ) :   1.5737
B( 17-C , 20-C ) :   0.1053 B( 17-C , 33-H ) :   0.9647 B( 18-C , 19-C ) :   1.2745
B( 18-C , 21-H ) :   0.9835 B( 19-C , 20-C ) :   1.5549 B( 19-C , 22-C ) :   1.0253
B( 22-C , 23-H ) :   0.9497 B( 22-C , 24-H ) :   0.9266 B( 22-C , 25-C ) :   1.0773
B( 25-C , 26-H ) :   0.9547 B( 25-C , 27-H ) :   0.9550 B( 25-C , 28-C ) :   1.0569
B( 28-C , 29-H ) :   0.9768 B( 28-C , 30-H ) :   0.9757 B( 28-C , 31-H ) :   0.9760

Dispersion correction           -0.014198679
FINAL SINGLE POINT ENERGY     -1339.858126764732

DIPOLE MOMENT
-------------
                                X             Y             Z
Electronic contribution:    -24.26511      -8.54069       9.49171
Nuclear contribution   :     24.51345       8.97016      -9.57566
                        -----------------------------------------
Total Dipole Moment    :      0.24835       0.42947      -0.08395
                        -----------------------------------------
Magnitude (a.u.)       :      0.50316
Magnitude (Debye)      :      1.27894

Rotational constants in cm-1:     0.019770     0.007975     0.006430
Rotational constants in MHz :   592.691862   239.076888   192.775326

                             ****ORCA TERMINATED NORMALLY****
TOTAL RUN TIME: 0 days 0 hours 0 minutes 21 seconds 310 msec
