                         Program Version 4.2.1 -  RELEASE  -
|  1> ! wB97X-D3 SP def2-SVP
|  2> %pal
|  3> nprocs 24
|  4> end
|  5>
|  6> * xyz 0 1
|  7> S 	 -133.354 	 68.2684 	 -57.8777
|  8> C 	 -135.021 	 68.6994 	 -57.9014
|  9> C 	 -135.728 	 67.878 	 -58.7757
| 10> C 	 -134.862 	 66.8848 	 -59.2918
| 11> C 	 -133.58 	 66.9018 	 -58.8671
| 12> H 	 -135.178 	 66.0838 	 -59.9248
| 13> C 	 -137.167 	 68.086 	 -59.1073
| 14> H 	 -137.576 	 68.6484 	 -58.2746
| 15> H 	 -137.692 	 67.1122 	 -58.9844
| 16> C 	 -137.503 	 68.7745 	 -60.5071
| 17> H 	 -137.405 	 67.9932 	 -61.3479
| 18> H 	 -138.568 	 69.0539 	 -60.5101
| 19> C 	 -136.71 	 70.0362 	 -60.6706
| 20> H 	 -136.978 	 70.4028 	 -61.6098
| 21> H 	 -137.032 	 70.6825 	 -59.8384
| 22> H 	 -135.634 	 69.9846 	 -60.6643
| 23> S 	 -131.317 	 66.8783 	 -60.3848
| 24> C 	 -130.325 	 65.4646 	 -60.2705
| 25> C 	 -130.968 	 64.372 	 -59.7383
| 26> C 	 -132.255 	 64.71 	 -59.261
| 27> C 	 -132.519 	 66.0409 	 -59.3748
| 28> H 	 -130.438 	 63.443 	 -59.6654
| 29> C 	 -133.184 	 63.6724 	 -58.6121
| 30> H 	 -134.107 	 64.0857 	 -58.0649
| 31> H 	 -132.717 	 63.1725 	 -57.7486
| 32> C 	 -133.604 	 62.4997 	 -59.4775
| 33> H 	 -134.222 	 61.8652 	 -58.8579
| 34> H 	 -132.709 	 61.869 	 -59.6353
| 35> C 	 -134.235 	 62.867 	 -60.8655
| 36> H 	 -135.121 	 63.5154 	 -60.6829
| 37> H 	 -134.519 	 61.9917 	 -61.4955
| 38> H 	 -133.605 	 63.4751 	 -61.61
| 39> H 	 -135.29 	 69.4806 	 -57.2021
| 40> H 	 -129.347 	 65.3943 	 -60.6627
| 41> *
| 42>
| 43>                          ****END OF INPUT****

CARTESIAN COORDINATES (ANGSTROEM)
---------------------------------
  S    -133.354000   68.268400  -57.877700
  C    -135.021000   68.699400  -57.901400
  C    -135.728000   67.878000  -58.775700
  C    -134.862000   66.884800  -59.291800
  C    -133.580000   66.901800  -58.867100
  H    -135.178000   66.083800  -59.924800
  C    -137.167000   68.086000  -59.107300
  H    -137.576000   68.648400  -58.274600
  H    -137.692000   67.112200  -58.984400
  C    -137.503000   68.774500  -60.507100
  H    -137.405000   67.993200  -61.347900
  H    -138.568000   69.053900  -60.510100
  C    -136.710000   70.036200  -60.670600
  H    -136.978000   70.402800  -61.609800
  H    -137.032000   70.682500  -59.838400
  H    -135.634000   69.984600  -60.664300
  S    -131.317000   66.878300  -60.384800
  C    -130.325000   65.464600  -60.270500
  C    -130.968000   64.372000  -59.738300
  C    -132.255000   64.710000  -59.261000
  C    -132.519000   66.040900  -59.374800
  H    -130.438000   63.443000  -59.665400
  C    -133.184000   63.672400  -58.612100
  H    -134.107000   64.085700  -58.064900
  H    -132.717000   63.172500  -57.748600
  C    -133.604000   62.499700  -59.477500
  H    -134.222000   61.865200  -58.857900
  H    -132.709000   61.869000  -59.635300
  C    -134.235000   62.867000  -60.865500
  H    -135.121000   63.515400  -60.682900
  H    -134.519000   61.991700  -61.495500
  H    -133.605000   63.475100  -61.610000
  H    -135.290000   69.480600  -57.202100
  H    -129.347000   65.394300  -60.662700

 Total Charge           Charge          ....    0
 Multiplicity           Mult            ....    1
 Number of Electrons    NEL             ....  134
 Basis Dimension        Dim             ....  322

ORBITAL ENERGIES
----------------

  NO   OCC          E(Eh)            E(eV)
   0   2.0000     -88.963161     -2420.8107
   1   2.0000     -88.960191     -2420.7299
   2   2.0000     -10.323251      -280.9099
   3   2.0000     -10.317276      -280.7474
   4   2.0000     -10.312522      -280.6180
   5   2.0000     -10.310576      -280.5650
   6   2.0000     -10.303096      -280.3615
   7   2.0000     -10.298784      -280.2442
   8   2.0000     -10.296915      -280.1933
   9   2.0000     -10.296220      -280.1744
  10   2.0000     -10.292212      -280.0653
  11   2.0000     -10.291197      -280.0377
  12   2.0000     -10.289992      -280.0049
  13   2.0000     -10.288182      -279.9557
  14   2.0000     -10.283285      -279.8224
  15   2.0000     -10.267903      -279.4038
  16   2.0000      -8.078190      -219.8187
  17   2.0000      -8.076671      -219.7774
  18   2.0000      -6.036584      -164.2638
  19   2.0000      -6.034916      -164.2184
  20   2.0000      -6.032880      -164.1630
  21   2.0000      -6.030805      -164.1066
  22   2.0000      -6.028833      -164.0529
  23   2.0000      -6.027722      -164.0227
  24   2.0000      -1.013939       -27.5907
  25   2.0000      -0.990379       -26.9496
  26   2.0000      -0.909418       -24.7465
  27   2.0000      -0.904920       -24.6241
  28   2.0000      -0.870061       -23.6756
  29   2.0000      -0.851069       -23.1588
  30   2.0000      -0.844229       -22.9726
  31   2.0000      -0.814749       -22.1704
  32   2.0000      -0.782413       -21.2905
  33   2.0000      -0.773713       -21.0538
  34   2.0000      -0.706047       -19.2125
  35   2.0000      -0.693262       -18.8646
  36   2.0000      -0.690457       -18.7883
  37   2.0000      -0.658624       -17.9221
  38   2.0000      -0.648440       -17.6449
  39   2.0000      -0.620101       -16.8738
  40   2.0000      -0.598063       -16.2741
  41   2.0000      -0.562471       -15.3056
  42   2.0000      -0.553823       -15.0703
  43   2.0000      -0.548617       -14.9286
  44   2.0000      -0.545364       -14.8401
  45   2.0000      -0.537495       -14.6260
  46   2.0000      -0.517349       -14.0778
  47   2.0000      -0.511278       -13.9126
  48   2.0000      -0.499177       -13.5833
  49   2.0000      -0.491700       -13.3798
  50   2.0000      -0.487969       -13.2783
  51   2.0000      -0.478093       -13.0096
  52   2.0000      -0.467926       -12.7329
  53   2.0000      -0.459577       -12.5057
  54   2.0000      -0.459187       -12.4951
  55   2.0000      -0.448149       -12.1948
  56   2.0000      -0.444854       -12.1051
  57   2.0000      -0.437747       -11.9117
  58   2.0000      -0.429932       -11.6990
  59   2.0000      -0.424232       -11.5439
  60   2.0000      -0.418148       -11.3784
  61   2.0000      -0.415818       -11.3150
  62   2.0000      -0.405321       -11.0294
  63   2.0000      -0.338755        -9.2180
  64   2.0000      -0.334216        -9.0945
  65   2.0000      -0.324333        -8.8255
  66   2.0000      -0.299350        -8.1457
  67   0.0000       0.040746         1.1088
  68   0.0000       0.065330         1.7777
  69   0.0000       0.111472         3.0333
  70   0.0000       0.126006         3.4288
  71   0.0000       0.132561         3.6072

MULLIKEN ATOMIC CHARGES
-----------------------
   0 S :    0.112817
   1 C :   -0.154953
   2 C :   -0.067362
   3 C :    0.042495
   4 C :   -0.152630
   5 H :   -0.012147
   6 C :    0.060975
   7 H :    0.013116
   8 H :    0.029503
   9 C :   -0.093784
  10 H :    0.042187
  11 H :    0.036553
  12 C :   -0.014423
  13 H :    0.018586
  14 H :    0.027907
  15 H :    0.045851
  16 S :    0.109500
  17 C :   -0.074393
  18 C :   -0.040544
  19 C :    0.040308
  20 C :   -0.193669
  21 H :    0.015778
  22 C :    0.021318
  23 H :    0.039665
  24 H :    0.028277
  25 C :   -0.065293
  26 H :    0.028463
  27 H :    0.024913
  28 C :   -0.097679
  29 H :    0.037509
  30 H :    0.042507
  31 H :    0.053185
  32 H :    0.057393
  33 H :    0.038073
Sum of atomic charges:    0.0000000

LOEWDIN ATOMIC CHARGES
----------------------
   0 S :    0.436839
   1 C :   -0.199794
   2 C :   -0.068355
   3 C :   -0.060156
   4 C :   -0.221577
   5 H :    0.025392
   6 C :   -0.040637
   7 H :    0.027977
   8 H :    0.033146
   9 C :   -0.039094
  10 H :    0.028196
  11 H :    0.027969
  12 C :   -0.061139
  13 H :    0.019262
  14 H :    0.030306
  15 H :    0.026066
  16 S :    0.395685
  17 C :   -0.176483
  18 C :   -0.068318
  19 C :   -0.053913
  20 C :   -0.180215
  21 H :    0.031917
  22 C :   -0.040925
  23 H :    0.037460
  24 H :    0.034503
  25 C :   -0.043703
  26 H :    0.026285
  27 H :    0.021917
  28 C :   -0.084579
  29 H :    0.024431
  30 H :    0.029618
  31 H :    0.036952
  32 H :    0.025987
  33 H :    0.018976

  Mayer bond orders larger than 0.100000
B(  0-S ,  1-C ) :   1.1770 B(  0-S ,  4-C ) :   1.1670 B(  1-C ,  2-C ) :   1.5332
B(  1-C , 32-H ) :   0.9766 B(  2-C ,  3-C ) :   1.2655 B(  2-C ,  6-C ) :   1.0361
B(  3-C ,  4-C ) :   1.5587 B(  3-C ,  5-H ) :   1.0071 B(  4-C , 20-C ) :   1.0111
B(  6-C ,  7-H ) :   0.9375 B(  6-C ,  8-H ) :   0.9370 B(  6-C ,  9-C ) :   1.0562
B(  9-C , 10-H ) :   0.9570 B(  9-C , 11-H ) :   0.9568 B(  9-C , 12-C ) :   1.0728
B( 12-C , 13-H ) :   0.9702 B( 12-C , 14-H ) :   0.9739 B( 12-C , 15-H ) :   0.9726
B( 16-S , 17-C ) :   1.1485 B( 16-S , 20-C ) :   1.1387 B( 17-C , 18-C ) :   1.6374
B( 17-C , 33-H ) :   0.9695 B( 18-C , 19-C ) :   1.1992 B( 18-C , 21-H ) :   0.9973
B( 19-C , 20-C ) :   1.6445 B( 19-C , 22-C ) :   1.0335 B( 22-C , 23-H ) :   0.9408
B( 22-C , 24-H ) :   0.9358 B( 22-C , 25-C ) :   1.0817 B( 25-C , 26-H ) :   0.9538
B( 25-C , 27-H ) :   0.9532 B( 25-C , 28-C ) :   1.0602 B( 28-C , 29-H ) :   0.9745
B( 28-C , 30-H ) :   0.9749 B( 28-C , 31-H ) :   0.9729

Dispersion correction           -0.015169832
FINAL SINGLE POINT ENERGY     -1339.878002236389

DIPOLE MOMENT
-------------
                                X             Y             Z
Electronic contribution:     19.60452       8.63581       6.82355
Nuclear contribution   :    -19.97529      -8.98054      -6.86657
                        -----------------------------------------
Total Dipole Moment    :     -0.37077      -0.34472      -0.04302
                        -----------------------------------------
Magnitude (a.u.)       :      0.50809
Magnitude (Debye)      :      1.29147

Rotational constants in cm-1:     0.020168     0.008714     0.007368
Rotational constants in MHz :   604.612276   261.245861   220.898853

                             ****ORCA TERMINATED NORMALLY****
TOTAL RUN TIME: 0 days 0 hours 0 minutes 22 seconds 41 msec
