                         Program Version 4.2.1 -  RELEASE  -
|  1> ! wB97X-D3 SP def2-SVP
|  2> %pal
|  3> nprocs 24
|  4> end
|  5>
|  6> * xyz 0 1
|  7> S 	 -73.9926 	 0.545172 	 -69.2385
|  8> C 	 -72.925 	 1.27729 	 -68.1054
|  9> C 	 -73.088 	 0.933906 	 -66.7884
| 10> C 	 -73.9864 	 -0.191571 	 -66.754
| 11> C 	 -74.5325 	 -0.564429 	 -67.9931
| 12> H 	 -74.0659 	 -0.816472 	 -65.8817
| 13> C 	 -72.4112 	 1.52479 	 -65.6073
| 14> H 	 -73.0385 	 2.31788 	 -65.2535
| 15> H 	 -71.5154 	 1.89956 	 -66.127
| 16> C 	 -72.0397 	 0.601988 	 -64.3746
| 17> H 	 -72.8585 	 -0.0878977 	 -64.0199
| 18> H 	 -71.2726 	 -0.0371662 	 -64.665
| 19> C 	 -71.4521 	 1.37867 	 -63.2095
| 20> H 	 -72.2544 	 2.14853 	 -63.026
| 21> H 	 -71.3014 	 0.824389 	 -62.2581
| 22> H 	 -70.4639 	 1.84222 	 -63.3909
| 23> S 	 -74.9681 	 -3.32747 	 -67.8606
| 24> C 	 -76.5934 	 -3.82767 	 -68.0253
| 25> C 	 -77.4732 	 -2.83921 	 -68.4238
| 26> C 	 -76.7585 	 -1.65564 	 -68.7316
| 27> C 	 -75.492 	 -1.62781 	 -68.202
| 28> H 	 -78.5126 	 -3.10732 	 -68.4339
| 29> C 	 -77.4785 	 -0.457243 	 -69.3241
| 30> H 	 -78.3196 	 -0.884098 	 -69.8727
| 31> H 	 -76.8915 	 0.0544276 	 -70.055
| 32> C 	 -77.8979 	 0.583454 	 -68.3481
| 33> H 	 -77.0338 	 1.17279 	 -67.8713
| 34> H 	 -78.4456 	 0.152539 	 -67.5583
| 35> C 	 -78.8716 	 1.5368 	 -69.0333
| 36> H 	 -79.2969 	 2.31716 	 -68.4312
| 37> H 	 -79.7888 	 1.06591 	 -69.4189
| 38> H 	 -78.4389 	 2.08129 	 -69.822
| 39> H 	 -72.2511 	 2.10372 	 -68.3559
| 40> H 	 -76.9299 	 -4.81542 	 -67.7646
| 41> *
| 42>
| 43>                          ****END OF INPUT****

CARTESIAN COORDINATES (ANGSTROEM)
---------------------------------
  S    -73.992600    0.545172  -69.238500
  C    -72.925000    1.277290  -68.105400
  C    -73.088000    0.933906  -66.788400
  C    -73.986400   -0.191571  -66.754000
  C    -74.532500   -0.564429  -67.993100
  H    -74.065900   -0.816472  -65.881700
  C    -72.411200    1.524790  -65.607300
  H    -73.038500    2.317880  -65.253500
  H    -71.515400    1.899560  -66.127000
  C    -72.039700    0.601988  -64.374600
  H    -72.858500   -0.087898  -64.019900
  H    -71.272600   -0.037166  -64.665000
  C    -71.452100    1.378670  -63.209500
  H    -72.254400    2.148530  -63.026000
  H    -71.301400    0.824389  -62.258100
  H    -70.463900    1.842220  -63.390900
  S    -74.968100   -3.327470  -67.860600
  C    -76.593400   -3.827670  -68.025300
  C    -77.473200   -2.839210  -68.423800
  C    -76.758500   -1.655640  -68.731600
  C    -75.492000   -1.627810  -68.202000
  H    -78.512600   -3.107320  -68.433900
  C    -77.478500   -0.457243  -69.324100
  H    -78.319600   -0.884098  -69.872700
  H    -76.891500    0.054428  -70.055000
  C    -77.897900    0.583454  -68.348100
  H    -77.033800    1.172790  -67.871300
  H    -78.445600    0.152539  -67.558300
  C    -78.871600    1.536800  -69.033300
  H    -79.296900    2.317160  -68.431200
  H    -79.788800    1.065910  -69.418900
  H    -78.438900    2.081290  -69.822000
  H    -72.251100    2.103720  -68.355900
  H    -76.929900   -4.815420  -67.764600

 Total Charge           Charge          ....    0
 Multiplicity           Mult            ....    1
 Number of Electrons    NEL             ....  134
 Basis Dimension        Dim             ....  322

ORBITAL ENERGIES
----------------

  NO   OCC          E(Eh)            E(eV)
   0   2.0000     -88.969537     -2420.9842
   1   2.0000     -88.961745     -2420.7721
   2   2.0000     -10.328458      -281.0516
   3   2.0000     -10.323620      -280.9200
   4   2.0000     -10.310746      -280.5697
   5   2.0000     -10.309159      -280.5265
   6   2.0000     -10.299856      -280.2733
   7   2.0000     -10.298764      -280.2436
   8   2.0000     -10.298383      -280.2332
   9   2.0000     -10.293527      -280.1011
  10   2.0000     -10.292011      -280.0599
  11   2.0000     -10.289407      -279.9890
  12   2.0000     -10.287055      -279.9250
  13   2.0000     -10.282440      -279.7994
  14   2.0000     -10.280236      -279.7394
  15   2.0000     -10.266692      -279.3709
  16   2.0000      -8.084255      -219.9838
  17   2.0000      -8.076500      -219.7727
  18   2.0000      -6.042661      -164.4292
  19   2.0000      -6.038867      -164.3259
  20   2.0000      -6.035041      -164.2218
  21   2.0000      -6.034933      -164.2189
  22   2.0000      -6.031183      -164.1168
  23   2.0000      -6.027169      -164.0076
  24   2.0000      -1.005982       -27.3742
  25   2.0000      -0.986443       -26.8425
  26   2.0000      -0.915030       -24.8992
  27   2.0000      -0.912875       -24.8406
  28   2.0000      -0.870344       -23.6833
  29   2.0000      -0.852719       -23.2037
  30   2.0000      -0.849923       -23.1276
  31   2.0000      -0.811619       -22.0853
  32   2.0000      -0.784398       -21.3446
  33   2.0000      -0.770529       -20.9672
  34   2.0000      -0.713560       -19.4170
  35   2.0000      -0.700825       -19.0704
  36   2.0000      -0.688750       -18.7418
  37   2.0000      -0.661307       -17.9951
  38   2.0000      -0.634602       -17.2684
  39   2.0000      -0.619118       -16.8470
  40   2.0000      -0.599659       -16.3176
  41   2.0000      -0.581346       -15.8192
  42   2.0000      -0.565909       -15.3992
  43   2.0000      -0.560775       -15.2595
  44   2.0000      -0.527064       -14.3421
  45   2.0000      -0.517187       -14.0734
  46   2.0000      -0.516033       -14.0420
  47   2.0000      -0.513494       -13.9729
  48   2.0000      -0.506375       -13.7792
  49   2.0000      -0.499463       -13.5911
  50   2.0000      -0.487362       -13.2618
  51   2.0000      -0.476623       -12.9696
  52   2.0000      -0.468710       -12.7543
  53   2.0000      -0.467019       -12.7082
  54   2.0000      -0.460076       -12.5193
  55   2.0000      -0.449194       -12.2232
  56   2.0000      -0.443607       -12.0712
  57   2.0000      -0.438040       -11.9197
  58   2.0000      -0.432399       -11.7662
  59   2.0000      -0.424894       -11.5619
  60   2.0000      -0.422047       -11.4845
  61   2.0000      -0.418318       -11.3830
  62   2.0000      -0.415746       -11.3130
  63   2.0000      -0.337609        -9.1868
  64   2.0000      -0.330629        -8.9969
  65   2.0000      -0.329143        -8.9564
  66   2.0000      -0.288942        -7.8625
  67   0.0000       0.032834         0.8934
  68   0.0000       0.065449         1.7810
  69   0.0000       0.106472         2.8972
  70   0.0000       0.114711         3.1214
  71   0.0000       0.131846         3.5877

MULLIKEN ATOMIC CHARGES
-----------------------
   0 S :    0.128935
   1 C :   -0.131358
   2 C :   -0.095905
   3 C :    0.024584
   4 C :   -0.165873
   5 H :    0.009223
   6 C :    0.084195
   7 H :    0.042175
   8 H :    0.030093
   9 C :   -0.076481
  10 H :    0.049583
  11 H :    0.018847
  12 C :   -0.083114
  13 H :    0.032354
  14 H :    0.042881
  15 H :    0.041132
  16 S :    0.107316
  17 C :   -0.085978
  18 C :   -0.044244
  19 C :   -0.011100
  20 C :   -0.157791
  21 H :    0.018247
  22 C :    0.071782
  23 H :    0.015553
  24 H :    0.011134
  25 C :   -0.041340
  26 H :    0.054061
  27 H :    0.010837
  28 C :   -0.038035
  29 H :    0.017097
  30 H :    0.021447
  31 H :    0.013043
  32 H :    0.041458
  33 H :    0.045243
Sum of atomic charges:    0.0000000

LOEWDIN ATOMIC CHARGES
----------------------
   0 S :    0.420180
   1 C :   -0.207780
   2 C :   -0.066881
   3 C :   -0.053829
   4 C :   -0.201967
   5 H :    0.025168
   6 C :   -0.027978
   7 H :    0.033276
   8 H :    0.040694
   9 C :   -0.043122
  10 H :    0.032733
  11 H :    0.016183
  12 C :   -0.073220
  13 H :    0.028229
  14 H :    0.030981
  15 H :    0.027712
  16 S :    0.394736
  17 C :   -0.190411
  18 C :   -0.074271
  19 C :   -0.050367
  20 C :   -0.180077
  21 H :    0.033781
  22 C :   -0.031957
  23 H :    0.031910
  24 H :    0.022076
  25 C :   -0.036789
  26 H :    0.038187
  27 H :    0.016563
  28 C :   -0.066732
  29 H :    0.022520
  30 H :    0.025704
  31 H :    0.016352
  32 H :    0.025765
  33 H :    0.022633

  Mayer bond orders larger than 0.100000
B(  0-S ,  1-C ) :   1.1471 B(  0-S ,  4-C ) :   1.1390 B(  1-C ,  2-C ) :   1.6322
B(  1-C , 32-H ) :   0.9559 B(  2-C ,  3-C ) :   1.2444 B(  2-C ,  6-C ) :   1.0095
B(  3-C ,  4-C ) :   1.5683 B(  3-C ,  5-H ) :   0.9891 B(  4-C , 20-C ) :   1.0642
B(  6-C ,  7-H ) :   0.9278 B(  6-C ,  8-H ) :   0.9402 B(  6-C ,  9-C ) :   1.0616
B(  9-C , 10-H ) :   0.9524 B(  9-C , 11-H ) :   0.9551 B(  9-C , 12-C ) :   1.0824
B( 12-C , 13-H ) :   0.9775 B( 12-C , 14-H ) :   0.9734 B( 12-C , 15-H ) :   0.9752
B( 16-S , 17-C ) :   1.1633 B( 16-S , 20-C ) :   1.1179 B( 17-C , 18-C ) :   1.6314
B( 17-C , 33-H ) :   0.9634 B( 18-C , 19-C ) :   1.2021 B( 18-C , 21-H ) :   0.9980
B( 19-C , 20-C ) :   1.6067 B( 19-C , 22-C ) :   1.0518 B( 22-C , 23-H ) :   0.9326
B( 22-C , 24-H ) :   0.9291 B( 22-C , 25-C ) :   1.0748 B( 25-C , 26-H ) :   0.9476
B( 25-C , 27-H ) :   0.9524 B( 25-C , 28-C ) :   1.0845 B( 28-C , 29-H ) :   0.9712
B( 28-C , 30-H ) :   0.9729 B( 28-C , 31-H ) :   0.9735

Dispersion correction           -0.014198497
FINAL SINGLE POINT ENERGY     -1339.862651762000

DIPOLE MOMENT
-------------
                                X             Y             Z
Electronic contribution:      3.67395     -15.64636     -13.63269
Nuclear contribution   :     -3.79430      15.92597      14.04131
                        -----------------------------------------
Total Dipole Moment    :     -0.12035       0.27961       0.40862
                        -----------------------------------------
Magnitude (a.u.)       :      0.50954
Magnitude (Debye)      :      1.29516

Rotational constants in cm-1:     0.018145     0.008144     0.006831
Rotational constants in MHz :   543.968862   244.149262   204.787327

                             ****ORCA TERMINATED NORMALLY****
TOTAL RUN TIME: 0 days 0 hours 0 minutes 22 seconds 472 msec
