                         Program Version 4.2.1 -  RELEASE  -
|  1> ! wB97X-D3 SP def2-SVP
|  2> %pal
|  3> nprocs 24
|  4> end
|  5>
|  6> * xyz 0 1
|  7> S 	 -118.141 	 22.6646 	 -18.3544
|  8> C 	 -117.26 	 23.2705 	 -19.6778
|  9> C 	 -116.812 	 24.5677 	 -19.4845
| 10> C 	 -117.345 	 25.1052 	 -18.2634
| 11> C 	 -118.145 	 24.2156 	 -17.5626
| 12> H 	 -117.119 	 26.0405 	 -17.875
| 13> C 	 -115.909 	 25.4246 	 -20.3371
| 14> H 	 -116.202 	 26.4378 	 -20.2914
| 15> H 	 -116.015 	 25.0077 	 -21.3665
| 16> C 	 -114.407 	 25.4091 	 -19.9352
| 17> H 	 -114.508 	 25.7913 	 -18.8788
| 18> H 	 -113.995 	 24.4415 	 -19.7802
| 19> C 	 -113.432 	 26.154 	 -20.8531
| 20> H 	 -113.303 	 25.5697 	 -21.7928
| 21> H 	 -113.811 	 27.1198 	 -21.253
| 22> H 	 -112.525 	 26.3295 	 -20.2565
| 23> S 	 -118.42 	 23.2795 	 -15.0698
| 24> C 	 -119.397 	 24.1762 	 -13.8558
| 25> C 	 -120.086 	 25.2375 	 -14.41
| 26> C 	 -119.708 	 25.4034 	 -15.7804
| 27> C 	 -118.828 	 24.4095 	 -16.2844
| 28> H 	 -120.793 	 25.8646 	 -13.7732
| 29> C 	 -120.301 	 26.5879 	 -16.5415
| 30> H 	 -119.618 	 27.0099 	 -17.3109
| 31> H 	 -120.388 	 27.4818 	 -15.9166
| 32> C 	 -121.687 	 26.5036 	 -17.2896
| 33> H 	 -121.662 	 25.5214 	 -17.7566
| 34> H 	 -121.757 	 27.3702 	 -17.9436
| 35> C 	 -122.892 	 26.4098 	 -16.3263
| 36> H 	 -122.553 	 25.8811 	 -15.4897
| 37> H 	 -123.833 	 25.922 	 -16.7656
| 38> H 	 -123.199 	 27.4306 	 -16.0962
| 39> H 	 -117 	 22.7203 	 -20.64
| 40> H 	 -119.655 	 23.7894 	 -12.8857
| 41> *
| 42>
| 43>                          ****END OF INPUT****

CARTESIAN COORDINATES (ANGSTROEM)
---------------------------------
  S    -118.141000   22.664600  -18.354400
  C    -117.260000   23.270500  -19.677800
  C    -116.812000   24.567700  -19.484500
  C    -117.345000   25.105200  -18.263400
  C    -118.145000   24.215600  -17.562600
  H    -117.119000   26.040500  -17.875000
  C    -115.909000   25.424600  -20.337100
  H    -116.202000   26.437800  -20.291400
  H    -116.015000   25.007700  -21.366500
  C    -114.407000   25.409100  -19.935200
  H    -114.508000   25.791300  -18.878800
  H    -113.995000   24.441500  -19.780200
  C    -113.432000   26.154000  -20.853100
  H    -113.303000   25.569700  -21.792800
  H    -113.811000   27.119800  -21.253000
  H    -112.525000   26.329500  -20.256500
  S    -118.420000   23.279500  -15.069800
  C    -119.397000   24.176200  -13.855800
  C    -120.086000   25.237500  -14.410000
  C    -119.708000   25.403400  -15.780400
  C    -118.828000   24.409500  -16.284400
  H    -120.793000   25.864600  -13.773200
  C    -120.301000   26.587900  -16.541500
  H    -119.618000   27.009900  -17.310900
  H    -120.388000   27.481800  -15.916600
  C    -121.687000   26.503600  -17.289600
  H    -121.662000   25.521400  -17.756600
  H    -121.757000   27.370200  -17.943600
  C    -122.892000   26.409800  -16.326300
  H    -122.553000   25.881100  -15.489700
  H    -123.833000   25.922000  -16.765600
  H    -123.199000   27.430600  -16.096200
  H    -117.000000   22.720300  -20.640000
  H    -119.655000   23.789400  -12.885700

 Total Charge           Charge          ....    0
 Multiplicity           Mult            ....    1
 Number of Electrons    NEL             ....  134
 Basis Dimension        Dim             ....  322

ORBITAL ENERGIES
----------------

  NO   OCC          E(Eh)            E(eV)
   0   2.0000     -88.970064     -2420.9985
   1   2.0000     -88.969135     -2420.9732
   2   2.0000     -10.332131      -281.1516
   3   2.0000     -10.330112      -281.0966
   4   2.0000     -10.319492      -280.8077
   5   2.0000     -10.317665      -280.7579
   6   2.0000     -10.311172      -280.5812
   7   2.0000     -10.304313      -280.3946
   8   2.0000     -10.300870      -280.3009
   9   2.0000     -10.292993      -280.0866
  10   2.0000     -10.291221      -280.0384
  11   2.0000     -10.290057      -280.0067
  12   2.0000     -10.287810      -279.9456
  13   2.0000     -10.287188      -279.9286
  14   2.0000     -10.283895      -279.8390
  15   2.0000     -10.273746      -279.5629
  16   2.0000      -8.085650      -220.0217
  17   2.0000      -8.083918      -219.9746
  18   2.0000      -6.044092      -164.4681
  19   2.0000      -6.042472      -164.4240
  20   2.0000      -6.040030      -164.3576
  21   2.0000      -6.038335      -164.3115
  22   2.0000      -6.036429      -164.2596
  23   2.0000      -6.034693      -164.2123
  24   2.0000      -1.011338       -27.5199
  25   2.0000      -0.986487       -26.8437
  26   2.0000      -0.911625       -24.8066
  27   2.0000      -0.899999       -24.4902
  28   2.0000      -0.872615       -23.7450
  29   2.0000      -0.853202       -23.2168
  30   2.0000      -0.844136       -22.9701
  31   2.0000      -0.815391       -22.1879
  32   2.0000      -0.781491       -21.2654
  33   2.0000      -0.768632       -20.9155
  34   2.0000      -0.706261       -19.2183
  35   2.0000      -0.697461       -18.9789
  36   2.0000      -0.682627       -18.5752
  37   2.0000      -0.663710       -18.0605
  38   2.0000      -0.641528       -17.4569
  39   2.0000      -0.622601       -16.9418
  40   2.0000      -0.596604       -16.2344
  41   2.0000      -0.575579       -15.6623
  42   2.0000      -0.556369       -15.1396
  43   2.0000      -0.550891       -14.9905
  44   2.0000      -0.533389       -14.5143
  45   2.0000      -0.527493       -14.3538
  46   2.0000      -0.517049       -14.0696
  47   2.0000      -0.511744       -13.9253
  48   2.0000      -0.505444       -13.7538
  49   2.0000      -0.499200       -13.5839
  50   2.0000      -0.483941       -13.1687
  51   2.0000      -0.478181       -13.0120
  52   2.0000      -0.476239       -12.9591
  53   2.0000      -0.466641       -12.6980
  54   2.0000      -0.460406       -12.5283
  55   2.0000      -0.449535       -12.2325
  56   2.0000      -0.445603       -12.1255
  57   2.0000      -0.435272       -11.8444
  58   2.0000      -0.429277       -11.6812
  59   2.0000      -0.426861       -11.6155
  60   2.0000      -0.422165       -11.4877
  61   2.0000      -0.410623       -11.1736
  62   2.0000      -0.401153       -10.9159
  63   2.0000      -0.352850        -9.6015
  64   2.0000      -0.333527        -9.0757
  65   2.0000      -0.327954        -8.9241
  66   2.0000      -0.291506        -7.9323
  67   0.0000       0.029381         0.7995
  68   0.0000       0.064974         1.7680
  69   0.0000       0.106551         2.8994
  70   0.0000       0.116054         3.1580
  71   0.0000       0.132066         3.5937

MULLIKEN ATOMIC CHARGES
-----------------------
   0 S :    0.129647
   1 C :   -0.139003
   2 C :   -0.101300
   3 C :    0.057155
   4 C :   -0.150704
   5 H :   -0.013624
   6 C :    0.081726
   7 H :    0.019268
   8 H :    0.018551
   9 C :   -0.090988
  10 H :    0.022082
  11 H :    0.022912
  12 C :   -0.040718
  13 H :    0.039823
  14 H :    0.026119
  15 H :    0.051870
  16 S :    0.105519
  17 C :   -0.094180
  18 C :   -0.057584
  19 C :   -0.019235
  20 C :   -0.137905
  21 H :    0.061231
  22 C :    0.004570
  23 H :    0.020832
  24 H :    0.014861
  25 C :   -0.051501
  26 H :    0.035428
  27 H :    0.035993
  28 C :   -0.062004
  29 H :    0.019643
  30 H :    0.045164
  31 H :    0.023801
  32 H :    0.069025
  33 H :    0.053524
Sum of atomic charges:    0.0000000

LOEWDIN ATOMIC CHARGES
----------------------
   0 S :    0.433418
   1 C :   -0.224792
   2 C :   -0.064836
   3 C :   -0.050068
   4 C :   -0.201535
   5 H :    0.018727
   6 C :   -0.028932
   7 H :    0.024984
   8 H :    0.029119
   9 C :   -0.045396
  10 H :    0.026358
  11 H :    0.019406
  12 C :   -0.069180
  13 H :    0.031571
  14 H :    0.024430
  15 H :    0.034909
  16 S :    0.412708
  17 C :   -0.176955
  18 C :   -0.072687
  19 C :   -0.063048
  20 C :   -0.208086
  21 H :    0.050546
  22 C :   -0.045924
  23 H :    0.032283
  24 H :    0.025859
  25 C :   -0.033352
  26 H :    0.026449
  27 H :    0.024116
  28 C :   -0.069613
  29 H :    0.014207
  30 H :    0.034509
  31 H :    0.020975
  32 H :    0.044961
  33 H :    0.024868

  Mayer bond orders larger than 0.100000
B(  0-S ,  1-C ) :   1.1547 B(  0-S ,  4-C ) :   1.1588 B(  1-C ,  2-C ) :   1.6053
B(  1-C , 32-H ) :   0.9542 B(  2-C ,  3-C ) :   1.2486 B(  2-C ,  6-C ) :   1.0349
B(  3-C ,  4-C ) :   1.5647 B(  3-C ,  5-H ) :   1.0057 B(  4-C , 20-C ) :   1.0209
B(  6-C ,  7-H ) :   0.9392 B(  6-C ,  8-H ) :   0.9368 B(  6-C ,  9-C ) :   1.0558
B(  9-C , 10-H ) :   0.9562 B(  9-C , 11-H ) :   0.9569 B(  9-C , 12-C ) :   1.0743
B( 12-C , 13-H ) :   0.9727 B( 12-C , 14-H ) :   0.9754 B( 12-C , 15-H ) :   0.9727
B( 16-S , 17-C ) :   1.1460 B( 16-S , 20-C ) :   1.1618 B( 17-C , 18-C ) :   1.6189
B( 17-C , 20-C ) :   0.1050 B( 17-C , 33-H ) :   0.9640 B( 18-C , 19-C ) :   1.2471
B( 18-C , 21-H ) :   0.9716 B( 19-C , 20-C ) :   1.5761 B( 19-C , 22-C ) :   1.0448
B( 22-C , 23-H ) :   0.9374 B( 22-C , 24-H ) :   0.9405 B( 22-C , 25-C ) :   1.0627
B( 25-C , 26-H ) :   0.9580 B( 25-C , 27-H ) :   0.9602 B( 25-C , 28-C ) :   1.0690
B( 28-C , 29-H ) :   0.9768 B( 28-C , 30-H ) :   0.9763 B( 28-C , 31-H ) :   0.9774

Dispersion correction           -0.013673309
FINAL SINGLE POINT ENERGY     -1339.866712987615

DIPOLE MOMENT
-------------
                                X             Y             Z
Electronic contribution:     -1.10216     -19.74547      11.61555
Nuclear contribution   :      1.19642      20.22697     -11.78563
                        -----------------------------------------
Total Dipole Moment    :      0.09426       0.48150      -0.17008
                        -----------------------------------------
Magnitude (a.u.)       :      0.51929
Magnitude (Debye)      :      1.31992

Rotational constants in cm-1:     0.020721     0.007180     0.006400
Rotational constants in MHz :   621.207434   215.259268   191.874818

                             ****ORCA TERMINATED NORMALLY****
TOTAL RUN TIME: 0 days 0 hours 0 minutes 20 seconds 875 msec
