                         Program Version 4.2.1 -  RELEASE  -
|  1> ! wB97X-D3 SP def2-SVP
|  2> %pal
|  3> nprocs 24
|  4> end
|  5>
|  6> * xyz 0 1
|  7> S 	 -111.441 	 54.9195 	 -79.4489
|  8> C 	 -112.536 	 54.9804 	 -80.8137
|  9> C 	 -112.593 	 56.2736 	 -81.2907
| 10> C 	 -111.798 	 57.19 	 -80.5507
| 11> C 	 -111.017 	 56.6369 	 -79.5063
| 12> H 	 -111.638 	 58.191 	 -80.8305
| 13> C 	 -113.482 	 56.6187 	 -82.4301
| 14> H 	 -114.355 	 56.1565 	 -82.3226
| 15> H 	 -113.13 	 56.1117 	 -83.3218
| 16> C 	 -113.858 	 58.1332 	 -82.6068
| 17> H 	 -114.652 	 58.2246 	 -83.3215
| 18> H 	 -114.197 	 58.6232 	 -81.713
| 19> C 	 -112.718 	 58.8664 	 -83.3665
| 20> H 	 -112.899 	 59.917 	 -83.4191
| 21> H 	 -111.763 	 58.6327 	 -82.9631
| 22> H 	 -112.726 	 58.4264 	 -84.3972
| 23> S 	 -108.438 	 56.6838 	 -78.534
| 24> C 	 -107.881 	 58.0715 	 -77.634
| 25> C 	 -108.863 	 58.9958 	 -77.4492
| 26> C 	 -110.094 	 58.6506 	 -78.1298
| 27> C 	 -110.006 	 57.3788 	 -78.7147
| 28> H 	 -108.832 	 60.0004 	 -76.9709
| 29> C 	 -111.265 	 59.5593 	 -78.1051
| 30> H 	 -112.13 	 59.1883 	 -78.6565
| 31> H 	 -110.944 	 60.4117 	 -78.6812
| 32> C 	 -111.81 	 59.9894 	 -76.7365
| 33> H 	 -110.954 	 60.4143 	 -76.2202
| 34> H 	 -112.148 	 59.188 	 -76.1002
| 35> C 	 -112.913 	 61.0603 	 -76.7746
| 36> H 	 -112.548 	 61.8365 	 -77.4291
| 37> H 	 -113.189 	 61.5068 	 -75.8128
| 38> H 	 -113.743 	 60.6093 	 -77.2337
| 39> H 	 -113.116 	 54.1901 	 -81.2275
| 40> H 	 -106.94 	 58.1944 	 -77.0322
| 41> *
| 42>
| 43>                          ****END OF INPUT****

CARTESIAN COORDINATES (ANGSTROEM)
---------------------------------
  S    -111.441000   54.919500  -79.448900
  C    -112.536000   54.980400  -80.813700
  C    -112.593000   56.273600  -81.290700
  C    -111.798000   57.190000  -80.550700
  C    -111.017000   56.636900  -79.506300
  H    -111.638000   58.191000  -80.830500
  C    -113.482000   56.618700  -82.430100
  H    -114.355000   56.156500  -82.322600
  H    -113.130000   56.111700  -83.321800
  C    -113.858000   58.133200  -82.606800
  H    -114.652000   58.224600  -83.321500
  H    -114.197000   58.623200  -81.713000
  C    -112.718000   58.866400  -83.366500
  H    -112.899000   59.917000  -83.419100
  H    -111.763000   58.632700  -82.963100
  H    -112.726000   58.426400  -84.397200
  S    -108.438000   56.683800  -78.534000
  C    -107.881000   58.071500  -77.634000
  C    -108.863000   58.995800  -77.449200
  C    -110.094000   58.650600  -78.129800
  C    -110.006000   57.378800  -78.714700
  H    -108.832000   60.000400  -76.970900
  C    -111.265000   59.559300  -78.105100
  H    -112.130000   59.188300  -78.656500
  H    -110.944000   60.411700  -78.681200
  C    -111.810000   59.989400  -76.736500
  H    -110.954000   60.414300  -76.220200
  H    -112.148000   59.188000  -76.100200
  C    -112.913000   61.060300  -76.774600
  H    -112.548000   61.836500  -77.429100
  H    -113.189000   61.506800  -75.812800
  H    -113.743000   60.609300  -77.233700
  H    -113.116000   54.190100  -81.227500
  H    -106.940000   58.194400  -77.032200

 Total Charge           Charge          ....    0
 Multiplicity           Mult            ....    1
 Number of Electrons    NEL             ....  134
 Basis Dimension        Dim             ....  322

ORBITAL ENERGIES
----------------

  NO   OCC          E(Eh)            E(eV)
   0   2.0000     -88.969049     -2420.9709
   1   2.0000     -88.967549     -2420.9301
   2   2.0000     -10.336203      -281.2624
   3   2.0000     -10.330766      -281.1144
   4   2.0000     -10.320180      -280.8264
   5   2.0000     -10.310675      -280.5677
   6   2.0000     -10.303461      -280.3714
   7   2.0000     -10.297374      -280.2058
   8   2.0000     -10.296588      -280.1844
   9   2.0000     -10.290893      -280.0294
  10   2.0000     -10.289039      -279.9790
  11   2.0000     -10.287543      -279.9383
  12   2.0000     -10.283319      -279.8233
  13   2.0000     -10.281407      -279.7713
  14   2.0000     -10.275235      -279.6033
  15   2.0000     -10.274290      -279.5776
  16   2.0000      -8.084134      -219.9805
  17   2.0000      -8.081324      -219.9040
  18   2.0000      -6.042751      -164.4316
  19   2.0000      -6.039913      -164.3544
  20   2.0000      -6.038584      -164.3182
  21   2.0000      -6.035726      -164.2404
  22   2.0000      -6.034753      -164.2140
  23   2.0000      -6.032286      -164.1468
  24   2.0000      -1.005649       -27.3651
  25   2.0000      -0.985304       -26.8115
  26   2.0000      -0.914316       -24.8798
  27   2.0000      -0.912255       -24.8237
  28   2.0000      -0.869858       -23.6700
  29   2.0000      -0.854722       -23.2582
  30   2.0000      -0.843062       -22.9409
  31   2.0000      -0.819219       -22.2921
  32   2.0000      -0.785734       -21.3809
  33   2.0000      -0.771998       -21.0071
  34   2.0000      -0.711517       -19.3614
  35   2.0000      -0.702239       -19.1089
  36   2.0000      -0.695509       -18.9258
  37   2.0000      -0.658950       -17.9309
  38   2.0000      -0.641413       -17.4537
  39   2.0000      -0.625563       -17.0224
  40   2.0000      -0.600319       -16.3355
  41   2.0000      -0.570723       -15.5302
  42   2.0000      -0.566621       -15.4185
  43   2.0000      -0.551156       -14.9977
  44   2.0000      -0.537135       -14.6162
  45   2.0000      -0.528784       -14.3889
  46   2.0000      -0.520542       -14.1647
  47   2.0000      -0.511052       -13.9064
  48   2.0000      -0.509636       -13.8679
  49   2.0000      -0.504931       -13.7399
  50   2.0000      -0.496534       -13.5114
  51   2.0000      -0.480710       -13.0808
  52   2.0000      -0.472381       -12.8542
  53   2.0000      -0.466652       -12.6982
  54   2.0000      -0.460896       -12.5416
  55   2.0000      -0.456628       -12.4255
  56   2.0000      -0.445089       -12.1115
  57   2.0000      -0.439676       -11.9642
  58   2.0000      -0.431776       -11.7492
  59   2.0000      -0.426156       -11.5963
  60   2.0000      -0.421163       -11.4604
  61   2.0000      -0.412445       -11.2232
  62   2.0000      -0.410569       -11.1721
  63   2.0000      -0.350862        -9.5474
  64   2.0000      -0.330712        -8.9991
  65   2.0000      -0.327398        -8.9090
  66   2.0000      -0.290097        -7.8939
  67   0.0000       0.027101         0.7375
  68   0.0000       0.075785         2.0622
  69   0.0000       0.116951         3.1824
  70   0.0000       0.122680         3.3383
  71   0.0000       0.131629         3.5818

MULLIKEN ATOMIC CHARGES
-----------------------
   0 S :    0.113076
   1 C :   -0.118429
   2 C :   -0.081691
   3 C :    0.027148
   4 C :   -0.137310
   5 H :   -0.001586
   6 C :    0.113930
   7 H :   -0.013132
   8 H :    0.025070
   9 C :   -0.073979
  10 H :    0.019892
  11 H :    0.034107
  12 C :   -0.048369
  13 H :    0.035029
  14 H :    0.028441
  15 H :    0.027582
  16 S :    0.123222
  17 C :   -0.092610
  18 C :   -0.047249
  19 C :   -0.050680
  20 C :   -0.165045
  21 H :    0.036526
  22 C :    0.059628
  23 H :    0.018286
  24 H :    0.026334
  25 C :   -0.079788
  26 H :    0.008971
  27 H :    0.035062
  28 C :   -0.015550
  29 H :    0.016399
  30 H :    0.042525
  31 H :    0.020750
  32 H :    0.036549
  33 H :    0.076890
Sum of atomic charges:    0.0000000

LOEWDIN ATOMIC CHARGES
----------------------
   0 S :    0.404243
   1 C :   -0.196623
   2 C :   -0.061179
   3 C :   -0.064350
   4 C :   -0.190223
   5 H :    0.019581
   6 C :   -0.025508
   7 H :    0.014973
   8 H :    0.037681
   9 C :   -0.032281
  10 H :    0.023819
  11 H :    0.021268
  12 C :   -0.060981
  13 H :    0.020599
  14 H :    0.014363
  15 H :    0.031040
  16 S :    0.424109
  17 C :   -0.201025
  18 C :   -0.073923
  19 C :   -0.054354
  20 C :   -0.205919
  21 H :    0.038575
  22 C :   -0.037529
  23 H :    0.029535
  24 H :    0.033532
  25 C :   -0.036143
  26 H :    0.015276
  27 H :    0.024544
  28 C :   -0.056707
  29 H :    0.022135
  30 H :    0.030647
  31 H :    0.017897
  32 H :    0.026949
  33 H :    0.045980

  Mayer bond orders larger than 0.100000
B(  0-S ,  1-C ) :   1.1416 B(  0-S ,  4-C ) :   1.1621 B(  1-C ,  2-C ) :   1.5800
B(  1-C ,  4-C ) :   0.1065 B(  1-C , 32-H ) :   0.9776 B(  2-C ,  3-C ) :   1.2913
B(  2-C ,  6-C ) :   1.0119 B(  3-C ,  4-C ) :   1.5180 B(  3-C ,  5-H ) :   0.9898
B(  4-C , 20-C ) :   1.0450 B(  6-C ,  7-H ) :   0.9262 B(  6-C ,  8-H ) :   0.9267
B(  6-C ,  9-C ) :   1.0814 B(  9-C , 10-H ) :   0.9581 B(  9-C , 11-H ) :   0.9599
B(  9-C , 12-C ) :   1.0591 B( 12-C , 13-H ) :   0.9760 B( 12-C , 14-H ) :   0.9819
B( 12-C , 15-H ) :   0.9748 B( 16-S , 17-C ) :   1.1456 B( 16-S , 20-C ) :   1.1440
B( 17-C , 18-C ) :   1.6181 B( 17-C , 33-H ) :   0.9552 B( 18-C , 19-C ) :   1.2534
B( 18-C , 21-H ) :   0.9755 B( 19-C , 20-C ) :   1.5867 B( 19-C , 22-C ) :   1.0558
B( 22-C , 23-H ) :   0.9304 B( 22-C , 24-H ) :   0.9202 B( 22-C , 25-C ) :   1.0605
B( 25-C , 26-H ) :   0.9523 B( 25-C , 27-H ) :   0.9578 B( 25-C , 28-C ) :   1.0832
B( 28-C , 29-H ) :   0.9733 B( 28-C , 30-H ) :   0.9742 B( 28-C , 31-H ) :   0.9764

Dispersion correction           -0.013941348
FINAL SINGLE POINT ENERGY     -1339.867451562916

DIPOLE MOMENT
-------------
                                X             Y             Z
Electronic contribution:     17.72700     -22.48530       6.90401
Nuclear contribution   :    -18.18088      23.04630      -7.11702
                        -----------------------------------------
Total Dipole Moment    :     -0.45389       0.56100      -0.21301
                        -----------------------------------------
Magnitude (a.u.)       :      0.75240
Magnitude (Debye)      :      1.91244

Rotational constants in cm-1:     0.015483     0.009554     0.007136
Rotational constants in MHz :   464.158746   286.416395   213.937257

                             ****ORCA TERMINATED NORMALLY****
TOTAL RUN TIME: 0 days 0 hours 0 minutes 21 seconds 721 msec
