                         Program Version 4.2.1 -  RELEASE  -
|  1> ! wB97X-D3 SP def2-SVP
|  2> %pal
|  3> nprocs 24
|  4> end
|  5>
|  6> * xyz 0 1
|  7> S 	 39.9074 	 -1.92279 	 -120.153
|  8> C 	 40.7586 	 -3.48391 	 -120.198
|  9> C 	 39.9563 	 -4.57356 	 -119.865
| 10> C 	 38.5408 	 -4.13427 	 -119.504
| 11> C 	 38.3866 	 -2.75617 	 -119.659
| 12> H 	 37.6956 	 -4.74559 	 -119.238
| 13> C 	 40.284 	 -6.05361 	 -119.662
| 14> H 	 41.1958 	 -6.34298 	 -120.155
| 15> H 	 39.4581 	 -6.53345 	 -120.191
| 16> C 	 40.2729 	 -6.61802 	 -118.226
| 17> H 	 41.1362 	 -6.24165 	 -117.748
| 18> H 	 39.3328 	 -6.43678 	 -117.631
| 19> C 	 40.5161 	 -8.13872 	 -118.218
| 20> H 	 40.2487 	 -8.42854 	 -117.171
| 21> H 	 39.7085 	 -8.63545 	 -118.856
| 22> H 	 41.5531 	 -8.49699 	 -118.524
| 23> S 	 37.2975 	 -0.467351 	 -118.603
| 24> C 	 35.5379 	 -0.417433 	 -118.516
| 25> C 	 34.9175 	 -1.48409 	 -119.082
| 26> C 	 35.8487 	 -2.37913 	 -119.651
| 27> C 	 37.1577 	 -1.99851 	 -119.47
| 28> H 	 33.8818 	 -1.68085 	 -118.971
| 29> C 	 35.3383 	 -3.57199 	 -120.472
| 30> H 	 36.182 	 -4.00152 	 -121.114
| 31> H 	 34.639 	 -3.22503 	 -121.242
| 32> C 	 34.6528 	 -4.78339 	 -119.706
| 33> H 	 33.8915 	 -4.32442 	 -119.093
| 34> H 	 35.4321 	 -5.07311 	 -119.049
| 35> C 	 34.1266 	 -5.89056 	 -120.63
| 36> H 	 33.2433 	 -5.48084 	 -121.095
| 37> H 	 33.795 	 -6.79851 	 -120.169
| 38> H 	 34.93 	 -6.23234 	 -121.377
| 39> H 	 41.7513 	 -3.7658 	 -120.555
| 40> H 	 35.0491 	 0.174893 	 -117.779
| 41> *
| 42>
| 43>                          ****END OF INPUT****

CARTESIAN COORDINATES (ANGSTROEM)
---------------------------------
  S     39.907400   -1.922790  -120.153000
  C     40.758600   -3.483910  -120.198000
  C     39.956300   -4.573560  -119.865000
  C     38.540800   -4.134270  -119.504000
  C     38.386600   -2.756170  -119.659000
  H     37.695600   -4.745590  -119.238000
  C     40.284000   -6.053610  -119.662000
  H     41.195800   -6.342980  -120.155000
  H     39.458100   -6.533450  -120.191000
  C     40.272900   -6.618020  -118.226000
  H     41.136200   -6.241650  -117.748000
  H     39.332800   -6.436780  -117.631000
  C     40.516100   -8.138720  -118.218000
  H     40.248700   -8.428540  -117.171000
  H     39.708500   -8.635450  -118.856000
  H     41.553100   -8.496990  -118.524000
  S     37.297500   -0.467351  -118.603000
  C     35.537900   -0.417433  -118.516000
  C     34.917500   -1.484090  -119.082000
  C     35.848700   -2.379130  -119.651000
  C     37.157700   -1.998510  -119.470000
  H     33.881800   -1.680850  -118.971000
  C     35.338300   -3.571990  -120.472000
  H     36.182000   -4.001520  -121.114000
  H     34.639000   -3.225030  -121.242000
  C     34.652800   -4.783390  -119.706000
  H     33.891500   -4.324420  -119.093000
  H     35.432100   -5.073110  -119.049000
  C     34.126600   -5.890560  -120.630000
  H     33.243300   -5.480840  -121.095000
  H     33.795000   -6.798510  -120.169000
  H     34.930000   -6.232340  -121.377000
  H     41.751300   -3.765800  -120.555000
  H     35.049100    0.174893  -117.779000

 Total Charge           Charge          ....    0
 Multiplicity           Mult            ....    1
 Number of Electrons    NEL             ....  134
 Basis Dimension        Dim             ....  322

ORBITAL ENERGIES
----------------

  NO   OCC          E(Eh)            E(eV)
   0   2.0000     -88.968707     -2420.9616
   1   2.0000     -88.967522     -2420.9294
   2   2.0000     -10.335735      -281.2497
   3   2.0000     -10.328396      -281.0499
   4   2.0000     -10.318682      -280.7856
   5   2.0000     -10.314633      -280.6754
   6   2.0000     -10.311727      -280.5964
   7   2.0000     -10.303788      -280.3803
   8   2.0000     -10.301673      -280.3228
   9   2.0000     -10.299044      -280.2512
  10   2.0000     -10.295100      -280.1439
  11   2.0000     -10.293018      -280.0872
  12   2.0000     -10.290968      -280.0315
  13   2.0000     -10.290543      -280.0199
  14   2.0000     -10.290399      -280.0160
  15   2.0000     -10.287493      -279.9369
  16   2.0000      -8.082246      -219.9291
  17   2.0000      -8.081928      -219.9204
  18   2.0000      -6.040865      -164.3803
  19   2.0000      -6.040687      -164.3754
  20   2.0000      -6.036970      -164.2743
  21   2.0000      -6.036858      -164.2712
  22   2.0000      -6.032851      -164.1622
  23   2.0000      -6.032114      -164.1422
  24   2.0000      -1.004653       -27.3380
  25   2.0000      -0.971660       -26.4402
  26   2.0000      -0.909959       -24.7612
  27   2.0000      -0.903548       -24.5868
  28   2.0000      -0.870970       -23.7003
  29   2.0000      -0.854962       -23.2647
  30   2.0000      -0.841589       -22.9008
  31   2.0000      -0.812795       -22.1173
  32   2.0000      -0.779605       -21.2141
  33   2.0000      -0.770469       -20.9655
  34   2.0000      -0.708301       -19.2739
  35   2.0000      -0.696283       -18.9468
  36   2.0000      -0.693340       -18.8667
  37   2.0000      -0.668814       -18.1994
  38   2.0000      -0.634717       -17.2715
  39   2.0000      -0.615657       -16.7529
  40   2.0000      -0.598865       -16.2959
  41   2.0000      -0.571767       -15.5586
  42   2.0000      -0.565753       -15.3949
  43   2.0000      -0.561054       -15.2670
  44   2.0000      -0.525732       -14.3059
  45   2.0000      -0.520744       -14.1702
  46   2.0000      -0.512131       -13.9358
  47   2.0000      -0.507427       -13.8078
  48   2.0000      -0.504218       -13.7205
  49   2.0000      -0.497894       -13.5484
  50   2.0000      -0.492445       -13.4001
  51   2.0000      -0.475506       -12.9392
  52   2.0000      -0.473445       -12.8831
  53   2.0000      -0.462163       -12.5761
  54   2.0000      -0.459119       -12.4933
  55   2.0000      -0.451886       -12.2965
  56   2.0000      -0.443306       -12.0630
  57   2.0000      -0.436810       -11.8862
  58   2.0000      -0.428267       -11.6537
  59   2.0000      -0.426759       -11.6127
  60   2.0000      -0.422919       -11.5082
  61   2.0000      -0.421627       -11.4730
  62   2.0000      -0.416149       -11.3240
  63   2.0000      -0.356534        -9.7018
  64   2.0000      -0.335992        -9.1428
  65   2.0000      -0.324087        -8.8189
  66   2.0000      -0.288045        -7.8381
  67   0.0000       0.025588         0.6963
  68   0.0000       0.070368         1.9148
  69   0.0000       0.095207         2.5907
  70   0.0000       0.112962         3.0739
  71   0.0000       0.124710         3.3935

MULLIKEN ATOMIC CHARGES
-----------------------
   0 S :    0.096682
   1 C :   -0.094305
   2 C :   -0.100058
   3 C :    0.010367
   4 C :   -0.123995
   5 H :    0.002727
   6 C :    0.063733
   7 H :    0.014193
   8 H :    0.023595
   9 C :   -0.061644
  10 H :    0.026640
  11 H :    0.046723
  12 C :   -0.103577
  13 H :    0.041737
  14 H :    0.033506
  15 H :    0.055432
  16 S :    0.095863
  17 C :   -0.067889
  18 C :   -0.019745
  19 C :   -0.025365
  20 C :   -0.123839
  21 H :    0.013634
  22 C :   -0.032972
  23 H :    0.037394
  24 H :    0.031253
  25 C :   -0.042111
  26 H :    0.020844
  27 H :    0.013687
  28 C :   -0.042110
  29 H :    0.033504
  30 H :    0.033414
  31 H :    0.045672
  32 H :    0.044704
  33 H :    0.052306
Sum of atomic charges:   -0.0000000

LOEWDIN ATOMIC CHARGES
----------------------
   0 S :    0.362525
   1 C :   -0.202303
   2 C :   -0.051225
   3 C :   -0.059577
   4 C :   -0.167884
   5 H :    0.026964
   6 C :   -0.036382
   7 H :    0.025912
   8 H :    0.031580
   9 C :   -0.039208
  10 H :    0.020909
  11 H :    0.033408
  12 C :   -0.076888
  13 H :    0.031659
  14 H :    0.026613
  15 H :    0.031644
  16 S :    0.391837
  17 C :   -0.170425
  18 C :   -0.060066
  19 C :   -0.059708
  20 C :   -0.187925
  21 H :    0.029731
  22 C :   -0.038848
  23 H :    0.033535
  24 H :    0.028140
  25 C :   -0.037059
  26 H :    0.020117
  27 H :    0.012054
  28 C :   -0.066296
  29 H :    0.027245
  30 H :    0.024238
  31 H :    0.037432
  32 H :    0.034804
  33 H :    0.023446

  Mayer bond orders larger than 0.100000
B(  0-S ,  1-C ) :   1.0904 B(  0-S ,  4-C ) :   1.1095 B(  1-C ,  2-C ) :   1.7020
B(  1-C , 32-H ) :   0.9565 B(  2-C ,  3-C ) :   1.1467 B(  2-C ,  6-C ) :   1.0322
B(  3-C ,  4-C ) :   1.6409 B(  3-C ,  5-H ) :   0.9862 B(  4-C , 20-C ) :   1.0441
B(  6-C ,  7-H ) :   0.9432 B(  6-C ,  8-H ) :   0.9336 B(  6-C ,  9-C ) :   1.0653
B(  9-C , 10-H ) :   0.9537 B(  9-C , 11-H ) :   0.9555 B(  9-C , 12-C ) :   1.0752
B( 12-C , 13-H ) :   0.9752 B( 12-C , 14-H ) :   0.9742 B( 12-C , 15-H ) :   0.9740
B( 16-S , 17-C ) :   1.1429 B( 16-S , 20-C ) :   1.1271 B( 17-C , 18-C ) :   1.6338
B( 17-C , 33-H ) :   0.9630 B( 18-C , 19-C ) :   1.2299 B( 18-C , 21-H ) :   0.9944
B( 19-C , 20-C ) :   1.6266 B( 19-C , 22-C ) :   1.0272 B( 22-C , 23-H ) :   0.9414
B( 22-C , 24-H ) :   0.9456 B( 22-C , 25-C ) :   1.0405 B( 25-C , 26-H ) :   0.9553
B( 25-C , 27-H ) :   0.9563 B( 25-C , 28-C ) :   1.0754 B( 28-C , 29-H ) :   0.9745
B( 28-C , 30-H ) :   0.9751 B( 28-C , 31-H ) :   0.9737

Dispersion correction           -0.013829486
FINAL SINGLE POINT ENERGY     -1339.864727727260

DIPOLE MOMENT
-------------
                                X             Y             Z
Electronic contribution:      7.07421      32.34244      -0.09019
Nuclear contribution   :     -7.49265     -33.14511       0.26040
                        -----------------------------------------
Total Dipole Moment    :     -0.41844      -0.80267       0.17021
                        -----------------------------------------
Magnitude (a.u.)       :      0.92106
Magnitude (Debye)      :      2.34114

Rotational constants in cm-1:     0.015641     0.009217     0.006494
Rotational constants in MHz :   468.914759   276.329514   194.670613

                             ****ORCA TERMINATED NORMALLY****
TOTAL RUN TIME: 0 days 0 hours 0 minutes 22 seconds 457 msec
