                         Program Version 4.2.1 -  RELEASE  -
|  1> ! wB97X-D3 SP def2-SVP
|  2> %pal
|  3> nprocs 24
|  4> end
|  5>
|  6> * xyz 0 1
|  7> S 	 -95.7781 	 43.1822 	 -91.507
|  8> C 	 -94.8731 	 41.8089 	 -90.8407
|  9> C 	 -95.5017 	 41.2822 	 -89.7568
| 10> C 	 -96.6918 	 42.009 	 -89.404
| 11> C 	 -97.0242 	 43.0748 	 -90.2427
| 12> H 	 -97.2291 	 41.7166 	 -88.5679
| 13> C 	 -95.0313 	 40.0532 	 -89.0131
| 14> H 	 -95.3639 	 40.2475 	 -87.9583
| 15> H 	 -93.9863 	 40.0133 	 -88.8335
| 16> C 	 -95.5657 	 38.7018 	 -89.4521
| 17> H 	 -96.6452 	 38.5779 	 -89.2771
| 18> H 	 -95.4527 	 38.7441 	 -90.5636
| 19> C 	 -94.7245 	 37.4542 	 -89.0514
| 20> H 	 -93.6898 	 37.5899 	 -89.4313
| 21> H 	 -94.6918 	 37.2356 	 -87.9713
| 22> H 	 -95.0338 	 36.52 	 -89.5655
| 23> S 	 -98.9385 	 43.9216 	 -88.4525
| 24> C 	 -100.099 	 45.1161 	 -89.0682
| 25> C 	 -99.7954 	 45.5381 	 -90.3348
| 26> C 	 -98.7151 	 44.8506 	 -90.9584
| 27> C 	 -98.1768 	 43.9429 	 -90.0527
| 28> H 	 -100.385 	 46.3824 	 -90.6884
| 29> C 	 -98.3274 	 45.2219 	 -92.3847
| 30> H 	 -97.2006 	 45.2473 	 -92.491
| 31> H 	 -98.8263 	 46.1548 	 -92.6051
| 32> C 	 -99.0151 	 44.4573 	 -93.5597
| 33> H 	 -100.11 	 44.3092 	 -93.5645
| 34> H 	 -98.5636 	 43.4956 	 -93.535
| 35> C 	 -98.5827 	 44.9592 	 -94.9658
| 36> H 	 -99.1523 	 44.5393 	 -95.8339
| 37> H 	 -97.5548 	 44.8407 	 -95.048
| 38> H 	 -98.817 	 46.058 	 -94.9209
| 39> H 	 -94.0235 	 41.4035 	 -91.3996
| 40> H 	 -100.87 	 45.6039 	 -88.5443
| 41> *
| 42>
| 43>                          ****END OF INPUT****

CARTESIAN COORDINATES (ANGSTROEM)
---------------------------------
  S    -95.778100   43.182200  -91.507000
  C    -94.873100   41.808900  -90.840700
  C    -95.501700   41.282200  -89.756800
  C    -96.691800   42.009000  -89.404000
  C    -97.024200   43.074800  -90.242700
  H    -97.229100   41.716600  -88.567900
  C    -95.031300   40.053200  -89.013100
  H    -95.363900   40.247500  -87.958300
  H    -93.986300   40.013300  -88.833500
  C    -95.565700   38.701800  -89.452100
  H    -96.645200   38.577900  -89.277100
  H    -95.452700   38.744100  -90.563600
  C    -94.724500   37.454200  -89.051400
  H    -93.689800   37.589900  -89.431300
  H    -94.691800   37.235600  -87.971300
  H    -95.033800   36.520000  -89.565500
  S    -98.938500   43.921600  -88.452500
  C    -100.099000   45.116100  -89.068200
  C    -99.795400   45.538100  -90.334800
  C    -98.715100   44.850600  -90.958400
  C    -98.176800   43.942900  -90.052700
  H    -100.385000   46.382400  -90.688400
  C    -98.327400   45.221900  -92.384700
  H    -97.200600   45.247300  -92.491000
  H    -98.826300   46.154800  -92.605100
  C    -99.015100   44.457300  -93.559700
  H    -100.110000   44.309200  -93.564500
  H    -98.563600   43.495600  -93.535000
  C    -98.582700   44.959200  -94.965800
  H    -99.152300   44.539300  -95.833900
  H    -97.554800   44.840700  -95.048000
  H    -98.817000   46.058000  -94.920900
  H    -94.023500   41.403500  -91.399600
  H    -100.870000   45.603900  -88.544300

 Total Charge           Charge          ....    0
 Multiplicity           Mult            ....    1
 Number of Electrons    NEL             ....  134
 Basis Dimension        Dim             ....  322

ORBITAL ENERGIES
----------------

  NO   OCC          E(Eh)            E(eV)
   0   2.0000     -88.972524     -2421.0655
   1   2.0000     -88.967783     -2420.9365
   2   2.0000     -10.335582      -281.2455
   3   2.0000     -10.333132      -281.1788
   4   2.0000     -10.315665      -280.7035
   5   2.0000     -10.314492      -280.6716
   6   2.0000     -10.307617      -280.4845
   7   2.0000     -10.302500      -280.3453
   8   2.0000     -10.300962      -280.3034
   9   2.0000     -10.292638      -280.0769
  10   2.0000     -10.291933      -280.0577
  11   2.0000     -10.291042      -280.0335
  12   2.0000     -10.289738      -279.9980
  13   2.0000     -10.287044      -279.9247
  14   2.0000     -10.284023      -279.8425
  15   2.0000     -10.278790      -279.7001
  16   2.0000      -8.086132      -220.0348
  17   2.0000      -8.081212      -219.9010
  18   2.0000      -6.044765      -164.4864
  19   2.0000      -6.041106      -164.3869
  20   2.0000      -6.040014      -164.3571
  21   2.0000      -6.036530      -164.2623
  22   2.0000      -6.035821      -164.2430
  23   2.0000      -6.031860      -164.1353
  24   2.0000      -1.004316       -27.3288
  25   2.0000      -0.981617       -26.7112
  26   2.0000      -0.909792       -24.7567
  27   2.0000      -0.907545       -24.6956
  28   2.0000      -0.871084       -23.7034
  29   2.0000      -0.855294       -23.2737
  30   2.0000      -0.843562       -22.9545
  31   2.0000      -0.812827       -22.1181
  32   2.0000      -0.784050       -21.3351
  33   2.0000      -0.773163       -21.0388
  34   2.0000      -0.709350       -19.3024
  35   2.0000      -0.699746       -19.0411
  36   2.0000      -0.689695       -18.7676
  37   2.0000      -0.669340       -18.2137
  38   2.0000      -0.640081       -17.4175
  39   2.0000      -0.618195       -16.8219
  40   2.0000      -0.596134       -16.2216
  41   2.0000      -0.574189       -15.6245
  42   2.0000      -0.566989       -15.4286
  43   2.0000      -0.556140       -15.1333
  44   2.0000      -0.528555       -14.3827
  45   2.0000      -0.519440       -14.1347
  46   2.0000      -0.517682       -14.0868
  47   2.0000      -0.512715       -13.9517
  48   2.0000      -0.507078       -13.7983
  49   2.0000      -0.503568       -13.7028
  50   2.0000      -0.482151       -13.1200
  51   2.0000      -0.477946       -13.0056
  52   2.0000      -0.472882       -12.8678
  53   2.0000      -0.466170       -12.6851
  54   2.0000      -0.459078       -12.4921
  55   2.0000      -0.451177       -12.2772
  56   2.0000      -0.447331       -12.1725
  57   2.0000      -0.441419       -12.0116
  58   2.0000      -0.433572       -11.7981
  59   2.0000      -0.429326       -11.6826
  60   2.0000      -0.423208       -11.5161
  61   2.0000      -0.402985       -10.9658
  62   2.0000      -0.399364       -10.8672
  63   2.0000      -0.363220        -9.8837
  64   2.0000      -0.336720        -9.1626
  65   2.0000      -0.331384        -9.0174
  66   2.0000      -0.281986        -7.6732
  67   0.0000       0.015847         0.4312
  68   0.0000       0.086810         2.3622
  69   0.0000       0.098270         2.6741
  70   0.0000       0.110591         3.0093
  71   0.0000       0.131870         3.5884

MULLIKEN ATOMIC CHARGES
-----------------------
   0 S :    0.072486
   1 C :   -0.135486
   2 C :   -0.062454
   3 C :   -0.000840
   4 C :   -0.082461
   5 H :   -0.015661
   6 C :    0.071081
   7 H :    0.016886
   8 H :    0.012452
   9 C :   -0.069607
  10 H :    0.038578
  11 H :    0.027576
  12 C :   -0.073239
  13 H :    0.030913
  14 H :    0.041934
  15 H :    0.040107
  16 S :    0.103390
  17 C :   -0.060502
  18 C :   -0.046610
  19 C :   -0.039540
  20 C :   -0.122858
  21 H :    0.021722
  22 C :    0.036213
  23 H :    0.057569
  24 H :    0.014783
  25 C :   -0.072171
  26 H :    0.042239
  27 H :    0.016931
  28 C :   -0.052441
  29 H :    0.051750
  30 H :    0.024363
  31 H :    0.020585
  32 H :    0.059086
  33 H :    0.033226
Sum of atomic charges:   -0.0000000

LOEWDIN ATOMIC CHARGES
----------------------
   0 S :    0.382161
   1 C :   -0.185337
   2 C :   -0.061629
   3 C :   -0.067556
   4 C :   -0.172295
   5 H :    0.011859
   6 C :   -0.037828
   7 H :    0.034032
   8 H :    0.026356
   9 C :   -0.046037
  10 H :    0.026390
  11 H :    0.028921
  12 C :   -0.072737
  13 H :    0.027482
  14 H :    0.024252
  15 H :    0.031527
  16 S :    0.393477
  17 C :   -0.171359
  18 C :   -0.064737
  19 C :   -0.057323
  20 C :   -0.177438
  21 H :    0.034486
  22 C :   -0.036143
  23 H :    0.032592
  24 H :    0.031683
  25 C :   -0.041788
  26 H :    0.028778
  27 H :    0.014300
  28 C :   -0.062589
  29 H :    0.035119
  30 H :    0.014470
  31 H :    0.023278
  32 H :    0.032193
  33 H :    0.021438

  Mayer bond orders larger than 0.100000
B(  0-S ,  1-C ) :   1.1183 B(  0-S ,  4-C ) :   1.1257 B(  1-C ,  2-C ) :   1.6210
B(  1-C , 32-H ) :   0.9680 B(  2-C ,  3-C ) :   1.2587 B(  2-C ,  6-C ) :   1.0264
B(  3-C ,  4-C ) :   1.5304 B(  3-C ,  5-H ) :   0.9952 B(  4-C , 20-C ) :   1.1248
B(  6-C ,  7-H ) :   0.9287 B(  6-C ,  8-H ) :   0.9432 B(  6-C ,  9-C ) :   1.0531
B(  9-C , 10-H ) :   0.9561 B(  9-C , 11-H ) :   0.9580 B(  9-C , 12-C ) :   1.0760
B( 12-C , 13-H ) :   0.9732 B( 12-C , 14-H ) :   0.9781 B( 12-C , 15-H ) :   0.9749
B( 16-S , 17-C ) :   1.1171 B( 16-S , 20-C ) :   1.1306 B( 17-C , 18-C ) :   1.6725
B( 17-C , 33-H ) :   0.9670 B( 18-C , 19-C ) :   1.2173 B( 18-C , 21-H ) :   0.9820
B( 19-C , 20-C ) :   1.5810 B( 19-C , 22-C ) :   1.0449 B( 22-C , 23-H ) :   0.9314
B( 22-C , 24-H ) :   0.9293 B( 22-C , 25-C ) :   1.0448 B( 25-C , 26-H ) :   0.9605
B( 25-C , 27-H ) :   0.9537 B( 25-C , 28-C ) :   1.0744 B( 28-C , 29-H ) :   0.9737
B( 28-C , 30-H ) :   0.9779 B( 28-C , 31-H ) :   0.9763

Dispersion correction           -0.013405906
FINAL SINGLE POINT ENERGY     -1339.867227190080

DIPOLE MOMENT
-------------
                                X             Y             Z
Electronic contribution:     -3.56784      12.75081      10.75271
Nuclear contribution   :      3.50448     -12.89634     -10.85931
                        -----------------------------------------
Total Dipole Moment    :     -0.06336      -0.14553      -0.10660
                        -----------------------------------------
Magnitude (a.u.)       :      0.19120
Magnitude (Debye)      :      0.48598

Rotational constants in cm-1:     0.019967     0.007586     0.006007
Rotational constants in MHz :   598.584363   227.408543   180.080670

                             ****ORCA TERMINATED NORMALLY****
TOTAL RUN TIME: 0 days 0 hours 0 minutes 20 seconds 743 msec
