                         Program Version 4.2.1 -  RELEASE  -
|  1> ! wB97X-D3 SP def2-SVP
|  2> %pal
|  3> nprocs 24
|  4> end
|  5>
|  6> * xyz 0 1
|  7> S 	 -56.2577 	 0.335784 	 -23.5548
|  8> C 	 -55.027 	 -0.814449 	 -23.9122
|  9> C 	 -55.4728 	 -2.08472 	 -23.6548
| 10> C 	 -56.7234 	 -2.08604 	 -22.9557
| 11> C 	 -57.2748 	 -0.820945 	 -22.7486
| 12> H 	 -57.2172 	 -2.96629 	 -22.5671
| 13> C 	 -54.6998 	 -3.39144 	 -23.942
| 14> H 	 -54.3575 	 -3.26966 	 -24.9657
| 15> H 	 -55.2412 	 -4.29648 	 -24.0507
| 16> C 	 -53.5489 	 -3.70229 	 -23.0666
| 17> H 	 -53.1206 	 -4.67074 	 -23.2788
| 18> H 	 -52.7595 	 -2.98949 	 -23.2432
| 19> C 	 -53.8472 	 -3.79547 	 -21.6162
| 20> H 	 -54.58 	 -4.59391 	 -21.5557
| 21> H 	 -52.9856 	 -4.16178 	 -21.0072
| 22> H 	 -54.3177 	 -2.86713 	 -21.2153
| 23> S 	 -59.74 	 0.257992 	 -23.4126
| 24> C 	 -60.8235 	 0.647042 	 -22.1145
| 25> C 	 -60.4348 	 -0.0934811 	 -20.9973
| 26> C 	 -59.2168 	 -0.725311 	 -21.011
| 27> C 	 -58.5496 	 -0.401562 	 -22.186
| 28> H 	 -60.9963 	 -0.0841253 	 -20.1448
| 29> C 	 -58.6509 	 -1.49736 	 -19.8831
| 30> H 	 -57.7424 	 -2.0014 	 -20.2901
| 31> H 	 -59.2751 	 -2.33228 	 -19.6757
| 32> C 	 -58.3711 	 -0.713137 	 -18.5952
| 33> H 	 -59.4141 	 -0.571068 	 -18.2242
| 34> H 	 -57.9295 	 0.268756 	 -18.8747
| 35> C 	 -57.5387 	 -1.53273 	 -17.5829
| 36> H 	 -57.3245 	 -1.13239 	 -16.6276
| 37> H 	 -56.568 	 -1.54327 	 -17.9965
| 38> H 	 -57.7655 	 -2.56849 	 -17.4752
| 39> H 	 -54.0182 	 -0.611399 	 -24.0886
| 40> H 	 -61.7124 	 1.19074 	 -22.2021
| 41> *
| 42>
| 43>                          ****END OF INPUT****

CARTESIAN COORDINATES (ANGSTROEM)
---------------------------------
  S    -56.257700    0.335784  -23.554800
  C    -55.027000   -0.814449  -23.912200
  C    -55.472800   -2.084720  -23.654800
  C    -56.723400   -2.086040  -22.955700
  C    -57.274800   -0.820945  -22.748600
  H    -57.217200   -2.966290  -22.567100
  C    -54.699800   -3.391440  -23.942000
  H    -54.357500   -3.269660  -24.965700
  H    -55.241200   -4.296480  -24.050700
  C    -53.548900   -3.702290  -23.066600
  H    -53.120600   -4.670740  -23.278800
  H    -52.759500   -2.989490  -23.243200
  C    -53.847200   -3.795470  -21.616200
  H    -54.580000   -4.593910  -21.555700
  H    -52.985600   -4.161780  -21.007200
  H    -54.317700   -2.867130  -21.215300
  S    -59.740000    0.257992  -23.412600
  C    -60.823500    0.647042  -22.114500
  C    -60.434800   -0.093481  -20.997300
  C    -59.216800   -0.725311  -21.011000
  C    -58.549600   -0.401562  -22.186000
  H    -60.996300   -0.084125  -20.144800
  C    -58.650900   -1.497360  -19.883100
  H    -57.742400   -2.001400  -20.290100
  H    -59.275100   -2.332280  -19.675700
  C    -58.371100   -0.713137  -18.595200
  H    -59.414100   -0.571068  -18.224200
  H    -57.929500    0.268756  -18.874700
  C    -57.538700   -1.532730  -17.582900
  H    -57.324500   -1.132390  -16.627600
  H    -56.568000   -1.543270  -17.996500
  H    -57.765500   -2.568490  -17.475200
  H    -54.018200   -0.611399  -24.088600
  H    -61.712400    1.190740  -22.202100

 Total Charge           Charge          ....    0
 Multiplicity           Mult            ....    1
 Number of Electrons    NEL             ....  134
 Basis Dimension        Dim             ....  322

ORBITAL ENERGIES
----------------

  NO   OCC          E(Eh)            E(eV)
   0   2.0000     -88.963892     -2420.8306
   1   2.0000     -88.962835     -2420.8018
   2   2.0000     -10.329391      -281.0770
   3   2.0000     -10.328374      -281.0493
   4   2.0000     -10.313114      -280.6341
   5   2.0000     -10.309402      -280.5331
   6   2.0000     -10.303668      -280.3771
   7   2.0000     -10.297582      -280.2115
   8   2.0000     -10.295963      -280.1674
   9   2.0000     -10.295113      -280.1443
  10   2.0000     -10.288714      -279.9701
  11   2.0000     -10.286730      -279.9161
  12   2.0000     -10.280795      -279.7547
  13   2.0000     -10.276212      -279.6299
  14   2.0000     -10.275867      -279.6206
  15   2.0000     -10.270973      -279.4874
  16   2.0000      -8.079422      -219.8522
  17   2.0000      -8.076853      -219.7824
  18   2.0000      -6.037871      -164.2988
  19   2.0000      -6.035311      -164.2292
  20   2.0000      -6.033636      -164.1836
  21   2.0000      -6.031754      -164.1324
  22   2.0000      -6.030349      -164.0941
  23   2.0000      -6.027399      -164.0139
  24   2.0000      -1.008427       -27.4407
  25   2.0000      -0.987866       -26.8812
  26   2.0000      -0.922913       -25.1137
  27   2.0000      -0.913061       -24.8456
  28   2.0000      -0.871186       -23.7062
  29   2.0000      -0.856217       -23.2988
  30   2.0000      -0.845090       -22.9961
  31   2.0000      -0.811934       -22.0938
  32   2.0000      -0.790770       -21.5179
  33   2.0000      -0.780108       -21.2278
  34   2.0000      -0.710122       -19.3234
  35   2.0000      -0.703809       -19.1516
  36   2.0000      -0.694924       -18.9098
  37   2.0000      -0.665100       -18.0983
  38   2.0000      -0.645274       -17.5588
  39   2.0000      -0.613866       -16.7041
  40   2.0000      -0.603031       -16.4093
  41   2.0000      -0.585278       -15.9262
  42   2.0000      -0.566707       -15.4209
  43   2.0000      -0.558289       -15.1918
  44   2.0000      -0.550066       -14.9681
  45   2.0000      -0.527477       -14.3534
  46   2.0000      -0.517272       -14.0757
  47   2.0000      -0.511925       -13.9302
  48   2.0000      -0.509399       -13.8615
  49   2.0000      -0.498963       -13.5775
  50   2.0000      -0.496531       -13.5113
  51   2.0000      -0.477046       -12.9811
  52   2.0000      -0.474267       -12.9055
  53   2.0000      -0.464575       -12.6417
  54   2.0000      -0.457474       -12.4485
  55   2.0000      -0.450168       -12.2497
  56   2.0000      -0.443298       -12.0628
  57   2.0000      -0.442378       -12.0377
  58   2.0000      -0.434338       -11.8189
  59   2.0000      -0.426423       -11.6036
  60   2.0000      -0.415548       -11.3076
  61   2.0000      -0.411410       -11.1950
  62   2.0000      -0.409754       -11.1500
  63   2.0000      -0.340196        -9.2572
  64   2.0000      -0.334818        -9.1109
  65   2.0000      -0.327182        -8.9031
  66   2.0000      -0.290990        -7.9183
  67   0.0000       0.024132         0.6567
  68   0.0000       0.056557         1.5390
  69   0.0000       0.103113         2.8058
  70   0.0000       0.119927         3.2634
  71   0.0000       0.131249         3.5715

MULLIKEN ATOMIC CHARGES
-----------------------
   0 S :    0.118635
   1 C :   -0.086794
   2 C :   -0.112415
   3 C :    0.052890
   4 C :   -0.193876
   5 H :    0.009696
   6 C :    0.090623
   7 H :    0.023068
   8 H :    0.010575
   9 C :   -0.048159
  10 H :    0.016861
  11 H :    0.013383
  12 C :   -0.066707
  13 H :    0.008804
  14 H :    0.041840
  15 H :    0.050508
  16 S :    0.092089
  17 C :   -0.050238
  18 C :   -0.022642
  19 C :    0.002298
  20 C :   -0.163189
  21 H :   -0.027337
  22 C :    0.075091
  23 H :    0.010384
  24 H :    0.020565
  25 C :   -0.086044
  26 H :    0.033653
  27 H :    0.050810
  28 C :    0.004597
  29 H :    0.025044
  30 H :    0.011675
  31 H :    0.021268
  32 H :    0.034619
  33 H :    0.038425
Sum of atomic charges:   -0.0000000

LOEWDIN ATOMIC CHARGES
----------------------
   0 S :    0.430193
   1 C :   -0.194516
   2 C :   -0.059836
   3 C :   -0.060461
   4 C :   -0.208390
   5 H :    0.028434
   6 C :   -0.032159
   7 H :    0.035814
   8 H :    0.026760
   9 C :   -0.046291
  10 H :    0.025420
  11 H :    0.015076
  12 C :   -0.068376
  13 H :    0.019395
  14 H :    0.031856
  15 H :    0.027953
  16 S :    0.380540
  17 C :   -0.174714
  18 C :   -0.061373
  19 C :   -0.054938
  20 C :   -0.170603
  21 H :    0.011761
  22 C :   -0.033978
  23 H :    0.030030
  24 H :    0.029369
  25 C :   -0.033525
  26 H :    0.024485
  27 H :    0.033019
  28 C :   -0.065083
  29 H :    0.023618
  30 H :    0.025831
  31 H :    0.024255
  32 H :    0.021320
  33 H :    0.019113

  Mayer bond orders larger than 0.100000
B(  0-S ,  1-C ) :   1.1569 B(  0-S ,  4-C ) :   1.1685 B(  1-C ,  2-C ) :   1.5920
B(  1-C ,  4-C ) :   0.1037 B(  1-C , 32-H ) :   0.9751 B(  2-C ,  3-C ) :   1.2583
B(  2-C ,  6-C ) :   1.0051 B(  3-C ,  4-C ) :   1.5374 B(  3-C ,  5-H ) :   0.9989
B(  4-C , 20-C ) :   1.0315 B(  6-C ,  7-H ) :   0.9327 B(  6-C ,  8-H ) :   0.9453
B(  6-C ,  9-C ) :   1.0932 B(  9-C , 10-H ) :   0.9491 B(  9-C , 11-H ) :   0.9528
B(  9-C , 12-C ) :   1.0821 B( 12-C , 13-H ) :   0.9716 B( 12-C , 14-H ) :   0.9713
B( 12-C , 15-H ) :   0.9710 B( 16-S , 17-C ) :   1.1482 B( 16-S , 20-C ) :   1.1498
B( 17-C , 18-C ) :   1.5695 B( 17-C , 20-C ) :   0.1196 B( 17-C , 33-H ) :   0.9798
B( 18-C , 19-C ) :   1.2575 B( 18-C , 21-H ) :   1.0032 B( 19-C , 20-C ) :   1.5605
B( 19-C , 22-C ) :   1.0597 B( 22-C , 23-H ) :   0.9271 B( 22-C , 24-H ) :   0.9190
B( 22-C , 25-C ) :   1.0467 B( 25-C , 26-H ) :   0.9543 B( 25-C , 27-H ) :   0.9623
B( 25-C , 28-C ) :   1.0740 B( 28-C , 29-H ) :   0.9743 B( 28-C , 30-H ) :   0.9689
B( 28-C , 31-H ) :   0.9732

Dispersion correction           -0.014320055
FINAL SINGLE POINT ENERGY     -1339.850415501131

DIPOLE MOMENT
-------------
                                X             Y             Z
Electronic contribution:    -13.46741      17.84738     -19.16158
Nuclear contribution   :     13.67192     -18.45718      19.58308
                        -----------------------------------------
Total Dipole Moment    :      0.20451      -0.60979       0.42150
                        -----------------------------------------
Magnitude (a.u.)       :      0.76898
Magnitude (Debye)      :      1.95459

Rotational constants in cm-1:     0.017387     0.009414     0.006802
Rotational constants in MHz :   521.239030   282.238070   203.910535

                             ****ORCA TERMINATED NORMALLY****
TOTAL RUN TIME: 0 days 0 hours 0 minutes 21 seconds 900 msec
