                         Program Version 4.2.1 -  RELEASE  -
|  1> ! wB97X-D3 SP def2-SVP
|  2> %pal
|  3> nprocs 24
|  4> end
|  5>
|  6> * xyz 0 1
|  7> S 	 -59.255 	 -54.0484 	 -86.81
|  8> C 	 -60.7019 	 -53.1395 	 -86.4377
|  9> C 	 -61.0886 	 -53.4165 	 -85.115
| 10> C 	 -60.3547 	 -54.556 	 -84.5707
| 11> C 	 -59.3895 	 -55.114 	 -85.4338
| 12> H 	 -60.2843 	 -54.9634 	 -83.5661
| 13> C 	 -62.1229 	 -52.6516 	 -84.3439
| 14> H 	 -62.9835 	 -53.2998 	 -84.0536
| 15> H 	 -62.5147 	 -51.83 	 -84.9119
| 16> C 	 -61.634 	 -52.1028 	 -82.9611
| 17> H 	 -61.2331 	 -52.9705 	 -82.4125
| 18> H 	 -60.738 	 -51.4295 	 -83.0661
| 19> C 	 -62.5824 	 -51.2294 	 -82.1168
| 20> H 	 -63.1552 	 -50.4485 	 -82.6763
| 21> H 	 -63.2551 	 -51.9026 	 -81.558
| 22> H 	 -62.0072 	 -50.7435 	 -81.4239
| 23> S 	 -56.7824 	 -55.8808 	 -85.7095
| 24> C 	 -56.1415 	 -57.2803 	 -84.9303
| 25> C 	 -57.1592 	 -58.1114 	 -84.4932
| 26> C 	 -58.4032 	 -57.4395 	 -84.509
| 27> C 	 -58.3659 	 -56.1691 	 -85.145
| 28> H 	 -56.9379 	 -59.0748 	 -83.9635
| 29> C 	 -59.6349 	 -58.0456 	 -83.9397
| 30> H 	 -60.3935 	 -57.225 	 -83.7359
| 31> H 	 -59.3178 	 -58.4634 	 -82.925
| 32> C 	 -60.3417 	 -59.0606 	 -84.8115
| 33> H 	 -61.0423 	 -59.7415 	 -84.2435
| 34> H 	 -59.5082 	 -59.7858 	 -85.0283
| 35> C 	 -60.8792 	 -58.5991 	 -86.1437
| 36> H 	 -61.6726 	 -59.2615 	 -86.5532
| 37> H 	 -60.1329 	 -58.4408 	 -86.9545
| 38> H 	 -61.3606 	 -57.6482 	 -85.9296
| 39> H 	 -61.1802 	 -52.4819 	 -87.1929
| 40> H 	 -55.0797 	 -57.4311 	 -84.9446
| 41> *
| 42>
| 43>                          ****END OF INPUT****

CARTESIAN COORDINATES (ANGSTROEM)
---------------------------------
  S    -59.255000  -54.048400  -86.810000
  C    -60.701900  -53.139500  -86.437700
  C    -61.088600  -53.416500  -85.115000
  C    -60.354700  -54.556000  -84.570700
  C    -59.389500  -55.114000  -85.433800
  H    -60.284300  -54.963400  -83.566100
  C    -62.122900  -52.651600  -84.343900
  H    -62.983500  -53.299800  -84.053600
  H    -62.514700  -51.830000  -84.911900
  C    -61.634000  -52.102800  -82.961100
  H    -61.233100  -52.970500  -82.412500
  H    -60.738000  -51.429500  -83.066100
  C    -62.582400  -51.229400  -82.116800
  H    -63.155200  -50.448500  -82.676300
  H    -63.255100  -51.902600  -81.558000
  H    -62.007200  -50.743500  -81.423900
  S    -56.782400  -55.880800  -85.709500
  C    -56.141500  -57.280300  -84.930300
  C    -57.159200  -58.111400  -84.493200
  C    -58.403200  -57.439500  -84.509000
  C    -58.365900  -56.169100  -85.145000
  H    -56.937900  -59.074800  -83.963500
  C    -59.634900  -58.045600  -83.939700
  H    -60.393500  -57.225000  -83.735900
  H    -59.317800  -58.463400  -82.925000
  C    -60.341700  -59.060600  -84.811500
  H    -61.042300  -59.741500  -84.243500
  H    -59.508200  -59.785800  -85.028300
  C    -60.879200  -58.599100  -86.143700
  H    -61.672600  -59.261500  -86.553200
  H    -60.132900  -58.440800  -86.954500
  H    -61.360600  -57.648200  -85.929600
  H    -61.180200  -52.481900  -87.192900
  H    -55.079700  -57.431100  -84.944600

 Total Charge           Charge          ....    0
 Multiplicity           Mult            ....    1
 Number of Electrons    NEL             ....  134
 Basis Dimension        Dim             ....  322

ORBITAL ENERGIES
----------------

  NO   OCC          E(Eh)            E(eV)
   0   2.0000     -88.966044     -2420.8891
   1   2.0000     -88.964515     -2420.8475
   2   2.0000     -10.338739      -281.3314
   3   2.0000     -10.332396      -281.1588
   4   2.0000     -10.321981      -280.8754
   5   2.0000     -10.318720      -280.7866
   6   2.0000     -10.312410      -280.6149
   7   2.0000     -10.305507      -280.4271
   8   2.0000     -10.301276      -280.3120
   9   2.0000     -10.300055      -280.2787
  10   2.0000     -10.296290      -280.1763
  11   2.0000     -10.294644      -280.1315
  12   2.0000     -10.291699      -280.0514
  13   2.0000     -10.287589      -279.9395
  14   2.0000     -10.278556      -279.6937
  15   2.0000     -10.274401      -279.5807
  16   2.0000      -8.082280      -219.9300
  17   2.0000      -8.079421      -219.8522
  18   2.0000      -6.040580      -164.3725
  19   2.0000      -6.037975      -164.3017
  20   2.0000      -6.036467      -164.2606
  21   2.0000      -6.033891      -164.1905
  22   2.0000      -6.033285      -164.1740
  23   2.0000      -6.030140      -164.0884
  24   2.0000      -1.011361       -27.5205
  25   2.0000      -0.986107       -26.8333
  26   2.0000      -0.912880       -24.8407
  27   2.0000      -0.906790       -24.6750
  28   2.0000      -0.869495       -23.6602
  29   2.0000      -0.849654       -23.1203
  30   2.0000      -0.844344       -22.9758
  31   2.0000      -0.816319       -22.2132
  32   2.0000      -0.781727       -21.2719
  33   2.0000      -0.771829       -21.0025
  34   2.0000      -0.703278       -19.1372
  35   2.0000      -0.692146       -18.8342
  36   2.0000      -0.688606       -18.7379
  37   2.0000      -0.657760       -17.8986
  38   2.0000      -0.644262       -17.5313
  39   2.0000      -0.616989       -16.7891
  40   2.0000      -0.597603       -16.2616
  41   2.0000      -0.568756       -15.4766
  42   2.0000      -0.559570       -15.2267
  43   2.0000      -0.553732       -15.0678
  44   2.0000      -0.537495       -14.6260
  45   2.0000      -0.520488       -14.1632
  46   2.0000      -0.518569       -14.1110
  47   2.0000      -0.509008       -13.8508
  48   2.0000      -0.503944       -13.7130
  49   2.0000      -0.501651       -13.6506
  50   2.0000      -0.494615       -13.4592
  51   2.0000      -0.480727       -13.0813
  52   2.0000      -0.475417       -12.9368
  53   2.0000      -0.461021       -12.5450
  54   2.0000      -0.460043       -12.5184
  55   2.0000      -0.451260       -12.2794
  56   2.0000      -0.445822       -12.1314
  57   2.0000      -0.444701       -12.1009
  58   2.0000      -0.429299       -11.6818
  59   2.0000      -0.422885       -11.5073
  60   2.0000      -0.411077       -11.1860
  61   2.0000      -0.408007       -11.1024
  62   2.0000      -0.396457       -10.7881
  63   2.0000      -0.357457        -9.7269
  64   2.0000      -0.333806        -9.0833
  65   2.0000      -0.322428        -8.7737
  66   2.0000      -0.284973        -7.7545
  67   0.0000       0.024074         0.6551
  68   0.0000       0.066756         1.8165
  69   0.0000       0.103429         2.8144
  70   0.0000       0.111551         3.0355
  71   0.0000       0.135289         3.6814

MULLIKEN ATOMIC CHARGES
-----------------------
   0 S :    0.088084
   1 C :   -0.137188
   2 C :   -0.062723
   3 C :   -0.000465
   4 C :   -0.125581
   5 H :    0.032237
   6 C :    0.095923
   7 H :    0.039125
   8 H :    0.009609
   9 C :   -0.156363
  10 H :    0.032596
  11 H :    0.032706
  12 C :   -0.005685
  13 H :    0.040231
  14 H :    0.030139
  15 H :    0.015333
  16 S :    0.103655
  17 C :   -0.099752
  18 C :   -0.031747
  19 C :   -0.063843
  20 C :   -0.141169
  21 H :    0.044533
  22 C :    0.023041
  23 H :    0.023589
  24 H :    0.039158
  25 C :   -0.082395
  26 H :    0.038033
  27 H :    0.013319
  28 C :   -0.044273
  29 H :    0.038240
  30 H :    0.051858
  31 H :    0.026679
  32 H :    0.074371
  33 H :    0.058723
Sum of atomic charges:   -0.0000000

LOEWDIN ATOMIC CHARGES
----------------------
   0 S :    0.400652
   1 C :   -0.203185
   2 C :   -0.057711
   3 C :   -0.077506
   4 C :   -0.187884
   5 H :    0.030998
   6 C :   -0.034507
   7 H :    0.036644
   8 H :    0.024081
   9 C :   -0.047137
  10 H :    0.023195
  11 H :    0.026318
  12 C :   -0.059903
  13 H :    0.032238
  14 H :    0.026419
  15 H :    0.016068
  16 S :    0.438148
  17 C :   -0.184971
  18 C :   -0.075762
  19 C :   -0.064580
  20 C :   -0.213624
  21 H :    0.043996
  22 C :   -0.045102
  23 H :    0.030226
  24 H :    0.039994
  25 C :   -0.055938
  26 H :    0.031003
  27 H :    0.023239
  28 C :   -0.071300
  29 H :    0.032644
  30 H :    0.033797
  31 H :    0.024630
  32 H :    0.040034
  33 H :    0.024785

  Mayer bond orders larger than 0.100000
B(  0-S ,  1-C ) :   1.1411 B(  0-S ,  4-C ) :   1.1633 B(  1-C ,  2-C ) :   1.5788
B(  1-C ,  4-C ) :   0.1009 B(  1-C , 32-H ) :   0.9696 B(  2-C ,  3-C ) :   1.2274
B(  2-C ,  6-C ) :   1.0493 B(  3-C ,  4-C ) :   1.5664 B(  3-C ,  5-H ) :   0.9796
B(  4-C , 20-C ) :   1.0380 B(  6-C ,  7-H ) :   0.9372 B(  6-C ,  8-H ) :   0.9403
B(  6-C ,  9-C ) :   1.0472 B(  9-C , 10-H ) :   0.9561 B(  9-C , 11-H ) :   0.9627
B(  9-C , 12-C ) :   1.0820 B( 12-C , 13-H ) :   0.9740 B( 12-C , 14-H ) :   0.9741
B( 12-C , 15-H ) :   0.9744 B( 16-S , 17-C ) :   1.1902 B( 16-S , 20-C ) :   1.1672
B( 17-C , 18-C ) :   1.5483 B( 17-C , 20-C ) :   0.1041 B( 17-C , 33-H ) :   0.9749
B( 18-C , 19-C ) :   1.2862 B( 18-C , 21-H ) :   0.9823 B( 19-C , 20-C ) :   1.5387
B( 19-C , 22-C ) :   1.0438 B( 22-C , 23-H ) :   0.9352 B( 22-C , 24-H ) :   0.9304
B( 22-C , 25-C ) :   1.0766 B( 25-C , 26-H ) :   0.9552 B( 25-C , 27-H ) :   0.9502
B( 25-C , 28-C ) :   1.0662 B( 28-C , 29-H ) :   0.9721 B( 28-C , 30-H ) :   0.9721
B( 28-C , 31-H ) :   0.9754

Dispersion correction           -0.014374231
FINAL SINGLE POINT ENERGY     -1339.867948972120

DIPOLE MOMENT
-------------
                                X             Y             Z
Electronic contribution:     20.54034       0.73454     -13.89183
Nuclear contribution   :    -20.76020      -0.78898      14.36137
                        -----------------------------------------
Total Dipole Moment    :     -0.21986      -0.05444       0.46954
                        -----------------------------------------
Magnitude (a.u.)       :      0.52132
Magnitude (Debye)      :      1.32508

Rotational constants in cm-1:     0.019780     0.007861     0.007069
Rotational constants in MHz :   592.987883   235.672026   211.929339

                             ****ORCA TERMINATED NORMALLY****
TOTAL RUN TIME: 0 days 0 hours 0 minutes 21 seconds 487 msec
