                         Program Version 4.2.1 -  RELEASE  -
|  1> ! wB97X-D3 SP def2-SVP
|  2> %pal
|  3> nprocs 24
|  4> end
|  5>
|  6> * xyz 0 1
|  7> S 	 -57.4898 	 22.2793 	 24.8229
|  8> C 	 -56.9994 	 20.6829 	 25.1753
|  9> C 	 -58.0112 	 19.769 	 24.8906
| 10> C 	 -59.0035 	 20.345 	 24.0328
| 11> C 	 -58.8807 	 21.6944 	 23.8557
| 12> H 	 -59.8274 	 19.802 	 23.5873
| 13> C 	 -57.9375 	 18.2699 	 25.2513
| 14> H 	 -57.3167 	 18.1188 	 26.148
| 15> H 	 -57.3051 	 17.8304 	 24.4699
| 16> C 	 -59.2443 	 17.5021 	 25.4234
| 17> H 	 -59.9116 	 17.9554 	 26.0937
| 18> H 	 -59.6636 	 17.5276 	 24.4687
| 19> C 	 -58.9559 	 16.0469 	 25.7612
| 20> H 	 -59.7415 	 15.2824 	 25.759
| 21> H 	 -58.2691 	 15.6088 	 25.0198
| 22> H 	 -58.6444 	 15.9793 	 26.795
| 23> S 	 -61.0673 	 23.2932 	 23.6934
| 24> C 	 -61.5351 	 24.072 	 22.2018
| 25> C 	 -60.6828 	 23.7019 	 21.1852
| 26> C 	 -59.6899 	 22.6693 	 21.5841
| 27> C 	 -59.7087 	 22.4913 	 22.9904
| 28> H 	 -60.8537 	 24.0293 	 20.2126
| 29> C 	 -58.7451 	 21.9614 	 20.5946
| 30> H 	 -59.2984 	 21.1732 	 20.1469
| 31> H 	 -57.9021 	 21.5421 	 21.0673
| 32> C 	 -58.0246 	 22.78 	 19.4322
| 33> H 	 -57.4475 	 23.4984 	 20.0488
| 34> H 	 -58.7399 	 23.414 	 18.8544
| 35> C 	 -57.2164 	 21.8151 	 18.4679
| 36> H 	 -57.8519 	 21.0256 	 18.1452
| 37> H 	 -56.4087 	 21.3205 	 19.0394
| 38> H 	 -56.7506 	 22.2226 	 17.611
| 39> H 	 -56.1049 	 20.4567 	 25.8087
| 40> H 	 -62.3389 	 24.762 	 22.0008
| 41> *
| 42>
| 43>                          ****END OF INPUT****

CARTESIAN COORDINATES (ANGSTROEM)
---------------------------------
  S    -57.489800   22.279300   24.822900
  C    -56.999400   20.682900   25.175300
  C    -58.011200   19.769000   24.890600
  C    -59.003500   20.345000   24.032800
  C    -58.880700   21.694400   23.855700
  H    -59.827400   19.802000   23.587300
  C    -57.937500   18.269900   25.251300
  H    -57.316700   18.118800   26.148000
  H    -57.305100   17.830400   24.469900
  C    -59.244300   17.502100   25.423400
  H    -59.911600   17.955400   26.093700
  H    -59.663600   17.527600   24.468700
  C    -58.955900   16.046900   25.761200
  H    -59.741500   15.282400   25.759000
  H    -58.269100   15.608800   25.019800
  H    -58.644400   15.979300   26.795000
  S    -61.067300   23.293200   23.693400
  C    -61.535100   24.072000   22.201800
  C    -60.682800   23.701900   21.185200
  C    -59.689900   22.669300   21.584100
  C    -59.708700   22.491300   22.990400
  H    -60.853700   24.029300   20.212600
  C    -58.745100   21.961400   20.594600
  H    -59.298400   21.173200   20.146900
  H    -57.902100   21.542100   21.067300
  C    -58.024600   22.780000   19.432200
  H    -57.447500   23.498400   20.048800
  H    -58.739900   23.414000   18.854400
  C    -57.216400   21.815100   18.467900
  H    -57.851900   21.025600   18.145200
  H    -56.408700   21.320500   19.039400
  H    -56.750600   22.222600   17.611000
  H    -56.104900   20.456700   25.808700
  H    -62.338900   24.762000   22.000800

 Total Charge           Charge          ....    0
 Multiplicity           Mult            ....    1
 Number of Electrons    NEL             ....  134
 Basis Dimension        Dim             ....  322

ORBITAL ENERGIES
----------------

  NO   OCC          E(Eh)            E(eV)
   0   2.0000     -88.964615     -2420.8502
   1   2.0000     -88.963490     -2420.8196
   2   2.0000     -10.326006      -280.9849
   3   2.0000     -10.325219      -280.9635
   4   2.0000     -10.315618      -280.7022
   5   2.0000     -10.315447      -280.6976
   6   2.0000     -10.313824      -280.6534
   7   2.0000     -10.302889      -280.3559
   8   2.0000     -10.297464      -280.2082
   9   2.0000     -10.294091      -280.1165
  10   2.0000     -10.293947      -280.1125
  11   2.0000     -10.292346      -280.0690
  12   2.0000     -10.288361      -279.9605
  13   2.0000     -10.280174      -279.7378
  14   2.0000     -10.279743      -279.7260
  15   2.0000     -10.279621      -279.7227
  16   2.0000      -8.079468      -219.8535
  17   2.0000      -8.078571      -219.8291
  18   2.0000      -6.037924      -164.3003
  19   2.0000      -6.037158      -164.2794
  20   2.0000      -6.034010      -164.1938
  21   2.0000      -6.032858      -164.1624
  22   2.0000      -6.030217      -164.0905
  23   2.0000      -6.029394      -164.0681
  24   2.0000      -1.004591       -27.3363
  25   2.0000      -0.981784       -26.7157
  26   2.0000      -0.913648       -24.8616
  27   2.0000      -0.896908       -24.4061
  28   2.0000      -0.874338       -23.7919
  29   2.0000      -0.848389       -23.0858
  30   2.0000      -0.840614       -22.8743
  31   2.0000      -0.816597       -22.2207
  32   2.0000      -0.780768       -21.2458
  33   2.0000      -0.768202       -20.9038
  34   2.0000      -0.715661       -19.4741
  35   2.0000      -0.701702       -19.0943
  36   2.0000      -0.690833       -18.7985
  37   2.0000      -0.653744       -17.7893
  38   2.0000      -0.642804       -17.4916
  39   2.0000      -0.621290       -16.9062
  40   2.0000      -0.594304       -16.1718
  41   2.0000      -0.579164       -15.7598
  42   2.0000      -0.565278       -15.3820
  43   2.0000      -0.561416       -15.2769
  44   2.0000      -0.521455       -14.1895
  45   2.0000      -0.519437       -14.1346
  46   2.0000      -0.517509       -14.0821
  47   2.0000      -0.506872       -13.7927
  48   2.0000      -0.502731       -13.6800
  49   2.0000      -0.500784       -13.6270
  50   2.0000      -0.495130       -13.4732
  51   2.0000      -0.475648       -12.9430
  52   2.0000      -0.469832       -12.7848
  53   2.0000      -0.462940       -12.5972
  54   2.0000      -0.461663       -12.5625
  55   2.0000      -0.455774       -12.4022
  56   2.0000      -0.449445       -12.2300
  57   2.0000      -0.438936       -11.9441
  58   2.0000      -0.424615       -11.5544
  59   2.0000      -0.423811       -11.5325
  60   2.0000      -0.420965       -11.4550
  61   2.0000      -0.419025       -11.4023
  62   2.0000      -0.413869       -11.2620
  63   2.0000      -0.338148        -9.2015
  64   2.0000      -0.328067        -8.9272
  65   2.0000      -0.317666        -8.6441
  66   2.0000      -0.304690        -8.2910
  67   0.0000       0.045842         1.2474
  68   0.0000       0.050926         1.3858
  69   0.0000       0.117337         3.1929
  70   0.0000       0.120493         3.2788
  71   0.0000       0.132143         3.5958

MULLIKEN ATOMIC CHARGES
-----------------------
   0 S :    0.122795
   1 C :   -0.142985
   2 C :   -0.066120
   3 C :    0.036431
   4 C :   -0.164771
   5 H :    0.018187
   6 C :    0.018867
   7 H :    0.015568
   8 H :    0.039787
   9 C :   -0.014358
  10 H :    0.028848
  11 H :    0.016586
  12 C :   -0.060457
  13 H :    0.025297
  14 H :    0.030270
  15 H :    0.030432
  16 S :    0.116303
  17 C :   -0.081339
  18 C :   -0.018048
  19 C :   -0.016198
  20 C :   -0.195862
  21 H :   -0.003891
  22 C :    0.072939
  23 H :    0.026104
  24 H :    0.022973
  25 C :   -0.118374
  26 H :    0.042982
  27 H :    0.034985
  28 C :   -0.029289
  29 H :    0.023781
  30 H :    0.031027
  31 H :    0.034172
  32 H :    0.068465
  33 H :    0.054892
Sum of atomic charges:    0.0000000

LOEWDIN ATOMIC CHARGES
----------------------
   0 S :    0.406770
   1 C :   -0.212722
   2 C :   -0.067351
   3 C :   -0.052634
   4 C :   -0.197201
   5 H :    0.033416
   6 C :   -0.032938
   7 H :    0.026590
   8 H :    0.035507
   9 C :   -0.033042
  10 H :    0.021397
  11 H :    0.017344
  12 C :   -0.068127
  13 H :    0.026579
  14 H :    0.029146
  15 H :    0.025058
  16 S :    0.419651
  17 C :   -0.189155
  18 C :   -0.064782
  19 C :   -0.041735
  20 C :   -0.215321
  21 H :    0.017808
  22 C :   -0.028746
  23 H :    0.025470
  24 H :    0.026537
  25 C :   -0.039416
  26 H :    0.027578
  27 H :    0.019230
  28 C :   -0.062157
  29 H :    0.022855
  30 H :    0.030435
  31 H :    0.022764
  32 H :    0.038186
  33 H :    0.033003

  Mayer bond orders larger than 0.100000
B(  0-S ,  1-C ) :   1.1625 B(  0-S ,  4-C ) :   1.1269 B(  1-C ,  2-C ) :   1.5990
B(  1-C , 32-H ) :   0.9622 B(  2-C ,  3-C ) :   1.2318 B(  2-C ,  6-C ) :   1.0128
B(  3-C ,  4-C ) :   1.5988 B(  3-C ,  5-H ) :   0.9930 B(  4-C , 20-C ) :   1.0396
B(  6-C ,  7-H ) :   0.9466 B(  6-C ,  8-H ) :   0.9408 B(  6-C ,  9-C ) :   1.0594
B(  9-C , 10-H ) :   0.9629 B(  9-C , 11-H ) :   0.9436 B(  9-C , 12-C ) :   1.0881
B( 12-C , 13-H ) :   0.9739 B( 12-C , 14-H ) :   0.9725 B( 12-C , 15-H ) :   0.9757
B( 16-S , 17-C ) :   1.1455 B( 16-S , 20-C ) :   1.1548 B( 17-C , 18-C ) :   1.6308
B( 17-C , 33-H ) :   0.9668 B( 18-C , 19-C ) :   1.2214 B( 18-C , 21-H ) :   0.9938
B( 19-C , 20-C ) :   1.5879 B( 19-C , 22-C ) :   1.0409 B( 22-C , 23-H ) :   0.9331
B( 22-C , 24-H ) :   0.9446 B( 22-C , 25-C ) :   1.0386 B( 25-C , 26-H ) :   0.9664
B( 25-C , 27-H ) :   0.9601 B( 25-C , 28-C ) :   1.0614 B( 28-C , 29-H ) :   0.9761
B( 28-C , 30-H ) :   0.9766 B( 28-C , 31-H ) :   0.9780

Dispersion correction           -0.013437902
FINAL SINGLE POINT ENERGY     -1339.863656097242

DIPOLE MOMENT
-------------
                                X             Y             Z
Electronic contribution:     -6.71544      21.35949      11.78373
Nuclear contribution   :      6.75089     -21.95963     -12.15656
                        -----------------------------------------
Total Dipole Moment    :      0.03546      -0.60013      -0.37283
                        -----------------------------------------
Magnitude (a.u.)       :      0.70740
Magnitude (Debye)      :      1.79807

Rotational constants in cm-1:     0.016757     0.007534     0.006564
Rotational constants in MHz :   502.356934   225.867521   196.793780

                             ****ORCA TERMINATED NORMALLY****
TOTAL RUN TIME: 0 days 0 hours 0 minutes 19 seconds 544 msec
