                         Program Version 4.2.1 -  RELEASE  -
|  1> ! wB97X-D3 SP def2-SVP
|  2> %pal
|  3> nprocs 24
|  4> end
|  5>
|  6> * xyz 0 1
|  7> S 	 -37.8503 	 16.5007 	 14.8915
|  8> C 	 -38.7627 	 15.3206 	 15.8038
|  9> C 	 -40.0453 	 15.723 	 16.1094
| 10> C 	 -40.3255 	 17.0956 	 15.6648
| 11> C 	 -39.1629 	 17.6485 	 15.0813
| 12> H 	 -41.2475 	 17.5402 	 15.8415
| 13> C 	 -41.0515 	 14.8688 	 16.8486
| 14> H 	 -40.6692 	 13.881 	 17.1144
| 15> H 	 -41.8303 	 14.5314 	 16.2412
| 16> C 	 -41.5256 	 15.541 	 18.1606
| 17> H 	 -40.6693 	 15.9927 	 18.6556
| 18> H 	 -42.1246 	 16.3881 	 17.8498
| 19> C 	 -42.2301 	 14.5843 	 19.1183
| 20> H 	 -43.2569 	 14.38 	 18.8782
| 21> H 	 -41.613 	 13.7266 	 19.1281
| 22> H 	 -42.1315 	 14.9437 	 20.2322
| 23> S 	 -40.3284 	 19.1992 	 13.2085
| 24> C 	 -39.8091 	 20.8541 	 12.9579
| 25> C 	 -38.5915 	 21.0665 	 13.5383
| 26> C 	 -38.1595 	 19.996 	 14.3813
| 27> C 	 -39.0607 	 18.9483 	 14.4461
| 28> H 	 -38.0604 	 22.0301 	 13.4493
| 29> C 	 -36.9041 	 20.1345 	 15.2199
| 30> H 	 -36.0945 	 20.4651 	 14.6144
| 31> H 	 -36.5982 	 19.2452 	 15.7313
| 32> C 	 -37.0519 	 21.1496 	 16.4112
| 33> H 	 -37.661 	 22.0744 	 16.1292
| 34> H 	 -36.0118 	 21.4315 	 16.6962
| 35> C 	 -37.724 	 20.5328 	 17.6606
| 36> H 	 -38.0827 	 21.3329 	 18.3172
| 37> H 	 -37.0038 	 19.9477 	 18.1652
| 38> H 	 -38.5521 	 19.8286 	 17.5023
| 39> H 	 -38.3001 	 14.3338 	 16.0987
| 40> H 	 -40.2266 	 21.4804 	 12.1726
| 41> *
| 42>
| 43>                          ****END OF INPUT****

CARTESIAN COORDINATES (ANGSTROEM)
---------------------------------
  S    -37.850300   16.500700   14.891500
  C    -38.762700   15.320600   15.803800
  C    -40.045300   15.723000   16.109400
  C    -40.325500   17.095600   15.664800
  C    -39.162900   17.648500   15.081300
  H    -41.247500   17.540200   15.841500
  C    -41.051500   14.868800   16.848600
  H    -40.669200   13.881000   17.114400
  H    -41.830300   14.531400   16.241200
  C    -41.525600   15.541000   18.160600
  H    -40.669300   15.992700   18.655600
  H    -42.124600   16.388100   17.849800
  C    -42.230100   14.584300   19.118300
  H    -43.256900   14.380000   18.878200
  H    -41.613000   13.726600   19.128100
  H    -42.131500   14.943700   20.232200
  S    -40.328400   19.199200   13.208500
  C    -39.809100   20.854100   12.957900
  C    -38.591500   21.066500   13.538300
  C    -38.159500   19.996000   14.381300
  C    -39.060700   18.948300   14.446100
  H    -38.060400   22.030100   13.449300
  C    -36.904100   20.134500   15.219900
  H    -36.094500   20.465100   14.614400
  H    -36.598200   19.245200   15.731300
  C    -37.051900   21.149600   16.411200
  H    -37.661000   22.074400   16.129200
  H    -36.011800   21.431500   16.696200
  C    -37.724000   20.532800   17.660600
  H    -38.082700   21.332900   18.317200
  H    -37.003800   19.947700   18.165200
  H    -38.552100   19.828600   17.502300
  H    -38.300100   14.333800   16.098700
  H    -40.226600   21.480400   12.172600

 Total Charge           Charge          ....    0
 Multiplicity           Mult            ....    1
 Number of Electrons    NEL             ....  134
 Basis Dimension        Dim             ....  322

ORBITAL ENERGIES
----------------

  NO   OCC          E(Eh)            E(eV)
   0   2.0000     -88.968969     -2420.9687
   1   2.0000     -88.959245     -2420.7041
   2   2.0000     -10.335990      -281.2566
   3   2.0000     -10.326690      -281.0035
   4   2.0000     -10.317356      -280.7495
   5   2.0000     -10.315509      -280.6993
   6   2.0000     -10.305054      -280.4148
   7   2.0000     -10.304223      -280.3922
   8   2.0000     -10.300373      -280.2874
   9   2.0000     -10.294348      -280.1235
  10   2.0000     -10.292964      -280.0858
  11   2.0000     -10.287446      -279.9356
  12   2.0000     -10.286874      -279.9201
  13   2.0000     -10.284853      -279.8651
  14   2.0000     -10.282728      -279.8073
  15   2.0000     -10.269225      -279.4398
  16   2.0000      -8.083500      -219.9632
  17   2.0000      -8.073722      -219.6971
  18   2.0000      -6.042000      -164.4112
  19   2.0000      -6.038078      -164.3045
  20   2.0000      -6.034243      -164.2001
  21   2.0000      -6.032233      -164.1454
  22   2.0000      -6.028371      -164.0403
  23   2.0000      -6.024363      -163.9312
  24   2.0000      -1.003391       -27.3036
  25   2.0000      -0.980324       -26.6760
  26   2.0000      -0.913130       -24.8475
  27   2.0000      -0.902089       -24.5471
  28   2.0000      -0.869207       -23.6523
  29   2.0000      -0.850011       -23.1300
  30   2.0000      -0.841274       -22.8922
  31   2.0000      -0.810640       -22.0586
  32   2.0000      -0.783238       -21.3130
  33   2.0000      -0.770817       -20.9750
  34   2.0000      -0.710799       -19.3418
  35   2.0000      -0.694539       -18.8994
  36   2.0000      -0.686725       -18.6867
  37   2.0000      -0.661359       -17.9965
  38   2.0000      -0.642124       -17.4731
  39   2.0000      -0.620364       -16.8810
  40   2.0000      -0.601040       -16.3551
  41   2.0000      -0.571048       -15.5390
  42   2.0000      -0.558680       -15.2025
  43   2.0000      -0.547725       -14.9044
  44   2.0000      -0.535974       -14.5846
  45   2.0000      -0.519848       -14.1458
  46   2.0000      -0.518422       -14.1070
  47   2.0000      -0.511400       -13.9159
  48   2.0000      -0.504039       -13.7156
  49   2.0000      -0.496343       -13.5062
  50   2.0000      -0.490956       -13.3596
  51   2.0000      -0.473463       -12.8836
  52   2.0000      -0.471298       -12.8247
  53   2.0000      -0.466437       -12.6924
  54   2.0000      -0.455196       -12.3865
  55   2.0000      -0.453632       -12.3439
  56   2.0000      -0.439658       -11.9637
  57   2.0000      -0.435256       -11.8439
  58   2.0000      -0.428822       -11.6688
  59   2.0000      -0.425697       -11.5838
  60   2.0000      -0.421191       -11.4612
  61   2.0000      -0.414018       -11.2660
  62   2.0000      -0.412167       -11.2156
  63   2.0000      -0.341631        -9.2963
  64   2.0000      -0.333152        -9.0655
  65   2.0000      -0.325656        -8.8616
  66   2.0000      -0.294691        -8.0190
  67   0.0000       0.027499         0.7483
  68   0.0000       0.072187         1.9643
  69   0.0000       0.101760         2.7690
  70   0.0000       0.117239         3.1902
  71   0.0000       0.124061         3.3759

MULLIKEN ATOMIC CHARGES
-----------------------
   0 S :    0.123379
   1 C :   -0.149295
   2 C :   -0.085275
   3 C :    0.045155
   4 C :   -0.136660
   5 H :   -0.002074
   6 C :    0.093690
   7 H :   -0.005260
   8 H :    0.020625
   9 C :   -0.095972
  10 H :    0.034165
  11 H :    0.026796
  12 C :   -0.041544
  13 H :    0.043040
  14 H :    0.017395
  15 H :    0.044560
  16 S :    0.086018
  17 C :   -0.084209
  18 C :   -0.047446
  19 C :   -0.026198
  20 C :   -0.157733
  21 H :    0.032213
  22 C :    0.102516
  23 H :    0.021194
  24 H :    0.006961
  25 C :   -0.122601
  26 H :    0.042292
  27 H :    0.035368
  28 C :   -0.044795
  29 H :    0.035441
  30 H :    0.017914
  31 H :    0.038991
  32 H :    0.067799
  33 H :    0.063550
Sum of atomic charges:    0.0000000

LOEWDIN ATOMIC CHARGES
----------------------
   0 S :    0.410162
   1 C :   -0.207744
   2 C :   -0.055694
   3 C :   -0.049014
   4 C :   -0.192690
   5 H :    0.021057
   6 C :   -0.032161
   7 H :    0.025556
   8 H :    0.024838
   9 C :   -0.040849
  10 H :    0.027671
  11 H :    0.018906
  12 C :   -0.066139
  13 H :    0.023835
  14 H :    0.018307
  15 H :    0.040940
  16 S :    0.387290
  17 C :   -0.181972
  18 C :   -0.073210
  19 C :   -0.057398
  20 C :   -0.186361
  21 H :    0.036969
  22 C :   -0.028122
  23 H :    0.027785
  24 H :    0.022065
  25 C :   -0.039968
  26 H :    0.026532
  27 H :    0.026353
  28 C :   -0.069729
  29 H :    0.028457
  30 H :    0.017189
  31 H :    0.028359
  32 H :    0.037543
  33 H :    0.031237

  Mayer bond orders larger than 0.100000
B(  0-S ,  1-C ) :   1.1270 B(  0-S ,  4-C ) :   1.1595 B(  1-C ,  2-C ) :   1.6377
B(  1-C , 32-H ) :   0.9573 B(  2-C ,  3-C ) :   1.2151 B(  2-C ,  6-C ) :   1.0367
B(  3-C ,  4-C ) :   1.5372 B(  3-C ,  5-H ) :   1.0091 B(  4-C , 20-C ) :   1.0528
B(  6-C ,  7-H ) :   0.9391 B(  6-C ,  8-H ) :   0.9306 B(  6-C ,  9-C ) :   1.0457
B(  9-C , 10-H ) :   0.9598 B(  9-C , 11-H ) :   0.9554 B(  9-C , 12-C ) :   1.0832
B( 12-C , 13-H ) :   0.9761 B( 12-C , 14-H ) :   0.9730 B( 12-C , 15-H ) :   0.9756
B( 16-S , 17-C ) :   1.1460 B( 16-S , 20-C ) :   1.1299 B( 17-C , 18-C ) :   1.6217
B( 17-C , 33-H ) :   0.9649 B( 18-C , 19-C ) :   1.2276 B( 18-C , 21-H ) :   0.9834
B( 19-C , 20-C ) :   1.5990 B( 19-C , 22-C ) :   1.0613 B( 22-C , 23-H ) :   0.9305
B( 22-C , 24-H ) :   0.9359 B( 22-C , 25-C ) :   1.0570 B( 25-C , 26-H ) :   0.9645
B( 25-C , 27-H ) :   0.9579 B( 25-C , 28-C ) :   1.0682 B( 28-C , 29-H ) :   0.9751
B( 28-C , 30-H ) :   0.9742 B( 28-C , 31-H ) :   0.9781

Dispersion correction           -0.014387306
FINAL SINGLE POINT ENERGY     -1339.877116755422

DIPOLE MOMENT
-------------
                                X             Y             Z
Electronic contribution:      3.15895       0.88703     -23.18483
Nuclear contribution   :     -3.13426      -0.91487      23.51036
                        -----------------------------------------
Total Dipole Moment    :      0.02468      -0.02784       0.32554
                        -----------------------------------------
Magnitude (a.u.)       :      0.32765
Magnitude (Debye)      :      0.83283

Rotational constants in cm-1:     0.020065     0.007788     0.007165
Rotational constants in MHz :   601.519559   233.465435   214.790447

                             ****ORCA TERMINATED NORMALLY****
TOTAL RUN TIME: 0 days 0 hours 0 minutes 22 seconds 495 msec
