                         Program Version 4.2.1 -  RELEASE  -
|  1> ! wB97X-D3 SP def2-SVP
|  2> %pal
|  3> nprocs 24
|  4> end
|  5>
|  6> * xyz 0 1
|  7> S 	 -126.74 	 60.3171 	 -55.2227
|  8> C 	 -128.082 	 61.1127 	 -56.0732
|  9> C 	 -128.082 	 62.4614 	 -55.8292
| 10> C 	 -127.07 	 62.8432 	 -54.9564
| 11> C 	 -126.231 	 61.7989 	 -54.5288
| 12> H 	 -126.781 	 63.8128 	 -54.599
| 13> C 	 -129.014 	 63.4814 	 -56.5026
| 14> H 	 -128.796 	 64.3798 	 -56.0409
| 15> H 	 -130.04 	 63.1887 	 -56.2907
| 16> C 	 -128.784 	 63.5907 	 -58.1018
| 17> H 	 -127.74 	 63.6393 	 -58.4107
| 18> H 	 -129.236 	 62.6446 	 -58.5065
| 19> C 	 -129.567 	 64.6959 	 -58.7365
| 20> H 	 -129.404 	 65.6806 	 -58.2643
| 21> H 	 -129.211 	 64.8428 	 -59.7135
| 22> H 	 -130.647 	 64.4685 	 -58.7788
| 23> S 	 -125.936 	 62.7338 	 -52.095
| 24> C 	 -124.425 	 62.578 	 -51.2386
| 25> C 	 -123.44 	 61.9356 	 -51.9693
| 26> C 	 -123.871 	 61.6826 	 -53.3267
| 27> C 	 -125.271 	 61.9081 	 -53.4417
| 28> H 	 -122.573 	 61.7757 	 -51.3865
| 29> C 	 -122.933 	 61.1878 	 -54.4332
| 30> H 	 -123.418 	 60.2823 	 -54.7451
| 31> H 	 -122.023 	 60.784 	 -53.8709
| 32> C 	 -122.675 	 62.1739 	 -55.5527
| 33> H 	 -122.112 	 63.0605 	 -55.3033
| 34> H 	 -123.641 	 62.4948 	 -55.9764
| 35> C 	 -122.027 	 61.3917 	 -56.7061
| 36> H 	 -122.758 	 60.7354 	 -57.1237
| 37> H 	 -121.093 	 60.878 	 -56.4155
| 38> H 	 -121.715 	 62.0875 	 -57.4853
| 39> H 	 -128.649 	 60.601 	 -56.8221
| 40> H 	 -124.281 	 62.7589 	 -50.1853
| 41> *
| 42>
| 43>                          ****END OF INPUT****

CARTESIAN COORDINATES (ANGSTROEM)
---------------------------------
  S    -126.740000   60.317100  -55.222700
  C    -128.082000   61.112700  -56.073200
  C    -128.082000   62.461400  -55.829200
  C    -127.070000   62.843200  -54.956400
  C    -126.231000   61.798900  -54.528800
  H    -126.781000   63.812800  -54.599000
  C    -129.014000   63.481400  -56.502600
  H    -128.796000   64.379800  -56.040900
  H    -130.040000   63.188700  -56.290700
  C    -128.784000   63.590700  -58.101800
  H    -127.740000   63.639300  -58.410700
  H    -129.236000   62.644600  -58.506500
  C    -129.567000   64.695900  -58.736500
  H    -129.404000   65.680600  -58.264300
  H    -129.211000   64.842800  -59.713500
  H    -130.647000   64.468500  -58.778800
  S    -125.936000   62.733800  -52.095000
  C    -124.425000   62.578000  -51.238600
  C    -123.440000   61.935600  -51.969300
  C    -123.871000   61.682600  -53.326700
  C    -125.271000   61.908100  -53.441700
  H    -122.573000   61.775700  -51.386500
  C    -122.933000   61.187800  -54.433200
  H    -123.418000   60.282300  -54.745100
  H    -122.023000   60.784000  -53.870900
  C    -122.675000   62.173900  -55.552700
  H    -122.112000   63.060500  -55.303300
  H    -123.641000   62.494800  -55.976400
  C    -122.027000   61.391700  -56.706100
  H    -122.758000   60.735400  -57.123700
  H    -121.093000   60.878000  -56.415500
  H    -121.715000   62.087500  -57.485300
  H    -128.649000   60.601000  -56.822100
  H    -124.281000   62.758900  -50.185300

 Total Charge           Charge          ....    0
 Multiplicity           Mult            ....    1
 Number of Electrons    NEL             ....  134
 Basis Dimension        Dim             ....  322

ORBITAL ENERGIES
----------------

  NO   OCC          E(Eh)            E(eV)
   0   2.0000     -88.965989     -2420.8876
   1   2.0000     -88.965538     -2420.8754
   2   2.0000     -10.325429      -280.9692
   3   2.0000     -10.323361      -280.9129
   4   2.0000     -10.310160      -280.5537
   5   2.0000     -10.310159      -280.5537
   6   2.0000     -10.309027      -280.5229
   7   2.0000     -10.297617      -280.2124
   8   2.0000     -10.293619      -280.1036
   9   2.0000     -10.293592      -280.1029
  10   2.0000     -10.291947      -280.0581
  11   2.0000     -10.291569      -280.0478
  12   2.0000     -10.287496      -279.9370
  13   2.0000     -10.284195      -279.8472
  14   2.0000     -10.274807      -279.5917
  15   2.0000     -10.272537      -279.5300
  16   2.0000      -8.080741      -219.8881
  17   2.0000      -8.080717      -219.8875
  18   2.0000      -6.039090      -164.3320
  19   2.0000      -6.039072      -164.3315
  20   2.0000      -6.035148      -164.2247
  21   2.0000      -6.035123      -164.2240
  22   2.0000      -6.031813      -164.1340
  23   2.0000      -6.031610      -164.1285
  24   2.0000      -1.009050       -27.4577
  25   2.0000      -0.983677       -26.7672
  26   2.0000      -0.909364       -24.7451
  27   2.0000      -0.906403       -24.6645
  28   2.0000      -0.872172       -23.7330
  29   2.0000      -0.856330       -23.3019
  30   2.0000      -0.844505       -22.9802
  31   2.0000      -0.811211       -22.0742
  32   2.0000      -0.784022       -21.3343
  33   2.0000      -0.766263       -20.8511
  34   2.0000      -0.707354       -19.2481
  35   2.0000      -0.699483       -19.0339
  36   2.0000      -0.690789       -18.7973
  37   2.0000      -0.662097       -18.0166
  38   2.0000      -0.640647       -17.4329
  39   2.0000      -0.613277       -16.6881
  40   2.0000      -0.587401       -15.9840
  41   2.0000      -0.568897       -15.4805
  42   2.0000      -0.566516       -15.4157
  43   2.0000      -0.563511       -15.3339
  44   2.0000      -0.527199       -14.3458
  45   2.0000      -0.524003       -14.2588
  46   2.0000      -0.517256       -14.0753
  47   2.0000      -0.515504       -14.0276
  48   2.0000      -0.507333       -13.8052
  49   2.0000      -0.500316       -13.6143
  50   2.0000      -0.488836       -13.3019
  51   2.0000      -0.477162       -12.9842
  52   2.0000      -0.471281       -12.8242
  53   2.0000      -0.464550       -12.6410
  54   2.0000      -0.458750       -12.4832
  55   2.0000      -0.447046       -12.1647
  56   2.0000      -0.444758       -12.1025
  57   2.0000      -0.437264       -11.8985
  58   2.0000      -0.435080       -11.8391
  59   2.0000      -0.423682       -11.5290
  60   2.0000      -0.417546       -11.3620
  61   2.0000      -0.416118       -11.3231
  62   2.0000      -0.414656       -11.2834
  63   2.0000      -0.340333        -9.2609
  64   2.0000      -0.332595        -9.0504
  65   2.0000      -0.329123        -8.9559
  66   2.0000      -0.289137        -7.8678
  67   0.0000       0.031353         0.8531
  68   0.0000       0.067301         1.8313
  69   0.0000       0.109410         2.9772
  70   0.0000       0.121453         3.3049
  71   0.0000       0.130091         3.5400

MULLIKEN ATOMIC CHARGES
-----------------------
   0 S :    0.109102
   1 C :   -0.141897
   2 C :   -0.056419
   3 C :   -0.000900
   4 C :   -0.157587
   5 H :    0.005996
   6 C :    0.120746
   7 H :   -0.002058
   8 H :    0.035874
   9 C :   -0.107436
  10 H :    0.041746
  11 H :    0.031158
  12 C :   -0.028088
  13 H :    0.028077
  14 H :    0.020493
  15 H :    0.037170
  16 S :    0.121118
  17 C :   -0.105201
  18 C :   -0.030617
  19 C :   -0.041173
  20 C :   -0.162321
  21 H :    0.007193
  22 C :    0.071697
  23 H :    0.018591
  24 H :    0.026866
  25 C :   -0.049759
  26 H :    0.034551
  27 H :    0.038129
  28 C :   -0.047792
  29 H :    0.034130
  30 H :    0.030798
  31 H :    0.025148
  32 H :    0.042483
  33 H :    0.050183
Sum of atomic charges:   -0.0000000

LOEWDIN ATOMIC CHARGES
----------------------
   0 S :    0.416011
   1 C :   -0.190323
   2 C :   -0.062314
   3 C :   -0.078629
   4 C :   -0.214052
   5 H :    0.023748
   6 C :   -0.014255
   7 H :    0.014979
   8 H :    0.033928
   9 C :   -0.037492
  10 H :    0.026010
  11 H :    0.027604
  12 C :   -0.068721
  13 H :    0.025670
  14 H :    0.021269
  15 H :    0.029039
  16 S :    0.439836
  17 C :   -0.193616
  18 C :   -0.069618
  19 C :   -0.050017
  20 C :   -0.214394
  21 H :    0.029044
  22 C :   -0.036427
  23 H :    0.029040
  24 H :    0.037610
  25 C :   -0.035965
  26 H :    0.024375
  27 H :    0.032257
  28 C :   -0.062079
  29 H :    0.022740
  30 H :    0.024140
  31 H :    0.023726
  32 H :    0.021474
  33 H :    0.025401

  Mayer bond orders larger than 0.100000
B(  0-S ,  1-C ) :   1.1444 B(  0-S ,  4-C ) :   1.1813 B(  1-C ,  2-C ) :   1.5730
B(  1-C ,  4-C ) :   0.1066 B(  1-C , 32-H ) :   0.9771 B(  2-C ,  3-C ) :   1.2737
B(  2-C ,  6-C ) :   1.0116 B(  3-C ,  4-C ) :   1.5262 B(  3-C ,  5-H ) :   0.9977
B(  4-C , 20-C ) :   1.0310 B(  6-C ,  7-H ) :   0.9430 B(  6-C ,  8-H ) :   0.9398
B(  6-C ,  9-C ) :   1.0504 B(  9-C , 10-H ) :   0.9643 B(  9-C , 11-H ) :   0.9547
B(  9-C , 12-C ) :   1.0948 B( 12-C , 13-H ) :   0.9725 B( 12-C , 14-H ) :   0.9705
B( 12-C , 15-H ) :   0.9739 B( 16-S , 17-C ) :   1.1562 B( 16-S , 20-C ) :   1.1636
B( 17-C , 18-C ) :   1.6353 B( 17-C , 33-H ) :   0.9627 B( 18-C , 19-C ) :   1.2235
B( 18-C , 21-H ) :   0.9964 B( 19-C , 20-C ) :   1.5577 B( 19-C , 22-C ) :   1.0247
B( 22-C , 23-H ) :   0.9356 B( 22-C , 24-H ) :   0.9330 B( 22-C , 25-C ) :   1.0597
B( 25-C , 26-H ) :   0.9572 B( 25-C , 27-H ) :   0.9543 B( 25-C , 28-C ) :   1.0814
B( 28-C , 29-H ) :   0.9788 B( 28-C , 30-H ) :   0.9738 B( 28-C , 31-H ) :   0.9735

Dispersion correction           -0.013975603
FINAL SINGLE POINT ENERGY     -1339.870544610118

DIPOLE MOMENT
-------------
                                X             Y             Z
Electronic contribution:     -2.68633      -8.43488      21.74132
Nuclear contribution   :      2.81450       8.70951     -22.06714
                        -----------------------------------------
Total Dipole Moment    :      0.12817       0.27463      -0.32582
                        -----------------------------------------
Magnitude (a.u.)       :      0.44498
Magnitude (Debye)      :      1.13105

Rotational constants in cm-1:     0.019045     0.007968     0.006761
Rotational constants in MHz :   570.950659   238.883839   202.690637

                             ****ORCA TERMINATED NORMALLY****
TOTAL RUN TIME: 0 days 0 hours 0 minutes 21 seconds 217 msec
