                         Program Version 4.2.1 -  RELEASE  -
|  1> ! wB97X-D3 SP def2-SVP
|  2> %pal
|  3> nprocs 24
|  4> end
|  5>
|  6> * xyz 0 1
|  7> S 	 -53.2953 	 20.2358 	 -94.271
|  8> C 	 -52.0051 	 20.6132 	 -93.1995
|  9> C 	 -50.8517 	 21.0559 	 -93.8042
| 10> C 	 -50.9527 	 20.9259 	 -95.2012
| 11> C 	 -52.2037 	 20.4586 	 -95.6972
| 12> H 	 -50.1898 	 21.161 	 -95.8681
| 13> C 	 -49.5654 	 21.3251 	 -93.1092
| 14> H 	 -49.8587 	 21.0495 	 -92.0791
| 15> H 	 -49.3787 	 22.3783 	 -93.2722
| 16> C 	 -48.4229 	 20.3574 	 -93.4246
| 17> H 	 -48.041 	 20.7321 	 -94.3801
| 18> H 	 -47.6868 	 20.4879 	 -92.6426
| 19> C 	 -48.872 	 18.8421 	 -93.6403
| 20> H 	 -49.5296 	 18.8486 	 -94.5218
| 21> H 	 -48.1201 	 18.133 	 -93.8392
| 22> H 	 -49.412 	 18.4874 	 -92.7578
| 23> S 	 -54.3268 	 19.6885 	 -97.2576
| 24> C 	 -54.2596 	 19.7997 	 -99.0069
| 25> C 	 -53.033 	 20.4038 	 -99.3536
| 26> C 	 -52.1479 	 20.7821 	 -98.2585
| 27> C 	 -52.7648 	 20.4806 	 -97.0315
| 28> H 	 -52.6922 	 20.4317 	 -100.381
| 29> C 	 -50.7401 	 21.2693 	 -98.5119
| 30> H 	 -50.0888 	 20.435 	 -98.2288
| 31> H 	 -50.4606 	 22.1071 	 -97.8004
| 32> C 	 -50.3291 	 21.8378 	 -99.8782
| 33> H 	 -50.8606 	 22.8306 	 -100.051
| 34> H 	 -50.7061 	 21.1953 	 -100.683
| 35> C 	 -48.8545 	 21.9926 	 -99.9298
| 36> H 	 -48.5613 	 22.5955 	 -100.855
| 37> H 	 -48.3757 	 21.0354 	 -99.9816
| 38> H 	 -48.5374 	 22.5311 	 -99.045
| 39> H 	 -52.0882 	 20.4684 	 -92.1382
| 40> H 	 -55.0321 	 19.4027 	 -99.7038
| 41> *
| 42>
| 43>                          ****END OF INPUT****

CARTESIAN COORDINATES (ANGSTROEM)
---------------------------------
  S    -53.295300   20.235800  -94.271000
  C    -52.005100   20.613200  -93.199500
  C    -50.851700   21.055900  -93.804200
  C    -50.952700   20.925900  -95.201200
  C    -52.203700   20.458600  -95.697200
  H    -50.189800   21.161000  -95.868100
  C    -49.565400   21.325100  -93.109200
  H    -49.858700   21.049500  -92.079100
  H    -49.378700   22.378300  -93.272200
  C    -48.422900   20.357400  -93.424600
  H    -48.041000   20.732100  -94.380100
  H    -47.686800   20.487900  -92.642600
  C    -48.872000   18.842100  -93.640300
  H    -49.529600   18.848600  -94.521800
  H    -48.120100   18.133000  -93.839200
  H    -49.412000   18.487400  -92.757800
  S    -54.326800   19.688500  -97.257600
  C    -54.259600   19.799700  -99.006900
  C    -53.033000   20.403800  -99.353600
  C    -52.147900   20.782100  -98.258500
  C    -52.764800   20.480600  -97.031500
  H    -52.692200   20.431700  -100.381000
  C    -50.740100   21.269300  -98.511900
  H    -50.088800   20.435000  -98.228800
  H    -50.460600   22.107100  -97.800400
  C    -50.329100   21.837800  -99.878200
  H    -50.860600   22.830600  -100.051000
  H    -50.706100   21.195300  -100.683000
  C    -48.854500   21.992600  -99.929800
  H    -48.561300   22.595500  -100.855000
  H    -48.375700   21.035400  -99.981600
  H    -48.537400   22.531100  -99.045000
  H    -52.088200   20.468400  -92.138200
  H    -55.032100   19.402700  -99.703800

 Total Charge           Charge          ....    0
 Multiplicity           Mult            ....    1
 Number of Electrons    NEL             ....  134
 Basis Dimension        Dim             ....  322

ORBITAL ENERGIES
----------------

  NO   OCC          E(Eh)            E(eV)
   0   2.0000     -88.966787     -2420.9094
   1   2.0000     -88.964982     -2420.8602
   2   2.0000     -10.336693      -281.2757
   3   2.0000     -10.332124      -281.1514
   4   2.0000     -10.327126      -281.0154
   5   2.0000     -10.311028      -280.5773
   6   2.0000     -10.309908      -280.5469
   7   2.0000     -10.302765      -280.3525
   8   2.0000     -10.300113      -280.2803
   9   2.0000     -10.293981      -280.1135
  10   2.0000     -10.293258      -280.0938
  11   2.0000     -10.291843      -280.0553
  12   2.0000     -10.291779      -280.0536
  13   2.0000     -10.290664      -280.0232
  14   2.0000     -10.283498      -279.8282
  15   2.0000     -10.276929      -279.6495
  16   2.0000      -8.081152      -219.8993
  17   2.0000      -8.079482      -219.8539
  18   2.0000      -6.039820      -164.3518
  19   2.0000      -6.038024      -164.3030
  20   2.0000      -6.035684      -164.2393
  21   2.0000      -6.034112      -164.1965
  22   2.0000      -6.031802      -164.1337
  23   2.0000      -6.030148      -164.0887
  24   2.0000      -1.002531       -27.2803
  25   2.0000      -0.980749       -26.6875
  26   2.0000      -0.919493       -25.0207
  27   2.0000      -0.912946       -24.8425
  28   2.0000      -0.867547       -23.6071
  29   2.0000      -0.855752       -23.2862
  30   2.0000      -0.841063       -22.8865
  31   2.0000      -0.811751       -22.0889
  32   2.0000      -0.783613       -21.3232
  33   2.0000      -0.772836       -21.0299
  34   2.0000      -0.712480       -19.3876
  35   2.0000      -0.701755       -19.0957
  36   2.0000      -0.695594       -18.9281
  37   2.0000      -0.655465       -17.8361
  38   2.0000      -0.637344       -17.3430
  39   2.0000      -0.624289       -16.9878
  40   2.0000      -0.601589       -16.3701
  41   2.0000      -0.574956       -15.6454
  42   2.0000      -0.565999       -15.4016
  43   2.0000      -0.557708       -15.1760
  44   2.0000      -0.538693       -14.6586
  45   2.0000      -0.530715       -14.4415
  46   2.0000      -0.515508       -14.0277
  47   2.0000      -0.514507       -14.0004
  48   2.0000      -0.504830       -13.7371
  49   2.0000      -0.493922       -13.4403
  50   2.0000      -0.487061       -13.2536
  51   2.0000      -0.479428       -13.0459
  52   2.0000      -0.473826       -12.8935
  53   2.0000      -0.468573       -12.7505
  54   2.0000      -0.459265       -12.4972
  55   2.0000      -0.455470       -12.3940
  56   2.0000      -0.449878       -12.2418
  57   2.0000      -0.442093       -12.0300
  58   2.0000      -0.431486       -11.7413
  59   2.0000      -0.421573       -11.4716
  60   2.0000      -0.418567       -11.3898
  61   2.0000      -0.413755       -11.2588
  62   2.0000      -0.409538       -11.1441
  63   2.0000      -0.362542        -9.8653
  64   2.0000      -0.334346        -9.0980
  65   2.0000      -0.327316        -8.9067
  66   2.0000      -0.275809        -7.5052
  67   0.0000       0.012968         0.3529
  68   0.0000       0.087018         2.3679
  69   0.0000       0.092154         2.5076
  70   0.0000       0.119922         3.2632
  71   0.0000       0.129543         3.5250

MULLIKEN ATOMIC CHARGES
-----------------------
   0 S :    0.088427
   1 C :   -0.109235
   2 C :   -0.106272
   3 C :   -0.000706
   4 C :   -0.112231
   5 H :   -0.031460
   6 C :    0.088294
   7 H :    0.010742
   8 H :    0.049723
   9 C :   -0.089477
  10 H :    0.024589
  11 H :    0.039155
  12 C :   -0.030203
  13 H :    0.040502
  14 H :    0.029809
  15 H :    0.028977
  16 S :    0.087194
  17 C :   -0.102171
  18 C :   -0.044233
  19 C :   -0.043024
  20 C :   -0.097579
  21 H :    0.018037
  22 C :   -0.041057
  23 H :    0.049641
  24 H :    0.055334
  25 C :   -0.073440
  26 H :    0.044272
  27 H :    0.028472
  28 C :   -0.031986
  29 H :    0.046173
  30 H :    0.033343
  31 H :    0.025576
  32 H :    0.042207
  33 H :    0.082606
Sum of atomic charges:    0.0000000

LOEWDIN ATOMIC CHARGES
----------------------
   0 S :    0.389796
   1 C :   -0.196396
   2 C :   -0.071994
   3 C :   -0.059577
   4 C :   -0.167894
   5 H :    0.012759
   6 C :   -0.032010
   7 H :    0.031553
   8 H :    0.036523
   9 C :   -0.034736
  10 H :    0.019645
  11 H :    0.023681
  12 C :   -0.060700
  13 H :    0.032140
  14 H :    0.019483
  15 H :    0.025293
  16 S :    0.397065
  17 C :   -0.195139
  18 C :   -0.072623
  19 C :   -0.056279
  20 C :   -0.192789
  21 H :    0.026304
  22 C :   -0.044290
  23 H :    0.035458
  24 H :    0.039866
  25 C :   -0.047951
  26 H :    0.033397
  27 H :    0.019623
  28 C :   -0.061893
  29 H :    0.037585
  30 H :    0.024009
  31 H :    0.023459
  32 H :    0.022947
  33 H :    0.043687

  Mayer bond orders larger than 0.100000
B(  0-S ,  1-C ) :   1.1562 B(  0-S ,  4-C ) :   1.1297 B(  1-C ,  2-C ) :   1.5974
B(  1-C , 32-H ) :   0.9573 B(  2-C ,  3-C ) :   1.2644 B(  2-C ,  6-C ) :   1.0170
B(  3-C ,  4-C ) :   1.5319 B(  3-C ,  5-H ) :   0.9974 B(  4-C , 20-C ) :   1.1078
B(  6-C ,  7-H ) :   0.9387 B(  6-C ,  8-H ) :   0.9361 B(  6-C ,  9-C ) :   1.0601
B(  9-C , 10-H ) :   0.9545 B(  9-C , 11-H ) :   0.9624 B(  9-C , 12-C ) :   1.0734
B( 12-C , 13-H ) :   0.9652 B( 12-C , 14-H ) :   0.9769 B( 12-C , 15-H ) :   0.9772
B( 16-S , 17-C ) :   1.1505 B( 16-S , 20-C ) :   1.1312 B( 17-C , 18-C ) :   1.5831
B( 17-C , 33-H ) :   0.9647 B( 18-C , 19-C ) :   1.2687 B( 18-C , 21-H ) :   0.9833
B( 19-C , 20-C ) :   1.5632 B( 19-C , 22-C ) :   1.0364 B( 22-C , 23-H ) :   0.9282
B( 22-C , 24-H ) :   0.9275 B( 22-C , 25-C ) :   1.0637 B( 25-C , 26-H ) :   0.9526
B( 25-C , 27-H ) :   0.9445 B( 25-C , 28-C ) :   1.0892 B( 28-C , 29-H ) :   0.9693
B( 28-C , 30-H ) :   0.9735 B( 28-C , 31-H ) :   0.9705

Dispersion correction           -0.014289398
FINAL SINGLE POINT ENERGY     -1339.874469935589

DIPOLE MOMENT
-------------
                                X             Y             Z
Electronic contribution:    -28.34851      -4.37050       4.74544
Nuclear contribution   :     29.08410       4.43345      -5.05193
                        -----------------------------------------
Total Dipole Moment    :      0.73558       0.06294      -0.30649
                        -----------------------------------------
Magnitude (a.u.)       :      0.79936
Magnitude (Debye)      :      2.03182

Rotational constants in cm-1:     0.016414     0.009897     0.006690
Rotational constants in MHz :   492.092524   296.711033   200.574425

                             ****ORCA TERMINATED NORMALLY****
TOTAL RUN TIME: 0 days 0 hours 0 minutes 22 seconds 64 msec
