                         Program Version 4.2.1 -  RELEASE  -
|  1> ! wB97X-D3 SP def2-SVP
|  2> %pal
|  3> nprocs 24
|  4> end
|  5>
|  6> * xyz 0 1
|  7> S 	 -47.1788 	 9.19382 	 27.3282
|  8> C 	 -45.8145 	 10.0652 	 26.7247
|  9> C 	 -45.9838 	 10.2853 	 25.3265
| 10> C 	 -47.1908 	 9.72041 	 24.8628
| 11> C 	 -47.9831 	 9.03155 	 25.8018
| 12> H 	 -47.5104 	 9.61409 	 23.8285
| 13> C 	 -44.9465 	 10.9371 	 24.4449
| 14> H 	 -43.9759 	 10.831 	 24.9821
| 15> H 	 -45.2153 	 11.979 	 24.3063
| 16> C 	 -44.678 	 10.2678 	 23.1328
| 17> H 	 -45.6231 	 10.3068 	 22.6308
| 18> H 	 -43.9546 	 10.8809 	 22.5363
| 19> C 	 -44.2945 	 8.80017 	 23.2904
| 20> H 	 -43.4483 	 8.6647 	 24.0299
| 21> H 	 -45.0954 	 8.26338 	 23.7821
| 22> H 	 -44.1064 	 8.39653 	 22.2843
| 23> S 	 -49.0555 	 6.70578 	 24.7487
| 24> C 	 -50.772 	 6.54973 	 24.7205
| 25> C 	 -51.4398 	 7.62892 	 25.2683
| 26> C 	 -50.5489 	 8.71495 	 25.4803
| 27> C 	 -49.2078 	 8.25706 	 25.5214
| 28> H 	 -52.5764 	 7.67708 	 25.3866
| 29> C 	 -51.0778 	 10.0637 	 25.996
| 30> H 	 -52.0827 	 10.2003 	 25.6779
| 31> H 	 -50.5925 	 10.7813 	 25.3378
| 32> C 	 -50.7699 	 10.5503 	 27.4444
| 33> H 	 -50.9326 	 11.6205 	 27.4494
| 34> H 	 -49.7258 	 10.5703 	 27.5844
| 35> C 	 -51.5026 	 9.91152 	 28.6102
| 36> H 	 -51.4013 	 10.4753 	 29.5526
| 37> H 	 -51.3242 	 8.8753 	 28.8451
| 38> H 	 -52.6038 	 9.91986 	 28.2631
| 39> H 	 -45.0437 	 10.4495 	 27.3388
| 40> H 	 -51.3439 	 5.69611 	 24.4022
| 41> *
| 42>
| 43>                          ****END OF INPUT****

CARTESIAN COORDINATES (ANGSTROEM)
---------------------------------
  S    -47.178800    9.193820   27.328200
  C    -45.814500   10.065200   26.724700
  C    -45.983800   10.285300   25.326500
  C    -47.190800    9.720410   24.862800
  C    -47.983100    9.031550   25.801800
  H    -47.510400    9.614090   23.828500
  C    -44.946500   10.937100   24.444900
  H    -43.975900   10.831000   24.982100
  H    -45.215300   11.979000   24.306300
  C    -44.678000   10.267800   23.132800
  H    -45.623100   10.306800   22.630800
  H    -43.954600   10.880900   22.536300
  C    -44.294500    8.800170   23.290400
  H    -43.448300    8.664700   24.029900
  H    -45.095400    8.263380   23.782100
  H    -44.106400    8.396530   22.284300
  S    -49.055500    6.705780   24.748700
  C    -50.772000    6.549730   24.720500
  C    -51.439800    7.628920   25.268300
  C    -50.548900    8.714950   25.480300
  C    -49.207800    8.257060   25.521400
  H    -52.576400    7.677080   25.386600
  C    -51.077800   10.063700   25.996000
  H    -52.082700   10.200300   25.677900
  H    -50.592500   10.781300   25.337800
  C    -50.769900   10.550300   27.444400
  H    -50.932600   11.620500   27.449400
  H    -49.725800   10.570300   27.584400
  C    -51.502600    9.911520   28.610200
  H    -51.401300   10.475300   29.552600
  H    -51.324200    8.875300   28.845100
  H    -52.603800    9.919860   28.263100
  H    -45.043700   10.449500   27.338800
  H    -51.343900    5.696110   24.402200

 Total Charge           Charge          ....    0
 Multiplicity           Mult            ....    1
 Number of Electrons    NEL             ....  134
 Basis Dimension        Dim             ....  322

ORBITAL ENERGIES
----------------

  NO   OCC          E(Eh)            E(eV)
   0   2.0000     -88.971591     -2421.0401
   1   2.0000     -88.968271     -2420.9497
   2   2.0000     -10.329634      -281.0836
   3   2.0000     -10.328312      -281.0476
   4   2.0000     -10.316275      -280.7201
   5   2.0000     -10.314486      -280.6714
   6   2.0000     -10.307116      -280.4709
   7   2.0000     -10.303775      -280.3800
   8   2.0000     -10.297697      -280.2146
   9   2.0000     -10.293885      -280.1109
  10   2.0000     -10.289602      -279.9943
  11   2.0000     -10.288861      -279.9741
  12   2.0000     -10.282754      -279.8080
  13   2.0000     -10.279859      -279.7292
  14   2.0000     -10.278782      -279.6999
  15   2.0000     -10.277618      -279.6682
  16   2.0000      -8.086526      -220.0456
  17   2.0000      -8.082700      -219.9414
  18   2.0000      -6.044883      -164.4896
  19   2.0000      -6.041039      -164.3850
  20   2.0000      -6.041003      -164.3841
  21   2.0000      -6.037408      -164.2862
  22   2.0000      -6.036846      -164.2709
  23   2.0000      -6.034070      -164.1954
  24   2.0000      -1.007044       -27.4031
  25   2.0000      -0.987670       -26.8759
  26   2.0000      -0.918801       -25.0018
  27   2.0000      -0.902809       -24.5667
  28   2.0000      -0.866671       -23.5833
  29   2.0000      -0.850140       -23.1335
  30   2.0000      -0.842494       -22.9254
  31   2.0000      -0.811874       -22.0922
  32   2.0000      -0.784816       -21.3559
  33   2.0000      -0.772345       -21.0166
  34   2.0000      -0.711165       -19.3518
  35   2.0000      -0.695808       -18.9339
  36   2.0000      -0.688324       -18.7303
  37   2.0000      -0.655602       -17.8398
  38   2.0000      -0.638780       -17.3821
  39   2.0000      -0.619617       -16.8606
  40   2.0000      -0.592409       -16.1203
  41   2.0000      -0.568113       -15.4591
  42   2.0000      -0.561852       -15.2888
  43   2.0000      -0.546857       -14.8807
  44   2.0000      -0.540319       -14.7028
  45   2.0000      -0.536933       -14.6107
  46   2.0000      -0.518484       -14.1087
  47   2.0000      -0.508734       -13.8433
  48   2.0000      -0.500802       -13.6275
  49   2.0000      -0.489777       -13.3275
  50   2.0000      -0.482240       -13.1224
  51   2.0000      -0.481847       -13.1117
  52   2.0000      -0.478567       -13.0225
  53   2.0000      -0.467301       -12.7159
  54   2.0000      -0.459641       -12.5075
  55   2.0000      -0.442354       -12.0371
  56   2.0000      -0.441614       -12.0169
  57   2.0000      -0.438644       -11.9361
  58   2.0000      -0.435788       -11.8584
  59   2.0000      -0.421087       -11.4584
  60   2.0000      -0.415818       -11.3150
  61   2.0000      -0.410806       -11.1786
  62   2.0000      -0.407491       -11.0884
  63   2.0000      -0.337698        -9.1892
  64   2.0000      -0.330576        -8.9954
  65   2.0000      -0.315202        -8.5771
  66   2.0000      -0.309826        -8.4308
  67   0.0000       0.042582         1.1587
  68   0.0000       0.046410         1.2629
  69   0.0000       0.110958         3.0193
  70   0.0000       0.124742         3.3944
  71   0.0000       0.131912         3.5895

MULLIKEN ATOMIC CHARGES
-----------------------
   0 S :    0.125979
   1 C :   -0.116839
   2 C :   -0.113571
   3 C :    0.036298
   4 C :   -0.193084
   5 H :    0.013839
   6 C :    0.078325
   7 H :    0.019390
   8 H :    0.044763
   9 C :   -0.086802
  10 H :    0.019836
  11 H :    0.038756
  12 C :   -0.053871
  13 H :    0.030947
  14 H :    0.037938
  15 H :    0.045177
  16 S :    0.138790
  17 C :   -0.087875
  18 C :   -0.050589
  19 C :   -0.050736
  20 C :   -0.176177
  21 H :    0.048563
  22 C :    0.084120
  23 H :    0.001860
  24 H :    0.019442
  25 C :   -0.010667
  26 H :    0.014479
  27 H :    0.003618
  28 C :   -0.059363
  29 H :    0.042329
  30 H :    0.037745
  31 H :    0.024086
  32 H :    0.043087
  33 H :    0.050206
Sum of atomic charges:   -0.0000000

LOEWDIN ATOMIC CHARGES
----------------------
   0 S :    0.444194
   1 C :   -0.202339
   2 C :   -0.067502
   3 C :   -0.068780
   4 C :   -0.215989
   5 H :    0.029595
   6 C :   -0.035267
   7 H :    0.031070
   8 H :    0.033702
   9 C :   -0.047016
  10 H :    0.017377
  11 H :    0.030218
  12 C :   -0.066752
  13 H :    0.029441
  14 H :    0.026367
  15 H :    0.029997
  16 S :    0.435202
  17 C :   -0.196426
  18 C :   -0.080093
  19 C :   -0.045860
  20 C :   -0.216635
  21 H :    0.045595
  22 C :   -0.031696
  23 H :    0.022589
  24 H :    0.039023
  25 C :   -0.040593
  26 H :    0.028608
  27 H :    0.009484
  28 C :   -0.071304
  29 H :    0.030553
  30 H :    0.022277
  31 H :    0.030846
  32 H :    0.022718
  33 H :    0.027397

  Mayer bond orders larger than 0.100000
B(  0-S ,  1-C ) :   1.1858 B(  0-S ,  4-C ) :   1.1811 B(  1-C ,  2-C ) :   1.5285
B(  1-C ,  4-C ) :   0.1137 B(  1-C , 32-H ) :   0.9784 B(  2-C ,  3-C ) :   1.2899
B(  2-C ,  6-C ) :   1.0110 B(  3-C ,  4-C ) :   1.5369 B(  3-C ,  5-H ) :   0.9906
B(  4-C , 20-C ) :   1.0113 B(  6-C ,  7-H ) :   0.9456 B(  6-C ,  8-H ) :   0.9322
B(  6-C ,  9-C ) :   1.0860 B(  9-C , 10-H ) :   0.9452 B(  9-C , 11-H ) :   0.9539
B(  9-C , 12-C ) :   1.0789 B( 12-C , 13-H ) :   0.9739 B( 12-C , 14-H ) :   0.9671
B( 12-C , 15-H ) :   0.9730 B( 16-S , 17-C ) :   1.1727 B( 16-S , 20-C ) :   1.1541
B( 17-C , 18-C ) :   1.5972 B( 17-C , 20-C ) :   0.1055 B( 17-C , 33-H ) :   0.9648
B( 18-C , 19-C ) :   1.2631 B( 18-C , 21-H ) :   0.9739 B( 19-C , 20-C ) :   1.5630
B( 19-C , 22-C ) :   1.0495 B( 22-C , 23-H ) :   0.9360 B( 22-C , 24-H ) :   0.9138
B( 22-C , 25-C ) :   1.0819 B( 25-C , 26-H ) :   0.9426 B( 25-C , 27-H ) :   0.9450
B( 25-C , 28-C ) :   1.0694 B( 28-C , 29-H ) :   0.9736 B( 28-C , 30-H ) :   0.9782
B( 28-C , 31-H ) :   0.9744

Dispersion correction           -0.015359300
FINAL SINGLE POINT ENERGY     -1339.870787220876

DIPOLE MOMENT
-------------
                                X             Y             Z
Electronic contribution:     -1.77832     -11.87402       2.48608
Nuclear contribution   :      1.68481      12.21633      -2.72925
                        -----------------------------------------
Total Dipole Moment    :     -0.09351       0.34231      -0.24318
                        -----------------------------------------
Magnitude (a.u.)       :      0.43018
Magnitude (Debye)      :      1.09343

Rotational constants in cm-1:     0.020377     0.009139     0.007334
Rotational constants in MHz :   610.882523   273.980486   219.873202

                             ****ORCA TERMINATED NORMALLY****
TOTAL RUN TIME: 0 days 0 hours 0 minutes 22 seconds 183 msec
