                         Program Version 4.2.1 -  RELEASE  -
|  1> ! wB97X-D3 SP def2-SVP
|  2> %pal
|  3> nprocs 24
|  4> end
|  5>
|  6> * xyz 0 1
|  7> S 	 -65.7426 	 12.42 	 -120.632
|  8> C 	 -65.8559 	 11.9204 	 -119.009
|  9> C 	 -64.8947 	 12.4902 	 -118.244
| 10> C 	 -63.8573 	 13.1069 	 -118.989
| 11> C 	 -64.1754 	 13.2002 	 -120.308
| 12> H 	 -63.0709 	 13.6762 	 -118.511
| 13> C 	 -64.8649 	 12.2608 	 -116.728
| 14> H 	 -64.0365 	 12.9171 	 -116.375
| 15> H 	 -64.6993 	 11.1981 	 -116.384
| 16> C 	 -66.0494 	 12.8545 	 -115.883
| 17> H 	 -66.1622 	 13.9506 	 -116.089
| 18> H 	 -66.9369 	 12.313 	 -116.283
| 19> C 	 -65.9507 	 12.5583 	 -114.383
| 20> H 	 -65.0571 	 13.0818 	 -113.98
| 21> H 	 -66.7491 	 13.0385 	 -113.825
| 22> H 	 -65.8865 	 11.414 	 -114.15
| 23> S 	 -62.6459 	 13.6202 	 -122.461
| 24> C 	 -62.475 	 15.2609 	 -123.123
| 25> C 	 -63.2788 	 16.1919 	 -122.448
| 26> C 	 -64.0197 	 15.5712 	 -121.377
| 27> C 	 -63.6951 	 14.2424 	 -121.201
| 28> H 	 -63.2812 	 17.2448 	 -122.643
| 29> C 	 -64.8327 	 16.4012 	 -120.348
| 30> H 	 -65.6422 	 15.8333 	 -119.945
| 31> H 	 -65.2319 	 17.2415 	 -120.834
| 32> C 	 -63.9903 	 16.954 	 -119.208
| 33> H 	 -63.2335 	 17.6922 	 -119.575
| 34> H 	 -63.4159 	 16.1749 	 -118.671
| 35> C 	 -64.9797 	 17.5727 	 -118.179
| 36> H 	 -65.6307 	 16.9258 	 -117.534
| 37> H 	 -65.7312 	 18.1634 	 -118.56
| 38> H 	 -64.473 	 18.2542 	 -117.505
| 39> H 	 -66.6816 	 11.4801 	 -118.531
| 40> H 	 -61.8486 	 15.5256 	 -123.994
| 41> *
| 42>
| 43>                          ****END OF INPUT****

CARTESIAN COORDINATES (ANGSTROEM)
---------------------------------
  S    -65.742600   12.420000  -120.632000
  C    -65.855900   11.920400  -119.009000
  C    -64.894700   12.490200  -118.244000
  C    -63.857300   13.106900  -118.989000
  C    -64.175400   13.200200  -120.308000
  H    -63.070900   13.676200  -118.511000
  C    -64.864900   12.260800  -116.728000
  H    -64.036500   12.917100  -116.375000
  H    -64.699300   11.198100  -116.384000
  C    -66.049400   12.854500  -115.883000
  H    -66.162200   13.950600  -116.089000
  H    -66.936900   12.313000  -116.283000
  C    -65.950700   12.558300  -114.383000
  H    -65.057100   13.081800  -113.980000
  H    -66.749100   13.038500  -113.825000
  H    -65.886500   11.414000  -114.150000
  S    -62.645900   13.620200  -122.461000
  C    -62.475000   15.260900  -123.123000
  C    -63.278800   16.191900  -122.448000
  C    -64.019700   15.571200  -121.377000
  C    -63.695100   14.242400  -121.201000
  H    -63.281200   17.244800  -122.643000
  C    -64.832700   16.401200  -120.348000
  H    -65.642200   15.833300  -119.945000
  H    -65.231900   17.241500  -120.834000
  C    -63.990300   16.954000  -119.208000
  H    -63.233500   17.692200  -119.575000
  H    -63.415900   16.174900  -118.671000
  C    -64.979700   17.572700  -118.179000
  H    -65.630700   16.925800  -117.534000
  H    -65.731200   18.163400  -118.560000
  H    -64.473000   18.254200  -117.505000
  H    -66.681600   11.480100  -118.531000
  H    -61.848600   15.525600  -123.994000

 Total Charge           Charge          ....    0
 Multiplicity           Mult            ....    1
 Number of Electrons    NEL             ....  134
 Basis Dimension        Dim             ....  322

ORBITAL ENERGIES
----------------

  NO   OCC          E(Eh)            E(eV)
   0   2.0000     -88.966347     -2420.8974
   1   2.0000     -88.963560     -2420.8216
   2   2.0000     -10.325540      -280.9722
   3   2.0000     -10.322786      -280.8973
   4   2.0000     -10.321848      -280.8718
   5   2.0000     -10.305156      -280.4175
   6   2.0000     -10.304311      -280.3946
   7   2.0000     -10.298760      -280.2435
   8   2.0000     -10.297197      -280.2010
   9   2.0000     -10.295993      -280.1682
  10   2.0000     -10.295338      -280.1504
  11   2.0000     -10.294922      -280.1391
  12   2.0000     -10.294458      -280.1265
  13   2.0000     -10.291359      -280.0421
  14   2.0000     -10.286466      -279.9090
  15   2.0000     -10.275037      -279.5980
  16   2.0000      -8.081490      -219.9085
  17   2.0000      -8.077905      -219.8110
  18   2.0000      -6.039857      -164.3529
  19   2.0000      -6.036373      -164.2581
  20   2.0000      -6.036005      -164.2480
  21   2.0000      -6.032448      -164.1513
  22   2.0000      -6.032282      -164.1467
  23   2.0000      -6.028759      -164.0509
  24   2.0000      -1.010432       -27.4952
  25   2.0000      -0.982632       -26.7388
  26   2.0000      -0.908924       -24.7331
  27   2.0000      -0.904600       -24.6154
  28   2.0000      -0.870592       -23.6900
  29   2.0000      -0.852275       -23.1916
  30   2.0000      -0.845562       -23.0089
  31   2.0000      -0.814449       -22.1623
  32   2.0000      -0.781012       -21.2524
  33   2.0000      -0.767026       -20.8718
  34   2.0000      -0.708482       -19.2788
  35   2.0000      -0.698542       -19.0083
  36   2.0000      -0.689847       -18.7717
  37   2.0000      -0.665589       -18.1116
  38   2.0000      -0.644891       -17.5484
  39   2.0000      -0.617385       -16.7999
  40   2.0000      -0.593944       -16.1620
  41   2.0000      -0.570020       -15.5110
  42   2.0000      -0.565657       -15.3923
  43   2.0000      -0.560657       -15.2562
  44   2.0000      -0.523515       -14.2456
  45   2.0000      -0.517206       -14.0739
  46   2.0000      -0.513809       -13.9814
  47   2.0000      -0.511194       -13.9103
  48   2.0000      -0.502406       -13.6712
  49   2.0000      -0.499018       -13.5790
  50   2.0000      -0.492658       -13.4059
  51   2.0000      -0.475369       -12.9355
  52   2.0000      -0.471887       -12.8407
  53   2.0000      -0.464153       -12.6302
  54   2.0000      -0.460710       -12.5366
  55   2.0000      -0.452439       -12.3115
  56   2.0000      -0.448447       -12.2029
  57   2.0000      -0.438018       -11.9191
  58   2.0000      -0.435543       -11.8517
  59   2.0000      -0.425765       -11.5857
  60   2.0000      -0.423240       -11.5169
  61   2.0000      -0.414768       -11.2864
  62   2.0000      -0.403692       -10.9850
  63   2.0000      -0.341413        -9.2903
  64   2.0000      -0.331665        -9.0251
  65   2.0000      -0.318868        -8.6768
  66   2.0000      -0.309994        -8.4354
  67   0.0000       0.043985         1.1969
  68   0.0000       0.047888         1.3031
  69   0.0000       0.109172         2.9707
  70   0.0000       0.118612         3.2276
  71   0.0000       0.121021         3.2931

MULLIKEN ATOMIC CHARGES
-----------------------
   0 S :    0.123430
   1 C :   -0.068457
   2 C :   -0.117278
   3 C :    0.059400
   4 C :   -0.122395
   5 H :    0.022157
   6 C :    0.014740
   7 H :    0.014728
   8 H :    0.054912
   9 C :   -0.111091
  10 H :    0.043381
  11 H :    0.025595
  12 C :   -0.065391
  13 H :    0.029927
  14 H :    0.039470
  15 H :    0.052212
  16 S :    0.104140
  17 C :   -0.100049
  18 C :   -0.030646
  19 C :   -0.021997
  20 C :   -0.210022
  21 H :    0.015967
  22 C :    0.100726
  23 H :    0.023397
  24 H :    0.006056
  25 C :   -0.066066
  26 H :    0.037369
  27 H :    0.031442
  28 C :   -0.038687
  29 H :    0.032188
  30 H :   -0.001064
  31 H :    0.023152
  32 H :    0.030877
  33 H :    0.067876
Sum of atomic charges:    0.0000000

LOEWDIN ATOMIC CHARGES
----------------------
   0 S :    0.419980
   1 C :   -0.194493
   2 C :   -0.075621
   3 C :   -0.047592
   4 C :   -0.198889
   5 H :    0.034280
   6 C :   -0.040562
   7 H :    0.027380
   8 H :    0.037189
   9 C :   -0.049527
  10 H :    0.029091
  11 H :    0.017947
  12 C :   -0.076303
  13 H :    0.025995
  14 H :    0.027133
  15 H :    0.038260
  16 S :    0.398594
  17 C :   -0.180466
  18 C :   -0.069375
  19 C :   -0.050384
  20 C :   -0.203108
  21 H :    0.029057
  22 C :   -0.021564
  23 H :    0.028171
  24 H :    0.023091
  25 C :   -0.033300
  26 H :    0.029981
  27 H :    0.024646
  28 C :   -0.072399
  29 H :    0.032226
  30 H :    0.011456
  31 H :    0.024775
  32 H :    0.020839
  33 H :    0.033492

  Mayer bond orders larger than 0.100000
B(  0-S ,  1-C ) :   1.1518 B(  0-S ,  4-C ) :   1.1506 B(  1-C ,  2-C ) :   1.6188
B(  1-C , 32-H ) :   0.9689 B(  2-C ,  3-C ) :   1.2689 B(  2-C ,  6-C ) :   1.0105
B(  3-C ,  4-C ) :   1.5760 B(  3-C ,  5-H ) :   0.9881 B(  4-C , 20-C ) :   0.9978
B(  6-C ,  7-H ) :   0.9446 B(  6-C ,  8-H ) :   0.9498 B(  6-C ,  9-C ) :   1.0482
B(  9-C , 10-H ) :   0.9557 B(  9-C , 11-H ) :   0.9566 B(  9-C , 12-C ) :   1.0830
B( 12-C , 13-H ) :   0.9728 B( 12-C , 14-H ) :   0.9723 B( 12-C , 15-H ) :   0.9709
B( 16-S , 17-C ) :   1.1577 B( 16-S , 20-C ) :   1.1393 B( 17-C , 18-C ) :   1.6086
B( 17-C , 33-H ) :   0.9648 B( 18-C , 19-C ) :   1.2294 B( 18-C , 21-H ) :   0.9913
B( 19-C , 20-C ) :   1.6270 B( 19-C , 22-C ) :   1.0481 B( 22-C , 23-H ) :   0.9376
B( 22-C , 24-H ) :   0.9273 B( 22-C , 25-C ) :   1.0695 B( 25-C , 26-H ) :   0.9546
B( 25-C , 27-H ) :   0.9549 B( 25-C , 28-C ) :   1.0660 B( 28-C , 29-H ) :   0.9741
B( 28-C , 30-H ) :   0.9713 B( 28-C , 31-H ) :   0.9732

Dispersion correction           -0.014896862
FINAL SINGLE POINT ENERGY     -1339.865295012203

DIPOLE MOMENT
-------------
                                X             Y             Z
Electronic contribution:      7.09633     -12.29752     -29.48219
Nuclear contribution   :     -7.29149      12.87278      30.08745
                        -----------------------------------------
Total Dipole Moment    :     -0.19516       0.57526       0.60527
                        -----------------------------------------
Magnitude (a.u.)       :      0.85753
Magnitude (Debye)      :      2.17966

Rotational constants in cm-1:     0.020302     0.008657     0.006790
Rotational constants in MHz :   608.643298   259.533636   203.565691

                             ****ORCA TERMINATED NORMALLY****
TOTAL RUN TIME: 0 days 0 hours 0 minutes 22 seconds 251 msec
