                         Program Version 4.2.1 -  RELEASE  -
|  1> ! wB97X-D3 SP def2-SVP
|  2> %pal
|  3> nprocs 24
|  4> end
|  5>
|  6> * xyz 0 1
|  7> S 	 -120.861 	 47.6889 	 -34.102
|  8> C 	 -122.017 	 46.4319 	 -33.7283
|  9> C 	 -123.193 	 46.8913 	 -33.1323
| 10> C 	 -123.2 	 48.2846 	 -33.123
| 11> C 	 -122.051 	 48.8802 	 -33.6691
| 12> H 	 -123.945 	 49.0184 	 -32.8642
| 13> C 	 -124.324 	 46.0512 	 -32.6693
| 14> H 	 -123.732 	 45.1013 	 -32.6682
| 15> H 	 -125.077 	 46.1513 	 -33.4338
| 16> C 	 -124.922 	 46.3444 	 -31.3116
| 17> H 	 -125.327 	 47.2993 	 -31.2083
| 18> H 	 -125.733 	 45.6243 	 -31.2967
| 19> C 	 -124.082 	 46.1106 	 -30.0984
| 20> H 	 -124.578 	 46.6167 	 -29.2479
| 21> H 	 -123.854 	 45.0628 	 -29.899
| 22> H 	 -123.099 	 46.5973 	 -30.2117
| 23> S 	 -122.875 	 51.2359 	 -34.6826
| 24> C 	 -121.814 	 52.5376 	 -34.6294
| 25> C 	 -120.708 	 52.3434 	 -33.8648
| 26> C 	 -120.658 	 51.053 	 -33.2214
| 27> C 	 -121.749 	 50.2832 	 -33.7302
| 28> H 	 -119.991 	 53.1087 	 -33.6861
| 29> C 	 -119.521 	 50.4719 	 -32.4224
| 30> H 	 -119.929 	 49.7997 	 -31.7213
| 31> H 	 -119.126 	 51.2698 	 -31.8782
| 32> C 	 -118.413 	 49.8424 	 -33.1545
| 33> H 	 -118.658 	 48.8721 	 -33.5016
| 34> H 	 -117.462 	 49.7745 	 -32.5782
| 35> C 	 -117.823 	 50.471 	 -34.4991
| 36> H 	 -117.34 	 51.4409 	 -34.3848
| 37> H 	 -118.603 	 50.5256 	 -35.2347
| 38> H 	 -116.994 	 49.9333 	 -34.9237
| 39> H 	 -121.847 	 45.3754 	 -34.0435
| 40> H 	 -122.024 	 53.3948 	 -35.1152
| 41> *
| 42>
| 43>                          ****END OF INPUT****

CARTESIAN COORDINATES (ANGSTROEM)
---------------------------------
  S    -120.861000   47.688900  -34.102000
  C    -122.017000   46.431900  -33.728300
  C    -123.193000   46.891300  -33.132300
  C    -123.200000   48.284600  -33.123000
  C    -122.051000   48.880200  -33.669100
  H    -123.945000   49.018400  -32.864200
  C    -124.324000   46.051200  -32.669300
  H    -123.732000   45.101300  -32.668200
  H    -125.077000   46.151300  -33.433800
  C    -124.922000   46.344400  -31.311600
  H    -125.327000   47.299300  -31.208300
  H    -125.733000   45.624300  -31.296700
  C    -124.082000   46.110600  -30.098400
  H    -124.578000   46.616700  -29.247900
  H    -123.854000   45.062800  -29.899000
  H    -123.099000   46.597300  -30.211700
  S    -122.875000   51.235900  -34.682600
  C    -121.814000   52.537600  -34.629400
  C    -120.708000   52.343400  -33.864800
  C    -120.658000   51.053000  -33.221400
  C    -121.749000   50.283200  -33.730200
  H    -119.991000   53.108700  -33.686100
  C    -119.521000   50.471900  -32.422400
  H    -119.929000   49.799700  -31.721300
  H    -119.126000   51.269800  -31.878200
  C    -118.413000   49.842400  -33.154500
  H    -118.658000   48.872100  -33.501600
  H    -117.462000   49.774500  -32.578200
  C    -117.823000   50.471000  -34.499100
  H    -117.340000   51.440900  -34.384800
  H    -118.603000   50.525600  -35.234700
  H    -116.994000   49.933300  -34.923700
  H    -121.847000   45.375400  -34.043500
  H    -122.024000   53.394800  -35.115200

 Total Charge           Charge          ....    0
 Multiplicity           Mult            ....    1
 Number of Electrons    NEL             ....  134
 Basis Dimension        Dim             ....  322

ORBITAL ENERGIES
----------------

  NO   OCC          E(Eh)            E(eV)
   0   2.0000     -88.968402     -2420.9533
   1   2.0000     -88.963923     -2420.8314
   2   2.0000     -10.323211      -280.9088
   3   2.0000     -10.322721      -280.8955
   4   2.0000     -10.314617      -280.6750
   5   2.0000     -10.305157      -280.4176
   6   2.0000     -10.300561      -280.2925
   7   2.0000     -10.296768      -280.1893
   8   2.0000     -10.290329      -280.0141
   9   2.0000     -10.288779      -279.9719
  10   2.0000     -10.288306      -279.9590
  11   2.0000     -10.281194      -279.7655
  12   2.0000     -10.280385      -279.7435
  13   2.0000     -10.278320      -279.6873
  14   2.0000     -10.275212      -279.6027
  15   2.0000     -10.270405      -279.4719
  16   2.0000      -8.082791      -219.9439
  17   2.0000      -8.080156      -219.8722
  18   2.0000      -6.041136      -164.3877
  19   2.0000      -6.038344      -164.3117
  20   2.0000      -6.037368      -164.2851
  21   2.0000      -6.034500      -164.2071
  22   2.0000      -6.033717      -164.1858
  23   2.0000      -6.031138      -164.1156
  24   2.0000      -1.009572       -27.4719
  25   2.0000      -0.987522       -26.8718
  26   2.0000      -0.922114       -25.0920
  27   2.0000      -0.914955       -24.8972
  28   2.0000      -0.871520       -23.7153
  29   2.0000      -0.853712       -23.2307
  30   2.0000      -0.845438       -23.0055
  31   2.0000      -0.812855       -22.1189
  32   2.0000      -0.794139       -21.6096
  33   2.0000      -0.774812       -21.0837
  34   2.0000      -0.713379       -19.4120
  35   2.0000      -0.697852       -18.9895
  36   2.0000      -0.689211       -18.7544
  37   2.0000      -0.666882       -18.1468
  38   2.0000      -0.636969       -17.3328
  39   2.0000      -0.615363       -16.7449
  40   2.0000      -0.600322       -16.3356
  41   2.0000      -0.570129       -15.5140
  42   2.0000      -0.567085       -15.4312
  43   2.0000      -0.562294       -15.3008
  44   2.0000      -0.548740       -14.9320
  45   2.0000      -0.538036       -14.6407
  46   2.0000      -0.525007       -14.2862
  47   2.0000      -0.511536       -13.9196
  48   2.0000      -0.497673       -13.5424
  49   2.0000      -0.490070       -13.3355
  50   2.0000      -0.485701       -13.2166
  51   2.0000      -0.477663       -12.9979
  52   2.0000      -0.474220       -12.9042
  53   2.0000      -0.466728       -12.7003
  54   2.0000      -0.459492       -12.5034
  55   2.0000      -0.452508       -12.3134
  56   2.0000      -0.450777       -12.2663
  57   2.0000      -0.444983       -12.1086
  58   2.0000      -0.434407       -11.8208
  59   2.0000      -0.425318       -11.5735
  60   2.0000      -0.415051       -11.2941
  61   2.0000      -0.407237       -11.0815
  62   2.0000      -0.402321       -10.9477
  63   2.0000      -0.340965        -9.2781
  64   2.0000      -0.335167        -9.1204
  65   2.0000      -0.329919        -8.9776
  66   2.0000      -0.285052        -7.7567
  67   0.0000       0.033183         0.9030
  68   0.0000       0.065942         1.7944
  69   0.0000       0.104299         2.8381
  70   0.0000       0.119501         3.2518
  71   0.0000       0.136738         3.7208

MULLIKEN ATOMIC CHARGES
-----------------------
   0 S :    0.116741
   1 C :   -0.153958
   2 C :   -0.076063
   3 C :    0.020180
   4 C :   -0.158478
   5 H :    0.003316
   6 C :    0.086346
   7 H :    0.021137
   8 H :    0.044164
   9 C :   -0.044200
  10 H :    0.019274
  11 H :    0.025422
  12 C :   -0.060627
  13 H :    0.038189
  14 H :    0.031624
  15 H :    0.035150
  16 S :    0.120912
  17 C :   -0.031659
  18 C :   -0.025726
  19 C :   -0.077237
  20 C :   -0.204291
  21 H :    0.003998
  22 C :    0.193193
  23 H :    0.024466
  24 H :   -0.000867
  25 C :   -0.091593
  26 H :    0.024107
  27 H :    0.033951
  28 C :   -0.064276
  29 H :    0.017896
  30 H :    0.036117
  31 H :    0.023808
  32 H :    0.060904
  33 H :    0.008081
Sum of atomic charges:    0.0000000

LOEWDIN ATOMIC CHARGES
----------------------
   0 S :    0.438168
   1 C :   -0.213494
   2 C :   -0.068719
   3 C :   -0.067249
   4 C :   -0.202704
   5 H :    0.027337
   6 C :   -0.030990
   7 H :    0.039628
   8 H :    0.037263
   9 C :   -0.040948
  10 H :    0.017927
  11 H :    0.029399
  12 C :   -0.065468
  13 H :    0.032540
  14 H :    0.023891
  15 H :    0.027781
  16 S :    0.436859
  17 C :   -0.189551
  18 C :   -0.064068
  19 C :   -0.047433
  20 C :   -0.201439
  21 H :    0.025552
  22 C :   -0.030116
  23 H :    0.034464
  24 H :    0.028466
  25 C :   -0.042028
  26 H :    0.001308
  27 H :    0.031722
  28 C :   -0.067499
  29 H :    0.018559
  30 H :    0.019373
  31 H :    0.024893
  32 H :    0.032128
  33 H :    0.004450

  Mayer bond orders larger than 0.100000
B(  0-S ,  1-C ) :   1.1527 B(  0-S ,  4-C ) :   1.1586 B(  1-C ,  2-C ) :   1.5846
B(  1-C ,  4-C ) :   0.1014 B(  1-C , 32-H ) :   0.9582 B(  2-C ,  3-C ) :   1.2399
B(  2-C ,  6-C ) :   1.0007 B(  3-C ,  4-C ) :   1.5598 B(  3-C ,  5-H ) :   0.9955
B(  4-C , 20-C ) :   1.0409 B(  6-C ,  7-H ) :   0.9377 B(  6-C ,  8-H ) :   0.9304
B(  6-C ,  9-C ) :   1.0872 B(  9-C , 10-H ) :   0.9531 B(  9-C , 11-H ) :   0.9501
B(  9-C , 12-C ) :   1.0875 B( 12-C , 13-H ) :   0.9727 B( 12-C , 14-H ) :   0.9732
B( 12-C , 15-H ) :   0.9739 B( 16-S , 17-C ) :   1.1630 B( 16-S , 20-C ) :   1.1650
B( 17-C , 18-C ) :   1.5995 B( 17-C , 33-H ) :   0.9811 B( 18-C , 19-C ) :   1.2363
B( 18-C , 21-H ) :   0.9947 B( 19-C , 20-C ) :   1.5428 B( 19-C , 22-C ) :   1.0588
B( 22-C , 23-H ) :   0.9193 B( 22-C , 24-H ) :   0.9087 B( 22-C , 25-C ) :   1.0745
B( 25-C , 26-H ) :   0.9470 B( 25-C , 27-H ) :   0.9543 B( 25-C , 28-C ) :   1.0755
B( 28-C , 29-H ) :   0.9760 B( 28-C , 30-H ) :   0.9726 B( 28-C , 31-H ) :   0.9748

Dispersion correction           -0.015298161
FINAL SINGLE POINT ENERGY     -1339.856367499138

DIPOLE MOMENT
-------------
                                X             Y             Z
Electronic contribution:     -4.17437       8.09223     -12.18077
Nuclear contribution   :      4.13442      -8.13913      12.40450
                        -----------------------------------------
Total Dipole Moment    :     -0.03995      -0.04690       0.22373
                        -----------------------------------------
Magnitude (a.u.)       :      0.23206
Magnitude (Debye)      :      0.58985

Rotational constants in cm-1:     0.022093     0.008577     0.007341
Rotational constants in MHz :   662.346419   257.123307   220.088920

                             ****ORCA TERMINATED NORMALLY****
TOTAL RUN TIME: 0 days 0 hours 0 minutes 23 seconds 420 msec
