                         Program Version 4.2.1 -  RELEASE  -
|  1> ! wB97X-D3 SP def2-SVP
|  2> %pal
|  3> nprocs 24
|  4> end
|  5>
|  6> * xyz 0 1
|  7> S 	 -79.5844 	 -42.6884 	 -91.5547
|  8> C 	 -78.3654 	 -41.4903 	 -92.0288
|  9> C 	 -78.9693 	 -40.5506 	 -92.8193
| 10> C 	 -80.3813 	 -40.7448 	 -92.91
| 11> C 	 -80.8277 	 -41.7985 	 -92.2328
| 12> H 	 -81.0342 	 -40.1181 	 -93.4166
| 13> C 	 -78.3923 	 -39.3145 	 -93.4942
| 14> H 	 -77.4228 	 -38.9889 	 -93.0332
| 15> H 	 -79.1253 	 -38.5094 	 -93.2765
| 16> C 	 -78.2522 	 -39.3717 	 -95.0157
| 17> H 	 -77.3986 	 -39.9842 	 -95.2696
| 18> H 	 -79.0666 	 -39.842 	 -95.5053
| 19> C 	 -78.1178 	 -38.0004 	 -95.7286
| 20> H 	 -77.2233 	 -37.4173 	 -95.4054
| 21> H 	 -78.2447 	 -38.1883 	 -96.8118
| 22> H 	 -78.9745 	 -37.3673 	 -95.5428
| 23> S 	 -82.3636 	 -44.0802 	 -92.7369
| 24> C 	 -84.1439 	 -43.8368 	 -92.8637
| 25> C 	 -84.5188 	 -42.6147 	 -92.4873
| 26> C 	 -83.4235 	 -41.7439 	 -92.1492
| 27> C 	 -82.1771 	 -42.342 	 -92.2606
| 28> H 	 -85.5737 	 -42.4235 	 -92.4649
| 29> C 	 -83.7329 	 -40.303 	 -91.7512
| 30> H 	 -84.8264 	 -40.1948 	 -91.5989
| 31> H 	 -83.3423 	 -39.6968 	 -92.6064
| 32> C 	 -83.103 	 -39.7931 	 -90.4906
| 33> H 	 -83.5124 	 -38.8012 	 -90.3717
| 34> H 	 -81.9848 	 -39.7146 	 -90.3902
| 35> C 	 -83.6495 	 -40.5765 	 -89.2949
| 36> H 	 -83.5068 	 -39.8741 	 -88.4385
| 37> H 	 -83.1539 	 -41.5022 	 -89.1794
| 38> H 	 -84.6802 	 -40.6871 	 -89.2872
| 39> H 	 -77.276 	 -41.5459 	 -91.6956
| 40> H 	 -84.9438 	 -44.5789 	 -92.9568
| 41> *
| 42>
| 43>                          ****END OF INPUT****

CARTESIAN COORDINATES (ANGSTROEM)
---------------------------------
  S    -79.584400  -42.688400  -91.554700
  C    -78.365400  -41.490300  -92.028800
  C    -78.969300  -40.550600  -92.819300
  C    -80.381300  -40.744800  -92.910000
  C    -80.827700  -41.798500  -92.232800
  H    -81.034200  -40.118100  -93.416600
  C    -78.392300  -39.314500  -93.494200
  H    -77.422800  -38.988900  -93.033200
  H    -79.125300  -38.509400  -93.276500
  C    -78.252200  -39.371700  -95.015700
  H    -77.398600  -39.984200  -95.269600
  H    -79.066600  -39.842000  -95.505300
  C    -78.117800  -38.000400  -95.728600
  H    -77.223300  -37.417300  -95.405400
  H    -78.244700  -38.188300  -96.811800
  H    -78.974500  -37.367300  -95.542800
  S    -82.363600  -44.080200  -92.736900
  C    -84.143900  -43.836800  -92.863700
  C    -84.518800  -42.614700  -92.487300
  C    -83.423500  -41.743900  -92.149200
  C    -82.177100  -42.342000  -92.260600
  H    -85.573700  -42.423500  -92.464900
  C    -83.732900  -40.303000  -91.751200
  H    -84.826400  -40.194800  -91.598900
  H    -83.342300  -39.696800  -92.606400
  C    -83.103000  -39.793100  -90.490600
  H    -83.512400  -38.801200  -90.371700
  H    -81.984800  -39.714600  -90.390200
  C    -83.649500  -40.576500  -89.294900
  H    -83.506800  -39.874100  -88.438500
  H    -83.153900  -41.502200  -89.179400
  H    -84.680200  -40.687100  -89.287200
  H    -77.276000  -41.545900  -91.695600
  H    -84.943800  -44.578900  -92.956800

 Total Charge           Charge          ....    0
 Multiplicity           Mult            ....    1
 Number of Electrons    NEL             ....  134
 Basis Dimension        Dim             ....  322

ORBITAL ENERGIES
----------------

  NO   OCC          E(Eh)            E(eV)
   0   2.0000     -88.964074     -2420.8355
   1   2.0000     -88.962618     -2420.7959
   2   2.0000     -10.330639      -281.1110
   3   2.0000     -10.321500      -280.8623
   4   2.0000     -10.319768      -280.8152
   5   2.0000     -10.315073      -280.6874
   6   2.0000     -10.304442      -280.3981
   7   2.0000     -10.302602      -280.3480
   8   2.0000     -10.298273      -280.2302
   9   2.0000     -10.295237      -280.1476
  10   2.0000     -10.288014      -279.9511
  11   2.0000     -10.283556      -279.8298
  12   2.0000     -10.283400      -279.8255
  13   2.0000     -10.282139      -279.7912
  14   2.0000     -10.281485      -279.7734
  15   2.0000     -10.263612      -279.2871
  16   2.0000      -8.079012      -219.8411
  17   2.0000      -8.077167      -219.7909
  18   2.0000      -6.037535      -164.2897
  19   2.0000      -6.036009      -164.2481
  20   2.0000      -6.033298      -164.1744
  21   2.0000      -6.032103      -164.1419
  22   2.0000      -6.029620      -164.0743
  23   2.0000      -6.027458      -164.0155
  24   2.0000      -1.016662       -27.6648
  25   2.0000      -0.982218       -26.7275
  26   2.0000      -0.913269       -24.8513
  27   2.0000      -0.911898       -24.8140
  28   2.0000      -0.873964       -23.7818
  29   2.0000      -0.852268       -23.1914
  30   2.0000      -0.841695       -22.9037
  31   2.0000      -0.819712       -22.3055
  32   2.0000      -0.783118       -21.3097
  33   2.0000      -0.773750       -21.0548
  34   2.0000      -0.711191       -19.3525
  35   2.0000      -0.702095       -19.1050
  36   2.0000      -0.683031       -18.5862
  37   2.0000      -0.660050       -17.9609
  38   2.0000      -0.642950       -17.4956
  39   2.0000      -0.627917       -17.0865
  40   2.0000      -0.589615       -16.0442
  41   2.0000      -0.568343       -15.4654
  42   2.0000      -0.560463       -15.2510
  43   2.0000      -0.555137       -15.1060
  44   2.0000      -0.549588       -14.9550
  45   2.0000      -0.529316       -14.4034
  46   2.0000      -0.519159       -14.1270
  47   2.0000      -0.511008       -13.9052
  48   2.0000      -0.507203       -13.8017
  49   2.0000      -0.498428       -13.5629
  50   2.0000      -0.489020       -13.3069
  51   2.0000      -0.478929       -13.0323
  52   2.0000      -0.471626       -12.8336
  53   2.0000      -0.461717       -12.5640
  54   2.0000      -0.460141       -12.5211
  55   2.0000      -0.452384       -12.3100
  56   2.0000      -0.440370       -11.9831
  57   2.0000      -0.439057       -11.9473
  58   2.0000      -0.430086       -11.7032
  59   2.0000      -0.422446       -11.4953
  60   2.0000      -0.417169       -11.3517
  61   2.0000      -0.416099       -11.3226
  62   2.0000      -0.408762       -11.1230
  63   2.0000      -0.353517        -9.6197
  64   2.0000      -0.331204        -9.0125
  65   2.0000      -0.328974        -8.9518
  66   2.0000      -0.295889        -8.0516
  67   0.0000       0.031690         0.8623
  68   0.0000       0.071757         1.9526
  69   0.0000       0.103554         2.8179
  70   0.0000       0.122377         3.3300
  71   0.0000       0.133398         3.6300

MULLIKEN ATOMIC CHARGES
-----------------------
   0 S :    0.093901
   1 C :   -0.164975
   2 C :   -0.042514
   3 C :    0.032629
   4 C :   -0.120369
   5 H :   -0.026252
   6 C :    0.044903
   7 H :    0.028951
   8 H :    0.025405
   9 C :   -0.054757
  10 H :    0.027471
  11 H :    0.018248
  12 C :   -0.067964
  13 H :    0.046241
  14 H :    0.040559
  15 H :    0.019968
  16 S :    0.082480
  17 C :   -0.077375
  18 C :   -0.042119
  19 C :   -0.044478
  20 C :   -0.128926
  21 H :    0.013327
  22 C :    0.054691
  23 H :    0.026206
  24 H :    0.044166
  25 C :   -0.082480
  26 H :    0.019341
  27 H :    0.056013
  28 C :   -0.025995
  29 H :    0.024295
  30 H :    0.044566
  31 H :    0.002013
  32 H :    0.077217
  33 H :    0.055610
Sum of atomic charges:    0.0000000

LOEWDIN ATOMIC CHARGES
----------------------
   0 S :    0.421420
   1 C :   -0.200595
   2 C :   -0.060976
   3 C :   -0.058034
   4 C :   -0.212455
   5 H :    0.018908
   6 C :   -0.034182
   7 H :    0.032594
   8 H :    0.032372
   9 C :   -0.040076
  10 H :    0.024229
  11 H :    0.020190
  12 C :   -0.070017
  13 H :    0.028940
  14 H :    0.033729
  15 H :    0.019962
  16 S :    0.349424
  17 C :   -0.168905
  18 C :   -0.073198
  19 C :   -0.056238
  20 C :   -0.175070
  21 H :    0.031973
  22 C :   -0.035543
  23 H :    0.034708
  24 H :    0.035774
  25 C :   -0.046949
  26 H :    0.022943
  27 H :    0.033736
  28 C :   -0.056857
  29 H :    0.031638
  30 H :    0.022454
  31 H :    0.011176
  32 H :    0.046292
  33 H :    0.036630

  Mayer bond orders larger than 0.100000
B(  0-S ,  1-C ) :   1.1199 B(  0-S ,  4-C ) :   1.1601 B(  1-C ,  2-C ) :   1.6225
B(  1-C , 32-H ) :   0.9657 B(  2-C ,  3-C ) :   1.2219 B(  2-C ,  6-C ) :   1.0196
B(  3-C ,  4-C ) :   1.5859 B(  3-C ,  5-H ) :   1.0118 B(  4-C , 20-C ) :   1.0208
B(  6-C ,  7-H ) :   0.9432 B(  6-C ,  8-H ) :   0.9459 B(  6-C ,  9-C ) :   1.0613
B(  9-C , 10-H ) :   0.9520 B(  9-C , 11-H ) :   0.9578 B(  9-C , 12-C ) :   1.0833
B( 12-C , 13-H ) :   0.9760 B( 12-C , 14-H ) :   0.9737 B( 12-C , 15-H ) :   0.9729
B( 16-S , 17-C ) :   1.1138 B( 16-S , 20-C ) :   1.1012 B( 17-C , 18-C ) :   1.6982
B( 17-C , 33-H ) :   0.9532 B( 18-C , 19-C ) :   1.1957 B( 18-C , 21-H ) :   0.9885
B( 19-C , 20-C ) :   1.6471 B( 19-C , 22-C ) :   1.0291 B( 22-C , 23-H ) :   0.9407
B( 22-C , 24-H ) :   0.9249 B( 22-C , 25-C ) :   1.0890 B( 25-C , 26-H ) :   0.9536
B( 25-C , 27-H ) :   0.9502 B( 25-C , 28-C ) :   1.0775 B( 28-C , 29-H ) :   0.9745
B( 28-C , 30-H ) :   0.9761 B( 28-C , 31-H ) :   0.9733

Dispersion correction           -0.014559616
FINAL SINGLE POINT ENERGY     -1339.868485781014

DIPOLE MOMENT
-------------
                                X             Y             Z
Electronic contribution:     -0.52221     -24.64496       2.96266
Nuclear contribution   :      0.29541      25.34606      -3.08068
                        -----------------------------------------
Total Dipole Moment    :     -0.22681       0.70110      -0.11801
                        -----------------------------------------
Magnitude (a.u.)       :      0.74626
Magnitude (Debye)      :      1.89685

Rotational constants in cm-1:     0.019210     0.008222     0.007493
Rotational constants in MHz :   575.902653   246.479962   224.635619

                             ****ORCA TERMINATED NORMALLY****
TOTAL RUN TIME: 0 days 0 hours 0 minutes 22 seconds 130 msec
