                         Program Version 4.2.1 -  RELEASE  -
|  1> ! wB97X-D3 SP def2-SVP
|  2> %pal
|  3> nprocs 24
|  4> end
|  5>
|  6> * xyz 0 1
|  7> S 	 -32.4848 	 -36.2871 	 -92.6952
|  8> C 	 -31.3557 	 -35.006 	 -92.3299
|  9> C 	 -31.5326 	 -34.4632 	 -91.0825
| 10> C 	 -32.5432 	 -35.1944 	 -90.4144
| 11> C 	 -32.9792 	 -36.3266 	 -91.0387
| 12> H 	 -32.9489 	 -35.0232 	 -89.4101
| 13> C 	 -31.1097 	 -33.2103 	 -90.4914
| 14> H 	 -31.9591 	 -32.7134 	 -90.0947
| 15> H 	 -30.7311 	 -32.476 	 -91.2337
| 16> C 	 -30.1093 	 -33.3065 	 -89.3377
| 17> H 	 -29.717 	 -32.2993 	 -89.0852
| 18> H 	 -30.7332 	 -33.7362 	 -88.6093
| 19> C 	 -28.9599 	 -34.2586 	 -89.5524
| 20> H 	 -29.3275 	 -35.2755 	 -89.5527
| 21> H 	 -28.3841 	 -34.0722 	 -90.4294
| 22> H 	 -28.1955 	 -34.0773 	 -88.7764
| 23> S 	 -32.7816 	 -38.7343 	 -89.7864
| 24> C 	 -34.1673 	 -39.6465 	 -89.164
| 25> C 	 -35.2515 	 -38.9723 	 -89.5651
| 26> C 	 -35.0905 	 -37.8102 	 -90.4071
| 27> C 	 -33.7439 	 -37.4674 	 -90.5108
| 28> H 	 -36.2412 	 -39.3601 	 -89.3045
| 29> C 	 -36.1521 	 -36.8898 	 -90.862
| 30> H 	 -35.7196 	 -36.3599 	 -91.736
| 31> H 	 -36.2682 	 -36.1133 	 -90.1531
| 32> C 	 -37.4814 	 -37.45 	 -91.3913
| 33> H 	 -37.1715 	 -38.1413 	 -92.1544
| 34> H 	 -38.1812 	 -36.7884 	 -91.8308
| 35> C 	 -38.3828 	 -38.0971 	 -90.3876
| 36> H 	 -38.2161 	 -39.1914 	 -90.1331
| 37> H 	 -39.4452 	 -38.199 	 -90.7836
| 38> H 	 -38.459 	 -37.5271 	 -89.4696
| 39> H 	 -30.6834 	 -34.5393 	 -93.038
| 40> H 	 -34.1362 	 -40.5975 	 -88.6928
| 41> *
| 42>
| 43>                          ****END OF INPUT****

CARTESIAN COORDINATES (ANGSTROEM)
---------------------------------
  S    -32.484800  -36.287100  -92.695200
  C    -31.355700  -35.006000  -92.329900
  C    -31.532600  -34.463200  -91.082500
  C    -32.543200  -35.194400  -90.414400
  C    -32.979200  -36.326600  -91.038700
  H    -32.948900  -35.023200  -89.410100
  C    -31.109700  -33.210300  -90.491400
  H    -31.959100  -32.713400  -90.094700
  H    -30.731100  -32.476000  -91.233700
  C    -30.109300  -33.306500  -89.337700
  H    -29.717000  -32.299300  -89.085200
  H    -30.733200  -33.736200  -88.609300
  C    -28.959900  -34.258600  -89.552400
  H    -29.327500  -35.275500  -89.552700
  H    -28.384100  -34.072200  -90.429400
  H    -28.195500  -34.077300  -88.776400
  S    -32.781600  -38.734300  -89.786400
  C    -34.167300  -39.646500  -89.164000
  C    -35.251500  -38.972300  -89.565100
  C    -35.090500  -37.810200  -90.407100
  C    -33.743900  -37.467400  -90.510800
  H    -36.241200  -39.360100  -89.304500
  C    -36.152100  -36.889800  -90.862000
  H    -35.719600  -36.359900  -91.736000
  H    -36.268200  -36.113300  -90.153100
  C    -37.481400  -37.450000  -91.391300
  H    -37.171500  -38.141300  -92.154400
  H    -38.181200  -36.788400  -91.830800
  C    -38.382800  -38.097100  -90.387600
  H    -38.216100  -39.191400  -90.133100
  H    -39.445200  -38.199000  -90.783600
  H    -38.459000  -37.527100  -89.469600
  H    -30.683400  -34.539300  -93.038000
  H    -34.136200  -40.597500  -88.692800

 Total Charge           Charge          ....    0
 Multiplicity           Mult            ....    1
 Number of Electrons    NEL             ....  134
 Basis Dimension        Dim             ....  322

ORBITAL ENERGIES
----------------

  NO   OCC          E(Eh)            E(eV)
   0   2.0000     -88.966444     -2420.9000
   1   2.0000     -88.957485     -2420.6562
   2   2.0000     -10.327500      -281.0256
   3   2.0000     -10.326261      -280.9919
   4   2.0000     -10.314254      -280.6651
   5   2.0000     -10.313797      -280.6527
   6   2.0000     -10.303965      -280.3852
   7   2.0000     -10.296189      -280.1735
   8   2.0000     -10.291768      -280.0532
   9   2.0000     -10.289871      -280.0016
  10   2.0000     -10.287037      -279.9245
  11   2.0000     -10.284392      -279.8525
  12   2.0000     -10.282249      -279.7942
  13   2.0000     -10.281065      -279.7620
  14   2.0000     -10.280135      -279.7367
  15   2.0000     -10.268564      -279.4218
  16   2.0000      -8.081678      -219.9136
  17   2.0000      -8.072335      -219.6594
  18   2.0000      -6.040078      -164.3589
  19   2.0000      -6.036295      -164.2559
  20   2.0000      -6.032333      -164.1481
  21   2.0000      -6.030943      -164.1103
  22   2.0000      -6.026654      -163.9936
  23   2.0000      -6.023115      -163.8973
  24   2.0000      -1.012312       -27.5464
  25   2.0000      -0.989878       -26.9359
  26   2.0000      -0.923045       -25.1173
  27   2.0000      -0.914103       -24.8740
  28   2.0000      -0.873167       -23.7601
  29   2.0000      -0.851879       -23.1808
  30   2.0000      -0.848233       -23.0816
  31   2.0000      -0.818296       -22.2670
  32   2.0000      -0.788814       -21.4647
  33   2.0000      -0.776280       -21.1237
  34   2.0000      -0.708189       -19.2708
  35   2.0000      -0.699419       -19.0322
  36   2.0000      -0.696000       -18.9391
  37   2.0000      -0.656763       -17.8714
  38   2.0000      -0.642826       -17.4922
  39   2.0000      -0.623516       -16.9667
  40   2.0000      -0.601868       -16.3777
  41   2.0000      -0.576788       -15.6952
  42   2.0000      -0.563253       -15.3269
  43   2.0000      -0.556682       -15.1481
  44   2.0000      -0.546577       -14.8731
  45   2.0000      -0.541858       -14.7447
  46   2.0000      -0.518959       -14.1216
  47   2.0000      -0.514621       -14.0035
  48   2.0000      -0.504147       -13.7185
  49   2.0000      -0.499122       -13.5818
  50   2.0000      -0.493462       -13.4278
  51   2.0000      -0.489036       -13.3074
  52   2.0000      -0.472940       -12.8694
  53   2.0000      -0.468000       -12.7349
  54   2.0000      -0.464870       -12.6498
  55   2.0000      -0.445776       -12.1302
  56   2.0000      -0.433691       -11.8013
  57   2.0000      -0.430028       -11.7016
  58   2.0000      -0.428415       -11.6578
  59   2.0000      -0.419855       -11.4248
  60   2.0000      -0.414483       -11.2787
  61   2.0000      -0.413712       -11.2577
  62   2.0000      -0.410630       -11.1738
  63   2.0000      -0.336097        -9.1457
  64   2.0000      -0.326892        -8.8952
  65   2.0000      -0.320495        -8.7211
  66   2.0000      -0.312365        -8.4999
  67   0.0000       0.045409         1.2356
  68   0.0000       0.050088         1.3630
  69   0.0000       0.100330         2.7301
  70   0.0000       0.129929         3.5355
  71   0.0000       0.134634         3.6636

MULLIKEN ATOMIC CHARGES
-----------------------
   0 S :    0.128656
   1 C :   -0.112377
   2 C :   -0.071167
   3 C :    0.034064
   4 C :   -0.199963
   5 H :    0.016709
   6 C :    0.075188
   7 H :    0.022442
   8 H :    0.016893
   9 C :   -0.067173
  10 H :    0.035608
  11 H :    0.012299
  12 C :   -0.036011
  13 H :    0.048253
  14 H :    0.013398
  15 H :    0.030330
  16 S :    0.092273
  17 C :   -0.071717
  18 C :   -0.033639
  19 C :   -0.009097
  20 C :   -0.172809
  21 H :    0.010787
  22 C :    0.062309
  23 H :    0.026480
  24 H :    0.029105
  25 C :   -0.017497
  26 H :    0.025439
  27 H :    0.024309
  28 C :   -0.113807
  29 H :    0.043232
  30 H :    0.031497
  31 H :    0.034172
  32 H :    0.040513
  33 H :    0.051300
Sum of atomic charges:   -0.0000000

LOEWDIN ATOMIC CHARGES
----------------------
   0 S :    0.417768
   1 C :   -0.185903
   2 C :   -0.069923
   3 C :   -0.054960
   4 C :   -0.210375
   5 H :    0.033616
   6 C :   -0.034701
   7 H :    0.032077
   8 H :    0.028387
   9 C :   -0.035719
  10 H :    0.028432
  11 H :    0.017243
  12 C :   -0.065783
  13 H :    0.029186
  14 H :    0.017803
  15 H :    0.030852
  16 S :    0.396607
  17 C :   -0.172671
  18 C :   -0.076521
  19 C :   -0.059057
  20 C :   -0.198037
  21 H :    0.029246
  22 C :   -0.034292
  23 H :    0.039461
  24 H :    0.027206
  25 C :   -0.042408
  26 H :    0.027835
  27 H :    0.028129
  28 C :   -0.080333
  29 H :    0.025429
  30 H :    0.031285
  31 H :    0.022921
  32 H :    0.026517
  33 H :    0.030686

  Mayer bond orders larger than 0.100000
B(  0-S ,  1-C ) :   1.1490 B(  0-S ,  4-C ) :   1.1475 B(  1-C ,  2-C ) :   1.6118
B(  1-C , 32-H ) :   0.9625 B(  2-C ,  3-C ) :   1.2191 B(  2-C ,  6-C ) :   1.0347
B(  3-C ,  4-C ) :   1.6172 B(  3-C ,  5-H ) :   0.9899 B(  4-C , 20-C ) :   0.9914
B(  6-C ,  7-H ) :   0.9434 B(  6-C ,  8-H ) :   0.9355 B(  6-C ,  9-C ) :   1.0606
B(  9-C , 10-H ) :   0.9569 B(  9-C , 11-H ) :   0.9561 B(  9-C , 12-C ) :   1.0975
B( 12-C , 13-H ) :   0.9661 B( 12-C , 14-H ) :   0.9748 B( 12-C , 15-H ) :   0.9715
B( 16-S , 17-C ) :   1.1337 B( 16-S , 20-C ) :   1.1622 B( 17-C , 18-C ) :   1.6203
B( 17-C , 33-H ) :   0.9748 B( 18-C , 19-C ) :   1.2254 B( 18-C , 21-H ) :   0.9803
B( 19-C , 20-C ) :   1.5877 B( 19-C , 22-C ) :   1.0520 B( 22-C , 23-H ) :   0.9186
B( 22-C , 24-H ) :   0.9368 B( 22-C , 25-C ) :   1.0717 B( 25-C , 26-H ) :   0.9537
B( 25-C , 27-H ) :   0.9572 B( 25-C , 28-C ) :   1.0760 B( 28-C , 29-H ) :   0.9665
B( 28-C , 30-H ) :   0.9717 B( 28-C , 31-H ) :   0.9736

Dispersion correction           -0.014418281
FINAL SINGLE POINT ENERGY     -1339.856827532774

DIPOLE MOMENT
-------------
                                X             Y             Z
Electronic contribution:      6.60929     -10.80668      -6.60967
Nuclear contribution   :     -6.96129      11.21995       6.78762
                        -----------------------------------------
Total Dipole Moment    :     -0.35200       0.41327       0.17795
                        -----------------------------------------
Magnitude (a.u.)       :      0.57129
Magnitude (Debye)      :      1.45209

Rotational constants in cm-1:     0.023985     0.007340     0.006681
Rotational constants in MHz :   719.051389   220.046348   200.290619

                             ****ORCA TERMINATED NORMALLY****
TOTAL RUN TIME: 0 days 0 hours 0 minutes 21 seconds 339 msec
