                         Program Version 4.2.1 -  RELEASE  -
|  1> ! wB97X-D3 SP def2-SVP
|  2> %pal
|  3> nprocs 24
|  4> end
|  5>
|  6> * xyz 0 1
|  7> S 	 43.7974 	 -10.8448 	 -126.088
|  8> C 	 42.154 	 -10.3936 	 -126.346
|  9> C 	 41.2549 	 -11.46 	 -126.232
| 10> C 	 41.957 	 -12.6603 	 -126.023
| 11> C 	 43.3438 	 -12.5344 	 -125.917
| 12> H 	 41.5813 	 -13.6761 	 -125.96
| 13> C 	 39.7291 	 -11.3626 	 -126.442
| 14> H 	 39.3472 	 -10.3848 	 -126.583
| 15> H 	 39.2141 	 -11.7426 	 -125.556
| 16> C 	 39.1239 	 -12.1439 	 -127.648
| 17> H 	 39.2204 	 -13.187 	 -127.433
| 18> H 	 38.0297 	 -12.0359 	 -127.619
| 19> C 	 39.6983 	 -11.7217 	 -128.995
| 20> H 	 39.4668 	 -12.4459 	 -129.779
| 21> H 	 39.4065 	 -10.7766 	 -129.378
| 22> H 	 40.8001 	 -11.8175 	 -128.866
| 23> S 	 45.4016 	 -13.4753 	 -124.365
| 24> C 	 46.1415 	 -15.0495 	 -124.738
| 25> C 	 45.4679 	 -15.6843 	 -125.72
| 26> C 	 44.523 	 -14.7825 	 -126.367
| 27> C 	 44.3261 	 -13.5393 	 -125.696
| 28> H 	 45.827 	 -16.6367 	 -126.009
| 29> C 	 43.9369 	 -15.0764 	 -127.693
| 30> H 	 42.9361 	 -14.6878 	 -127.698
| 31> H 	 43.9022 	 -16.1627 	 -127.778
| 32> C 	 44.7249 	 -14.4865 	 -128.831
| 33> H 	 44.7869 	 -13.3778 	 -128.845
| 34> H 	 44.1827 	 -14.7101 	 -129.719
| 35> C 	 46.1724 	 -14.9175 	 -128.937
| 36> H 	 46.7404 	 -14.3382 	 -129.645
| 37> H 	 46.3963 	 -15.9813 	 -129.216
| 38> H 	 46.6711 	 -14.754 	 -128.002
| 39> H 	 41.8515 	 -9.33624 	 -126.404
| 40> H 	 46.846 	 -15.5268 	 -124.13
| 41> *
| 42>
| 43>                          ****END OF INPUT****

CARTESIAN COORDINATES (ANGSTROEM)
---------------------------------
  S     43.797400  -10.844800  -126.088000
  C     42.154000  -10.393600  -126.346000
  C     41.254900  -11.460000  -126.232000
  C     41.957000  -12.660300  -126.023000
  C     43.343800  -12.534400  -125.917000
  H     41.581300  -13.676100  -125.960000
  C     39.729100  -11.362600  -126.442000
  H     39.347200  -10.384800  -126.583000
  H     39.214100  -11.742600  -125.556000
  C     39.123900  -12.143900  -127.648000
  H     39.220400  -13.187000  -127.433000
  H     38.029700  -12.035900  -127.619000
  C     39.698300  -11.721700  -128.995000
  H     39.466800  -12.445900  -129.779000
  H     39.406500  -10.776600  -129.378000
  H     40.800100  -11.817500  -128.866000
  S     45.401600  -13.475300  -124.365000
  C     46.141500  -15.049500  -124.738000
  C     45.467900  -15.684300  -125.720000
  C     44.523000  -14.782500  -126.367000
  C     44.326100  -13.539300  -125.696000
  H     45.827000  -16.636700  -126.009000
  C     43.936900  -15.076400  -127.693000
  H     42.936100  -14.687800  -127.698000
  H     43.902200  -16.162700  -127.778000
  C     44.724900  -14.486500  -128.831000
  H     44.786900  -13.377800  -128.845000
  H     44.182700  -14.710100  -129.719000
  C     46.172400  -14.917500  -128.937000
  H     46.740400  -14.338200  -129.645000
  H     46.396300  -15.981300  -129.216000
  H     46.671100  -14.754000  -128.002000
  H     41.851500   -9.336240  -126.404000
  H     46.846000  -15.526800  -124.130000

 Total Charge           Charge          ....    0
 Multiplicity           Mult            ....    1
 Number of Electrons    NEL             ....  134
 Basis Dimension        Dim             ....  322

ORBITAL ENERGIES
----------------

  NO   OCC          E(Eh)            E(eV)
   0   2.0000     -88.968973     -2420.9688
   1   2.0000     -88.962872     -2420.8028
   2   2.0000     -10.329461      -281.0789
   3   2.0000     -10.323843      -280.9261
   4   2.0000     -10.317909      -280.7646
   5   2.0000     -10.313383      -280.6414
   6   2.0000     -10.307206      -280.4733
   7   2.0000     -10.303606      -280.3754
   8   2.0000     -10.297411      -280.2068
   9   2.0000     -10.293249      -280.0935
  10   2.0000     -10.293027      -280.0875
  11   2.0000     -10.286310      -279.9047
  12   2.0000     -10.281460      -279.7727
  13   2.0000     -10.278465      -279.6913
  14   2.0000     -10.274213      -279.5755
  15   2.0000     -10.268697      -279.4254
  16   2.0000      -8.084034      -219.9778
  17   2.0000      -8.077978      -219.8130
  18   2.0000      -6.042321      -164.4199
  19   2.0000      -6.038434      -164.3141
  20   2.0000      -6.036463      -164.2605
  21   2.0000      -6.035073      -164.2227
  22   2.0000      -6.032306      -164.1474
  23   2.0000      -6.028860      -164.0536
  24   2.0000      -1.009764       -27.4771
  25   2.0000      -0.986005       -26.8306
  26   2.0000      -0.913825       -24.8664
  27   2.0000      -0.909855       -24.7584
  28   2.0000      -0.877302       -23.8726
  29   2.0000      -0.850884       -23.1537
  30   2.0000      -0.842100       -22.9147
  31   2.0000      -0.818846       -22.2819
  32   2.0000      -0.787257       -21.4223
  33   2.0000      -0.771353       -20.9896
  34   2.0000      -0.714979       -19.4556
  35   2.0000      -0.696745       -18.9594
  36   2.0000      -0.689491       -18.7620
  37   2.0000      -0.663667       -18.0593
  38   2.0000      -0.645826       -17.5738
  39   2.0000      -0.624112       -16.9829
  40   2.0000      -0.589109       -16.0305
  41   2.0000      -0.573869       -15.6158
  42   2.0000      -0.557683       -15.1753
  43   2.0000      -0.549875       -14.9629
  44   2.0000      -0.549317       -14.9477
  45   2.0000      -0.541528       -14.7357
  46   2.0000      -0.517766       -14.0891
  47   2.0000      -0.511936       -13.9305
  48   2.0000      -0.503986       -13.7142
  49   2.0000      -0.492668       -13.4062
  50   2.0000      -0.484918       -13.1953
  51   2.0000      -0.482675       -13.1343
  52   2.0000      -0.477657       -12.9977
  53   2.0000      -0.465473       -12.6662
  54   2.0000      -0.463360       -12.6087
  55   2.0000      -0.447221       -12.1695
  56   2.0000      -0.440767       -11.9939
  57   2.0000      -0.438860       -11.9420
  58   2.0000      -0.429974       -11.7002
  59   2.0000      -0.422447       -11.4954
  60   2.0000      -0.420398       -11.4396
  61   2.0000      -0.418620       -11.3912
  62   2.0000      -0.406174       -11.0526
  63   2.0000      -0.350296        -9.5320
  64   2.0000      -0.336567        -9.1585
  65   2.0000      -0.325347        -8.8531
  66   2.0000      -0.289201        -7.8696
  67   0.0000       0.026833         0.7302
  68   0.0000       0.068479         1.8634
  69   0.0000       0.113447         3.0870
  70   0.0000       0.121489         3.3059
  71   0.0000       0.129507         3.5241

MULLIKEN ATOMIC CHARGES
-----------------------
   0 S :    0.123738
   1 C :   -0.123682
   2 C :   -0.083567
   3 C :    0.043597
   4 C :   -0.200787
   5 H :    0.017232
   6 C :    0.087143
   7 H :    0.008550
   8 H :    0.032608
   9 C :   -0.089584
  10 H :    0.018172
  11 H :    0.025759
  12 C :   -0.038862
  13 H :    0.028183
  14 H :    0.029457
  15 H :    0.045009
  16 S :    0.101783
  17 C :   -0.073704
  18 C :   -0.006500
  19 C :   -0.111839
  20 C :   -0.124029
  21 H :    0.010770
  22 C :    0.130141
  23 H :    0.007829
  24 H :    0.015945
  25 C :   -0.040282
  26 H :    0.032626
  27 H :    0.016885
  28 C :   -0.062372
  29 H :    0.023226
  30 H :    0.023659
  31 H :    0.034241
  32 H :    0.059968
  33 H :    0.038684
Sum of atomic charges:   -0.0000000

LOEWDIN ATOMIC CHARGES
----------------------
   0 S :    0.421882
   1 C :   -0.203350
   2 C :   -0.067259
   3 C :   -0.056573
   4 C :   -0.197487
   5 H :    0.032974
   6 C :   -0.025834
   7 H :    0.022596
   8 H :    0.034468
   9 C :   -0.041900
  10 H :    0.016804
  11 H :    0.024959
  12 C :   -0.067289
  13 H :    0.027677
  14 H :    0.019758
  15 H :    0.034207
  16 S :    0.408191
  17 C :   -0.164561
  18 C :   -0.064108
  19 C :   -0.052251
  20 C :   -0.223783
  21 H :    0.029074
  22 C :   -0.034092
  23 H :    0.028105
  24 H :    0.030673
  25 C :   -0.037206
  26 H :    0.032237
  27 H :    0.019419
  28 C :   -0.070513
  29 H :    0.024301
  30 H :    0.023900
  31 H :    0.023863
  32 H :    0.032028
  33 H :    0.019087

  Mayer bond orders larger than 0.100000
B(  0-S ,  1-C ) :   1.1673 B(  0-S ,  4-C ) :   1.1551 B(  1-C ,  2-C ) :   1.5775
B(  1-C ,  4-C ) :   0.1108 B(  1-C , 32-H ) :   0.9629 B(  2-C ,  3-C ) :   1.2527
B(  2-C ,  6-C ) :   1.0235 B(  3-C ,  4-C ) :   1.5625 B(  3-C ,  5-H ) :   0.9919
B(  4-C , 20-C ) :   1.0621 B(  6-C ,  7-H ) :   0.9475 B(  6-C ,  8-H ) :   0.9375
B(  6-C ,  9-C ) :   1.0743 B(  9-C , 10-H ) :   0.9566 B(  9-C , 11-H ) :   0.9538
B(  9-C , 12-C ) :   1.0719 B( 12-C , 13-H ) :   0.9723 B( 12-C , 14-H ) :   0.9770
B( 12-C , 15-H ) :   0.9734 B( 16-S , 17-C ) :   1.1491 B( 16-S , 20-C ) :   1.1456
B( 17-C , 18-C ) :   1.6244 B( 17-C , 33-H ) :   0.9700 B( 18-C , 19-C ) :   1.2296
B( 18-C , 21-H ) :   0.9947 B( 19-C , 20-C ) :   1.5532 B( 19-C , 22-C ) :   1.0646
B( 22-C , 23-H ) :   0.9138 B( 22-C , 24-H ) :   0.9267 B( 22-C , 25-C ) :   1.0828
B( 25-C , 26-H ) :   0.9523 B( 25-C , 27-H ) :   0.9525 B( 25-C , 28-C ) :   1.0794
B( 28-C , 29-H ) :   0.9719 B( 28-C , 30-H ) :   0.9734 B( 28-C , 31-H ) :   0.9697

Dispersion correction           -0.015457259
FINAL SINGLE POINT ENERGY     -1339.884348277082

DIPOLE MOMENT
-------------
                                X             Y             Z
Electronic contribution:     12.96876       6.87269      20.37196
Nuclear contribution   :    -13.34554      -7.18687     -20.67925
                        -----------------------------------------
Total Dipole Moment    :     -0.37677      -0.31417      -0.30729
                        -----------------------------------------
Magnitude (a.u.)       :      0.57887
Magnitude (Debye)      :      1.47136

Rotational constants in cm-1:     0.020955     0.008902     0.007449
Rotational constants in MHz :   628.214946   266.878230   223.310211

                             ****ORCA TERMINATED NORMALLY****
TOTAL RUN TIME: 0 days 0 hours 0 minutes 22 seconds 726 msec
