                         Program Version 4.2.1 -  RELEASE  -
|  1> ! wB97X-D3 SP def2-SVP
|  2> %pal
|  3> nprocs 24
|  4> end
|  5>
|  6> * xyz 0 1
|  7> S 	 -144.097 	 29.3297 	 -12.7958
|  8> C 	 -144.451 	 28.6466 	 -14.3808
|  9> C 	 -145.306 	 29.4765 	 -15.1173
| 10> C 	 -145.555 	 30.714 	 -14.4005
| 11> C 	 -144.965 	 30.7751 	 -13.1823
| 12> H 	 -146.233 	 31.4986 	 -14.7899
| 13> C 	 -145.919 	 29.2852 	 -16.5049
| 14> H 	 -145.662 	 30.208 	 -17.0814
| 15> H 	 -146.916 	 29.1412 	 -16.2467
| 16> C 	 -145.484 	 28.0031 	 -17.2622
| 17> H 	 -144.361 	 28.0959 	 -17.2977
| 18> H 	 -145.768 	 27.1456 	 -16.7554
| 19> C 	 -146.122 	 28.0481 	 -18.6594
| 20> H 	 -145.606 	 27.3326 	 -19.3282
| 21> H 	 -147.124 	 27.7575 	 -18.6469
| 22> H 	 -145.982 	 29.0521 	 -19.0584
| 23> S 	 -145.774 	 31.4306 	 -10.6839
| 24> C 	 -145.979 	 33.0794 	 -10.0911
| 25> C 	 -145.722 	 33.8798 	 -11.1523
| 26> C 	 -145.389 	 33.2038 	 -12.4002
| 27> C 	 -145.273 	 31.8504 	 -12.2365
| 28> H 	 -145.953 	 34.9472 	 -11.025
| 29> C 	 -144.99 	 34.0412 	 -13.642
| 30> H 	 -145.158 	 35.0771 	 -13.4876
| 31> H 	 -145.776 	 33.9967 	 -14.4195
| 32> C 	 -143.557 	 33.9793 	 -14.1835
| 33> H 	 -143.42 	 34.6776 	 -14.9623
| 34> H 	 -143.412 	 33.028 	 -14.6696
| 35> C 	 -142.384 	 34.1902 	 -13.1416
| 36> H 	 -141.539 	 34.3971 	 -13.7289
| 37> H 	 -142.072 	 33.4079 	 -12.5009
| 38> H 	 -142.672 	 35.0547 	 -12.4896
| 39> H 	 -143.989 	 27.7382 	 -14.6931
| 40> H 	 -146.276 	 33.3581 	 -9.07773
| 41> *
| 42>
| 43>                          ****END OF INPUT****

CARTESIAN COORDINATES (ANGSTROEM)
---------------------------------
  S    -144.097000   29.329700  -12.795800
  C    -144.451000   28.646600  -14.380800
  C    -145.306000   29.476500  -15.117300
  C    -145.555000   30.714000  -14.400500
  C    -144.965000   30.775100  -13.182300
  H    -146.233000   31.498600  -14.789900
  C    -145.919000   29.285200  -16.504900
  H    -145.662000   30.208000  -17.081400
  H    -146.916000   29.141200  -16.246700
  C    -145.484000   28.003100  -17.262200
  H    -144.361000   28.095900  -17.297700
  H    -145.768000   27.145600  -16.755400
  C    -146.122000   28.048100  -18.659400
  H    -145.606000   27.332600  -19.328200
  H    -147.124000   27.757500  -18.646900
  H    -145.982000   29.052100  -19.058400
  S    -145.774000   31.430600  -10.683900
  C    -145.979000   33.079400  -10.091100
  C    -145.722000   33.879800  -11.152300
  C    -145.389000   33.203800  -12.400200
  C    -145.273000   31.850400  -12.236500
  H    -145.953000   34.947200  -11.025000
  C    -144.990000   34.041200  -13.642000
  H    -145.158000   35.077100  -13.487600
  H    -145.776000   33.996700  -14.419500
  C    -143.557000   33.979300  -14.183500
  H    -143.420000   34.677600  -14.962300
  H    -143.412000   33.028000  -14.669600
  C    -142.384000   34.190200  -13.141600
  H    -141.539000   34.397100  -13.728900
  H    -142.072000   33.407900  -12.500900
  H    -142.672000   35.054700  -12.489600
  H    -143.989000   27.738200  -14.693100
  H    -146.276000   33.358100   -9.077730

 Total Charge           Charge          ....    0
 Multiplicity           Mult            ....    1
 Number of Electrons    NEL             ....  134
 Basis Dimension        Dim             ....  322

ORBITAL ENERGIES
----------------

  NO   OCC          E(Eh)            E(eV)
   0   2.0000     -88.967577     -2420.9308
   1   2.0000     -88.957011     -2420.6433
   2   2.0000     -10.327043      -281.0131
   3   2.0000     -10.322797      -280.8976
   4   2.0000     -10.316189      -280.7178
   5   2.0000     -10.314505      -280.6719
   6   2.0000     -10.305929      -280.4386
   7   2.0000     -10.301944      -280.3301
   8   2.0000     -10.293654      -280.1046
   9   2.0000     -10.293282      -280.0944
  10   2.0000     -10.292808      -280.0815
  11   2.0000     -10.288659      -279.9686
  12   2.0000     -10.287750      -279.9439
  13   2.0000     -10.279880      -279.7298
  14   2.0000     -10.277413      -279.6626
  15   2.0000     -10.268955      -279.4325
  16   2.0000      -8.082353      -219.9320
  17   2.0000      -8.073224      -219.6836
  18   2.0000      -6.040980      -164.3834
  19   2.0000      -6.036858      -164.2713
  20   2.0000      -6.032998      -164.1662
  21   2.0000      -6.031753      -164.1323
  22   2.0000      -6.027342      -164.0123
  23   2.0000      -6.024026      -163.9221
  24   2.0000      -1.012942       -27.5635
  25   2.0000      -0.986654       -26.8482
  26   2.0000      -0.915348       -24.9079
  27   2.0000      -0.898589       -24.4519
  28   2.0000      -0.872301       -23.7365
  29   2.0000      -0.852646       -23.2017
  30   2.0000      -0.837446       -22.7881
  31   2.0000      -0.816515       -22.2185
  32   2.0000      -0.781403       -21.2631
  33   2.0000      -0.776074       -21.1181
  34   2.0000      -0.715006       -19.4563
  35   2.0000      -0.702288       -19.1102
  36   2.0000      -0.686637       -18.6843
  37   2.0000      -0.663267       -18.0484
  38   2.0000      -0.639406       -17.3991
  39   2.0000      -0.612015       -16.6538
  40   2.0000      -0.589290       -16.0354
  41   2.0000      -0.588420       -16.0117
  42   2.0000      -0.566024       -15.4023
  43   2.0000      -0.548093       -14.9144
  44   2.0000      -0.545828       -14.8527
  45   2.0000      -0.519749       -14.1431
  46   2.0000      -0.518427       -14.1071
  47   2.0000      -0.513649       -13.9771
  48   2.0000      -0.504991       -13.7415
  49   2.0000      -0.498089       -13.5537
  50   2.0000      -0.486726       -13.2445
  51   2.0000      -0.480791       -13.0830
  52   2.0000      -0.474647       -12.9158
  53   2.0000      -0.463839       -12.6217
  54   2.0000      -0.459574       -12.5057
  55   2.0000      -0.450036       -12.2461
  56   2.0000      -0.447144       -12.1674
  57   2.0000      -0.439097       -11.9484
  58   2.0000      -0.434301       -11.8179
  59   2.0000      -0.421516       -11.4700
  60   2.0000      -0.416095       -11.3225
  61   2.0000      -0.409888       -11.1536
  62   2.0000      -0.399557       -10.8725
  63   2.0000      -0.355944        -9.6857
  64   2.0000      -0.328866        -8.9489
  65   2.0000      -0.324641        -8.8339
  66   2.0000      -0.295596        -8.0436
  67   0.0000       0.035170         0.9570
  68   0.0000       0.081877         2.2280
  69   0.0000       0.115830         3.1519
  70   0.0000       0.121907         3.3173
  71   0.0000       0.141942         3.8624

MULLIKEN ATOMIC CHARGES
-----------------------
   0 S :    0.113968
   1 C :   -0.134038
   2 C :   -0.090464
   3 C :   -0.005443
   4 C :   -0.117030
   5 H :    0.027002
   6 C :    0.052161
   7 H :    0.052535
   8 H :    0.031256
   9 C :   -0.093518
  10 H :    0.038566
  11 H :    0.022118
  12 C :   -0.008848
  13 H :    0.032376
  14 H :    0.025803
  15 H :    0.026362
  16 S :    0.082700
  17 C :   -0.105050
  18 C :   -0.036901
  19 C :   -0.048228
  20 C :   -0.121540
  21 H :    0.028765
  22 C :    0.063935
  23 H :   -0.009390
  24 H :    0.018180
  25 C :   -0.039305
  26 H :    0.014736
  27 H :    0.025076
  28 C :   -0.038328
  29 H :    0.019857
  30 H :    0.035304
  31 H :    0.029812
  32 H :    0.042615
  33 H :    0.064953
Sum of atomic charges:   -0.0000000

LOEWDIN ATOMIC CHARGES
----------------------
   0 S :    0.407711
   1 C :   -0.197092
   2 C :   -0.055867
   3 C :   -0.062454
   4 C :   -0.199588
   5 H :    0.038247
   6 C :   -0.028808
   7 H :    0.040408
   8 H :    0.028930
   9 C :   -0.035577
  10 H :    0.028746
  11 H :    0.013751
  12 C :   -0.055701
  13 H :    0.029577
  14 H :    0.017960
  15 H :    0.025396
  16 S :    0.417490
  17 C :   -0.188886
  18 C :   -0.074254
  19 C :   -0.070070
  20 C :   -0.204217
  21 H :    0.034198
  22 C :   -0.042933
  23 H :    0.024071
  24 H :    0.032265
  25 C :   -0.032675
  26 H :    0.019887
  27 H :    0.019993
  28 C :   -0.059614
  29 H :    0.020409
  30 H :    0.022076
  31 H :    0.029015
  32 H :    0.020769
  33 H :    0.036836

  Mayer bond orders larger than 0.100000
B(  0-S ,  1-C ) :   1.1214 B(  0-S ,  4-C ) :   1.1489 B(  1-C ,  2-C ) :   1.6112
B(  1-C , 32-H ) :   0.9743 B(  2-C ,  3-C ) :   1.2430 B(  2-C ,  6-C ) :   0.9941
B(  3-C ,  4-C ) :   1.5807 B(  3-C ,  5-H ) :   0.9903 B(  4-C , 20-C ) :   1.0215
B(  6-C ,  7-H ) :   0.9465 B(  6-C ,  8-H ) :   0.9307 B(  6-C ,  9-C ) :   1.0903
B(  9-C , 10-H ) :   0.9569 B(  9-C , 11-H ) :   0.9517 B(  9-C , 12-C ) :   1.0872
B( 12-C , 13-H ) :   0.9727 B( 12-C , 14-H ) :   0.9752 B( 12-C , 15-H ) :   0.9745
B( 16-S , 17-C ) :   1.1362 B( 16-S , 20-C ) :   1.1664 B( 17-C , 18-C ) :   1.6157
B( 17-C , 33-H ) :   0.9725 B( 18-C , 19-C ) :   1.2442 B( 18-C , 21-H ) :   0.9826
B( 19-C , 20-C ) :   1.5920 B( 19-C , 22-C ) :   1.0415 B( 22-C , 23-H ) :   0.9269
B( 22-C , 24-H ) :   0.9257 B( 22-C , 25-C ) :   1.0765 B( 25-C , 26-H ) :   0.9550
B( 25-C , 27-H ) :   0.9526 B( 25-C , 28-C ) :   1.0681 B( 28-C , 29-H ) :   0.9752
B( 28-C , 30-H ) :   0.9772 B( 28-C , 31-H ) :   0.9792

Dispersion correction           -0.014393763
FINAL SINGLE POINT ENERGY     -1339.866498225995

DIPOLE MOMENT
-------------
                                X             Y             Z
Electronic contribution:     -2.63992      -5.21215      24.81667
Nuclear contribution   :      2.41438       5.42024     -25.47710
                        -----------------------------------------
Total Dipole Moment    :     -0.22554       0.20809      -0.66043
                        -----------------------------------------
Magnitude (a.u.)       :      0.72824
Magnitude (Debye)      :      1.85105

Rotational constants in cm-1:     0.022094     0.007595     0.006659
Rotational constants in MHz :   662.354346   227.681677   199.628780

                             ****ORCA TERMINATED NORMALLY****
TOTAL RUN TIME: 0 days 0 hours 0 minutes 20 seconds 545 msec
