                         Program Version 4.2.1 -  RELEASE  -
|  1> ! wB97X-D3 SP def2-SVP
|  2> %pal
|  3> nprocs 24
|  4> end
|  5>
|  6> * xyz 0 1
|  7> S 	 17.6097 	 -17.3154 	 -117.831
|  8> C 	 16.6759 	 -15.9149 	 -118.377
|  9> C 	 16.2015 	 -16.0538 	 -119.676
| 10> C 	 16.6501 	 -17.2407 	 -120.304
| 11> C 	 17.4085 	 -18.0768 	 -119.457
| 12> H 	 16.4204 	 -17.4946 	 -121.316
| 13> C 	 15.3823 	 -14.9643 	 -120.373
| 14> H 	 15.278 	 -14.1234 	 -119.565
| 15> H 	 14.3369 	 -15.181 	 -120.572
| 16> C 	 16.1838 	 -14.2465 	 -121.512
| 17> H 	 17.1581 	 -13.8566 	 -121.103
| 18> H 	 16.4263 	 -15.0083 	 -122.342
| 19> C 	 15.4884 	 -13.0919 	 -122.116
| 20> H 	 16.2229 	 -12.659 	 -122.794
| 21> H 	 14.7159 	 -13.3902 	 -122.785
| 22> H 	 15.0587 	 -12.3807 	 -121.446
| 23> S 	 18.2808 	 -19.8419 	 -121.273
| 24> C 	 18.3923 	 -21.5106 	 -120.859
| 25> C 	 17.8316 	 -21.8133 	 -119.618
| 26> C 	 17.5372 	 -20.5899 	 -118.884
| 27> C 	 17.768 	 -19.4612 	 -119.697
| 28> H 	 17.8248 	 -22.7954 	 -119.129
| 29> C 	 16.9116 	 -20.6145 	 -117.498
| 30> H 	 15.8669 	 -20.342 	 -117.597
| 31> H 	 17.2424 	 -19.7828 	 -116.877
| 32> C 	 17.0505 	 -21.9502 	 -116.707
| 33> H 	 18.0697 	 -22.2158 	 -116.882
| 34> H 	 16.4189 	 -22.7531 	 -117.152
| 35> C 	 16.6746 	 -21.986 	 -115.206
| 36> H 	 16.6147 	 -23.0476 	 -114.891
| 37> H 	 15.6704 	 -21.722 	 -115.081
| 38> H 	 17.2883 	 -21.3419 	 -114.538
| 39> H 	 16.5119 	 -15.0188 	 -117.717
| 40> H 	 18.7858 	 -22.2265 	 -121.432
| 41> *
| 42>
| 43>                          ****END OF INPUT****

CARTESIAN COORDINATES (ANGSTROEM)
---------------------------------
  S     17.609700  -17.315400  -117.831000
  C     16.675900  -15.914900  -118.377000
  C     16.201500  -16.053800  -119.676000
  C     16.650100  -17.240700  -120.304000
  C     17.408500  -18.076800  -119.457000
  H     16.420400  -17.494600  -121.316000
  C     15.382300  -14.964300  -120.373000
  H     15.278000  -14.123400  -119.565000
  H     14.336900  -15.181000  -120.572000
  C     16.183800  -14.246500  -121.512000
  H     17.158100  -13.856600  -121.103000
  H     16.426300  -15.008300  -122.342000
  C     15.488400  -13.091900  -122.116000
  H     16.222900  -12.659000  -122.794000
  H     14.715900  -13.390200  -122.785000
  H     15.058700  -12.380700  -121.446000
  S     18.280800  -19.841900  -121.273000
  C     18.392300  -21.510600  -120.859000
  C     17.831600  -21.813300  -119.618000
  C     17.537200  -20.589900  -118.884000
  C     17.768000  -19.461200  -119.697000
  H     17.824800  -22.795400  -119.129000
  C     16.911600  -20.614500  -117.498000
  H     15.866900  -20.342000  -117.597000
  H     17.242400  -19.782800  -116.877000
  C     17.050500  -21.950200  -116.707000
  H     18.069700  -22.215800  -116.882000
  H     16.418900  -22.753100  -117.152000
  C     16.674600  -21.986000  -115.206000
  H     16.614700  -23.047600  -114.891000
  H     15.670400  -21.722000  -115.081000
  H     17.288300  -21.341900  -114.538000
  H     16.511900  -15.018800  -117.717000
  H     18.785800  -22.226500  -121.432000

 Total Charge           Charge          ....    0
 Multiplicity           Mult            ....    1
 Number of Electrons    NEL             ....  134
 Basis Dimension        Dim             ....  322

ORBITAL ENERGIES
----------------

  NO   OCC          E(Eh)            E(eV)
   0   2.0000     -88.969417     -2420.9809
   1   2.0000     -88.968549     -2420.9573
   2   2.0000     -10.335616      -281.2464
   3   2.0000     -10.322763      -280.8967
   4   2.0000     -10.318839      -280.7899
   5   2.0000     -10.308288      -280.5028
   6   2.0000     -10.306757      -280.4611
   7   2.0000     -10.302282      -280.3394
   8   2.0000     -10.301541      -280.3192
   9   2.0000     -10.297716      -280.2151
  10   2.0000     -10.295105      -280.1441
  11   2.0000     -10.294872      -280.1377
  12   2.0000     -10.289171      -279.9826
  13   2.0000     -10.289113      -279.9810
  14   2.0000     -10.280064      -279.7348
  15   2.0000     -10.269341      -279.4430
  16   2.0000      -8.085184      -220.0090
  17   2.0000      -8.081600      -219.9115
  18   2.0000      -6.043526      -164.4527
  19   2.0000      -6.040162      -164.3612
  20   2.0000      -6.039602      -164.3459
  21   2.0000      -6.036413      -164.2591
  22   2.0000      -6.036030      -164.2487
  23   2.0000      -6.032353      -164.1487
  24   2.0000      -1.006880       -27.3986
  25   2.0000      -0.978133       -26.6163
  26   2.0000      -0.907960       -24.7068
  27   2.0000      -0.904955       -24.6251
  28   2.0000      -0.870374       -23.6841
  29   2.0000      -0.854080       -23.2407
  30   2.0000      -0.846177       -23.0256
  31   2.0000      -0.812508       -22.1095
  32   2.0000      -0.784105       -21.3366
  33   2.0000      -0.767554       -20.8862
  34   2.0000      -0.708554       -19.2807
  35   2.0000      -0.702998       -19.1295
  36   2.0000      -0.685881       -18.6638
  37   2.0000      -0.659586       -17.9482
  38   2.0000      -0.633132       -17.2284
  39   2.0000      -0.618279       -16.8242
  40   2.0000      -0.602262       -16.3884
  41   2.0000      -0.567041       -15.4300
  42   2.0000      -0.564441       -15.3592
  43   2.0000      -0.557828       -15.1793
  44   2.0000      -0.529924       -14.4200
  45   2.0000      -0.524441       -14.2708
  46   2.0000      -0.512111       -13.9353
  47   2.0000      -0.510097       -13.8805
  48   2.0000      -0.505180       -13.7466
  49   2.0000      -0.501841       -13.6558
  50   2.0000      -0.484142       -13.1742
  51   2.0000      -0.475582       -12.9412
  52   2.0000      -0.473660       -12.8889
  53   2.0000      -0.466327       -12.6894
  54   2.0000      -0.464220       -12.6321
  55   2.0000      -0.454835       -12.3767
  56   2.0000      -0.445611       -12.1257
  57   2.0000      -0.435014       -11.8373
  58   2.0000      -0.427985       -11.6461
  59   2.0000      -0.424749       -11.5580
  60   2.0000      -0.420228       -11.4350
  61   2.0000      -0.415339       -11.3019
  62   2.0000      -0.406320       -11.0565
  63   2.0000      -0.352561        -9.5937
  64   2.0000      -0.332596        -9.0504
  65   2.0000      -0.330909        -9.0045
  66   2.0000      -0.279105        -7.5948
  67   0.0000       0.024500         0.6667
  68   0.0000       0.074377         2.0239
  69   0.0000       0.107626         2.9286
  70   0.0000       0.117584         3.1996
  71   0.0000       0.131960         3.5908

MULLIKEN ATOMIC CHARGES
-----------------------
   0 S :    0.093900
   1 C :   -0.150234
   2 C :   -0.053660
   3 C :    0.027481
   4 C :   -0.143822
   5 H :    0.007346
   6 C :    0.018364
   7 H :    0.019417
   8 H :    0.043936
   9 C :   -0.123769
  10 H :    0.041970
  11 H :    0.041127
  12 C :    0.001650
  13 H :    0.029161
  14 H :    0.015590
  15 H :    0.027760
  16 S :    0.125474
  17 C :   -0.030490
  18 C :   -0.046068
  19 C :   -0.082853
  20 C :   -0.130437
  21 H :    0.033919
  22 C :    0.089566
  23 H :    0.032038
  24 H :    0.021049
  25 C :   -0.125561
  26 H :    0.031647
  27 H :    0.036756
  28 C :   -0.013227
  29 H :    0.031564
  30 H :    0.012389
  31 H :    0.045487
  32 H :    0.069561
  33 H :    0.002968
Sum of atomic charges:    0.0000000

LOEWDIN ATOMIC CHARGES
----------------------
   0 S :    0.387485
   1 C :   -0.201408
   2 C :   -0.066227
   3 C :   -0.063632
   4 C :   -0.169138
   5 H :    0.024503
   6 C :   -0.039670
   7 H :    0.035858
   8 H :    0.028896
   9 C :   -0.046805
  10 H :    0.031688
  11 H :    0.029562
  12 C :   -0.066305
  13 H :    0.032664
  14 H :    0.020937
  15 H :    0.021256
  16 S :    0.450235
  17 C :   -0.176254
  18 C :   -0.065805
  19 C :   -0.052442
  20 C :   -0.220799
  21 H :    0.035566
  22 C :   -0.043271
  23 H :    0.034693
  24 H :    0.019866
  25 C :   -0.043853
  26 H :    0.018600
  27 H :    0.027642
  28 C :   -0.063658
  29 H :    0.034465
  30 H :    0.017539
  31 H :    0.029237
  32 H :    0.037570
  33 H :    0.001004

  Mayer bond orders larger than 0.100000
B(  0-S ,  1-C ) :   1.1317 B(  0-S ,  4-C ) :   1.1430 B(  1-C ,  2-C ) :   1.6174
B(  1-C , 32-H ) :   0.9550 B(  2-C ,  3-C ) :   1.2646 B(  2-C ,  6-C ) :   1.0199
B(  3-C ,  4-C ) :   1.5518 B(  3-C ,  5-H ) :   0.9874 B(  4-C , 20-C ) :   1.0510
B(  6-C ,  7-H ) :   0.9441 B(  6-C ,  8-H ) :   0.9463 B(  6-C ,  9-C ) :   1.0461
B(  9-C , 10-H ) :   0.9580 B(  9-C , 11-H ) :   0.9528 B(  9-C , 12-C ) :   1.0957
B( 12-C , 13-H ) :   0.9686 B( 12-C , 14-H ) :   0.9679 B( 12-C , 15-H ) :   0.9718
B( 16-S , 17-C ) :   1.1693 B( 16-S , 20-C ) :   1.1606 B( 17-C , 18-C ) :   1.5799
B( 17-C , 33-H ) :   0.9805 B( 18-C , 19-C ) :   1.2758 B( 18-C , 21-H ) :   0.9761
B( 19-C , 20-C ) :   1.5521 B( 19-C , 22-C ) :   1.0389 B( 22-C , 23-H ) :   0.9153
B( 22-C , 24-H ) :   0.9288 B( 22-C , 25-C ) :   1.0625 B( 25-C , 26-H ) :   0.9617
B( 25-C , 27-H ) :   0.9470 B( 25-C , 28-C ) :   1.0888 B( 28-C , 29-H ) :   0.9712
B( 28-C , 30-H ) :   0.9701 B( 28-C , 31-H ) :   0.9740

Dispersion correction           -0.013385637
FINAL SINGLE POINT ENERGY     -1339.866600868425

DIPOLE MOMENT
-------------
                                X             Y             Z
Electronic contribution:     11.01338      -5.81025      -4.81496
Nuclear contribution   :    -11.42155       5.81225       4.80759
                        -----------------------------------------
Total Dipole Moment    :     -0.40817       0.00200      -0.00737
                        -----------------------------------------
Magnitude (a.u.)       :      0.40824
Magnitude (Debye)      :      1.03767

Rotational constants in cm-1:     0.022664     0.007147     0.005760
Rotational constants in MHz :   679.457599   214.250163   172.695044

                             ****ORCA TERMINATED NORMALLY****
TOTAL RUN TIME: 0 days 0 hours 0 minutes 20 seconds 657 msec
