                         Program Version 4.2.1 -  RELEASE  -
|  1> ! wB97X-D3 SP def2-SVP
|  2> %pal
|  3> nprocs 24
|  4> end
|  5>
|  6> * xyz 0 1
|  7> S 	 -112.307 	 70.7904 	 -9.16578
|  8> C 	 -111.123 	 71.9178 	 -9.83884
|  9> C 	 -109.946 	 71.2868 	 -10.2907
| 10> C 	 -110.061 	 69.9092 	 -10.1608
| 11> C 	 -111.248 	 69.4256 	 -9.63759
| 12> H 	 -109.33 	 69.1578 	 -10.2583
| 13> C 	 -108.708 	 71.9761 	 -10.9166
| 14> H 	 -107.851 	 72.0969 	 -10.223
| 15> H 	 -108.96 	 72.9844 	 -11.1677
| 16> C 	 -108.236 	 71.4842 	 -12.233
| 17> H 	 -107.665 	 70.4951 	 -12.0956
| 18> H 	 -109.119 	 71.2545 	 -12.8496
| 19> C 	 -107.161 	 72.4142 	 -12.9577
| 20> H 	 -106.303 	 72.6264 	 -12.3611
| 21> H 	 -106.919 	 71.9145 	 -13.9225
| 22> H 	 -107.626 	 73.3461 	 -13.1395
| 23> S 	 -111.105 	 67.3861 	 -7.72208
| 24> C 	 -111.752 	 65.7943 	 -8.14961
| 25> C 	 -112.025 	 65.6822 	 -9.53274
| 26> C 	 -111.781 	 66.933 	 -10.1681
| 27> C 	 -111.504 	 68.0062 	 -9.32106
| 28> H 	 -112.33 	 64.7514 	 -10.0288
| 29> C 	 -111.908 	 67.0705 	 -11.6669
| 30> H 	 -111.46 	 66.0917 	 -12.038
| 31> H 	 -111.26 	 67.8718 	 -11.9546
| 32> C 	 -113.356 	 67.3549 	 -12.1912
| 33> H 	 -113.954 	 66.5353 	 -11.7193
| 34> H 	 -113.414 	 67.4166 	 -13.3472
| 35> C 	 -113.821 	 68.7856 	 -11.7074
| 36> H 	 -113.839 	 68.9161 	 -10.6278
| 37> H 	 -114.823 	 69.0111 	 -12.1051
| 38> H 	 -113.256 	 69.6204 	 -12.1225
| 39> H 	 -111.131 	 73.0177 	 -9.9572
| 40> H 	 -111.872 	 65.0811 	 -7.33755
| 41> *
| 42>
| 43>                          ****END OF INPUT****

CARTESIAN COORDINATES (ANGSTROEM)
---------------------------------
  S    -112.307000   70.790400   -9.165780
  C    -111.123000   71.917800   -9.838840
  C    -109.946000   71.286800  -10.290700
  C    -110.061000   69.909200  -10.160800
  C    -111.248000   69.425600   -9.637590
  H    -109.330000   69.157800  -10.258300
  C    -108.708000   71.976100  -10.916600
  H    -107.851000   72.096900  -10.223000
  H    -108.960000   72.984400  -11.167700
  C    -108.236000   71.484200  -12.233000
  H    -107.665000   70.495100  -12.095600
  H    -109.119000   71.254500  -12.849600
  C    -107.161000   72.414200  -12.957700
  H    -106.303000   72.626400  -12.361100
  H    -106.919000   71.914500  -13.922500
  H    -107.626000   73.346100  -13.139500
  S    -111.105000   67.386100   -7.722080
  C    -111.752000   65.794300   -8.149610
  C    -112.025000   65.682200   -9.532740
  C    -111.781000   66.933000  -10.168100
  C    -111.504000   68.006200   -9.321060
  H    -112.330000   64.751400  -10.028800
  C    -111.908000   67.070500  -11.666900
  H    -111.460000   66.091700  -12.038000
  H    -111.260000   67.871800  -11.954600
  C    -113.356000   67.354900  -12.191200
  H    -113.954000   66.535300  -11.719300
  H    -113.414000   67.416600  -13.347200
  C    -113.821000   68.785600  -11.707400
  H    -113.839000   68.916100  -10.627800
  H    -114.823000   69.011100  -12.105100
  H    -113.256000   69.620400  -12.122500
  H    -111.131000   73.017700   -9.957200
  H    -111.872000   65.081100   -7.337550

 Total Charge           Charge          ....    0
 Multiplicity           Mult            ....    1
 Number of Electrons    NEL             ....  134
 Basis Dimension        Dim             ....  322

ORBITAL ENERGIES
----------------

  NO   OCC          E(Eh)            E(eV)
   0   2.0000     -88.975553     -2421.1479
   1   2.0000     -88.965002     -2420.8608
   2   2.0000     -10.331159      -281.1251
   3   2.0000     -10.326028      -280.9855
   4   2.0000     -10.325729      -280.9774
   5   2.0000     -10.323353      -280.9127
   6   2.0000     -10.304553      -280.4011
   7   2.0000     -10.303204      -280.3644
   8   2.0000     -10.302644      -280.3492
   9   2.0000     -10.300054      -280.2787
  10   2.0000     -10.293644      -280.1043
  11   2.0000     -10.293269      -280.0941
  12   2.0000     -10.289357      -279.9876
  13   2.0000     -10.288782      -279.9720
  14   2.0000     -10.282556      -279.8026
  15   2.0000     -10.271365      -279.4980
  16   2.0000      -8.088262      -220.0928
  17   2.0000      -8.079377      -219.8510
  18   2.0000      -6.046886      -164.5441
  19   2.0000      -6.043019      -164.4389
  20   2.0000      -6.039041      -164.3306
  21   2.0000      -6.037833      -164.2978
  22   2.0000      -6.033935      -164.1917
  23   2.0000      -6.030233      -164.0910
  24   2.0000      -1.001296       -27.2467
  25   2.0000      -0.980444       -26.6792
  26   2.0000      -0.912384       -24.8272
  27   2.0000      -0.898574       -24.4514
  28   2.0000      -0.864529       -23.5250
  29   2.0000      -0.849486       -23.1157
  30   2.0000      -0.838872       -22.8269
  31   2.0000      -0.809550       -22.0290
  32   2.0000      -0.784609       -21.3503
  33   2.0000      -0.767197       -20.8765
  34   2.0000      -0.703626       -19.1466
  35   2.0000      -0.691848       -18.8261
  36   2.0000      -0.688258       -18.7284
  37   2.0000      -0.661312       -17.9952
  38   2.0000      -0.643454       -17.5093
  39   2.0000      -0.618554       -16.8317
  40   2.0000      -0.593294       -16.1444
  41   2.0000      -0.572989       -15.5918
  42   2.0000      -0.562496       -15.3063
  43   2.0000      -0.543302       -14.7840
  44   2.0000      -0.537925       -14.6377
  45   2.0000      -0.524366       -14.2687
  46   2.0000      -0.509970       -13.8770
  47   2.0000      -0.498639       -13.5687
  48   2.0000      -0.498567       -13.5667
  49   2.0000      -0.494134       -13.4461
  50   2.0000      -0.488692       -13.2980
  51   2.0000      -0.478179       -13.0119
  52   2.0000      -0.469787       -12.7835
  53   2.0000      -0.464084       -12.6284
  54   2.0000      -0.457254       -12.4425
  55   2.0000      -0.447533       -12.1780
  56   2.0000      -0.443168       -12.0592
  57   2.0000      -0.439340       -11.9551
  58   2.0000      -0.430539       -11.7156
  59   2.0000      -0.427772       -11.6403
  60   2.0000      -0.419723       -11.4212
  61   2.0000      -0.408804       -11.1241
  62   2.0000      -0.406746       -11.0681
  63   2.0000      -0.341401        -9.2900
  64   2.0000      -0.330891        -9.0040
  65   2.0000      -0.319108        -8.6834
  66   2.0000      -0.304821        -8.2946
  67   0.0000       0.032957         0.8968
  68   0.0000       0.047983         1.3057
  69   0.0000       0.104285         2.8377
  70   0.0000       0.111265         3.0277
  71   0.0000       0.130734         3.5575

MULLIKEN ATOMIC CHARGES
-----------------------
   0 S :    0.128776
   1 C :   -0.113860
   2 C :   -0.083561
   3 C :    0.072415
   4 C :   -0.203518
   5 H :    0.000293
   6 C :    0.099981
   7 H :    0.041414
   8 H :   -0.007000
   9 C :   -0.144477
  10 H :    0.036097
  11 H :    0.041385
  12 C :   -0.031654
  13 H :    0.032476
  14 H :    0.048855
  15 H :    0.020244
  16 S :    0.105465
  17 C :   -0.110865
  18 C :   -0.018097
  19 C :   -0.066281
  20 C :   -0.168986
  21 H :    0.035429
  22 C :    0.070908
  23 H :    0.034640
  24 H :    0.013442
  25 C :   -0.076393
  26 H :    0.038992
  27 H :    0.053685
  28 C :   -0.061584
  29 H :    0.035689
  30 H :    0.026342
  31 H :    0.030548
  32 H :    0.052088
  33 H :    0.067113
Sum of atomic charges:   -0.0000000

LOEWDIN ATOMIC CHARGES
----------------------
   0 S :    0.406309
   1 C :   -0.195100
   2 C :   -0.065572
   3 C :   -0.050282
   4 C :   -0.188108
   5 H :    0.027018
   6 C :   -0.038643
   7 H :    0.035859
   8 H :    0.022967
   9 C :   -0.048238
  10 H :    0.024895
  11 H :    0.026926
  12 C :   -0.056647
  13 H :    0.022656
  14 H :    0.036173
  15 H :    0.015991
  16 S :    0.396543
  17 C :   -0.170170
  18 C :   -0.073348
  19 C :   -0.053676
  20 C :   -0.211106
  21 H :    0.039117
  22 C :   -0.038537
  23 H :    0.035990
  24 H :    0.022336
  25 C :   -0.039883
  26 H :    0.027681
  27 H :    0.036241
  28 C :   -0.074784
  29 H :    0.014238
  30 H :    0.025554
  31 H :    0.024863
  32 H :    0.036740
  33 H :    0.025994

  Mayer bond orders larger than 0.100000
B(  0-S ,  1-C ) :   1.1531 B(  0-S ,  4-C ) :   1.1277 B(  1-C ,  2-C ) :   1.6080
B(  1-C ,  4-C ) :   0.1061 B(  1-C , 32-H ) :   0.9551 B(  2-C ,  3-C ) :   1.2464
B(  2-C ,  6-C ) :   1.0174 B(  3-C ,  4-C ) :   1.5925 B(  3-C ,  5-H ) :   0.9960
B(  4-C , 20-C ) :   1.0304 B(  6-C ,  7-H ) :   0.9335 B(  6-C ,  8-H ) :   0.9364
B(  6-C ,  9-C ) :   1.0654 B(  9-C , 10-H ) :   0.9495 B(  9-C , 11-H ) :   0.9588
B(  9-C , 12-C ) :   1.0757 B( 12-C , 13-H ) :   0.9760 B( 12-C , 14-H ) :   0.9754
B( 12-C , 15-H ) :   0.9763 B( 16-S , 17-C ) :   1.1788 B( 16-S , 20-C ) :   1.1382
B( 17-C , 18-C ) :   1.5604 B( 17-C , 20-C ) :   0.1069 B( 17-C , 33-H ) :   0.9696
B( 18-C , 19-C ) :   1.2571 B( 18-C , 21-H ) :   0.9896 B( 19-C , 20-C ) :   1.5805
B( 19-C , 22-C ) :   1.0391 B( 22-C , 23-H ) :   0.9368 B( 22-C , 24-H ) :   0.9288
B( 22-C , 25-C ) :   1.0572 B( 25-C , 26-H ) :   0.9565 B( 25-C , 27-H ) :   0.9565
B( 25-C , 28-C ) :   1.0709 B( 28-C , 29-H ) :   0.9725 B( 28-C , 30-H ) :   0.9726
B( 28-C , 31-H ) :   0.9733

Dispersion correction           -0.015459369
FINAL SINGLE POINT ENERGY     -1339.863865405349

DIPOLE MOMENT
-------------
                                X             Y             Z
Electronic contribution:     -7.62014      -6.80986      22.99916
Nuclear contribution   :      7.97284       6.83621     -23.43853
                        -----------------------------------------
Total Dipole Moment    :      0.35270       0.02635      -0.43936
                        -----------------------------------------
Magnitude (a.u.)       :      0.56403
Magnitude (Debye)      :      1.43365

Rotational constants in cm-1:     0.019624     0.008047     0.007650
Rotational constants in MHz :   588.309808   241.240766   229.355380

                             ****ORCA TERMINATED NORMALLY****
TOTAL RUN TIME: 0 days 0 hours 0 minutes 21 seconds 82 msec
