                         Program Version 4.2.1 -  RELEASE  -
|  1> ! wB97X-D3 SP def2-SVP
|  2> %pal
|  3> nprocs 24
|  4> end
|  5>
|  6> * xyz 0 1
|  7> S 	 -77.6972 	 -19.1315 	 -52.554
|  8> C 	 -78.4252 	 -19.9803 	 -51.2163
|  9> C 	 -78.9819 	 -19.1154 	 -50.2502
| 10> C 	 -78.9964 	 -17.7691 	 -50.7298
| 11> C 	 -78.3618 	 -17.5982 	 -51.9505
| 12> H 	 -79.4527 	 -16.9194 	 -50.3199
| 13> C 	 -79.7774 	 -19.6565 	 -49.0819
| 14> H 	 -79.4113 	 -20.7348 	 -49.033
| 15> H 	 -80.8997 	 -19.6678 	 -49.2927
| 16> C 	 -79.5756 	 -19.1771 	 -47.6537
| 17> H 	 -80.0235 	 -19.9135 	 -46.9896
| 18> H 	 -78.5575 	 -19.3184 	 -47.4053
| 19> C 	 -80.0378 	 -17.7183 	 -47.5482
| 20> H 	 -80.9461 	 -17.5408 	 -48.0779
| 21> H 	 -80.0627 	 -17.452 	 -46.4851
| 22> H 	 -79.2964 	 -17.0699 	 -48.0205
| 23> S 	 -78.5248 	 -16.6177 	 -54.5148
| 24> C 	 -78.3641 	 -14.918 	 -54.6899
| 25> C 	 -78.0808 	 -14.2187 	 -53.5139
| 26> C 	 -77.9759 	 -15.0582 	 -52.354
| 27> C 	 -78.2671 	 -16.397 	 -52.7593
| 28> H 	 -77.7866 	 -13.1891 	 -53.581
| 29> C 	 -77.5541 	 -14.539 	 -50.9695
| 30> H 	 -76.6395 	 -13.8853 	 -51.0463
| 31> H 	 -77.2404 	 -15.3547 	 -50.3093
| 32> C 	 -78.6568 	 -13.7477 	 -50.3029
| 33> H 	 -79.5961 	 -14.2536 	 -50.3703
| 34> H 	 -78.8707 	 -12.8238 	 -50.8525
| 35> C 	 -78.299 	 -13.56 	 -48.7984
| 36> H 	 -77.4055 	 -12.9196 	 -48.8279
| 37> H 	 -78.1067 	 -14.4841 	 -48.2198
| 38> H 	 -79.1369 	 -13.0718 	 -48.3263
| 39> H 	 -78.4934 	 -21.06 	 -51.1133
| 40> H 	 -78.4035 	 -14.4665 	 -55.6663
| 41> *
| 42>
| 43>                          ****END OF INPUT****

CARTESIAN COORDINATES (ANGSTROEM)
---------------------------------
  S    -77.697200  -19.131500  -52.554000
  C    -78.425200  -19.980300  -51.216300
  C    -78.981900  -19.115400  -50.250200
  C    -78.996400  -17.769100  -50.729800
  C    -78.361800  -17.598200  -51.950500
  H    -79.452700  -16.919400  -50.319900
  C    -79.777400  -19.656500  -49.081900
  H    -79.411300  -20.734800  -49.033000
  H    -80.899700  -19.667800  -49.292700
  C    -79.575600  -19.177100  -47.653700
  H    -80.023500  -19.913500  -46.989600
  H    -78.557500  -19.318400  -47.405300
  C    -80.037800  -17.718300  -47.548200
  H    -80.946100  -17.540800  -48.077900
  H    -80.062700  -17.452000  -46.485100
  H    -79.296400  -17.069900  -48.020500
  S    -78.524800  -16.617700  -54.514800
  C    -78.364100  -14.918000  -54.689900
  C    -78.080800  -14.218700  -53.513900
  C    -77.975900  -15.058200  -52.354000
  C    -78.267100  -16.397000  -52.759300
  H    -77.786600  -13.189100  -53.581000
  C    -77.554100  -14.539000  -50.969500
  H    -76.639500  -13.885300  -51.046300
  H    -77.240400  -15.354700  -50.309300
  C    -78.656800  -13.747700  -50.302900
  H    -79.596100  -14.253600  -50.370300
  H    -78.870700  -12.823800  -50.852500
  C    -78.299000  -13.560000  -48.798400
  H    -77.405500  -12.919600  -48.827900
  H    -78.106700  -14.484100  -48.219800
  H    -79.136900  -13.071800  -48.326300
  H    -78.493400  -21.060000  -51.113300
  H    -78.403500  -14.466500  -55.666300

 Total Charge           Charge          ....    0
 Multiplicity           Mult            ....    1
 Number of Electrons    NEL             ....  134
 Basis Dimension        Dim             ....  322

ORBITAL ENERGIES
----------------

  NO   OCC          E(Eh)            E(eV)
   0   2.0000     -88.970811     -2421.0189
   1   2.0000     -88.966320     -2420.8966
   2   2.0000     -10.331061      -281.1225
   3   2.0000     -10.327152      -281.0161
   4   2.0000     -10.315974      -280.7119
   5   2.0000     -10.314371      -280.6683
   6   2.0000     -10.313014      -280.6314
   7   2.0000     -10.303491      -280.3722
   8   2.0000     -10.299506      -280.2638
   9   2.0000     -10.297038      -280.1966
  10   2.0000     -10.295174      -280.1459
  11   2.0000     -10.289661      -279.9959
  12   2.0000     -10.285929      -279.8944
  13   2.0000     -10.283362      -279.8245
  14   2.0000     -10.281432      -279.7720
  15   2.0000     -10.277563      -279.6667
  16   2.0000      -8.085482      -220.0171
  17   2.0000      -8.080684      -219.8866
  18   2.0000      -6.043772      -164.4594
  19   2.0000      -6.040181      -164.3617
  20   2.0000      -6.039181      -164.3345
  21   2.0000      -6.036288      -164.2558
  22   2.0000      -6.035265      -164.2279
  23   2.0000      -6.031466      -164.1245
  24   2.0000      -1.001426       -27.2502
  25   2.0000      -0.978308       -26.6211
  26   2.0000      -0.914070       -24.8731
  27   2.0000      -0.911814       -24.8117
  28   2.0000      -0.865498       -23.5514
  29   2.0000      -0.854530       -23.2529
  30   2.0000      -0.843807       -22.9612
  31   2.0000      -0.811098       -22.0711
  32   2.0000      -0.783949       -21.3323
  33   2.0000      -0.767457       -20.8836
  34   2.0000      -0.707436       -19.2503
  35   2.0000      -0.700846       -19.0710
  36   2.0000      -0.693248       -18.8642
  37   2.0000      -0.660038       -17.9605
  38   2.0000      -0.640176       -17.4201
  39   2.0000      -0.616763       -16.7830
  40   2.0000      -0.600030       -16.3277
  41   2.0000      -0.571024       -15.5384
  42   2.0000      -0.566780       -15.4229
  43   2.0000      -0.541662       -14.7394
  44   2.0000      -0.534680       -14.5494
  45   2.0000      -0.526214       -14.3190
  46   2.0000      -0.515277       -14.0214
  47   2.0000      -0.512921       -13.9573
  48   2.0000      -0.501644       -13.6504
  49   2.0000      -0.491500       -13.3744
  50   2.0000      -0.488520       -13.2933
  51   2.0000      -0.483965       -13.1694
  52   2.0000      -0.477296       -12.9879
  53   2.0000      -0.469125       -12.7655
  54   2.0000      -0.461187       -12.5495
  55   2.0000      -0.452363       -12.3094
  56   2.0000      -0.450229       -12.2514
  57   2.0000      -0.439796       -11.9674
  58   2.0000      -0.434358       -11.8195
  59   2.0000      -0.429086       -11.6760
  60   2.0000      -0.417693       -11.3660
  61   2.0000      -0.415497       -11.3063
  62   2.0000      -0.407177       -11.0799
  63   2.0000      -0.347040        -9.4434
  64   2.0000      -0.335398        -9.1266
  65   2.0000      -0.330238        -8.9862
  66   2.0000      -0.280912        -7.6440
  67   0.0000       0.022465         0.6113
  68   0.0000       0.070710         1.9241
  69   0.0000       0.103012         2.8031
  70   0.0000       0.118260         3.2180
  71   0.0000       0.120004         3.2655

MULLIKEN ATOMIC CHARGES
-----------------------
   0 S :    0.107758
   1 C :   -0.125235
   2 C :   -0.048381
   3 C :    0.041457
   4 C :   -0.148002
   5 H :   -0.021286
   6 C :   -0.041440
   7 H :    0.021563
   8 H :    0.059774
   9 C :   -0.027292
  10 H :    0.026371
  11 H :    0.010590
  12 C :   -0.042039
  13 H :    0.028771
  14 H :    0.038220
  15 H :    0.034800
  16 S :    0.122654
  17 C :   -0.089247
  18 C :   -0.031948
  19 C :   -0.014698
  20 C :   -0.175210
  21 H :    0.015765
  22 C :    0.049299
  23 H :    0.040186
  24 H :    0.027229
  25 C :   -0.084480
  26 H :    0.023089
  27 H :    0.030733
  28 C :   -0.051005
  29 H :    0.034275
  30 H :    0.047374
  31 H :    0.035813
  32 H :    0.051075
  33 H :    0.053466
Sum of atomic charges:    0.0000000

LOEWDIN ATOMIC CHARGES
----------------------
   0 S :    0.391703
   1 C :   -0.198483
   2 C :   -0.064679
   3 C :   -0.063101
   4 C :   -0.181420
   5 H :    0.021059
   6 C :   -0.043580
   7 H :    0.034970
   8 H :    0.038313
   9 C :   -0.041443
  10 H :    0.026230
  11 H :    0.019587
  12 C :   -0.063094
  13 H :    0.020633
  14 H :    0.028994
  15 H :    0.026133
  16 S :    0.411780
  17 C :   -0.191811
  18 C :   -0.072157
  19 C :   -0.042359
  20 C :   -0.192789
  21 H :    0.028777
  22 C :   -0.033156
  23 H :    0.038165
  24 H :    0.030501
  25 C :   -0.041766
  26 H :    0.016862
  27 H :    0.026336
  28 C :   -0.063374
  29 H :    0.027742
  30 H :    0.028945
  31 H :    0.024834
  32 H :    0.027567
  33 H :    0.024081

  Mayer bond orders larger than 0.100000
B(  0-S ,  1-C ) :   1.1421 B(  0-S ,  4-C ) :   1.1351 B(  1-C ,  2-C ) :   1.6068
B(  1-C , 32-H ) :   0.9640 B(  2-C ,  3-C ) :   1.2169 B(  2-C ,  6-C ) :   1.0279
B(  3-C ,  4-C ) :   1.5829 B(  3-C ,  5-H ) :   0.9993 B(  4-C , 20-C ) :   1.0687
B(  6-C ,  7-H ) :   0.9360 B(  6-C ,  8-H ) :   0.9440 B(  6-C ,  9-C ) :   1.0825
B(  9-C , 10-H ) :   0.9540 B(  9-C , 11-H ) :   0.9485 B(  9-C , 12-C ) :   1.0732
B( 12-C , 13-H ) :   0.9760 B( 12-C , 14-H ) :   0.9711 B( 12-C , 15-H ) :   0.9671
B( 16-S , 17-C ) :   1.1628 B( 16-S , 20-C ) :   1.1447 B( 17-C , 18-C ) :   1.6035
B( 17-C , 33-H ) :   0.9678 B( 18-C , 19-C ) :   1.2408 B( 18-C , 21-H ) :   0.9878
B( 19-C , 20-C ) :   1.5636 B( 19-C , 22-C ) :   1.0408 B( 22-C , 23-H ) :   0.9346
B( 22-C , 24-H ) :   0.9384 B( 22-C , 25-C ) :   1.0534 B( 25-C , 26-H ) :   0.9562
B( 25-C , 27-H ) :   0.9521 B( 25-C , 28-C ) :   1.0756 B( 28-C , 29-H ) :   0.9737
B( 28-C , 30-H ) :   0.9748 B( 28-C , 31-H ) :   0.9747

Dispersion correction           -0.014807946
FINAL SINGLE POINT ENERGY     -1339.879252140072

DIPOLE MOMENT
-------------
                                X             Y             Z
Electronic contribution:      6.06186     -10.14001     -29.78979
Nuclear contribution   :     -6.17832      10.48584      30.25225
                        -----------------------------------------
Total Dipole Moment    :     -0.11646       0.34583       0.46246
                        -----------------------------------------
Magnitude (a.u.)       :      0.58909
Magnitude (Debye)      :      1.49735

Rotational constants in cm-1:     0.016319     0.010636     0.006843
Rotational constants in MHz :   489.226241   318.870353   205.157561

                             ****ORCA TERMINATED NORMALLY****
TOTAL RUN TIME: 0 days 0 hours 0 minutes 21 seconds 241 msec
