                         Program Version 4.2.1 -  RELEASE  -
|  1> ! wB97X-D3 SP def2-SVP
|  2> %pal
|  3> nprocs 24
|  4> end
|  5>
|  6> * xyz 0 1
|  7> S 	 -52.7421 	 -52.5975 	 -73.6485
|  8> C 	 -51.1695 	 -53.1312 	 -73.0719
|  9> C 	 -50.4773 	 -53.786 	 -74.0855
| 10> C 	 -51.2829 	 -54.0621 	 -75.2142
| 11> C 	 -52.5034 	 -53.4828 	 -75.1754
| 12> H 	 -51.0054 	 -54.6876 	 -76.0216
| 13> C 	 -49.1542 	 -54.459 	 -73.9874
| 14> H 	 -48.3975 	 -53.8708 	 -73.4749
| 15> H 	 -48.8361 	 -54.6809 	 -75.0383
| 16> C 	 -49.2507 	 -55.8387 	 -73.3373
| 17> H 	 -49.8943 	 -55.9666 	 -72.5004
| 18> H 	 -49.7228 	 -56.4997 	 -74.1169
| 19> C 	 -47.8838 	 -56.3565 	 -72.922
| 20> H 	 -47.2757 	 -56.417 	 -73.8751
| 21> H 	 -47.4433 	 -55.6224 	 -72.3493
| 22> H 	 -47.955 	 -57.3036 	 -72.3313
| 23> S 	 -54.9687 	 -52.7207 	 -75.8591
| 24> C 	 -55.717 	 -53.0601 	 -77.3968
| 25> C 	 -55.0627 	 -54.1088 	 -77.9305
| 26> C 	 -53.7652 	 -54.4323 	 -77.2855
| 27> C 	 -53.5757 	 -53.6479 	 -76.1762
| 28> H 	 -55.3998 	 -54.4826 	 -78.9008
| 29> C 	 -52.7241 	 -55.3294 	 -77.9187
| 30> H 	 -53.2652 	 -55.9912 	 -78.6269
| 31> H 	 -52.2451 	 -56.0908 	 -77.2462
| 32> C 	 -51.7101 	 -54.5857 	 -78.8227
| 33> H 	 -50.9874 	 -55.3489 	 -79.2279
| 34> H 	 -51.1425 	 -53.8135 	 -78.3856
| 35> C 	 -52.3698 	 -53.8872 	 -79.9773
| 36> H 	 -51.6654 	 -53.4176 	 -80.6357
| 37> H 	 -53.0192 	 -53.1105 	 -79.6036
| 38> H 	 -52.9928 	 -54.5479 	 -80.5905
| 39> H 	 -50.6922 	 -52.9048 	 -72.0686
| 40> H 	 -56.6354 	 -52.6311 	 -77.8248
| 41> *
| 42>
| 43>                          ****END OF INPUT****

CARTESIAN COORDINATES (ANGSTROEM)
---------------------------------
  S    -52.742100  -52.597500  -73.648500
  C    -51.169500  -53.131200  -73.071900
  C    -50.477300  -53.786000  -74.085500
  C    -51.282900  -54.062100  -75.214200
  C    -52.503400  -53.482800  -75.175400
  H    -51.005400  -54.687600  -76.021600
  C    -49.154200  -54.459000  -73.987400
  H    -48.397500  -53.870800  -73.474900
  H    -48.836100  -54.680900  -75.038300
  C    -49.250700  -55.838700  -73.337300
  H    -49.894300  -55.966600  -72.500400
  H    -49.722800  -56.499700  -74.116900
  C    -47.883800  -56.356500  -72.922000
  H    -47.275700  -56.417000  -73.875100
  H    -47.443300  -55.622400  -72.349300
  H    -47.955000  -57.303600  -72.331300
  S    -54.968700  -52.720700  -75.859100
  C    -55.717000  -53.060100  -77.396800
  C    -55.062700  -54.108800  -77.930500
  C    -53.765200  -54.432300  -77.285500
  C    -53.575700  -53.647900  -76.176200
  H    -55.399800  -54.482600  -78.900800
  C    -52.724100  -55.329400  -77.918700
  H    -53.265200  -55.991200  -78.626900
  H    -52.245100  -56.090800  -77.246200
  C    -51.710100  -54.585700  -78.822700
  H    -50.987400  -55.348900  -79.227900
  H    -51.142500  -53.813500  -78.385600
  C    -52.369800  -53.887200  -79.977300
  H    -51.665400  -53.417600  -80.635700
  H    -53.019200  -53.110500  -79.603600
  H    -52.992800  -54.547900  -80.590500
  H    -50.692200  -52.904800  -72.068600
  H    -56.635400  -52.631100  -77.824800

 Total Charge           Charge          ....    0
 Multiplicity           Mult            ....    1
 Number of Electrons    NEL             ....  134
 Basis Dimension        Dim             ....  322

ORBITAL ENERGIES
----------------

  NO   OCC          E(Eh)            E(eV)
   0   2.0000     -88.969851     -2420.9927
   1   2.0000     -88.958804     -2420.6921
   2   2.0000     -10.331686      -281.1395
   3   2.0000     -10.326863      -281.0082
   4   2.0000     -10.321020      -280.8492
   5   2.0000     -10.316278      -280.7202
   6   2.0000     -10.307261      -280.4748
   7   2.0000     -10.301660      -280.3224
   8   2.0000     -10.298489      -280.2361
   9   2.0000     -10.297390      -280.2062
  10   2.0000     -10.293232      -280.0931
  11   2.0000     -10.286725      -279.9160
  12   2.0000     -10.286489      -279.9096
  13   2.0000     -10.282743      -279.8077
  14   2.0000     -10.278196      -279.6839
  15   2.0000     -10.269581      -279.4495
  16   2.0000      -8.083573      -219.9652
  17   2.0000      -8.075194      -219.7372
  18   2.0000      -6.042351      -164.4207
  19   2.0000      -6.038256      -164.3093
  20   2.0000      -6.034073      -164.1955
  21   2.0000      -6.033858      -164.1896
  22   2.0000      -6.029504      -164.0711
  23   2.0000      -6.025656      -163.9664
  24   2.0000      -1.013878       -27.5890
  25   2.0000      -0.989018       -26.9125
  26   2.0000      -0.918263       -24.9872
  27   2.0000      -0.913614       -24.8607
  28   2.0000      -0.874015       -23.7832
  29   2.0000      -0.856433       -23.3047
  30   2.0000      -0.843328       -22.9481
  31   2.0000      -0.821746       -22.3608
  32   2.0000      -0.780125       -21.2283
  33   2.0000      -0.771837       -21.0028
  34   2.0000      -0.706735       -19.2312
  35   2.0000      -0.699006       -19.0209
  36   2.0000      -0.691635       -18.8203
  37   2.0000      -0.667228       -18.1562
  38   2.0000      -0.635565       -17.2946
  39   2.0000      -0.628405       -17.0998
  40   2.0000      -0.597191       -16.2504
  41   2.0000      -0.574848       -15.6424
  42   2.0000      -0.559325       -15.2200
  43   2.0000      -0.553072       -15.0498
  44   2.0000      -0.549963       -14.9653
  45   2.0000      -0.527795       -14.3620
  46   2.0000      -0.516039       -14.0421
  47   2.0000      -0.512443       -13.9443
  48   2.0000      -0.505489       -13.7551
  49   2.0000      -0.501426       -13.6445
  50   2.0000      -0.491678       -13.3792
  51   2.0000      -0.483852       -13.1663
  52   2.0000      -0.477463       -12.9924
  53   2.0000      -0.467458       -12.7202
  54   2.0000      -0.457281       -12.4432
  55   2.0000      -0.446614       -12.1530
  56   2.0000      -0.444100       -12.0846
  57   2.0000      -0.438558       -11.9338
  58   2.0000      -0.432643       -11.7728
  59   2.0000      -0.426898       -11.6165
  60   2.0000      -0.421882       -11.4800
  61   2.0000      -0.414838       -11.2883
  62   2.0000      -0.405983       -11.0474
  63   2.0000      -0.366468        -9.9721
  64   2.0000      -0.336568        -9.1585
  65   2.0000      -0.322009        -8.7623
  66   2.0000      -0.286843        -7.8054
  67   0.0000       0.021768         0.5923
  68   0.0000       0.083093         2.2611
  69   0.0000       0.097357         2.6492
  70   0.0000       0.114928         3.1273
  71   0.0000       0.132272         3.5993

MULLIKEN ATOMIC CHARGES
-----------------------
   0 S :    0.107919
   1 C :   -0.141983
   2 C :   -0.039887
   3 C :   -0.043908
   4 C :   -0.049339
   5 H :   -0.008166
   6 C :    0.035896
   7 H :    0.024080
   8 H :    0.031501
   9 C :   -0.082183
  10 H :    0.021952
  11 H :    0.022748
  12 C :   -0.025708
  13 H :    0.030486
  14 H :    0.011200
  15 H :    0.049611
  16 S :    0.071920
  17 C :   -0.088589
  18 C :   -0.027084
  19 C :   -0.091186
  20 C :   -0.095475
  21 H :    0.020975
  22 C :    0.016150
  23 H :    0.018089
  24 H :    0.049686
  25 C :   -0.049784
  26 H :    0.033187
  27 H :    0.027485
  28 C :   -0.054333
  29 H :    0.027829
  30 H :    0.041961
  31 H :    0.015372
  32 H :    0.071754
  33 H :    0.067824
Sum of atomic charges:   -0.0000000

LOEWDIN ATOMIC CHARGES
----------------------
   0 S :    0.386710
   1 C :   -0.202992
   2 C :   -0.062634
   3 C :   -0.061196
   4 C :   -0.172791
   5 H :    0.026487
   6 C :   -0.032969
   7 H :    0.025803
   8 H :    0.037488
   9 C :   -0.042288
  10 H :    0.016366
  11 H :    0.025166
  12 C :   -0.062602
  13 H :    0.031358
  14 H :    0.010015
  15 H :    0.034182
  16 S :    0.408142
  17 C :   -0.189786
  18 C :   -0.069817
  19 C :   -0.069811
  20 C :   -0.190763
  21 H :    0.030500
  22 C :   -0.043370
  23 H :    0.034633
  24 H :    0.034558
  25 C :   -0.040152
  26 H :    0.028959
  27 H :    0.017987
  28 C :   -0.062528
  29 H :    0.024326
  30 H :    0.026355
  31 H :    0.018650
  32 H :    0.044975
  33 H :    0.041039

  Mayer bond orders larger than 0.100000
B(  0-S ,  1-C ) :   1.1265 B(  0-S ,  4-C ) :   1.1226 B(  1-C ,  2-C ) :   1.6120
B(  1-C , 32-H ) :   0.9594 B(  2-C ,  3-C ) :   1.2199 B(  2-C ,  6-C ) :   1.0458
B(  3-C ,  4-C ) :   1.6024 B(  3-C ,  5-H ) :   0.9995 B(  4-C , 20-C ) :   1.0635
B(  6-C ,  7-H ) :   0.9431 B(  6-C ,  8-H ) :   0.9367 B(  6-C ,  9-C ) :   1.0518
B(  9-C , 10-H ) :   0.9623 B(  9-C , 11-H ) :   0.9525 B(  9-C , 12-C ) :   1.0803
B( 12-C , 13-H ) :   0.9716 B( 12-C , 14-H ) :   0.9756 B( 12-C , 15-H ) :   0.9726
B( 16-S , 17-C ) :   1.1295 B( 16-S , 20-C ) :   1.1389 B( 17-C , 18-C ) :   1.6546
B( 17-C , 33-H ) :   0.9664 B( 18-C , 19-C ) :   1.2042 B( 18-C , 21-H ) :   0.9823
B( 19-C , 20-C ) :   1.6068 B( 19-C , 22-C ) :   1.0543 B( 22-C , 23-H ) :   0.9284
B( 22-C , 24-H ) :   0.9389 B( 22-C , 25-C ) :   1.0565 B( 25-C , 26-H ) :   0.9552
B( 25-C , 27-H ) :   0.9573 B( 25-C , 28-C ) :   1.0862 B( 28-C , 29-H ) :   0.9700
B( 28-C , 30-H ) :   0.9705 B( 28-C , 31-H ) :   0.9737

Dispersion correction           -0.014560701
FINAL SINGLE POINT ENERGY     -1339.871954790377

DIPOLE MOMENT
-------------
                                X             Y             Z
Electronic contribution:    -21.75643      15.49056       9.84892
Nuclear contribution   :     22.17726     -15.88545     -10.20024
                        -----------------------------------------
Total Dipole Moment    :      0.42083      -0.39489      -0.35133
                        -----------------------------------------
Magnitude (a.u.)       :      0.67562
Magnitude (Debye)      :      1.71730

Rotational constants in cm-1:     0.020655     0.008675     0.006576
Rotational constants in MHz :   619.211697   260.084317   197.151697

                             ****ORCA TERMINATED NORMALLY****
TOTAL RUN TIME: 0 days 0 hours 0 minutes 20 seconds 960 msec
