                         Program Version 4.2.1 -  RELEASE  -
|  1> ! wB97X-D3 SP def2-SVP
|  2> %pal
|  3> nprocs 24
|  4> end
|  5>
|  6> * xyz 0 1
|  7> S 	 -75.1776 	 -2.10806 	 -67.1853
|  8> C 	 -74.103 	 -0.743779 	 -67.5623
|  9> C 	 -73.2311 	 -0.984743 	 -68.5656
| 10> C 	 -73.4412 	 -2.30845 	 -69.1091
| 11> C 	 -74.5247 	 -2.99993 	 -68.5344
| 12> H 	 -72.8997 	 -2.80341 	 -69.9511
| 13> C 	 -72.4095 	 0.142745 	 -69.1477
| 14> H 	 -72.5083 	 1.02847 	 -68.5208
| 15> H 	 -72.8999 	 0.342717 	 -70.0979
| 16> C 	 -70.8822 	 -0.219996 	 -69.3191
| 17> H 	 -70.4152 	 -0.556341 	 -68.3656
| 18> H 	 -70.8493 	 -1.17563 	 -69.8706
| 19> C 	 -70.0495 	 0.875694 	 -69.9862
| 20> H 	 -70.2386 	 1.96586 	 -69.6417
| 21> H 	 -68.9939 	 0.740199 	 -69.9372
| 22> H 	 -70.3643 	 0.875147 	 -71.107
| 23> S 	 -75.2772 	 -5.34246 	 -67.4548
| 24> C 	 -75.9996 	 -6.60852 	 -68.5011
| 25> C 	 -76.032 	 -6.2114 	 -69.8158
| 26> C 	 -75.431 	 -4.97692 	 -69.981
| 27> C 	 -75.0419 	 -4.32653 	 -68.8705
| 28> H 	 -76.6057 	 -6.82424 	 -70.5192
| 29> C 	 -75.3421 	 -4.38935 	 -71.3535
| 30> H 	 -74.3579 	 -4.50399 	 -71.8001
| 31> H 	 -75.5854 	 -3.38644 	 -71.2627
| 32> C 	 -76.3636 	 -4.94818 	 -72.3701
| 33> H 	 -77.3326 	 -4.92332 	 -71.9312
| 34> H 	 -76.1314 	 -6.03639 	 -72.5676
| 35> C 	 -76.3301 	 -4.14761 	 -73.6892
| 36> H 	 -77.0408 	 -4.519 	 -74.3986
| 37> H 	 -75.3229 	 -4.26146 	 -74.1188
| 38> H 	 -76.421 	 -3.04972 	 -73.46
| 39> H 	 -73.9986 	 0.152019 	 -66.9562
| 40> H 	 -76.4449 	 -7.4863 	 -68.1521
| 41> *
| 42>
| 43>                          ****END OF INPUT****

CARTESIAN COORDINATES (ANGSTROEM)
---------------------------------
  S    -75.177600   -2.108060  -67.185300
  C    -74.103000   -0.743779  -67.562300
  C    -73.231100   -0.984743  -68.565600
  C    -73.441200   -2.308450  -69.109100
  C    -74.524700   -2.999930  -68.534400
  H    -72.899700   -2.803410  -69.951100
  C    -72.409500    0.142745  -69.147700
  H    -72.508300    1.028470  -68.520800
  H    -72.899900    0.342717  -70.097900
  C    -70.882200   -0.219996  -69.319100
  H    -70.415200   -0.556341  -68.365600
  H    -70.849300   -1.175630  -69.870600
  C    -70.049500    0.875694  -69.986200
  H    -70.238600    1.965860  -69.641700
  H    -68.993900    0.740199  -69.937200
  H    -70.364300    0.875147  -71.107000
  S    -75.277200   -5.342460  -67.454800
  C    -75.999600   -6.608520  -68.501100
  C    -76.032000   -6.211400  -69.815800
  C    -75.431000   -4.976920  -69.981000
  C    -75.041900   -4.326530  -68.870500
  H    -76.605700   -6.824240  -70.519200
  C    -75.342100   -4.389350  -71.353500
  H    -74.357900   -4.503990  -71.800100
  H    -75.585400   -3.386440  -71.262700
  C    -76.363600   -4.948180  -72.370100
  H    -77.332600   -4.923320  -71.931200
  H    -76.131400   -6.036390  -72.567600
  C    -76.330100   -4.147610  -73.689200
  H    -77.040800   -4.519000  -74.398600
  H    -75.322900   -4.261460  -74.118800
  H    -76.421000   -3.049720  -73.460000
  H    -73.998600    0.152019  -66.956200
  H    -76.444900   -7.486300  -68.152100

 Total Charge           Charge          ....    0
 Multiplicity           Mult            ....    1
 Number of Electrons    NEL             ....  134
 Basis Dimension        Dim             ....  322

ORBITAL ENERGIES
----------------

  NO   OCC          E(Eh)            E(eV)
   0   2.0000     -88.966888     -2420.9121
   1   2.0000     -88.962635     -2420.7964
   2   2.0000     -10.333760      -281.1959
   3   2.0000     -10.322882      -280.8999
   4   2.0000     -10.314640      -280.6756
   5   2.0000     -10.310634      -280.5666
   6   2.0000     -10.302394      -280.3424
   7   2.0000     -10.300774      -280.2983
   8   2.0000     -10.298860      -280.2462
   9   2.0000     -10.295714      -280.1606
  10   2.0000     -10.294321      -280.1227
  11   2.0000     -10.292542      -280.0743
  12   2.0000     -10.290649      -280.0228
  13   2.0000     -10.287041      -279.9246
  14   2.0000     -10.282501      -279.8011
  15   2.0000     -10.280792      -279.7546
  16   2.0000      -8.081298      -219.9033
  17   2.0000      -8.076926      -219.7843
  18   2.0000      -6.039896      -164.3539
  19   2.0000      -6.035898      -164.2451
  20   2.0000      -6.035469      -164.2335
  21   2.0000      -6.031918      -164.1368
  22   2.0000      -6.031533      -164.1264
  23   2.0000      -6.027628      -164.0201
  24   2.0000      -1.009621       -27.4732
  25   2.0000      -0.985533       -26.8177
  26   2.0000      -0.913085       -24.8463
  27   2.0000      -0.907614       -24.6974
  28   2.0000      -0.871335       -23.7102
  29   2.0000      -0.850629       -23.1468
  30   2.0000      -0.842914       -22.9369
  31   2.0000      -0.816612       -22.2211
  32   2.0000      -0.779792       -21.2192
  33   2.0000      -0.771549       -20.9949
  34   2.0000      -0.710889       -19.3443
  35   2.0000      -0.705647       -19.2016
  36   2.0000      -0.693386       -18.8680
  37   2.0000      -0.658293       -17.9131
  38   2.0000      -0.639815       -17.4102
  39   2.0000      -0.614950       -16.7336
  40   2.0000      -0.601715       -16.3735
  41   2.0000      -0.576074       -15.6758
  42   2.0000      -0.569470       -15.4961
  43   2.0000      -0.555645       -15.1199
  44   2.0000      -0.532415       -14.4878
  45   2.0000      -0.524568       -14.2742
  46   2.0000      -0.514755       -14.0072
  47   2.0000      -0.508310       -13.8318
  48   2.0000      -0.505163       -13.7462
  49   2.0000      -0.499495       -13.5920
  50   2.0000      -0.489097       -13.3090
  51   2.0000      -0.474453       -12.9105
  52   2.0000      -0.472127       -12.8472
  53   2.0000      -0.466391       -12.6912
  54   2.0000      -0.460072       -12.5192
  55   2.0000      -0.454326       -12.3628
  56   2.0000      -0.448122       -12.1940
  57   2.0000      -0.438197       -11.9239
  58   2.0000      -0.429569       -11.6892
  59   2.0000      -0.428280       -11.6541
  60   2.0000      -0.423505       -11.5241
  61   2.0000      -0.416987       -11.3468
  62   2.0000      -0.407415       -11.0863
  63   2.0000      -0.347833        -9.4650
  64   2.0000      -0.333821        -9.0837
  65   2.0000      -0.330441        -8.9918
  66   2.0000      -0.293236        -7.9794
  67   0.0000       0.028011         0.7622
  68   0.0000       0.070725         1.9245
  69   0.0000       0.107381         2.9220
  70   0.0000       0.122658         3.3377
  71   0.0000       0.136460         3.7133

MULLIKEN ATOMIC CHARGES
-----------------------
   0 S :    0.112893
   1 C :   -0.130455
   2 C :   -0.067918
   3 C :    0.014187
   4 C :   -0.161316
   5 H :    0.028575
   6 C :    0.074784
   7 H :    0.019025
   8 H :    0.045288
   9 C :   -0.102092
  10 H :    0.034089
  11 H :    0.030904
  12 C :   -0.072808
  13 H :    0.043953
  14 H :    0.039493
  15 H :    0.039302
  16 S :    0.082288
  17 C :   -0.061194
  18 C :   -0.054178
  19 C :   -0.024151
  20 C :   -0.145572
  21 H :    0.032847
  22 C :    0.099363
  23 H :    0.035988
  24 H :    0.009181
  25 C :   -0.146482
  26 H :    0.028383
  27 H :    0.037576
  28 C :   -0.019513
  29 H :    0.038641
  30 H :    0.024436
  31 H :    0.037994
  32 H :    0.046960
  33 H :    0.029529
Sum of atomic charges:   -0.0000000

LOEWDIN ATOMIC CHARGES
----------------------
   0 S :    0.393713
   1 C :   -0.189572
   2 C :   -0.065811
   3 C :   -0.068947
   4 C :   -0.194792
   5 H :    0.036126
   6 C :   -0.020167
   7 H :    0.028237
   8 H :    0.036439
   9 C :   -0.050672
  10 H :    0.027496
  11 H :    0.025648
  12 C :   -0.079218
  13 H :    0.033891
  14 H :    0.021289
  15 H :    0.035016
  16 S :    0.380648
  17 C :   -0.153039
  18 C :   -0.071491
  19 C :   -0.064213
  20 C :   -0.190073
  21 H :    0.040833
  22 C :   -0.023861
  23 H :    0.031141
  24 H :    0.021971
  25 C :   -0.043314
  26 H :    0.016622
  27 H :    0.024221
  28 C :   -0.063283
  29 H :    0.024026
  30 H :    0.025720
  31 H :    0.031447
  32 H :    0.028741
  33 H :    0.015226

  Mayer bond orders larger than 0.100000
B(  0-S ,  1-C ) :   1.1158 B(  0-S ,  4-C ) :   1.1474 B(  1-C ,  2-C ) :   1.6544
B(  1-C , 32-H ) :   0.9605 B(  2-C ,  3-C ) :   1.2034 B(  2-C ,  6-C ) :   1.0224
B(  3-C ,  4-C ) :   1.5858 B(  3-C ,  5-H ) :   0.9875 B(  4-C , 20-C ) :   1.0357
B(  6-C ,  7-H ) :   0.9434 B(  6-C ,  8-H ) :   0.9421 B(  6-C ,  9-C ) :   1.0400
B(  9-C , 10-H ) :   0.9594 B(  9-C , 11-H ) :   0.9589 B(  9-C , 12-C ) :   1.0739
B( 12-C , 13-H ) :   0.9748 B( 12-C , 14-H ) :   0.9761 B( 12-C , 15-H ) :   0.9735
B( 16-S , 17-C ) :   1.1489 B( 16-S , 20-C ) :   1.1195 B( 17-C , 18-C ) :   1.6130
B( 17-C , 20-C ) :   0.1023 B( 17-C , 33-H ) :   0.9678 B( 18-C , 19-C ) :   1.2343
B( 18-C , 21-H ) :   0.9861 B( 19-C , 20-C ) :   1.6468 B( 19-C , 22-C ) :   1.0263
B( 22-C , 23-H ) :   0.9252 B( 22-C , 24-H ) :   0.9274 B( 22-C , 25-C ) :   1.0888
B( 25-C , 26-H ) :   0.9580 B( 25-C , 27-H ) :   0.9418 B( 25-C , 28-C ) :   1.0833
B( 28-C , 29-H ) :   0.9726 B( 28-C , 30-H ) :   0.9722 B( 28-C , 31-H ) :   0.9732

Dispersion correction           -0.013214248
FINAL SINGLE POINT ENERGY     -1339.875660233993

DIPOLE MOMENT
-------------
                                X             Y             Z
Electronic contribution:    -10.89609     -11.23041      24.67467
Nuclear contribution   :     11.05274      11.38090     -25.30033
                        -----------------------------------------
Total Dipole Moment    :      0.15666       0.15049      -0.62566
                        -----------------------------------------
Magnitude (a.u.)       :      0.66230
Magnitude (Debye)      :      1.68343

Rotational constants in cm-1:     0.017570     0.007888     0.006075
Rotational constants in MHz :   526.732853   236.487043   182.136766

                             ****ORCA TERMINATED NORMALLY****
TOTAL RUN TIME: 0 days 0 hours 0 minutes 20 seconds 979 msec
