                         Program Version 4.2.1 -  RELEASE  -
|  1> ! wB97X-D3 SP def2-SVP
|  2> %pal
|  3> nprocs 24
|  4> end
|  5>
|  6> * xyz 0 1
|  7> S 	 -64.1966 	 16.881 	 -115.921
|  8> C 	 -63.1934 	 16.7982 	 -117.374
|  9> C 	 -63.0717 	 18.0248 	 -117.97
| 10> C 	 -63.7466 	 19.0369 	 -117.238
| 11> C 	 -64.5019 	 18.6099 	 -116.138
| 12> H 	 -63.6662 	 20.082 	 -117.466
| 13> C 	 -62.3664 	 18.2867 	 -119.306
| 14> H 	 -63.0529 	 18.8174 	 -120.002
| 15> H 	 -62.1182 	 17.2498 	 -119.764
| 16> C 	 -61.047 	 19.1439 	 -119.215
| 17> H 	 -61.2637 	 20.0081 	 -118.631
| 18> H 	 -60.3553 	 18.5194 	 -118.615
| 19> C 	 -60.5193 	 19.5396 	 -120.578
| 20> H 	 -61.1962 	 19.8844 	 -121.318
| 21> H 	 -59.847 	 20.3737 	 -120.571
| 22> H 	 -59.9127 	 18.7084 	 -120.886
| 23> S 	 -65.3616 	 18.8433 	 -113.537
| 24> C 	 -65.8449 	 20.3604 	 -112.867
| 25> C 	 -65.8392 	 21.3428 	 -113.796
| 26> C 	 -65.6266 	 20.7969 	 -115.129
| 27> C 	 -65.1563 	 19.4791 	 -115.107
| 28> H 	 -66.1309 	 22.3536 	 -113.539
| 29> C 	 -65.6219 	 21.7253 	 -116.35
| 30> H 	 -66.5248 	 22.3133 	 -116.512
| 31> H 	 -65.618 	 21.124 	 -117.288
| 32> C 	 -64.398 	 22.6717 	 -116.401
| 33> H 	 -63.4511 	 22.107 	 -116.302
| 34> H 	 -64.4198 	 23.2876 	 -115.502
| 35> C 	 -64.3557 	 23.4715 	 -117.691
| 36> H 	 -64.2368 	 22.7402 	 -118.522
| 37> H 	 -63.4064 	 24.0048 	 -117.778
| 38> H 	 -65.2744 	 24.0579 	 -117.861
| 39> H 	 -62.8826 	 15.9127 	 -117.906
| 40> H 	 -65.8341 	 20.5485 	 -111.782
| 41> *
| 42>
| 43>                          ****END OF INPUT****

CARTESIAN COORDINATES (ANGSTROEM)
---------------------------------
  S    -64.196600   16.881000  -115.921000
  C    -63.193400   16.798200  -117.374000
  C    -63.071700   18.024800  -117.970000
  C    -63.746600   19.036900  -117.238000
  C    -64.501900   18.609900  -116.138000
  H    -63.666200   20.082000  -117.466000
  C    -62.366400   18.286700  -119.306000
  H    -63.052900   18.817400  -120.002000
  H    -62.118200   17.249800  -119.764000
  C    -61.047000   19.143900  -119.215000
  H    -61.263700   20.008100  -118.631000
  H    -60.355300   18.519400  -118.615000
  C    -60.519300   19.539600  -120.578000
  H    -61.196200   19.884400  -121.318000
  H    -59.847000   20.373700  -120.571000
  H    -59.912700   18.708400  -120.886000
  S    -65.361600   18.843300  -113.537000
  C    -65.844900   20.360400  -112.867000
  C    -65.839200   21.342800  -113.796000
  C    -65.626600   20.796900  -115.129000
  C    -65.156300   19.479100  -115.107000
  H    -66.130900   22.353600  -113.539000
  C    -65.621900   21.725300  -116.350000
  H    -66.524800   22.313300  -116.512000
  H    -65.618000   21.124000  -117.288000
  C    -64.398000   22.671700  -116.401000
  H    -63.451100   22.107000  -116.302000
  H    -64.419800   23.287600  -115.502000
  C    -64.355700   23.471500  -117.691000
  H    -64.236800   22.740200  -118.522000
  H    -63.406400   24.004800  -117.778000
  H    -65.274400   24.057900  -117.861000
  H    -62.882600   15.912700  -117.906000
  H    -65.834100   20.548500  -111.782000

 Total Charge           Charge          ....    0
 Multiplicity           Mult            ....    1
 Number of Electrons    NEL             ....  134
 Basis Dimension        Dim             ....  322

ORBITAL ENERGIES
----------------

  NO   OCC          E(Eh)            E(eV)
   0   2.0000     -88.969335     -2420.9787
   1   2.0000     -88.963717     -2420.8258
   2   2.0000     -10.340897      -281.3901
   3   2.0000     -10.333489      -281.1885
   4   2.0000     -10.315401      -280.6963
   5   2.0000     -10.315270      -280.6928
   6   2.0000     -10.308822      -280.5173
   7   2.0000     -10.306064      -280.4423
   8   2.0000     -10.301149      -280.3085
   9   2.0000     -10.295831      -280.1638
  10   2.0000     -10.294748      -280.1343
  11   2.0000     -10.294191      -280.1192
  12   2.0000     -10.290186      -280.0102
  13   2.0000     -10.288605      -279.9672
  14   2.0000     -10.284678      -279.8603
  15   2.0000     -10.273650      -279.5602
  16   2.0000      -8.083244      -219.9563
  17   2.0000      -8.080052      -219.8694
  18   2.0000      -6.041999      -164.4111
  19   2.0000      -6.038549      -164.3173
  20   2.0000      -6.037835      -164.2979
  21   2.0000      -6.034289      -164.2013
  22   2.0000      -6.033813      -164.1884
  23   2.0000      -6.030776      -164.1058
  24   2.0000      -1.010635       -27.5008
  25   2.0000      -0.987418       -26.8690
  26   2.0000      -0.909893       -24.7594
  27   2.0000      -0.908043       -24.7091
  28   2.0000      -0.872993       -23.7554
  29   2.0000      -0.851653       -23.1747
  30   2.0000      -0.846215       -23.0267
  31   2.0000      -0.818965       -22.2852
  32   2.0000      -0.781243       -21.2587
  33   2.0000      -0.772134       -21.0108
  34   2.0000      -0.707558       -19.2536
  35   2.0000      -0.699054       -19.0222
  36   2.0000      -0.695559       -18.9271
  37   2.0000      -0.663363       -18.0510
  38   2.0000      -0.634903       -17.2766
  39   2.0000      -0.625034       -17.0081
  40   2.0000      -0.600220       -16.3328
  41   2.0000      -0.572201       -15.5704
  42   2.0000      -0.568191       -15.4613
  43   2.0000      -0.562450       -15.3050
  44   2.0000      -0.528350       -14.3771
  45   2.0000      -0.523826       -14.2540
  46   2.0000      -0.518668       -14.1137
  47   2.0000      -0.507039       -13.7972
  48   2.0000      -0.505360       -13.7515
  49   2.0000      -0.500436       -13.6176
  50   2.0000      -0.496438       -13.5088
  51   2.0000      -0.484309       -13.1787
  52   2.0000      -0.472243       -12.8504
  53   2.0000      -0.464297       -12.6342
  54   2.0000      -0.461781       -12.5657
  55   2.0000      -0.453999       -12.3540
  56   2.0000      -0.443592       -12.0708
  57   2.0000      -0.438628       -11.9357
  58   2.0000      -0.430522       -11.7151
  59   2.0000      -0.427061       -11.6209
  60   2.0000      -0.420919       -11.4538
  61   2.0000      -0.417669       -11.3654
  62   2.0000      -0.413158       -11.2426
  63   2.0000      -0.363940        -9.9033
  64   2.0000      -0.334806        -9.1105
  65   2.0000      -0.326804        -8.8928
  66   2.0000      -0.287524        -7.8239
  67   0.0000       0.021300         0.5796
  68   0.0000       0.085532         2.3274
  69   0.0000       0.099752         2.7144
  70   0.0000       0.115854         3.1525
  71   0.0000       0.123357         3.3567

MULLIKEN ATOMIC CHARGES
-----------------------
   0 S :    0.094719
   1 C :   -0.110287
   2 C :   -0.062929
   3 C :    0.004769
   4 C :   -0.086481
   5 H :   -0.013800
   6 C :    0.006835
   7 H :    0.039385
   8 H :    0.032692
   9 C :   -0.075017
  10 H :    0.020791
  11 H :    0.037221
  12 C :   -0.008546
  13 H :    0.025540
  14 H :    0.018418
  15 H :    0.030757
  16 S :    0.094742
  17 C :   -0.086914
  18 C :   -0.030891
  19 C :   -0.058257
  20 C :   -0.114008
  21 H :    0.028072
  22 C :    0.017321
  23 H :    0.024510
  24 H :    0.018811
  25 C :   -0.088301
  26 H :    0.032247
  27 H :    0.023328
  28 C :   -0.033164
  29 H :    0.018808
  30 H :    0.037878
  31 H :    0.045290
  32 H :    0.045079
  33 H :    0.071381
Sum of atomic charges:    0.0000000

LOEWDIN ATOMIC CHARGES
----------------------
   0 S :    0.387822
   1 C :   -0.189154
   2 C :   -0.068507
   3 C :   -0.063656
   4 C :   -0.177592
   5 H :    0.023254
   6 C :   -0.032398
   7 H :    0.030759
   8 H :    0.034668
   9 C :   -0.037506
  10 H :    0.015483
  11 H :    0.030346
  12 C :   -0.065891
  13 H :    0.023398
  14 H :    0.026117
  15 H :    0.029130
  16 S :    0.425044
  17 C :   -0.194700
  18 C :   -0.068339
  19 C :   -0.058827
  20 C :   -0.202350
  21 H :    0.034183
  22 C :   -0.040910
  23 H :    0.028989
  24 H :    0.027894
  25 C :   -0.045148
  26 H :    0.025133
  27 H :    0.019949
  28 C :   -0.068747
  29 H :    0.025832
  30 H :    0.029842
  31 H :    0.028868
  32 H :    0.030071
  33 H :    0.036945

  Mayer bond orders larger than 0.100000
B(  0-S ,  1-C ) :   1.1282 B(  0-S ,  4-C ) :   1.1429 B(  1-C ,  2-C ) :   1.6259
B(  1-C , 32-H ) :   0.9594 B(  2-C ,  3-C ) :   1.2530 B(  2-C ,  6-C ) :   1.0187
B(  3-C ,  4-C ) :   1.5620 B(  3-C ,  5-H ) :   0.9896 B(  4-C , 20-C ) :   1.0498
B(  6-C ,  7-H ) :   0.9462 B(  6-C ,  8-H ) :   0.9463 B(  6-C ,  9-C ) :   1.0483
B(  9-C , 10-H ) :   0.9623 B(  9-C , 11-H ) :   0.9577 B(  9-C , 12-C ) :   1.0773
B( 12-C , 13-H ) :   0.9735 B( 12-C , 14-H ) :   0.9709 B( 12-C , 15-H ) :   0.9760
B( 16-S , 17-C ) :   1.1582 B( 16-S , 20-C ) :   1.1515 B( 17-C , 18-C ) :   1.6275
B( 17-C , 33-H ) :   0.9610 B( 18-C , 19-C ) :   1.2307 B( 18-C , 21-H ) :   0.9887
B( 19-C , 20-C ) :   1.5823 B( 19-C , 22-C ) :   1.0545 B( 22-C , 23-H ) :   0.9360
B( 22-C , 24-H ) :   0.9405 B( 22-C , 25-C ) :   1.0500 B( 25-C , 26-H ) :   0.9520
B( 25-C , 27-H ) :   0.9522 B( 25-C , 28-C ) :   1.0830 B( 28-C , 29-H ) :   0.9712
B( 28-C , 30-H ) :   0.9701 B( 28-C , 31-H ) :   0.9731

Dispersion correction           -0.014065014
FINAL SINGLE POINT ENERGY     -1339.881687139152

DIPOLE MOMENT
-------------
                                X             Y             Z
Electronic contribution:    -13.62695     -19.79130      24.17505
Nuclear contribution   :     13.97769      20.43708     -24.60938
                        -----------------------------------------
Total Dipole Moment    :      0.35074       0.64578      -0.43432
                        -----------------------------------------
Magnitude (a.u.)       :      0.85363
Magnitude (Debye)      :      2.16976

Rotational constants in cm-1:     0.017289     0.009393     0.006388
Rotational constants in MHz :   518.322702   281.594722   191.495852

                             ****ORCA TERMINATED NORMALLY****
TOTAL RUN TIME: 0 days 0 hours 0 minutes 21 seconds 776 msec
