                         Program Version 4.2.1 -  RELEASE  -
|  1> ! wB97X-D3 SP def2-SVP
|  2> %pal
|  3> nprocs 24
|  4> end
|  5>
|  6> * xyz 0 1
|  7> S 	 -114.525 	 60.3405 	 -29.8854
|  8> C 	 -113.187 	 60.6823 	 -28.8305
|  9> C 	 -113.542 	 61.6264 	 -27.8355
| 10> C 	 -114.901 	 61.9733 	 -27.9116
| 11> C 	 -115.559 	 61.4002 	 -28.9224
| 12> H 	 -115.384 	 62.7485 	 -27.2477
| 13> C 	 -112.683 	 62.3863 	 -26.818
| 14> H 	 -113.308 	 63.3172 	 -26.7073
| 15> H 	 -111.661 	 62.4433 	 -27.2895
| 16> C 	 -112.452 	 61.6373 	 -25.4735
| 17> H 	 -113.398 	 61.1369 	 -25.1945
| 18> H 	 -111.707 	 60.8943 	 -25.6473
| 19> C 	 -111.988 	 62.6341 	 -24.366
| 20> H 	 -112.744 	 63.4182 	 -24.0682
| 21> H 	 -112.009 	 61.994 	 -23.4644
| 22> H 	 -110.993 	 63.0701 	 -24.5838
| 23> S 	 -117.394 	 63.5253 	 -29.2254
| 24> C 	 -118.83 	 63.2057 	 -30.1365
| 25> C 	 -119.13 	 61.8527 	 -30.1025
| 26> C 	 -118.035 	 61.0156 	 -29.6918
| 27> C 	 -116.954 	 61.7789 	 -29.2525
| 28> H 	 -120.189 	 61.5028 	 -30.3064
| 29> C 	 -118.081 	 59.487 	 -29.7758
| 30> H 	 -117.129 	 59.0593 	 -29.5915
| 31> H 	 -118.31 	 59.1631 	 -30.8022
| 32> C 	 -119.25 	 58.8535 	 -28.8998
| 33> H 	 -119.147 	 57.748 	 -28.9358
| 34> H 	 -120.293 	 59.1135 	 -29.2331
| 35> C 	 -119.165 	 59.339 	 -27.412
| 36> H 	 -119.885 	 58.665 	 -26.8244
| 37> H 	 -119.492 	 60.4026 	 -27.3187
| 38> H 	 -118.145 	 59.2104 	 -27.0545
| 39> H 	 -112.161 	 60.2037 	 -28.919
| 40> H 	 -119.566 	 63.9536 	 -30.3808
| 41> *
| 42>
| 43>                          ****END OF INPUT****

CARTESIAN COORDINATES (ANGSTROEM)
---------------------------------
  S    -114.525000   60.340500  -29.885400
  C    -113.187000   60.682300  -28.830500
  C    -113.542000   61.626400  -27.835500
  C    -114.901000   61.973300  -27.911600
  C    -115.559000   61.400200  -28.922400
  H    -115.384000   62.748500  -27.247700
  C    -112.683000   62.386300  -26.818000
  H    -113.308000   63.317200  -26.707300
  H    -111.661000   62.443300  -27.289500
  C    -112.452000   61.637300  -25.473500
  H    -113.398000   61.136900  -25.194500
  H    -111.707000   60.894300  -25.647300
  C    -111.988000   62.634100  -24.366000
  H    -112.744000   63.418200  -24.068200
  H    -112.009000   61.994000  -23.464400
  H    -110.993000   63.070100  -24.583800
  S    -117.394000   63.525300  -29.225400
  C    -118.830000   63.205700  -30.136500
  C    -119.130000   61.852700  -30.102500
  C    -118.035000   61.015600  -29.691800
  C    -116.954000   61.778900  -29.252500
  H    -120.189000   61.502800  -30.306400
  C    -118.081000   59.487000  -29.775800
  H    -117.129000   59.059300  -29.591500
  H    -118.310000   59.163100  -30.802200
  C    -119.250000   58.853500  -28.899800
  H    -119.147000   57.748000  -28.935800
  H    -120.293000   59.113500  -29.233100
  C    -119.165000   59.339000  -27.412000
  H    -119.885000   58.665000  -26.824400
  H    -119.492000   60.402600  -27.318700
  H    -118.145000   59.210400  -27.054500
  H    -112.161000   60.203700  -28.919000
  H    -119.566000   63.953600  -30.380800

 Total Charge           Charge          ....    0
 Multiplicity           Mult            ....    1
 Number of Electrons    NEL             ....  134
 Basis Dimension        Dim             ....  322

ORBITAL ENERGIES
----------------

  NO   OCC          E(Eh)            E(eV)
   0   2.0000     -88.971774     -2421.0450
   1   2.0000     -88.965016     -2420.8612
   2   2.0000     -10.330832      -281.1162
   3   2.0000     -10.326484      -280.9979
   4   2.0000     -10.320874      -280.8453
   5   2.0000     -10.317567      -280.7553
   6   2.0000     -10.307062      -280.4694
   7   2.0000     -10.300074      -280.2793
   8   2.0000     -10.299599      -280.2663
   9   2.0000     -10.299171      -280.2547
  10   2.0000     -10.297051      -280.1970
  11   2.0000     -10.294220      -280.1200
  12   2.0000     -10.289766      -279.9988
  13   2.0000     -10.287923      -279.9486
  14   2.0000     -10.287866      -279.9471
  15   2.0000     -10.281242      -279.7668
  16   2.0000      -8.085813      -220.0262
  17   2.0000      -8.079367      -219.8508
  18   2.0000      -6.044450      -164.4778
  19   2.0000      -6.040396      -164.3675
  20   2.0000      -6.037977      -164.3017
  21   2.0000      -6.036506      -164.2617
  22   2.0000      -6.034155      -164.1977
  23   2.0000      -6.029825      -164.0799
  24   2.0000      -1.005571       -27.3630
  25   2.0000      -0.983178       -26.7536
  26   2.0000      -0.905496       -24.6398
  27   2.0000      -0.898422       -24.4473
  28   2.0000      -0.865719       -23.5574
  29   2.0000      -0.852251       -23.1909
  30   2.0000      -0.838893       -22.8274
  31   2.0000      -0.807027       -21.9603
  32   2.0000      -0.777971       -21.1697
  33   2.0000      -0.765938       -20.8422
  34   2.0000      -0.700229       -19.0542
  35   2.0000      -0.694812       -18.9068
  36   2.0000      -0.688651       -18.7392
  37   2.0000      -0.656376       -17.8609
  38   2.0000      -0.632954       -17.2236
  39   2.0000      -0.612640       -16.6708
  40   2.0000      -0.596182       -16.2229
  41   2.0000      -0.563090       -15.3225
  42   2.0000      -0.557246       -15.1634
  43   2.0000      -0.541975       -14.7479
  44   2.0000      -0.532703       -14.4956
  45   2.0000      -0.523181       -14.2365
  46   2.0000      -0.518267       -14.1028
  47   2.0000      -0.509798       -13.8723
  48   2.0000      -0.497736       -13.5441
  49   2.0000      -0.488908       -13.3039
  50   2.0000      -0.486995       -13.2518
  51   2.0000      -0.476426       -12.9642
  52   2.0000      -0.467768       -12.7286
  53   2.0000      -0.464297       -12.6342
  54   2.0000      -0.460353       -12.5268
  55   2.0000      -0.452556       -12.3147
  56   2.0000      -0.441676       -12.0186
  57   2.0000      -0.435371       -11.8470
  58   2.0000      -0.428166       -11.6510
  59   2.0000      -0.425540       -11.5795
  60   2.0000      -0.420050       -11.4301
  61   2.0000      -0.412961       -11.2372
  62   2.0000      -0.410958       -11.1827
  63   2.0000      -0.352583        -9.5943
  64   2.0000      -0.329602        -8.9689
  65   2.0000      -0.326258        -8.8779
  66   2.0000      -0.287198        -7.8151
  67   0.0000       0.027858         0.7581
  68   0.0000       0.064151         1.7456
  69   0.0000       0.101482         2.7615
  70   0.0000       0.106735         2.9044
  71   0.0000       0.129752         3.5307

MULLIKEN ATOMIC CHARGES
-----------------------
   0 S :    0.123870
   1 C :   -0.165356
   2 C :   -0.078271
   3 C :   -0.043464
   4 C :   -0.097779
   5 H :    0.037114
   6 C :    0.035564
   7 H :    0.040447
   8 H :    0.038277
   9 C :   -0.065976
  10 H :    0.034393
  11 H :    0.026473
  12 C :   -0.072511
  13 H :    0.042447
  14 H :    0.035533
  15 H :    0.048917
  16 S :    0.094517
  17 C :   -0.086644
  18 C :   -0.063657
  19 C :   -0.050776
  20 C :   -0.166857
  21 H :    0.044271
  22 C :    0.104425
  23 H :    0.008315
  24 H :    0.035530
  25 C :   -0.125972
  26 H :    0.042527
  27 H :    0.039694
  28 C :   -0.080810
  29 H :    0.041977
  30 H :    0.054268
  31 H :    0.039587
  32 H :    0.070528
  33 H :    0.059398
Sum of atomic charges:   -0.0000000

LOEWDIN ATOMIC CHARGES
----------------------
   0 S :    0.412417
   1 C :   -0.222672
   2 C :   -0.065784
   3 C :   -0.082171
   4 C :   -0.186166
   5 H :    0.039679
   6 C :   -0.036048
   7 H :    0.038255
   8 H :    0.038130
   9 C :   -0.037847
  10 H :    0.025825
  11 H :    0.020664
  12 C :   -0.074804
  13 H :    0.031049
  14 H :    0.029784
  15 H :    0.029110
  16 S :    0.388148
  17 C :   -0.187924
  18 C :   -0.077099
  19 C :   -0.056444
  20 C :   -0.177856
  21 H :    0.040426
  22 C :   -0.029226
  23 H :    0.015642
  24 H :    0.035184
  25 C :   -0.043245
  26 H :    0.027120
  27 H :    0.024894
  28 C :   -0.074236
  29 H :    0.031613
  30 H :    0.030285
  31 H :    0.023483
  32 H :    0.041282
  33 H :    0.028531

  Mayer bond orders larger than 0.100000
B(  0-S ,  1-C ) :   1.1400 B(  0-S ,  4-C ) :   1.1381 B(  1-C ,  2-C ) :   1.5911
B(  1-C , 32-H ) :   0.9604 B(  2-C ,  3-C ) :   1.2597 B(  2-C ,  6-C ) :   1.0100
B(  3-C ,  4-C ) :   1.5778 B(  3-C ,  5-H ) :   0.9816 B(  4-C , 20-C ) :   1.0458
B(  6-C ,  7-H ) :   0.9484 B(  6-C ,  8-H ) :   0.9383 B(  6-C ,  9-C ) :   1.0591
B(  9-C , 10-H ) :   0.9607 B(  9-C , 11-H ) :   0.9550 B(  9-C , 12-C ) :   1.0775
B( 12-C , 13-H ) :   0.9764 B( 12-C , 14-H ) :   0.9749 B( 12-C , 15-H ) :   0.9734
B( 16-S , 17-C ) :   1.1528 B( 16-S , 20-C ) :   1.1213 B( 17-C , 18-C ) :   1.6275
B( 17-C , 33-H ) :   0.9654 B( 18-C , 19-C ) :   1.2199 B( 18-C , 21-H ) :   0.9759
B( 19-C , 20-C ) :   1.5927 B( 19-C , 22-C ) :   1.0457 B( 22-C , 23-H ) :   0.9328
B( 22-C , 24-H ) :   0.9384 B( 22-C , 25-C ) :   1.0555 B( 25-C , 26-H ) :   0.9604
B( 25-C , 27-H ) :   0.9595 B( 25-C , 28-C ) :   1.0655 B( 28-C , 29-H ) :   0.9755
B( 28-C , 30-H ) :   0.9714 B( 28-C , 31-H ) :   0.9794

Dispersion correction           -0.014325846
FINAL SINGLE POINT ENERGY     -1339.868969517080

DIPOLE MOMENT
-------------
                                X             Y             Z
Electronic contribution:     -1.83694       7.00295     -18.33070
Nuclear contribution   :      1.78479      -7.16101      18.63934
                        -----------------------------------------
Total Dipole Moment    :     -0.05215      -0.15806       0.30864
                        -----------------------------------------
Magnitude (a.u.)       :      0.35066
Magnitude (Debye)      :      0.89130

Rotational constants in cm-1:     0.020389     0.007400     0.006989
Rotational constants in MHz :   611.241043   221.851458   209.520837

                             ****ORCA TERMINATED NORMALLY****
TOTAL RUN TIME: 0 days 0 hours 0 minutes 21 seconds 278 msec
