                         Program Version 4.2.1 -  RELEASE  -
|  1> ! wB97X-D3 SP def2-SVP
|  2> %pal
|  3> nprocs 24
|  4> end
|  5>
|  6> * xyz 0 1
|  7> S 	 -55.6892 	 -0.253332 	 -33.2012
|  8> C 	 -56.8846 	 -0.633132 	 -31.9858
|  9> C 	 -57.8255 	 0.377741 	 -31.8919
| 10> C 	 -57.5264 	 1.4108 	 -32.8057
| 11> C 	 -56.365 	 1.20712 	 -33.4898
| 12> H 	 -58.0301 	 2.37394 	 -32.9822
| 13> C 	 -59.0047 	 0.4853 	 -30.927
| 14> H 	 -59.0252 	 1.55156 	 -30.6039
| 15> H 	 -58.7397 	 -0.0555063 	 -30.0011
| 16> C 	 -60.3202 	 -0.208694 	 -31.411
| 17> H 	 -60.0951 	 -1.2128 	 -31.622
| 18> H 	 -61.1037 	 -0.178823 	 -30.6583
| 19> C 	 -61.0242 	 0.468402 	 -32.5649
| 20> H 	 -60.5668 	 0.378621 	 -33.5449
| 21> H 	 -62.0471 	 0.111158 	 -32.6368
| 22> H 	 -61.0164 	 1.52344 	 -32.3358
| 23> S 	 -55.4852 	 1.15989 	 -35.9838
| 24> C 	 -54.9305 	 2.64487 	 -36.7278
| 25> C 	 -54.7784 	 3.74813 	 -35.8791
| 26> C 	 -55.3503 	 3.40818 	 -34.6281
| 27> C 	 -55.738 	 2.04147 	 -34.5307
| 28> H 	 -54.5067 	 4.72963 	 -36.2458
| 29> C 	 -55.4292 	 4.35332 	 -33.5147
| 30> H 	 -54.4604 	 4.84564 	 -33.4322
| 31> H 	 -55.4636 	 3.87995 	 -32.5567
| 32> C 	 -56.5988 	 5.33516 	 -33.6401
| 33> H 	 -56.5938 	 5.98969 	 -32.7321
| 34> H 	 -57.532 	 4.81867 	 -33.7344
| 35> C 	 -56.4434 	 6.41008 	 -34.6824
| 36> H 	 -55.392 	 6.74689 	 -34.8574
| 37> H 	 -57.0459 	 7.28571 	 -34.3605
| 38> H 	 -56.6568 	 5.98741 	 -35.6543
| 39> H 	 -56.9647 	 -1.56117 	 -31.4015
| 40> H 	 -54.692 	 2.66251 	 -37.8087
| 41> *
| 42>
| 43>                          ****END OF INPUT****

CARTESIAN COORDINATES (ANGSTROEM)
---------------------------------
  S    -55.689200   -0.253332  -33.201200
  C    -56.884600   -0.633132  -31.985800
  C    -57.825500    0.377741  -31.891900
  C    -57.526400    1.410800  -32.805700
  C    -56.365000    1.207120  -33.489800
  H    -58.030100    2.373940  -32.982200
  C    -59.004700    0.485300  -30.927000
  H    -59.025200    1.551560  -30.603900
  H    -58.739700   -0.055506  -30.001100
  C    -60.320200   -0.208694  -31.411000
  H    -60.095100   -1.212800  -31.622000
  H    -61.103700   -0.178823  -30.658300
  C    -61.024200    0.468402  -32.564900
  H    -60.566800    0.378621  -33.544900
  H    -62.047100    0.111158  -32.636800
  H    -61.016400    1.523440  -32.335800
  S    -55.485200    1.159890  -35.983800
  C    -54.930500    2.644870  -36.727800
  C    -54.778400    3.748130  -35.879100
  C    -55.350300    3.408180  -34.628100
  C    -55.738000    2.041470  -34.530700
  H    -54.506700    4.729630  -36.245800
  C    -55.429200    4.353320  -33.514700
  H    -54.460400    4.845640  -33.432200
  H    -55.463600    3.879950  -32.556700
  C    -56.598800    5.335160  -33.640100
  H    -56.593800    5.989690  -32.732100
  H    -57.532000    4.818670  -33.734400
  C    -56.443400    6.410080  -34.682400
  H    -55.392000    6.746890  -34.857400
  H    -57.045900    7.285710  -34.360500
  H    -56.656800    5.987410  -35.654300
  H    -56.964700   -1.561170  -31.401500
  H    -54.692000    2.662510  -37.808700

 Total Charge           Charge          ....    0
 Multiplicity           Mult            ....    1
 Number of Electrons    NEL             ....  134
 Basis Dimension        Dim             ....  322

ORBITAL ENERGIES
----------------

  NO   OCC          E(Eh)            E(eV)
   0   2.0000     -88.969048     -2420.9709
   1   2.0000     -88.964986     -2420.8603
   2   2.0000     -10.323371      -280.9132
   3   2.0000     -10.320403      -280.8324
   4   2.0000     -10.316172      -280.7173
   5   2.0000     -10.310679      -280.5678
   6   2.0000     -10.302369      -280.3417
   7   2.0000     -10.299370      -280.2601
   8   2.0000     -10.298026      -280.2235
   9   2.0000     -10.297635      -280.2129
  10   2.0000     -10.285216      -279.8750
  11   2.0000     -10.284305      -279.8502
  12   2.0000     -10.283279      -279.8222
  13   2.0000     -10.281154      -279.7644
  14   2.0000     -10.278433      -279.6904
  15   2.0000     -10.269198      -279.4391
  16   2.0000      -8.084348      -219.9863
  17   2.0000      -8.082240      -219.9289
  18   2.0000      -6.042590      -164.4272
  19   2.0000      -6.040456      -164.3692
  20   2.0000      -6.038819      -164.3246
  21   2.0000      -6.036354      -164.2575
  22   2.0000      -6.035309      -164.2291
  23   2.0000      -6.033160      -164.1706
  24   2.0000      -1.021612       -27.7995
  25   2.0000      -0.989874       -26.9358
  26   2.0000      -0.918360       -24.9899
  27   2.0000      -0.910786       -24.7837
  28   2.0000      -0.871874       -23.7249
  29   2.0000      -0.853355       -23.2210
  30   2.0000      -0.848313       -23.0838
  31   2.0000      -0.815414       -22.1885
  32   2.0000      -0.786863       -21.4116
  33   2.0000      -0.768864       -20.9218
  34   2.0000      -0.703539       -19.1443
  35   2.0000      -0.701224       -19.0813
  36   2.0000      -0.683965       -18.6116
  37   2.0000      -0.666725       -18.1425
  38   2.0000      -0.640596       -17.4315
  39   2.0000      -0.614259       -16.7148
  40   2.0000      -0.600895       -16.3512
  41   2.0000      -0.573749       -15.6125
  42   2.0000      -0.557832       -15.1794
  43   2.0000      -0.552028       -15.0214
  44   2.0000      -0.546361       -14.8672
  45   2.0000      -0.539545       -14.6818
  46   2.0000      -0.516885       -14.0651
  47   2.0000      -0.509441       -13.8626
  48   2.0000      -0.504540       -13.7292
  49   2.0000      -0.495026       -13.4703
  50   2.0000      -0.486591       -13.2408
  51   2.0000      -0.479633       -13.0515
  52   2.0000      -0.470662       -12.8074
  53   2.0000      -0.469642       -12.7796
  54   2.0000      -0.460356       -12.5269
  55   2.0000      -0.456986       -12.4352
  56   2.0000      -0.441201       -12.0057
  57   2.0000      -0.437017       -11.8918
  58   2.0000      -0.433147       -11.7865
  59   2.0000      -0.423774       -11.5315
  60   2.0000      -0.418528       -11.3887
  61   2.0000      -0.417322       -11.3559
  62   2.0000      -0.408979       -11.1289
  63   2.0000      -0.346253        -9.4220
  64   2.0000      -0.334471        -9.1014
  65   2.0000      -0.329565        -8.9679
  66   2.0000      -0.288132        -7.8405
  67   0.0000       0.038326         1.0429
  68   0.0000       0.066580         1.8117
  69   0.0000       0.107000         2.9116
  70   0.0000       0.120496         3.2789
  71   0.0000       0.131506         3.5785

MULLIKEN ATOMIC CHARGES
-----------------------
   0 S :    0.122484
   1 C :   -0.132301
   2 C :   -0.080382
   3 C :    0.018065
   4 C :   -0.150653
   5 H :    0.005958
   6 C :    0.039490
   7 H :    0.038458
   8 H :    0.023348
   9 C :   -0.030315
  10 H :    0.017219
  11 H :    0.027260
  12 C :   -0.050877
  13 H :    0.037690
  14 H :    0.032051
  15 H :    0.018182
  16 S :    0.121561
  17 C :   -0.113193
  18 C :   -0.019977
  19 C :   -0.041648
  20 C :   -0.157472
  21 H :    0.024634
  22 C :    0.074443
  23 H :    0.019802
  24 H :    0.016236
  25 C :   -0.068513
  26 H :    0.028070
  27 H :    0.033017
  28 C :   -0.065791
  29 H :    0.022777
  30 H :    0.048082
  31 H :    0.030759
  32 H :    0.048426
  33 H :    0.063108
Sum of atomic charges:   -0.0000000

LOEWDIN ATOMIC CHARGES
----------------------
   0 S :    0.458604
   1 C :   -0.213572
   2 C :   -0.061419
   3 C :   -0.080855
   4 C :   -0.234284
   5 H :    0.033214
   6 C :   -0.033659
   7 H :    0.035284
   8 H :    0.033390
   9 C :   -0.031997
  10 H :    0.017539
  11 H :    0.026613
  12 C :   -0.065805
  13 H :    0.023219
  14 H :    0.026011
  15 H :    0.022307
  16 S :    0.426965
  17 C :   -0.184391
  18 C :   -0.067255
  19 C :   -0.055004
  20 C :   -0.212670
  21 H :    0.035432
  22 C :   -0.037837
  23 H :    0.033825
  24 H :    0.029169
  25 C :   -0.038412
  26 H :    0.029385
  27 H :    0.021130
  28 C :   -0.071785
  29 H :    0.024676
  30 H :    0.033257
  31 H :    0.019430
  32 H :    0.031742
  33 H :    0.027753

  Mayer bond orders larger than 0.100000
B(  0-S ,  1-C ) :   1.1410 B(  0-S ,  4-C ) :   1.2001 B(  1-C ,  2-C ) :   1.6023
B(  1-C , 32-H ) :   0.9668 B(  2-C ,  3-C ) :   1.2484 B(  2-C ,  6-C ) :   1.0083
B(  3-C ,  4-C ) :   1.5646 B(  3-C ,  5-H ) :   0.9966 B(  4-C , 20-C ) :   0.9797
B(  6-C ,  7-H ) :   0.9481 B(  6-C ,  8-H ) :   0.9393 B(  6-C ,  9-C ) :   1.0718
B(  9-C , 10-H ) :   0.9532 B(  9-C , 11-H ) :   0.9581 B(  9-C , 12-C ) :   1.0795
B( 12-C , 13-H ) :   0.9749 B( 12-C , 14-H ) :   0.9756 B( 12-C , 15-H ) :   0.9738
B( 16-S , 17-C ) :   1.1788 B( 16-S , 20-C ) :   1.1634 B( 17-C , 18-C ) :   1.5815
B( 17-C , 20-C ) :   0.1071 B( 17-C , 33-H ) :   0.9622 B( 18-C , 19-C ) :   1.2542
B( 18-C , 21-H ) :   0.9883 B( 19-C , 20-C ) :   1.5780 B( 19-C , 22-C ) :   1.0534
B( 22-C , 23-H ) :   0.9332 B( 22-C , 24-H ) :   0.9295 B( 22-C , 25-C ) :   1.0746
B( 25-C , 26-H ) :   0.9591 B( 25-C , 27-H ) :   0.9511 B( 25-C , 28-C ) :   1.0779
B( 28-C , 29-H ) :   0.9714 B( 28-C , 30-H ) :   0.9756 B( 28-C , 31-H ) :   0.9693

Dispersion correction           -0.014729152
FINAL SINGLE POINT ENERGY     -1339.870531687746

DIPOLE MOMENT
-------------
                                X             Y             Z
Electronic contribution:     17.82684     -15.99162      -9.38831
Nuclear contribution   :    -18.11974      16.37229       9.58776
                        -----------------------------------------
Total Dipole Moment    :     -0.29290       0.38067       0.19945
                        -----------------------------------------
Magnitude (a.u.)       :      0.52008
Magnitude (Debye)      :      1.32194

Rotational constants in cm-1:     0.019397     0.008803     0.007088
Rotational constants in MHz :   581.502730   263.911085   212.494855

                             ****ORCA TERMINATED NORMALLY****
TOTAL RUN TIME: 0 days 0 hours 0 minutes 21 seconds 910 msec
