                         Program Version 4.2.1 -  RELEASE  -
|  1> ! wB97X-D3 SP def2-SVP
|  2> %pal
|  3> nprocs 24
|  4> end
|  5>
|  6> * xyz 0 1
|  7> S 	 12.5746 	 -12.8743 	 -126.42
|  8> C 	 11.5066 	 -12.7962 	 -127.804
|  9> C 	 12.0253 	 -13.3987 	 -128.94
| 10> C 	 13.3159 	 -13.975 	 -128.598
| 11> C 	 13.7885 	 -13.6696 	 -127.375
| 12> H 	 13.9748 	 -14.4819 	 -129.251
| 13> C 	 11.3326 	 -13.5149 	 -130.251
| 14> H 	 11.847 	 -13.2225 	 -131.183
| 15> H 	 10.4102 	 -12.9026 	 -130.233
| 16> C 	 10.7067 	 -14.9658 	 -130.461
| 17> H 	 10.4185 	 -14.8879 	 -131.507
| 18> H 	 11.5452 	 -15.6685 	 -130.456
| 19> C 	 9.54867 	 -15.3096 	 -129.481
| 20> H 	 8.65685 	 -14.7376 	 -129.67
| 21> H 	 9.37042 	 -16.3341 	 -129.565
| 22> H 	 9.87357 	 -15.2289 	 -128.44
| 23> S 	 16.4844 	 -13.8651 	 -127.813
| 24> C 	 17.4586 	 -14.9179 	 -126.811
| 25> C 	 16.7202 	 -15.2793 	 -125.696
| 26> C 	 15.342 	 -14.9284 	 -125.77
| 27> C 	 15.0404 	 -14.1878 	 -126.865
| 28> H 	 17.2258 	 -15.7181 	 -124.867
| 29> C 	 14.4256 	 -15.3373 	 -124.647
| 30> H 	 13.7881 	 -14.515 	 -124.436
| 31> H 	 15.0267 	 -15.5169 	 -123.752
| 32> C 	 13.7064 	 -16.7273 	 -124.836
| 33> H 	 13.1364 	 -16.9969 	 -123.93
| 34> H 	 14.4694 	 -17.4004 	 -125.041
| 35> C 	 12.792 	 -16.7643 	 -126.107
| 36> H 	 12.4948 	 -17.7783 	 -126.239
| 37> H 	 13.3118 	 -16.331 	 -126.954
| 38> H 	 11.8193 	 -16.2211 	 -125.881
| 39> H 	 10.5653 	 -12.3836 	 -127.748
| 40> H 	 18.5292 	 -15.0257 	 -126.921
| 41> *
| 42>
| 43>                          ****END OF INPUT****

CARTESIAN COORDINATES (ANGSTROEM)
---------------------------------
  S     12.574600  -12.874300  -126.420000
  C     11.506600  -12.796200  -127.804000
  C     12.025300  -13.398700  -128.940000
  C     13.315900  -13.975000  -128.598000
  C     13.788500  -13.669600  -127.375000
  H     13.974800  -14.481900  -129.251000
  C     11.332600  -13.514900  -130.251000
  H     11.847000  -13.222500  -131.183000
  H     10.410200  -12.902600  -130.233000
  C     10.706700  -14.965800  -130.461000
  H     10.418500  -14.887900  -131.507000
  H     11.545200  -15.668500  -130.456000
  C      9.548670  -15.309600  -129.481000
  H      8.656850  -14.737600  -129.670000
  H      9.370420  -16.334100  -129.565000
  H      9.873570  -15.228900  -128.440000
  S     16.484400  -13.865100  -127.813000
  C     17.458600  -14.917900  -126.811000
  C     16.720200  -15.279300  -125.696000
  C     15.342000  -14.928400  -125.770000
  C     15.040400  -14.187800  -126.865000
  H     17.225800  -15.718100  -124.867000
  C     14.425600  -15.337300  -124.647000
  H     13.788100  -14.515000  -124.436000
  H     15.026700  -15.516900  -123.752000
  C     13.706400  -16.727300  -124.836000
  H     13.136400  -16.996900  -123.930000
  H     14.469400  -17.400400  -125.041000
  C     12.792000  -16.764300  -126.107000
  H     12.494800  -17.778300  -126.239000
  H     13.311800  -16.331000  -126.954000
  H     11.819300  -16.221100  -125.881000
  H     10.565300  -12.383600  -127.748000
  H     18.529200  -15.025700  -126.921000

 Total Charge           Charge          ....    0
 Multiplicity           Mult            ....    1
 Number of Electrons    NEL             ....  134
 Basis Dimension        Dim             ....  322

ORBITAL ENERGIES
----------------

  NO   OCC          E(Eh)            E(eV)
   0   2.0000     -88.966746     -2420.9082
   1   2.0000     -88.963664     -2420.8244
   2   2.0000     -10.323232      -280.9094
   3   2.0000     -10.322684      -280.8945
   4   2.0000     -10.317424      -280.7514
   5   2.0000     -10.310792      -280.5709
   6   2.0000     -10.304196      -280.3914
   7   2.0000     -10.297254      -280.2025
   8   2.0000     -10.296071      -280.1703
   9   2.0000     -10.291433      -280.0441
  10   2.0000     -10.290729      -280.0250
  11   2.0000     -10.288314      -279.9593
  12   2.0000     -10.285612      -279.8857
  13   2.0000     -10.282163      -279.7919
  14   2.0000     -10.274188      -279.5749
  15   2.0000     -10.269632      -279.4509
  16   2.0000      -8.081457      -219.9076
  17   2.0000      -8.078401      -219.8245
  18   2.0000      -6.040008      -164.3570
  19   2.0000      -6.036948      -164.2737
  20   2.0000      -6.036011      -164.2482
  21   2.0000      -6.032885      -164.1631
  22   2.0000      -6.032149      -164.1431
  23   2.0000      -6.029136      -164.0611
  24   2.0000      -1.011705       -27.5299
  25   2.0000      -0.987034       -26.8585
  26   2.0000      -0.909001       -24.7352
  27   2.0000      -0.902590       -24.5607
  28   2.0000      -0.872191       -23.7335
  29   2.0000      -0.848018       -23.0757
  30   2.0000      -0.841736       -22.9048
  31   2.0000      -0.815420       -22.1887
  32   2.0000      -0.784831       -21.3563
  33   2.0000      -0.774987       -21.0885
  34   2.0000      -0.708165       -19.2701
  35   2.0000      -0.698954       -19.0195
  36   2.0000      -0.689828       -18.7712
  37   2.0000      -0.669942       -18.2300
  38   2.0000      -0.643601       -17.5133
  39   2.0000      -0.620649       -16.8887
  40   2.0000      -0.595150       -16.1949
  41   2.0000      -0.572333       -15.5740
  42   2.0000      -0.551494       -15.0069
  43   2.0000      -0.549411       -14.9502
  44   2.0000      -0.539908       -14.6917
  45   2.0000      -0.537234       -14.6189
  46   2.0000      -0.517010       -14.0686
  47   2.0000      -0.513382       -13.9698
  48   2.0000      -0.502552       -13.6751
  49   2.0000      -0.500313       -13.6142
  50   2.0000      -0.490811       -13.3556
  51   2.0000      -0.478029       -13.0078
  52   2.0000      -0.473025       -12.8717
  53   2.0000      -0.467632       -12.7249
  54   2.0000      -0.459988       -12.5169
  55   2.0000      -0.446549       -12.1512
  56   2.0000      -0.440924       -11.9982
  57   2.0000      -0.438395       -11.9293
  58   2.0000      -0.426930       -11.6174
  59   2.0000      -0.423761       -11.5311
  60   2.0000      -0.419191       -11.4068
  61   2.0000      -0.414944       -11.2912
  62   2.0000      -0.410844       -11.1796
  63   2.0000      -0.347932        -9.4677
  64   2.0000      -0.330117        -8.9829
  65   2.0000      -0.326981        -8.8976
  66   2.0000      -0.297245        -8.0885
  67   0.0000       0.033544         0.9128
  68   0.0000       0.072975         1.9858
  69   0.0000       0.110126         2.9967
  70   0.0000       0.114919         3.1271
  71   0.0000       0.121553         3.3076

MULLIKEN ATOMIC CHARGES
-----------------------
   0 S :    0.107831
   1 C :   -0.094127
   2 C :   -0.042543
   3 C :    0.027498
   4 C :   -0.137330
   5 H :   -0.001433
   6 C :    0.029735
   7 H :    0.045564
   8 H :    0.014453
   9 C :   -0.098751
  10 H :    0.026119
  11 H :    0.031288
  12 C :   -0.014707
  13 H :    0.035770
  14 H :    0.020882
  15 H :    0.040729
  16 S :    0.101883
  17 C :   -0.096482
  18 C :   -0.033153
  19 C :   -0.049202
  20 C :   -0.168054
  21 H :    0.012487
  22 C :    0.085763
  23 H :    0.016392
  24 H :    0.015137
  25 C :   -0.045407
  26 H :    0.038780
  27 H :    0.010044
  28 C :   -0.063184
  29 H :    0.023598
  30 H :    0.049612
  31 H :    0.034110
  32 H :    0.015620
  33 H :    0.061077
Sum of atomic charges:    0.0000000

LOEWDIN ATOMIC CHARGES
----------------------
   0 S :    0.410659
   1 C :   -0.176436
   2 C :   -0.055974
   3 C :   -0.054598
   4 C :   -0.199117
   5 H :    0.020171
   6 C :   -0.039060
   7 H :    0.034833
   8 H :    0.030741
   9 C :   -0.032836
  10 H :    0.022032
  11 H :    0.020178
  12 C :   -0.060792
  13 H :    0.025208
  14 H :    0.022385
  15 H :    0.031176
  16 S :    0.405408
  17 C :   -0.184925
  18 C :   -0.065464
  19 C :   -0.065399
  20 C :   -0.191036
  21 H :    0.027285
  22 C :   -0.028760
  23 H :    0.014189
  24 H :    0.031982
  25 C :   -0.026019
  26 H :    0.026834
  27 H :    0.012969
  28 C :   -0.067303
  29 H :    0.018025
  30 H :    0.026103
  31 H :    0.028212
  32 H :    0.009340
  33 H :    0.029987

  Mayer bond orders larger than 0.100000
B(  0-S ,  1-C ) :   1.1393 B(  0-S ,  4-C ) :   1.1279 B(  1-C ,  2-C ) :   1.6138
B(  1-C , 32-H ) :   0.9738 B(  2-C ,  3-C ) :   1.2027 B(  2-C ,  6-C ) :   1.0484
B(  3-C ,  4-C ) :   1.6147 B(  3-C ,  5-H ) :   0.9920 B(  4-C , 20-C ) :   1.0269
B(  6-C ,  7-H ) :   0.9455 B(  6-C ,  8-H ) :   0.9372 B(  6-C ,  9-C ) :   1.0549
B(  9-C , 10-H ) :   0.9601 B(  9-C , 11-H ) :   0.9630 B(  9-C , 12-C ) :   1.0668
B( 12-C , 13-H ) :   0.9753 B( 12-C , 14-H ) :   0.9706 B( 12-C , 15-H ) :   0.9723
B( 16-S , 17-C ) :   1.1527 B( 16-S , 20-C ) :   1.1423 B( 17-C , 18-C ) :   1.6042
B( 17-C , 33-H ) :   0.9682 B( 18-C , 19-C ) :   1.2387 B( 18-C , 21-H ) :   0.9909
B( 19-C , 20-C ) :   1.6014 B( 19-C , 22-C ) :   1.0397 B( 22-C , 23-H ) :   0.9376
B( 22-C , 24-H ) :   0.9309 B( 22-C , 25-C ) :   1.0630 B( 25-C , 26-H ) :   0.9585
B( 25-C , 27-H ) :   0.9530 B( 25-C , 28-C ) :   1.0839 B( 28-C , 29-H ) :   0.9745
B( 28-C , 30-H ) :   0.9716 B( 28-C , 31-H ) :   0.9764

Dispersion correction           -0.016386382
FINAL SINGLE POINT ENERGY     -1339.881643605609

DIPOLE MOMENT
-------------
                                X             Y             Z
Electronic contribution:     17.63049      14.83941       3.65582
Nuclear contribution   :    -17.84826     -15.19007      -3.70579
                        -----------------------------------------
Total Dipole Moment    :     -0.21777      -0.35066      -0.04997
                        -----------------------------------------
Magnitude (a.u.)       :      0.41579
Magnitude (Debye)      :      1.05685

Rotational constants in cm-1:     0.021411     0.009197     0.008110
Rotational constants in MHz :   641.897629   275.708673   243.128820

                             ****ORCA TERMINATED NORMALLY****
TOTAL RUN TIME: 0 days 0 hours 0 minutes 24 seconds 42 msec
