                         Program Version 4.2.1 -  RELEASE  -
|  1> ! wB97X-D3 SP def2-SVP
|  2> %pal
|  3> nprocs 24
|  4> end
|  5>
|  6> * xyz 0 1
|  7> S 	 -62.4715 	 8.3126 	 -82.2337
|  8> C 	 -63.3245 	 7.20705 	 -83.3079
|  9> C 	 -64.6434 	 7.0142 	 -82.9463
| 10> C 	 -64.9539 	 7.74818 	 -81.7218
| 11> C 	 -63.8722 	 8.39952 	 -81.1183
| 12> H 	 -65.9335 	 7.7531 	 -81.2324
| 13> C 	 -65.765 	 6.40746 	 -83.7445
| 14> H 	 -66.3324 	 5.63846 	 -83.1116
| 15> H 	 -65.3185 	 5.82943 	 -84.5271
| 16> C 	 -66.771 	 7.47678 	 -84.2457
| 17> H 	 -67.7996 	 7.13269 	 -84.1014
| 18> H 	 -66.7764 	 8.33769 	 -83.5922
| 19> C 	 -66.5122 	 7.895 	 -85.7306
| 20> H 	 -65.4819 	 8.06663 	 -86.0094
| 21> H 	 -66.8766 	 7.08831 	 -86.3881
| 22> H 	 -66.9454 	 8.86984 	 -86.0494
| 23> S 	 -64.5634 	 10.72 	 -79.6798
| 24> C 	 -64.8731 	 10.5203 	 -77.9645
| 25> C 	 -64.1854 	 9.41765 	 -77.4638
| 26> C 	 -63.7012 	 8.58966 	 -78.5129
| 27> C 	 -63.8788 	 9.09406 	 -79.8613
| 28> H 	 -64.0394 	 9.23786 	 -76.3703
| 29> C 	 -63.0456 	 7.26326 	 -78.2414
| 30> H 	 -62.4787 	 7.2099 	 -77.3559
| 31> H 	 -62.3236 	 7.05424 	 -79.0206
| 32> C 	 -64.1236 	 6.15425 	 -78.1673
| 33> H 	 -64.5064 	 5.84992 	 -79.1474
| 34> H 	 -65.0943 	 6.5924 	 -77.7408
| 35> C 	 -63.6104 	 4.95014 	 -77.4114
| 36> H 	 -62.7629 	 4.49486 	 -77.8572
| 37> H 	 -64.3498 	 4.1608 	 -77.5687
| 38> H 	 -63.2503 	 5.19467 	 -76.416
| 39> H 	 -62.8279 	 6.73985 	 -84.1325
| 40> H 	 -65.22 	 11.3419 	 -77.3145
| 41> *
| 42>
| 43>                          ****END OF INPUT****

CARTESIAN COORDINATES (ANGSTROEM)
---------------------------------
  S    -62.471500    8.312600  -82.233700
  C    -63.324500    7.207050  -83.307900
  C    -64.643400    7.014200  -82.946300
  C    -64.953900    7.748180  -81.721800
  C    -63.872200    8.399520  -81.118300
  H    -65.933500    7.753100  -81.232400
  C    -65.765000    6.407460  -83.744500
  H    -66.332400    5.638460  -83.111600
  H    -65.318500    5.829430  -84.527100
  C    -66.771000    7.476780  -84.245700
  H    -67.799600    7.132690  -84.101400
  H    -66.776400    8.337690  -83.592200
  C    -66.512200    7.895000  -85.730600
  H    -65.481900    8.066630  -86.009400
  H    -66.876600    7.088310  -86.388100
  H    -66.945400    8.869840  -86.049400
  S    -64.563400   10.720000  -79.679800
  C    -64.873100   10.520300  -77.964500
  C    -64.185400    9.417650  -77.463800
  C    -63.701200    8.589660  -78.512900
  C    -63.878800    9.094060  -79.861300
  H    -64.039400    9.237860  -76.370300
  C    -63.045600    7.263260  -78.241400
  H    -62.478700    7.209900  -77.355900
  H    -62.323600    7.054240  -79.020600
  C    -64.123600    6.154250  -78.167300
  H    -64.506400    5.849920  -79.147400
  H    -65.094300    6.592400  -77.740800
  C    -63.610400    4.950140  -77.411400
  H    -62.762900    4.494860  -77.857200
  H    -64.349800    4.160800  -77.568700
  H    -63.250300    5.194670  -76.416000
  H    -62.827900    6.739850  -84.132500
  H    -65.220000   11.341900  -77.314500

 Total Charge           Charge          ....    0
 Multiplicity           Mult            ....    1
 Number of Electrons    NEL             ....  134
 Basis Dimension        Dim             ....  322

ORBITAL ENERGIES
----------------

  NO   OCC          E(Eh)            E(eV)
   0   2.0000     -88.965496     -2420.8742
   1   2.0000     -88.964504     -2420.8472
   2   2.0000     -10.333674      -281.1936
   3   2.0000     -10.328866      -281.0627
   4   2.0000     -10.323781      -280.9244
   5   2.0000     -10.318076      -280.7691
   6   2.0000     -10.308937      -280.5204
   7   2.0000     -10.304937      -280.4116
   8   2.0000     -10.300489      -280.2905
   9   2.0000     -10.300153      -280.2814
  10   2.0000     -10.298994      -280.2499
  11   2.0000     -10.291398      -280.0432
  12   2.0000     -10.284566      -279.8573
  13   2.0000     -10.282047      -279.7887
  14   2.0000     -10.280612      -279.7497
  15   2.0000     -10.270869      -279.4845
  16   2.0000      -8.079638      -219.8581
  17   2.0000      -8.078489      -219.8269
  18   2.0000      -6.038139      -164.3061
  19   2.0000      -6.037111      -164.2781
  20   2.0000      -6.034129      -164.1970
  21   2.0000      -6.033068      -164.1681
  22   2.0000      -6.030519      -164.0988
  23   2.0000      -6.029205      -164.0630
  24   2.0000      -0.997434       -27.1416
  25   2.0000      -0.977484       -26.5987
  26   2.0000      -0.907783       -24.7020
  27   2.0000      -0.907202       -24.6862
  28   2.0000      -0.868198       -23.6249
  29   2.0000      -0.846842       -23.0438
  30   2.0000      -0.840287       -22.8654
  31   2.0000      -0.811191       -22.0736
  32   2.0000      -0.779647       -21.2153
  33   2.0000      -0.766891       -20.8682
  34   2.0000      -0.712848       -19.3976
  35   2.0000      -0.700557       -19.0631
  36   2.0000      -0.692574       -18.8459
  37   2.0000      -0.654908       -17.8209
  38   2.0000      -0.642425       -17.4813
  39   2.0000      -0.618372       -16.8268
  40   2.0000      -0.595004       -16.1909
  41   2.0000      -0.568676       -15.4745
  42   2.0000      -0.558575       -15.1996
  43   2.0000      -0.546048       -14.8587
  44   2.0000      -0.529421       -14.4063
  45   2.0000      -0.522668       -14.2225
  46   2.0000      -0.516036       -14.0420
  47   2.0000      -0.513378       -13.9697
  48   2.0000      -0.505038       -13.7428
  49   2.0000      -0.500004       -13.6058
  50   2.0000      -0.486402       -13.2357
  51   2.0000      -0.478635       -13.0243
  52   2.0000      -0.468570       -12.7504
  53   2.0000      -0.459530       -12.5045
  54   2.0000      -0.457399       -12.4465
  55   2.0000      -0.452063       -12.3013
  56   2.0000      -0.440436       -11.9849
  57   2.0000      -0.437616       -11.9081
  58   2.0000      -0.431982       -11.7548
  59   2.0000      -0.427999       -11.6464
  60   2.0000      -0.417382       -11.3575
  61   2.0000      -0.414812       -11.2876
  62   2.0000      -0.403170       -10.9708
  63   2.0000      -0.333599        -9.0777
  64   2.0000      -0.325747        -8.8640
  65   2.0000      -0.315686        -8.5902
  66   2.0000      -0.306931        -8.3520
  67   0.0000       0.034115         0.9283
  68   0.0000       0.045920         1.2496
  69   0.0000       0.105629         2.8743
  70   0.0000       0.112161         3.0521
  71   0.0000       0.123798         3.3687

MULLIKEN ATOMIC CHARGES
-----------------------
   0 S :    0.099032
   1 C :   -0.116566
   2 C :   -0.088421
   3 C :    0.043332
   4 C :   -0.175869
   5 H :    0.027045
   6 C :    0.057352
   7 H :    0.041942
   8 H :    0.014648
   9 C :   -0.050918
  10 H :    0.026958
  11 H :    0.032680
  12 C :   -0.069675
  13 H :    0.026933
  14 H :    0.039179
  15 H :    0.036409
  16 S :    0.108446
  17 C :   -0.111341
  18 C :   -0.034603
  19 C :   -0.062015
  20 C :   -0.157509
  21 H :    0.043677
  22 C :    0.113898
  23 H :    0.001386
  24 H :    0.023108
  25 C :   -0.113832
  26 H :    0.025780
  27 H :    0.034625
  28 C :   -0.006804
  29 H :    0.011195
  30 H :    0.029708
  31 H :    0.031711
  32 H :    0.044782
  33 H :    0.073728
Sum of atomic charges:   -0.0000000

LOEWDIN ATOMIC CHARGES
----------------------
   0 S :    0.378666
   1 C :   -0.184393
   2 C :   -0.067438
   3 C :   -0.046513
   4 C :   -0.193136
   5 H :    0.034102
   6 C :   -0.031436
   7 H :    0.039962
   8 H :    0.024549
   9 C :   -0.037945
  10 H :    0.026371
  11 H :    0.024712
  12 C :   -0.071423
  13 H :    0.022581
  14 H :    0.027305
  15 H :    0.030599
  16 S :    0.403996
  17 C :   -0.186245
  18 C :   -0.081934
  19 C :   -0.036386
  20 C :   -0.217890
  21 H :    0.043088
  22 C :   -0.030394
  23 H :    0.021344
  24 H :    0.030371
  25 C :   -0.042769
  26 H :    0.023433
  27 H :    0.028453
  28 C :   -0.067755
  29 H :    0.021040
  30 H :    0.031392
  31 H :    0.024050
  32 H :    0.024081
  33 H :    0.035563

  Mayer bond orders larger than 0.100000
B(  0-S ,  1-C ) :   1.1391 B(  0-S ,  4-C ) :   1.1182 B(  1-C ,  2-C ) :   1.6248
B(  1-C , 32-H ) :   0.9693 B(  2-C ,  3-C ) :   1.2097 B(  2-C ,  6-C ) :   1.0434
B(  3-C ,  4-C ) :   1.6093 B(  3-C ,  5-H ) :   0.9850 B(  4-C , 20-C ) :   1.0472
B(  6-C ,  7-H ) :   0.9398 B(  6-C ,  8-H ) :   0.9460 B(  6-C ,  9-C ) :   1.0375
B(  9-C , 10-H ) :   0.9577 B(  9-C , 11-H ) :   0.9629 B(  9-C , 12-C ) :   1.0660
B( 12-C , 13-H ) :   0.9782 B( 12-C , 14-H ) :   0.9789 B( 12-C , 15-H ) :   0.9757
B( 16-S , 17-C ) :   1.1904 B( 16-S , 20-C ) :   1.1317 B( 17-C , 18-C ) :   1.5520
B( 17-C , 20-C ) :   0.1111 B( 17-C , 33-H ) :   0.9590 B( 18-C , 19-C ) :   1.2918
B( 18-C , 21-H ) :   0.9820 B( 19-C , 20-C ) :   1.5366 B( 19-C , 22-C ) :   1.0565
B( 22-C , 23-H ) :   0.9456 B( 22-C , 24-H ) :   0.9246 B( 22-C , 25-C ) :   1.0391
B( 25-C , 26-H ) :   0.9489 B( 25-C , 27-H ) :   0.9622 B( 25-C , 28-C ) :   1.0865
B( 28-C , 29-H ) :   0.9662 B( 28-C , 30-H ) :   0.9687 B( 28-C , 31-H ) :   0.9747

Dispersion correction           -0.014771145
FINAL SINGLE POINT ENERGY     -1339.866353178210

DIPOLE MOMENT
-------------
                                X             Y             Z
Electronic contribution:     10.15368      18.22620       3.09642
Nuclear contribution   :    -10.45024     -18.65603      -3.00821
                        -----------------------------------------
Total Dipole Moment    :     -0.29655      -0.42983       0.08822
                        -----------------------------------------
Magnitude (a.u.)       :      0.52961
Magnitude (Debye)      :      1.34615

Rotational constants in cm-1:     0.018454     0.008340     0.007161
Rotational constants in MHz :   553.225756   250.034162   214.685786

                             ****ORCA TERMINATED NORMALLY****
TOTAL RUN TIME: 0 days 0 hours 0 minutes 21 seconds 913 msec
