                         Program Version 4.2.1 -  RELEASE  -
|  1> ! wB97X-D3 SP def2-SVP
|  2> %pal
|  3> nprocs 24
|  4> end
|  5>
|  6> * xyz 0 1
|  7> S 	 -123.591 	 60.4013 	 -36.0574
|  8> C 	 -123.27 	 59.7189 	 -37.6319
|  9> C 	 -122.704 	 60.6526 	 -38.5181
| 10> C 	 -122.52 	 61.9409 	 -37.8226
| 11> C 	 -122.894 	 61.9278 	 -36.4945
| 12> H 	 -122.114 	 62.851 	 -38.2327
| 13> C 	 -122.197 	 60.3774 	 -39.9179
| 14> H 	 -122.198 	 61.3042 	 -40.4439
| 15> H 	 -122.781 	 59.6056 	 -40.449
| 16> C 	 -120.816 	 59.6822 	 -39.9017
| 17> H 	 -120.192 	 60.2672 	 -39.2496
| 18> H 	 -120.965 	 58.675 	 -39.511
| 19> C 	 -120.184 	 59.4974 	 -41.2346
| 20> H 	 -119.201 	 59.0858 	 -41.1375
| 21> H 	 -120.882 	 58.8826 	 -41.7901
| 22> H 	 -120.057 	 60.475 	 -41.6845
| 23> S 	 -121.437 	 64.2223 	 -36.0458
| 24> C 	 -121.886 	 65.3185 	 -34.7814
| 25> C 	 -122.853 	 64.731 	 -33.9736
| 26> C 	 -123.426 	 63.501 	 -34.5639
| 27> C 	 -122.715 	 63.0333 	 -35.6404
| 28> H 	 -123.237 	 65.2015 	 -33.1019
| 29> C 	 -124.601 	 62.8615 	 -33.8517
| 30> H 	 -125.079 	 62.2149 	 -34.4739
| 31> H 	 -125.233 	 63.6883 	 -33.6615
| 32> C 	 -124.381 	 62.173 	 -32.4476
| 33> H 	 -124.111 	 62.9013 	 -31.6481
| 34> H 	 -123.538 	 61.4621 	 -32.5619
| 35> C 	 -125.622 	 61.4135 	 -31.9989
| 36> H 	 -125.607 	 61.1305 	 -30.9651
| 37> H 	 -125.72 	 60.6076 	 -32.6516
| 38> H 	 -126.535 	 62.0969 	 -32.1539
| 39> H 	 -123.508 	 58.7227 	 -37.8748
| 40> H 	 -121.375 	 66.2056 	 -34.4503
| 41> *
| 42>
| 43>                          ****END OF INPUT****

CARTESIAN COORDINATES (ANGSTROEM)
---------------------------------
  S    -123.591000   60.401300  -36.057400
  C    -123.270000   59.718900  -37.631900
  C    -122.704000   60.652600  -38.518100
  C    -122.520000   61.940900  -37.822600
  C    -122.894000   61.927800  -36.494500
  H    -122.114000   62.851000  -38.232700
  C    -122.197000   60.377400  -39.917900
  H    -122.198000   61.304200  -40.443900
  H    -122.781000   59.605600  -40.449000
  C    -120.816000   59.682200  -39.901700
  H    -120.192000   60.267200  -39.249600
  H    -120.965000   58.675000  -39.511000
  C    -120.184000   59.497400  -41.234600
  H    -119.201000   59.085800  -41.137500
  H    -120.882000   58.882600  -41.790100
  H    -120.057000   60.475000  -41.684500
  S    -121.437000   64.222300  -36.045800
  C    -121.886000   65.318500  -34.781400
  C    -122.853000   64.731000  -33.973600
  C    -123.426000   63.501000  -34.563900
  C    -122.715000   63.033300  -35.640400
  H    -123.237000   65.201500  -33.101900
  C    -124.601000   62.861500  -33.851700
  H    -125.079000   62.214900  -34.473900
  H    -125.233000   63.688300  -33.661500
  C    -124.381000   62.173000  -32.447600
  H    -124.111000   62.901300  -31.648100
  H    -123.538000   61.462100  -32.561900
  C    -125.622000   61.413500  -31.998900
  H    -125.607000   61.130500  -30.965100
  H    -125.720000   60.607600  -32.651600
  H    -126.535000   62.096900  -32.153900
  H    -123.508000   58.722700  -37.874800
  H    -121.375000   66.205600  -34.450300

 Total Charge           Charge          ....    0
 Multiplicity           Mult            ....    1
 Number of Electrons    NEL             ....  134
 Basis Dimension        Dim             ....  322

ORBITAL ENERGIES
----------------

  NO   OCC          E(Eh)            E(eV)
   0   2.0000     -88.970521     -2421.0110
   1   2.0000     -88.963882     -2420.8303
   2   2.0000     -10.326930      -281.0101
   3   2.0000     -10.326478      -280.9978
   4   2.0000     -10.318904      -280.7917
   5   2.0000     -10.315102      -280.6882
   6   2.0000     -10.310485      -280.5626
   7   2.0000     -10.304262      -280.3932
   8   2.0000     -10.295621      -280.1581
   9   2.0000     -10.294946      -280.1397
  10   2.0000     -10.292716      -280.0790
  11   2.0000     -10.290967      -280.0315
  12   2.0000     -10.282756      -279.8080
  13   2.0000     -10.279164      -279.7103
  14   2.0000     -10.275918      -279.6219
  15   2.0000     -10.272095      -279.5179
  16   2.0000      -8.085020      -220.0046
  17   2.0000      -8.078293      -219.8215
  18   2.0000      -6.043672      -164.4567
  19   2.0000      -6.039500      -164.3431
  20   2.0000      -6.037064      -164.2769
  21   2.0000      -6.035749      -164.2411
  22   2.0000      -6.032898      -164.1635
  23   2.0000      -6.028721      -164.0498
  24   2.0000      -1.007606       -27.4184
  25   2.0000      -0.980015       -26.6676
  26   2.0000      -0.918671       -24.9983
  27   2.0000      -0.907487       -24.6940
  28   2.0000      -0.877783       -23.8857
  29   2.0000      -0.855255       -23.2727
  30   2.0000      -0.848151       -23.0794
  31   2.0000      -0.811217       -22.0743
  32   2.0000      -0.785300       -21.3691
  33   2.0000      -0.772775       -21.0283
  34   2.0000      -0.706297       -19.2193
  35   2.0000      -0.695742       -18.9321
  36   2.0000      -0.694095       -18.8873
  37   2.0000      -0.671389       -18.2694
  38   2.0000      -0.640016       -17.4157
  39   2.0000      -0.616483       -16.7754
  40   2.0000      -0.596572       -16.2336
  41   2.0000      -0.578627       -15.7452
  42   2.0000      -0.568946       -15.4818
  43   2.0000      -0.567717       -15.4484
  44   2.0000      -0.530160       -14.4264
  45   2.0000      -0.527266       -14.3476
  46   2.0000      -0.523388       -14.2421
  47   2.0000      -0.519655       -14.1405
  48   2.0000      -0.511842       -13.9279
  49   2.0000      -0.501725       -13.6526
  50   2.0000      -0.489762       -13.3271
  51   2.0000      -0.479490       -13.0476
  52   2.0000      -0.474768       -12.9191
  53   2.0000      -0.467215       -12.7136
  54   2.0000      -0.458628       -12.4799
  55   2.0000      -0.451081       -12.2745
  56   2.0000      -0.446582       -12.1521
  57   2.0000      -0.435167       -11.8415
  58   2.0000      -0.428943       -11.6721
  59   2.0000      -0.423209       -11.5161
  60   2.0000      -0.422279       -11.4908
  61   2.0000      -0.418750       -11.3948
  62   2.0000      -0.412635       -11.2284
  63   2.0000      -0.362999        -9.8777
  64   2.0000      -0.328956        -8.9513
  65   2.0000      -0.324187        -8.8216
  66   2.0000      -0.285145        -7.7592
  67   0.0000       0.021932         0.5968
  68   0.0000       0.080877         2.2008
  69   0.0000       0.104834         2.8527
  70   0.0000       0.113274         3.0823
  71   0.0000       0.129019         3.5108

MULLIKEN ATOMIC CHARGES
-----------------------
   0 S :    0.111254
   1 C :   -0.109284
   2 C :   -0.066153
   3 C :   -0.028627
   4 C :   -0.119575
   5 H :    0.018419
   6 C :    0.074270
   7 H :    0.020268
   8 H :    0.020939
   9 C :   -0.097489
  10 H :    0.023810
  11 H :    0.023279
  12 C :    0.004420
  13 H :    0.036373
  14 H :    0.023859
  15 H :    0.020873
  16 S :    0.083047
  17 C :   -0.070112
  18 C :   -0.025665
  19 C :   -0.096506
  20 C :   -0.095997
  21 H :    0.010520
  22 C :    0.103703
  23 H :   -0.013050
  24 H :    0.015602
  25 C :   -0.089749
  26 H :    0.031726
  27 H :    0.035128
  28 C :   -0.030897
  29 H :    0.038679
  30 H :    0.024206
  31 H :    0.030068
  32 H :    0.032307
  33 H :    0.060353
Sum of atomic charges:   -0.0000000

LOEWDIN ATOMIC CHARGES
----------------------
   0 S :    0.418259
   1 C :   -0.192379
   2 C :   -0.048235
   3 C :   -0.068252
   4 C :   -0.196837
   5 H :    0.021702
   6 C :   -0.029924
   7 H :    0.025574
   8 H :    0.032241
   9 C :   -0.037163
  10 H :    0.017544
  11 H :    0.022450
  12 C :   -0.057653
  13 H :    0.027459
  14 H :    0.024022
  15 H :    0.023067
  16 S :    0.394085
  17 C :   -0.187001
  18 C :   -0.062302
  19 C :   -0.052226
  20 C :   -0.180115
  21 H :    0.023015
  22 C :   -0.026563
  23 H :    0.004906
  24 H :    0.030238
  25 C :   -0.036795
  26 H :    0.023363
  27 H :    0.023783
  28 C :   -0.060786
  29 H :    0.025080
  30 H :    0.016792
  31 H :    0.032117
  32 H :    0.017419
  33 H :    0.033116

  Mayer bond orders larger than 0.100000
B(  0-S ,  1-C ) :   1.1352 B(  0-S ,  4-C ) :   1.1346 B(  1-C ,  2-C ) :   1.6004
B(  1-C , 32-H ) :   0.9758 B(  2-C ,  3-C ) :   1.2227 B(  2-C ,  6-C ) :   1.0477
B(  3-C ,  4-C ) :   1.5573 B(  3-C ,  5-H ) :   0.9865 B(  4-C , 20-C ) :   1.1165
B(  6-C ,  7-H ) :   0.9381 B(  6-C ,  8-H ) :   0.9369 B(  6-C ,  9-C ) :   1.0605
B(  9-C , 10-H ) :   0.9565 B(  9-C , 11-H ) :   0.9556 B(  9-C , 12-C ) :   1.0944
B( 12-C , 13-H ) :   0.9699 B( 12-C , 14-H ) :   0.9708 B( 12-C , 15-H ) :   0.9721
B( 16-S , 17-C ) :   1.1424 B( 16-S , 20-C ) :   1.1007 B( 17-C , 18-C ) :   1.6335
B( 17-C , 33-H ) :   0.9662 B( 18-C , 19-C ) :   1.2047 B( 18-C , 21-H ) :   0.9900
B( 19-C , 20-C ) :   1.6003 B( 19-C , 22-C ) :   1.0638 B( 22-C , 23-H ) :   0.9321
B( 22-C , 24-H ) :   0.9155 B( 22-C , 25-C ) :   1.0553 B( 25-C , 26-H ) :   0.9554
B( 25-C , 27-H ) :   0.9589 B( 25-C , 28-C ) :   1.0803 B( 28-C , 29-H ) :   0.9733
B( 28-C , 30-H ) :   0.9763 B( 28-C , 31-H ) :   0.9726

Dispersion correction           -0.013587953
FINAL SINGLE POINT ENERGY     -1339.877259498549

DIPOLE MOMENT
-------------
                                X             Y             Z
Electronic contribution:      2.17675       9.59422       2.91290
Nuclear contribution   :     -2.23008      -9.66235      -2.91665
                        -----------------------------------------
Total Dipole Moment    :     -0.05333      -0.06813      -0.00375
                        -----------------------------------------
Magnitude (a.u.)       :      0.08660
Magnitude (Debye)      :      0.22012

Rotational constants in cm-1:     0.022435     0.007584     0.005862
Rotational constants in MHz :   672.589740   227.369630   175.737579

                             ****ORCA TERMINATED NORMALLY****
TOTAL RUN TIME: 0 days 0 hours 0 minutes 20 seconds 833 msec
