                         Program Version 4.2.1 -  RELEASE  -
|  1> ! wB97X-D3 SP def2-SVP
|  2> %pal
|  3> nprocs 24
|  4> end
|  5>
|  6> * xyz 0 1
|  7> S 	 -120.452 	 51.5478 	 -31.1681
|  8> C 	 -119.944 	 50.5619 	 -32.5579
|  9> C 	 -120.659 	 49.4464 	 -32.7455
| 10> C 	 -121.751 	 49.3615 	 -31.7884
| 11> C 	 -121.755 	 50.4487 	 -30.8841
| 12> H 	 -122.388 	 48.4672 	 -31.6836
| 13> C 	 -120.438 	 48.3986 	 -33.853
| 14> H 	 -121.183 	 47.6525 	 -33.6186
| 15> H 	 -119.573 	 47.8417 	 -33.8127
| 16> C 	 -120.658 	 48.8562 	 -35.2565
| 17> H 	 -121.54 	 49.4357 	 -35.2275
| 18> H 	 -119.839 	 49.4937 	 -35.5702
| 19> C 	 -120.616 	 47.7252 	 -36.2981
| 20> H 	 -120.647 	 48.0924 	 -37.3548
| 21> H 	 -119.811 	 46.9802 	 -36.2791
| 22> H 	 -121.575 	 47.1572 	 -36.3796
| 23> S 	 -121.861 	 50.6611 	 -28.1208
| 24> C 	 -123.361 	 50.6252 	 -27.3392
| 25> C 	 -124.337 	 50.3046 	 -28.2086
| 26> C 	 -123.936 	 50.2679 	 -29.6035
| 27> C 	 -122.565 	 50.4926 	 -29.6762
| 28> H 	 -125.405 	 50.2201 	 -27.9725
| 29> C 	 -124.864 	 49.9737 	 -30.7744
| 30> H 	 -125.527 	 49.132 	 -30.5787
| 31> H 	 -124.374 	 49.7299 	 -31.6482
| 32> C 	 -125.807 	 51.1731 	 -31.1872
| 33> H 	 -125.344 	 51.9211 	 -31.7156
| 34> H 	 -126.083 	 51.7305 	 -30.2766
| 35> C 	 -127.038 	 50.575 	 -31.9435
| 36> H 	 -127.61 	 51.2911 	 -32.6417
| 37> H 	 -127.79 	 50.1816 	 -31.2269
| 38> H 	 -126.846 	 49.7797 	 -32.6423
| 39> H 	 -119.126 	 50.8797 	 -33.099
| 40> H 	 -123.523 	 50.7645 	 -26.3225
| 41> *
| 42>
| 43>                          ****END OF INPUT****

CARTESIAN COORDINATES (ANGSTROEM)
---------------------------------
  S    -120.452000   51.547800  -31.168100
  C    -119.944000   50.561900  -32.557900
  C    -120.659000   49.446400  -32.745500
  C    -121.751000   49.361500  -31.788400
  C    -121.755000   50.448700  -30.884100
  H    -122.388000   48.467200  -31.683600
  C    -120.438000   48.398600  -33.853000
  H    -121.183000   47.652500  -33.618600
  H    -119.573000   47.841700  -33.812700
  C    -120.658000   48.856200  -35.256500
  H    -121.540000   49.435700  -35.227500
  H    -119.839000   49.493700  -35.570200
  C    -120.616000   47.725200  -36.298100
  H    -120.647000   48.092400  -37.354800
  H    -119.811000   46.980200  -36.279100
  H    -121.575000   47.157200  -36.379600
  S    -121.861000   50.661100  -28.120800
  C    -123.361000   50.625200  -27.339200
  C    -124.337000   50.304600  -28.208600
  C    -123.936000   50.267900  -29.603500
  C    -122.565000   50.492600  -29.676200
  H    -125.405000   50.220100  -27.972500
  C    -124.864000   49.973700  -30.774400
  H    -125.527000   49.132000  -30.578700
  H    -124.374000   49.729900  -31.648200
  C    -125.807000   51.173100  -31.187200
  H    -125.344000   51.921100  -31.715600
  H    -126.083000   51.730500  -30.276600
  C    -127.038000   50.575000  -31.943500
  H    -127.610000   51.291100  -32.641700
  H    -127.790000   50.181600  -31.226900
  H    -126.846000   49.779700  -32.642300
  H    -119.126000   50.879700  -33.099000
  H    -123.523000   50.764500  -26.322500

 Total Charge           Charge          ....    0
 Multiplicity           Mult            ....    1
 Number of Electrons    NEL             ....  134
 Basis Dimension        Dim             ....  322

ORBITAL ENERGIES
----------------

  NO   OCC          E(Eh)            E(eV)
   0   2.0000     -88.967541     -2420.9299
   1   2.0000     -88.963494     -2420.8197
   2   2.0000     -10.330377      -281.1039
   3   2.0000     -10.320897      -280.8459
   4   2.0000     -10.307002      -280.4678
   5   2.0000     -10.305300      -280.4215
   6   2.0000     -10.301667      -280.3226
   7   2.0000     -10.301098      -280.3071
   8   2.0000     -10.300409      -280.2884
   9   2.0000     -10.290060      -280.0068
  10   2.0000     -10.287194      -279.9288
  11   2.0000     -10.286365      -279.9062
  12   2.0000     -10.285510      -279.8830
  13   2.0000     -10.284237      -279.8483
  14   2.0000     -10.283601      -279.8310
  15   2.0000     -10.283588      -279.8307
  16   2.0000      -8.082462      -219.9350
  17   2.0000      -8.080070      -219.8699
  18   2.0000      -6.040896      -164.3811
  19   2.0000      -6.038535      -164.3169
  20   2.0000      -6.037020      -164.2757
  21   2.0000      -6.034330      -164.2025
  22   2.0000      -6.033231      -164.1726
  23   2.0000      -6.030747      -164.1050
  24   2.0000      -1.012746       -27.5582
  25   2.0000      -0.988104       -26.8877
  26   2.0000      -0.918722       -24.9997
  27   2.0000      -0.904222       -24.6051
  28   2.0000      -0.872690       -23.7471
  29   2.0000      -0.850152       -23.1338
  30   2.0000      -0.842566       -22.9274
  31   2.0000      -0.811135       -22.0721
  32   2.0000      -0.786846       -21.4112
  33   2.0000      -0.773852       -21.0576
  34   2.0000      -0.711139       -19.3511
  35   2.0000      -0.710186       -19.3251
  36   2.0000      -0.700140       -19.0518
  37   2.0000      -0.661373       -17.9969
  38   2.0000      -0.644239       -17.5306
  39   2.0000      -0.621970       -16.9247
  40   2.0000      -0.606339       -16.4993
  41   2.0000      -0.572283       -15.5726
  42   2.0000      -0.566507       -15.4154
  43   2.0000      -0.557194       -15.1620
  44   2.0000      -0.520764       -14.1707
  45   2.0000      -0.519556       -14.1378
  46   2.0000      -0.517241       -14.0749
  47   2.0000      -0.510536       -13.8924
  48   2.0000      -0.505954       -13.7677
  49   2.0000      -0.500658       -13.6236
  50   2.0000      -0.492879       -13.4119
  51   2.0000      -0.478175       -13.0118
  52   2.0000      -0.469887       -12.7863
  53   2.0000      -0.464233       -12.6324
  54   2.0000      -0.456801       -12.4302
  55   2.0000      -0.455570       -12.3967
  56   2.0000      -0.451594       -12.2885
  57   2.0000      -0.440132       -11.9766
  58   2.0000      -0.436388       -11.8747
  59   2.0000      -0.427773       -11.6403
  60   2.0000      -0.424781       -11.5589
  61   2.0000      -0.412614       -11.2278
  62   2.0000      -0.410166       -11.1612
  63   2.0000      -0.350425        -9.5356
  64   2.0000      -0.335771        -9.1368
  65   2.0000      -0.327630        -8.9153
  66   2.0000      -0.292461        -7.9583
  67   0.0000       0.031474         0.8564
  68   0.0000       0.081122         2.2074
  69   0.0000       0.112369         3.0577
  70   0.0000       0.120754         3.2859
  71   0.0000       0.133699         3.6381

MULLIKEN ATOMIC CHARGES
-----------------------
   0 S :    0.106418
   1 C :   -0.111605
   2 C :   -0.072266
   3 C :    0.011521
   4 C :   -0.167203
   5 H :    0.037096
   6 C :    0.128075
   7 H :   -0.002764
   8 H :    0.008247
   9 C :   -0.035543
  10 H :    0.024835
  11 H :    0.027743
  12 C :   -0.087850
  13 H :    0.030450
  14 H :    0.040128
  15 H :    0.026583
  16 S :    0.123536
  17 C :   -0.058336
  18 C :   -0.024565
  19 C :   -0.064715
  20 C :   -0.148350
  21 H :    0.017568
  22 C :    0.099542
  23 H :    0.026276
  24 H :   -0.000616
  25 C :   -0.033272
  26 H :    0.014720
  27 H :    0.026012
  28 C :   -0.096283
  29 H :    0.037413
  30 H :    0.040913
  31 H :    0.027713
  32 H :    0.015509
  33 H :    0.033070
Sum of atomic charges:    0.0000000

LOEWDIN ATOMIC CHARGES
----------------------
   0 S :    0.402715
   1 C :   -0.166880
   2 C :   -0.059232
   3 C :   -0.061492
   4 C :   -0.198383
   5 H :    0.035704
   6 C :   -0.023337
   7 H :    0.027721
   8 H :    0.019620
   9 C :   -0.034827
  10 H :    0.023598
  11 H :    0.024594
  12 C :   -0.079632
  13 H :    0.032161
  14 H :    0.026996
  15 H :    0.027185
  16 S :    0.438923
  17 C :   -0.196269
  18 C :   -0.069497
  19 C :   -0.057057
  20 C :   -0.213584
  21 H :    0.030712
  22 C :   -0.022170
  23 H :    0.032811
  24 H :    0.017124
  25 C :   -0.028012
  26 H :    0.012620
  27 H :    0.025696
  28 C :   -0.078764
  29 H :    0.032656
  30 H :    0.028622
  31 H :    0.019971
  32 H :    0.008992
  33 H :    0.020715

  Mayer bond orders larger than 0.100000
B(  0-S ,  1-C ) :   1.1228 B(  0-S ,  4-C ) :   1.1629 B(  1-C ,  2-C ) :   1.6359
B(  1-C , 32-H ) :   0.9843 B(  2-C ,  3-C ) :   1.2441 B(  2-C ,  6-C ) :   1.0059
B(  3-C ,  4-C ) :   1.5592 B(  3-C ,  5-H ) :   0.9772 B(  4-C , 20-C ) :   1.0409
B(  6-C ,  7-H ) :   0.9351 B(  6-C ,  8-H ) :   0.9335 B(  6-C ,  9-C ) :   1.0737
B(  9-C , 10-H ) :   0.9558 B(  9-C , 11-H ) :   0.9538 B(  9-C , 12-C ) :   1.0755
B( 12-C , 13-H ) :   0.9731 B( 12-C , 14-H ) :   0.9761 B( 12-C , 15-H ) :   0.9735
B( 16-S , 17-C ) :   1.1503 B( 16-S , 20-C ) :   1.1608 B( 17-C , 18-C ) :   1.5997
B( 17-C , 33-H ) :   0.9789 B( 18-C , 19-C ) :   1.2570 B( 18-C , 21-H ) :   0.9849
B( 19-C , 20-C ) :   1.5831 B( 19-C , 22-C ) :   1.0529 B( 22-C , 23-H ) :   0.9449
B( 22-C , 24-H ) :   0.9205 B( 22-C , 25-C ) :   1.0414 B( 25-C , 26-H ) :   0.9606
B( 25-C , 27-H ) :   0.9652 B( 25-C , 28-C ) :   1.0568 B( 28-C , 29-H ) :   0.9758
B( 28-C , 30-H ) :   0.9781 B( 28-C , 31-H ) :   0.9766

Dispersion correction           -0.013495959
FINAL SINGLE POINT ENERGY     -1339.865311617133

DIPOLE MOMENT
-------------
                                X             Y             Z
Electronic contribution:     14.88712      11.04921      25.10236
Nuclear contribution   :    -15.14012     -11.42963     -25.52512
                        -----------------------------------------
Total Dipole Moment    :     -0.25300      -0.38042      -0.42277
                        -----------------------------------------
Magnitude (a.u.)       :      0.62246
Magnitude (Debye)      :      1.58216

Rotational constants in cm-1:     0.017678     0.008204     0.006209
Rotational constants in MHz :   529.960415   245.954086   186.146413

                             ****ORCA TERMINATED NORMALLY****
TOTAL RUN TIME: 0 days 0 hours 0 minutes 21 seconds 130 msec
