                         Program Version 4.2.1 -  RELEASE  -
|  1> ! wB97X-D3 SP def2-SVP
|  2> %pal
|  3> nprocs 24
|  4> end
|  5>
|  6> * xyz 0 1
|  7> S 	 -70.5669 	 17.6804 	 -72.7341
|  8> C 	 -68.9106 	 17.2561 	 -72.3095
|  9> C 	 -68.0533 	 17.5268 	 -73.418
| 10> C 	 -68.8472 	 17.8242 	 -74.5567
| 11> C 	 -70.1967 	 17.8052 	 -74.441
| 12> H 	 -68.4061 	 18.1226 	 -75.5298
| 13> C 	 -66.5348 	 17.7082 	 -73.412
| 14> H 	 -66.0177 	 17.0816 	 -74.1675
| 15> H 	 -66.1857 	 17.2823 	 -72.4626
| 16> C 	 -65.9022 	 19.095 	 -73.8212
| 17> H 	 -64.847 	 18.9965 	 -73.7515
| 18> H 	 -65.9865 	 19.1536 	 -74.8883
| 19> C 	 -66.5003 	 20.3252 	 -73.0626
| 20> H 	 -67.5767 	 20.269 	 -73.1201
| 21> H 	 -66.21 	 20.1119 	 -72.0154
| 22> H 	 -66.0689 	 21.2252 	 -73.3911
| 23> S 	 -72.4254 	 17.3273 	 -75.8954
| 24> C 	 -73.2005 	 18.6534 	 -76.6766
| 25> C 	 -72.4243 	 19.8168 	 -76.7063
| 26> C 	 -71.2218 	 19.6155 	 -75.9866
| 27> C 	 -71.1686 	 18.341 	 -75.3949
| 28> H 	 -72.7412 	 20.6967 	 -77.1795
| 29> C 	 -70.2391 	 20.8191 	 -75.9691
| 30> H 	 -69.9846 	 20.9974 	 -74.8828
| 31> H 	 -70.7377 	 21.7323 	 -76.216
| 32> C 	 -69.0047 	 20.7551 	 -76.8765
| 33> H 	 -69.3478 	 20.3811 	 -77.8492
| 34> H 	 -68.3277 	 20.0533 	 -76.4433
| 35> C 	 -68.2538 	 22.0723 	 -77.0831
| 36> H 	 -67.4413 	 21.9079 	 -77.7903
| 37> H 	 -67.8475 	 22.4854 	 -76.1727
| 38> H 	 -68.9659 	 22.7799 	 -77.5186
| 39> H 	 -68.5037 	 16.9305 	 -71.3256
| 40> H 	 -74.2002 	 18.6261 	 -77.1424
| 41> *
| 42>
| 43>                          ****END OF INPUT****

CARTESIAN COORDINATES (ANGSTROEM)
---------------------------------
  S    -70.566900   17.680400  -72.734100
  C    -68.910600   17.256100  -72.309500
  C    -68.053300   17.526800  -73.418000
  C    -68.847200   17.824200  -74.556700
  C    -70.196700   17.805200  -74.441000
  H    -68.406100   18.122600  -75.529800
  C    -66.534800   17.708200  -73.412000
  H    -66.017700   17.081600  -74.167500
  H    -66.185700   17.282300  -72.462600
  C    -65.902200   19.095000  -73.821200
  H    -64.847000   18.996500  -73.751500
  H    -65.986500   19.153600  -74.888300
  C    -66.500300   20.325200  -73.062600
  H    -67.576700   20.269000  -73.120100
  H    -66.210000   20.111900  -72.015400
  H    -66.068900   21.225200  -73.391100
  S    -72.425400   17.327300  -75.895400
  C    -73.200500   18.653400  -76.676600
  C    -72.424300   19.816800  -76.706300
  C    -71.221800   19.615500  -75.986600
  C    -71.168600   18.341000  -75.394900
  H    -72.741200   20.696700  -77.179500
  C    -70.239100   20.819100  -75.969100
  H    -69.984600   20.997400  -74.882800
  H    -70.737700   21.732300  -76.216000
  C    -69.004700   20.755100  -76.876500
  H    -69.347800   20.381100  -77.849200
  H    -68.327700   20.053300  -76.443300
  C    -68.253800   22.072300  -77.083100
  H    -67.441300   21.907900  -77.790300
  H    -67.847500   22.485400  -76.172700
  H    -68.965900   22.779900  -77.518600
  H    -68.503700   16.930500  -71.325600
  H    -74.200200   18.626100  -77.142400

 Total Charge           Charge          ....    0
 Multiplicity           Mult            ....    1
 Number of Electrons    NEL             ....  134
 Basis Dimension        Dim             ....  322

ORBITAL ENERGIES
----------------

  NO   OCC          E(Eh)            E(eV)
   0   2.0000     -88.970795     -2421.0184
   1   2.0000     -88.965878     -2420.8846
   2   2.0000     -10.324831      -280.9529
   3   2.0000     -10.323423      -280.9146
   4   2.0000     -10.323077      -280.9052
   5   2.0000     -10.316834      -280.7353
   6   2.0000     -10.306305      -280.4488
   7   2.0000     -10.305625      -280.4303
   8   2.0000     -10.299240      -280.2566
   9   2.0000     -10.294139      -280.1178
  10   2.0000     -10.289853      -280.0011
  11   2.0000     -10.289796      -279.9996
  12   2.0000     -10.289526      -279.9922
  13   2.0000     -10.284482      -279.8550
  14   2.0000     -10.279527      -279.7202
  15   2.0000     -10.276311      -279.6326
  16   2.0000      -8.086813      -220.0534
  17   2.0000      -8.080193      -219.8732
  18   2.0000      -6.045045      -164.4940
  19   2.0000      -6.041093      -164.3865
  20   2.0000      -6.038759      -164.3230
  21   2.0000      -6.037837      -164.2979
  22   2.0000      -6.034847      -164.2165
  23   2.0000      -6.030792      -164.1062
  24   2.0000      -1.011805       -27.5326
  25   2.0000      -0.986299       -26.8386
  26   2.0000      -0.908963       -24.7341
  27   2.0000      -0.904482       -24.6122
  28   2.0000      -0.867752       -23.6127
  29   2.0000      -0.855419       -23.2771
  30   2.0000      -0.842103       -22.9148
  31   2.0000      -0.811535       -22.0830
  32   2.0000      -0.785091       -21.3634
  33   2.0000      -0.772810       -21.0292
  34   2.0000      -0.708961       -19.2918
  35   2.0000      -0.701031       -19.0760
  36   2.0000      -0.687703       -18.7134
  37   2.0000      -0.666266       -18.1300
  38   2.0000      -0.636474       -17.3193
  39   2.0000      -0.618802       -16.8385
  40   2.0000      -0.595162       -16.1952
  41   2.0000      -0.569024       -15.4839
  42   2.0000      -0.562527       -15.3071
  43   2.0000      -0.550280       -14.9739
  44   2.0000      -0.542027       -14.7493
  45   2.0000      -0.524443       -14.2708
  46   2.0000      -0.517338       -14.0775
  47   2.0000      -0.514645       -14.0042
  48   2.0000      -0.503117       -13.6905
  49   2.0000      -0.498420       -13.5627
  50   2.0000      -0.487265       -13.2592
  51   2.0000      -0.476785       -12.9740
  52   2.0000      -0.475567       -12.9408
  53   2.0000      -0.466416       -12.6918
  54   2.0000      -0.458841       -12.4857
  55   2.0000      -0.452132       -12.3031
  56   2.0000      -0.446581       -12.1521
  57   2.0000      -0.436020       -11.8647
  58   2.0000      -0.431330       -11.7371
  59   2.0000      -0.426830       -11.6146
  60   2.0000      -0.424360       -11.5474
  61   2.0000      -0.414996       -11.2926
  62   2.0000      -0.412386       -11.2216
  63   2.0000      -0.340044        -9.2531
  64   2.0000      -0.329541        -8.9673
  65   2.0000      -0.325275        -8.8512
  66   2.0000      -0.299889        -8.1604
  67   0.0000       0.032148         0.8748
  68   0.0000       0.061056         1.6614
  69   0.0000       0.106616         2.9012
  70   0.0000       0.119545         3.2530
  71   0.0000       0.123208         3.3527

MULLIKEN ATOMIC CHARGES
-----------------------
   0 S :    0.111966
   1 C :   -0.128136
   2 C :   -0.098316
   3 C :   -0.005492
   4 C :   -0.105638
   5 H :    0.017426
   6 C :    0.041188
   7 H :    0.033587
   8 H :    0.016867
   9 C :   -0.072866
  10 H :    0.020136
  11 H :    0.013106
  12 C :   -0.016540
  13 H :    0.048105
  14 H :    0.030220
  15 H :    0.032195
  16 S :    0.151293
  17 C :   -0.105445
  18 C :   -0.026136
  19 C :   -0.008392
  20 C :   -0.219802
  21 H :    0.001237
  22 C :    0.067094
  23 H :    0.035803
  24 H :   -0.003245
  25 C :   -0.062463
  26 H :    0.027996
  27 H :    0.018791
  28 C :   -0.038827
  29 H :    0.037795
  30 H :    0.032290
  31 H :    0.028821
  32 H :    0.062765
  33 H :    0.062618
Sum of atomic charges:   -0.0000000

LOEWDIN ATOMIC CHARGES
----------------------
   0 S :    0.407312
   1 C :   -0.198966
   2 C :   -0.070692
   3 C :   -0.065536
   4 C :   -0.207088
   5 H :    0.031664
   6 C :   -0.036298
   7 H :    0.036836
   8 H :    0.025678
   9 C :   -0.035543
  10 H :    0.022193
  11 H :    0.015213
  12 C :   -0.056914
  13 H :    0.027312
  14 H :    0.031436
  15 H :    0.018223
  16 S :    0.461212
  17 C :   -0.199507
  18 C :   -0.064985
  19 C :   -0.046418
  20 C :   -0.233189
  21 H :    0.024225
  22 C :   -0.032829
  23 H :    0.036186
  24 H :    0.021214
  25 C :   -0.038976
  26 H :    0.026334
  27 H :    0.014660
  28 C :   -0.059714
  29 H :    0.029699
  30 H :    0.023076
  31 H :    0.024469
  32 H :    0.037362
  33 H :    0.032350

  Mayer bond orders larger than 0.100000
B(  0-S ,  1-C ) :   1.1601 B(  0-S ,  4-C ) :   1.1471 B(  1-C ,  2-C ) :   1.5647
B(  1-C ,  4-C ) :   0.1049 B(  1-C , 32-H ) :   0.9619 B(  2-C ,  3-C ) :   1.2560
B(  2-C ,  6-C ) :   1.0373 B(  3-C ,  4-C ) :   1.5775 B(  3-C ,  5-H ) :   0.9952
B(  4-C , 20-C ) :   1.0154 B(  6-C ,  7-H ) :   0.9397 B(  6-C ,  8-H ) :   0.9429
B(  6-C ,  9-C ) :   1.0634 B(  9-C , 10-H ) :   0.9527 B(  9-C , 11-H ) :   0.9530
B(  9-C , 12-C ) :   1.0622 B( 12-C , 13-H ) :   0.9756 B( 12-C , 14-H ) :   0.9766
B( 12-C , 15-H ) :   0.9761 B( 16-S , 17-C ) :   1.1833 B( 16-S , 20-C ) :   1.1778
B( 17-C , 18-C ) :   1.5662 B( 17-C , 20-C ) :   0.1002 B( 17-C , 33-H ) :   0.9640
B( 18-C , 19-C ) :   1.2824 B( 18-C , 21-H ) :   1.0010 B( 19-C , 20-C ) :   1.5528
B( 19-C , 22-C ) :   1.0363 B( 22-C , 23-H ) :   0.9278 B( 22-C , 24-H ) :   0.9362
B( 22-C , 25-C ) :   1.0619 B( 25-C , 26-H ) :   0.9533 B( 25-C , 27-H ) :   0.9474
B( 25-C , 28-C ) :   1.0937 B( 28-C , 29-H ) :   0.9731 B( 28-C , 30-H ) :   0.9746
B( 28-C , 31-H ) :   0.9736

Dispersion correction           -0.015994486
FINAL SINGLE POINT ENERGY     -1339.868612476550

DIPOLE MOMENT
-------------
                                X             Y             Z
Electronic contribution:    -24.97095     -19.34742       4.57249
Nuclear contribution   :     25.47003      19.88333      -4.83074
                        -----------------------------------------
Total Dipole Moment    :      0.49908       0.53591      -0.25825
                        -----------------------------------------
Magnitude (a.u.)       :      0.77651
Magnitude (Debye)      :      1.97373

Rotational constants in cm-1:     0.017204     0.010948     0.007379
Rotational constants in MHz :   515.772832   328.217056   221.225561

                             ****ORCA TERMINATED NORMALLY****
TOTAL RUN TIME: 0 days 0 hours 0 minutes 22 seconds 969 msec
