                         Program Version 4.2.1 -  RELEASE  -
|  1> ! wB97X-D3 SP def2-SVP
|  2> %pal
|  3> nprocs 24
|  4> end
|  5>
|  6> * xyz 0 1
|  7> S 	 -84.3838 	 -32.7403 	 -77.0394
|  8> C 	 -84.4536 	 -32.3886 	 -78.7374
|  9> C 	 -85.7739 	 -32.3982 	 -79.2126
| 10> C 	 -86.7207 	 -32.5721 	 -78.1365
| 11> C 	 -86.0932 	 -32.6405 	 -76.863
| 12> H 	 -87.7818 	 -32.5606 	 -78.1139
| 13> C 	 -86.1354 	 -32.1569 	 -80.6748
| 14> H 	 -87.1521 	 -32.4765 	 -80.7711
| 15> H 	 -85.4808 	 -32.7661 	 -81.3455
| 16> C 	 -85.8801 	 -30.6402 	 -81.1032
| 17> H 	 -86.5751 	 -30.3006 	 -81.8066
| 18> H 	 -86.1426 	 -29.9873 	 -80.3357
| 19> C 	 -84.5371 	 -30.1825 	 -81.6452
| 20> H 	 -83.8794 	 -30.303 	 -80.8092
| 21> H 	 -84.1066 	 -30.871 	 -82.4707
| 22> H 	 -84.4822 	 -29.177 	 -81.9189
| 23> S 	 -86.573 	 -34.2184 	 -74.5651
| 24> C 	 -87.8459 	 -33.5861 	 -73.5035
| 25> C 	 -88.5144 	 -32.4955 	 -74.0287
| 26> C 	 -87.9887 	 -32.0134 	 -75.2569
| 27> C 	 -86.8601 	 -32.8059 	 -75.6193
| 28> H 	 -89.4001 	 -32.0226 	 -73.4714
| 29> C 	 -88.7166 	 -30.8715 	 -76.0499
| 30> H 	 -88.1136 	 -30.4423 	 -76.7506
| 31> H 	 -88.9907 	 -30.0526 	 -75.3627
| 32> C 	 -90.1023 	 -31.2798 	 -76.4396
| 33> H 	 -90.8124 	 -31.3406 	 -75.6192
| 34> H 	 -90.2185 	 -32.2327 	 -76.911
| 35> C 	 -90.8391 	 -30.1593 	 -77.2236
| 36> H 	 -91.7922 	 -30.4389 	 -77.579
| 37> H 	 -90.1939 	 -29.8813 	 -78.0345
| 38> H 	 -91.0383 	 -29.2985 	 -76.5725
| 39> H 	 -83.5858 	 -32.2024 	 -79.2973
| 40> H 	 -88.1537 	 -33.9076 	 -72.536
| 41> *
| 42>
| 43>                          ****END OF INPUT****

CARTESIAN COORDINATES (ANGSTROEM)
---------------------------------
  S    -84.383800  -32.740300  -77.039400
  C    -84.453600  -32.388600  -78.737400
  C    -85.773900  -32.398200  -79.212600
  C    -86.720700  -32.572100  -78.136500
  C    -86.093200  -32.640500  -76.863000
  H    -87.781800  -32.560600  -78.113900
  C    -86.135400  -32.156900  -80.674800
  H    -87.152100  -32.476500  -80.771100
  H    -85.480800  -32.766100  -81.345500
  C    -85.880100  -30.640200  -81.103200
  H    -86.575100  -30.300600  -81.806600
  H    -86.142600  -29.987300  -80.335700
  C    -84.537100  -30.182500  -81.645200
  H    -83.879400  -30.303000  -80.809200
  H    -84.106600  -30.871000  -82.470700
  H    -84.482200  -29.177000  -81.918900
  S    -86.573000  -34.218400  -74.565100
  C    -87.845900  -33.586100  -73.503500
  C    -88.514400  -32.495500  -74.028700
  C    -87.988700  -32.013400  -75.256900
  C    -86.860100  -32.805900  -75.619300
  H    -89.400100  -32.022600  -73.471400
  C    -88.716600  -30.871500  -76.049900
  H    -88.113600  -30.442300  -76.750600
  H    -88.990700  -30.052600  -75.362700
  C    -90.102300  -31.279800  -76.439600
  H    -90.812400  -31.340600  -75.619200
  H    -90.218500  -32.232700  -76.911000
  C    -90.839100  -30.159300  -77.223600
  H    -91.792200  -30.438900  -77.579000
  H    -90.193900  -29.881300  -78.034500
  H    -91.038300  -29.298500  -76.572500
  H    -83.585800  -32.202400  -79.297300
  H    -88.153700  -33.907600  -72.536000

 Total Charge           Charge          ....    0
 Multiplicity           Mult            ....    1
 Number of Electrons    NEL             ....  134
 Basis Dimension        Dim             ....  322

ORBITAL ENERGIES
----------------

  NO   OCC          E(Eh)            E(eV)
   0   2.0000     -88.973461     -2421.0910
   1   2.0000     -88.967415     -2420.9264
   2   2.0000     -10.333843      -281.1982
   3   2.0000     -10.327520      -281.0261
   4   2.0000     -10.315602      -280.7018
   5   2.0000     -10.310396      -280.5601
   6   2.0000     -10.309918      -280.5471
   7   2.0000     -10.306917      -280.4655
   8   2.0000     -10.300662      -280.2953
   9   2.0000     -10.297891      -280.2199
  10   2.0000     -10.295581      -280.1570
  11   2.0000     -10.294098      -280.1166
  12   2.0000     -10.284762      -279.8626
  13   2.0000     -10.278466      -279.6913
  14   2.0000     -10.277891      -279.6756
  15   2.0000     -10.276454      -279.6365
  16   2.0000      -8.086755      -220.0518
  17   2.0000      -8.082613      -219.9391
  18   2.0000      -6.045321      -164.5016
  19   2.0000      -6.041727      -164.4038
  20   2.0000      -6.040956      -164.3828
  21   2.0000      -6.037287      -164.2829
  22   2.0000      -6.036956      -164.2739
  23   2.0000      -6.033648      -164.1839
  24   2.0000      -1.000971       -27.2378
  25   2.0000      -0.978298       -26.6208
  26   2.0000      -0.917139       -24.9566
  27   2.0000      -0.906759       -24.6742
  28   2.0000      -0.864462       -23.5232
  29   2.0000      -0.853765       -23.2321
  30   2.0000      -0.848283       -23.0829
  31   2.0000      -0.809198       -22.0194
  32   2.0000      -0.787276       -21.4229
  33   2.0000      -0.773976       -21.0610
  34   2.0000      -0.708171       -19.2703
  35   2.0000      -0.704789       -19.1783
  36   2.0000      -0.698750       -19.0140
  37   2.0000      -0.656177       -17.8555
  38   2.0000      -0.642364       -17.4796
  39   2.0000      -0.612608       -16.6699
  40   2.0000      -0.595775       -16.2118
  41   2.0000      -0.573411       -15.6033
  42   2.0000      -0.567739       -15.4490
  43   2.0000      -0.551096       -14.9961
  44   2.0000      -0.536948       -14.6111
  45   2.0000      -0.533626       -14.5207
  46   2.0000      -0.519747       -14.1430
  47   2.0000      -0.514327       -13.9955
  48   2.0000      -0.503082       -13.6896
  49   2.0000      -0.492361       -13.3978
  50   2.0000      -0.486149       -13.2288
  51   2.0000      -0.480622       -13.0784
  52   2.0000      -0.477614       -12.9965
  53   2.0000      -0.460781       -12.5385
  54   2.0000      -0.458284       -12.4705
  55   2.0000      -0.453308       -12.3351
  56   2.0000      -0.449593       -12.2341
  57   2.0000      -0.446830       -12.1589
  58   2.0000      -0.434106       -11.8126
  59   2.0000      -0.431464       -11.7407
  60   2.0000      -0.426958       -11.6181
  61   2.0000      -0.410643       -11.1742
  62   2.0000      -0.408129       -11.1057
  63   2.0000      -0.342159        -9.3106
  64   2.0000      -0.334134        -9.0922
  65   2.0000      -0.328650        -8.9430
  66   2.0000      -0.286228        -7.7887
  67   0.0000       0.026303         0.7157
  68   0.0000       0.067716         1.8427
  69   0.0000       0.103760         2.8234
  70   0.0000       0.121221         3.2986
  71   0.0000       0.124563         3.3895

MULLIKEN ATOMIC CHARGES
-----------------------
   0 S :    0.123980
   1 C :   -0.119787
   2 C :   -0.082993
   3 C :    0.034025
   4 C :   -0.178841
   5 H :   -0.004249
   6 C :    0.093985
   7 H :    0.021106
   8 H :    0.039337
   9 C :   -0.038817
  10 H :    0.005317
  11 H :    0.006439
  12 C :   -0.042628
  13 H :    0.011383
  14 H :    0.039256
  15 H :    0.029600
  16 S :    0.124792
  17 C :   -0.072742
  18 C :   -0.073220
  19 C :   -0.024013
  20 C :   -0.165202
  21 H :    0.045628
  22 C :    0.119140
  23 H :    0.010174
  24 H :    0.020846
  25 C :   -0.095899
  26 H :    0.023280
  27 H :    0.029110
  28 C :   -0.030986
  29 H :    0.024532
  30 H :    0.023912
  31 H :    0.028284
  32 H :    0.036721
  33 H :    0.038529
Sum of atomic charges:   -0.0000000

LOEWDIN ATOMIC CHARGES
----------------------
   0 S :    0.430223
   1 C :   -0.200350
   2 C :   -0.058042
   3 C :   -0.060606
   4 C :   -0.209396
   5 H :    0.024874
   6 C :   -0.021067
   7 H :    0.029135
   8 H :    0.036685
   9 C :   -0.039323
  10 H :    0.016222
  11 H :    0.018754
  12 C :   -0.061669
  13 H :    0.017842
  14 H :    0.032676
  15 H :    0.021730
  16 S :    0.388093
  17 C :   -0.183087
  18 C :   -0.075144
  19 C :   -0.047541
  20 C :   -0.190254
  21 H :    0.044144
  22 C :   -0.020131
  23 H :    0.014927
  24 H :    0.041311
  25 C :   -0.042007
  26 H :    0.025451
  27 H :    0.016314
  28 C :   -0.054550
  29 H :    0.020278
  30 H :    0.018958
  31 H :    0.025608
  32 H :    0.015512
  33 H :    0.024432

  Mayer bond orders larger than 0.100000
B(  0-S ,  1-C ) :   1.1576 B(  0-S ,  4-C ) :   1.1780 B(  1-C ,  2-C ) :   1.5567
B(  1-C , 32-H ) :   0.9792 B(  2-C ,  3-C ) :   1.2582 B(  2-C ,  6-C ) :   1.0322
B(  3-C ,  4-C ) :   1.5244 B(  3-C ,  5-H ) :   1.0004 B(  4-C , 20-C ) :   1.0525
B(  6-C ,  7-H ) :   0.9399 B(  6-C ,  8-H ) :   0.9474 B(  6-C ,  9-C ) :   1.0412
B(  9-C , 10-H ) :   0.9551 B(  9-C , 11-H ) :   0.9527 B(  9-C , 12-C ) :   1.0855
B( 12-C , 13-H ) :   0.9738 B( 12-C , 14-H ) :   0.9738 B( 12-C , 15-H ) :   0.9689
B( 16-S , 17-C ) :   1.1248 B( 16-S , 20-C ) :   1.1401 B( 17-C , 18-C ) :   1.6473
B( 17-C , 33-H ) :   0.9653 B( 18-C , 19-C ) :   1.2393 B( 18-C , 21-H ) :   0.9699
B( 19-C , 20-C ) :   1.5899 B( 19-C , 22-C ) :   1.0428 B( 22-C , 23-H ) :   0.9430
B( 22-C , 24-H ) :   0.9267 B( 22-C , 25-C ) :   1.0485 B( 25-C , 26-H ) :   0.9530
B( 25-C , 27-H ) :   0.9589 B( 25-C , 28-C ) :   1.0794 B( 28-C , 29-H ) :   0.9738
B( 28-C , 30-H ) :   0.9770 B( 28-C , 31-H ) :   0.9762

Dispersion correction           -0.014306528
FINAL SINGLE POINT ENERGY     -1339.846061280070

DIPOLE MOMENT
-------------
                                X             Y             Z
Electronic contribution:     14.41980     -18.25035      20.31257
Nuclear contribution   :    -15.01633      18.69904     -20.62290
                        -----------------------------------------
Total Dipole Moment    :     -0.59653       0.44868      -0.31033
                        -----------------------------------------
Magnitude (a.u.)       :      0.80837
Magnitude (Debye)      :      2.05473

Rotational constants in cm-1:     0.018017     0.008949     0.006348
Rotational constants in MHz :   540.130320   268.278713   190.298536

                             ****ORCA TERMINATED NORMALLY****
TOTAL RUN TIME: 0 days 0 hours 0 minutes 21 seconds 533 msec
