                         Program Version 4.2.1 -  RELEASE  -
|  1> ! wB97X-D3 SP def2-SVP
|  2> %pal
|  3> nprocs 24
|  4> end
|  5>
|  6> * xyz 0 1
|  7> S 	 -61.4422 	 9.12257 	 -77.0474
|  8> C 	 -60.7134 	 10.1687 	 -75.8467
|  9> C 	 -61.724 	 10.786 	 -75.1589
| 10> C 	 -63.0285 	 10.6004 	 -75.7027
| 11> C 	 -63.0469 	 9.64357 	 -76.7002
| 12> H 	 -63.9719 	 11.0638 	 -75.4514
| 13> C 	 -61.4928 	 11.7282 	 -73.9694
| 14> H 	 -61.8393 	 12.7479 	 -74.3087
| 15> H 	 -60.4148 	 11.8026 	 -73.7676
| 16> C 	 -62.3152 	 11.2315 	 -72.8157
| 17> H 	 -62.4506 	 12.0367 	 -72.0304
| 18> H 	 -63.3233 	 11.0186 	 -73.1773
| 19> C 	 -61.7191 	 9.98203 	 -72.1309
| 20> H 	 -62.4075 	 9.50965 	 -71.3636
| 21> H 	 -61.6204 	 9.16888 	 -72.9376
| 22> H 	 -60.7634 	 10.1919 	 -71.6368
| 23> S 	 -64.1887 	 9.14387 	 -79.2147
| 24> C 	 -65.848 	 8.60519 	 -79.2689
| 25> C 	 -66.3577 	 8.40389 	 -77.9956
| 26> C 	 -65.4724 	 8.74339 	 -76.9267
| 27> C 	 -64.2216 	 9.16832 	 -77.4121
| 28> H 	 -67.3553 	 8.04499 	 -78.0164
| 29> C 	 -66.0017 	 8.76852 	 -75.518
| 30> H 	 -67.0273 	 8.49902 	 -75.6508
| 31> H 	 -65.9939 	 9.74832 	 -75.1228
| 32> C 	 -65.2086 	 7.89492 	 -74.5207
| 33> H 	 -65.4601 	 8.10473 	 -73.4589
| 34> H 	 -64.1488 	 8.18306 	 -74.4254
| 35> C 	 -65.3077 	 6.37361 	 -74.7075
| 36> H 	 -66.3769 	 6.06692 	 -74.7227
| 37> H 	 -64.7231 	 5.88757 	 -73.9848
| 38> H 	 -64.9044 	 6.05225 	 -75.6383
| 39> H 	 -59.6771 	 10.1478 	 -75.465
| 40> H 	 -66.3654 	 8.27993 	 -80.1504
| 41> *
| 42>
| 43>                          ****END OF INPUT****

CARTESIAN COORDINATES (ANGSTROEM)
---------------------------------
  S    -61.442200    9.122570  -77.047400
  C    -60.713400   10.168700  -75.846700
  C    -61.724000   10.786000  -75.158900
  C    -63.028500   10.600400  -75.702700
  C    -63.046900    9.643570  -76.700200
  H    -63.971900   11.063800  -75.451400
  C    -61.492800   11.728200  -73.969400
  H    -61.839300   12.747900  -74.308700
  H    -60.414800   11.802600  -73.767600
  C    -62.315200   11.231500  -72.815700
  H    -62.450600   12.036700  -72.030400
  H    -63.323300   11.018600  -73.177300
  C    -61.719100    9.982030  -72.130900
  H    -62.407500    9.509650  -71.363600
  H    -61.620400    9.168880  -72.937600
  H    -60.763400   10.191900  -71.636800
  S    -64.188700    9.143870  -79.214700
  C    -65.848000    8.605190  -79.268900
  C    -66.357700    8.403890  -77.995600
  C    -65.472400    8.743390  -76.926700
  C    -64.221600    9.168320  -77.412100
  H    -67.355300    8.044990  -78.016400
  C    -66.001700    8.768520  -75.518000
  H    -67.027300    8.499020  -75.650800
  H    -65.993900    9.748320  -75.122800
  C    -65.208600    7.894920  -74.520700
  H    -65.460100    8.104730  -73.458900
  H    -64.148800    8.183060  -74.425400
  C    -65.307700    6.373610  -74.707500
  H    -66.376900    6.066920  -74.722700
  H    -64.723100    5.887570  -73.984800
  H    -64.904400    6.052250  -75.638300
  H    -59.677100   10.147800  -75.465000
  H    -66.365400    8.279930  -80.150400

 Total Charge           Charge          ....    0
 Multiplicity           Mult            ....    1
 Number of Electrons    NEL             ....  134
 Basis Dimension        Dim             ....  322

ORBITAL ENERGIES
----------------

  NO   OCC          E(Eh)            E(eV)
   0   2.0000     -88.968050     -2420.9437
   1   2.0000     -88.965770     -2420.8817
   2   2.0000     -10.333779      -281.1964
   3   2.0000     -10.329484      -281.0795
   4   2.0000     -10.316812      -280.7347
   5   2.0000     -10.314281      -280.6659
   6   2.0000     -10.309529      -280.5365
   7   2.0000     -10.300713      -280.2967
   8   2.0000     -10.296417      -280.1797
   9   2.0000     -10.293340      -280.0960
  10   2.0000     -10.292335      -280.0687
  11   2.0000     -10.290964      -280.0314
  12   2.0000     -10.290703      -280.0243
  13   2.0000     -10.288263      -279.9579
  14   2.0000     -10.286426      -279.9079
  15   2.0000     -10.268244      -279.4131
  16   2.0000      -8.081946      -219.9209
  17   2.0000      -8.080854      -219.8912
  18   2.0000      -6.040462      -164.3693
  19   2.0000      -6.039389      -164.3401
  20   2.0000      -6.036549      -164.2628
  21   2.0000      -6.035194      -164.2260
  22   2.0000      -6.032773      -164.1601
  23   2.0000      -6.031670      -164.1301
  24   2.0000      -1.008714       -27.4485
  25   2.0000      -0.984004       -26.7761
  26   2.0000      -0.915507       -24.9122
  27   2.0000      -0.908498       -24.7215
  28   2.0000      -0.869921       -23.6718
  29   2.0000      -0.850393       -23.1404
  30   2.0000      -0.840818       -22.8798
  31   2.0000      -0.814948       -22.1759
  32   2.0000      -0.786536       -21.4027
  33   2.0000      -0.773812       -21.0565
  34   2.0000      -0.715921       -19.4812
  35   2.0000      -0.696877       -18.9630
  36   2.0000      -0.685964       -18.6660
  37   2.0000      -0.660349       -17.9690
  38   2.0000      -0.641054       -17.4440
  39   2.0000      -0.622594       -16.9416
  40   2.0000      -0.591585       -16.0978
  41   2.0000      -0.571188       -15.5428
  42   2.0000      -0.557701       -15.1758
  43   2.0000      -0.550893       -14.9906
  44   2.0000      -0.542983       -14.7753
  45   2.0000      -0.534794       -14.5525
  46   2.0000      -0.519063       -14.1244
  47   2.0000      -0.512876       -13.9561
  48   2.0000      -0.505812       -13.7638
  49   2.0000      -0.495288       -13.4775
  50   2.0000      -0.487695       -13.2708
  51   2.0000      -0.477623       -12.9968
  52   2.0000      -0.474397       -12.9090
  53   2.0000      -0.469695       -12.7810
  54   2.0000      -0.458942       -12.4884
  55   2.0000      -0.442126       -12.0309
  56   2.0000      -0.440618       -11.9898
  57   2.0000      -0.437955       -11.9174
  58   2.0000      -0.435928       -11.8622
  59   2.0000      -0.430464       -11.7135
  60   2.0000      -0.428120       -11.6497
  61   2.0000      -0.406453       -11.0602
  62   2.0000      -0.404319       -11.0021
  63   2.0000      -0.347763        -9.4631
  64   2.0000      -0.333644        -9.0789
  65   2.0000      -0.329888        -8.9767
  66   2.0000      -0.293523        -7.9872
  67   0.0000       0.024031         0.6539
  68   0.0000       0.071036         1.9330
  69   0.0000       0.113442         3.0869
  70   0.0000       0.117061         3.1854
  71   0.0000       0.124577         3.3899

MULLIKEN ATOMIC CHARGES
-----------------------
   0 S :    0.107656
   1 C :   -0.120792
   2 C :   -0.120198
   3 C :    0.012680
   4 C :   -0.145247
   5 H :    0.015204
   6 C :    0.084476
   7 H :    0.046458
   8 H :    0.017673
   9 C :   -0.082749
  10 H :    0.034357
  11 H :    0.024959
  12 C :   -0.095332
  13 H :    0.043775
  14 H :    0.049895
  15 H :    0.040300
  16 S :    0.108941
  17 C :   -0.091688
  18 C :   -0.050767
  19 C :   -0.013407
  20 C :   -0.165901
  21 H :    0.009679
  22 C :    0.129326
  23 H :    0.009006
  24 H :    0.023538
  25 C :   -0.106979
  26 H :    0.016771
  27 H :    0.035591
  28 C :   -0.010993
  29 H :    0.028170
  30 H :    0.022543
  31 H :    0.024929
  32 H :    0.063683
  33 H :    0.054441
Sum of atomic charges:    0.0000000

LOEWDIN ATOMIC CHARGES
----------------------
   0 S :    0.415382
   1 C :   -0.211340
   2 C :   -0.064644
   3 C :   -0.069798
   4 C :   -0.197602
   5 H :    0.031190
   6 C :   -0.030477
   7 H :    0.040061
   8 H :    0.026736
   9 C :   -0.050036
  10 H :    0.026264
  11 H :    0.021943
  12 C :   -0.076438
  13 H :    0.031463
  14 H :    0.033008
  15 H :    0.024406
  16 S :    0.391955
  17 C :   -0.182958
  18 C :   -0.074465
  19 C :   -0.046902
  20 C :   -0.184161
  21 H :    0.028272
  22 C :   -0.022572
  23 H :    0.029261
  24 H :    0.028723
  25 C :   -0.047146
  26 H :    0.024075
  27 H :    0.027660
  28 C :   -0.058794
  29 H :    0.027003
  30 H :    0.020931
  31 H :    0.020661
  32 H :    0.040179
  33 H :    0.028161

  Mayer bond orders larger than 0.100000
B(  0-S ,  1-C ) :   1.1230 B(  0-S ,  4-C ) :   1.1689 B(  1-C ,  2-C ) :   1.6204
B(  1-C , 32-H ) :   0.9624 B(  2-C ,  3-C ) :   1.2208 B(  2-C ,  6-C ) :   1.0197
B(  3-C ,  4-C ) :   1.5619 B(  3-C ,  5-H ) :   0.9942 B(  4-C , 20-C ) :   1.0552
B(  6-C ,  7-H ) :   0.9395 B(  6-C ,  8-H ) :   0.9466 B(  6-C ,  9-C ) :   1.0605
B(  9-C , 10-H ) :   0.9540 B(  9-C , 11-H ) :   0.9550 B(  9-C , 12-C ) :   1.0700
B( 12-C , 13-H ) :   0.9739 B( 12-C , 14-H ) :   0.9731 B( 12-C , 15-H ) :   0.9744
B( 16-S , 17-C ) :   1.1556 B( 16-S , 20-C ) :   1.1371 B( 17-C , 18-C ) :   1.6270
B( 17-C , 20-C ) :   0.1047 B( 17-C , 33-H ) :   0.9642 B( 18-C , 19-C ) :   1.2262
B( 18-C , 21-H ) :   0.9920 B( 19-C , 20-C ) :   1.5722 B( 19-C , 22-C ) :   1.0333
B( 22-C , 23-H ) :   0.9339 B( 22-C , 24-H ) :   0.9308 B( 22-C , 25-C ) :   1.0647
B( 25-C , 26-H ) :   0.9539 B( 25-C , 27-H ) :   0.9514 B( 25-C , 28-C ) :   1.0796
B( 28-C , 29-H ) :   0.9756 B( 28-C , 30-H ) :   0.9713 B( 28-C , 31-H ) :   0.9748

Dispersion correction           -0.016037628
FINAL SINGLE POINT ENERGY     -1339.887433944136

DIPOLE MOMENT
-------------
                                X             Y             Z
Electronic contribution:      4.92180       1.64027     -27.69144
Nuclear contribution   :     -5.26749      -1.53976      28.24015
                        -----------------------------------------
Total Dipole Moment    :     -0.34568       0.10051       0.54871
                        -----------------------------------------
Magnitude (a.u.)       :      0.65627
Magnitude (Debye)      :      1.66810

Rotational constants in cm-1:     0.019867     0.009954     0.007721
Rotational constants in MHz :   595.605231   298.427105   231.480580

                             ****ORCA TERMINATED NORMALLY****
TOTAL RUN TIME: 0 days 0 hours 0 minutes 21 seconds 923 msec
