                         Program Version 4.2.1 -  RELEASE  -
|  1> ! wB97X-D3 SP def2-SVP
|  2> %pal
|  3> nprocs 24
|  4> end
|  5>
|  6> * xyz 0 1
|  7> S 	 -98.4339 	 39.603 	 -83.2238
|  8> C 	 -97.9223 	 37.9566 	 -83.3929
|  9> C 	 -98.7007 	 37.2651 	 -84.3332
| 10> C 	 -99.6301 	 38.16 	 -84.921
| 11> C 	 -99.7139 	 39.3984 	 -84.3728
| 12> H 	 -100.375 	 37.8489 	 -85.6241
| 13> C 	 -98.7499 	 35.7343 	 -84.5341
| 14> H 	 -99.7755 	 35.5397 	 -84.7001
| 15> H 	 -98.4742 	 35.2372 	 -83.5998
| 16> C 	 -98.0473 	 35.1423 	 -85.7864
| 17> H 	 -98.575 	 35.5559 	 -86.7497
| 18> H 	 -96.9883 	 35.2126 	 -85.6883
| 19> C 	 -98.3775 	 33.6461 	 -85.9516
| 20> H 	 -97.8854 	 32.9978 	 -85.2432
| 21> H 	 -99.4762 	 33.4987 	 -85.9899
| 22> H 	 -97.9624 	 33.3805 	 -86.8879
| 23> S 	 -100.947 	 41.7765 	 -83.3276
| 24> C 	 -102.067 	 42.6031 	 -84.2969
| 25> C 	 -102.374 	 41.9079 	 -85.4738
| 26> C 	 -101.532 	 40.7416 	 -85.7386
| 27> C 	 -100.703 	 40.5025 	 -84.6011
| 28> H 	 -102.995 	 42.3774 	 -86.2101
| 29> C 	 -101.586 	 40.0667 	 -87.1077
| 30> H 	 -102.439 	 40.3253 	 -87.6643
| 31> H 	 -101.727 	 39.0067 	 -86.978
| 32> C 	 -100.222 	 40.2454 	 -87.8394
| 33> H 	 -99.4235 	 39.813 	 -87.2626
| 34> H 	 -100.065 	 41.2989 	 -87.9729
| 35> C 	 -100.214 	 39.5204 	 -89.2757
| 36> H 	 -99.3294 	 39.737 	 -89.8665
| 37> H 	 -101.153 	 39.7464 	 -89.854
| 38> H 	 -100.216 	 38.3736 	 -89.2226
| 39> H 	 -97.364 	 37.4959 	 -82.5971
| 40> H 	 -102.474 	 43.4877 	 -83.9625
| 41> *
| 42>
| 43>                          ****END OF INPUT****

CARTESIAN COORDINATES (ANGSTROEM)
---------------------------------
  S    -98.433900   39.603000  -83.223800
  C    -97.922300   37.956600  -83.392900
  C    -98.700700   37.265100  -84.333200
  C    -99.630100   38.160000  -84.921000
  C    -99.713900   39.398400  -84.372800
  H    -100.375000   37.848900  -85.624100
  C    -98.749900   35.734300  -84.534100
  H    -99.775500   35.539700  -84.700100
  H    -98.474200   35.237200  -83.599800
  C    -98.047300   35.142300  -85.786400
  H    -98.575000   35.555900  -86.749700
  H    -96.988300   35.212600  -85.688300
  C    -98.377500   33.646100  -85.951600
  H    -97.885400   32.997800  -85.243200
  H    -99.476200   33.498700  -85.989900
  H    -97.962400   33.380500  -86.887900
  S    -100.947000   41.776500  -83.327600
  C    -102.067000   42.603100  -84.296900
  C    -102.374000   41.907900  -85.473800
  C    -101.532000   40.741600  -85.738600
  C    -100.703000   40.502500  -84.601100
  H    -102.995000   42.377400  -86.210100
  C    -101.586000   40.066700  -87.107700
  H    -102.439000   40.325300  -87.664300
  H    -101.727000   39.006700  -86.978000
  C    -100.222000   40.245400  -87.839400
  H    -99.423500   39.813000  -87.262600
  H    -100.065000   41.298900  -87.972900
  C    -100.214000   39.520400  -89.275700
  H    -99.329400   39.737000  -89.866500
  H    -101.153000   39.746400  -89.854000
  H    -100.216000   38.373600  -89.222600
  H    -97.364000   37.495900  -82.597100
  H    -102.474000   43.487700  -83.962500

 Total Charge           Charge          ....    0
 Multiplicity           Mult            ....    1
 Number of Electrons    NEL             ....  134
 Basis Dimension        Dim             ....  322

ORBITAL ENERGIES
----------------

  NO   OCC          E(Eh)            E(eV)
   0   2.0000     -88.970022     -2420.9974
   1   2.0000     -88.962004     -2420.7792
   2   2.0000     -10.340149      -281.3698
   3   2.0000     -10.329594      -281.0825
   4   2.0000     -10.315468      -280.6981
   5   2.0000     -10.314738      -280.6783
   6   2.0000     -10.310083      -280.5516
   7   2.0000     -10.304077      -280.3882
   8   2.0000     -10.297071      -280.1976
   9   2.0000     -10.296118      -280.1716
  10   2.0000     -10.294887      -280.1381
  11   2.0000     -10.293804      -280.1086
  12   2.0000     -10.290496      -280.0186
  13   2.0000     -10.290457      -280.0176
  14   2.0000     -10.287978      -279.9501
  15   2.0000     -10.276505      -279.6379
  16   2.0000      -8.084554      -219.9919
  17   2.0000      -8.077625      -219.8033
  18   2.0000      -6.043011      -164.4387
  19   2.0000      -6.039030      -164.3304
  20   2.0000      -6.036087      -164.2503
  21   2.0000      -6.035453      -164.2330
  22   2.0000      -6.031951      -164.1377
  23   2.0000      -6.028459      -164.0427
  24   2.0000      -1.005031       -27.3483
  25   2.0000      -0.982237       -26.7280
  26   2.0000      -0.909353       -24.7448
  27   2.0000      -0.906871       -24.6772
  28   2.0000      -0.864168       -23.5152
  29   2.0000      -0.851180       -23.1618
  30   2.0000      -0.842076       -22.9141
  31   2.0000      -0.811629       -22.0856
  32   2.0000      -0.784151       -21.3378
  33   2.0000      -0.772433       -21.0190
  34   2.0000      -0.708113       -19.2687
  35   2.0000      -0.694676       -18.9031
  36   2.0000      -0.691132       -18.8066
  37   2.0000      -0.663536       -18.0557
  38   2.0000      -0.642533       -17.4842
  39   2.0000      -0.624110       -16.9829
  40   2.0000      -0.600557       -16.3420
  41   2.0000      -0.579220       -15.7614
  42   2.0000      -0.563739       -15.3401
  43   2.0000      -0.556376       -15.1398
  44   2.0000      -0.523390       -14.2422
  45   2.0000      -0.520604       -14.1664
  46   2.0000      -0.514344       -13.9960
  47   2.0000      -0.511140       -13.9088
  48   2.0000      -0.505141       -13.7456
  49   2.0000      -0.496940       -13.5224
  50   2.0000      -0.494234       -13.4488
  51   2.0000      -0.479806       -13.0562
  52   2.0000      -0.472256       -12.8507
  53   2.0000      -0.465159       -12.6576
  54   2.0000      -0.456855       -12.4316
  55   2.0000      -0.447249       -12.1703
  56   2.0000      -0.442313       -12.0359
  57   2.0000      -0.437881       -11.9154
  58   2.0000      -0.434582       -11.8256
  59   2.0000      -0.426405       -11.6031
  60   2.0000      -0.425451       -11.5771
  61   2.0000      -0.422720       -11.5028
  62   2.0000      -0.415209       -11.2984
  63   2.0000      -0.354713        -9.6522
  64   2.0000      -0.332502        -9.0478
  65   2.0000      -0.329706        -8.9718
  66   2.0000      -0.283013        -7.7012
  67   0.0000       0.019699         0.5360
  68   0.0000       0.080707         2.1961
  69   0.0000       0.101438         2.7603
  70   0.0000       0.117180         3.1886
  71   0.0000       0.123411         3.3582

MULLIKEN ATOMIC CHARGES
-----------------------
   0 S :    0.089235
   1 C :   -0.118282
   2 C :   -0.082637
   3 C :    0.006039
   4 C :   -0.115937
   5 H :   -0.013524
   6 C :    0.078995
   7 H :    0.006797
   8 H :    0.026836
   9 C :   -0.098245
  10 H :    0.046054
  11 H :    0.036077
  12 C :   -0.037819
  13 H :    0.028913
  14 H :    0.033137
  15 H :    0.022130
  16 S :    0.109628
  17 C :   -0.066710
  18 C :   -0.018640
  19 C :   -0.066607
  20 C :   -0.130360
  21 H :    0.015146
  22 C :    0.098858
  23 H :    0.006744
  24 H :    0.016453
  25 C :   -0.064232
  26 H :    0.049734
  27 H :    0.036678
  28 C :   -0.093809
  29 H :    0.044091
  30 H :    0.036269
  31 H :    0.032151
  32 H :    0.052198
  33 H :    0.034640
Sum of atomic charges:   -0.0000000

LOEWDIN ATOMIC CHARGES
----------------------
   0 S :    0.410821
   1 C :   -0.207657
   2 C :   -0.055474
   3 C :   -0.076001
   4 C :   -0.189162
   5 H :    0.023694
   6 C :   -0.028908
   7 H :    0.024581
   8 H :    0.031631
   9 C :   -0.036369
  10 H :    0.039661
  11 H :    0.020892
  12 C :   -0.063923
  13 H :    0.019947
  14 H :    0.026450
  15 H :    0.021068
  16 S :    0.406299
  17 C :   -0.183705
  18 C :   -0.072403
  19 C :   -0.041711
  20 C :   -0.183684
  21 H :    0.025838
  22 C :   -0.025570
  23 H :    0.024191
  24 H :    0.026849
  25 C :   -0.024696
  26 H :    0.026807
  27 H :    0.023515
  28 C :   -0.079748
  29 H :    0.024949
  30 H :    0.026455
  31 H :    0.028330
  32 H :    0.023894
  33 H :    0.013142

  Mayer bond orders larger than 0.100000
B(  0-S ,  1-C ) :   1.1476 B(  0-S ,  4-C ) :   1.1558 B(  1-C ,  2-C ) :   1.5967
B(  1-C , 32-H ) :   0.9660 B(  2-C ,  3-C ) :   1.2706 B(  2-C ,  6-C ) :   1.0122
B(  3-C ,  4-C ) :   1.5753 B(  3-C ,  5-H ) :   0.9887 B(  4-C , 20-C ) :   1.0536
B(  6-C ,  7-H ) :   0.9388 B(  6-C ,  8-H ) :   0.9464 B(  6-C ,  9-C ) :   1.0663
B(  9-C , 10-H ) :   0.9578 B(  9-C , 11-H ) :   0.9578 B(  9-C , 12-C ) :   1.0784
B( 12-C , 13-H ) :   0.9744 B( 12-C , 14-H ) :   0.9754 B( 12-C , 15-H ) :   0.9747
B( 16-S , 17-C ) :   1.1743 B( 16-S , 20-C ) :   1.1389 B( 17-C , 18-C ) :   1.5815
B( 17-C , 33-H ) :   0.9790 B( 18-C , 19-C ) :   1.2575 B( 18-C , 21-H ) :   0.9872
B( 19-C , 20-C ) :   1.5677 B( 19-C , 22-C ) :   1.0463 B( 22-C , 23-H ) :   0.9327
B( 22-C , 24-H ) :   0.9286 B( 22-C , 25-C ) :   1.0520 B( 25-C , 26-H ) :   0.9569
B( 25-C , 27-H ) :   0.9604 B( 25-C , 28-C ) :   1.0676 B( 28-C , 29-H ) :   0.9776
B( 28-C , 30-H ) :   0.9768 B( 28-C , 31-H ) :   0.9764

Dispersion correction           -0.013842721
FINAL SINGLE POINT ENERGY     -1339.867557343762

DIPOLE MOMENT
-------------
                                X             Y             Z
Electronic contribution:     -1.64731      22.80659      23.62407
Nuclear contribution   :      1.39304     -23.20645     -24.07045
                        -----------------------------------------
Total Dipole Moment    :     -0.25427      -0.39987      -0.44638
                        -----------------------------------------
Magnitude (a.u.)       :      0.65100
Magnitude (Debye)      :      1.65471

Rotational constants in cm-1:     0.018361     0.008532     0.006332
Rotational constants in MHz :   550.458518   255.770704   189.838636

                             ****ORCA TERMINATED NORMALLY****
TOTAL RUN TIME: 0 days 0 hours 0 minutes 21 seconds 321 msec
