                         Program Version 4.2.1 -  RELEASE  -
|  1> ! wB97X-D3 SP def2-SVP
|  2> %pal
|  3> nprocs 24
|  4> end
|  5>
|  6> * xyz 0 1
|  7> S 	 35.4282 	 -31.7725 	 -129.923
|  8> C 	 36.8268 	 -30.679 	 -130.139
|  9> C 	 38.0059 	 -31.3544 	 -130.582
| 10> C 	 37.741 	 -32.6308 	 -131.051
| 11> C 	 36.4272 	 -33.0286 	 -130.753
| 12> H 	 38.5018 	 -33.1532 	 -131.645
| 13> C 	 39.3633 	 -30.7182 	 -130.74
| 14> H 	 39.2983 	 -29.571 	 -130.924
| 15> H 	 39.7846 	 -31.1609 	 -131.646
| 16> C 	 40.2705 	 -30.8763 	 -129.505
| 17> H 	 40.9977 	 -30.0596 	 -129.511
| 18> H 	 39.6161 	 -30.6746 	 -128.642
| 19> C 	 40.8916 	 -32.3158 	 -129.393
| 20> H 	 40.0957 	 -33.0305 	 -129.088
| 21> H 	 41.4374 	 -32.7737 	 -130.242
| 22> H 	 41.5669 	 -32.2685 	 -128.537
| 23> S 	 34.8156 	 -33.9842 	 -132.698
| 24> C 	 34.5562 	 -35.6766 	 -132.834
| 25> C 	 35.2766 	 -36.4138 	 -131.938
| 26> C 	 35.9197 	 -35.5689 	 -130.939
| 27> C 	 35.7274 	 -34.2187 	 -131.231
| 28> H 	 35.1805 	 -37.5091 	 -132.01
| 29> C 	 36.7548 	 -36.1529 	 -129.805
| 30> H 	 36.134 	 -36.5984 	 -129.05
| 31> H 	 37.1864 	 -35.3129 	 -129.253
| 32> C 	 37.7959 	 -37.2827 	 -130.141
| 33> H 	 38.2996 	 -37.0066 	 -131.043
| 34> H 	 37.1802 	 -38.178 	 -130.359
| 35> C 	 38.841 	 -37.4771 	 -128.987
| 36> H 	 39.6351 	 -38.0788 	 -129.449
| 37> H 	 38.3981 	 -38.07 	 -128.211
| 38> H 	 39.1698 	 -36.5169 	 -128.587
| 39> H 	 36.8776 	 -29.6254 	 -129.865
| 40> H 	 33.7445 	 -36.1384 	 -133.368
| 41> *
| 42>
| 43>                          ****END OF INPUT****

CARTESIAN COORDINATES (ANGSTROEM)
---------------------------------
  S     35.428200  -31.772500  -129.923000
  C     36.826800  -30.679000  -130.139000
  C     38.005900  -31.354400  -130.582000
  C     37.741000  -32.630800  -131.051000
  C     36.427200  -33.028600  -130.753000
  H     38.501800  -33.153200  -131.645000
  C     39.363300  -30.718200  -130.740000
  H     39.298300  -29.571000  -130.924000
  H     39.784600  -31.160900  -131.646000
  C     40.270500  -30.876300  -129.505000
  H     40.997700  -30.059600  -129.511000
  H     39.616100  -30.674600  -128.642000
  C     40.891600  -32.315800  -129.393000
  H     40.095700  -33.030500  -129.088000
  H     41.437400  -32.773700  -130.242000
  H     41.566900  -32.268500  -128.537000
  S     34.815600  -33.984200  -132.698000
  C     34.556200  -35.676600  -132.834000
  C     35.276600  -36.413800  -131.938000
  C     35.919700  -35.568900  -130.939000
  C     35.727400  -34.218700  -131.231000
  H     35.180500  -37.509100  -132.010000
  C     36.754800  -36.152900  -129.805000
  H     36.134000  -36.598400  -129.050000
  H     37.186400  -35.312900  -129.253000
  C     37.795900  -37.282700  -130.141000
  H     38.299600  -37.006600  -131.043000
  H     37.180200  -38.178000  -130.359000
  C     38.841000  -37.477100  -128.987000
  H     39.635100  -38.078800  -129.449000
  H     38.398100  -38.070000  -128.211000
  H     39.169800  -36.516900  -128.587000
  H     36.877600  -29.625400  -129.865000
  H     33.744500  -36.138400  -133.368000

 Total Charge           Charge          ....    0
 Multiplicity           Mult            ....    1
 Number of Electrons    NEL             ....  134
 Basis Dimension        Dim             ....  322

ORBITAL ENERGIES
----------------

  NO   OCC          E(Eh)            E(eV)
   0   2.0000     -88.972759     -2421.0719
   1   2.0000     -88.960237     -2420.7311
   2   2.0000     -10.333089      -281.1776
   3   2.0000     -10.320470      -280.8343
   4   2.0000     -10.319640      -280.8117
   5   2.0000     -10.308345      -280.5043
   6   2.0000     -10.307310      -280.4762
   7   2.0000     -10.298765      -280.2437
   8   2.0000     -10.298122      -280.2261
   9   2.0000     -10.297386      -280.2061
  10   2.0000     -10.293181      -280.0917
  11   2.0000     -10.292890      -280.0838
  12   2.0000     -10.289703      -279.9970
  13   2.0000     -10.287142      -279.9274
  14   2.0000     -10.285259      -279.8761
  15   2.0000     -10.281969      -279.7866
  16   2.0000      -8.085585      -220.0200
  17   2.0000      -8.075969      -219.7583
  18   2.0000      -6.043971      -164.4648
  19   2.0000      -6.040530      -164.3712
  20   2.0000      -6.036422      -164.2594
  21   2.0000      -6.034377      -164.2037
  22   2.0000      -6.030414      -164.0959
  23   2.0000      -6.026686      -163.9945
  24   2.0000      -1.002050       -27.2672
  25   2.0000      -0.977496       -26.5990
  26   2.0000      -0.907225       -24.6869
  27   2.0000      -0.900712       -24.5096
  28   2.0000      -0.861491       -23.4424
  29   2.0000      -0.848965       -23.1015
  30   2.0000      -0.845375       -23.0038
  31   2.0000      -0.808286       -21.9946
  32   2.0000      -0.780871       -21.2486
  33   2.0000      -0.765717       -20.8362
  34   2.0000      -0.704101       -19.1596
  35   2.0000      -0.702459       -19.1149
  36   2.0000      -0.694561       -18.9000
  37   2.0000      -0.649988       -17.6871
  38   2.0000      -0.631939       -17.1959
  39   2.0000      -0.617995       -16.8165
  40   2.0000      -0.593033       -16.1372
  41   2.0000      -0.566747       -15.4220
  42   2.0000      -0.562900       -15.3173
  43   2.0000      -0.543038       -14.7768
  44   2.0000      -0.532340       -14.4857
  45   2.0000      -0.522396       -14.2151
  46   2.0000      -0.513363       -13.9693
  47   2.0000      -0.512629       -13.9494
  48   2.0000      -0.505604       -13.7582
  49   2.0000      -0.484705       -13.1895
  50   2.0000      -0.482883       -13.1399
  51   2.0000      -0.478501       -13.0207
  52   2.0000      -0.469345       -12.7715
  53   2.0000      -0.463420       -12.6103
  54   2.0000      -0.456098       -12.4111
  55   2.0000      -0.448274       -12.1982
  56   2.0000      -0.445492       -12.1224
  57   2.0000      -0.439300       -11.9540
  58   2.0000      -0.429359       -11.6834
  59   2.0000      -0.424267       -11.5449
  60   2.0000      -0.421486       -11.4692
  61   2.0000      -0.420208       -11.4344
  62   2.0000      -0.414434       -11.2773
  63   2.0000      -0.342568        -9.3218
  64   2.0000      -0.326234        -8.8773
  65   2.0000      -0.314525        -8.5587
  66   2.0000      -0.299854        -8.1594
  67   0.0000       0.029236         0.7955
  68   0.0000       0.060063         1.6344
  69   0.0000       0.101887         2.7725
  70   0.0000       0.116481         3.1696
  71   0.0000       0.124830         3.3968

MULLIKEN ATOMIC CHARGES
-----------------------
   0 S :    0.119370
   1 C :   -0.120236
   2 C :   -0.099630
   3 C :    0.059513
   4 C :   -0.188724
   5 H :    0.027700
   6 C :    0.008574
   7 H :    0.039277
   8 H :    0.025075
   9 C :   -0.047109
  10 H :    0.031752
  11 H :    0.031260
  12 C :   -0.081347
  13 H :    0.043909
  14 H :    0.044412
  15 H :    0.034406
  16 S :    0.118871
  17 C :   -0.087105
  18 C :   -0.061955
  19 C :   -0.005895
  20 C :   -0.166937
  21 H :    0.029745
  22 C :    0.060772
  23 H :    0.024734
  24 H :    0.015332
  25 C :   -0.104398
  26 H :    0.028984
  27 H :    0.038087
  28 C :   -0.035694
  29 H :    0.042095
  30 H :    0.031746
  31 H :    0.041074
  32 H :    0.046859
  33 H :    0.055483
Sum of atomic charges:    0.0000000

LOEWDIN ATOMIC CHARGES
----------------------
   0 S :    0.382554
   1 C :   -0.190600
   2 C :   -0.067124
   3 C :   -0.051440
   4 C :   -0.182867
   5 H :    0.040689
   6 C :   -0.039449
   7 H :    0.039621
   8 H :    0.026064
   9 C :   -0.038189
  10 H :    0.022066
  11 H :    0.029997
  12 C :   -0.076388
  13 H :    0.030925
  14 H :    0.027697
  15 H :    0.027045
  16 S :    0.420555
  17 C :   -0.194327
  18 C :   -0.078214
  19 C :   -0.046618
  20 C :   -0.218994
  21 H :    0.035374
  22 C :   -0.038771
  23 H :    0.029640
  24 H :    0.026132
  25 C :   -0.035509
  26 H :    0.016565
  27 H :    0.025803
  28 C :   -0.058376
  29 H :    0.031956
  30 H :    0.022932
  31 H :    0.027420
  32 H :    0.025069
  33 H :    0.028764

  Mayer bond orders larger than 0.100000
B(  0-S ,  1-C ) :   1.1432 B(  0-S ,  4-C ) :   1.1529 B(  1-C ,  2-C ) :   1.5889
B(  1-C ,  4-C ) :   0.1154 B(  1-C , 32-H ) :   0.9633 B(  2-C ,  3-C ) :   1.2738
B(  2-C ,  6-C ) :   1.0240 B(  3-C ,  4-C ) :   1.5540 B(  3-C ,  5-H ) :   0.9861
B(  4-C , 20-C ) :   1.0020 B(  6-C ,  7-H ) :   0.9456 B(  6-C ,  8-H ) :   0.9472
B(  6-C ,  9-C ) :   1.0568 B(  9-C , 10-H ) :   0.9613 B(  9-C , 11-H ) :   0.9533
B(  9-C , 12-C ) :   1.0664 B( 12-C , 13-H ) :   0.9730 B( 12-C , 14-H ) :   0.9788
B( 12-C , 15-H ) :   0.9747 B( 16-S , 17-C ) :   1.1592 B( 16-S , 20-C ) :   1.1461
B( 17-C , 18-C ) :   1.6394 B( 17-C , 33-H ) :   0.9611 B( 18-C , 19-C ) :   1.2136
B( 18-C , 21-H ) :   0.9860 B( 19-C , 20-C ) :   1.6082 B( 19-C , 22-C ) :   1.0521
B( 22-C , 23-H ) :   0.9319 B( 22-C , 24-H ) :   0.9347 B( 22-C , 25-C ) :   1.0467
B( 25-C , 26-H ) :   0.9681 B( 25-C , 27-H ) :   0.9522 B( 25-C , 28-C ) :   1.0756
B( 28-C , 29-H ) :   0.9763 B( 28-C , 30-H ) :   0.9772 B( 28-C , 31-H ) :   0.9776

Dispersion correction           -0.014363856
FINAL SINGLE POINT ENERGY     -1339.866096908278

DIPOLE MOMENT
-------------
                                X             Y             Z
Electronic contribution:    -26.09353       9.18254     -10.82984
Nuclear contribution   :     26.62993      -9.43851      10.96656
                        -----------------------------------------
Total Dipole Moment    :      0.53640      -0.25597       0.13672
                        -----------------------------------------
Magnitude (a.u.)       :      0.60987
Magnitude (Debye)      :      1.55017

Rotational constants in cm-1:     0.015889     0.009931     0.006932
Rotational constants in MHz :   476.338276   297.729533   207.826510

                             ****ORCA TERMINATED NORMALLY****
TOTAL RUN TIME: 0 days 0 hours 0 minutes 21 seconds 465 msec
