                         Program Version 4.2.1 -  RELEASE  -
|  1> ! wB97X-D3 SP def2-SVP
|  2> %pal
|  3> nprocs 24
|  4> end
|  5>
|  6> * xyz 0 1
|  7> S 	 -95.9208 	 8.45026 	 -3.5167
|  8> C 	 -97.218 	 7.76943 	 -4.49426
|  9> C 	 -96.7235 	 7.28134 	 -5.64912
| 10> C 	 -95.2763 	 7.43876 	 -5.77033
| 11> C 	 -94.6499 	 7.98243 	 -4.61211
| 12> H 	 -94.6139 	 7.10013 	 -6.59036
| 13> C 	 -97.5246 	 6.72963 	 -6.79651
| 14> H 	 -98.2165 	 6.03634 	 -6.36531
| 15> H 	 -96.9186 	 6.15798 	 -7.50421
| 16> C 	 -98.2375 	 7.79926 	 -7.66016
| 17> H 	 -98.9773 	 8.23247 	 -6.95891
| 18> H 	 -97.6681 	 8.63438 	 -7.94039
| 19> C 	 -98.933 	 7.28944 	 -8.9244
| 20> H 	 -98.3295 	 6.62488 	 -9.54469
| 21> H 	 -99.7943 	 6.59169 	 -8.75885
| 22> H 	 -99.1383 	 8.04511 	 -9.57654
| 23> S 	 -92.5621 	 6.9177 	 -3.02978
| 24> C 	 -90.9824 	 7.61132 	 -3.11987
| 25> C 	 -90.9305 	 8.49397 	 -4.19577
| 26> C 	 -92.2009 	 8.69961 	 -4.82435
| 27> C 	 -93.2259 	 7.96636 	 -4.27362
| 28> H 	 -90.0088 	 8.98823 	 -4.48614
| 29> C 	 -92.3612 	 9.58836 	 -5.99495
| 30> H 	 -91.5592 	 10.3807 	 -5.88542
| 31> H 	 -93.3605 	 10.0961 	 -5.96451
| 32> C 	 -92.1657 	 8.87408 	 -7.3513
| 33> H 	 -92.7195 	 7.93475 	 -7.30983
| 34> H 	 -91.1054 	 8.71037 	 -7.56865
| 35> C 	 -92.7615 	 9.65564 	 -8.5246
| 36> H 	 -92.2307 	 10.6124 	 -8.67753
| 37> H 	 -93.7919 	 9.80346 	 -8.30478
| 38> H 	 -92.6874 	 9.01087 	 -9.3273
| 39> H 	 -98.2738 	 7.82661 	 -4.27888
| 40> H 	 -90.1353 	 7.35237 	 -2.38918
| 41> *
| 42>
| 43>                          ****END OF INPUT****

CARTESIAN COORDINATES (ANGSTROEM)
---------------------------------
  S    -95.920800    8.450260   -3.516700
  C    -97.218000    7.769430   -4.494260
  C    -96.723500    7.281340   -5.649120
  C    -95.276300    7.438760   -5.770330
  C    -94.649900    7.982430   -4.612110
  H    -94.613900    7.100130   -6.590360
  C    -97.524600    6.729630   -6.796510
  H    -98.216500    6.036340   -6.365310
  H    -96.918600    6.157980   -7.504210
  C    -98.237500    7.799260   -7.660160
  H    -98.977300    8.232470   -6.958910
  H    -97.668100    8.634380   -7.940390
  C    -98.933000    7.289440   -8.924400
  H    -98.329500    6.624880   -9.544690
  H    -99.794300    6.591690   -8.758850
  H    -99.138300    8.045110   -9.576540
  S    -92.562100    6.917700   -3.029780
  C    -90.982400    7.611320   -3.119870
  C    -90.930500    8.493970   -4.195770
  C    -92.200900    8.699610   -4.824350
  C    -93.225900    7.966360   -4.273620
  H    -90.008800    8.988230   -4.486140
  C    -92.361200    9.588360   -5.994950
  H    -91.559200   10.380700   -5.885420
  H    -93.360500   10.096100   -5.964510
  C    -92.165700    8.874080   -7.351300
  H    -92.719500    7.934750   -7.309830
  H    -91.105400    8.710370   -7.568650
  C    -92.761500    9.655640   -8.524600
  H    -92.230700   10.612400   -8.677530
  H    -93.791900    9.803460   -8.304780
  H    -92.687400    9.010870   -9.327300
  H    -98.273800    7.826610   -4.278880
  H    -90.135300    7.352370   -2.389180

 Total Charge           Charge          ....    0
 Multiplicity           Mult            ....    1
 Number of Electrons    NEL             ....  134
 Basis Dimension        Dim             ....  322

ORBITAL ENERGIES
----------------

  NO   OCC          E(Eh)            E(eV)
   0   2.0000     -88.965755     -2420.8813
   1   2.0000     -88.963600     -2420.8226
   2   2.0000     -10.334634      -281.2197
   3   2.0000     -10.325374      -280.9677
   4   2.0000     -10.324421      -280.9418
   5   2.0000     -10.315253      -280.6923
   6   2.0000     -10.303546      -280.3738
   7   2.0000     -10.302562      -280.3470
   8   2.0000     -10.297962      -280.2218
   9   2.0000     -10.294707      -280.1332
  10   2.0000     -10.291815      -280.0545
  11   2.0000     -10.291683      -280.0509
  12   2.0000     -10.286721      -279.9159
  13   2.0000     -10.284861      -279.8653
  14   2.0000     -10.275614      -279.6137
  15   2.0000     -10.269024      -279.4344
  16   2.0000      -8.080332      -219.8770
  17   2.0000      -8.078651      -219.8313
  18   2.0000      -6.038998      -164.3295
  19   2.0000      -6.037187      -164.2802
  20   2.0000      -6.034648      -164.2111
  21   2.0000      -6.032989      -164.1660
  22   2.0000      -6.031118      -164.1151
  23   2.0000      -6.029466      -164.0701
  24   2.0000      -1.005818       -27.3697
  25   2.0000      -0.985881       -26.8272
  26   2.0000      -0.912755       -24.8373
  27   2.0000      -0.910839       -24.7852
  28   2.0000      -0.870944       -23.6996
  29   2.0000      -0.854403       -23.2495
  30   2.0000      -0.844676       -22.9848
  31   2.0000      -0.812329       -22.1046
  32   2.0000      -0.784447       -21.3459
  33   2.0000      -0.772527       -21.0215
  34   2.0000      -0.709625       -19.3099
  35   2.0000      -0.702662       -19.1204
  36   2.0000      -0.690201       -18.7813
  37   2.0000      -0.660834       -17.9822
  38   2.0000      -0.643230       -17.5032
  39   2.0000      -0.612558       -16.6686
  40   2.0000      -0.593731       -16.1562
  41   2.0000      -0.574336       -15.6285
  42   2.0000      -0.570430       -15.5222
  43   2.0000      -0.556924       -15.1547
  44   2.0000      -0.535277       -14.5656
  45   2.0000      -0.528178       -14.3724
  46   2.0000      -0.521556       -14.1923
  47   2.0000      -0.514082       -13.9889
  48   2.0000      -0.506684       -13.7876
  49   2.0000      -0.503039       -13.6884
  50   2.0000      -0.494406       -13.4535
  51   2.0000      -0.476766       -12.9735
  52   2.0000      -0.473815       -12.8932
  53   2.0000      -0.464552       -12.6411
  54   2.0000      -0.456907       -12.4331
  55   2.0000      -0.450441       -12.2571
  56   2.0000      -0.445207       -12.1147
  57   2.0000      -0.442377       -12.0377
  58   2.0000      -0.432677       -11.7737
  59   2.0000      -0.424453       -11.5500
  60   2.0000      -0.419575       -11.4172
  61   2.0000      -0.415080       -11.2949
  62   2.0000      -0.407309       -11.0834
  63   2.0000      -0.336578        -9.1588
  64   2.0000      -0.331125        -9.0104
  65   2.0000      -0.324148        -8.8205
  66   2.0000      -0.304853        -8.2955
  67   0.0000       0.031243         0.8502
  68   0.0000       0.063914         1.7392
  69   0.0000       0.120390         3.2760
  70   0.0000       0.124103         3.3770
  71   0.0000       0.129438         3.5222

MULLIKEN ATOMIC CHARGES
-----------------------
   0 S :    0.114929
   1 C :   -0.118676
   2 C :   -0.079669
   3 C :    0.029432
   4 C :   -0.186212
   5 H :    0.023275
   6 C :    0.077493
   7 H :    0.025990
   8 H :    0.014073
   9 C :   -0.056404
  10 H :    0.020261
  11 H :    0.019355
  12 C :   -0.019626
  13 H :    0.010840
  14 H :    0.032347
  15 H :    0.017280
  16 S :    0.116785
  17 C :   -0.130494
  18 C :   -0.025027
  19 C :   -0.030873
  20 C :   -0.160861
  21 H :    0.017660
  22 C :    0.038070
  23 H :    0.026580
  24 H :    0.040036
  25 C :   -0.086129
  26 H :    0.019433
  27 H :    0.030330
  28 C :    0.002572
  29 H :    0.037133
  30 H :    0.020035
  31 H :    0.017272
  32 H :    0.048435
  33 H :    0.094356
Sum of atomic charges:   -0.0000000

LOEWDIN ATOMIC CHARGES
----------------------
   0 S :    0.410140
   1 C :   -0.188889
   2 C :   -0.066842
   3 C :   -0.060814
   4 C :   -0.201938
   5 H :    0.031559
   6 C :   -0.028464
   7 H :    0.029638
   8 H :    0.026943
   9 C :   -0.035366
  10 H :    0.025487
  11 H :    0.019747
  12 C :   -0.065727
  13 H :    0.024297
  14 H :    0.031497
  15 H :    0.015408
  16 S :    0.415723
  17 C :   -0.201478
  18 C :   -0.077729
  19 C :   -0.057371
  20 C :   -0.211221
  21 H :    0.030658
  22 C :   -0.040086
  23 H :    0.033931
  24 H :    0.036378
  25 C :   -0.033939
  26 H :    0.018958
  27 H :    0.023958
  28 C :   -0.052386
  29 H :    0.028488
  30 H :    0.019940
  31 H :    0.016494
  32 H :    0.031854
  33 H :    0.051153

  Mayer bond orders larger than 0.100000
B(  0-S ,  1-C ) :   1.1317 B(  0-S ,  4-C ) :   1.1582 B(  1-C ,  2-C ) :   1.6182
B(  1-C , 32-H ) :   0.9712 B(  2-C ,  3-C ) :   1.2411 B(  2-C ,  6-C ) :   1.0301
B(  3-C ,  4-C ) :   1.5626 B(  3-C ,  5-H ) :   0.9810 B(  4-C , 20-C ) :   1.0411
B(  6-C ,  7-H ) :   0.9380 B(  6-C ,  8-H ) :   0.9433 B(  6-C ,  9-C ) :   1.0560
B(  9-C , 10-H ) :   0.9527 B(  9-C , 11-H ) :   0.9596 B(  9-C , 12-C ) :   1.0861
B( 12-C , 13-H ) :   0.9693 B( 12-C , 14-H ) :   0.9733 B( 12-C , 15-H ) :   0.9742
B( 16-S , 17-C ) :   1.1797 B( 16-S , 20-C ) :   1.1334 B( 17-C , 18-C ) :   1.5692
B( 17-C , 33-H ) :   0.9576 B( 18-C , 19-C ) :   1.2647 B( 18-C , 21-H ) :   0.9914
B( 19-C , 20-C ) :   1.5807 B( 19-C , 22-C ) :   1.0696 B( 22-C , 23-H ) :   0.9278
B( 22-C , 24-H ) :   0.9275 B( 22-C , 25-C ) :   1.0628 B( 25-C , 26-H ) :   0.9566
B( 25-C , 27-H ) :   0.9505 B( 25-C , 28-C ) :   1.0913 B( 28-C , 29-H ) :   0.9736
B( 28-C , 30-H ) :   0.9739 B( 28-C , 31-H ) :   0.9729

Dispersion correction           -0.014405322
FINAL SINGLE POINT ENERGY     -1339.877596019950

DIPOLE MOMENT
-------------
                                X             Y             Z
Electronic contribution:      8.41123      -3.99098      29.62708
Nuclear contribution   :     -8.39894       4.03047     -30.28170
                        -----------------------------------------
Total Dipole Moment    :      0.01228       0.03949      -0.65462
                        -----------------------------------------
Magnitude (a.u.)       :      0.65593
Magnitude (Debye)      :      1.66724

Rotational constants in cm-1:     0.019593     0.008456     0.006490
Rotational constants in MHz :   587.388727   253.499830   194.555589

                             ****ORCA TERMINATED NORMALLY****
TOTAL RUN TIME: 0 days 0 hours 0 minutes 21 seconds 685 msec
