                         Program Version 4.2.1 -  RELEASE  -
|  1> ! wB97X-D3 SP def2-SVP
|  2> %pal
|  3> nprocs 24
|  4> end
|  5>
|  6> * xyz 0 1
|  7> S 	 -44.0573 	 -52.3982 	 -68.7317
|  8> C 	 -42.999 	 -52.9744 	 -67.3975
|  9> C 	 -41.6648 	 -53.0711 	 -67.7909
| 10> C 	 -41.5102 	 -52.7854 	 -69.18
| 11> C 	 -42.7206 	 -52.7013 	 -69.8712
| 12> H 	 -40.5659 	 -52.7736 	 -69.7442
| 13> C 	 -40.5763 	 -53.4009 	 -66.7864
| 14> H 	 -40.7137 	 -54.3341 	 -66.295
| 15> H 	 -40.6229 	 -52.684 	 -65.9247
| 16> C 	 -39.199 	 -53.3554 	 -67.4137
| 17> H 	 -39.1106 	 -54.1392 	 -68.1286
| 18> H 	 -38.9642 	 -52.3915 	 -67.8323
| 19> C 	 -38.0072 	 -53.4661 	 -66.4139
| 20> H 	 -37.0134 	 -53.452 	 -66.8566
| 21> H 	 -38.0318 	 -52.7103 	 -65.5308
| 22> H 	 -38.0345 	 -54.3897 	 -65.8534
| 23> S 	 -41.7114 	 -53.5755 	 -72.1661
| 24> C 	 -42.3693 	 -52.9816 	 -73.661
| 25> C 	 -43.2041 	 -51.8892 	 -73.4288
| 26> C 	 -43.492 	 -51.6804 	 -72.0877
| 27> C 	 -42.7849 	 -52.5596 	 -71.2936
| 28> H 	 -43.6129 	 -51.2823 	 -74.2609
| 29> C 	 -44.3469 	 -50.5547 	 -71.6555
| 30> H 	 -43.758 	 -49.6397 	 -71.7065
| 31> H 	 -44.3633 	 -50.6419 	 -70.5537
| 32> C 	 -45.8423 	 -50.3187 	 -72.171
| 33> H 	 -46.3655 	 -51.1351 	 -71.6327
| 34> H 	 -45.8621 	 -50.4768 	 -73.1873
| 35> C 	 -46.3092 	 -48.9248 	 -71.9348
| 36> H 	 -47.3253 	 -48.8338 	 -72.2796
| 37> H 	 -45.6839 	 -48.2364 	 -72.362
| 38> H 	 -46.1996 	 -48.5939 	 -70.8731
| 39> H 	 -43.3283 	 -53.133 	 -66.3869
| 40> H 	 -42.1683 	 -53.2985 	 -74.6246
| 41> *
| 42>
| 43>                          ****END OF INPUT****

CARTESIAN COORDINATES (ANGSTROEM)
---------------------------------
  S    -44.057300  -52.398200  -68.731700
  C    -42.999000  -52.974400  -67.397500
  C    -41.664800  -53.071100  -67.790900
  C    -41.510200  -52.785400  -69.180000
  C    -42.720600  -52.701300  -69.871200
  H    -40.565900  -52.773600  -69.744200
  C    -40.576300  -53.400900  -66.786400
  H    -40.713700  -54.334100  -66.295000
  H    -40.622900  -52.684000  -65.924700
  C    -39.199000  -53.355400  -67.413700
  H    -39.110600  -54.139200  -68.128600
  H    -38.964200  -52.391500  -67.832300
  C    -38.007200  -53.466100  -66.413900
  H    -37.013400  -53.452000  -66.856600
  H    -38.031800  -52.710300  -65.530800
  H    -38.034500  -54.389700  -65.853400
  S    -41.711400  -53.575500  -72.166100
  C    -42.369300  -52.981600  -73.661000
  C    -43.204100  -51.889200  -73.428800
  C    -43.492000  -51.680400  -72.087700
  C    -42.784900  -52.559600  -71.293600
  H    -43.612900  -51.282300  -74.260900
  C    -44.346900  -50.554700  -71.655500
  H    -43.758000  -49.639700  -71.706500
  H    -44.363300  -50.641900  -70.553700
  C    -45.842300  -50.318700  -72.171000
  H    -46.365500  -51.135100  -71.632700
  H    -45.862100  -50.476800  -73.187300
  C    -46.309200  -48.924800  -71.934800
  H    -47.325300  -48.833800  -72.279600
  H    -45.683900  -48.236400  -72.362000
  H    -46.199600  -48.593900  -70.873100
  H    -43.328300  -53.133000  -66.386900
  H    -42.168300  -53.298500  -74.624600

 Total Charge           Charge          ....    0
 Multiplicity           Mult            ....    1
 Number of Electrons    NEL             ....  134
 Basis Dimension        Dim             ....  322

ORBITAL ENERGIES
----------------

  NO   OCC          E(Eh)            E(eV)
   0   2.0000     -88.969343     -2420.9789
   1   2.0000     -88.968851     -2420.9655
   2   2.0000     -10.330076      -281.0957
   3   2.0000     -10.319812      -280.8163
   4   2.0000     -10.312716      -280.6233
   5   2.0000     -10.309831      -280.5448
   6   2.0000     -10.303393      -280.3696
   7   2.0000     -10.295236      -280.1476
   8   2.0000     -10.294035      -280.1149
   9   2.0000     -10.293719      -280.1063
  10   2.0000     -10.290089      -280.0076
  11   2.0000     -10.287305      -279.9318
  12   2.0000     -10.284879      -279.8658
  13   2.0000     -10.284489      -279.8552
  14   2.0000     -10.283798      -279.8364
  15   2.0000     -10.271030      -279.4889
  16   2.0000      -8.084532      -219.9913
  17   2.0000      -8.081647      -219.9128
  18   2.0000      -6.042909      -164.4359
  19   2.0000      -6.040332      -164.3658
  20   2.0000      -6.039056      -164.3311
  21   2.0000      -6.036672      -164.2662
  22   2.0000      -6.035323      -164.2295
  23   2.0000      -6.032106      -164.1419
  24   2.0000      -1.012967       -27.5642
  25   2.0000      -0.980302       -26.6754
  26   2.0000      -0.912727       -24.8366
  27   2.0000      -0.910695       -24.7813
  28   2.0000      -0.871413       -23.7123
  29   2.0000      -0.864256       -23.5176
  30   2.0000      -0.841949       -22.9106
  31   2.0000      -0.810702       -22.0603
  32   2.0000      -0.783335       -21.3156
  33   2.0000      -0.770909       -20.9775
  34   2.0000      -0.715579       -19.4719
  35   2.0000      -0.708167       -19.2702
  36   2.0000      -0.689038       -18.7497
  37   2.0000      -0.670972       -18.2581
  38   2.0000      -0.629037       -17.1170
  39   2.0000      -0.617329       -16.7984
  40   2.0000      -0.600858       -16.3502
  41   2.0000      -0.574061       -15.6210
  42   2.0000      -0.564145       -15.3512
  43   2.0000      -0.561318       -15.2742
  44   2.0000      -0.538100       -14.6425
  45   2.0000      -0.525380       -14.2963
  46   2.0000      -0.518314       -14.1040
  47   2.0000      -0.514076       -13.9887
  48   2.0000      -0.501107       -13.6358
  49   2.0000      -0.498709       -13.5706
  50   2.0000      -0.487827       -13.2744
  51   2.0000      -0.484160       -13.1747
  52   2.0000      -0.471342       -12.8259
  53   2.0000      -0.460974       -12.5438
  54   2.0000      -0.457937       -12.4611
  55   2.0000      -0.451168       -12.2769
  56   2.0000      -0.446784       -12.1576
  57   2.0000      -0.436024       -11.8648
  58   2.0000      -0.431638       -11.7455
  59   2.0000      -0.429368       -11.6837
  60   2.0000      -0.423770       -11.5314
  61   2.0000      -0.419832       -11.4242
  62   2.0000      -0.409238       -11.1359
  63   2.0000      -0.350197        -9.5294
  64   2.0000      -0.333054        -9.0629
  65   2.0000      -0.329332        -8.9616
  66   2.0000      -0.277375        -7.5478
  67   0.0000       0.020499         0.5578
  68   0.0000       0.070572         1.9204
  69   0.0000       0.094849         2.5810
  70   0.0000       0.120016         3.2658
  71   0.0000       0.140613         3.8263

MULLIKEN ATOMIC CHARGES
-----------------------
   0 S :    0.099143
   1 C :   -0.117887
   2 C :   -0.054737
   3 C :   -0.044599
   4 C :   -0.113252
   5 H :    0.034460
   6 C :    0.073998
   7 H :    0.027919
   8 H :    0.033424
   9 C :   -0.082738
  10 H :    0.036292
  11 H :    0.038794
  12 C :   -0.071095
  13 H :    0.039052
  14 H :    0.034821
  15 H :    0.014510
  16 S :    0.121909
  17 C :   -0.059254
  18 C :   -0.055894
  19 C :   -0.015141
  20 C :   -0.158295
  21 H :    0.026382
  22 C :    0.008567
  23 H :    0.027214
  24 H :    0.000516
  25 C :   -0.018810
  26 H :    0.043810
  27 H :    0.010661
  28 C :   -0.011513
  29 H :    0.040799
  30 H :    0.005396
  31 H :    0.025204
  32 H :    0.037974
  33 H :    0.022370
Sum of atomic charges:    0.0000000

LOEWDIN ATOMIC CHARGES
----------------------
   0 S :    0.380649
   1 C :   -0.183385
   2 C :   -0.056817
   3 C :   -0.076949
   4 C :   -0.174135
   5 H :    0.029890
   6 C :   -0.030520
   7 H :    0.029707
   8 H :    0.037545
   9 C :   -0.039677
  10 H :    0.023197
  11 H :    0.026661
  12 C :   -0.074304
  13 H :    0.026289
  14 H :    0.032048
  15 H :    0.016477
  16 S :    0.441759
  17 C :   -0.183838
  18 C :   -0.064044
  19 C :   -0.068661
  20 C :   -0.202363
  21 H :    0.035461
  22 C :   -0.046127
  23 H :    0.033481
  24 H :    0.015996
  25 C :   -0.025468
  26 H :    0.032995
  27 H :    0.010347
  28 C :   -0.058639
  29 H :    0.029829
  30 H :    0.014498
  31 H :    0.031790
  32 H :    0.022948
  33 H :    0.013358

  Mayer bond orders larger than 0.100000
B(  0-S ,  1-C ) :   1.1162 B(  0-S ,  4-C ) :   1.1312 B(  1-C ,  2-C ) :   1.6202
B(  1-C ,  4-C ) :   0.1022 B(  1-C , 32-H ) :   0.9739 B(  2-C ,  3-C ) :   1.2479
B(  2-C ,  6-C ) :   1.0083 B(  3-C ,  4-C ) :   1.5340 B(  3-C ,  5-H ) :   0.9801
B(  4-C , 20-C ) :   1.0811 B(  6-C ,  7-H ) :   0.9351 B(  6-C ,  8-H ) :   0.9373
B(  6-C ,  9-C ) :   1.0923 B(  9-C , 10-H ) :   0.9499 B(  9-C , 11-H ) :   0.9522
B(  9-C , 12-C ) :   1.0780 B( 12-C , 13-H ) :   0.9757 B( 12-C , 14-H ) :   0.9748
B( 12-C , 15-H ) :   0.9729 B( 16-S , 17-C ) :   1.1562 B( 16-S , 20-C ) :   1.1578
B( 17-C , 18-C ) :   1.5786 B( 17-C , 20-C ) :   0.1005 B( 17-C , 33-H ) :   0.9787
B( 18-C , 19-C ) :   1.2734 B( 18-C , 21-H ) :   0.9840 B( 19-C , 20-C ) :   1.5335
B( 19-C , 22-C ) :   1.0509 B( 22-C , 23-H ) :   0.9250 B( 22-C , 24-H ) :   0.9166
B( 22-C , 25-C ) :   1.0360 B( 25-C , 26-H ) :   0.9552 B( 25-C , 27-H ) :   0.9596
B( 25-C , 28-C ) :   1.0884 B( 28-C , 29-H ) :   0.9704 B( 28-C , 30-H ) :   0.9689
B( 28-C , 31-H ) :   0.9720

Dispersion correction           -0.013508304
FINAL SINGLE POINT ENERGY     -1339.854165453066

DIPOLE MOMENT
-------------
                                X             Y             Z
Electronic contribution:     -4.33017      -9.54888      -8.00941
Nuclear contribution   :      4.55068       9.81451       8.03096
                        -----------------------------------------
Total Dipole Moment    :      0.22051       0.26564       0.02155
                        -----------------------------------------
Magnitude (a.u.)       :      0.34591
Magnitude (Debye)      :      0.87922

Rotational constants in cm-1:     0.021724     0.007549     0.006071
Rotational constants in MHz :   651.281702   226.314364   182.018123

                             ****ORCA TERMINATED NORMALLY****
TOTAL RUN TIME: 0 days 0 hours 0 minutes 20 seconds 68 msec
