                         Program Version 4.2.1 -  RELEASE  -
|  1> ! wB97X-D3 SP def2-SVP
|  2> %pal
|  3> nprocs 24
|  4> end
|  5>
|  6> * xyz 0 1
|  7> S 	 -19.8046 	 -32.8041 	 -92.0477
|  8> C 	 -18.3885 	 -32.938 	 -93.1109
|  9> C 	 -18.5842 	 -32.4007 	 -94.329
| 10> C 	 -19.8405 	 -31.7929 	 -94.4394
| 11> C 	 -20.6207 	 -31.7987 	 -93.281
| 12> H 	 -20.1568 	 -31.1737 	 -95.2574
| 13> C 	 -17.601 	 -32.3754 	 -95.4832
| 14> H 	 -16.503 	 -32.4384 	 -95.2862
| 15> H 	 -17.6464 	 -31.36 	 -95.8462
| 16> C 	 -17.9904 	 -33.3649 	 -96.5883
| 17> H 	 -18.0182 	 -34.4015 	 -96.1892
| 18> H 	 -18.9643 	 -33.1649 	 -97.0391
| 19> C 	 -16.8533 	 -33.3161 	 -97.6786
| 20> H 	 -16.0215 	 -33.9 	 -97.3994
| 21> H 	 -17.2804 	 -33.7094 	 -98.5128
| 22> H 	 -16.453 	 -32.292 	 -97.9105
| 23> S 	 -23.2259 	 -31.5544 	 -94.2881
| 24> C 	 -24.1973 	 -30.1823 	 -93.7779
| 25> C 	 -23.6133 	 -29.6113 	 -92.6566
| 26> C 	 -22.251 	 -29.972 	 -92.4725
| 27> C 	 -21.9479 	 -31.1432 	 -93.1317
| 28> H 	 -24.001 	 -28.7217 	 -92.2093
| 29> C 	 -21.3664 	 -29.1662 	 -91.4487
| 30> H 	 -20.7822 	 -29.9041 	 -90.902
| 31> H 	 -22.0593 	 -28.6882 	 -90.7791
| 32> C 	 -20.4049 	 -28.0778 	 -91.9578
| 33> H 	 -20.1277 	 -27.6896 	 -90.9988
| 34> H 	 -21.0114 	 -27.2923 	 -92.4782
| 35> C 	 -19.2107 	 -28.6092 	 -92.6766
| 36> H 	 -19.4525 	 -28.9661 	 -93.6591
| 37> H 	 -18.6748 	 -29.441 	 -92.1663
| 38> H 	 -18.4246 	 -27.8134 	 -92.8298
| 39> H 	 -17.5974 	 -33.5766 	 -92.909
| 40> H 	 -25.1901 	 -30.0113 	 -94.1454
| 41> *
| 42>
| 43>                          ****END OF INPUT****

CARTESIAN COORDINATES (ANGSTROEM)
---------------------------------
  S    -19.804600  -32.804100  -92.047700
  C    -18.388500  -32.938000  -93.110900
  C    -18.584200  -32.400700  -94.329000
  C    -19.840500  -31.792900  -94.439400
  C    -20.620700  -31.798700  -93.281000
  H    -20.156800  -31.173700  -95.257400
  C    -17.601000  -32.375400  -95.483200
  H    -16.503000  -32.438400  -95.286200
  H    -17.646400  -31.360000  -95.846200
  C    -17.990400  -33.364900  -96.588300
  H    -18.018200  -34.401500  -96.189200
  H    -18.964300  -33.164900  -97.039100
  C    -16.853300  -33.316100  -97.678600
  H    -16.021500  -33.900000  -97.399400
  H    -17.280400  -33.709400  -98.512800
  H    -16.453000  -32.292000  -97.910500
  S    -23.225900  -31.554400  -94.288100
  C    -24.197300  -30.182300  -93.777900
  C    -23.613300  -29.611300  -92.656600
  C    -22.251000  -29.972000  -92.472500
  C    -21.947900  -31.143200  -93.131700
  H    -24.001000  -28.721700  -92.209300
  C    -21.366400  -29.166200  -91.448700
  H    -20.782200  -29.904100  -90.902000
  H    -22.059300  -28.688200  -90.779100
  C    -20.404900  -28.077800  -91.957800
  H    -20.127700  -27.689600  -90.998800
  H    -21.011400  -27.292300  -92.478200
  C    -19.210700  -28.609200  -92.676600
  H    -19.452500  -28.966100  -93.659100
  H    -18.674800  -29.441000  -92.166300
  H    -18.424600  -27.813400  -92.829800
  H    -17.597400  -33.576600  -92.909000
  H    -25.190100  -30.011300  -94.145400

 Total Charge           Charge          ....    0
 Multiplicity           Mult            ....    1
 Number of Electrons    NEL             ....  134
 Basis Dimension        Dim             ....  322

ORBITAL ENERGIES
----------------

  NO   OCC          E(Eh)            E(eV)
   0   2.0000     -88.966523     -2420.9022
   1   2.0000     -88.965456     -2420.8731
   2   2.0000     -10.333684      -281.1938
   3   2.0000     -10.326976      -281.0113
   4   2.0000     -10.320201      -280.8269
   5   2.0000     -10.306247      -280.4472
   6   2.0000     -10.302219      -280.3376
   7   2.0000     -10.294544      -280.1288
   8   2.0000     -10.293791      -280.1083
   9   2.0000     -10.291568      -280.0478
  10   2.0000     -10.291308      -280.0407
  11   2.0000     -10.291170      -280.0370
  12   2.0000     -10.290072      -280.0071
  13   2.0000     -10.284786      -279.8633
  14   2.0000     -10.273791      -279.5641
  15   2.0000     -10.271642      -279.5056
  16   2.0000      -8.079980      -219.8674
  17   2.0000      -8.079731      -219.8607
  18   2.0000      -6.038497      -164.3159
  19   2.0000      -6.038275      -164.3098
  20   2.0000      -6.034719      -164.2131
  21   2.0000      -6.034255      -164.2004
  22   2.0000      -6.030768      -164.1055
  23   2.0000      -6.030514      -164.0986
  24   2.0000      -1.001821       -27.2609
  25   2.0000      -0.983705       -26.7680
  26   2.0000      -0.909392       -24.7458
  27   2.0000      -0.906772       -24.6745
  28   2.0000      -0.866012       -23.5654
  29   2.0000      -0.849158       -23.1068
  30   2.0000      -0.845016       -22.9941
  31   2.0000      -0.810222       -22.0473
  32   2.0000      -0.783159       -21.3108
  33   2.0000      -0.775758       -21.1094
  34   2.0000      -0.704980       -19.1835
  35   2.0000      -0.701842       -19.0981
  36   2.0000      -0.689460       -18.7612
  37   2.0000      -0.665285       -18.1033
  38   2.0000      -0.641062       -17.4442
  39   2.0000      -0.617702       -16.8085
  40   2.0000      -0.594276       -16.1711
  41   2.0000      -0.567584       -15.4447
  42   2.0000      -0.559900       -15.2357
  43   2.0000      -0.547004       -14.8847
  44   2.0000      -0.546621       -14.8743
  45   2.0000      -0.526803       -14.3350
  46   2.0000      -0.511431       -13.9167
  47   2.0000      -0.508001       -13.8234
  48   2.0000      -0.504074       -13.7166
  49   2.0000      -0.495239       -13.4761
  50   2.0000      -0.492017       -13.3885
  51   2.0000      -0.477574       -12.9955
  52   2.0000      -0.469461       -12.7747
  53   2.0000      -0.463080       -12.6010
  54   2.0000      -0.459382       -12.5004
  55   2.0000      -0.449921       -12.2430
  56   2.0000      -0.443651       -12.0723
  57   2.0000      -0.440051       -11.9744
  58   2.0000      -0.431953       -11.7540
  59   2.0000      -0.425719       -11.5844
  60   2.0000      -0.421290       -11.4639
  61   2.0000      -0.410569       -11.1721
  62   2.0000      -0.406626       -11.0649
  63   2.0000      -0.336657        -9.1609
  64   2.0000      -0.333239        -9.0679
  65   2.0000      -0.329948        -8.9783
  66   2.0000      -0.300090        -8.1659
  67   0.0000       0.032547         0.8857
  68   0.0000       0.061882         1.6839
  69   0.0000       0.111132         3.0241
  70   0.0000       0.117305         3.1920
  71   0.0000       0.122799         3.3415

MULLIKEN ATOMIC CHARGES
-----------------------
   0 S :    0.096492
   1 C :   -0.107028
   2 C :   -0.042977
   3 C :    0.029889
   4 C :   -0.166147
   5 H :    0.012475
   6 C :    0.048303
   7 H :    0.029519
   8 H :    0.020088
   9 C :   -0.097259
  10 H :    0.038527
  11 H :    0.037434
  12 C :   -0.010006
  13 H :    0.025987
  14 H :    0.012120
  15 H :    0.030476
  16 S :    0.101266
  17 C :   -0.099960
  18 C :    0.008605
  19 C :   -0.073036
  20 C :   -0.152542
  21 H :    0.012763
  22 C :    0.055375
  23 H :    0.021250
  24 H :    0.014200
  25 C :   -0.031492
  26 H :    0.021626
  27 H :    0.032976
  28 C :   -0.048573
  29 H :    0.028373
  30 H :    0.037723
  31 H :    0.033536
  32 H :    0.018859
  33 H :    0.061158
Sum of atomic charges:   -0.0000000

LOEWDIN ATOMIC CHARGES
----------------------
   0 S :    0.377463
   1 C :   -0.176063
   2 C :   -0.066698
   3 C :   -0.058377
   4 C :   -0.179235
   5 H :    0.027172
   6 C :   -0.034948
   7 H :    0.034561
   8 H :    0.029605
   9 C :   -0.032080
  10 H :    0.029477
  11 H :    0.023443
  12 C :   -0.056080
  13 H :    0.019751
  14 H :    0.012076
  15 H :    0.029351
  16 S :    0.398051
  17 C :   -0.174563
  18 C :   -0.071892
  19 C :   -0.052549
  20 C :   -0.201636
  21 H :    0.024874
  22 C :   -0.022166
  23 H :    0.026161
  24 H :    0.026339
  25 C :   -0.039651
  26 H :    0.024470
  27 H :    0.029135
  28 C :   -0.070771
  29 H :    0.020979
  30 H :    0.032517
  31 H :    0.030491
  32 H :    0.014025
  33 H :    0.026769

  Mayer bond orders larger than 0.100000
B(  0-S ,  1-C ) :   1.1265 B(  0-S ,  4-C ) :   1.1379 B(  1-C ,  2-C ) :   1.6361
B(  1-C , 32-H ) :   0.9729 B(  2-C ,  3-C ) :   1.2411 B(  2-C ,  6-C ) :   1.0049
B(  3-C ,  4-C ) :   1.5905 B(  3-C ,  5-H ) :   0.9883 B(  4-C , 20-C ) :   1.0154
B(  6-C ,  7-H ) :   0.9545 B(  6-C ,  8-H ) :   0.9346 B(  6-C ,  9-C ) :   1.0576
B(  9-C , 10-H ) :   0.9575 B(  9-C , 11-H ) :   0.9617 B(  9-C , 12-C ) :   1.0717
B( 12-C , 13-H ) :   0.9767 B( 12-C , 14-H ) :   0.9741 B( 12-C , 15-H ) :   0.9756
B( 16-S , 17-C ) :   1.1637 B( 16-S , 20-C ) :   1.1337 B( 17-C , 18-C ) :   1.5992
B( 17-C , 33-H ) :   0.9679 B( 18-C , 19-C ) :   1.2653 B( 18-C , 21-H ) :   0.9766
B( 19-C , 20-C ) :   1.6052 B( 19-C , 22-C ) :   1.0153 B( 22-C , 23-H ) :   0.9382
B( 22-C , 24-H ) :   0.9387 B( 22-C , 25-C ) :   1.0784 B( 25-C , 26-H ) :   0.9489
B( 25-C , 27-H ) :   0.9509 B( 25-C , 28-C ) :   1.0857 B( 28-C , 29-H ) :   0.9713
B( 28-C , 30-H ) :   0.9690 B( 28-C , 31-H ) :   0.9698

Dispersion correction           -0.015599311
FINAL SINGLE POINT ENERGY     -1339.870264155809

DIPOLE MOMENT
-------------
                                X             Y             Z
Electronic contribution:    -18.76239      -8.38035       9.67366
Nuclear contribution   :     19.06178       8.76226      -9.96188
                        -----------------------------------------
Total Dipole Moment    :      0.29939       0.38191      -0.28822
                        -----------------------------------------
Magnitude (a.u.)       :      0.56441
Magnitude (Debye)      :      1.43461

Rotational constants in cm-1:     0.019883     0.008297     0.007379
Rotational constants in MHz :   596.068466   248.728299   221.229275

                             ****ORCA TERMINATED NORMALLY****
TOTAL RUN TIME: 0 days 0 hours 0 minutes 22 seconds 244 msec
