                         Program Version 4.2.1 -  RELEASE  -
|  1> ! wB97X-D3 SP def2-SVP
|  2> %pal
|  3> nprocs 24
|  4> end
|  5>
|  6> * xyz 0 1
|  7> S 	 -89.625 	 -48.808 	 -73.0491
|  8> C 	 -88.3272 	 -49.8025 	 -72.4479
|  9> C 	 -87.6838 	 -50.4902 	 -73.4804
| 10> C 	 -88.2154 	 -50.1529 	 -74.7868
| 11> C 	 -89.3023 	 -49.2726 	 -74.6793
| 12> H 	 -88.1116 	 -50.6146 	 -75.8017
| 13> C 	 -86.4714 	 -51.4077 	 -73.3209
| 14> H 	 -86.5633 	 -51.9589 	 -74.2133
| 15> H 	 -86.7761 	 -52.0488 	 -72.533
| 16> C 	 -85.0429 	 -50.7891 	 -73.0876
| 17> H 	 -84.4992 	 -51.6856 	 -73.0981
| 18> H 	 -84.8238 	 -50.1827 	 -73.9437
| 19> C 	 -84.9378 	 -50.0174 	 -71.7204
| 20> H 	 -84.9241 	 -50.7179 	 -70.8661
| 21> H 	 -84.0143 	 -49.3915 	 -71.7508
| 22> H 	 -85.7163 	 -49.3557 	 -71.4958
| 23> S 	 -91.8135 	 -48.4478 	 -75.4706
| 24> C 	 -92.1986 	 -48.3343 	 -77.1968
| 25> C 	 -91.0528 	 -48.3304 	 -77.9279
| 26> C 	 -89.8446 	 -48.614 	 -77.1665
| 27> C 	 -90.1246 	 -48.824 	 -75.7982
| 28> H 	 -91.0417 	 -48.2285 	 -79.0672
| 29> C 	 -88.5238 	 -48.6082 	 -77.9535
| 30> H 	 -88.7445 	 -48.1964 	 -78.9161
| 31> H 	 -88.118 	 -49.6905 	 -78.0527
| 32> C 	 -87.4406 	 -47.7285 	 -77.3593
| 33> H 	 -87.115 	 -48.1606 	 -76.3631
| 34> H 	 -87.9504 	 -46.7874 	 -77.1482
| 35> C 	 -86.2586 	 -47.5764 	 -78.2379
| 36> H 	 -86.4555 	 -47.0707 	 -79.1691
| 37> H 	 -85.9154 	 -48.5431 	 -78.5201
| 38> H 	 -85.3908 	 -47.0698 	 -77.8184
| 39> H 	 -87.9748 	 -49.8839 	 -71.4308
| 40> H 	 -93.1279 	 -48.0563 	 -77.6614
| 41> *
| 42>
| 43>                          ****END OF INPUT****

CARTESIAN COORDINATES (ANGSTROEM)
---------------------------------
  S    -89.625000  -48.808000  -73.049100
  C    -88.327200  -49.802500  -72.447900
  C    -87.683800  -50.490200  -73.480400
  C    -88.215400  -50.152900  -74.786800
  C    -89.302300  -49.272600  -74.679300
  H    -88.111600  -50.614600  -75.801700
  C    -86.471400  -51.407700  -73.320900
  H    -86.563300  -51.958900  -74.213300
  H    -86.776100  -52.048800  -72.533000
  C    -85.042900  -50.789100  -73.087600
  H    -84.499200  -51.685600  -73.098100
  H    -84.823800  -50.182700  -73.943700
  C    -84.937800  -50.017400  -71.720400
  H    -84.924100  -50.717900  -70.866100
  H    -84.014300  -49.391500  -71.750800
  H    -85.716300  -49.355700  -71.495800
  S    -91.813500  -48.447800  -75.470600
  C    -92.198600  -48.334300  -77.196800
  C    -91.052800  -48.330400  -77.927900
  C    -89.844600  -48.614000  -77.166500
  C    -90.124600  -48.824000  -75.798200
  H    -91.041700  -48.228500  -79.067200
  C    -88.523800  -48.608200  -77.953500
  H    -88.744500  -48.196400  -78.916100
  H    -88.118000  -49.690500  -78.052700
  C    -87.440600  -47.728500  -77.359300
  H    -87.115000  -48.160600  -76.363100
  H    -87.950400  -46.787400  -77.148200
  C    -86.258600  -47.576400  -78.237900
  H    -86.455500  -47.070700  -79.169100
  H    -85.915400  -48.543100  -78.520100
  H    -85.390800  -47.069800  -77.818400
  H    -87.974800  -49.883900  -71.430800
  H    -93.127900  -48.056300  -77.661400

 Total Charge           Charge          ....    0
 Multiplicity           Mult            ....    1
 Number of Electrons    NEL             ....  134
 Basis Dimension        Dim             ....  322

ORBITAL ENERGIES
----------------

  NO   OCC          E(Eh)            E(eV)
   0   2.0000     -88.970683     -2421.0154
   1   2.0000     -88.965824     -2420.8832
   2   2.0000     -10.334322      -281.2112
   3   2.0000     -10.331330      -281.1298
   4   2.0000     -10.316914      -280.7375
   5   2.0000     -10.313500      -280.6446
   6   2.0000     -10.309056      -280.5237
   7   2.0000     -10.304566      -280.4015
   8   2.0000     -10.299818      -280.2723
   9   2.0000     -10.299602      -280.2664
  10   2.0000     -10.298114      -280.2259
  11   2.0000     -10.291042      -280.0335
  12   2.0000     -10.285656      -279.8869
  13   2.0000     -10.283333      -279.8237
  14   2.0000     -10.280455      -279.7454
  15   2.0000     -10.269181      -279.4386
  16   2.0000      -8.085593      -220.0202
  17   2.0000      -8.080143      -219.8719
  18   2.0000      -6.044118      -164.4688
  19   2.0000      -6.040023      -164.3574
  20   2.0000      -6.038901      -164.3269
  21   2.0000      -6.036402      -164.2589
  22   2.0000      -6.034791      -164.2150
  23   2.0000      -6.030577      -164.1003
  24   2.0000      -1.005643       -27.3649
  25   2.0000      -0.981067       -26.6962
  26   2.0000      -0.913609       -24.8606
  27   2.0000      -0.908551       -24.7229
  28   2.0000      -0.867970       -23.6187
  29   2.0000      -0.852382       -23.1945
  30   2.0000      -0.844866       -22.9900
  31   2.0000      -0.813108       -22.1258
  32   2.0000      -0.785124       -21.3643
  33   2.0000      -0.773938       -21.0599
  34   2.0000      -0.714539       -19.4436
  35   2.0000      -0.706773       -19.2323
  36   2.0000      -0.686056       -18.6685
  37   2.0000      -0.659227       -17.9385
  38   2.0000      -0.636350       -17.3160
  39   2.0000      -0.611046       -16.6274
  40   2.0000      -0.591354       -16.0916
  41   2.0000      -0.570680       -15.5290
  42   2.0000      -0.567177       -15.4337
  43   2.0000      -0.545645       -14.8477
  44   2.0000      -0.534345       -14.5403
  45   2.0000      -0.524798       -14.2805
  46   2.0000      -0.520432       -14.1617
  47   2.0000      -0.514757       -14.0072
  48   2.0000      -0.504767       -13.7354
  49   2.0000      -0.496980       -13.5235
  50   2.0000      -0.492450       -13.4002
  51   2.0000      -0.485278       -13.2051
  52   2.0000      -0.469396       -12.7729
  53   2.0000      -0.466339       -12.6897
  54   2.0000      -0.461915       -12.5693
  55   2.0000      -0.453427       -12.3384
  56   2.0000      -0.445704       -12.1282
  57   2.0000      -0.439576       -11.9615
  58   2.0000      -0.428910       -11.6712
  59   2.0000      -0.423352       -11.5200
  60   2.0000      -0.419371       -11.4117
  61   2.0000      -0.416105       -11.3228
  62   2.0000      -0.413526       -11.2526
  63   2.0000      -0.358439        -9.7536
  64   2.0000      -0.333611        -9.0780
  65   2.0000      -0.326439        -8.8829
  66   2.0000      -0.283789        -7.7223
  67   0.0000       0.018760         0.5105
  68   0.0000       0.077874         2.1191
  69   0.0000       0.100862         2.7446
  70   0.0000       0.118986         3.2378
  71   0.0000       0.130915         3.5624

MULLIKEN ATOMIC CHARGES
-----------------------
   0 S :    0.120348
   1 C :   -0.114197
   2 C :   -0.134005
   3 C :   -0.011603
   4 C :   -0.139456
   5 H :    0.037439
   6 C :    0.074910
   7 H :    0.007423
   8 H :    0.017317
   9 C :   -0.000388
  10 H :    0.031309
  11 H :    0.032055
  12 C :   -0.065506
  13 H :    0.032804
  14 H :    0.044085
  15 H :    0.023987
  16 S :    0.088875
  17 C :   -0.071279
  18 C :   -0.062247
  19 C :   -0.064338
  20 C :   -0.131248
  21 H :    0.047738
  22 C :    0.044237
  23 H :    0.005947
  24 H :    0.046376
  25 C :   -0.089246
  26 H :    0.043852
  27 H :    0.029989
  28 C :    0.002848
  29 H :    0.017085
  30 H :    0.003750
  31 H :    0.032310
  32 H :    0.045585
  33 H :    0.053242
Sum of atomic charges:   -0.0000000

LOEWDIN ATOMIC CHARGES
----------------------
   0 S :    0.421570
   1 C :   -0.210459
   2 C :   -0.057588
   3 C :   -0.079225
   4 C :   -0.197434
   5 H :    0.042558
   6 C :   -0.029908
   7 H :    0.024346
   8 H :    0.026072
   9 C :   -0.019262
  10 H :    0.023039
  11 H :    0.023990
  12 C :   -0.065228
  13 H :    0.028571
  14 H :    0.034608
  15 H :    0.014749
  16 S :    0.386158
  17 C :   -0.181400
  18 C :   -0.078130
  19 C :   -0.060219
  20 C :   -0.189530
  21 H :    0.043503
  22 C :   -0.031920
  23 H :    0.023907
  24 H :    0.035585
  25 C :   -0.049423
  26 H :    0.030997
  27 H :    0.024888
  28 C :   -0.063787
  29 H :    0.021634
  30 H :    0.019442
  31 H :    0.029139
  32 H :    0.026991
  33 H :    0.031766

  Mayer bond orders larger than 0.100000
B(  0-S ,  1-C ) :   1.1292 B(  0-S ,  4-C ) :   1.1637 B(  1-C ,  2-C ) :   1.6108
B(  1-C , 32-H ) :   0.9668 B(  2-C ,  3-C ) :   1.2441 B(  2-C ,  6-C ) :   1.0072
B(  3-C ,  4-C ) :   1.5625 B(  3-C ,  5-H ) :   0.9751 B(  4-C , 20-C ) :   1.0765
B(  6-C ,  7-H ) :   0.9378 B(  6-C ,  8-H ) :   0.9359 B(  6-C ,  9-C ) :   1.0548
B(  9-C , 10-H ) :   0.9568 B(  9-C , 11-H ) :   0.9600 B(  9-C , 12-C ) :   1.0676
B( 12-C , 13-H ) :   0.9768 B( 12-C , 14-H ) :   0.9752 B( 12-C , 15-H ) :   0.9767
B( 16-S , 17-C ) :   1.1313 B( 16-S , 20-C ) :   1.1251 B( 17-C , 18-C ) :   1.6400
B( 17-C , 33-H ) :   0.9651 B( 18-C , 19-C ) :   1.2488 B( 18-C , 21-H ) :   0.9690
B( 19-C , 20-C ) :   1.5742 B( 19-C , 22-C ) :   1.0400 B( 22-C , 23-H ) :   0.9349
B( 22-C , 24-H ) :   0.9247 B( 22-C , 25-C ) :   1.0681 B( 25-C , 26-H ) :   0.9438
B( 25-C , 27-H ) :   0.9542 B( 25-C , 28-C ) :   1.0965 B( 28-C , 29-H ) :   0.9700
B( 28-C , 30-H ) :   0.9649 B( 28-C , 31-H ) :   0.9710

Dispersion correction           -0.014440121
FINAL SINGLE POINT ENERGY     -1339.870278069941

DIPOLE MOMENT
-------------
                                X             Y             Z
Electronic contribution:    -28.64170       3.18370       5.55830
Nuclear contribution   :     29.20802      -3.34979      -5.89697
                        -----------------------------------------
Total Dipole Moment    :      0.56633      -0.16609      -0.33867
                        -----------------------------------------
Magnitude (a.u.)       :      0.68045
Magnitude (Debye)      :      1.72956

Rotational constants in cm-1:     0.019301     0.008967     0.006658
Rotational constants in MHz :   578.616976   268.809568   199.611462

                             ****ORCA TERMINATED NORMALLY****
TOTAL RUN TIME: 0 days 0 hours 0 minutes 21 seconds 976 msec
