                         Program Version 4.2.1 -  RELEASE  -
|  1> ! wB97X-D3 SP def2-SVP
|  2> %pal
|  3> nprocs 24
|  4> end
|  5>
|  6> * xyz 0 1
|  7> S 	 -80.8132 	 -43.0282 	 -83.3103
|  8> C 	 -80.901 	 -43.0599 	 -81.5857
|  9> C 	 -81.0132 	 -44.3185 	 -81.0453
| 10> C 	 -81.0161 	 -45.2987 	 -82.0748
| 11> C 	 -80.7822 	 -44.8072 	 -83.355
| 12> H 	 -81.1996 	 -46.3507 	 -81.9454
| 13> C 	 -81.2274 	 -44.7281 	 -79.577
| 14> H 	 -80.3005 	 -44.5678 	 -79.0901
| 15> H 	 -81.3801 	 -45.8129 	 -79.5091
| 16> C 	 -82.3509 	 -44.0237 	 -78.8375
| 17> H 	 -82.0223 	 -42.9774 	 -78.7066
| 18> H 	 -83.2829 	 -44.0933 	 -79.4824
| 19> C 	 -82.7591 	 -44.5855 	 -77.4521
| 20> H 	 -82.922 	 -45.6571 	 -77.5006
| 21> H 	 -81.9494 	 -44.3804 	 -76.7893
| 22> H 	 -83.6576 	 -44.2122 	 -76.9105
| 23> S 	 -81.8346 	 -46.8702 	 -84.7368
| 24> C 	 -81.2742 	 -47.0792 	 -86.4093
| 25> C 	 -80.0948 	 -46.4248 	 -86.6284
| 26> C 	 -79.6666 	 -45.5671 	 -85.5033
| 27> C 	 -80.6927 	 -45.5677 	 -84.5629
| 28> H 	 -79.5087 	 -46.6277 	 -87.4242
| 29> C 	 -78.366 	 -44.7907 	 -85.4917
| 30> H 	 -78.3416 	 -44.0291 	 -84.7729
| 31> H 	 -78.45 	 -44.1037 	 -86.415
| 32> C 	 -77.0466 	 -45.5115 	 -85.4461
| 33> H 	 -76.1835 	 -44.8738 	 -85.7455
| 34> H 	 -76.9051 	 -46.2528 	 -86.2551
| 35> C 	 -76.689 	 -46.3258 	 -84.2171
| 36> H 	 -75.6567 	 -46.6948 	 -84.3921
| 37> H 	 -77.3606 	 -47.1312 	 -84.0186
| 38> H 	 -76.6331 	 -45.8073 	 -83.2587
| 39> H 	 -80.9696 	 -42.1208 	 -81.0197
| 40> H 	 -81.7139 	 -47.8432 	 -87.0547
| 41> *
| 42>
| 43>                          ****END OF INPUT****

CARTESIAN COORDINATES (ANGSTROEM)
---------------------------------
  S    -80.813200  -43.028200  -83.310300
  C    -80.901000  -43.059900  -81.585700
  C    -81.013200  -44.318500  -81.045300
  C    -81.016100  -45.298700  -82.074800
  C    -80.782200  -44.807200  -83.355000
  H    -81.199600  -46.350700  -81.945400
  C    -81.227400  -44.728100  -79.577000
  H    -80.300500  -44.567800  -79.090100
  H    -81.380100  -45.812900  -79.509100
  C    -82.350900  -44.023700  -78.837500
  H    -82.022300  -42.977400  -78.706600
  H    -83.282900  -44.093300  -79.482400
  C    -82.759100  -44.585500  -77.452100
  H    -82.922000  -45.657100  -77.500600
  H    -81.949400  -44.380400  -76.789300
  H    -83.657600  -44.212200  -76.910500
  S    -81.834600  -46.870200  -84.736800
  C    -81.274200  -47.079200  -86.409300
  C    -80.094800  -46.424800  -86.628400
  C    -79.666600  -45.567100  -85.503300
  C    -80.692700  -45.567700  -84.562900
  H    -79.508700  -46.627700  -87.424200
  C    -78.366000  -44.790700  -85.491700
  H    -78.341600  -44.029100  -84.772900
  H    -78.450000  -44.103700  -86.415000
  C    -77.046600  -45.511500  -85.446100
  H    -76.183500  -44.873800  -85.745500
  H    -76.905100  -46.252800  -86.255100
  C    -76.689000  -46.325800  -84.217100
  H    -75.656700  -46.694800  -84.392100
  H    -77.360600  -47.131200  -84.018600
  H    -76.633100  -45.807300  -83.258700
  H    -80.969600  -42.120800  -81.019700
  H    -81.713900  -47.843200  -87.054700

 Total Charge           Charge          ....    0
 Multiplicity           Mult            ....    1
 Number of Electrons    NEL             ....  134
 Basis Dimension        Dim             ....  322

ORBITAL ENERGIES
----------------

  NO   OCC          E(Eh)            E(eV)
   0   2.0000     -88.967469     -2420.9279
   1   2.0000     -88.963720     -2420.8259
   2   2.0000     -10.325274      -280.9650
   3   2.0000     -10.323328      -280.9120
   4   2.0000     -10.318603      -280.7835
   5   2.0000     -10.312125      -280.6072
   6   2.0000     -10.308861      -280.5184
   7   2.0000     -10.301190      -280.3096
   8   2.0000     -10.293834      -280.1095
   9   2.0000     -10.293018      -280.0873
  10   2.0000     -10.291895      -280.0567
  11   2.0000     -10.290340      -280.0144
  12   2.0000     -10.290292      -280.0131
  13   2.0000     -10.289159      -279.9822
  14   2.0000     -10.279150      -279.7099
  15   2.0000     -10.272174      -279.5201
  16   2.0000      -8.081785      -219.9165
  17   2.0000      -8.078566      -219.8290
  18   2.0000      -6.040266      -164.3640
  19   2.0000      -6.037133      -164.2787
  20   2.0000      -6.036416      -164.2592
  21   2.0000      -6.033478      -164.1793
  22   2.0000      -6.032560      -164.1543
  23   2.0000      -6.028859      -164.0536
  24   2.0000      -1.005715       -27.3669
  25   2.0000      -0.981569       -26.7099
  26   2.0000      -0.909355       -24.7448
  27   2.0000      -0.908933       -24.7333
  28   2.0000      -0.871431       -23.7128
  29   2.0000      -0.852605       -23.2006
  30   2.0000      -0.845592       -23.0097
  31   2.0000      -0.811679       -22.0869
  32   2.0000      -0.788533       -21.4571
  33   2.0000      -0.773511       -21.0483
  34   2.0000      -0.706822       -19.2336
  35   2.0000      -0.698730       -19.0134
  36   2.0000      -0.692082       -18.8325
  37   2.0000      -0.665681       -18.1141
  38   2.0000      -0.640050       -17.4166
  39   2.0000      -0.613206       -16.6862
  40   2.0000      -0.601364       -16.3639
  41   2.0000      -0.571615       -15.5544
  42   2.0000      -0.561918       -15.2906
  43   2.0000      -0.554598       -15.0914
  44   2.0000      -0.536991       -14.6123
  45   2.0000      -0.517952       -14.0942
  46   2.0000      -0.516614       -14.0578
  47   2.0000      -0.512282       -13.9399
  48   2.0000      -0.501553       -13.6480
  49   2.0000      -0.497627       -13.5411
  50   2.0000      -0.490716       -13.3531
  51   2.0000      -0.478273       -13.0145
  52   2.0000      -0.474261       -12.9053
  53   2.0000      -0.468559       -12.7501
  54   2.0000      -0.458474       -12.4757
  55   2.0000      -0.449671       -12.2362
  56   2.0000      -0.446709       -12.1556
  57   2.0000      -0.438288       -11.9264
  58   2.0000      -0.431804       -11.7500
  59   2.0000      -0.423512       -11.5243
  60   2.0000      -0.420129       -11.4323
  61   2.0000      -0.412738       -11.2312
  62   2.0000      -0.404803       -11.0152
  63   2.0000      -0.348614        -9.4863
  64   2.0000      -0.332202        -9.0397
  65   2.0000      -0.325101        -8.8465
  66   2.0000      -0.287116        -7.8128
  67   0.0000       0.027821         0.7571
  68   0.0000       0.069278         1.8851
  69   0.0000       0.095741         2.6052
  70   0.0000       0.112754         3.0682
  71   0.0000       0.130559         3.5527

MULLIKEN ATOMIC CHARGES
-----------------------
   0 S :    0.118948
   1 C :   -0.151822
   2 C :   -0.059807
   3 C :   -0.003315
   4 C :   -0.151033
   5 H :    0.008707
   6 C :    0.105359
   7 H :    0.025989
   8 H :    0.013685
   9 C :   -0.114615
  10 H :    0.036031
  11 H :    0.047575
  12 C :   -0.049440
  13 H :    0.026719
  14 H :    0.021535
  15 H :    0.043732
  16 S :    0.093997
  17 C :   -0.083209
  18 C :    0.027198
  19 C :   -0.046315
  20 C :   -0.158603
  21 H :   -0.023200
  22 C :    0.099785
  23 H :    0.000983
  24 H :    0.038556
  25 C :   -0.078300
  26 H :    0.028873
  27 H :    0.016010
  28 C :   -0.044804
  29 H :    0.031206
  30 H :    0.035707
  31 H :    0.026614
  32 H :    0.054965
  33 H :    0.062289
Sum of atomic charges:   -0.0000000

LOEWDIN ATOMIC CHARGES
----------------------
   0 S :    0.410091
   1 C :   -0.205975
   2 C :   -0.061605
   3 C :   -0.065731
   4 C :   -0.185948
   5 H :    0.024143
   6 C :   -0.028031
   7 H :    0.028258
   8 H :    0.029300
   9 C :   -0.045884
  10 H :    0.024324
  11 H :    0.032192
  12 C :   -0.071861
  13 H :    0.022906
  14 H :    0.019664
  15 H :    0.034175
  16 S :    0.390577
  17 C :   -0.171568
  18 C :   -0.048844
  19 C :   -0.046779
  20 C :   -0.198707
  21 H :    0.011343
  22 C :   -0.040298
  23 H :    0.018670
  24 H :    0.047728
  25 C :   -0.051553
  26 H :    0.032880
  27 H :    0.024977
  28 C :   -0.065524
  29 H :    0.032159
  30 H :    0.022694
  31 H :    0.022549
  32 H :    0.029253
  33 H :    0.030423

  Mayer bond orders larger than 0.100000
B(  0-S ,  1-C ) :   1.1502 B(  0-S ,  4-C ) :   1.1422 B(  1-C ,  2-C ) :   1.6020
B(  1-C , 32-H ) :   0.9646 B(  2-C ,  3-C ) :   1.2661 B(  2-C ,  6-C ) :   1.0113
B(  3-C ,  4-C ) :   1.5650 B(  3-C ,  5-H ) :   0.9899 B(  4-C , 20-C ) :   1.0730
B(  6-C ,  7-H ) :   0.9278 B(  6-C ,  8-H ) :   0.9436 B(  6-C ,  9-C ) :   1.0597
B(  9-C , 10-H ) :   0.9543 B(  9-C , 11-H ) :   0.9629 B(  9-C , 12-C ) :   1.0776
B( 12-C , 13-H ) :   0.9750 B( 12-C , 14-H ) :   0.9753 B( 12-C , 15-H ) :   0.9767
B( 16-S , 17-C ) :   1.1189 B( 16-S , 20-C ) :   1.1342 B( 17-C , 18-C ) :   1.6449
B( 17-C , 33-H ) :   0.9685 B( 18-C , 19-C ) :   1.1914 B( 18-C , 21-H ) :   1.0026
B( 19-C , 20-C ) :   1.5869 B( 19-C , 22-C ) :   1.0458 B( 22-C , 23-H ) :   0.9256
B( 22-C , 24-H ) :   0.9287 B( 22-C , 25-C ) :   1.0721 B( 25-C , 26-H ) :   0.9499
B( 25-C , 27-H ) :   0.9533 B( 25-C , 28-C ) :   1.0765 B( 28-C , 29-H ) :   0.9710
B( 28-C , 30-H ) :   0.9761 B( 28-C , 31-H ) :   0.9749

Dispersion correction           -0.014030248
FINAL SINGLE POINT ENERGY     -1339.867909610142

DIPOLE MOMENT
-------------
                                X             Y             Z
Electronic contribution:     -9.94668       1.44972     -16.34052
Nuclear contribution   :     10.27363      -1.61413      16.55343
                        -----------------------------------------
Total Dipole Moment    :      0.32695      -0.16441       0.21291
                        -----------------------------------------
Magnitude (a.u.)       :      0.42339
Magnitude (Debye)      :      1.07617

Rotational constants in cm-1:     0.021964     0.007233     0.006540
Rotational constants in MHz :   658.456345   216.853672   196.074425

                             ****ORCA TERMINATED NORMALLY****
TOTAL RUN TIME: 0 days 0 hours 0 minutes 20 seconds 47 msec
