                         Program Version 4.2.1 -  RELEASE  -
|  1> ! wB97X-D3 SP def2-SVP
|  2> %pal
|  3> nprocs 24
|  4> end
|  5>
|  6> * xyz 0 1
|  7> S 	 -135.221 	 11.3004 	 -3.75606
|  8> C 	 -134.585 	 9.93427 	 -2.95183
|  9> C 	 -133.912 	 10.1848 	 -1.76467
| 10> C 	 -133.938 	 11.6424 	 -1.51801
| 11> C 	 -134.612 	 12.3366 	 -2.50364
| 12> H 	 -133.528 	 12.0761 	 -0.620696
| 13> C 	 -133.215 	 9.20669 	 -0.831415
| 14> H 	 -132.163 	 9.45118 	 -0.646535
| 15> H 	 -133.119 	 8.29129 	 -1.31514
| 16> C 	 -133.785 	 8.8373 	 0.615175
| 17> H 	 -133.781 	 9.71035 	 1.28925
| 18> H 	 -134.855 	 8.62172 	 0.506503
| 19> C 	 -133.091 	 7.60531 	 1.19608
| 20> H 	 -133.547 	 6.81797 	 0.618093
| 21> H 	 -132.033 	 7.49326 	 1.0785
| 22> H 	 -133.367 	 7.52747 	 2.22555
| 23> S 	 -136.359 	 14.513 	 -2.91255
| 24> C 	 -135.656 	 16.0342 	 -3.09782
| 25> C 	 -134.356 	 16.0421 	 -2.63752
| 26> C 	 -133.808 	 14.751 	 -2.44078
| 27> C 	 -134.761 	 13.7923 	 -2.70742
| 28> H 	 -133.802 	 16.9986 	 -2.53332
| 29> C 	 -132.322 	 14.5491 	 -2.08891
| 30> H 	 -131.678 	 14.2616 	 -2.96218
| 31> H 	 -132.177 	 13.8092 	 -1.37176
| 32> C 	 -131.638 	 15.7369 	 -1.46455
| 33> H 	 -132.017 	 15.9655 	 -0.467595
| 34> H 	 -131.931 	 16.6009 	 -2.04253
| 35> C 	 -130.12 	 15.6181 	 -1.56687
| 36> H 	 -129.74 	 14.8475 	 -0.862349
| 37> H 	 -129.592 	 16.4892 	 -1.26246
| 38> H 	 -129.763 	 15.3654 	 -2.5298
| 39> H 	 -134.731 	 8.96412 	 -3.26474
| 40> H 	 -136.159 	 17.0025 	 -3.33322
| 41> *
| 42>
| 43>                          ****END OF INPUT****

CARTESIAN COORDINATES (ANGSTROEM)
---------------------------------
  S    -135.221000   11.300400   -3.756060
  C    -134.585000    9.934270   -2.951830
  C    -133.912000   10.184800   -1.764670
  C    -133.938000   11.642400   -1.518010
  C    -134.612000   12.336600   -2.503640
  H    -133.528000   12.076100   -0.620696
  C    -133.215000    9.206690   -0.831415
  H    -132.163000    9.451180   -0.646535
  H    -133.119000    8.291290   -1.315140
  C    -133.785000    8.837300    0.615175
  H    -133.781000    9.710350    1.289250
  H    -134.855000    8.621720    0.506503
  C    -133.091000    7.605310    1.196080
  H    -133.547000    6.817970    0.618093
  H    -132.033000    7.493260    1.078500
  H    -133.367000    7.527470    2.225550
  S    -136.359000   14.513000   -2.912550
  C    -135.656000   16.034200   -3.097820
  C    -134.356000   16.042100   -2.637520
  C    -133.808000   14.751000   -2.440780
  C    -134.761000   13.792300   -2.707420
  H    -133.802000   16.998600   -2.533320
  C    -132.322000   14.549100   -2.088910
  H    -131.678000   14.261600   -2.962180
  H    -132.177000   13.809200   -1.371760
  C    -131.638000   15.736900   -1.464550
  H    -132.017000   15.965500   -0.467595
  H    -131.931000   16.600900   -2.042530
  C    -130.120000   15.618100   -1.566870
  H    -129.740000   14.847500   -0.862349
  H    -129.592000   16.489200   -1.262460
  H    -129.763000   15.365400   -2.529800
  H    -134.731000    8.964120   -3.264740
  H    -136.159000   17.002500   -3.333220

 Total Charge           Charge          ....    0
 Multiplicity           Mult            ....    1
 Number of Electrons    NEL             ....  134
 Basis Dimension        Dim             ....  322

ORBITAL ENERGIES
----------------

  NO   OCC          E(Eh)            E(eV)
   0   2.0000     -88.966889     -2420.9121
   1   2.0000     -88.964802     -2420.8553
   2   2.0000     -10.325704      -280.9767
   3   2.0000     -10.322847      -280.8990
   4   2.0000     -10.313024      -280.6317
   5   2.0000     -10.305706      -280.4325
   6   2.0000     -10.305038      -280.4144
   7   2.0000     -10.301144      -280.3084
   8   2.0000     -10.295369      -280.1512
   9   2.0000     -10.292391      -280.0702
  10   2.0000     -10.292241      -280.0661
  11   2.0000     -10.289988      -280.0048
  12   2.0000     -10.287517      -279.9376
  13   2.0000     -10.281546      -279.7751
  14   2.0000     -10.276211      -279.6299
  15   2.0000     -10.274673      -279.5881
  16   2.0000      -8.082444      -219.9345
  17   2.0000      -8.080677      -219.8864
  18   2.0000      -6.040824      -164.3792
  19   2.0000      -6.039064      -164.3313
  20   2.0000      -6.037030      -164.2759
  21   2.0000      -6.035091      -164.2232
  22   2.0000      -6.033098      -164.1689
  23   2.0000      -6.031439      -164.1238
  24   2.0000      -1.009700       -27.4753
  25   2.0000      -0.987681       -26.8762
  26   2.0000      -0.916633       -24.9429
  27   2.0000      -0.906118       -24.6567
  28   2.0000      -0.868247       -23.6262
  29   2.0000      -0.854862       -23.2620
  30   2.0000      -0.846004       -23.0209
  31   2.0000      -0.810868       -22.0649
  32   2.0000      -0.787056       -21.4169
  33   2.0000      -0.775024       -21.0895
  34   2.0000      -0.707598       -19.2547
  35   2.0000      -0.702425       -19.1139
  36   2.0000      -0.692672       -18.8486
  37   2.0000      -0.652077       -17.7439
  38   2.0000      -0.640316       -17.4239
  39   2.0000      -0.623328       -16.9616
  40   2.0000      -0.605328       -16.4718
  41   2.0000      -0.572422       -15.5764
  42   2.0000      -0.567382       -15.4393
  43   2.0000      -0.559359       -15.2209
  44   2.0000      -0.527813       -14.3625
  45   2.0000      -0.518516       -14.1095
  46   2.0000      -0.513263       -13.9666
  47   2.0000      -0.508053       -13.8248
  48   2.0000      -0.503357       -13.6970
  49   2.0000      -0.502105       -13.6630
  50   2.0000      -0.487120       -13.2552
  51   2.0000      -0.481754       -13.1092
  52   2.0000      -0.468972       -12.7614
  53   2.0000      -0.468185       -12.7400
  54   2.0000      -0.457252       -12.4425
  55   2.0000      -0.454123       -12.3573
  56   2.0000      -0.453357       -12.3365
  57   2.0000      -0.440954       -11.9990
  58   2.0000      -0.435120       -11.8402
  59   2.0000      -0.432306       -11.7636
  60   2.0000      -0.424516       -11.5517
  61   2.0000      -0.416458       -11.3324
  62   2.0000      -0.408795       -11.1239
  63   2.0000      -0.343844        -9.3565
  64   2.0000      -0.332920        -9.0592
  65   2.0000      -0.326465        -8.8836
  66   2.0000      -0.292442        -7.9578
  67   0.0000       0.032370         0.8808
  68   0.0000       0.076059         2.0697
  69   0.0000       0.111687         3.0392
  70   0.0000       0.117228         3.1899
  71   0.0000       0.132467         3.6046

MULLIKEN ATOMIC CHARGES
-----------------------
   0 S :    0.122449
   1 C :   -0.071580
   2 C :   -0.091772
   3 C :    0.022094
   4 C :   -0.164476
   5 H :    0.015866
   6 C :    0.068613
   7 H :    0.030074
   8 H :   -0.011520
   9 C :   -0.094763
  10 H :    0.029232
  11 H :    0.031952
  12 C :   -0.029836
  13 H :    0.027675
  14 H :    0.032266
  15 H :    0.036138
  16 S :    0.126911
  17 C :   -0.087635
  18 C :   -0.086026
  19 C :   -0.008143
  20 C :   -0.148257
  21 H :    0.029678
  22 C :    0.107276
  23 H :    0.044746
  24 H :   -0.003036
  25 C :   -0.103690
  26 H :    0.029710
  27 H :    0.021898
  28 C :   -0.018548
  29 H :    0.024057
  30 H :    0.021952
  31 H :    0.022195
  32 H :    0.007783
  33 H :    0.066718
Sum of atomic charges:   -0.0000000

LOEWDIN ATOMIC CHARGES
----------------------
   0 S :    0.429954
   1 C :   -0.194941
   2 C :   -0.057995
   3 C :   -0.054887
   4 C :   -0.198134
   5 H :    0.027996
   6 C :   -0.035539
   7 H :    0.034191
   8 H :    0.018602
   9 C :   -0.037003
  10 H :    0.017730
  11 H :    0.025204
  12 C :   -0.060380
  13 H :    0.028268
  14 H :    0.022032
  15 H :    0.027982
  16 S :    0.427511
  17 C :   -0.213486
  18 C :   -0.081606
  19 C :   -0.053133
  20 C :   -0.203154
  21 H :    0.034067
  22 C :   -0.025657
  23 H :    0.042780
  24 H :    0.017935
  25 C :   -0.041183
  26 H :    0.024477
  27 H :    0.016581
  28 C :   -0.058095
  29 H :    0.027753
  30 H :    0.022693
  31 H :    0.019928
  32 H :    0.008930
  33 H :    0.040579

  Mayer bond orders larger than 0.100000
B(  0-S ,  1-C ) :   1.1478 B(  0-S ,  4-C ) :   1.1562 B(  1-C ,  2-C ) :   1.6293
B(  1-C , 32-H ) :   0.9695 B(  2-C ,  3-C ) :   1.2187 B(  2-C ,  6-C ) :   1.0336
B(  3-C ,  4-C ) :   1.5998 B(  3-C ,  5-H ) :   0.9941 B(  4-C , 20-C ) :   1.0121
B(  6-C ,  7-H ) :   0.9386 B(  6-C ,  8-H ) :   0.9376 B(  6-C ,  9-C ) :   1.0463
B(  9-C , 10-H ) :   0.9612 B(  9-C , 11-H ) :   0.9594 B(  9-C , 12-C ) :   1.0677
B( 12-C , 13-H ) :   0.9766 B( 12-C , 14-H ) :   0.9794 B( 12-C , 15-H ) :   0.9726
B( 16-S , 17-C ) :   1.1661 B( 16-S , 20-C ) :   1.1560 B( 17-C , 18-C ) :   1.5957
B( 17-C , 33-H ) :   0.9582 B( 18-C , 19-C ) :   1.2655 B( 18-C , 21-H ) :   0.9800
B( 19-C , 20-C ) :   1.5942 B( 19-C , 22-C ) :   1.0205 B( 22-C , 23-H ) :   0.9351
B( 22-C , 24-H ) :   0.9287 B( 22-C , 25-C ) :   1.0717 B( 25-C , 26-H ) :   0.9553
B( 25-C , 27-H ) :   0.9460 B( 25-C , 28-C ) :   1.0899 B( 28-C , 29-H ) :   0.9729
B( 28-C , 30-H ) :   0.9714 B( 28-C , 31-H ) :   0.9730

Dispersion correction           -0.013133101
FINAL SINGLE POINT ENERGY     -1339.869887665695

DIPOLE MOMENT
-------------
                                X             Y             Z
Electronic contribution:    -23.19064       6.85866     -18.05748
Nuclear contribution   :     23.71684      -6.89847      18.51413
                        -----------------------------------------
Total Dipole Moment    :      0.52620      -0.03982       0.45665
                        -----------------------------------------
Magnitude (a.u.)       :      0.69785
Magnitude (Debye)      :      1.77379

Rotational constants in cm-1:     0.017098     0.007924     0.006037
Rotational constants in MHz :   512.576229   237.549246   180.976511

                             ****ORCA TERMINATED NORMALLY****
TOTAL RUN TIME: 0 days 0 hours 0 minutes 20 seconds 922 msec
