                         Program Version 4.2.1 -  RELEASE  -
|  1> ! wB97X-D3 SP def2-SVP
|  2> %pal
|  3> nprocs 24
|  4> end
|  5>
|  6> * xyz 0 1
|  7> S 	 45.8274 	 -21.4404 	 -113.774
|  8> C 	 47.0826 	 -22.6879 	 -113.465
|  9> C 	 46.6135 	 -23.5245 	 -112.519
| 10> C 	 45.2307 	 -23.3186 	 -112.224
| 11> C 	 44.6527 	 -22.2207 	 -112.752
| 12> H 	 44.6596 	 -23.9147 	 -111.478
| 13> C 	 47.4481 	 -24.6954 	 -112.035
| 14> H 	 46.901 	 -25.1036 	 -111.15
| 15> H 	 48.48 	 -24.3094 	 -111.712
| 16> C 	 47.7982 	 -25.8442 	 -113.001
| 17> H 	 48.498 	 -25.4251 	 -113.829
| 18> H 	 48.4261 	 -26.6721 	 -112.561
| 19> C 	 46.5815 	 -26.5316 	 -113.69
| 20> H 	 45.8623 	 -26.905 	 -112.961
| 21> H 	 46.0246 	 -25.7041 	 -114.121
| 22> H 	 46.7837 	 -27.3466 	 -114.447
| 23> S 	 43.1976 	 -20.6956 	 -111.067
| 24> C 	 41.5509 	 -20.2675 	 -111.594
| 25> C 	 41.093 	 -21.0681 	 -112.653
| 26> C 	 42.1541 	 -21.9226 	 -113.14
| 27> C 	 43.3223 	 -21.7463 	 -112.446
| 28> H 	 40.0624 	 -20.9719 	 -112.943
| 29> C 	 42.0323 	 -23.0434 	 -114.174
| 30> H 	 42.9163 	 -23.627 	 -114.055
| 31> H 	 42.0244 	 -22.4717 	 -115.106
| 32> C 	 40.814 	 -24.0161 	 -114.006
| 33> H 	 39.8725 	 -23.5387 	 -114.196
| 34> H 	 40.6336 	 -24.176 	 -112.942
| 35> C 	 40.7885 	 -25.3687 	 -114.7
| 36> H 	 40.2057 	 -26.1344 	 -114.205
| 37> H 	 41.7459 	 -25.8744 	 -114.549
| 38> H 	 40.4873 	 -25.3729 	 -115.705
| 39> H 	 48.039 	 -22.7004 	 -113.999
| 40> H 	 40.8856 	 -19.5221 	 -111.118
| 41> *
| 42>
| 43>                          ****END OF INPUT****

CARTESIAN COORDINATES (ANGSTROEM)
---------------------------------
  S     45.827400  -21.440400  -113.774000
  C     47.082600  -22.687900  -113.465000
  C     46.613500  -23.524500  -112.519000
  C     45.230700  -23.318600  -112.224000
  C     44.652700  -22.220700  -112.752000
  H     44.659600  -23.914700  -111.478000
  C     47.448100  -24.695400  -112.035000
  H     46.901000  -25.103600  -111.150000
  H     48.480000  -24.309400  -111.712000
  C     47.798200  -25.844200  -113.001000
  H     48.498000  -25.425100  -113.829000
  H     48.426100  -26.672100  -112.561000
  C     46.581500  -26.531600  -113.690000
  H     45.862300  -26.905000  -112.961000
  H     46.024600  -25.704100  -114.121000
  H     46.783700  -27.346600  -114.447000
  S     43.197600  -20.695600  -111.067000
  C     41.550900  -20.267500  -111.594000
  C     41.093000  -21.068100  -112.653000
  C     42.154100  -21.922600  -113.140000
  C     43.322300  -21.746300  -112.446000
  H     40.062400  -20.971900  -112.943000
  C     42.032300  -23.043400  -114.174000
  H     42.916300  -23.627000  -114.055000
  H     42.024400  -22.471700  -115.106000
  C     40.814000  -24.016100  -114.006000
  H     39.872500  -23.538700  -114.196000
  H     40.633600  -24.176000  -112.942000
  C     40.788500  -25.368700  -114.700000
  H     40.205700  -26.134400  -114.205000
  H     41.745900  -25.874400  -114.549000
  H     40.487300  -25.372900  -115.705000
  H     48.039000  -22.700400  -113.999000
  H     40.885600  -19.522100  -111.118000

 Total Charge           Charge          ....    0
 Multiplicity           Mult            ....    1
 Number of Electrons    NEL             ....  134
 Basis Dimension        Dim             ....  322

ORBITAL ENERGIES
----------------

  NO   OCC          E(Eh)            E(eV)
   0   2.0000     -88.968370     -2420.9524
   1   2.0000     -88.961636     -2420.7692
   2   2.0000     -10.324695      -280.9492
   3   2.0000     -10.324340      -280.9396
   4   2.0000     -10.320502      -280.8351
   5   2.0000     -10.317891      -280.7641
   6   2.0000     -10.306027      -280.4413
   7   2.0000     -10.303257      -280.3659
   8   2.0000     -10.300902      -280.3018
   9   2.0000     -10.300143      -280.2811
  10   2.0000     -10.300010      -280.2775
  11   2.0000     -10.293358      -280.0965
  12   2.0000     -10.291888      -280.0565
  13   2.0000     -10.285842      -279.8920
  14   2.0000     -10.278783      -279.6999
  15   2.0000     -10.273098      -279.5452
  16   2.0000      -8.082789      -219.9439
  17   2.0000      -8.076151      -219.7632
  18   2.0000      -6.041250      -164.3908
  19   2.0000      -6.037477      -164.2881
  20   2.0000      -6.034805      -164.2154
  21   2.0000      -6.033473      -164.1791
  22   2.0000      -6.030588      -164.1006
  23   2.0000      -6.026832      -163.9984
  24   2.0000      -1.010047       -27.4848
  25   2.0000      -0.984432       -26.7877
  26   2.0000      -0.907152       -24.6849
  27   2.0000      -0.903252       -24.5787
  28   2.0000      -0.869389       -23.6573
  29   2.0000      -0.853291       -23.2192
  30   2.0000      -0.839520       -22.8445
  31   2.0000      -0.817738       -22.2518
  32   2.0000      -0.783441       -21.3185
  33   2.0000      -0.771570       -20.9955
  34   2.0000      -0.709630       -19.3100
  35   2.0000      -0.701175       -19.0799
  36   2.0000      -0.695336       -18.9211
  37   2.0000      -0.658538       -17.9197
  38   2.0000      -0.640322       -17.4240
  39   2.0000      -0.611188       -16.6313
  40   2.0000      -0.587703       -15.9922
  41   2.0000      -0.570414       -15.5218
  42   2.0000      -0.564777       -15.3684
  43   2.0000      -0.546710       -14.8767
  44   2.0000      -0.540685       -14.7128
  45   2.0000      -0.527290       -14.3483
  46   2.0000      -0.518454       -14.1079
  47   2.0000      -0.512352       -13.9418
  48   2.0000      -0.507911       -13.8210
  49   2.0000      -0.494044       -13.4436
  50   2.0000      -0.490331       -13.3426
  51   2.0000      -0.481705       -13.1079
  52   2.0000      -0.468667       -12.7531
  53   2.0000      -0.465037       -12.6543
  54   2.0000      -0.456265       -12.4156
  55   2.0000      -0.452400       -12.3104
  56   2.0000      -0.444324       -12.0907
  57   2.0000      -0.433937       -11.8080
  58   2.0000      -0.423527       -11.5248
  59   2.0000      -0.423049       -11.5118
  60   2.0000      -0.419182       -11.4065
  61   2.0000      -0.415256       -11.2997
  62   2.0000      -0.402082       -10.9412
  63   2.0000      -0.336858        -9.1664
  64   2.0000      -0.329354        -8.9622
  65   2.0000      -0.323594        -8.8054
  66   2.0000      -0.313187        -8.5222
  67   0.0000       0.044773         1.2183
  68   0.0000       0.049239         1.3399
  69   0.0000       0.103753         2.8233
  70   0.0000       0.119356         3.2478
  71   0.0000       0.127550         3.4708

MULLIKEN ATOMIC CHARGES
-----------------------
   0 S :    0.101892
   1 C :   -0.152694
   2 C :   -0.053341
   3 C :    0.016403
   4 C :   -0.147880
   5 H :    0.022053
   6 C :    0.040302
   7 H :    0.031082
   8 H :    0.049841
   9 C :   -0.109919
  10 H :    0.033437
  11 H :    0.043559
  12 C :   -0.069610
  13 H :    0.021930
  14 H :    0.035100
  15 H :    0.054070
  16 S :    0.126818
  17 C :   -0.114281
  18 C :   -0.038556
  19 C :   -0.041997
  20 C :   -0.210331
  21 H :    0.021537
  22 C :    0.146492
  23 H :    0.021503
  24 H :    0.041479
  25 C :   -0.085712
  26 H :    0.012684
  27 H :    0.021747
  28 C :   -0.021299
  29 H :    0.019067
  30 H :    0.018532
  31 H :    0.033652
  32 H :    0.066089
  33 H :    0.066353
Sum of atomic charges:    0.0000000

LOEWDIN ATOMIC CHARGES
----------------------
   0 S :    0.386456
   1 C :   -0.170429
   2 C :   -0.078026
   3 C :   -0.071992
   4 C :   -0.202898
   5 H :    0.035708
   6 C :   -0.038387
   7 H :    0.031745
   8 H :    0.044844
   9 C :   -0.052705
  10 H :    0.026894
  11 H :    0.028859
  12 C :   -0.080636
  13 H :    0.021472
  14 H :    0.025279
  15 H :    0.034602
  16 S :    0.405104
  17 C :   -0.177264
  18 C :   -0.069569
  19 C :   -0.046703
  20 C :   -0.210955
  21 H :    0.032334
  22 C :   -0.020511
  23 H :    0.027429
  24 H :    0.037082
  25 C :   -0.047866
  26 H :    0.019290
  27 H :    0.028463
  28 C :   -0.065489
  29 H :    0.030701
  30 H :    0.028338
  31 H :    0.018850
  32 H :    0.035796
  33 H :    0.034184

  Mayer bond orders larger than 0.100000
B(  0-S ,  1-C ) :   1.1328 B(  0-S ,  4-C ) :   1.1327 B(  1-C ,  2-C ) :   1.6052
B(  1-C , 32-H ) :   0.9758 B(  2-C ,  3-C ) :   1.2225 B(  2-C ,  6-C ) :   1.0212
B(  3-C ,  4-C ) :   1.6082 B(  3-C ,  5-H ) :   0.9876 B(  4-C , 20-C ) :   1.0200
B(  6-C ,  7-H ) :   0.9427 B(  6-C ,  8-H ) :   0.9395 B(  6-C ,  9-C ) :   1.0688
B(  9-C , 10-H ) :   0.9541 B(  9-C , 11-H ) :   0.9572 B(  9-C , 12-C ) :   1.0613
B( 12-C , 13-H ) :   0.9745 B( 12-C , 14-H ) :   0.9741 B( 12-C , 15-H ) :   0.9754
B( 16-S , 17-C ) :   1.1502 B( 16-S , 20-C ) :   1.1368 B( 17-C , 18-C ) :   1.6306
B( 17-C , 33-H ) :   0.9626 B( 18-C , 19-C ) :   1.1995 B( 18-C , 21-H ) :   0.9946
B( 19-C , 20-C ) :   1.6378 B( 19-C , 22-C ) :   1.0276 B( 22-C , 23-H ) :   0.9332
B( 22-C , 24-H ) :   0.9244 B( 22-C , 25-C ) :   1.0533 B( 25-C , 26-H ) :   0.9486
B( 25-C , 27-H ) :   0.9561 B( 25-C , 28-C ) :   1.0991 B( 28-C , 29-H ) :   0.9686
B( 28-C , 30-H ) :   0.9686 B( 28-C , 31-H ) :   0.9783

Dispersion correction           -0.014576006
FINAL SINGLE POINT ENERGY     -1339.863865185531

DIPOLE MOMENT
-------------
                                X             Y             Z
Electronic contribution:      2.50376      26.93515       8.35108
Nuclear contribution   :     -2.73423     -27.43324      -8.36871
                        -----------------------------------------
Total Dipole Moment    :     -0.23046      -0.49809      -0.01762
                        -----------------------------------------
Magnitude (a.u.)       :      0.54911
Magnitude (Debye)      :      1.39573

Rotational constants in cm-1:     0.017263     0.009219     0.006895
Rotational constants in MHz :   517.517931   276.373761   206.712536

                             ****ORCA TERMINATED NORMALLY****
TOTAL RUN TIME: 0 days 0 hours 0 minutes 20 seconds 296 msec
