                         Program Version 4.2.1 -  RELEASE  -
|  1> ! wB97X-D3 SP def2-SVP
|  2> %pal
|  3> nprocs 24
|  4> end
|  5>
|  6> * xyz 0 1
|  7> S 	 -39.3917 	 7.16643 	 27.4414
|  8> C 	 -40.6839 	 5.93973 	 27.4089
|  9> C 	 -41.8 	 6.35732 	 28.157
| 10> C 	 -41.5903 	 7.6639 	 28.6855
| 11> C 	 -40.3566 	 8.23365 	 28.3666
| 12> H 	 -42.3625 	 8.24104 	 29.1234
| 13> C 	 -43.1382 	 5.6026 	 28.2291
| 14> H 	 -43.6361 	 5.7185 	 29.2032
| 15> H 	 -42.9836 	 4.51345 	 28.2786
| 16> C 	 -44.0619 	 5.83815 	 27.0532
| 17> H 	 -43.991 	 6.95034 	 26.7725
| 18> H 	 -43.7471 	 5.29689 	 26.1533
| 19> C 	 -45.514 	 5.62887 	 27.4056
| 20> H 	 -46.2868 	 5.89845 	 26.6563
| 21> H 	 -45.6598 	 4.61639 	 27.7668
| 22> H 	 -45.9246 	 6.30063 	 28.2568
| 23> S 	 -39.2958 	 10.6449 	 27.49
| 24> C 	 -39.1418 	 12.0007 	 28.4902
| 25> C 	 -39.3639 	 11.6152 	 29.8266
| 26> C 	 -39.7743 	 10.2499 	 29.9196
| 27> C 	 -39.9578 	 9.59079 	 28.6594
| 28> H 	 -39.1715 	 12.2904 	 30.6575
| 29> C 	 -39.7455 	 9.57389 	 31.3215
| 30> H 	 -38.7774 	 9.80566 	 31.7576
| 31> H 	 -39.7209 	 8.46593 	 31.1912
| 32> C 	 -40.815 	 10.002 	 32.3706
| 33> H 	 -40.9587 	 11.1227 	 32.2746
| 34> H 	 -40.4294 	 9.78823 	 33.3545
| 35> C 	 -42.1603 	 9.37392 	 32.1468
| 36> H 	 -42.0692 	 8.32448 	 31.8401
| 37> H 	 -42.76 	 9.94013 	 31.4165
| 38> H 	 -42.817 	 9.40095 	 33.0432
| 39> H 	 -40.6927 	 5.00848 	 26.8154
| 40> H 	 -38.7132 	 12.9006 	 28.1622
| 41> *
| 42>
| 43>                          ****END OF INPUT****

CARTESIAN COORDINATES (ANGSTROEM)
---------------------------------
  S    -39.391700    7.166430   27.441400
  C    -40.683900    5.939730   27.408900
  C    -41.800000    6.357320   28.157000
  C    -41.590300    7.663900   28.685500
  C    -40.356600    8.233650   28.366600
  H    -42.362500    8.241040   29.123400
  C    -43.138200    5.602600   28.229100
  H    -43.636100    5.718500   29.203200
  H    -42.983600    4.513450   28.278600
  C    -44.061900    5.838150   27.053200
  H    -43.991000    6.950340   26.772500
  H    -43.747100    5.296890   26.153300
  C    -45.514000    5.628870   27.405600
  H    -46.286800    5.898450   26.656300
  H    -45.659800    4.616390   27.766800
  H    -45.924600    6.300630   28.256800
  S    -39.295800   10.644900   27.490000
  C    -39.141800   12.000700   28.490200
  C    -39.363900   11.615200   29.826600
  C    -39.774300   10.249900   29.919600
  C    -39.957800    9.590790   28.659400
  H    -39.171500   12.290400   30.657500
  C    -39.745500    9.573890   31.321500
  H    -38.777400    9.805660   31.757600
  H    -39.720900    8.465930   31.191200
  C    -40.815000   10.002000   32.370600
  H    -40.958700   11.122700   32.274600
  H    -40.429400    9.788230   33.354500
  C    -42.160300    9.373920   32.146800
  H    -42.069200    8.324480   31.840100
  H    -42.760000    9.940130   31.416500
  H    -42.817000    9.400950   33.043200
  H    -40.692700    5.008480   26.815400
  H    -38.713200   12.900600   28.162200

 Total Charge           Charge          ....    0
 Multiplicity           Mult            ....    1
 Number of Electrons    NEL             ....  134
 Basis Dimension        Dim             ....  322

ORBITAL ENERGIES
----------------

  NO   OCC          E(Eh)            E(eV)
   0   2.0000     -88.970620     -2421.0137
   1   2.0000     -88.966185     -2420.8930
   2   2.0000     -10.329674      -281.0847
   3   2.0000     -10.327430      -281.0237
   4   2.0000     -10.320446      -280.8336
   5   2.0000     -10.315310      -280.6938
   6   2.0000     -10.308399      -280.5058
   7   2.0000     -10.306657      -280.4584
   8   2.0000     -10.296992      -280.1954
   9   2.0000     -10.296328      -280.1773
  10   2.0000     -10.292895      -280.0839
  11   2.0000     -10.292012      -280.0599
  12   2.0000     -10.291831      -280.0549
  13   2.0000     -10.287166      -279.9280
  14   2.0000     -10.285385      -279.8796
  15   2.0000     -10.275238      -279.6034
  16   2.0000      -8.085265      -220.0112
  17   2.0000      -8.082458      -219.9349
  18   2.0000      -6.043766      -164.4592
  19   2.0000      -6.040753      -164.3773
  20   2.0000      -6.039644      -164.3471
  21   2.0000      -6.036493      -164.2613
  22   2.0000      -6.036190      -164.2531
  23   2.0000      -6.033606      -164.1828
  24   2.0000      -1.011551       -27.5257
  25   2.0000      -0.986906       -26.8551
  26   2.0000      -0.914418       -24.8826
  27   2.0000      -0.903052       -24.5733
  28   2.0000      -0.870286       -23.6817
  29   2.0000      -0.849452       -23.1148
  30   2.0000      -0.845673       -23.0119
  31   2.0000      -0.811811       -22.0905
  32   2.0000      -0.780780       -21.2461
  33   2.0000      -0.770749       -20.9732
  34   2.0000      -0.703279       -19.1372
  35   2.0000      -0.697988       -18.9932
  36   2.0000      -0.692164       -18.8348
  37   2.0000      -0.655993       -17.8505
  38   2.0000      -0.640716       -17.4348
  39   2.0000      -0.622422       -16.9370
  40   2.0000      -0.598218       -16.2783
  41   2.0000      -0.572820       -15.5872
  42   2.0000      -0.556414       -15.1408
  43   2.0000      -0.547074       -14.8866
  44   2.0000      -0.539546       -14.6818
  45   2.0000      -0.526719       -14.3328
  46   2.0000      -0.522569       -14.2198
  47   2.0000      -0.515604       -14.0303
  48   2.0000      -0.510270       -13.8851
  49   2.0000      -0.492919       -13.4130
  50   2.0000      -0.488636       -13.2964
  51   2.0000      -0.482534       -13.1304
  52   2.0000      -0.465115       -12.6564
  53   2.0000      -0.462700       -12.5907
  54   2.0000      -0.459118       -12.4932
  55   2.0000      -0.450517       -12.2592
  56   2.0000      -0.442576       -12.0431
  57   2.0000      -0.434514       -11.8237
  58   2.0000      -0.429336       -11.6828
  59   2.0000      -0.424219       -11.5436
  60   2.0000      -0.419300       -11.4097
  61   2.0000      -0.410816       -11.1789
  62   2.0000      -0.406640       -11.0652
  63   2.0000      -0.343575        -9.3492
  64   2.0000      -0.335299        -9.1239
  65   2.0000      -0.326119        -8.8741
  66   2.0000      -0.291744        -7.9387
  67   0.0000       0.027461         0.7473
  68   0.0000       0.067732         1.8431
  69   0.0000       0.109326         2.9749
  70   0.0000       0.121647         3.3102
  71   0.0000       0.127501         3.4695

MULLIKEN ATOMIC CHARGES
-----------------------
   0 S :    0.122917
   1 C :   -0.138178
   2 C :   -0.078642
   3 C :    0.047322
   4 C :   -0.159412
   5 H :   -0.000502
   6 C :    0.047595
   7 H :    0.026488
   8 H :    0.022392
   9 C :   -0.057780
  10 H :    0.039781
  11 H :    0.037715
  12 C :   -0.089003
  13 H :    0.042397
  14 H :    0.027926
  15 H :    0.034222
  16 S :    0.120848
  17 C :   -0.080780
  18 C :   -0.038919
  19 C :   -0.039078
  20 C :   -0.149116
  21 H :    0.028826
  22 C :    0.026174
  23 H :    0.029601
  24 H :    0.036957
  25 C :   -0.065038
  26 H :    0.032884
  27 H :    0.027927
  28 C :   -0.063919
  29 H :    0.033853
  30 H :    0.036900
  31 H :    0.031567
  32 H :    0.058193
  33 H :    0.047881
Sum of atomic charges:   -0.0000000

LOEWDIN ATOMIC CHARGES
----------------------
   0 S :    0.417716
   1 C :   -0.197960
   2 C :   -0.056802
   3 C :   -0.057187
   4 C :   -0.206974
   5 H :    0.026088
   6 C :   -0.038651
   7 H :    0.033082
   8 H :    0.032763
   9 C :   -0.048265
  10 H :    0.033209
  11 H :    0.026945
  12 C :   -0.079931
  13 H :    0.030262
  14 H :    0.019435
  15 H :    0.033607
  16 S :    0.459212
  17 C :   -0.198611
  18 C :   -0.074174
  19 C :   -0.054904
  20 C :   -0.228441
  21 H :    0.032678
  22 C :   -0.032929
  23 H :    0.031398
  24 H :    0.031761
  25 C :   -0.044615
  26 H :    0.029964
  27 H :    0.021157
  28 C :   -0.074107
  29 H :    0.023669
  30 H :    0.026980
  31 H :    0.028719
  32 H :    0.033953
  33 H :    0.020954

  Mayer bond orders larger than 0.100000
B(  0-S ,  1-C ) :   1.1397 B(  0-S ,  4-C ) :   1.1644 B(  1-C ,  2-C ) :   1.5912
B(  1-C , 32-H ) :   0.9658 B(  2-C ,  3-C ) :   1.2661 B(  2-C ,  6-C ) :   1.0333
B(  3-C ,  4-C ) :   1.5466 B(  3-C ,  5-H ) :   0.9986 B(  4-C , 20-C ) :   1.0613
B(  6-C ,  7-H ) :   0.9483 B(  6-C ,  8-H ) :   0.9323 B(  6-C ,  9-C ) :   1.0451
B(  9-C , 10-H ) :   0.9608 B(  9-C , 11-H ) :   0.9527 B(  9-C , 12-C ) :   1.0763
B( 12-C , 13-H ) :   0.9733 B( 12-C , 14-H ) :   0.9736 B( 12-C , 15-H ) :   0.9734
B( 16-S , 17-C ) :   1.2112 B( 16-S , 20-C ) :   1.1687 B( 17-C , 18-C ) :   1.5123
B( 17-C , 20-C ) :   0.1099 B( 17-C , 33-H ) :   0.9786 B( 18-C , 19-C ) :   1.3197
B( 18-C , 21-H ) :   0.9910 B( 19-C , 20-C ) :   1.4935 B( 19-C , 22-C ) :   1.0296
B( 22-C , 23-H ) :   0.9445 B( 22-C , 24-H ) :   0.9425 B( 22-C , 25-C ) :   1.0659
B( 25-C , 26-H ) :   0.9583 B( 25-C , 27-H ) :   0.9571 B( 25-C , 28-C ) :   1.0785
B( 28-C , 29-H ) :   0.9731 B( 28-C , 30-H ) :   0.9740 B( 28-C , 31-H ) :   0.9710

Dispersion correction           -0.014417088
FINAL SINGLE POINT ENERGY     -1339.878571609703

DIPOLE MOMENT
-------------
                                X             Y             Z
Electronic contribution:     23.38756       7.99903     -14.05873
Nuclear contribution   :    -23.68078      -8.02472      14.38750
                        -----------------------------------------
Total Dipole Moment    :     -0.29322      -0.02569       0.32877
                        -----------------------------------------
Magnitude (a.u.)       :      0.44128
Magnitude (Debye)      :      1.12165

Rotational constants in cm-1:     0.018489     0.008392     0.006806
Rotational constants in MHz :   554.294663   251.589162   204.045959

                             ****ORCA TERMINATED NORMALLY****
TOTAL RUN TIME: 0 days 0 hours 0 minutes 21 seconds 501 msec
