                         Program Version 4.2.1 -  RELEASE  -
|  1> ! wB97X-D3 SP def2-SVP
|  2> %pal
|  3> nprocs 24
|  4> end
|  5>
|  6> * xyz 0 1
|  7> S 	 -135.459 	 14.0418 	 -5.62845
|  8> C 	 -133.908 	 14.867 	 -5.78343
|  9> C 	 -132.985 	 14.4153 	 -4.7911
| 10> C 	 -133.609 	 13.4712 	 -3.86418
| 11> C 	 -134.888 	 13.1553 	 -4.28311
| 12> H 	 -133.097 	 13.0987 	 -3.01487
| 13> C 	 -131.583 	 14.9574 	 -4.57418
| 14> H 	 -131.405 	 15.2941 	 -3.51159
| 15> H 	 -131.497 	 15.9099 	 -4.99594
| 16> C 	 -130.497 	 14.021 	 -5.23067
| 17> H 	 -129.489 	 14.4545 	 -5.01782
| 18> H 	 -130.513 	 13.1408 	 -4.62863
| 19> C 	 -130.656 	 13.8341 	 -6.73961
| 20> H 	 -130.046 	 12.979 	 -7.0728
| 21> H 	 -131.685 	 13.58 	 -7.00855
| 22> H 	 -130.431 	 14.8056 	 -7.27796
| 23> S 	 -137.092 	 13.2316 	 -2.52635
| 24> C 	 -137.508 	 11.8168 	 -1.63369
| 25> C 	 -136.771 	 10.7478 	 -2.05826
| 26> C 	 -135.881 	 11.0603 	 -3.14818
| 27> C 	 -135.896 	 12.3769 	 -3.54356
| 28> H 	 -136.795 	 9.79776 	 -1.51344
| 29> C 	 -134.983 	 9.99002 	 -3.74001
| 30> H 	 -134.795 	 9.13828 	 -3.11484
| 31> H 	 -133.981 	 10.4371 	 -3.7333
| 32> C 	 -135.214 	 9.51259 	 -5.18325
| 33> H 	 -134.957 	 10.3277 	 -5.84766
| 34> H 	 -136.259 	 9.25005 	 -5.38338
| 35> C 	 -134.184 	 8.45206 	 -5.59713
| 36> H 	 -133.234 	 9.00838 	 -5.75095
| 37> H 	 -134.36 	 8.09762 	 -6.53976
| 38> H 	 -134.058 	 7.58845 	 -4.96588
| 39> H 	 -133.715 	 15.53 	 -6.64773
| 40> H 	 -138.248 	 11.856 	 -0.77625
| 41> *
| 42>
| 43>                          ****END OF INPUT****

CARTESIAN COORDINATES (ANGSTROEM)
---------------------------------
  S    -135.459000   14.041800   -5.628450
  C    -133.908000   14.867000   -5.783430
  C    -132.985000   14.415300   -4.791100
  C    -133.609000   13.471200   -3.864180
  C    -134.888000   13.155300   -4.283110
  H    -133.097000   13.098700   -3.014870
  C    -131.583000   14.957400   -4.574180
  H    -131.405000   15.294100   -3.511590
  H    -131.497000   15.909900   -4.995940
  C    -130.497000   14.021000   -5.230670
  H    -129.489000   14.454500   -5.017820
  H    -130.513000   13.140800   -4.628630
  C    -130.656000   13.834100   -6.739610
  H    -130.046000   12.979000   -7.072800
  H    -131.685000   13.580000   -7.008550
  H    -130.431000   14.805600   -7.277960
  S    -137.092000   13.231600   -2.526350
  C    -137.508000   11.816800   -1.633690
  C    -136.771000   10.747800   -2.058260
  C    -135.881000   11.060300   -3.148180
  C    -135.896000   12.376900   -3.543560
  H    -136.795000    9.797760   -1.513440
  C    -134.983000    9.990020   -3.740010
  H    -134.795000    9.138280   -3.114840
  H    -133.981000   10.437100   -3.733300
  C    -135.214000    9.512590   -5.183250
  H    -134.957000   10.327700   -5.847660
  H    -136.259000    9.250050   -5.383380
  C    -134.184000    8.452060   -5.597130
  H    -133.234000    9.008380   -5.750950
  H    -134.360000    8.097620   -6.539760
  H    -134.058000    7.588450   -4.965880
  H    -133.715000   15.530000   -6.647730
  H    -138.248000   11.856000   -0.776250

 Total Charge           Charge          ....    0
 Multiplicity           Mult            ....    1
 Number of Electrons    NEL             ....  134
 Basis Dimension        Dim             ....  322

ORBITAL ENERGIES
----------------

  NO   OCC          E(Eh)            E(eV)
   0   2.0000     -88.968475     -2420.9553
   1   2.0000     -88.959685     -2420.7161
   2   2.0000     -10.329802      -281.0882
   3   2.0000     -10.323733      -280.9231
   4   2.0000     -10.322568      -280.8914
   5   2.0000     -10.320287      -280.8293
   6   2.0000     -10.311030      -280.5774
   7   2.0000     -10.302982      -280.3584
   8   2.0000     -10.298434      -280.2346
   9   2.0000     -10.293351      -280.0963
  10   2.0000     -10.292275      -280.0670
  11   2.0000     -10.290408      -280.0163
  12   2.0000     -10.285002      -279.8691
  13   2.0000     -10.283645      -279.8322
  14   2.0000     -10.281641      -279.7777
  15   2.0000     -10.269234      -279.4401
  16   2.0000      -8.083675      -219.9680
  17   2.0000      -8.074691      -219.7235
  18   2.0000      -6.042049      -164.4125
  19   2.0000      -6.037999      -164.3023
  20   2.0000      -6.034664      -164.2115
  21   2.0000      -6.033251      -164.1731
  22   2.0000      -6.029017      -164.0579
  23   2.0000      -6.025506      -163.9624
  24   2.0000      -1.005438       -27.3594
  25   2.0000      -0.981867       -26.7180
  26   2.0000      -0.908507       -24.7217
  27   2.0000      -0.905951       -24.6522
  28   2.0000      -0.863124       -23.4868
  29   2.0000      -0.849993       -23.1295
  30   2.0000      -0.845326       -23.0025
  31   2.0000      -0.810528       -22.0556
  32   2.0000      -0.783238       -21.3130
  33   2.0000      -0.771546       -20.9948
  34   2.0000      -0.706746       -19.2315
  35   2.0000      -0.697762       -18.9871
  36   2.0000      -0.685521       -18.6540
  37   2.0000      -0.656169       -17.8553
  38   2.0000      -0.644300       -17.5323
  39   2.0000      -0.624013       -16.9803
  40   2.0000      -0.596891       -16.2422
  41   2.0000      -0.566398       -15.4125
  42   2.0000      -0.562426       -15.3044
  43   2.0000      -0.545760       -14.8509
  44   2.0000      -0.541419       -14.7328
  45   2.0000      -0.518783       -14.1168
  46   2.0000      -0.518090       -14.0979
  47   2.0000      -0.510673       -13.8961
  48   2.0000      -0.500949       -13.6315
  49   2.0000      -0.494886       -13.4665
  50   2.0000      -0.492676       -13.4064
  51   2.0000      -0.477320       -12.9885
  52   2.0000      -0.466792       -12.7021
  53   2.0000      -0.460671       -12.5355
  54   2.0000      -0.454885       -12.3781
  55   2.0000      -0.450420       -12.2566
  56   2.0000      -0.444277       -12.0894
  57   2.0000      -0.437880       -11.9153
  58   2.0000      -0.432842       -11.7782
  59   2.0000      -0.421108       -11.4589
  60   2.0000      -0.416408       -11.3310
  61   2.0000      -0.415907       -11.3174
  62   2.0000      -0.411433       -11.1957
  63   2.0000      -0.339415        -9.2360
  64   2.0000      -0.328069        -8.9272
  65   2.0000      -0.325942        -8.8693
  66   2.0000      -0.303097        -8.2477
  67   0.0000       0.039354         1.0709
  68   0.0000       0.058215         1.5841
  69   0.0000       0.110386         3.0038
  70   0.0000       0.119294         3.2462
  71   0.0000       0.126090         3.4311

MULLIKEN ATOMIC CHARGES
-----------------------
   0 S :    0.118521
   1 C :   -0.134258
   2 C :   -0.124690
   3 C :    0.077731
   4 C :   -0.179632
   5 H :    0.008128
   6 C :    0.053597
   7 H :    0.040203
   8 H :   -0.001443
   9 C :   -0.062308
  10 H :    0.031682
  11 H :    0.020944
  12 C :   -0.062954
  13 H :    0.044705
  14 H :    0.039256
  15 H :    0.041057
  16 S :    0.094428
  17 C :   -0.115025
  18 C :   -0.029911
  19 C :   -0.035458
  20 C :   -0.123174
  21 H :    0.025527
  22 C :    0.068965
  23 H :    0.004910
  24 H :    0.008543
  25 C :   -0.060708
  26 H :    0.025731
  27 H :    0.034833
  28 C :   -0.023034
  29 H :    0.025854
  30 H :    0.006142
  31 H :    0.030358
  32 H :    0.067062
  33 H :    0.084421
Sum of atomic charges:   -0.0000000

LOEWDIN ATOMIC CHARGES
----------------------
   0 S :    0.427895
   1 C :   -0.204952
   2 C :   -0.053814
   3 C :   -0.048514
   4 C :   -0.206435
   5 H :    0.029204
   6 C :   -0.040993
   7 H :    0.040980
   8 H :    0.018857
   9 C :   -0.038933
  10 H :    0.027095
  11 H :    0.016586
  12 C :   -0.070957
  13 H :    0.032135
  14 H :    0.024596
  15 H :    0.033078
  16 S :    0.396445
  17 C :   -0.194844
  18 C :   -0.083142
  19 C :   -0.050222
  20 C :   -0.204550
  21 H :    0.034957
  22 C :   -0.038275
  23 H :    0.023074
  24 H :    0.032959
  25 C :   -0.034672
  26 H :    0.026095
  27 H :    0.021685
  28 C :   -0.059063
  29 H :    0.032490
  30 H :    0.014549
  31 H :    0.020245
  32 H :    0.031451
  33 H :    0.044992

  Mayer bond orders larger than 0.100000
B(  0-S ,  1-C ) :   1.1454 B(  0-S ,  4-C ) :   1.1796 B(  1-C ,  2-C ) :   1.5839
B(  1-C , 32-H ) :   0.9671 B(  2-C ,  3-C ) :   1.2404 B(  2-C ,  6-C ) :   1.0272
B(  3-C ,  4-C ) :   1.5656 B(  3-C ,  5-H ) :   1.0013 B(  4-C , 20-C ) :   0.9849
B(  6-C ,  7-H ) :   0.9472 B(  6-C ,  8-H ) :   0.9406 B(  6-C ,  9-C ) :   1.0462
B(  9-C , 10-H ) :   0.9566 B(  9-C , 11-H ) :   0.9626 B(  9-C , 12-C ) :   1.0710
B( 12-C , 13-H ) :   0.9722 B( 12-C , 14-H ) :   0.9730 B( 12-C , 15-H ) :   0.9739
B( 16-S , 17-C ) :   1.1740 B( 16-S , 20-C ) :   1.1199 B( 17-C , 18-C ) :   1.5918
B( 17-C , 33-H ) :   0.9577 B( 18-C , 19-C ) :   1.2473 B( 18-C , 21-H ) :   0.9939
B( 19-C , 20-C ) :   1.6168 B( 19-C , 22-C ) :   1.0385 B( 22-C , 23-H ) :   0.9425
B( 22-C , 24-H ) :   0.9208 B( 22-C , 25-C ) :   1.0654 B( 25-C , 26-H ) :   0.9527
B( 25-C , 27-H ) :   0.9615 B( 25-C , 28-C ) :   1.0801 B( 28-C , 29-H ) :   0.9749
B( 28-C , 30-H ) :   0.9695 B( 28-C , 31-H ) :   0.9772

Dispersion correction           -0.014609340
FINAL SINGLE POINT ENERGY     -1339.875983633907

DIPOLE MOMENT
-------------
                                X             Y             Z
Electronic contribution:    -23.10448      12.19814       9.29947
Nuclear contribution   :     23.70038     -12.40847      -9.17929
                        -----------------------------------------
Total Dipole Moment    :      0.59590      -0.21033       0.12018
                        -----------------------------------------
Magnitude (a.u.)       :      0.64326
Magnitude (Debye)      :      1.63504

Rotational constants in cm-1:     0.018089     0.009067     0.007150
Rotational constants in MHz :   542.280667   271.818240   214.343384

                             ****ORCA TERMINATED NORMALLY****
TOTAL RUN TIME: 0 days 0 hours 0 minutes 21 seconds 543 msec
