                         Program Version 4.2.1 -  RELEASE  -
|  1> ! wB97X-D3 SP def2-SVP
|  2> %pal
|  3> nprocs 24
|  4> end
|  5>
|  6> * xyz 0 1
|  7> S 	 -51.0201 	 14.784 	 -99.4458
|  8> C 	 -52.6157 	 15.3143 	 -98.9428
|  9> C 	 -53.0952 	 16.4583 	 -99.6369
| 10> C 	 -52.1148 	 16.9413 	 -100.533
| 11> C 	 -50.9303 	 16.2119 	 -100.59
| 12> H 	 -52.1822 	 17.865 	 -101.075
| 13> C 	 -54.3635 	 17.1758 	 -99.4855
| 14> H 	 -55.0501 	 16.5062 	 -99.0022
| 15> H 	 -54.7734 	 17.3696 	 -100.491
| 16> C 	 -54.3384 	 18.5601 	 -98.7919
| 17> H 	 -53.7387 	 19.2416 	 -99.3213
| 18> H 	 -55.3451 	 19.0082 	 -98.9299
| 19> C 	 -53.8834 	 18.4136 	 -97.3091
| 20> H 	 -54.23 	 17.5554 	 -96.7722
| 21> H 	 -52.8293 	 18.5255 	 -97.3296
| 22> H 	 -54.2517 	 19.2548 	 -96.7093
| 23> S 	 -48.2766 	 16.4377 	 -100.502
| 24> C 	 -47.4451 	 17.1275 	 -101.824
| 25> C 	 -48.2184 	 17.5027 	 -102.829
| 26> C 	 -49.6123 	 17.2441 	 -102.581
| 27> C 	 -49.7871 	 16.6296 	 -101.347
| 28> H 	 -47.7807 	 17.9018 	 -103.74
| 29> C 	 -50.7299 	 17.6428 	 -103.608
| 30> H 	 -51.3871 	 18.3901 	 -103.137
| 31> H 	 -51.4483 	 16.7771 	 -103.713
| 32> C 	 -50.3435 	 18.2642 	 -105.054
| 33> H 	 -51.1429 	 18.1462 	 -105.757
| 34> H 	 -49.5517 	 17.6123 	 -105.489
| 35> C 	 -50.0608 	 19.7302 	 -105.007
| 36> H 	 -49.5348 	 20.1593 	 -104.172
| 37> H 	 -50.9113 	 20.3748 	 -105.182
| 38> H 	 -49.4277 	 19.9465 	 -105.907
| 39> H 	 -53.1913 	 14.8808 	 -98.174
| 40> H 	 -46.349 	 17.1712 	 -101.835
| 41> *
| 42>
| 43>                          ****END OF INPUT****

CARTESIAN COORDINATES (ANGSTROEM)
---------------------------------
  S    -51.020100   14.784000  -99.445800
  C    -52.615700   15.314300  -98.942800
  C    -53.095200   16.458300  -99.636900
  C    -52.114800   16.941300  -100.533000
  C    -50.930300   16.211900  -100.590000
  H    -52.182200   17.865000  -101.075000
  C    -54.363500   17.175800  -99.485500
  H    -55.050100   16.506200  -99.002200
  H    -54.773400   17.369600  -100.491000
  C    -54.338400   18.560100  -98.791900
  H    -53.738700   19.241600  -99.321300
  H    -55.345100   19.008200  -98.929900
  C    -53.883400   18.413600  -97.309100
  H    -54.230000   17.555400  -96.772200
  H    -52.829300   18.525500  -97.329600
  H    -54.251700   19.254800  -96.709300
  S    -48.276600   16.437700  -100.502000
  C    -47.445100   17.127500  -101.824000
  C    -48.218400   17.502700  -102.829000
  C    -49.612300   17.244100  -102.581000
  C    -49.787100   16.629600  -101.347000
  H    -47.780700   17.901800  -103.740000
  C    -50.729900   17.642800  -103.608000
  H    -51.387100   18.390100  -103.137000
  H    -51.448300   16.777100  -103.713000
  C    -50.343500   18.264200  -105.054000
  H    -51.142900   18.146200  -105.757000
  H    -49.551700   17.612300  -105.489000
  C    -50.060800   19.730200  -105.007000
  H    -49.534800   20.159300  -104.172000
  H    -50.911300   20.374800  -105.182000
  H    -49.427700   19.946500  -105.907000
  H    -53.191300   14.880800  -98.174000
  H    -46.349000   17.171200  -101.835000

 Total Charge           Charge          ....    0
 Multiplicity           Mult            ....    1
 Number of Electrons    NEL             ....  134
 Basis Dimension        Dim             ....  322

ORBITAL ENERGIES
----------------

  NO   OCC          E(Eh)            E(eV)
   0   2.0000     -88.971201     -2421.0295
   1   2.0000     -88.960198     -2420.7301
   2   2.0000     -10.331102      -281.1236
   3   2.0000     -10.322682      -280.8945
   4   2.0000     -10.315148      -280.6895
   5   2.0000     -10.309607      -280.5387
   6   2.0000     -10.306785      -280.4619
   7   2.0000     -10.305113      -280.4164
   8   2.0000     -10.298310      -280.2313
   9   2.0000     -10.296316      -280.1770
  10   2.0000     -10.288781      -279.9720
  11   2.0000     -10.288380      -279.9610
  12   2.0000     -10.288124      -279.9541
  13   2.0000     -10.287445      -279.9356
  14   2.0000     -10.278832      -279.7012
  15   2.0000     -10.272695      -279.5342
  16   2.0000      -8.084060      -219.9784
  17   2.0000      -8.076579      -219.7749
  18   2.0000      -6.042695      -164.4301
  19   2.0000      -6.038909      -164.3271
  20   2.0000      -6.035009      -164.2210
  21   2.0000      -6.034729      -164.2133
  22   2.0000      -6.030959      -164.1107
  23   2.0000      -6.027212      -164.0088
  24   2.0000      -1.008630       -27.4462
  25   2.0000      -0.979294       -26.6479
  26   2.0000      -0.911862       -24.8130
  27   2.0000      -0.900635       -24.5075
  28   2.0000      -0.872204       -23.7339
  29   2.0000      -0.854244       -23.2452
  30   2.0000      -0.845255       -23.0005
  31   2.0000      -0.813064       -22.1246
  32   2.0000      -0.782625       -21.2963
  33   2.0000      -0.771505       -20.9937
  34   2.0000      -0.714438       -19.4408
  35   2.0000      -0.703982       -19.1563
  36   2.0000      -0.697886       -18.9905
  37   2.0000      -0.657042       -17.8790
  38   2.0000      -0.634876       -17.2758
  39   2.0000      -0.623300       -16.9609
  40   2.0000      -0.598269       -16.2797
  41   2.0000      -0.564558       -15.3624
  42   2.0000      -0.548133       -14.9155
  43   2.0000      -0.544816       -14.8252
  44   2.0000      -0.538500       -14.6533
  45   2.0000      -0.535677       -14.5765
  46   2.0000      -0.522198       -14.2097
  47   2.0000      -0.509681       -13.8691
  48   2.0000      -0.501042       -13.6340
  49   2.0000      -0.495786       -13.4910
  50   2.0000      -0.492026       -13.3887
  51   2.0000      -0.481157       -13.0930
  52   2.0000      -0.468869       -12.7586
  53   2.0000      -0.468515       -12.7489
  54   2.0000      -0.459583       -12.5059
  55   2.0000      -0.449735       -12.2379
  56   2.0000      -0.446536       -12.1509
  57   2.0000      -0.442348       -12.0369
  58   2.0000      -0.436234       -11.8705
  59   2.0000      -0.423791       -11.5319
  60   2.0000      -0.421062       -11.4577
  61   2.0000      -0.420012       -11.4291
  62   2.0000      -0.405022       -11.0212
  63   2.0000      -0.355957        -9.6861
  64   2.0000      -0.331666        -9.0251
  65   2.0000      -0.326809        -8.8929
  66   2.0000      -0.281321        -7.6551
  67   0.0000       0.024490         0.6664
  68   0.0000       0.077581         2.1111
  69   0.0000       0.105161         2.8616
  70   0.0000       0.121594         3.3087
  71   0.0000       0.139115         3.7855

MULLIKEN ATOMIC CHARGES
-----------------------
   0 S :    0.113463
   1 C :   -0.103037
   2 C :   -0.063812
   3 C :   -0.007357
   4 C :   -0.118720
   5 H :    0.002384
   6 C :    0.054129
   7 H :    0.013593
   8 H :    0.029833
   9 C :   -0.056729
  10 H :    0.013515
  11 H :    0.029298
  12 C :   -0.034573
  13 H :    0.029299
  14 H :    0.040957
  15 H :    0.026351
  16 S :    0.101495
  17 C :   -0.076736
  18 C :   -0.045578
  19 C :   -0.009846
  20 C :   -0.169308
  21 H :    0.019236
  22 C :   -0.007582
  23 H :    0.036461
  24 H :    0.045813
  25 C :   -0.049252
  26 H :    0.024969
  27 H :    0.041263
  28 C :   -0.063039
  29 H :    0.039980
  30 H :    0.031370
  31 H :    0.029840
  32 H :    0.027900
  33 H :    0.054423
Sum of atomic charges:    0.0000000

LOEWDIN ATOMIC CHARGES
----------------------
   0 S :    0.372680
   1 C :   -0.190178
   2 C :   -0.062075
   3 C :   -0.054022
   4 C :   -0.173892
   5 H :    0.027214
   6 C :   -0.034992
   7 H :    0.025914
   8 H :    0.036022
   9 C :   -0.031527
  10 H :    0.015108
  11 H :    0.026286
  12 C :   -0.062138
  13 H :    0.021580
  14 H :    0.027472
  15 H :    0.028455
  16 S :    0.418628
  17 C :   -0.193867
  18 C :   -0.079687
  19 C :   -0.051492
  20 C :   -0.198513
  21 H :    0.035066
  22 C :   -0.039488
  23 H :    0.027158
  24 H :    0.038688
  25 C :   -0.042398
  26 H :    0.028679
  27 H :    0.027605
  28 C :   -0.075920
  29 H :    0.023340
  30 H :    0.026384
  31 H :    0.035627
  32 H :    0.017398
  33 H :    0.030884

  Mayer bond orders larger than 0.100000
B(  0-S ,  1-C ) :   1.1348 B(  0-S ,  4-C ) :   1.1134 B(  1-C ,  2-C ) :   1.5869
B(  1-C , 32-H ) :   0.9673 B(  2-C ,  3-C ) :   1.2414 B(  2-C ,  6-C ) :   1.0443
B(  3-C ,  4-C ) :   1.5718 B(  3-C ,  5-H ) :   0.9915 B(  4-C , 20-C ) :   1.0915
B(  6-C ,  7-H ) :   0.9380 B(  6-C ,  8-H ) :   0.9331 B(  6-C ,  9-C ) :   1.0760
B(  9-C , 10-H ) :   0.9574 B(  9-C , 11-H ) :   0.9575 B(  9-C , 12-C ) :   1.0568
B( 12-C , 13-H ) :   0.9815 B( 12-C , 14-H ) :   0.9769 B( 12-C , 15-H ) :   0.9742
B( 16-S , 17-C ) :   1.1506 B( 16-S , 20-C ) :   1.1399 B( 17-C , 18-C ) :   1.6394
B( 17-C , 33-H ) :   0.9581 B( 18-C , 19-C ) :   1.2282 B( 18-C , 21-H ) :   0.9898
B( 19-C , 20-C ) :   1.6054 B( 19-C , 22-C ) :   1.0153 B( 22-C , 23-H ) :   0.9398
B( 22-C , 24-H ) :   0.9398 B( 22-C , 25-C ) :   1.0609 B( 25-C , 26-H ) :   0.9506
B( 25-C , 27-H ) :   0.9632 B( 25-C , 28-C ) :   1.0713 B( 28-C , 29-H ) :   0.9812
B( 28-C , 30-H ) :   0.9730 B( 28-C , 31-H ) :   0.9696

Dispersion correction           -0.014203197
FINAL SINGLE POINT ENERGY     -1339.871004248421

DIPOLE MOMENT
-------------
                                X             Y             Z
Electronic contribution:     15.84922     -19.25718       8.85308
Nuclear contribution   :    -16.21214      19.86200      -9.22877
                        -----------------------------------------
Total Dipole Moment    :     -0.36291       0.60482      -0.37568
                        -----------------------------------------
Magnitude (a.u.)       :      0.79916
Magnitude (Debye)      :      2.03129

Rotational constants in cm-1:     0.018086     0.008512     0.006645
Rotational constants in MHz :   542.190566   255.177166   199.200798

                             ****ORCA TERMINATED NORMALLY****
TOTAL RUN TIME: 0 days 0 hours 0 minutes 21 seconds 447 msec
