                         Program Version 4.2.1 -  RELEASE  -
|  1> ! wB97X-D3 SP def2-SVP
|  2> %pal
|  3> nprocs 24
|  4> end
|  5>
|  6> * xyz 0 1
|  7> S 	 -122.161 	 28.3721 	 -112.953
|  8> C 	 -120.546 	 27.8486 	 -113.466
|  9> C 	 -119.58 	 28.7597 	 -113.185
| 10> C 	 -120.129 	 29.9008 	 -112.571
| 11> C 	 -121.515 	 29.8764 	 -112.435
| 12> H 	 -119.475 	 30.6916 	 -112.393
| 13> C 	 -118.095 	 28.673 	 -113.505
| 14> H 	 -117.575 	 29.2045 	 -112.679
| 15> H 	 -118.005 	 29.3615 	 -114.36
| 16> C 	 -117.356 	 27.3332 	 -113.725
| 17> H 	 -117.996 	 26.7705 	 -114.387
| 18> H 	 -116.343 	 27.55 	 -114.193
| 19> C 	 -117.213 	 26.5071 	 -112.429
| 20> H 	 -116.718 	 25.5709 	 -112.696
| 21> H 	 -116.657 	 27.116 	 -111.69
| 22> H 	 -118.185 	 26.182 	 -111.953
| 23> S 	 -123.411 	 30.2433 	 -110.505
| 24> C 	 -123.608 	 31.8322 	 -109.853
| 25> C 	 -123.024 	 32.7711 	 -110.635
| 26> C 	 -122.229 	 32.215 	 -111.672
| 27> C 	 -122.235 	 30.8157 	 -111.671
| 28> H 	 -123.139 	 33.8306 	 -110.439
| 29> C 	 -121.383 	 33.1209 	 -112.585
| 30> H 	 -122.04 	 33.9599 	 -112.891
| 31> H 	 -121.24 	 32.5726 	 -113.498
| 32> C 	 -120.078 	 33.5109 	 -111.979
| 33> H 	 -119.385 	 34.0725 	 -112.626
| 34> H 	 -119.468 	 32.7203 	 -111.761
| 35> C 	 -120.133 	 34.2573 	 -110.7
| 36> H 	 -119.253 	 34.8732 	 -110.64
| 37> H 	 -120.008 	 33.6027 	 -109.837
| 38> H 	 -121.057 	 34.8858 	 -110.487
| 39> H 	 -120.279 	 26.9296 	 -113.986
| 40> H 	 -123.976 	 32.0011 	 -108.804
| 41> *
| 42>
| 43>                          ****END OF INPUT****

CARTESIAN COORDINATES (ANGSTROEM)
---------------------------------
  S    -122.161000   28.372100  -112.953000
  C    -120.546000   27.848600  -113.466000
  C    -119.580000   28.759700  -113.185000
  C    -120.129000   29.900800  -112.571000
  C    -121.515000   29.876400  -112.435000
  H    -119.475000   30.691600  -112.393000
  C    -118.095000   28.673000  -113.505000
  H    -117.575000   29.204500  -112.679000
  H    -118.005000   29.361500  -114.360000
  C    -117.356000   27.333200  -113.725000
  H    -117.996000   26.770500  -114.387000
  H    -116.343000   27.550000  -114.193000
  C    -117.213000   26.507100  -112.429000
  H    -116.718000   25.570900  -112.696000
  H    -116.657000   27.116000  -111.690000
  H    -118.185000   26.182000  -111.953000
  S    -123.411000   30.243300  -110.505000
  C    -123.608000   31.832200  -109.853000
  C    -123.024000   32.771100  -110.635000
  C    -122.229000   32.215000  -111.672000
  C    -122.235000   30.815700  -111.671000
  H    -123.139000   33.830600  -110.439000
  C    -121.383000   33.120900  -112.585000
  H    -122.040000   33.959900  -112.891000
  H    -121.240000   32.572600  -113.498000
  C    -120.078000   33.510900  -111.979000
  H    -119.385000   34.072500  -112.626000
  H    -119.468000   32.720300  -111.761000
  C    -120.133000   34.257300  -110.700000
  H    -119.253000   34.873200  -110.640000
  H    -120.008000   33.602700  -109.837000
  H    -121.057000   34.885800  -110.487000
  H    -120.279000   26.929600  -113.986000
  H    -123.976000   32.001100  -108.804000

 Total Charge           Charge          ....    0
 Multiplicity           Mult            ....    1
 Number of Electrons    NEL             ....  134
 Basis Dimension        Dim             ....  322

ORBITAL ENERGIES
----------------

  NO   OCC          E(Eh)            E(eV)
   0   2.0000     -88.969279     -2420.9772
   1   2.0000     -88.961588     -2420.7679
   2   2.0000     -10.326583      -281.0006
   3   2.0000     -10.323038      -280.9041
   4   2.0000     -10.314450      -280.6705
   5   2.0000     -10.309711      -280.5415
   6   2.0000     -10.300881      -280.3012
   7   2.0000     -10.298123      -280.2262
   8   2.0000     -10.297923      -280.2207
   9   2.0000     -10.295012      -280.1415
  10   2.0000     -10.290308      -280.0135
  11   2.0000     -10.289315      -279.9865
  12   2.0000     -10.285754      -279.8896
  13   2.0000     -10.285318      -279.8777
  14   2.0000     -10.275396      -279.6077
  15   2.0000     -10.273632      -279.5597
  16   2.0000      -8.084052      -219.9782
  17   2.0000      -8.077140      -219.7901
  18   2.0000      -6.042605      -164.4276
  19   2.0000      -6.038649      -164.3200
  20   2.0000      -6.035573      -164.2363
  21   2.0000      -6.034679      -164.2120
  22   2.0000      -6.031635      -164.1291
  23   2.0000      -6.027825      -164.0255
  24   2.0000      -1.013590       -27.5812
  25   2.0000      -0.988162       -26.8893
  26   2.0000      -0.919325       -25.0161
  27   2.0000      -0.913219       -24.8500
  28   2.0000      -0.873743       -23.7758
  29   2.0000      -0.855532       -23.2802
  30   2.0000      -0.848056       -23.0768
  31   2.0000      -0.811240       -22.0750
  32   2.0000      -0.786712       -21.4075
  33   2.0000      -0.776087       -21.1184
  34   2.0000      -0.713647       -19.4193
  35   2.0000      -0.702676       -19.1208
  36   2.0000      -0.693995       -18.8846
  37   2.0000      -0.662488       -18.0272
  38   2.0000      -0.632621       -17.2145
  39   2.0000      -0.615687       -16.7537
  40   2.0000      -0.593921       -16.1614
  41   2.0000      -0.577061       -15.7026
  42   2.0000      -0.560179       -15.2432
  43   2.0000      -0.553661       -15.0659
  44   2.0000      -0.553078       -15.0500
  45   2.0000      -0.541702       -14.7405
  46   2.0000      -0.518565       -14.1109
  47   2.0000      -0.507432       -13.8079
  48   2.0000      -0.503197       -13.6927
  49   2.0000      -0.501912       -13.6577
  50   2.0000      -0.486316       -13.2333
  51   2.0000      -0.481705       -13.1079
  52   2.0000      -0.477272       -12.9872
  53   2.0000      -0.468584       -12.7508
  54   2.0000      -0.454791       -12.3755
  55   2.0000      -0.448911       -12.2155
  56   2.0000      -0.443840       -12.0775
  57   2.0000      -0.434217       -11.8156
  58   2.0000      -0.431454       -11.7405
  59   2.0000      -0.427950       -11.6451
  60   2.0000      -0.426809       -11.6141
  61   2.0000      -0.419830       -11.4241
  62   2.0000      -0.401149       -10.9158
  63   2.0000      -0.354692        -9.6517
  64   2.0000      -0.333714        -9.0808
  65   2.0000      -0.330509        -8.9936
  66   2.0000      -0.281387        -7.6569
  67   0.0000       0.027152         0.7388
  68   0.0000       0.070263         1.9119
  69   0.0000       0.106263         2.8916
  70   0.0000       0.130136         3.5412
  71   0.0000       0.132474         3.6048

MULLIKEN ATOMIC CHARGES
-----------------------
   0 S :    0.113081
   1 C :   -0.144835
   2 C :   -0.073329
   3 C :    0.034032
   4 C :   -0.111070
   5 H :   -0.043130
   6 C :    0.029337
   7 H :    0.024622
   8 H :    0.046655
   9 C :   -0.058691
  10 H :    0.022688
  11 H :    0.049604
  12 C :   -0.076867
  13 H :    0.040442
  14 H :    0.037853
  15 H :    0.048639
  16 S :    0.100897
  17 C :   -0.119212
  18 C :   -0.018948
  19 C :   -0.078075
  20 C :   -0.139444
  21 H :    0.017911
  22 C :    0.102943
  23 H :    0.033176
  24 H :    0.017711
  25 C :   -0.001601
  26 H :    0.021810
  27 H :   -0.005908
  28 C :   -0.074095
  29 H :    0.019735
  30 H :    0.030345
  31 H :    0.034638
  32 H :    0.037061
  33 H :    0.082024
Sum of atomic charges:    0.0000000

LOEWDIN ATOMIC CHARGES
----------------------
   0 S :    0.410419
   1 C :   -0.200803
   2 C :   -0.062789
   3 C :   -0.055829
   4 C :   -0.197944
   5 H :    0.015890
   6 C :   -0.038781
   7 H :    0.030449
   8 H :    0.038602
   9 C :   -0.042786
  10 H :    0.018393
  11 H :    0.038305
  12 C :   -0.070560
  13 H :    0.027206
  14 H :    0.026166
  15 H :    0.033719
  16 S :    0.403925
  17 C :   -0.199581
  18 C :   -0.071318
  19 C :   -0.054255
  20 C :   -0.193958
  21 H :    0.031342
  22 C :   -0.027126
  23 H :    0.036424
  24 H :    0.028979
  25 C :   -0.046263
  26 H :    0.028612
  27 H :    0.014626
  28 C :   -0.068564
  29 H :    0.024768
  30 H :    0.025726
  31 H :    0.027146
  32 H :    0.026686
  33 H :    0.043173

  Mayer bond orders larger than 0.100000
B(  0-S ,  1-C ) :   1.1159 B(  0-S ,  4-C ) :   1.1498 B(  1-C ,  2-C ) :   1.6312
B(  1-C , 32-H ) :   0.9592 B(  2-C ,  3-C ) :   1.2896 B(  2-C ,  6-C ) :   0.9932
B(  3-C ,  4-C ) :   1.5105 B(  3-C ,  5-H ) :   1.0007 B(  4-C , 20-C ) :   1.0920
B(  6-C ,  7-H ) :   0.9426 B(  6-C ,  8-H ) :   0.9343 B(  6-C ,  9-C ) :   1.0716
B(  9-C , 10-H ) :   0.9523 B(  9-C , 11-H ) :   0.9509 B(  9-C , 12-C ) :   1.0777
B( 12-C , 13-H ) :   0.9747 B( 12-C , 14-H ) :   0.9754 B( 12-C , 15-H ) :   0.9746
B( 16-S , 17-C ) :   1.1584 B( 16-S , 20-C ) :   1.1336 B( 17-C , 18-C ) :   1.6019
B( 17-C , 33-H ) :   0.9583 B( 18-C , 19-C ) :   1.2521 B( 18-C , 21-H ) :   0.9904
B( 19-C , 20-C ) :   1.5781 B( 19-C , 22-C ) :   1.0391 B( 22-C , 23-H ) :   0.9392
B( 22-C , 24-H ) :   0.9231 B( 22-C , 25-C ) :   1.0797 B( 25-C , 26-H ) :   0.9550
B( 25-C , 27-H ) :   0.9389 B( 25-C , 28-C ) :   1.0798 B( 28-C , 29-H ) :   0.9694
B( 28-C , 30-H ) :   0.9738 B( 28-C , 31-H ) :   0.9752

Dispersion correction           -0.014817303
FINAL SINGLE POINT ENERGY     -1339.868988807807

DIPOLE MOMENT
-------------
                                X             Y             Z
Electronic contribution:    -25.17219      -7.07576       2.07646
Nuclear contribution   :     25.92598       7.38647      -2.12717
                        -----------------------------------------
Total Dipole Moment    :      0.75379       0.31070      -0.05070
                        -----------------------------------------
Magnitude (a.u.)       :      0.81688
Magnitude (Debye)      :      2.07636

Rotational constants in cm-1:     0.021112     0.008412     0.006697
Rotational constants in MHz :   632.920925   252.189238   200.776825

                             ****ORCA TERMINATED NORMALLY****
TOTAL RUN TIME: 0 days 0 hours 0 minutes 22 seconds 234 msec
