                         Program Version 4.2.1 -  RELEASE  -
|  1> ! wB97X-D3 SP def2-SVP
|  2> %pal
|  3> nprocs 24
|  4> end
|  5>
|  6> * xyz 0 1
|  7> S 	 29.8132 	 -30.028 	 -130.094
|  8> C 	 29.1225 	 -28.6439 	 -130.83
|  9> C 	 28.6254 	 -27.72 	 -129.874
| 10> C 	 28.5261 	 -28.3499 	 -128.577
| 11> C 	 29.2673 	 -29.5591 	 -128.531
| 12> H 	 28.143 	 -27.9626 	 -127.634
| 13> C 	 27.876 	 -26.4422 	 -130.217
| 14> H 	 26.8162 	 -26.6357 	 -130.427
| 15> H 	 28.2843 	 -26.0811 	 -131.113
| 16> C 	 27.8372 	 -25.4354 	 -129.094
| 17> H 	 27.3436 	 -25.8212 	 -128.236
| 18> H 	 28.8266 	 -25.1706 	 -128.837
| 19> C 	 26.9653 	 -24.244 	 -129.657
| 20> H 	 25.842 	 -24.5343 	 -129.823
| 21> H 	 26.9168 	 -23.3981 	 -129.034
| 22> H 	 27.3281 	 -23.975 	 -130.654
| 23> S 	 28.6724 	 -32.0225 	 -127.547
| 24> C 	 28.8762 	 -32.349 	 -125.793
| 25> C 	 29.689 	 -31.3565 	 -125.249
| 26> C 	 29.97 	 -30.2515 	 -126.143
| 27> C 	 29.332 	 -30.3831 	 -127.366
| 28> H 	 30.0814 	 -31.5072 	 -124.289
| 29> C 	 30.7092 	 -28.994 	 -125.666
| 30> H 	 30.6545 	 -28.2961 	 -126.503
| 31> H 	 31.7762 	 -29.1909 	 -125.518
| 32> C 	 30.0139 	 -28.3059 	 -124.495
| 33> H 	 30.0082 	 -28.9099 	 -123.585
| 34> H 	 29.0145 	 -27.9968 	 -124.742
| 35> C 	 30.6873 	 -26.9433 	 -124.266
| 36> H 	 30.2246 	 -26.4627 	 -123.406
| 37> H 	 30.7725 	 -26.2048 	 -124.99
| 38> H 	 31.6649 	 -27.1881 	 -123.91
| 39> H 	 29.3038 	 -28.3641 	 -131.815
| 40> H 	 28.6423 	 -33.2443 	 -125.251
| 41> *
| 42>
| 43>                          ****END OF INPUT****

CARTESIAN COORDINATES (ANGSTROEM)
---------------------------------
  S     29.813200  -30.028000  -130.094000
  C     29.122500  -28.643900  -130.830000
  C     28.625400  -27.720000  -129.874000
  C     28.526100  -28.349900  -128.577000
  C     29.267300  -29.559100  -128.531000
  H     28.143000  -27.962600  -127.634000
  C     27.876000  -26.442200  -130.217000
  H     26.816200  -26.635700  -130.427000
  H     28.284300  -26.081100  -131.113000
  C     27.837200  -25.435400  -129.094000
  H     27.343600  -25.821200  -128.236000
  H     28.826600  -25.170600  -128.837000
  C     26.965300  -24.244000  -129.657000
  H     25.842000  -24.534300  -129.823000
  H     26.916800  -23.398100  -129.034000
  H     27.328100  -23.975000  -130.654000
  S     28.672400  -32.022500  -127.547000
  C     28.876200  -32.349000  -125.793000
  C     29.689000  -31.356500  -125.249000
  C     29.970000  -30.251500  -126.143000
  C     29.332000  -30.383100  -127.366000
  H     30.081400  -31.507200  -124.289000
  C     30.709200  -28.994000  -125.666000
  H     30.654500  -28.296100  -126.503000
  H     31.776200  -29.190900  -125.518000
  C     30.013900  -28.305900  -124.495000
  H     30.008200  -28.909900  -123.585000
  H     29.014500  -27.996800  -124.742000
  C     30.687300  -26.943300  -124.266000
  H     30.224600  -26.462700  -123.406000
  H     30.772500  -26.204800  -124.990000
  H     31.664900  -27.188100  -123.910000
  H     29.303800  -28.364100  -131.815000
  H     28.642300  -33.244300  -125.251000

 Total Charge           Charge          ....    0
 Multiplicity           Mult            ....    1
 Number of Electrons    NEL             ....  134
 Basis Dimension        Dim             ....  322

ORBITAL ENERGIES
----------------

  NO   OCC          E(Eh)            E(eV)
   0   2.0000     -88.970780     -2421.0180
   1   2.0000     -88.960871     -2420.7484
   2   2.0000     -10.326188      -280.9899
   3   2.0000     -10.324767      -280.9512
   4   2.0000     -10.319690      -280.8131
   5   2.0000     -10.309698      -280.5411
   6   2.0000     -10.305123      -280.4167
   7   2.0000     -10.304937      -280.4116
   8   2.0000     -10.298227      -280.2290
   9   2.0000     -10.292494      -280.0730
  10   2.0000     -10.290823      -280.0275
  11   2.0000     -10.286160      -279.9006
  12   2.0000     -10.286072      -279.8982
  13   2.0000     -10.286040      -279.8974
  14   2.0000     -10.283994      -279.8417
  15   2.0000     -10.267753      -279.3998
  16   2.0000      -8.086192      -220.0365
  17   2.0000      -8.074697      -219.7237
  18   2.0000      -6.044559      -164.4808
  19   2.0000      -6.040413      -164.3680
  20   2.0000      -6.037274      -164.2826
  21   2.0000      -6.033428      -164.1779
  22   2.0000      -6.029465      -164.0701
  23   2.0000      -6.025122      -163.9519
  24   2.0000      -1.005861       -27.3709
  25   2.0000      -0.977645       -26.6031
  26   2.0000      -0.917805       -24.9747
  27   2.0000      -0.909788       -24.7566
  28   2.0000      -0.871148       -23.7051
  29   2.0000      -0.849205       -23.1080
  30   2.0000      -0.843288       -22.9470
  31   2.0000      -0.811629       -22.0855
  32   2.0000      -0.778060       -21.1721
  33   2.0000      -0.769051       -20.9270
  34   2.0000      -0.716575       -19.4990
  35   2.0000      -0.702895       -19.1267
  36   2.0000      -0.696360       -18.9489
  37   2.0000      -0.659950       -17.9582
  38   2.0000      -0.646617       -17.5953
  39   2.0000      -0.615838       -16.7578
  40   2.0000      -0.591183       -16.0869
  41   2.0000      -0.578224       -15.7343
  42   2.0000      -0.573441       -15.6041
  43   2.0000      -0.564813       -15.3694
  44   2.0000      -0.528339       -14.3768
  45   2.0000      -0.527374       -14.3506
  46   2.0000      -0.516542       -14.0558
  47   2.0000      -0.511667       -13.9232
  48   2.0000      -0.504097       -13.7172
  49   2.0000      -0.494036       -13.4434
  50   2.0000      -0.489618       -13.3232
  51   2.0000      -0.483070       -13.1450
  52   2.0000      -0.472982       -12.8705
  53   2.0000      -0.463998       -12.6260
  54   2.0000      -0.457454       -12.4480
  55   2.0000      -0.446425       -12.1478
  56   2.0000      -0.444301       -12.0900
  57   2.0000      -0.436433       -11.8760
  58   2.0000      -0.436202       -11.8697
  59   2.0000      -0.433078       -11.7847
  60   2.0000      -0.426983       -11.6188
  61   2.0000      -0.415709       -11.3120
  62   2.0000      -0.409070       -11.1314
  63   2.0000      -0.341159        -9.2834
  64   2.0000      -0.329146        -8.9565
  65   2.0000      -0.324574        -8.8321
  66   2.0000      -0.292851        -7.9689
  67   0.0000       0.031662         0.8616
  68   0.0000       0.059465         1.6181
  69   0.0000       0.110246         2.9999
  70   0.0000       0.112780         3.0689
  71   0.0000       0.128749         3.5035

MULLIKEN ATOMIC CHARGES
-----------------------
   0 S :    0.140179
   1 C :   -0.096107
   2 C :   -0.076915
   3 C :    0.012062
   4 C :   -0.167444
   5 H :    0.023613
   6 C :    0.059356
   7 H :    0.039052
   8 H :    0.003609
   9 C :   -0.054850
  10 H :    0.032523
  11 H :    0.024363
  12 C :   -0.063273
  13 H :    0.040230
  14 H :    0.026467
  15 H :    0.027686
  16 S :    0.087208
  17 C :   -0.082278
  18 C :   -0.025405
  19 C :   -0.009752
  20 C :   -0.176148
  21 H :    0.002256
  22 C :    0.065716
  23 H :    0.017607
  24 H :    0.037840
  25 C :   -0.068292
  26 H :    0.037153
  27 H :    0.026044
  28 C :   -0.022759
  29 H :    0.020614
  30 H :    0.025784
  31 H :    0.008554
  32 H :    0.031325
  33 H :    0.053982
Sum of atomic charges:   -0.0000000

LOEWDIN ATOMIC CHARGES
----------------------
   0 S :    0.446354
   1 C :   -0.205960
   2 C :   -0.057330
   3 C :   -0.057546
   4 C :   -0.214455
   5 H :    0.030933
   6 C :   -0.029841
   7 H :    0.037901
   8 H :    0.019752
   9 C :   -0.028578
  10 H :    0.020756
  11 H :    0.018641
  12 C :   -0.064013
  13 H :    0.036306
  14 H :    0.014221
  15 H :    0.023367
  16 S :    0.370567
  17 C :   -0.168201
  18 C :   -0.063794
  19 C :   -0.050662
  20 C :   -0.191226
  21 H :    0.021142
  22 C :   -0.031752
  23 H :    0.030214
  24 H :    0.033425
  25 C :   -0.031734
  26 H :    0.025308
  27 H :    0.022460
  28 C :   -0.060269
  29 H :    0.026242
  30 H :    0.015915
  31 H :    0.019807
  32 H :    0.013579
  33 H :    0.028471

  Mayer bond orders larger than 0.100000
B(  0-S ,  1-C ) :   1.1633 B(  0-S ,  4-C ) :   1.1741 B(  1-C ,  2-C ) :   1.5677
B(  1-C ,  4-C ) :   0.1007 B(  1-C , 32-H ) :   0.9718 B(  2-C ,  3-C ) :   1.2509
B(  2-C ,  6-C ) :   1.0326 B(  3-C ,  4-C ) :   1.5398 B(  3-C ,  5-H ) :   0.9831
B(  4-C , 20-C ) :   1.0586 B(  6-C ,  7-H ) :   0.9423 B(  6-C ,  8-H ) :   0.9382
B(  6-C ,  9-C ) :   1.0673 B(  9-C , 10-H ) :   0.9484 B(  9-C , 11-H ) :   0.9613
B(  9-C , 12-C ) :   1.0767 B( 12-C , 13-H ) :   0.9739 B( 12-C , 14-H ) :   0.9755
B( 12-C , 15-H ) :   0.9758 B( 16-S , 17-C ) :   1.1313 B( 16-S , 20-C ) :   1.1189
B( 17-C , 18-C ) :   1.6372 B( 17-C , 20-C ) :   0.1004 B( 17-C , 33-H ) :   0.9697
B( 18-C , 19-C ) :   1.2033 B( 18-C , 21-H ) :   0.9944 B( 19-C , 20-C ) :   1.6152
B( 19-C , 22-C ) :   1.0448 B( 22-C , 23-H ) :   0.9351 B( 22-C , 24-H ) :   0.9320
B( 22-C , 25-C ) :   1.0683 B( 25-C , 26-H ) :   0.9540 B( 25-C , 27-H ) :   0.9562
B( 25-C , 28-C ) :   1.0823 B( 28-C , 29-H ) :   0.9720 B( 28-C , 30-H ) :   0.9790
B( 28-C , 31-H ) :   0.9711

Dispersion correction           -0.013796456
FINAL SINGLE POINT ENERGY     -1339.859126193321

DIPOLE MOMENT
-------------
                                X             Y             Z
Electronic contribution:      2.64491     -29.61327     -10.59507
Nuclear contribution   :     -2.57933      30.20874      10.93355
                        -----------------------------------------
Total Dipole Moment    :      0.06558       0.59547       0.33847
                        -----------------------------------------
Magnitude (a.u.)       :      0.68808
Magnitude (Debye)      :      1.74896

Rotational constants in cm-1:     0.016405     0.009238     0.006625
Rotational constants in MHz :   491.810962   276.941689   198.610005

                             ****ORCA TERMINATED NORMALLY****
TOTAL RUN TIME: 0 days 0 hours 0 minutes 20 seconds 289 msec
