                         Program Version 4.2.1 -  RELEASE  -
|  1> ! wB97X-D3 SP def2-SVP
|  2> %pal
|  3> nprocs 24
|  4> end
|  5>
|  6> * xyz 0 1
|  7> S 	 -2.22837 	 -26.9154 	 -116.011
|  8> C 	 -2.524 	 -25.2948 	 -116.62
|  9> C 	 -2.17703 	 -24.3172 	 -115.684
| 10> C 	 -1.70032 	 -24.8517 	 -114.448
| 11> C 	 -1.59714 	 -26.2403 	 -114.486
| 12> H 	 -1.4607 	 -24.3223 	 -113.559
| 13> C 	 -2.3956 	 -22.7963 	 -115.889
| 14> H 	 -3.37268 	 -22.7472 	 -116.414
| 15> H 	 -1.66665 	 -22.4398 	 -116.623
| 16> C 	 -2.41886 	 -21.8377 	 -114.705
| 17> H 	 -1.61146 	 -22.0249 	 -114.094
| 18> H 	 -2.36627 	 -20.8329 	 -115.066
| 19> C 	 -3.7108 	 -21.8712 	 -113.961
| 20> H 	 -3.62204 	 -21.1555 	 -113.127
| 21> H 	 -4.54726 	 -21.613 	 -114.666
| 22> H 	 -3.99099 	 -22.8771 	 -113.653
| 23> S 	 0.475362 	 -27.6411 	 -113.429
| 24> C 	 0.178112 	 -29.0211 	 -112.443
| 25> C 	 -1.14136 	 -29.0587 	 -112.052
| 26> C 	 -1.98609 	 -28.0082 	 -112.571
| 27> C 	 -1.21576 	 -27.1424 	 -113.417
| 28> H 	 -1.54991 	 -29.83 	 -111.394
| 29> C 	 -3.45538 	 -27.9725 	 -112.557
| 30> H 	 -3.79592 	 -28.341 	 -113.508
| 31> H 	 -3.86983 	 -26.963 	 -112.445
| 32> C 	 -4.17858 	 -28.8115 	 -111.531
| 33> H 	 -3.92914 	 -28.6203 	 -110.461
| 34> H 	 -3.98594 	 -29.8991 	 -111.472
| 35> C 	 -5.66378 	 -28.5594 	 -111.684
| 36> H 	 -5.86598 	 -28.488 	 -112.794
| 37> H 	 -5.90352 	 -27.6049 	 -111.23
| 38> H 	 -6.27699 	 -29.3987 	 -111.287
| 39> H 	 -2.86161 	 -25.11 	 -117.65
| 40> H 	 0.958865 	 -29.7366 	 -112.164
| 41> *
| 42>
| 43>                          ****END OF INPUT****

CARTESIAN COORDINATES (ANGSTROEM)
---------------------------------
  S     -2.228370  -26.915400  -116.011000
  C     -2.524000  -25.294800  -116.620000
  C     -2.177030  -24.317200  -115.684000
  C     -1.700320  -24.851700  -114.448000
  C     -1.597140  -26.240300  -114.486000
  H     -1.460700  -24.322300  -113.559000
  C     -2.395600  -22.796300  -115.889000
  H     -3.372680  -22.747200  -116.414000
  H     -1.666650  -22.439800  -116.623000
  C     -2.418860  -21.837700  -114.705000
  H     -1.611460  -22.024900  -114.094000
  H     -2.366270  -20.832900  -115.066000
  C     -3.710800  -21.871200  -113.961000
  H     -3.622040  -21.155500  -113.127000
  H     -4.547260  -21.613000  -114.666000
  H     -3.990990  -22.877100  -113.653000
  S      0.475362  -27.641100  -113.429000
  C      0.178112  -29.021100  -112.443000
  C     -1.141360  -29.058700  -112.052000
  C     -1.986090  -28.008200  -112.571000
  C     -1.215760  -27.142400  -113.417000
  H     -1.549910  -29.830000  -111.394000
  C     -3.455380  -27.972500  -112.557000
  H     -3.795920  -28.341000  -113.508000
  H     -3.869830  -26.963000  -112.445000
  C     -4.178580  -28.811500  -111.531000
  H     -3.929140  -28.620300  -110.461000
  H     -3.985940  -29.899100  -111.472000
  C     -5.663780  -28.559400  -111.684000
  H     -5.865980  -28.488000  -112.794000
  H     -5.903520  -27.604900  -111.230000
  H     -6.276990  -29.398700  -111.287000
  H     -2.861610  -25.110000  -117.650000
  H      0.958865  -29.736600  -112.164000

 Total Charge           Charge          ....    0
 Multiplicity           Mult            ....    1
 Number of Electrons    NEL             ....  134
 Basis Dimension        Dim             ....  322

ORBITAL ENERGIES
----------------

  NO   OCC          E(Eh)            E(eV)
   0   2.0000     -88.967373     -2420.9253
   1   2.0000     -88.962474     -2420.7920
   2   2.0000     -10.329786      -281.0878
   3   2.0000     -10.323000      -280.9031
   4   2.0000     -10.317325      -280.7487
   5   2.0000     -10.316873      -280.7364
   6   2.0000     -10.307423      -280.4792
   7   2.0000     -10.305584      -280.4292
   8   2.0000     -10.295111      -280.1442
   9   2.0000     -10.295062      -280.1429
  10   2.0000     -10.292652      -280.0773
  11   2.0000     -10.289127      -279.9814
  12   2.0000     -10.285025      -279.8697
  13   2.0000     -10.280412      -279.7442
  14   2.0000     -10.278011      -279.6789
  15   2.0000     -10.276580      -279.6400
  16   2.0000      -8.081185      -219.9002
  17   2.0000      -8.077525      -219.8006
  18   2.0000      -6.039645      -164.3471
  19   2.0000      -6.035902      -164.2453
  20   2.0000      -6.035810      -164.2427
  21   2.0000      -6.032068      -164.1409
  22   2.0000      -6.031785      -164.1332
  23   2.0000      -6.028605      -164.0467
  24   2.0000      -1.000910       -27.2361
  25   2.0000      -0.978477       -26.6257
  26   2.0000      -0.919308       -25.0156
  27   2.0000      -0.915637       -24.9157
  28   2.0000      -0.868605       -23.6359
  29   2.0000      -0.851250       -23.1637
  30   2.0000      -0.847065       -23.0498
  31   2.0000      -0.812561       -22.1109
  32   2.0000      -0.779969       -21.2240
  33   2.0000      -0.764564       -20.8049
  34   2.0000      -0.706782       -19.2325
  35   2.0000      -0.702527       -19.1167
  36   2.0000      -0.689073       -18.7506
  37   2.0000      -0.648655       -17.6508
  38   2.0000      -0.641424       -17.4540
  39   2.0000      -0.623314       -16.9612
  40   2.0000      -0.605741       -16.4831
  41   2.0000      -0.571831       -15.5603
  42   2.0000      -0.564247       -15.3539
  43   2.0000      -0.553962       -15.0741
  44   2.0000      -0.543547       -14.7907
  45   2.0000      -0.530986       -14.4489
  46   2.0000      -0.520777       -14.1711
  47   2.0000      -0.508298       -13.8315
  48   2.0000      -0.501904       -13.6575
  49   2.0000      -0.499602       -13.5949
  50   2.0000      -0.489088       -13.3088
  51   2.0000      -0.473146       -12.8749
  52   2.0000      -0.469974       -12.7886
  53   2.0000      -0.464681       -12.6446
  54   2.0000      -0.452945       -12.3253
  55   2.0000      -0.450214       -12.2509
  56   2.0000      -0.445182       -12.1140
  57   2.0000      -0.436973       -11.8906
  58   2.0000      -0.435700       -11.8560
  59   2.0000      -0.427856       -11.6425
  60   2.0000      -0.417333       -11.3562
  61   2.0000      -0.415631       -11.3099
  62   2.0000      -0.410280       -11.1643
  63   2.0000      -0.335271        -9.1232
  64   2.0000      -0.331090        -9.0094
  65   2.0000      -0.311860        -8.4861
  66   2.0000      -0.305704        -8.3186
  67   0.0000       0.041236         1.1221
  68   0.0000       0.045152         1.2287
  69   0.0000       0.114043         3.1033
  70   0.0000       0.124438         3.3861
  71   0.0000       0.131399         3.5755

MULLIKEN ATOMIC CHARGES
-----------------------
   0 S :    0.119043
   1 C :   -0.148872
   2 C :   -0.066697
   3 C :    0.047813
   4 C :   -0.163843
   5 H :    0.007292
   6 C :    0.024503
   7 H :    0.023542
   8 H :    0.041695
   9 C :   -0.013175
  10 H :    0.014749
  11 H :    0.021484
  12 C :   -0.063475
  13 H :    0.043209
  14 H :    0.027950
  15 H :    0.028339
  16 S :    0.113266
  17 C :   -0.093810
  18 C :   -0.048569
  19 C :   -0.010918
  20 C :   -0.193626
  21 H :    0.024327
  22 C :    0.083624
  23 H :    0.032018
  24 H :    0.036384
  25 C :   -0.120593
  26 H :    0.023331
  27 H :    0.025532
  28 C :   -0.050591
  29 H :    0.030515
  30 H :    0.038099
  31 H :    0.040568
  32 H :    0.058574
  33 H :    0.068313
Sum of atomic charges:    0.0000000

LOEWDIN ATOMIC CHARGES
----------------------
   0 S :    0.397362
   1 C :   -0.202719
   2 C :   -0.061445
   3 C :   -0.055614
   4 C :   -0.190461
   5 H :    0.029958
   6 C :   -0.035096
   7 H :    0.032486
   8 H :    0.034129
   9 C :   -0.039144
  10 H :    0.012342
  11 H :    0.029428
  12 C :   -0.063700
  13 H :    0.029232
  14 H :    0.029150
  15 H :    0.020912
  16 S :    0.422050
  17 C :   -0.196028
  18 C :   -0.079190
  19 C :   -0.045128
  20 C :   -0.214472
  21 H :    0.031321
  22 C :   -0.036226
  23 H :    0.035411
  24 H :    0.041046
  25 C :   -0.057248
  26 H :    0.024138
  27 H :    0.021873
  28 C :   -0.064727
  29 H :    0.028682
  30 H :    0.023993
  31 H :    0.030065
  32 H :    0.031970
  33 H :    0.035655

  Mayer bond orders larger than 0.100000
B(  0-S ,  1-C ) :   1.1429 B(  0-S ,  4-C ) :   1.1468 B(  1-C ,  2-C ) :   1.6122
B(  1-C ,  4-C ) :   0.1027 B(  1-C , 32-H ) :   0.9691 B(  2-C ,  3-C ) :   1.2411
B(  2-C ,  6-C ) :   0.9911 B(  3-C ,  4-C ) :   1.5825 B(  3-C ,  5-H ) :   0.9945
B(  4-C , 20-C ) :   1.0222 B(  6-C ,  7-H ) :   0.9472 B(  6-C ,  8-H ) :   0.9364
B(  6-C ,  9-C ) :   1.0938 B(  9-C , 10-H ) :   0.9451 B(  9-C , 11-H ) :   0.9456
B(  9-C , 12-C ) :   1.0869 B( 12-C , 13-H ) :   0.9735 B( 12-C , 14-H ) :   0.9702
B( 12-C , 15-H ) :   0.9776 B( 16-S , 17-C ) :   1.1763 B( 16-S , 20-C ) :   1.1650
B( 17-C , 18-C ) :   1.5681 B( 17-C , 20-C ) :   0.1014 B( 17-C , 33-H ) :   0.9663
B( 18-C , 19-C ) :   1.2726 B( 18-C , 21-H ) :   0.9853 B( 19-C , 20-C ) :   1.5408
B( 19-C , 22-C ) :   1.0584 B( 22-C , 23-H ) :   0.9095 B( 22-C , 24-H ) :   0.9324
B( 22-C , 25-C ) :   1.0668 B( 25-C , 26-H ) :   0.9555 B( 25-C , 27-H ) :   0.9475
B( 25-C , 28-C ) :   1.0804 B( 28-C , 29-H ) :   0.9722 B( 28-C , 30-H ) :   0.9757
B( 28-C , 31-H ) :   0.9722

Dispersion correction           -0.013960656
FINAL SINGLE POINT ENERGY     -1339.878449404172

DIPOLE MOMENT
-------------
                                X             Y             Z
Electronic contribution:     20.35246     -12.04690      -8.86849
Nuclear contribution   :    -20.71901      12.24029       9.00067
                        -----------------------------------------
Total Dipole Moment    :     -0.36655       0.19340       0.13218
                        -----------------------------------------
Magnitude (a.u.)       :      0.43501
Magnitude (Debye)      :      1.10570

Rotational constants in cm-1:     0.017271     0.008474     0.007060
Rotational constants in MHz :   517.777405   254.055929   211.659028

                             ****ORCA TERMINATED NORMALLY****
TOTAL RUN TIME: 0 days 0 hours 0 minutes 20 seconds 231 msec
