                         Program Version 4.2.1 -  RELEASE  -
|  1> ! wB97X-D3 SP def2-SVP
|  2> %pal
|  3> nprocs 24
|  4> end
|  5>
|  6> * xyz 0 1
|  7> S 	 -28.868 	 12.0283 	 4.1681
|  8> C 	 -30.5251 	 11.5556 	 3.93749
|  9> C 	 -31.424 	 12.4066 	 4.56487
| 10> C 	 -30.6932 	 13.3655 	 5.31574
| 11> C 	 -29.3374 	 13.2934 	 5.26978
| 12> H 	 -31.2834 	 14.1553 	 5.81294
| 13> C 	 -32.8805 	 12.4624 	 4.20223
| 14> H 	 -33.2046 	 11.8891 	 3.3239
| 15> H 	 -33.0914 	 13.4269 	 3.86376
| 16> C 	 -33.8442 	 12.2609 	 5.34138
| 17> H 	 -33.4425 	 12.7502 	 6.24746
| 18> H 	 -34.8162 	 12.7027 	 5.16996
| 19> C 	 -34.2137 	 10.8014 	 5.55058
| 20> H 	 -34.6308 	 10.2839 	 4.69235
| 21> H 	 -33.3326 	 10.2279 	 5.83361
| 22> H 	 -35.0107 	 10.7344 	 6.35212
| 23> S 	 -26.7707 	 14.2937 	 5.36458
| 24> C 	 -26.2006 	 15.0406 	 6.79081
| 25> C 	 -27.1746 	 15.0166 	 7.77418
| 26> C 	 -28.3886 	 14.3583 	 7.34519
| 27> C 	 -28.374 	 14.1011 	 6.00714
| 28> H 	 -27.0331 	 15.4785 	 8.70477
| 29> C 	 -29.4671 	 13.9955 	 8.28892
| 30> H 	 -30.3874 	 13.985 	 7.74782
| 31> H 	 -29.5841 	 14.692 	 9.11806
| 32> C 	 -29.3197 	 12.5534 	 8.89078
| 33> H 	 -28.3461 	 12.2008 	 9.31967
| 34> H 	 -29.4594 	 11.8343 	 8.01113
| 35> C 	 -30.4934 	 12.2779 	 9.93691
| 36> H 	 -30.5421 	 11.277 	 10.3441
| 37> H 	 -31.4424 	 12.4326 	 9.36352
| 38> H 	 -30.4093 	 13.0897 	 10.7048
| 39> H 	 -30.7386 	 10.7732 	 3.18863
| 40> H 	 -25.2253 	 15.5378 	 6.90912
| 41> *
| 42>
| 43>                          ****END OF INPUT****

CARTESIAN COORDINATES (ANGSTROEM)
---------------------------------
  S    -28.868000   12.028300    4.168100
  C    -30.525100   11.555600    3.937490
  C    -31.424000   12.406600    4.564870
  C    -30.693200   13.365500    5.315740
  C    -29.337400   13.293400    5.269780
  H    -31.283400   14.155300    5.812940
  C    -32.880500   12.462400    4.202230
  H    -33.204600   11.889100    3.323900
  H    -33.091400   13.426900    3.863760
  C    -33.844200   12.260900    5.341380
  H    -33.442500   12.750200    6.247460
  H    -34.816200   12.702700    5.169960
  C    -34.213700   10.801400    5.550580
  H    -34.630800   10.283900    4.692350
  H    -33.332600   10.227900    5.833610
  H    -35.010700   10.734400    6.352120
  S    -26.770700   14.293700    5.364580
  C    -26.200600   15.040600    6.790810
  C    -27.174600   15.016600    7.774180
  C    -28.388600   14.358300    7.345190
  C    -28.374000   14.101100    6.007140
  H    -27.033100   15.478500    8.704770
  C    -29.467100   13.995500    8.288920
  H    -30.387400   13.985000    7.747820
  H    -29.584100   14.692000    9.118060
  C    -29.319700   12.553400    8.890780
  H    -28.346100   12.200800    9.319670
  H    -29.459400   11.834300    8.011130
  C    -30.493400   12.277900    9.936910
  H    -30.542100   11.277000   10.344100
  H    -31.442400   12.432600    9.363520
  H    -30.409300   13.089700   10.704800
  H    -30.738600   10.773200    3.188630
  H    -25.225300   15.537800    6.909120

 Total Charge           Charge          ....    0
 Multiplicity           Mult            ....    1
 Number of Electrons    NEL             ....  134
 Basis Dimension        Dim             ....  322

ORBITAL ENERGIES
----------------

  NO   OCC          E(Eh)            E(eV)
   0   2.0000     -88.965418     -2420.8721
   1   2.0000     -88.965320     -2420.8694
   2   2.0000     -10.328640      -281.0566
   3   2.0000     -10.322576      -280.8916
   4   2.0000     -10.319054      -280.7957
   5   2.0000     -10.314288      -280.6661
   6   2.0000     -10.301578      -280.3202
   7   2.0000     -10.300809      -280.2993
   8   2.0000     -10.295823      -280.1636
   9   2.0000     -10.293415      -280.0981
  10   2.0000     -10.291321      -280.0411
  11   2.0000     -10.289731      -279.9978
  12   2.0000     -10.287399      -279.9344
  13   2.0000     -10.285285      -279.8768
  14   2.0000     -10.283997      -279.8418
  15   2.0000     -10.276815      -279.6463
  16   2.0000      -8.081215      -219.9010
  17   2.0000      -8.080715      -219.8874
  18   2.0000      -6.039732      -164.3495
  19   2.0000      -6.039132      -164.3331
  20   2.0000      -6.035595      -164.2369
  21   2.0000      -6.035228      -164.2269
  22   2.0000      -6.031880      -164.1358
  23   2.0000      -6.031451      -164.1241
  24   2.0000      -1.015747       -27.6399
  25   2.0000      -0.991691       -26.9853
  26   2.0000      -0.919671       -25.0255
  27   2.0000      -0.906829       -24.6761
  28   2.0000      -0.871459       -23.7136
  29   2.0000      -0.851579       -23.1726
  30   2.0000      -0.843572       -22.9548
  31   2.0000      -0.816225       -22.2106
  32   2.0000      -0.784628       -21.3508
  33   2.0000      -0.772277       -21.0147
  34   2.0000      -0.705964       -19.2103
  35   2.0000      -0.692954       -18.8562
  36   2.0000      -0.690450       -18.7881
  37   2.0000      -0.666200       -18.1282
  38   2.0000      -0.642015       -17.4701
  39   2.0000      -0.631569       -17.1859
  40   2.0000      -0.600625       -16.3438
  41   2.0000      -0.575764       -15.6673
  42   2.0000      -0.561250       -15.2724
  43   2.0000      -0.550417       -14.9776
  44   2.0000      -0.539372       -14.6771
  45   2.0000      -0.524689       -14.2775
  46   2.0000      -0.520587       -14.1659
  47   2.0000      -0.511939       -13.9306
  48   2.0000      -0.503856       -13.7106
  49   2.0000      -0.495794       -13.4912
  50   2.0000      -0.490508       -13.3474
  51   2.0000      -0.482748       -13.1362
  52   2.0000      -0.473368       -12.8810
  53   2.0000      -0.468679       -12.7534
  54   2.0000      -0.454203       -12.3595
  55   2.0000      -0.451550       -12.2873
  56   2.0000      -0.443647       -12.0723
  57   2.0000      -0.435621       -11.8538
  58   2.0000      -0.433820       -11.8049
  59   2.0000      -0.428168       -11.6510
  60   2.0000      -0.420888       -11.4529
  61   2.0000      -0.410764       -11.1775
  62   2.0000      -0.407897       -11.0994
  63   2.0000      -0.358001        -9.7417
  64   2.0000      -0.333458        -9.0739
  65   2.0000      -0.326978        -8.8975
  66   2.0000      -0.289041        -7.8652
  67   0.0000       0.028157         0.7662
  68   0.0000       0.076045         2.0693
  69   0.0000       0.107972         2.9381
  70   0.0000       0.115616         3.1461
  71   0.0000       0.126986         3.4555

MULLIKEN ATOMIC CHARGES
-----------------------
   0 S :    0.107081
   1 C :   -0.154222
   2 C :   -0.052810
   3 C :   -0.019429
   4 C :   -0.118969
   5 H :    0.028265
   6 C :    0.097597
   7 H :    0.017313
   8 H :    0.013246
   9 C :   -0.082080
  10 H :    0.028876
  11 H :    0.020118
  12 C :   -0.063542
  13 H :    0.025638
  14 H :    0.031095
  15 H :    0.036817
  16 S :    0.095409
  17 C :   -0.091885
  18 C :   -0.005102
  19 C :   -0.065079
  20 C :   -0.111168
  21 H :   -0.000605
  22 C :    0.109324
  23 H :   -0.006928
  24 H :    0.018576
  25 C :   -0.132535
  26 H :    0.042887
  27 H :    0.045193
  28 C :   -0.057272
  29 H :    0.045882
  30 H :    0.030479
  31 H :    0.037259
  32 H :    0.060053
  33 H :    0.070518
Sum of atomic charges:   -0.0000000

LOEWDIN ATOMIC CHARGES
----------------------
   0 S :    0.408072
   1 C :   -0.198333
   2 C :   -0.063936
   3 C :   -0.074615
   4 C :   -0.190908
   5 H :    0.033114
   6 C :   -0.029827
   7 H :    0.034460
   8 H :    0.029774
   9 C :   -0.044073
  10 H :    0.025666
  11 H :    0.022271
  12 C :   -0.069265
  13 H :    0.021551
  14 H :    0.022537
  15 H :    0.030091
  16 S :    0.419734
  17 C :   -0.194866
  18 C :   -0.063431
  19 C :   -0.048806
  20 C :   -0.202846
  21 H :    0.022012
  22 C :   -0.029681
  23 H :    0.025880
  24 H :    0.027708
  25 C :   -0.044065
  26 H :    0.024927
  27 H :    0.030846
  28 C :   -0.070751
  29 H :    0.025036
  30 H :    0.027309
  31 H :    0.026254
  32 H :    0.029663
  33 H :    0.038496

  Mayer bond orders larger than 0.100000
B(  0-S ,  1-C ) :   1.1523 B(  0-S ,  4-C ) :   1.1413 B(  1-C ,  2-C ) :   1.5850
B(  1-C , 32-H ) :   0.9670 B(  2-C ,  3-C ) :   1.2701 B(  2-C ,  6-C ) :   1.0226
B(  3-C ,  4-C ) :   1.5786 B(  3-C ,  5-H ) :   0.9775 B(  4-C , 20-C ) :   1.0484
B(  6-C ,  7-H ) :   0.9456 B(  6-C ,  8-H ) :   0.9313 B(  6-C ,  9-C ) :   1.0687
B(  9-C , 10-H ) :   0.9561 B(  9-C , 11-H ) :   0.9545 B(  9-C , 12-C ) :   1.0797
B( 12-C , 13-H ) :   0.9737 B( 12-C , 14-H ) :   0.9764 B( 12-C , 15-H ) :   0.9755
B( 16-S , 17-C ) :   1.1689 B( 16-S , 20-C ) :   1.1248 B( 17-C , 18-C ) :   1.5950
B( 17-C , 33-H ) :   0.9649 B( 18-C , 19-C ) :   1.2366 B( 18-C , 21-H ) :   1.0021
B( 19-C , 20-C ) :   1.5906 B( 19-C , 22-C ) :   1.0673 B( 22-C , 23-H ) :   0.9193
B( 22-C , 24-H ) :   0.9358 B( 22-C , 25-C ) :   1.0338 B( 25-C , 26-H ) :   0.9648
B( 25-C , 27-H ) :   0.9561 B( 25-C , 28-C ) :   1.0633 B( 28-C , 29-H ) :   0.9763
B( 28-C , 30-H ) :   0.9762 B( 28-C , 31-H ) :   0.9768

Dispersion correction           -0.014597607
FINAL SINGLE POINT ENERGY     -1339.881720333011

DIPOLE MOMENT
-------------
                                X             Y             Z
Electronic contribution:     26.30698       7.70406     -15.45710
Nuclear contribution   :    -26.76949      -7.58798      15.72011
                        -----------------------------------------
Total Dipole Moment    :     -0.46251       0.11609       0.26301
                        -----------------------------------------
Magnitude (a.u.)       :      0.54458
Magnitude (Debye)      :      1.38420

Rotational constants in cm-1:     0.019661     0.009280     0.006999
Rotational constants in MHz :   589.412477   278.207147   209.834128

                             ****ORCA TERMINATED NORMALLY****
TOTAL RUN TIME: 0 days 0 hours 0 minutes 21 seconds 164 msec
