                         Program Version 4.2.1 -  RELEASE  -
|  1> ! wB97X-D3 SP def2-SVP
|  2> %pal
|  3> nprocs 24
|  4> end
|  5>
|  6> * xyz 0 1
|  7> S 	 -34.9434 	 4.82789 	 -5.11046
|  8> C 	 -35.5284 	 3.36957 	 -5.86511
|  9> C 	 -36.4738 	 2.67606 	 -5.04657
| 10> C 	 -36.3651 	 3.25072 	 -3.70754
| 11> C 	 -35.575 	 4.35947 	 -3.57967
| 12> H 	 -36.9392 	 2.8857 	 -2.91272
| 13> C 	 -37.151 	 1.33942 	 -5.43104
| 14> H 	 -36.7144 	 1.13091 	 -6.43289
| 15> H 	 -38.1982 	 1.59078 	 -5.56096
| 16> C 	 -36.9906 	 0.140919 	 -4.48897
| 17> H 	 -35.9061 	 -0.0291157 	 -4.32821
| 18> H 	 -37.4477 	 0.532434 	 -3.5685
| 19> C 	 -37.7257 	 -1.12987 	 -4.86899
| 20> H 	 -37.2939 	 -1.81698 	 -5.64816
| 21> H 	 -37.7171 	 -1.64273 	 -3.92952
| 22> H 	 -38.7751 	 -0.951519 	 -5.06928
| 23> S 	 -36.5983 	 6.68419 	 -2.42678
| 24> C 	 -36.0566 	 7.05628 	 -0.746103
| 25> C 	 -35.1693 	 6.07761 	 -0.281905
| 26> C 	 -34.8803 	 5.04977 	 -1.26922
| 27> C 	 -35.4864 	 5.29024 	 -2.52393
| 28> H 	 -34.7307 	 6.24199 	 0.672185
| 29> C 	 -34.0126 	 3.90452 	 -0.90691
| 30> H 	 -33.7774 	 3.39318 	 -1.83403
| 31> H 	 -34.6414 	 3.2008 	 -0.288472
| 32> C 	 -32.7621 	 4.26826 	 -0.100535
| 33> H 	 -32.1745 	 3.41277 	 0.140082
| 34> H 	 -33.0919 	 4.68743 	 0.842798
| 35> C 	 -31.852 	 5.37197 	 -0.744542
| 36> H 	 -31.0166 	 5.03495 	 -1.30112
| 37> H 	 -31.3171 	 5.76293 	 0.133796
| 38> H 	 -32.4723 	 6.19051 	 -1.15922
| 39> H 	 -35.5272 	 3.24547 	 -6.95661
| 40> H 	 -36.243 	 7.9391 	 -0.185666
| 41> *
| 42>
| 43>                          ****END OF INPUT****

CARTESIAN COORDINATES (ANGSTROEM)
---------------------------------
  S    -34.943400    4.827890   -5.110460
  C    -35.528400    3.369570   -5.865110
  C    -36.473800    2.676060   -5.046570
  C    -36.365100    3.250720   -3.707540
  C    -35.575000    4.359470   -3.579670
  H    -36.939200    2.885700   -2.912720
  C    -37.151000    1.339420   -5.431040
  H    -36.714400    1.130910   -6.432890
  H    -38.198200    1.590780   -5.560960
  C    -36.990600    0.140919   -4.488970
  H    -35.906100   -0.029116   -4.328210
  H    -37.447700    0.532434   -3.568500
  C    -37.725700   -1.129870   -4.868990
  H    -37.293900   -1.816980   -5.648160
  H    -37.717100   -1.642730   -3.929520
  H    -38.775100   -0.951519   -5.069280
  S    -36.598300    6.684190   -2.426780
  C    -36.056600    7.056280   -0.746103
  C    -35.169300    6.077610   -0.281905
  C    -34.880300    5.049770   -1.269220
  C    -35.486400    5.290240   -2.523930
  H    -34.730700    6.241990    0.672185
  C    -34.012600    3.904520   -0.906910
  H    -33.777400    3.393180   -1.834030
  H    -34.641400    3.200800   -0.288472
  C    -32.762100    4.268260   -0.100535
  H    -32.174500    3.412770    0.140082
  H    -33.091900    4.687430    0.842798
  C    -31.852000    5.371970   -0.744542
  H    -31.016600    5.034950   -1.301120
  H    -31.317100    5.762930    0.133796
  H    -32.472300    6.190510   -1.159220
  H    -35.527200    3.245470   -6.956610
  H    -36.243000    7.939100   -0.185666

 Total Charge           Charge          ....    0
 Multiplicity           Mult            ....    1
 Number of Electrons    NEL             ....  134
 Basis Dimension        Dim             ....  322

ORBITAL ENERGIES
----------------

  NO   OCC          E(Eh)            E(eV)
   0   2.0000     -88.966142     -2420.8918
   1   2.0000     -88.963049     -2420.8076
   2   2.0000     -10.324444      -280.9424
   3   2.0000     -10.322216      -280.8818
   4   2.0000     -10.319642      -280.8117
   5   2.0000     -10.317237      -280.7463
   6   2.0000     -10.309309      -280.5306
   7   2.0000     -10.305961      -280.4395
   8   2.0000     -10.296349      -280.1779
   9   2.0000     -10.295487      -280.1545
  10   2.0000     -10.293069      -280.0887
  11   2.0000     -10.291979      -280.0590
  12   2.0000     -10.288347      -279.9602
  13   2.0000     -10.284198      -279.8472
  14   2.0000     -10.281847      -279.7833
  15   2.0000     -10.272544      -279.5301
  16   2.0000      -8.079228      -219.8470
  17   2.0000      -8.078620      -219.8304
  18   2.0000      -6.037952      -164.3010
  19   2.0000      -6.036987      -164.2748
  20   2.0000      -6.033991      -164.1932
  21   2.0000      -6.032929      -164.1644
  22   2.0000      -6.029824      -164.0799
  23   2.0000      -6.029556      -164.0726
  24   2.0000      -1.004559       -27.3354
  25   2.0000      -0.973185       -26.4817
  26   2.0000      -0.912187       -24.8219
  27   2.0000      -0.905934       -24.6517
  28   2.0000      -0.872055       -23.7298
  29   2.0000      -0.848155       -23.0795
  30   2.0000      -0.839248       -22.8371
  31   2.0000      -0.814652       -22.1678
  32   2.0000      -0.785816       -21.3831
  33   2.0000      -0.769166       -20.9301
  34   2.0000      -0.711413       -19.3585
  35   2.0000      -0.697342       -18.9756
  36   2.0000      -0.689354       -18.7583
  37   2.0000      -0.652196       -17.7471
  38   2.0000      -0.642955       -17.4957
  39   2.0000      -0.619996       -16.8710
  40   2.0000      -0.592600       -16.1255
  41   2.0000      -0.573693       -15.6110
  42   2.0000      -0.560894       -15.2627
  43   2.0000      -0.550428       -14.9779
  44   2.0000      -0.541188       -14.7265
  45   2.0000      -0.526720       -14.3328
  46   2.0000      -0.524058       -14.2603
  47   2.0000      -0.506016       -13.7694
  48   2.0000      -0.504947       -13.7403
  49   2.0000      -0.498067       -13.5531
  50   2.0000      -0.490895       -13.3579
  51   2.0000      -0.472545       -12.8586
  52   2.0000      -0.466429       -12.6922
  53   2.0000      -0.462000       -12.5717
  54   2.0000      -0.456703       -12.4275
  55   2.0000      -0.449607       -12.2344
  56   2.0000      -0.443680       -12.0731
  57   2.0000      -0.436562       -11.8795
  58   2.0000      -0.429029       -11.6745
  59   2.0000      -0.422842       -11.5061
  60   2.0000      -0.418344       -11.3837
  61   2.0000      -0.414315       -11.2741
  62   2.0000      -0.411217       -11.1898
  63   2.0000      -0.338608        -9.2140
  64   2.0000      -0.324940        -8.8421
  65   2.0000      -0.319013        -8.6808
  66   2.0000      -0.304188        -8.2774
  67   0.0000       0.035036         0.9534
  68   0.0000       0.052729         1.4348
  69   0.0000       0.108684         2.9574
  70   0.0000       0.119369         3.2482
  71   0.0000       0.125513         3.4154

MULLIKEN ATOMIC CHARGES
-----------------------
   0 S :    0.113616
   1 C :   -0.115773
   2 C :   -0.127574
   3 C :    0.055452
   4 C :   -0.188989
   5 H :   -0.010557
   6 C :    0.064826
   7 H :    0.021277
   8 H :    0.033366
   9 C :   -0.099025
  10 H :    0.045270
  11 H :    0.029171
  12 C :   -0.034120
  13 H :    0.052331
  14 H :    0.028974
  15 H :    0.025936
  16 S :    0.103587
  17 C :   -0.087843
  18 C :   -0.030171
  19 C :   -0.076827
  20 C :   -0.124211
  21 H :    0.014865
  22 C :    0.099882
  23 H :    0.028826
  24 H :    0.045257
  25 C :   -0.081185
  26 H :    0.023295
  27 H :    0.019912
  28 C :   -0.049403
  29 H :    0.030915
  30 H :    0.016041
  31 H :    0.060250
  32 H :    0.063015
  33 H :    0.049614
Sum of atomic charges:    0.0000000

LOEWDIN ATOMIC CHARGES
----------------------
   0 S :    0.428258
   1 C :   -0.207031
   2 C :   -0.057196
   3 C :   -0.049621
   4 C :   -0.215928
   5 H :    0.019621
   6 C :   -0.037118
   7 H :    0.030794
   8 H :    0.030568
   9 C :   -0.043115
  10 H :    0.032054
  11 H :    0.026415
  12 C :   -0.068488
  13 H :    0.033564
  14 H :    0.030000
  15 H :    0.025260
  16 S :    0.371826
  17 C :   -0.161016
  18 C :   -0.068480
  19 C :   -0.044826
  20 C :   -0.208664
  21 H :    0.026485
  22 C :   -0.038054
  23 H :    0.029552
  24 H :    0.042384
  25 C :   -0.035711
  26 H :    0.022590
  27 H :    0.018325
  28 C :   -0.069435
  29 H :    0.020553
  30 H :    0.029065
  31 H :    0.033894
  32 H :    0.028385
  33 H :    0.025091

  Mayer bond orders larger than 0.100000
B(  0-S ,  1-C ) :   1.1694 B(  0-S ,  4-C ) :   1.1479 B(  1-C ,  2-C ) :   1.5952
B(  1-C , 32-H ) :   0.9561 B(  2-C ,  3-C ) :   1.2455 B(  2-C ,  6-C ) :   1.0200
B(  3-C ,  4-C ) :   1.5814 B(  3-C ,  5-H ) :   1.0035 B(  4-C , 20-C ) :   1.0376
B(  6-C ,  7-H ) :   0.9457 B(  6-C ,  8-H ) :   0.9292 B(  6-C ,  9-C ) :   1.0700
B(  9-C , 10-H ) :   0.9565 B(  9-C , 11-H ) :   0.9496 B(  9-C , 12-C ) :   1.0864
B( 12-C , 13-H ) :   0.9747 B( 12-C , 14-H ) :   0.9719 B( 12-C , 15-H ) :   0.9699
B( 16-S , 17-C ) :   1.1418 B( 16-S , 20-C ) :   1.1160 B( 17-C , 18-C ) :   1.6389
B( 17-C , 33-H ) :   0.9664 B( 18-C , 19-C ) :   1.2024 B( 18-C , 21-H ) :   0.9906
B( 19-C , 20-C ) :   1.5936 B( 19-C , 22-C ) :   1.0559 B( 22-C , 23-H ) :   0.9264
B( 22-C , 24-H ) :   0.9270 B( 22-C , 25-C ) :   1.0696 B( 25-C , 26-H ) :   0.9531
B( 25-C , 27-H ) :   0.9570 B( 25-C , 28-C ) :   1.0763 B( 28-C , 29-H ) :   0.9778
B( 28-C , 30-H ) :   0.9729 B( 28-C , 31-H ) :   0.9697

Dispersion correction           -0.014103004
FINAL SINGLE POINT ENERGY     -1339.862415250077

DIPOLE MOMENT
-------------
                                X             Y             Z
Electronic contribution:     -4.83851      21.53295      -6.75704
Nuclear contribution   :      4.76522     -22.09860       7.14451
                        -----------------------------------------
Total Dipole Moment    :     -0.07328      -0.56565       0.38747
                        -----------------------------------------
Magnitude (a.u.)       :      0.68954
Magnitude (Debye)      :      1.75268

Rotational constants in cm-1:     0.019917     0.007447     0.006758
Rotational constants in MHz :   597.110527   223.269784   202.585586

                             ****ORCA TERMINATED NORMALLY****
TOTAL RUN TIME: 0 days 0 hours 0 minutes 20 seconds 166 msec
