                         Program Version 4.2.1 -  RELEASE  -
|  1> ! wB97X-D3 SP def2-SVP
|  2> %pal
|  3> nprocs 24
|  4> end
|  5>
|  6> * xyz 0 1
|  7> S 	 -35.4531 	 8.56415 	 4.60325
|  8> C 	 -35.713 	 8.84279 	 6.31276
|  9> C 	 -35.401 	 7.69561 	 7.04825
| 10> C 	 -35.2216 	 6.54646 	 6.23679
| 11> C 	 -35.2164 	 6.86835 	 4.88384
| 12> H 	 -35.1059 	 5.54461 	 6.53873
| 13> C 	 -35.2302 	 7.62828 	 8.55852
| 14> H 	 -35.2481 	 8.68373 	 8.8928
| 15> H 	 -34.2221 	 7.23471 	 8.79443
| 16> C 	 -36.2547 	 6.9076 	 9.34098
| 17> H 	 -36.1516 	 5.85665 	 9.09004
| 18> H 	 -36.0485 	 6.95217 	 10.4501
| 19> C 	 -37.674 	 7.37837 	 9.06263
| 20> H 	 -38.3748 	 6.62728 	 9.43874
| 21> H 	 -37.9794 	 8.31497 	 9.49283
| 22> H 	 -37.8485 	 7.5727 	 8.06615
| 23> S 	 -35.9321 	 4.39175 	 3.90978
| 24> C 	 -35.3573 	 3.91093 	 2.28283
| 25> C 	 -34.4236 	 4.77685 	 1.83082
| 26> C 	 -34.043 	 5.78373 	 2.77965
| 27> C 	 -35.015 	 5.89371 	 3.7854
| 28> H 	 -33.9587 	 4.51732 	 0.863157
| 29> C 	 -32.7918 	 6.67192 	 2.64422
| 30> H 	 -32.2601 	 6.72829 	 3.61629
| 31> H 	 -33.0986 	 7.64204 	 2.3475
| 32> C 	 -31.8273 	 6.4894 	 1.47852
| 33> H 	 -31.0537 	 7.22984 	 1.5471
| 34> H 	 -32.3214 	 6.6203 	 0.498812
| 35> C 	 -31.0655 	 5.19081 	 1.58462
| 36> H 	 -31.6335 	 4.17145 	 1.4054
| 37> H 	 -30.4799 	 5.10126 	 2.47255
| 38> H 	 -30.2693 	 5.17239 	 0.817261
| 39> H 	 -35.7589 	 9.83942 	 6.68225
| 40> H 	 -35.5127 	 2.929 	 1.88737
| 41> *
| 42>
| 43>                          ****END OF INPUT****

CARTESIAN COORDINATES (ANGSTROEM)
---------------------------------
  S    -35.453100    8.564150    4.603250
  C    -35.713000    8.842790    6.312760
  C    -35.401000    7.695610    7.048250
  C    -35.221600    6.546460    6.236790
  C    -35.216400    6.868350    4.883840
  H    -35.105900    5.544610    6.538730
  C    -35.230200    7.628280    8.558520
  H    -35.248100    8.683730    8.892800
  H    -34.222100    7.234710    8.794430
  C    -36.254700    6.907600    9.340980
  H    -36.151600    5.856650    9.090040
  H    -36.048500    6.952170   10.450100
  C    -37.674000    7.378370    9.062630
  H    -38.374800    6.627280    9.438740
  H    -37.979400    8.314970    9.492830
  H    -37.848500    7.572700    8.066150
  S    -35.932100    4.391750    3.909780
  C    -35.357300    3.910930    2.282830
  C    -34.423600    4.776850    1.830820
  C    -34.043000    5.783730    2.779650
  C    -35.015000    5.893710    3.785400
  H    -33.958700    4.517320    0.863157
  C    -32.791800    6.671920    2.644220
  H    -32.260100    6.728290    3.616290
  H    -33.098600    7.642040    2.347500
  C    -31.827300    6.489400    1.478520
  H    -31.053700    7.229840    1.547100
  H    -32.321400    6.620300    0.498812
  C    -31.065500    5.190810    1.584620
  H    -31.633500    4.171450    1.405400
  H    -30.479900    5.101260    2.472550
  H    -30.269300    5.172390    0.817261
  H    -35.758900    9.839420    6.682250
  H    -35.512700    2.929000    1.887370

 Total Charge           Charge          ....    0
 Multiplicity           Mult            ....    1
 Number of Electrons    NEL             ....  134
 Basis Dimension        Dim             ....  322

ORBITAL ENERGIES
----------------

  NO   OCC          E(Eh)            E(eV)
   0   2.0000     -88.968197     -2420.9477
   1   2.0000     -88.961157     -2420.7561
   2   2.0000     -10.330570      -281.1091
   3   2.0000     -10.328754      -281.0597
   4   2.0000     -10.313980      -280.6577
   5   2.0000     -10.313861      -280.6544
   6   2.0000     -10.309727      -280.5419
   7   2.0000     -10.303888      -280.3830
   8   2.0000     -10.295026      -280.1419
   9   2.0000     -10.290864      -280.0287
  10   2.0000     -10.290700      -280.0242
  11   2.0000     -10.289951      -280.0038
  12   2.0000     -10.289708      -279.9972
  13   2.0000     -10.284173      -279.8466
  14   2.0000     -10.280234      -279.7394
  15   2.0000     -10.262878      -279.2671
  16   2.0000      -8.083004      -219.9497
  17   2.0000      -8.075257      -219.7389
  18   2.0000      -6.041401      -164.3949
  19   2.0000      -6.037534      -164.2897
  20   2.0000      -6.033852      -164.1895
  21   2.0000      -6.033827      -164.1888
  22   2.0000      -6.030119      -164.0879
  23   2.0000      -6.025731      -163.9685
  24   2.0000      -1.004517       -27.3343
  25   2.0000      -0.982772       -26.7426
  26   2.0000      -0.917434       -24.9646
  27   2.0000      -0.912676       -24.8352
  28   2.0000      -0.867918       -23.6173
  29   2.0000      -0.850597       -23.1459
  30   2.0000      -0.841497       -22.8983
  31   2.0000      -0.814548       -22.1650
  32   2.0000      -0.787169       -21.4200
  33   2.0000      -0.775979       -21.1155
  34   2.0000      -0.707575       -19.2541
  35   2.0000      -0.697368       -18.9763
  36   2.0000      -0.689690       -18.7674
  37   2.0000      -0.657633       -17.8951
  38   2.0000      -0.641137       -17.4462
  39   2.0000      -0.615888       -16.7592
  40   2.0000      -0.598971       -16.2988
  41   2.0000      -0.565438       -15.3863
  42   2.0000      -0.558283       -15.1916
  43   2.0000      -0.555376       -15.1125
  44   2.0000      -0.544965       -14.8292
  45   2.0000      -0.536309       -14.5937
  46   2.0000      -0.522667       -14.2225
  47   2.0000      -0.516389       -14.0516
  48   2.0000      -0.504063       -13.7163
  49   2.0000      -0.494396       -13.4532
  50   2.0000      -0.487401       -13.2628
  51   2.0000      -0.482105       -13.1187
  52   2.0000      -0.468698       -12.7539
  53   2.0000      -0.463497       -12.6124
  54   2.0000      -0.456319       -12.4171
  55   2.0000      -0.449347       -12.2274
  56   2.0000      -0.443664       -12.0727
  57   2.0000      -0.438352       -11.9282
  58   2.0000      -0.431331       -11.7371
  59   2.0000      -0.423294       -11.5184
  60   2.0000      -0.419422       -11.4131
  61   2.0000      -0.409593       -11.1456
  62   2.0000      -0.407527       -11.0894
  63   2.0000      -0.343196        -9.3388
  64   2.0000      -0.333003        -9.0615
  65   2.0000      -0.325382        -8.8541
  66   2.0000      -0.290273        -7.8987
  67   0.0000       0.025399         0.6912
  68   0.0000       0.069768         1.8985
  69   0.0000       0.097132         2.6431
  70   0.0000       0.121345         3.3020
  71   0.0000       0.131606         3.5812

MULLIKEN ATOMIC CHARGES
-----------------------
   0 S :    0.117290
   1 C :   -0.112987
   2 C :   -0.101666
   3 C :    0.034231
   4 C :   -0.150545
   5 H :    0.000698
   6 C :    0.070375
   7 H :    0.010220
   8 H :    0.039749
   9 C :   -0.067263
  10 H :    0.021552
  11 H :    0.038892
  12 C :   -0.024042
  13 H :    0.032538
  14 H :    0.014011
  15 H :    0.020849
  16 S :    0.078134
  17 C :   -0.082781
  18 C :   -0.039354
  19 C :   -0.034967
  20 C :   -0.152271
  21 H :    0.034749
  22 C :    0.077174
  23 H :    0.048141
  24 H :    0.024457
  25 C :   -0.065865
  26 H :    0.026348
  27 H :    0.037726
  28 C :   -0.084958
  29 H :    0.047287
  30 H :    0.023322
  31 H :    0.020494
  32 H :    0.044982
  33 H :    0.053478
Sum of atomic charges:    0.0000000

LOEWDIN ATOMIC CHARGES
----------------------
   0 S :    0.420145
   1 C :   -0.199238
   2 C :   -0.055414
   3 C :   -0.061701
   4 C :   -0.194223
   5 H :    0.022544
   6 C :   -0.036098
   7 H :    0.028251
   8 H :    0.036378
   9 C :   -0.045715
  10 H :    0.020630
  11 H :    0.032812
  12 C :   -0.061923
  13 H :    0.030564
  14 H :    0.023063
  15 H :    0.015935
  16 S :    0.374962
  17 C :   -0.170179
  18 C :   -0.073619
  19 C :   -0.051537
  20 C :   -0.189835
  21 H :    0.037874
  22 C :   -0.036009
  23 H :    0.039678
  24 H :    0.031273
  25 C :   -0.040931
  26 H :    0.030638
  27 H :    0.029095
  28 C :   -0.080976
  29 H :    0.033377
  30 H :    0.020174
  31 H :    0.023052
  32 H :    0.020484
  33 H :    0.026469

  Mayer bond orders larger than 0.100000
B(  0-S ,  1-C ) :   1.1421 B(  0-S ,  4-C ) :   1.1729 B(  1-C ,  2-C ) :   1.5913
B(  1-C , 32-H ) :   0.9690 B(  2-C ,  3-C ) :   1.2395 B(  2-C ,  6-C ) :   1.0230
B(  3-C ,  4-C ) :   1.5547 B(  3-C ,  5-H ) :   1.0012 B(  4-C , 20-C ) :   1.0318
B(  6-C ,  7-H ) :   0.9362 B(  6-C ,  8-H ) :   0.9405 B(  6-C ,  9-C ) :   1.0836
B(  9-C , 10-H ) :   0.9532 B(  9-C , 11-H ) :   0.9520 B(  9-C , 12-C ) :   1.0732
B( 12-C , 13-H ) :   0.9727 B( 12-C , 14-H ) :   0.9712 B( 12-C , 15-H ) :   0.9739
B( 16-S , 17-C ) :   1.1283 B( 16-S , 20-C ) :   1.1332 B( 17-C , 18-C ) :   1.6493
B( 17-C , 33-H ) :   0.9656 B( 18-C , 19-C ) :   1.2211 B( 18-C , 21-H ) :   0.9743
B( 19-C , 20-C ) :   1.5959 B( 19-C , 22-C ) :   1.0209 B( 22-C , 23-H ) :   0.9367
B( 22-C , 24-H ) :   0.9293 B( 22-C , 25-C ) :   1.0920 B( 25-C , 26-H ) :   0.9460
B( 25-C , 27-H ) :   0.9488 B( 25-C , 28-C ) :   1.0815 B( 28-C , 29-H ) :   0.9717
B( 28-C , 30-H ) :   0.9721 B( 28-C , 31-H ) :   0.9729

Dispersion correction           -0.014387062
FINAL SINGLE POINT ENERGY     -1339.861248993383

DIPOLE MOMENT
-------------
                                X             Y             Z
Electronic contribution:     -9.60776      -0.17784      -7.43751
Nuclear contribution   :     10.21000       0.20349       7.52417
                        -----------------------------------------
Total Dipole Moment    :      0.60224       0.02565       0.08666
                        -----------------------------------------
Magnitude (a.u.)       :      0.60898
Magnitude (Debye)      :      1.54791

Rotational constants in cm-1:     0.024539     0.007283     0.006449
Rotational constants in MHz :   735.672188   218.336027   193.349704

                             ****ORCA TERMINATED NORMALLY****
TOTAL RUN TIME: 0 days 0 hours 0 minutes 21 seconds 337 msec
