                         Program Version 4.2.1 -  RELEASE  -
|  1> ! wB97X-D3 SP def2-SVP
|  2> %pal
|  3> nprocs 24
|  4> end
|  5>
|  6> * xyz 0 1
|  7> S 	 -117.885 	 48.6067 	 -120.017
|  8> C 	 -116.619 	 47.4107 	 -120.634
|  9> C 	 -115.449 	 47.5973 	 -119.937
| 10> C 	 -115.596 	 48.5486 	 -118.874
| 11> C 	 -116.809 	 49.1798 	 -118.8
| 12> H 	 -114.838 	 48.8415 	 -118.139
| 13> C 	 -114.155 	 46.7735 	 -120.115
| 14> H 	 -114.473 	 45.9525 	 -120.76
| 15> H 	 -113.726 	 46.5553 	 -119.177
| 16> C 	 -113.164 	 47.5851 	 -120.944
| 17> H 	 -113.056 	 48.6563 	 -120.58
| 18> H 	 -112.178 	 47.1984 	 -120.823
| 19> C 	 -113.489 	 47.6669 	 -122.489
| 20> H 	 -114.462 	 48.1415 	 -122.764
| 21> H 	 -112.692 	 48.2901 	 -122.887
| 22> H 	 -113.381 	 46.71 	 -122.928
| 23> S 	 -116.251 	 51.8168 	 -118.087
| 24> C 	 -117.285 	 52.4619 	 -116.879
| 25> C 	 -118.329 	 51.6739 	 -116.435
| 26> C 	 -118.204 	 50.3742 	 -117.03
| 27> C 	 -117.138 	 50.2877 	 -117.928
| 28> H 	 -119.005 	 51.9388 	 -115.662
| 29> C 	 -119.046 	 49.1565 	 -116.703
| 30> H 	 -118.722 	 48.2515 	 -117.254
| 31> H 	 -120.023 	 49.4306 	 -117.047
| 32> C 	 -119.175 	 48.6986 	 -115.206
| 33> H 	 -119.85 	 47.812 	 -115.23
| 34> H 	 -119.721 	 49.4176 	 -114.667
| 35> C 	 -117.875 	 48.4784 	 -114.504
| 36> H 	 -117.393 	 49.4038 	 -114.274
| 37> H 	 -117.124 	 48.0105 	 -115.147
| 38> H 	 -117.941 	 47.7861 	 -113.616
| 39> H 	 -116.797 	 46.6754 	 -121.372
| 40> H 	 -117.319 	 53.5289 	 -116.708
| 41> *
| 42>
| 43>                          ****END OF INPUT****

CARTESIAN COORDINATES (ANGSTROEM)
---------------------------------
  S    -117.885000   48.606700  -120.017000
  C    -116.619000   47.410700  -120.634000
  C    -115.449000   47.597300  -119.937000
  C    -115.596000   48.548600  -118.874000
  C    -116.809000   49.179800  -118.800000
  H    -114.838000   48.841500  -118.139000
  C    -114.155000   46.773500  -120.115000
  H    -114.473000   45.952500  -120.760000
  H    -113.726000   46.555300  -119.177000
  C    -113.164000   47.585100  -120.944000
  H    -113.056000   48.656300  -120.580000
  H    -112.178000   47.198400  -120.823000
  C    -113.489000   47.666900  -122.489000
  H    -114.462000   48.141500  -122.764000
  H    -112.692000   48.290100  -122.887000
  H    -113.381000   46.710000  -122.928000
  S    -116.251000   51.816800  -118.087000
  C    -117.285000   52.461900  -116.879000
  C    -118.329000   51.673900  -116.435000
  C    -118.204000   50.374200  -117.030000
  C    -117.138000   50.287700  -117.928000
  H    -119.005000   51.938800  -115.662000
  C    -119.046000   49.156500  -116.703000
  H    -118.722000   48.251500  -117.254000
  H    -120.023000   49.430600  -117.047000
  C    -119.175000   48.698600  -115.206000
  H    -119.850000   47.812000  -115.230000
  H    -119.721000   49.417600  -114.667000
  C    -117.875000   48.478400  -114.504000
  H    -117.393000   49.403800  -114.274000
  H    -117.124000   48.010500  -115.147000
  H    -117.941000   47.786100  -113.616000
  H    -116.797000   46.675400  -121.372000
  H    -117.319000   53.528900  -116.708000

 Total Charge           Charge          ....    0
 Multiplicity           Mult            ....    1
 Number of Electrons    NEL             ....  134
 Basis Dimension        Dim             ....  322

ORBITAL ENERGIES
----------------

  NO   OCC          E(Eh)            E(eV)
   0   2.0000     -88.970723     -2421.0165
   1   2.0000     -88.962229     -2420.7853
   2   2.0000     -10.322663      -280.8939
   3   2.0000     -10.322378      -280.8862
   4   2.0000     -10.316231      -280.7189
   5   2.0000     -10.316115      -280.7158
   6   2.0000     -10.304702      -280.4052
   7   2.0000     -10.302800      -280.3534
   8   2.0000     -10.295352      -280.1508
   9   2.0000     -10.292088      -280.0619
  10   2.0000     -10.288786      -279.9721
  11   2.0000     -10.288571      -279.9662
  12   2.0000     -10.288305      -279.9590
  13   2.0000     -10.282517      -279.8015
  14   2.0000     -10.276998      -279.6513
  15   2.0000     -10.271587      -279.5041
  16   2.0000      -8.085553      -220.0191
  17   2.0000      -8.075960      -219.7580
  18   2.0000      -6.043820      -164.4607
  19   2.0000      -6.040224      -164.3629
  20   2.0000      -6.036387      -164.2584
  21   2.0000      -6.034629      -164.2106
  22   2.0000      -6.030634      -164.1019
  23   2.0000      -6.026564      -163.9912
  24   2.0000      -1.005089       -27.3499
  25   2.0000      -0.980109       -26.6701
  26   2.0000      -0.911252       -24.7964
  27   2.0000      -0.906409       -24.6647
  28   2.0000      -0.865456       -23.5502
  29   2.0000      -0.853326       -23.2202
  30   2.0000      -0.836454       -22.7611
  31   2.0000      -0.811634       -22.0857
  32   2.0000      -0.785902       -21.3855
  33   2.0000      -0.774636       -21.0789
  34   2.0000      -0.706799       -19.2330
  35   2.0000      -0.697123       -18.9697
  36   2.0000      -0.690382       -18.7862
  37   2.0000      -0.663017       -18.0416
  38   2.0000      -0.636223       -17.3125
  39   2.0000      -0.613458       -16.6931
  40   2.0000      -0.595958       -16.2168
  41   2.0000      -0.568991       -15.4830
  42   2.0000      -0.555724       -15.1220
  43   2.0000      -0.550876       -14.9901
  44   2.0000      -0.544627       -14.8201
  45   2.0000      -0.535139       -14.5619
  46   2.0000      -0.516396       -14.0519
  47   2.0000      -0.514894       -14.0110
  48   2.0000      -0.499099       -13.5812
  49   2.0000      -0.493493       -13.4286
  50   2.0000      -0.484726       -13.1901
  51   2.0000      -0.470827       -12.8118
  52   2.0000      -0.466602       -12.6969
  53   2.0000      -0.465351       -12.6629
  54   2.0000      -0.459349       -12.4995
  55   2.0000      -0.456665       -12.4265
  56   2.0000      -0.441216       -12.0061
  57   2.0000      -0.436591       -11.8802
  58   2.0000      -0.432632       -11.7725
  59   2.0000      -0.425406       -11.5759
  60   2.0000      -0.419649       -11.4192
  61   2.0000      -0.412120       -11.2144
  62   2.0000      -0.407810       -11.0971
  63   2.0000      -0.338900        -9.2219
  64   2.0000      -0.333476        -9.0743
  65   2.0000      -0.327462        -8.9107
  66   2.0000      -0.297191        -8.0870
  67   0.0000       0.034715         0.9446
  68   0.0000       0.065219         1.7747
  69   0.0000       0.108557         2.9540
  70   0.0000       0.111017         3.0209
  71   0.0000       0.125381         3.4118

MULLIKEN ATOMIC CHARGES
-----------------------
   0 S :    0.096134
   1 C :   -0.133770
   2 C :   -0.083006
   3 C :    0.008037
   4 C :   -0.163619
   5 H :    0.012376
   6 C :    0.145337
   7 H :    0.016717
   8 H :    0.022908
   9 C :   -0.109875
  10 H :    0.035100
  11 H :    0.021260
  12 C :   -0.060338
  13 H :    0.053535
  14 H :    0.032347
  15 H :    0.024825
  16 S :    0.133105
  17 C :   -0.083337
  18 C :   -0.022304
  19 C :   -0.043591
  20 C :   -0.166598
  21 H :    0.013881
  22 C :    0.050309
  23 H :    0.046625
  24 H :    0.026719
  25 C :   -0.059417
  26 H :    0.032620
  27 H :    0.010391
  28 C :   -0.039948
  29 H :    0.029107
  30 H :    0.019519
  31 H :    0.042719
  32 H :    0.035282
  33 H :    0.056946
Sum of atomic charges:   -0.0000000

LOEWDIN ATOMIC CHARGES
----------------------
   0 S :    0.378179
   1 C :   -0.169834
   2 C :   -0.052408
   3 C :   -0.076115
   4 C :   -0.200173
   5 H :    0.031487
   6 C :   -0.017623
   7 H :    0.032055
   8 H :    0.026867
   9 C :   -0.041407
  10 H :    0.028448
  11 H :    0.017058
  12 C :   -0.065838
  13 H :    0.031674
  14 H :    0.028632
  15 H :    0.015866
  16 S :    0.418165
  17 C :   -0.186970
  18 C :   -0.066994
  19 C :   -0.046171
  20 C :   -0.203619
  21 H :    0.029569
  22 C :   -0.032976
  23 H :    0.031659
  24 H :    0.030406
  25 C :   -0.039954
  26 H :    0.030602
  27 H :    0.012201
  28 C :   -0.071521
  29 H :    0.024416
  30 H :    0.025341
  31 H :    0.034158
  32 H :    0.019442
  33 H :    0.025380

  Mayer bond orders larger than 0.100000
B(  0-S ,  1-C ) :   1.1059 B(  0-S ,  4-C ) :   1.1369 B(  1-C ,  2-C ) :   1.6358
B(  1-C , 32-H ) :   0.9756 B(  2-C ,  3-C ) :   1.2036 B(  2-C ,  6-C ) :   1.0192
B(  3-C ,  4-C ) :   1.6051 B(  3-C ,  5-H ) :   0.9937 B(  4-C , 20-C ) :   1.0396
B(  6-C ,  7-H ) :   0.9403 B(  6-C ,  8-H ) :   0.9407 B(  6-C ,  9-C ) :   1.0654
B(  9-C , 10-H ) :   0.9600 B(  9-C , 11-H ) :   0.9569 B(  9-C , 12-C ) :   1.0734
B( 12-C , 13-H ) :   0.9757 B( 12-C , 14-H ) :   0.9742 B( 12-C , 15-H ) :   0.9762
B( 16-S , 17-C ) :   1.1744 B( 16-S , 20-C ) :   1.1283 B( 17-C , 18-C ) :   1.6072
B( 17-C , 33-H ) :   0.9586 B( 18-C , 19-C ) :   1.2362 B( 18-C , 21-H ) :   0.9964
B( 19-C , 20-C ) :   1.5907 B( 19-C , 22-C ) :   1.0409 B( 22-C , 23-H ) :   0.9332
B( 22-C , 24-H ) :   0.9273 B( 22-C , 25-C ) :   1.0804 B( 25-C , 26-H ) :   0.9558
B( 25-C , 27-H ) :   0.9536 B( 25-C , 28-C ) :   1.0751 B( 28-C , 29-H ) :   0.9682
B( 28-C , 30-H ) :   0.9750 B( 28-C , 31-H ) :   0.9727

Dispersion correction           -0.014995645
FINAL SINGLE POINT ENERGY     -1339.879927260030

DIPOLE MOMENT
-------------
                                X             Y             Z
Electronic contribution:     -7.12852      13.21126      -3.62042
Nuclear contribution   :      7.29848     -13.38689       3.82614
                        -----------------------------------------
Total Dipole Moment    :      0.16996      -0.17562       0.20573
                        -----------------------------------------
Magnitude (a.u.)       :      0.31946
Magnitude (Debye)      :      0.81200

Rotational constants in cm-1:     0.022478     0.007913     0.007055
Rotational constants in MHz :   673.872369   237.217773   211.516219

                             ****ORCA TERMINATED NORMALLY****
TOTAL RUN TIME: 0 days 0 hours 0 minutes 20 seconds 612 msec
