                         Program Version 4.2.1 -  RELEASE  -
|  1> ! wB97X-D3 SP def2-SVP
|  2> %pal
|  3> nprocs 24
|  4> end
|  5>
|  6> * xyz 0 1
|  7> S 	 -43.1613 	 20.2839 	 -100.106
|  8> C 	 -44.4476 	 20.6371 	 -98.9576
|  9> C 	 -45.5518 	 19.8478 	 -99.2626
| 10> C 	 -45.4457 	 19.1607 	 -100.519
| 11> C 	 -44.1683 	 19.2854 	 -101.066
| 12> H 	 -46.1524 	 18.4628 	 -100.926
| 13> C 	 -46.945 	 19.8367 	 -98.5219
| 14> H 	 -47.68 	 19.4537 	 -99.2604
| 15> H 	 -47.2901 	 20.8538 	 -98.1935
| 16> C 	 -47.0392 	 19.0009 	 -97.236
| 17> H 	 -46.4899 	 19.4186 	 -96.3373
| 18> H 	 -48.04 	 18.8406 	 -96.8548
| 19> C 	 -46.3217 	 17.6753 	 -97.4599
| 20> H 	 -46.8379 	 17.059 	 -98.2016
| 21> H 	 -45.2196 	 17.7617 	 -97.7153
| 22> H 	 -46.2756 	 17.0658 	 -96.5948
| 23> S 	 -43.8502 	 18.6407 	 -103.642
| 24> C 	 -43.3853 	 16.9919 	 -104.013
| 25> C 	 -42.9828 	 16.3659 	 -102.9
| 26> C 	 -43.1464 	 17.0759 	 -101.676
| 27> C 	 -43.6012 	 18.3679 	 -101.943
| 28> H 	 -42.8181 	 15.3027 	 -102.906
| 29> C 	 -42.919 	 16.5457 	 -100.298
| 30> H 	 -43.4004 	 15.6115 	 -100.158
| 31> H 	 -43.1866 	 17.2723 	 -99.5689
| 32> C 	 -41.4656 	 16.1681 	 -100.024
| 33> H 	 -41.0618 	 15.4945 	 -100.805
| 34> H 	 -41.432 	 15.5514 	 -99.1296
| 35> C 	 -40.534 	 17.3466 	 -100.043
| 36> H 	 -39.5968 	 16.9535 	 -99.5768
| 37> H 	 -40.8229 	 18.1498 	 -99.3565
| 38> H 	 -40.2743 	 17.7671 	 -100.979
| 39> H 	 -44.3881 	 21.2013 	 -98.0212
| 40> H 	 -43.2301 	 16.5348 	 -105.024
| 41> *
| 42>
| 43>                          ****END OF INPUT****

CARTESIAN COORDINATES (ANGSTROEM)
---------------------------------
  S    -43.161300   20.283900  -100.106000
  C    -44.447600   20.637100  -98.957600
  C    -45.551800   19.847800  -99.262600
  C    -45.445700   19.160700  -100.519000
  C    -44.168300   19.285400  -101.066000
  H    -46.152400   18.462800  -100.926000
  C    -46.945000   19.836700  -98.521900
  H    -47.680000   19.453700  -99.260400
  H    -47.290100   20.853800  -98.193500
  C    -47.039200   19.000900  -97.236000
  H    -46.489900   19.418600  -96.337300
  H    -48.040000   18.840600  -96.854800
  C    -46.321700   17.675300  -97.459900
  H    -46.837900   17.059000  -98.201600
  H    -45.219600   17.761700  -97.715300
  H    -46.275600   17.065800  -96.594800
  S    -43.850200   18.640700  -103.642000
  C    -43.385300   16.991900  -104.013000
  C    -42.982800   16.365900  -102.900000
  C    -43.146400   17.075900  -101.676000
  C    -43.601200   18.367900  -101.943000
  H    -42.818100   15.302700  -102.906000
  C    -42.919000   16.545700  -100.298000
  H    -43.400400   15.611500  -100.158000
  H    -43.186600   17.272300  -99.568900
  C    -41.465600   16.168100  -100.024000
  H    -41.061800   15.494500  -100.805000
  H    -41.432000   15.551400  -99.129600
  C    -40.534000   17.346600  -100.043000
  H    -39.596800   16.953500  -99.576800
  H    -40.822900   18.149800  -99.356500
  H    -40.274300   17.767100  -100.979000
  H    -44.388100   21.201300  -98.021200
  H    -43.230100   16.534800  -105.024000

 Total Charge           Charge          ....    0
 Multiplicity           Mult            ....    1
 Number of Electrons    NEL             ....  134
 Basis Dimension        Dim             ....  322

ORBITAL ENERGIES
----------------

  NO   OCC          E(Eh)            E(eV)
   0   2.0000     -88.969055     -2420.9711
   1   2.0000     -88.961491     -2420.7652
   2   2.0000     -10.319989      -280.8212
   3   2.0000     -10.318755      -280.7876
   4   2.0000     -10.316084      -280.7149
   5   2.0000     -10.315603      -280.7018
   6   2.0000     -10.308002      -280.4950
   7   2.0000     -10.302081      -280.3339
   8   2.0000     -10.299678      -280.2685
   9   2.0000     -10.295001      -280.1412
  10   2.0000     -10.290114      -280.0082
  11   2.0000     -10.286161      -279.9007
  12   2.0000     -10.282070      -279.7893
  13   2.0000     -10.280854      -279.7563
  14   2.0000     -10.272360      -279.5251
  15   2.0000     -10.267914      -279.4041
  16   2.0000      -8.083745      -219.9699
  17   2.0000      -8.076675      -219.7775
  18   2.0000      -6.042140      -164.4150
  19   2.0000      -6.038050      -164.3037
  20   2.0000      -6.035182      -164.2256
  21   2.0000      -6.034792      -164.2150
  22   2.0000      -6.031076      -164.1139
  23   2.0000      -6.027442      -164.0150
  24   2.0000      -1.014499       -27.6059
  25   2.0000      -0.985447       -26.8154
  26   2.0000      -0.915183       -24.9034
  27   2.0000      -0.909098       -24.7378
  28   2.0000      -0.876768       -23.8581
  29   2.0000      -0.846944       -23.0465
  30   2.0000      -0.845598       -23.0099
  31   2.0000      -0.811309       -22.0768
  32   2.0000      -0.784790       -21.3552
  33   2.0000      -0.773330       -21.0434
  34   2.0000      -0.708311       -19.2741
  35   2.0000      -0.697980       -18.9930
  36   2.0000      -0.693074       -18.8595
  37   2.0000      -0.654666       -17.8144
  38   2.0000      -0.642424       -17.4812
  39   2.0000      -0.611137       -16.6299
  40   2.0000      -0.598578       -16.2881
  41   2.0000      -0.568904       -15.4807
  42   2.0000      -0.555634       -15.1196
  43   2.0000      -0.550396       -14.9770
  44   2.0000      -0.548363       -14.9217
  45   2.0000      -0.542387       -14.7591
  46   2.0000      -0.518812       -14.1176
  47   2.0000      -0.509484       -13.8638
  48   2.0000      -0.504488       -13.7278
  49   2.0000      -0.500440       -13.6177
  50   2.0000      -0.488769       -13.3001
  51   2.0000      -0.476334       -12.9617
  52   2.0000      -0.469543       -12.7769
  53   2.0000      -0.463660       -12.6168
  54   2.0000      -0.458505       -12.4766
  55   2.0000      -0.449113       -12.2210
  56   2.0000      -0.440027       -11.9738
  57   2.0000      -0.430534       -11.7154
  58   2.0000      -0.428027       -11.6472
  59   2.0000      -0.425559       -11.5800
  60   2.0000      -0.417107       -11.3501
  61   2.0000      -0.412120       -11.2144
  62   2.0000      -0.408589       -11.1183
  63   2.0000      -0.337367        -9.1802
  64   2.0000      -0.332854        -9.0574
  65   2.0000      -0.321024        -8.7355
  66   2.0000      -0.305251        -8.3063
  67   0.0000       0.040295         1.0965
  68   0.0000       0.054988         1.4963
  69   0.0000       0.115680         3.1478
  70   0.0000       0.120569         3.2808
  71   0.0000       0.128090         3.4855

MULLIKEN ATOMIC CHARGES
-----------------------
   0 S :    0.121531
   1 C :   -0.109383
   2 C :   -0.117591
   3 C :    0.063280
   4 C :   -0.176148
   5 H :    0.016758
   6 C :    0.043663
   7 H :    0.036785
   8 H :    0.042812
   9 C :   -0.071774
  10 H :    0.029356
  11 H :    0.033558
  12 C :   -0.079991
  13 H :    0.024033
  14 H :    0.055748
  15 H :    0.014100
  16 S :    0.106307
  17 C :   -0.101519
  18 C :   -0.026269
  19 C :   -0.037442
  20 C :   -0.194923
  21 H :    0.014885
  22 C :    0.149681
  23 H :    0.012483
  24 H :    0.025300
  25 C :   -0.102027
  26 H :    0.023771
  27 H :    0.026273
  28 C :   -0.040364
  29 H :    0.023680
  30 H :    0.022987
  31 H :    0.039806
  32 H :    0.057756
  33 H :    0.072876
Sum of atomic charges:    0.0000000

LOEWDIN ATOMIC CHARGES
----------------------
   0 S :    0.437708
   1 C :   -0.204561
   2 C :   -0.060241
   3 C :   -0.048705
   4 C :   -0.220116
   5 H :    0.031682
   6 C :   -0.032556
   7 H :    0.033863
   8 H :    0.035258
   9 C :   -0.048407
  10 H :    0.027942
  11 H :    0.024854
  12 C :   -0.075756
  13 H :    0.020172
  14 H :    0.034268
  15 H :    0.015900
  16 S :    0.408188
  17 C :   -0.191131
  18 C :   -0.077886
  19 C :   -0.043833
  20 C :   -0.216399
  21 H :    0.029090
  22 C :   -0.023935
  23 H :    0.029403
  24 H :    0.025571
  25 C :   -0.041608
  26 H :    0.024738
  27 H :    0.023059
  28 C :   -0.068259
  29 H :    0.031854
  30 H :    0.018708
  31 H :    0.021872
  32 H :    0.035405
  33 H :    0.043859

  Mayer bond orders larger than 0.100000
B(  0-S ,  1-C ) :   1.1427 B(  0-S ,  4-C ) :   1.1743 B(  1-C ,  2-C ) :   1.6013
B(  1-C , 32-H ) :   0.9684 B(  2-C ,  3-C ) :   1.2552 B(  2-C ,  6-C ) :   1.0008
B(  3-C ,  4-C ) :   1.5537 B(  3-C ,  5-H ) :   0.9957 B(  4-C , 20-C ) :   1.0168
B(  6-C ,  7-H ) :   0.9498 B(  6-C ,  8-H ) :   0.9520 B(  6-C ,  9-C ) :   1.0617
B(  9-C , 10-H ) :   0.9563 B(  9-C , 11-H ) :   0.9579 B(  9-C , 12-C ) :   1.0842
B( 12-C , 13-H ) :   0.9764 B( 12-C , 14-H ) :   0.9628 B( 12-C , 15-H ) :   0.9710
B( 16-S , 17-C ) :   1.1450 B( 16-S , 20-C ) :   1.1439 B( 17-C , 18-C ) :   1.6384
B( 17-C , 33-H ) :   0.9569 B( 18-C , 19-C ) :   1.2429 B( 18-C , 21-H ) :   0.9801
B( 19-C , 20-C ) :   1.5821 B( 19-C , 22-C ) :   1.0620 B( 22-C , 23-H ) :   0.9183
B( 22-C , 24-H ) :   0.9284 B( 22-C , 25-C ) :   1.0770 B( 25-C , 26-H ) :   0.9529
B( 25-C , 27-H ) :   0.9573 B( 25-C , 28-C ) :   1.0732 B( 28-C , 29-H ) :   0.9691
B( 28-C , 30-H ) :   0.9726 B( 28-C , 31-H ) :   0.9758

Dispersion correction           -0.016552982
FINAL SINGLE POINT ENERGY     -1339.869492889129

DIPOLE MOMENT
-------------
                                X             Y             Z
Electronic contribution:      2.26766      12.22914     -19.87952
Nuclear contribution   :     -2.49348     -12.81279      20.39303
                        -----------------------------------------
Total Dipole Moment    :     -0.22582      -0.58365       0.51351
                        -----------------------------------------
Magnitude (a.u.)       :      0.80953
Magnitude (Debye)      :      2.05765

Rotational constants in cm-1:     0.019674     0.009530     0.008555
Rotational constants in MHz :   589.806608   285.694732   256.486016

                             ****ORCA TERMINATED NORMALLY****
TOTAL RUN TIME: 0 days 0 hours 0 minutes 25 seconds 728 msec
