                         Program Version 4.2.1 -  RELEASE  -
|  1> ! wB97X-D3 SP def2-SVP
|  2> %pal
|  3> nprocs 24
|  4> end
|  5>
|  6> * xyz 0 1
|  7> S 	 -41.6845 	 -1.8263 	 -28.4356
|  8> C 	 -42.6315 	 -0.379392 	 -28.1656
|  9> C 	 -43.8879 	 -0.733826 	 -27.7458
| 10> C 	 -43.9658 	 -2.16618 	 -27.6552
| 11> C 	 -42.8826 	 -2.91264 	 -27.8444
| 12> H 	 -44.9247 	 -2.6055 	 -27.3645
| 13> C 	 -45.0236 	 0.26801 	 -27.424
| 14> H 	 -44.5751 	 1.25672 	 -27.0478
| 15> H 	 -45.6037 	 -0.196009 	 -26.694
| 16> C 	 -45.9298 	 0.634104 	 -28.6213
| 17> H 	 -46.7978 	 1.24841 	 -28.2032
| 18> H 	 -45.2999 	 1.32895 	 -29.2697
| 19> C 	 -46.5523 	 -0.586153 	 -29.3511
| 20> H 	 -45.8069 	 -1.1958 	 -29.7946
| 21> H 	 -47.0274 	 -1.17072 	 -28.5809
| 22> H 	 -47.2237 	 -0.433383 	 -30.1258
| 23> S 	 -41.7434 	 -5.17074 	 -29.1426
| 24> C 	 -41.7802 	 -6.66697 	 -28.184
| 25> C 	 -42.6044 	 -6.5689 	 -27.0792
| 26> C 	 -43.1641 	 -5.27906 	 -26.9205
| 27> C 	 -42.7106 	 -4.35531 	 -27.8655
| 28> H 	 -42.8041 	 -7.43633 	 -26.4504
| 29> C 	 -43.9272 	 -4.86598 	 -25.7118
| 30> H 	 -44.5983 	 -4.19909 	 -26.1147
| 31> H 	 -43.3422 	 -4.31064 	 -25.084
| 32> C 	 -44.5012 	 -5.8112 	 -24.7975
| 33> H 	 -43.8946 	 -6.62735 	 -24.4688
| 34> H 	 -45.2883 	 -6.28946 	 -25.3514
| 35> C 	 -45.0273 	 -5.16834 	 -23.5338
| 36> H 	 -44.4044 	 -4.50426 	 -23.1896
| 37> H 	 -45.3475 	 -5.89099 	 -22.7835
| 38> H 	 -45.9171 	 -4.59696 	 -23.8815
| 39> H 	 -42.204 	 0.622049 	 -28.3273
| 40> H 	 -41.2292 	 -7.569 	 -28.4865
| 41> *
| 42>
| 43>                          ****END OF INPUT****

CARTESIAN COORDINATES (ANGSTROEM)
---------------------------------
  S    -41.684500   -1.826300  -28.435600
  C    -42.631500   -0.379392  -28.165600
  C    -43.887900   -0.733826  -27.745800
  C    -43.965800   -2.166180  -27.655200
  C    -42.882600   -2.912640  -27.844400
  H    -44.924700   -2.605500  -27.364500
  C    -45.023600    0.268010  -27.424000
  H    -44.575100    1.256720  -27.047800
  H    -45.603700   -0.196009  -26.694000
  C    -45.929800    0.634104  -28.621300
  H    -46.797800    1.248410  -28.203200
  H    -45.299900    1.328950  -29.269700
  C    -46.552300   -0.586153  -29.351100
  H    -45.806900   -1.195800  -29.794600
  H    -47.027400   -1.170720  -28.580900
  H    -47.223700   -0.433383  -30.125800
  S    -41.743400   -5.170740  -29.142600
  C    -41.780200   -6.666970  -28.184000
  C    -42.604400   -6.568900  -27.079200
  C    -43.164100   -5.279060  -26.920500
  C    -42.710600   -4.355310  -27.865500
  H    -42.804100   -7.436330  -26.450400
  C    -43.927200   -4.865980  -25.711800
  H    -44.598300   -4.199090  -26.114700
  H    -43.342200   -4.310640  -25.084000
  C    -44.501200   -5.811200  -24.797500
  H    -43.894600   -6.627350  -24.468800
  H    -45.288300   -6.289460  -25.351400
  C    -45.027300   -5.168340  -23.533800
  H    -44.404400   -4.504260  -23.189600
  H    -45.347500   -5.890990  -22.783500
  H    -45.917100   -4.596960  -23.881500
  H    -42.204000    0.622049  -28.327300
  H    -41.229200   -7.569000  -28.486500

 Total Charge           Charge          ....    0
 Multiplicity           Mult            ....    1
 Number of Electrons    NEL             ....  134
 Basis Dimension        Dim             ....  322

ORBITAL ENERGIES
----------------

  NO   OCC          E(Eh)            E(eV)
   0   2.0000     -88.969047     -2420.9708
   1   2.0000     -88.958569     -2420.6857
   2   2.0000     -10.330197      -281.0990
   3   2.0000     -10.324281      -280.9380
   4   2.0000     -10.322860      -280.8993
   5   2.0000     -10.316182      -280.7176
   6   2.0000     -10.302419      -280.3431
   7   2.0000     -10.302166      -280.3362
   8   2.0000     -10.299643      -280.2675
   9   2.0000     -10.299249      -280.2568
  10   2.0000     -10.295315      -280.1498
  11   2.0000     -10.289797      -279.9996
  12   2.0000     -10.273257      -279.5495
  13   2.0000     -10.268873      -279.4302
  14   2.0000     -10.268450      -279.4187
  15   2.0000     -10.268044      -279.4077
  16   2.0000      -8.082425      -219.9340
  17   2.0000      -8.074371      -219.7148
  18   2.0000      -6.041016      -164.3844
  19   2.0000      -6.037240      -164.2817
  20   2.0000      -6.033066      -164.1681
  21   2.0000      -6.032960      -164.1652
  22   2.0000      -6.028669      -164.0484
  23   2.0000      -6.025002      -163.9486
  24   2.0000      -1.012200       -27.5434
  25   2.0000      -0.985417       -26.8146
  26   2.0000      -0.932497       -25.3745
  27   2.0000      -0.909201       -24.7406
  28   2.0000      -0.871922       -23.7262
  29   2.0000      -0.857759       -23.3408
  30   2.0000      -0.838694       -22.8220
  31   2.0000      -0.819060       -22.2877
  32   2.0000      -0.791761       -21.5449
  33   2.0000      -0.779638       -21.2150
  34   2.0000      -0.714977       -19.4555
  35   2.0000      -0.701181       -19.0801
  36   2.0000      -0.698238       -19.0000
  37   2.0000      -0.654272       -17.8037
  38   2.0000      -0.641105       -17.4454
  39   2.0000      -0.622507       -16.9393
  40   2.0000      -0.607117       -16.5205
  41   2.0000      -0.588598       -16.0166
  42   2.0000      -0.572925       -15.5901
  43   2.0000      -0.553283       -15.0556
  44   2.0000      -0.540405       -14.7052
  45   2.0000      -0.538758       -14.6603
  46   2.0000      -0.517284       -14.0760
  47   2.0000      -0.511595       -13.9212
  48   2.0000      -0.508973       -13.8498
  49   2.0000      -0.503491       -13.7007
  50   2.0000      -0.494457       -13.4549
  51   2.0000      -0.481392       -13.0993
  52   2.0000      -0.475050       -12.9268
  53   2.0000      -0.467650       -12.7254
  54   2.0000      -0.459059       -12.4916
  55   2.0000      -0.455521       -12.3954
  56   2.0000      -0.442986       -12.0543
  57   2.0000      -0.440816       -11.9952
  58   2.0000      -0.429141       -11.6775
  59   2.0000      -0.427211       -11.6250
  60   2.0000      -0.425471       -11.5777
  61   2.0000      -0.409142       -11.1333
  62   2.0000      -0.406888       -11.0720
  63   2.0000      -0.355228        -9.6662
  64   2.0000      -0.334204        -9.0941
  65   2.0000      -0.326617        -8.8877
  66   2.0000      -0.288625        -7.8539
  67   0.0000       0.024130         0.6566
  68   0.0000       0.074632         2.0308
  69   0.0000       0.105900         2.8817
  70   0.0000       0.121986         3.3194
  71   0.0000       0.136355         3.7104

MULLIKEN ATOMIC CHARGES
-----------------------
   0 S :    0.086195
   1 C :   -0.143872
   2 C :   -0.088261
   3 C :   -0.011413
   4 C :   -0.128528
   5 H :    0.012249
   6 C :    0.079640
   7 H :    0.045695
   8 H :    0.008668
   9 C :   -0.110885
  10 H :    0.043323
  11 H :    0.037824
  12 C :   -0.014051
  13 H :    0.035210
  14 H :    0.018303
  15 H :    0.023908
  16 S :    0.108098
  17 C :   -0.101882
  18 C :   -0.041014
  19 C :   -0.047442
  20 C :   -0.136044
  21 H :    0.026979
  22 C :    0.174579
  23 H :   -0.027072
  24 H :    0.004527
  25 C :   -0.080009
  26 H :    0.018279
  27 H :    0.010658
  28 C :    0.022294
  29 H :   -0.009977
  30 H :    0.037974
  31 H :    0.018543
  32 H :    0.061305
  33 H :    0.066197
Sum of atomic charges:    0.0000000

LOEWDIN ATOMIC CHARGES
----------------------
   0 S :    0.406979
   1 C :   -0.190128
   2 C :   -0.068485
   3 C :   -0.074311
   4 C :   -0.201146
   5 H :    0.024255
   6 C :   -0.027069
   7 H :    0.044036
   8 H :    0.016792
   9 C :   -0.042758
  10 H :    0.030188
  11 H :    0.025557
  12 C :   -0.061354
  13 H :    0.025045
  14 H :    0.023920
  15 H :    0.019072
  16 S :    0.376805
  17 C :   -0.172359
  18 C :   -0.073236
  19 C :   -0.041881
  20 C :   -0.184442
  21 H :    0.035629
  22 C :   -0.030370
  23 H :    0.022745
  24 H :    0.027789
  25 C :   -0.038756
  26 H :    0.018471
  27 H :    0.020495
  28 C :   -0.040242
  29 H :   -0.001504
  30 H :    0.031328
  31 H :    0.031649
  32 H :    0.034032
  33 H :    0.033257

  Mayer bond orders larger than 0.100000
B(  0-S ,  1-C ) :   1.1503 B(  0-S ,  4-C ) :   1.1324 B(  1-C ,  2-C ) :   1.5960
B(  1-C , 32-H ) :   0.9706 B(  2-C ,  3-C ) :   1.2597 B(  2-C ,  6-C ) :   1.0093
B(  3-C ,  4-C ) :   1.5824 B(  3-C ,  5-H ) :   0.9787 B(  4-C , 20-C ) :   1.0664
B(  6-C ,  7-H ) :   0.9473 B(  6-C ,  8-H ) :   0.9363 B(  6-C ,  9-C ) :   1.0694
B(  9-C , 10-H ) :   0.9577 B(  9-C , 11-H ) :   0.9588 B(  9-C , 12-C ) :   1.0670
B( 12-C , 13-H ) :   0.9714 B( 12-C , 14-H ) :   0.9732 B( 12-C , 15-H ) :   0.9744
B( 16-S , 17-C ) :   1.1478 B( 16-S , 20-C ) :   1.1229 B( 17-C , 18-C ) :   1.6034
B( 17-C , 20-C ) :   0.1012 B( 17-C , 33-H ) :   0.9624 B( 18-C , 19-C ) :   1.2556
B( 18-C , 21-H ) :   0.9870 B( 19-C , 20-C ) :   1.5853 B( 19-C , 22-C ) :   1.0293
B( 22-C , 23-H ) :   0.9006 B( 22-C , 24-H ) :   0.9049 B( 22-C , 25-C ) :   1.0895
B( 25-C , 26-H ) :   0.9409 B( 25-C , 27-H ) :   0.9493 B( 25-C , 28-C ) :   1.0899
B( 28-C , 29-H ) :   0.9730 B( 28-C , 30-H ) :   0.9716 B( 28-C , 31-H ) :   0.9713

Dispersion correction           -0.013990121
FINAL SINGLE POINT ENERGY     -1339.844345005613

DIPOLE MOMENT
-------------
                                X             Y             Z
Electronic contribution:     23.03471      -5.50292     -13.86493
Nuclear contribution   :    -23.56023       5.51447      14.31599
                        -----------------------------------------
Total Dipole Moment    :     -0.52552       0.01155       0.45106
                        -----------------------------------------
Magnitude (a.u.)       :      0.69265
Magnitude (Debye)      :      1.76058

Rotational constants in cm-1:     0.017119     0.009017     0.006843
Rotational constants in MHz :   513.223455   270.321112   205.155370

                             ****ORCA TERMINATED NORMALLY****
TOTAL RUN TIME: 0 days 0 hours 0 minutes 21 seconds 887 msec
