                         Program Version 4.2.1 -  RELEASE  -
|  1> ! wB97X-D3 SP def2-SVP
|  2> %pal
|  3> nprocs 24
|  4> end
|  5>
|  6> * xyz 0 1
|  7> S 	 -110.935 	 18.6933 	 -113.697
|  8> C 	 -112.549 	 18.5907 	 -112.892
|  9> C 	 -113.442 	 17.7244 	 -113.564
| 10> C 	 -112.812 	 17.1911 	 -114.723
| 11> C 	 -111.584 	 17.7469 	 -115.015
| 12> H 	 -113.289 	 16.4975 	 -115.376
| 13> C 	 -114.994 	 17.4931 	 -113.331
| 14> H 	 -115.186 	 17.3859 	 -112.322
| 15> H 	 -115.523 	 16.6733 	 -113.884
| 16> C 	 -115.902 	 18.6807 	 -113.7
| 17> H 	 -116.955 	 18.4978 	 -113.446
| 18> H 	 -115.676 	 19.6018 	 -113.166
| 19> C 	 -115.79 	 19.0417 	 -115.193
| 20> H 	 -116.59 	 19.6509 	 -115.56
| 21> H 	 -114.747 	 19.4474 	 -115.342
| 22> H 	 -115.901 	 18.0594 	 -115.706
| 23> S 	 -109.027 	 17.5436 	 -116.19
| 24> C 	 -108.876 	 17.2846 	 -117.857
| 25> C 	 -110.093 	 17.1094 	 -118.468
| 26> C 	 -111.177 	 17.338 	 -117.535
| 27> C 	 -110.756 	 17.5179 	 -116.198
| 28> H 	 -110.22 	 16.9251 	 -119.566
| 29> C 	 -112.621 	 17.564 	 -118.069
| 30> H 	 -113.377 	 17.7786 	 -117.355
| 31> H 	 -112.879 	 16.5833 	 -118.453
| 32> C 	 -112.794 	 18.5148 	 -119.276
| 33> H 	 -112.135 	 18.3791 	 -120.136
| 34> H 	 -112.607 	 19.5187 	 -118.859
| 35> C 	 -114.213 	 18.4577 	 -119.885
| 36> H 	 -114.448 	 17.4877 	 -120.354
| 37> H 	 -114.24 	 19.2106 	 -120.753
| 38> H 	 -115.051 	 18.7891 	 -119.196
| 39> H 	 -112.756 	 19.2412 	 -112.136
| 40> H 	 -107.98 	 17.0907 	 -118.415
| 41> *
| 42>
| 43>                          ****END OF INPUT****

CARTESIAN COORDINATES (ANGSTROEM)
---------------------------------
  S    -110.935000   18.693300  -113.697000
  C    -112.549000   18.590700  -112.892000
  C    -113.442000   17.724400  -113.564000
  C    -112.812000   17.191100  -114.723000
  C    -111.584000   17.746900  -115.015000
  H    -113.289000   16.497500  -115.376000
  C    -114.994000   17.493100  -113.331000
  H    -115.186000   17.385900  -112.322000
  H    -115.523000   16.673300  -113.884000
  C    -115.902000   18.680700  -113.700000
  H    -116.955000   18.497800  -113.446000
  H    -115.676000   19.601800  -113.166000
  C    -115.790000   19.041700  -115.193000
  H    -116.590000   19.650900  -115.560000
  H    -114.747000   19.447400  -115.342000
  H    -115.901000   18.059400  -115.706000
  S    -109.027000   17.543600  -116.190000
  C    -108.876000   17.284600  -117.857000
  C    -110.093000   17.109400  -118.468000
  C    -111.177000   17.338000  -117.535000
  C    -110.756000   17.517900  -116.198000
  H    -110.220000   16.925100  -119.566000
  C    -112.621000   17.564000  -118.069000
  H    -113.377000   17.778600  -117.355000
  H    -112.879000   16.583300  -118.453000
  C    -112.794000   18.514800  -119.276000
  H    -112.135000   18.379100  -120.136000
  H    -112.607000   19.518700  -118.859000
  C    -114.213000   18.457700  -119.885000
  H    -114.448000   17.487700  -120.354000
  H    -114.240000   19.210600  -120.753000
  H    -115.051000   18.789100  -119.196000
  H    -112.756000   19.241200  -112.136000
  H    -107.980000   17.090700  -118.415000

 Total Charge           Charge          ....    0
 Multiplicity           Mult            ....    1
 Number of Electrons    NEL             ....  134
 Basis Dimension        Dim             ....  322

ORBITAL ENERGIES
----------------

  NO   OCC          E(Eh)            E(eV)
   0   2.0000     -88.969841     -2420.9925
   1   2.0000     -88.967357     -2420.9248
   2   2.0000     -10.333308      -281.1836
   3   2.0000     -10.327543      -281.0267
   4   2.0000     -10.318443      -280.7791
   5   2.0000     -10.315924      -280.7106
   6   2.0000     -10.313962      -280.6572
   7   2.0000     -10.308428      -280.5066
   8   2.0000     -10.300365      -280.2872
   9   2.0000     -10.297843      -280.2186
  10   2.0000     -10.292717      -280.0791
  11   2.0000     -10.290298      -280.0132
  12   2.0000     -10.289437      -279.9898
  13   2.0000     -10.289260      -279.9850
  14   2.0000     -10.286651      -279.9140
  15   2.0000     -10.278978      -279.7052
  16   2.0000      -8.083963      -219.9758
  17   2.0000      -8.083272      -219.9570
  18   2.0000      -6.042439      -164.4231
  19   2.0000      -6.041756      -164.4045
  20   2.0000      -6.038801      -164.3241
  21   2.0000      -6.037557      -164.2903
  22   2.0000      -6.034557      -164.2086
  23   2.0000      -6.034058      -164.1951
  24   2.0000      -1.009197       -27.4616
  25   2.0000      -0.983907       -26.7735
  26   2.0000      -0.911335       -24.7987
  27   2.0000      -0.904383       -24.6095
  28   2.0000      -0.868371       -23.6296
  29   2.0000      -0.851169       -23.1615
  30   2.0000      -0.841831       -22.9074
  31   2.0000      -0.812180       -22.1005
  32   2.0000      -0.785591       -21.3770
  33   2.0000      -0.771751       -21.0004
  34   2.0000      -0.703333       -19.1387
  35   2.0000      -0.697256       -18.9733
  36   2.0000      -0.691701       -18.8221
  37   2.0000      -0.657043       -17.8790
  38   2.0000      -0.643127       -17.5004
  39   2.0000      -0.623295       -16.9607
  40   2.0000      -0.599436       -16.3115
  41   2.0000      -0.576113       -15.6768
  42   2.0000      -0.561650       -15.2833
  43   2.0000      -0.558804       -15.2058
  44   2.0000      -0.546876       -14.8813
  45   2.0000      -0.517478       -14.0813
  46   2.0000      -0.514128       -13.9901
  47   2.0000      -0.506912       -13.7938
  48   2.0000      -0.502647       -13.6777
  49   2.0000      -0.496345       -13.5062
  50   2.0000      -0.486247       -13.2315
  51   2.0000      -0.478973       -13.0335
  52   2.0000      -0.469329       -12.7711
  53   2.0000      -0.465079       -12.6554
  54   2.0000      -0.458067       -12.4646
  55   2.0000      -0.455164       -12.3857
  56   2.0000      -0.443174       -12.0594
  57   2.0000      -0.439514       -11.9598
  58   2.0000      -0.430061       -11.7025
  59   2.0000      -0.422087       -11.4856
  60   2.0000      -0.420284       -11.4365
  61   2.0000      -0.418716       -11.3939
  62   2.0000      -0.412330       -11.2201
  63   2.0000      -0.356354        -9.6969
  64   2.0000      -0.336537        -9.1576
  65   2.0000      -0.327480        -8.9112
  66   2.0000      -0.283315        -7.7094
  67   0.0000       0.021179         0.5763
  68   0.0000       0.076371         2.0782
  69   0.0000       0.094277         2.5654
  70   0.0000       0.117047         3.1850
  71   0.0000       0.129580         3.5260

MULLIKEN ATOMIC CHARGES
-----------------------
   0 S :    0.096689
   1 C :   -0.095451
   2 C :   -0.061431
   3 C :    0.015980
   4 C :   -0.135927
   5 H :    0.008855
   6 C :    0.090596
   7 H :    0.014680
   8 H :    0.041879
   9 C :   -0.109016
  10 H :    0.029730
  11 H :    0.023200
  12 C :   -0.076985
  13 H :    0.036895
  14 H :    0.068271
  15 H :    0.017375
  16 S :    0.114135
  17 C :   -0.075508
  18 C :   -0.057573
  19 C :   -0.064544
  20 C :   -0.118166
  21 H :    0.041018
  22 C :    0.081784
  23 H :    0.010849
  24 H :    0.014425
  25 C :   -0.069636
  26 H :    0.030348
  27 H :    0.037927
  28 C :   -0.109912
  29 H :    0.038638
  30 H :    0.040315
  31 H :    0.047653
  32 H :    0.017910
  33 H :    0.054996
Sum of atomic charges:   -0.0000000

LOEWDIN ATOMIC CHARGES
----------------------
   0 S :    0.384244
   1 C :   -0.164209
   2 C :   -0.046519
   3 C :   -0.062787
   4 C :   -0.178353
   5 H :    0.027192
   6 C :   -0.022292
   7 H :    0.021734
   8 H :    0.039736
   9 C :   -0.044771
  10 H :    0.023477
  11 H :    0.017593
  12 C :   -0.071973
  13 H :    0.021439
  14 H :    0.036890
  15 H :    0.020376
  16 S :    0.433525
  17 C :   -0.201697
  18 C :   -0.078076
  19 C :   -0.051837
  20 C :   -0.217138
  21 H :    0.040500
  22 C :   -0.033132
  23 H :    0.023322
  24 H :    0.028374
  25 C :   -0.042062
  26 H :    0.023054
  27 H :    0.028278
  28 C :   -0.077425
  29 H :    0.023729
  30 H :    0.033760
  31 H :    0.029827
  32 H :    0.003240
  33 H :    0.031979

  Mayer bond orders larger than 0.100000
B(  0-S ,  1-C ) :   1.1287 B(  0-S ,  4-C ) :   1.1466 B(  1-C ,  2-C ) :   1.6066
B(  1-C ,  4-C ) :   0.1058 B(  1-C , 32-H ) :   0.9840 B(  2-C ,  3-C ) :   1.2315
B(  2-C ,  6-C ) :   1.0057 B(  3-C ,  4-C ) :   1.5684 B(  3-C ,  5-H ) :   0.9970
B(  4-C , 20-C ) :   1.0693 B(  6-C ,  7-H ) :   0.9345 B(  6-C ,  8-H ) :   0.9541
B(  6-C ,  9-C ) :   1.0703 B(  9-C , 10-H ) :   0.9570 B(  9-C , 11-H ) :   0.9559
B(  9-C , 12-C ) :   1.0727 B( 12-C , 13-H ) :   0.9740 B( 12-C , 14-H ) :   0.9721
B( 12-C , 15-H ) :   0.9737 B( 16-S , 17-C ) :   1.1734 B( 16-S , 20-C ) :   1.1337
B( 17-C , 18-C ) :   1.5958 B( 17-C , 33-H ) :   0.9657 B( 18-C , 19-C ) :   1.2667
B( 18-C , 21-H ) :   0.9800 B( 19-C , 20-C ) :   1.5701 B( 19-C , 22-C ) :   1.0299
B( 22-C , 23-H ) :   0.9424 B( 22-C , 24-H ) :   0.9285 B( 22-C , 25-C ) :   1.0621
B( 25-C , 26-H ) :   0.9528 B( 25-C , 27-H ) :   0.9559 B( 25-C , 28-C ) :   1.0803
B( 28-C , 29-H ) :   0.9746 B( 28-C , 30-H ) :   0.9748 B( 28-C , 31-H ) :   0.9744

Dispersion correction           -0.014946212
FINAL SINGLE POINT ENERGY     -1339.863730693893

DIPOLE MOMENT
-------------
                                X             Y             Z
Electronic contribution:     29.62160      -3.33081      13.30953
Nuclear contribution   :    -30.27737       3.34425     -13.70370
                        -----------------------------------------
Total Dipole Moment    :     -0.65577       0.01344      -0.39417
                        -----------------------------------------
Magnitude (a.u.)       :      0.76524
Magnitude (Debye)      :      1.94508

Rotational constants in cm-1:     0.016398     0.010566     0.006860
Rotational constants in MHz :   491.607662   316.766893   205.662375

                             ****ORCA TERMINATED NORMALLY****
TOTAL RUN TIME: 0 days 0 hours 0 minutes 22 seconds 268 msec
