                         Program Version 4.2.1 -  RELEASE  -
|  1> ! wB97X-D3 SP def2-SVP
|  2> %pal
|  3> nprocs 24
|  4> end
|  5>
|  6> * xyz 0 1
|  7> S 	 -85.2663 	 -31.9679 	 -54.8846
|  8> C 	 -83.6032 	 -32.3262 	 -55.1109
|  9> C 	 -82.7438 	 -31.4767 	 -54.5076
| 10> C 	 -83.4856 	 -30.5517 	 -53.6536
| 11> C 	 -84.8345 	 -30.8289 	 -53.6317
| 12> H 	 -83.0593 	 -29.9159 	 -52.8723
| 13> C 	 -81.214 	 -31.4407 	 -54.564
| 14> H 	 -80.7651 	 -32.367 	 -54.1737
| 15> H 	 -80.779 	 -30.8016 	 -53.7909
| 16> C 	 -80.599 	 -31.0088 	 -55.8491
| 17> H 	 -79.4812 	 -31.0478 	 -55.7088
| 18> H 	 -80.8321 	 -31.6064 	 -56.706
| 19> C 	 -80.9682 	 -29.5943 	 -56.2287
| 20> H 	 -80.5597 	 -29.3414 	 -57.2051
| 21> H 	 -82.0678 	 -29.4973 	 -56.2466
| 22> H 	 -80.5821 	 -28.8023 	 -55.5238
| 23> S 	 -87.015 	 -29.0468 	 -53.2566
| 24> C 	 -87.6722 	 -28.8595 	 -51.6208
| 25> C 	 -87.0459 	 -29.6167 	 -50.7154
| 26> C 	 -86.0244 	 -30.4389 	 -51.3276
| 27> C 	 -85.878 	 -30.3079 	 -52.7067
| 28> H 	 -87.3551 	 -29.66 	 -49.7468
| 29> C 	 -85.0878 	 -31.1631 	 -50.3974
| 30> H 	 -84.5036 	 -31.9163 	 -50.9111
| 31> H 	 -85.6935 	 -31.8189 	 -49.7643
| 32> C 	 -84.2605 	 -30.2743 	 -49.4585
| 33> H 	 -84.7964 	 -29.8999 	 -48.6323
| 34> H 	 -84.07 	 -29.4832 	 -50.1045
| 35> C 	 -83.022 	 -30.9287 	 -48.8797
| 36> H 	 -82.2226 	 -30.1151 	 -48.7575
| 37> H 	 -82.5994 	 -31.6282 	 -49.6021
| 38> H 	 -83.0356 	 -31.5048 	 -47.9404
| 39> H 	 -83.1945 	 -33.0848 	 -55.7952
| 40> H 	 -88.4868 	 -28.1954 	 -51.3728
| 41> *
| 42>
| 43>                          ****END OF INPUT****

CARTESIAN COORDINATES (ANGSTROEM)
---------------------------------
  S    -85.266300  -31.967900  -54.884600
  C    -83.603200  -32.326200  -55.110900
  C    -82.743800  -31.476700  -54.507600
  C    -83.485600  -30.551700  -53.653600
  C    -84.834500  -30.828900  -53.631700
  H    -83.059300  -29.915900  -52.872300
  C    -81.214000  -31.440700  -54.564000
  H    -80.765100  -32.367000  -54.173700
  H    -80.779000  -30.801600  -53.790900
  C    -80.599000  -31.008800  -55.849100
  H    -79.481200  -31.047800  -55.708800
  H    -80.832100  -31.606400  -56.706000
  C    -80.968200  -29.594300  -56.228700
  H    -80.559700  -29.341400  -57.205100
  H    -82.067800  -29.497300  -56.246600
  H    -80.582100  -28.802300  -55.523800
  S    -87.015000  -29.046800  -53.256600
  C    -87.672200  -28.859500  -51.620800
  C    -87.045900  -29.616700  -50.715400
  C    -86.024400  -30.438900  -51.327600
  C    -85.878000  -30.307900  -52.706700
  H    -87.355100  -29.660000  -49.746800
  C    -85.087800  -31.163100  -50.397400
  H    -84.503600  -31.916300  -50.911100
  H    -85.693500  -31.818900  -49.764300
  C    -84.260500  -30.274300  -49.458500
  H    -84.796400  -29.899900  -48.632300
  H    -84.070000  -29.483200  -50.104500
  C    -83.022000  -30.928700  -48.879700
  H    -82.222600  -30.115100  -48.757500
  H    -82.599400  -31.628200  -49.602100
  H    -83.035600  -31.504800  -47.940400
  H    -83.194500  -33.084800  -55.795200
  H    -88.486800  -28.195400  -51.372800

 Total Charge           Charge          ....    0
 Multiplicity           Mult            ....    1
 Number of Electrons    NEL             ....  134
 Basis Dimension        Dim             ....  322

ORBITAL ENERGIES
----------------

  NO   OCC          E(Eh)            E(eV)
   0   2.0000     -88.966588     -2420.9039
   1   2.0000     -88.961517     -2420.7660
   2   2.0000     -10.330976      -281.1202
   3   2.0000     -10.330885      -281.1177
   4   2.0000     -10.316440      -280.7246
   5   2.0000     -10.312038      -280.6048
   6   2.0000     -10.304444      -280.3982
   7   2.0000     -10.302499      -280.3452
   8   2.0000     -10.298670      -280.2411
   9   2.0000     -10.293653      -280.1045
  10   2.0000     -10.284686      -279.8605
  11   2.0000     -10.284259      -279.8489
  12   2.0000     -10.283825      -279.8371
  13   2.0000     -10.283648      -279.8323
  14   2.0000     -10.277248      -279.6581
  15   2.0000     -10.275866      -279.6205
  16   2.0000      -8.082275      -219.9299
  17   2.0000      -8.075718      -219.7515
  18   2.0000      -6.040661      -164.3747
  19   2.0000      -6.036869      -164.2716
  20   2.0000      -6.034370      -164.2035
  21   2.0000      -6.032868      -164.1627
  22   2.0000      -6.030389      -164.0952
  23   2.0000      -6.026267      -163.9831
  24   2.0000      -1.006542       -27.3894
  25   2.0000      -0.985726       -26.8230
  26   2.0000      -0.918040       -24.9811
  27   2.0000      -0.910873       -24.7861
  28   2.0000      -0.871009       -23.7014
  29   2.0000      -0.848750       -23.0957
  30   2.0000      -0.846059       -23.0224
  31   2.0000      -0.818509       -22.2728
  32   2.0000      -0.785330       -21.3699
  33   2.0000      -0.770198       -20.9582
  34   2.0000      -0.707600       -19.2548
  35   2.0000      -0.698554       -19.0086
  36   2.0000      -0.694651       -18.9024
  37   2.0000      -0.662946       -18.0397
  38   2.0000      -0.641760       -17.4632
  39   2.0000      -0.614283       -16.7155
  40   2.0000      -0.598827       -16.2949
  41   2.0000      -0.583532       -15.8787
  42   2.0000      -0.569242       -15.4899
  43   2.0000      -0.556693       -15.1484
  44   2.0000      -0.544958       -14.8290
  45   2.0000      -0.524386       -14.2693
  46   2.0000      -0.514001       -13.9867
  47   2.0000      -0.507641       -13.8136
  48   2.0000      -0.505167       -13.7463
  49   2.0000      -0.496506       -13.5106
  50   2.0000      -0.487978       -13.2786
  51   2.0000      -0.475174       -12.9301
  52   2.0000      -0.471902       -12.8411
  53   2.0000      -0.465244       -12.6599
  54   2.0000      -0.460111       -12.5202
  55   2.0000      -0.449912       -12.2427
  56   2.0000      -0.445849       -12.1322
  57   2.0000      -0.437729       -11.9112
  58   2.0000      -0.432889       -11.7795
  59   2.0000      -0.420680       -11.4473
  60   2.0000      -0.417191       -11.3523
  61   2.0000      -0.413032       -11.2392
  62   2.0000      -0.408465       -11.1149
  63   2.0000      -0.341275        -9.2866
  64   2.0000      -0.333555        -9.0765
  65   2.0000      -0.323808        -8.8113
  66   2.0000      -0.308102        -8.3839
  67   0.0000       0.042137         1.1466
  68   0.0000       0.058556         1.5934
  69   0.0000       0.116621         3.1734
  70   0.0000       0.120867         3.2889
  71   0.0000       0.123273         3.3544

MULLIKEN ATOMIC CHARGES
-----------------------
   0 S :    0.128122
   1 C :   -0.109332
   2 C :   -0.110748
   3 C :    0.057718
   4 C :   -0.190308
   5 H :    0.022537
   6 C :    0.078728
   7 H :    0.030984
   8 H :    0.008468
   9 C :   -0.065110
  10 H :    0.032267
  11 H :    0.025731
  12 C :   -0.075194
  13 H :    0.031014
  14 H :    0.047014
  15 H :    0.029426
  16 S :    0.083396
  17 C :   -0.075611
  18 C :    0.017616
  19 C :   -0.059529
  20 C :   -0.138774
  21 H :   -0.014861
  22 C :    0.062487
  23 H :    0.018608
  24 H :    0.011964
  25 C :   -0.010385
  26 H :    0.021414
  27 H :    0.016086
  28 C :   -0.080740
  29 H :    0.038991
  30 H :    0.020814
  31 H :    0.045456
  32 H :    0.047111
  33 H :    0.054639
Sum of atomic charges:   -0.0000000

LOEWDIN ATOMIC CHARGES
----------------------
   0 S :    0.418898
   1 C :   -0.201585
   2 C :   -0.067930
   3 C :   -0.054619
   4 C :   -0.195746
   5 H :    0.034422
   6 C :   -0.039501
   7 H :    0.035502
   8 H :    0.032553
   9 C :   -0.046234
  10 H :    0.030981
  11 H :    0.019508
  12 C :   -0.069272
  13 H :    0.024000
  14 H :    0.028680
  15 H :    0.026631
  16 S :    0.370710
  17 C :   -0.158827
  18 C :   -0.061872
  19 C :   -0.048611
  20 C :   -0.197731
  21 H :    0.018961
  22 C :   -0.036033
  23 H :    0.026624
  24 H :    0.028621
  25 C :   -0.035153
  26 H :    0.021443
  27 H :    0.017953
  28 C :   -0.072775
  29 H :    0.036906
  30 H :    0.022048
  31 H :    0.028485
  32 H :    0.033062
  33 H :    0.029900

  Mayer bond orders larger than 0.100000
B(  0-S ,  1-C ) :   1.1390 B(  0-S ,  4-C ) :   1.1496 B(  1-C ,  2-C ) :   1.6688
B(  1-C , 32-H ) :   0.9593 B(  2-C ,  3-C ) :   1.1997 B(  2-C ,  6-C ) :   1.0083
B(  3-C ,  4-C ) :   1.6247 B(  3-C ,  5-H ) :   0.9903 B(  4-C , 20-C ) :   0.9944
B(  6-C ,  7-H ) :   0.9375 B(  6-C ,  8-H ) :   0.9368 B(  6-C ,  9-C ) :   1.0810
B(  9-C , 10-H ) :   0.9500 B(  9-C , 11-H ) :   0.9578 B(  9-C , 12-C ) :   1.0798
B( 12-C , 13-H ) :   0.9734 B( 12-C , 14-H ) :   0.9740 B( 12-C , 15-H ) :   0.9732
B( 16-S , 17-C ) :   1.1433 B( 16-S , 20-C ) :   1.1136 B( 17-C , 18-C ) :   1.6420
B( 17-C , 33-H ) :   0.9637 B( 18-C , 19-C ) :   1.1969 B( 18-C , 21-H ) :   1.0100
B( 19-C , 20-C ) :   1.6441 B( 19-C , 22-C ) :   1.0731 B( 22-C , 23-H ) :   0.9366
B( 22-C , 24-H ) :   0.9212 B( 22-C , 25-C ) :   1.0532 B( 25-C , 26-H ) :   0.9456
B( 25-C , 27-H ) :   0.9594 B( 25-C , 28-C ) :   1.0815 B( 28-C , 29-H ) :   0.9742
B( 28-C , 30-H ) :   0.9761 B( 28-C , 31-H ) :   0.9777

Dispersion correction           -0.014632465
FINAL SINGLE POINT ENERGY     -1339.869224046498

DIPOLE MOMENT
-------------
                                X             Y             Z
Electronic contribution:    -24.76032      -0.08977      -9.43452
Nuclear contribution   :     25.29767       0.03048       9.93346
                        -----------------------------------------
Total Dipole Moment    :      0.53735      -0.05929       0.49894
                        -----------------------------------------
Magnitude (a.u.)       :      0.73566
Magnitude (Debye)      :      1.86991

Rotational constants in cm-1:     0.018233     0.008643     0.006934
Rotational constants in MHz :   546.613069   259.102067   207.887018

                             ****ORCA TERMINATED NORMALLY****
TOTAL RUN TIME: 0 days 0 hours 0 minutes 21 seconds 570 msec
