                         Program Version 4.2.1 -  RELEASE  -
|  1> ! wB97X-D3 SP def2-SVP
|  2> %pal
|  3> nprocs 24
|  4> end
|  5>
|  6> * xyz 0 1
|  7> S 	 47.2488 	 -25.0123 	 -117.25
|  8> C 	 47.0243 	 -26.3306 	 -116.045
|  9> C 	 48.2225 	 -26.9998 	 -115.766
| 10> C 	 49.3504 	 -26.5626 	 -116.589
| 11> C 	 48.9693 	 -25.508 	 -117.426
| 12> H 	 50.3514 	 -26.8825 	 -116.488
| 13> C 	 48.494 	 -28.0019 	 -114.682
| 14> H 	 49.4799 	 -28.5032 	 -114.738
| 15> H 	 47.7285 	 -28.8224 	 -114.979
| 16> C 	 48.1673 	 -27.5389 	 -113.268
| 17> H 	 47.4134 	 -26.7679 	 -113.129
| 18> H 	 47.6183 	 -28.3673 	 -112.841
| 19> C 	 49.4276 	 -27.2168 	 -112.431
| 20> H 	 49.1156 	 -26.9772 	 -111.404
| 21> H 	 50.0068 	 -28.0723 	 -112.284
| 22> H 	 49.971 	 -26.3721 	 -112.861
| 23> S 	 51.2074 	 -25.4091 	 -118.933
| 24> C 	 51.9568 	 -23.8235 	 -119.251
| 25> C 	 51.2101 	 -22.7746 	 -118.766
| 26> C 	 50.0033 	 -23.2661 	 -118.181
| 27> C 	 49.9914 	 -24.5897 	 -118.021
| 28> H 	 51.6505 	 -21.8328 	 -118.89
| 29> C 	 48.9007 	 -22.2685 	 -117.836
| 30> H 	 49.3045 	 -21.273 	 -117.586
| 31> H 	 48.3732 	 -22.6 	 -116.971
| 32> C 	 47.7826 	 -22.0161 	 -118.824
| 33> H 	 47.1548 	 -22.8569 	 -118.998
| 34> H 	 48.1425 	 -21.6469 	 -119.745
| 35> C 	 46.7272 	 -21.1442 	 -118.005
| 36> H 	 45.7818 	 -20.8584 	 -118.528
| 37> H 	 47.153 	 -20.1721 	 -117.642
| 38> H 	 46.52 	 -21.6229 	 -117.075
| 39> H 	 46.088 	 -26.4862 	 -115.414
| 40> H 	 52.958 	 -23.7178 	 -119.596
| 41> *
| 42>
| 43>                          ****END OF INPUT****

CARTESIAN COORDINATES (ANGSTROEM)
---------------------------------
  S     47.248800  -25.012300  -117.250000
  C     47.024300  -26.330600  -116.045000
  C     48.222500  -26.999800  -115.766000
  C     49.350400  -26.562600  -116.589000
  C     48.969300  -25.508000  -117.426000
  H     50.351400  -26.882500  -116.488000
  C     48.494000  -28.001900  -114.682000
  H     49.479900  -28.503200  -114.738000
  H     47.728500  -28.822400  -114.979000
  C     48.167300  -27.538900  -113.268000
  H     47.413400  -26.767900  -113.129000
  H     47.618300  -28.367300  -112.841000
  C     49.427600  -27.216800  -112.431000
  H     49.115600  -26.977200  -111.404000
  H     50.006800  -28.072300  -112.284000
  H     49.971000  -26.372100  -112.861000
  S     51.207400  -25.409100  -118.933000
  C     51.956800  -23.823500  -119.251000
  C     51.210100  -22.774600  -118.766000
  C     50.003300  -23.266100  -118.181000
  C     49.991400  -24.589700  -118.021000
  H     51.650500  -21.832800  -118.890000
  C     48.900700  -22.268500  -117.836000
  H     49.304500  -21.273000  -117.586000
  H     48.373200  -22.600000  -116.971000
  C     47.782600  -22.016100  -118.824000
  H     47.154800  -22.856900  -118.998000
  H     48.142500  -21.646900  -119.745000
  C     46.727200  -21.144200  -118.005000
  H     45.781800  -20.858400  -118.528000
  H     47.153000  -20.172100  -117.642000
  H     46.520000  -21.622900  -117.075000
  H     46.088000  -26.486200  -115.414000
  H     52.958000  -23.717800  -119.596000

 Total Charge           Charge          ....    0
 Multiplicity           Mult            ....    1
 Number of Electrons    NEL             ....  134
 Basis Dimension        Dim             ....  322

ORBITAL ENERGIES
----------------

  NO   OCC          E(Eh)            E(eV)
   0   2.0000     -88.974078     -2421.1078
   1   2.0000     -88.962874     -2420.8029
   2   2.0000     -10.337705      -281.3033
   3   2.0000     -10.324105      -280.9332
   4   2.0000     -10.321917      -280.8736
   5   2.0000     -10.312363      -280.6137
   6   2.0000     -10.307999      -280.4949
   7   2.0000     -10.300066      -280.2790
   8   2.0000     -10.297993      -280.2226
   9   2.0000     -10.296895      -280.1928
  10   2.0000     -10.290251      -280.0120
  11   2.0000     -10.285551      -279.8841
  12   2.0000     -10.284646      -279.8595
  13   2.0000     -10.280944      -279.7587
  14   2.0000     -10.280691      -279.7518
  15   2.0000     -10.276102      -279.6269
  16   2.0000      -8.086093      -220.0338
  17   2.0000      -8.077739      -219.8065
  18   2.0000      -6.044818      -164.4879
  19   2.0000      -6.041128      -164.3874
  20   2.0000      -6.036647      -164.2655
  21   2.0000      -6.036303      -164.2561
  22   2.0000      -6.032444      -164.1511
  23   2.0000      -6.028232      -164.0365
  24   2.0000      -1.006349       -27.3841
  25   2.0000      -0.975321       -26.5398
  26   2.0000      -0.911608       -24.8061
  27   2.0000      -0.909022       -24.7358
  28   2.0000      -0.866388       -23.5756
  29   2.0000      -0.850990       -23.1566
  30   2.0000      -0.843199       -22.9446
  31   2.0000      -0.813553       -22.1379
  32   2.0000      -0.777246       -21.1499
  33   2.0000      -0.767350       -20.8807
  34   2.0000      -0.709896       -19.3172
  35   2.0000      -0.705387       -19.1946
  36   2.0000      -0.691347       -18.8125
  37   2.0000      -0.668769       -18.1981
  38   2.0000      -0.635061       -17.2809
  39   2.0000      -0.613440       -16.6926
  40   2.0000      -0.597555       -16.2603
  41   2.0000      -0.571888       -15.5619
  42   2.0000      -0.569662       -15.5013
  43   2.0000      -0.556136       -15.1332
  44   2.0000      -0.528989       -14.3945
  45   2.0000      -0.519893       -14.1470
  46   2.0000      -0.515381       -14.0242
  47   2.0000      -0.512813       -13.9543
  48   2.0000      -0.508363       -13.8333
  49   2.0000      -0.494414       -13.4537
  50   2.0000      -0.488026       -13.2799
  51   2.0000      -0.472742       -12.8640
  52   2.0000      -0.467176       -12.7125
  53   2.0000      -0.459374       -12.5002
  54   2.0000      -0.457389       -12.4462
  55   2.0000      -0.449230       -12.2242
  56   2.0000      -0.446309       -12.1447
  57   2.0000      -0.440155       -11.9772
  58   2.0000      -0.436148       -11.8682
  59   2.0000      -0.429828       -11.6962
  60   2.0000      -0.422173       -11.4879
  61   2.0000      -0.409345       -11.1388
  62   2.0000      -0.403418       -10.9776
  63   2.0000      -0.352034        -9.5793
  64   2.0000      -0.332874        -9.0580
  65   2.0000      -0.324503        -8.8302
  66   2.0000      -0.288750        -7.8573
  67   0.0000       0.024160         0.6574
  68   0.0000       0.075769         2.0618
  69   0.0000       0.096844         2.6353
  70   0.0000       0.109523         2.9803
  71   0.0000       0.125208         3.4071

MULLIKEN ATOMIC CHARGES
-----------------------
   0 S :    0.078010
   1 C :   -0.135178
   2 C :   -0.077845
   3 C :    0.011957
   4 C :   -0.081901
   5 H :    0.012766
   6 C :    0.012430
   7 H :    0.035629
   8 H :    0.051637
   9 C :   -0.059008
  10 H :    0.025685
  11 H :    0.014011
  12 C :   -0.034654
  13 H :    0.026335
  14 H :    0.021496
  15 H :    0.047848
  16 S :    0.089180
  17 C :   -0.094086
  18 C :   -0.010432
  19 C :   -0.032476
  20 C :   -0.118707
  21 H :    0.003293
  22 C :    0.018738
  23 H :    0.019749
  24 H :    0.010913
  25 C :   -0.011053
  26 H :    0.026908
  27 H :    0.023703
  28 C :   -0.075902
  29 H :    0.045352
  30 H :    0.017783
  31 H :    0.020304
  32 H :    0.071926
  33 H :    0.045592
Sum of atomic charges:   -0.0000000

LOEWDIN ATOMIC CHARGES
----------------------
   0 S :    0.390763
   1 C :   -0.209235
   2 C :   -0.055225
   3 C :   -0.057005
   4 C :   -0.167654
   5 H :    0.024425
   6 C :   -0.042275
   7 H :    0.034950
   8 H :    0.048731
   9 C :   -0.045542
  10 H :    0.024340
  11 H :    0.023577
  12 C :   -0.058766
  13 H :    0.028865
  14 H :    0.015807
  15 H :    0.029713
  16 S :    0.394208
  17 C :   -0.168026
  18 C :   -0.055881
  19 C :   -0.067218
  20 C :   -0.189988
  21 H :    0.028317
  22 C :   -0.037441
  23 H :    0.031367
  24 H :    0.013832
  25 C :   -0.028783
  26 H :    0.012456
  27 H :    0.016778
  28 C :   -0.066933
  29 H :    0.028766
  30 H :    0.022195
  31 H :    0.018958
  32 H :    0.042103
  33 H :    0.019824

  Mayer bond orders larger than 0.100000
B(  0-S ,  1-C ) :   1.1028 B(  0-S ,  4-C ) :   1.1372 B(  1-C ,  2-C ) :   1.6438
B(  1-C , 32-H ) :   0.9551 B(  2-C ,  3-C ) :   1.2257 B(  2-C ,  6-C ) :   1.0191
B(  3-C ,  4-C ) :   1.5624 B(  3-C ,  5-H ) :   0.9950 B(  4-C , 20-C ) :   1.0055
B(  6-C ,  7-H ) :   0.9513 B(  6-C ,  8-H ) :   0.9405 B(  6-C ,  9-C ) :   1.0412
B(  9-C , 10-H ) :   0.9619 B(  9-C , 11-H ) :   0.9522 B(  9-C , 12-C ) :   1.0855
B( 12-C , 13-H ) :   0.9719 B( 12-C , 14-H ) :   0.9766 B( 12-C , 15-H ) :   0.9776
B( 16-S , 17-C ) :   1.1300 B( 16-S , 20-C ) :   1.1259 B( 17-C , 18-C ) :   1.6622
B( 17-C , 33-H ) :   0.9649 B( 18-C , 19-C ) :   1.1717 B( 18-C , 21-H ) :   1.0067
B( 19-C , 20-C ) :   1.6702 B( 19-C , 22-C ) :   1.0322 B( 22-C , 23-H ) :   0.9387
B( 22-C , 24-H ) :   0.9320 B( 22-C , 25-C ) :   1.0679 B( 25-C , 26-H ) :   0.9508
B( 25-C , 27-H ) :   0.9577 B( 25-C , 28-C ) :   1.0542 B( 28-C , 29-H ) :   0.9756
B( 28-C , 30-H ) :   0.9746 B( 28-C , 31-H ) :   0.9729

Dispersion correction           -0.014185763
FINAL SINGLE POINT ENERGY     -1339.845122267318

DIPOLE MOMENT
-------------
                                X             Y             Z
Electronic contribution:      7.50389      -4.65141     -16.48869
Nuclear contribution   :     -7.43714       4.70801      17.06879
                        -----------------------------------------
Total Dipole Moment    :      0.06675       0.05660       0.58010
                        -----------------------------------------
Magnitude (a.u.)       :      0.58667
Magnitude (Debye)      :      1.49119

Rotational constants in cm-1:     0.018671     0.008811     0.006923
Rotational constants in MHz :   559.737219   264.139385   207.558637

                             ****ORCA TERMINATED NORMALLY****
TOTAL RUN TIME: 0 days 0 hours 0 minutes 21 seconds 381 msec
