                         Program Version 4.2.1 -  RELEASE  -
|  1> ! wB97X-D3 SP def2-SVP
|  2> %pal
|  3> nprocs 24
|  4> end
|  5>
|  6> * xyz 0 1
|  7> S 	 -87.2019 	 -47.541 	 -80.8996
|  8> C 	 -88.4118 	 -47.1628 	 -79.7131
|  9> C 	 -88.8759 	 -48.3451 	 -79.1577
| 10> C 	 -88.1566 	 -49.5027 	 -79.5019
| 11> C 	 -87.1798 	 -49.2242 	 -80.4186
| 12> H 	 -88.3188 	 -50.4658 	 -79.258
| 13> C 	 -90.118 	 -48.4353 	 -78.3114
| 14> H 	 -90.7602 	 -48.9873 	 -78.9566
| 15> H 	 -90.6338 	 -47.4284 	 -78.1963
| 16> C 	 -89.9152 	 -49.0249 	 -76.8867
| 17> H 	 -90.8866 	 -49.0823 	 -76.4282
| 18> H 	 -89.4253 	 -49.9977 	 -76.8983
| 19> C 	 -88.9454 	 -48.2369 	 -75.9683
| 20> H 	 -87.8956 	 -48.3212 	 -76.334
| 21> H 	 -89.3329 	 -47.2227 	 -75.6851
| 22> H 	 -89.0093 	 -48.7118 	 -74.9971
| 23> S 	 -86.579 	 -50.4205 	 -82.93
| 24> C 	 -85.3794 	 -51.7313 	 -82.9706
| 25> C 	 -84.7415 	 -51.819 	 -81.7332
| 26> C 	 -85.2595 	 -50.8925 	 -80.747
| 27> C 	 -86.2653 	 -50.036 	 -81.2007
| 28> H 	 -84.1389 	 -52.7047 	 -81.5967
| 29> C 	 -84.8404 	 -51.151 	 -79.2915
| 30> H 	 -84.5817 	 -52.1814 	 -79.0489
| 31> H 	 -85.6507 	 -50.8666 	 -78.6561
| 32> C 	 -83.5815 	 -50.2947 	 -78.8841
| 33> H 	 -82.8663 	 -50.2446 	 -79.6543
| 34> H 	 -83.1128 	 -50.9276 	 -78.1341
| 35> C 	 -84.0495 	 -48.8857 	 -78.315
| 36> H 	 -84.4968 	 -48.255 	 -79.0434
| 37> H 	 -83.0984 	 -48.4028 	 -78.0579
| 38> H 	 -84.7346 	 -49.0251 	 -77.4668
| 39> H 	 -88.9001 	 -46.2669 	 -79.6278
| 40> H 	 -85.1473 	 -52.3893 	 -83.8055
| 41> *
| 42>
| 43>                          ****END OF INPUT****

CARTESIAN COORDINATES (ANGSTROEM)
---------------------------------
  S    -87.201900  -47.541000  -80.899600
  C    -88.411800  -47.162800  -79.713100
  C    -88.875900  -48.345100  -79.157700
  C    -88.156600  -49.502700  -79.501900
  C    -87.179800  -49.224200  -80.418600
  H    -88.318800  -50.465800  -79.258000
  C    -90.118000  -48.435300  -78.311400
  H    -90.760200  -48.987300  -78.956600
  H    -90.633800  -47.428400  -78.196300
  C    -89.915200  -49.024900  -76.886700
  H    -90.886600  -49.082300  -76.428200
  H    -89.425300  -49.997700  -76.898300
  C    -88.945400  -48.236900  -75.968300
  H    -87.895600  -48.321200  -76.334000
  H    -89.332900  -47.222700  -75.685100
  H    -89.009300  -48.711800  -74.997100
  S    -86.579000  -50.420500  -82.930000
  C    -85.379400  -51.731300  -82.970600
  C    -84.741500  -51.819000  -81.733200
  C    -85.259500  -50.892500  -80.747000
  C    -86.265300  -50.036000  -81.200700
  H    -84.138900  -52.704700  -81.596700
  C    -84.840400  -51.151000  -79.291500
  H    -84.581700  -52.181400  -79.048900
  H    -85.650700  -50.866600  -78.656100
  C    -83.581500  -50.294700  -78.884100
  H    -82.866300  -50.244600  -79.654300
  H    -83.112800  -50.927600  -78.134100
  C    -84.049500  -48.885700  -78.315000
  H    -84.496800  -48.255000  -79.043400
  H    -83.098400  -48.402800  -78.057900
  H    -84.734600  -49.025100  -77.466800
  H    -88.900100  -46.266900  -79.627800
  H    -85.147300  -52.389300  -83.805500

 Total Charge           Charge          ....    0
 Multiplicity           Mult            ....    1
 Number of Electrons    NEL             ....  134
 Basis Dimension        Dim             ....  322

ORBITAL ENERGIES
----------------

  NO   OCC          E(Eh)            E(eV)
   0   2.0000     -88.965387     -2420.8713
   1   2.0000     -88.962833     -2420.8018
   2   2.0000     -10.330223      -281.0997
   3   2.0000     -10.329775      -281.0875
   4   2.0000     -10.324016      -280.9308
   5   2.0000     -10.308566      -280.5103
   6   2.0000     -10.306083      -280.4428
   7   2.0000     -10.299133      -280.2536
   8   2.0000     -10.295583      -280.1571
   9   2.0000     -10.293186      -280.0918
  10   2.0000     -10.289174      -279.9827
  11   2.0000     -10.288499      -279.9643
  12   2.0000     -10.287838      -279.9463
  13   2.0000     -10.282188      -279.7926
  14   2.0000     -10.282112      -279.7905
  15   2.0000     -10.273944      -279.5682
  16   2.0000      -8.078833      -219.8362
  17   2.0000      -8.077898      -219.8108
  18   2.0000      -6.037576      -164.2908
  19   2.0000      -6.036277      -164.2555
  20   2.0000      -6.033417      -164.1776
  21   2.0000      -6.032281      -164.1467
  22   2.0000      -6.029493      -164.0709
  23   2.0000      -6.028837      -164.0530
  24   2.0000      -1.007725       -27.4216
  25   2.0000      -0.978612       -26.6294
  26   2.0000      -0.909344       -24.7445
  27   2.0000      -0.897626       -24.4256
  28   2.0000      -0.869393       -23.6574
  29   2.0000      -0.851942       -23.1825
  30   2.0000      -0.836451       -22.7610
  31   2.0000      -0.818588       -22.2749
  32   2.0000      -0.781374       -21.2623
  33   2.0000      -0.768983       -20.9251
  34   2.0000      -0.710534       -19.3346
  35   2.0000      -0.696481       -18.9522
  36   2.0000      -0.694120       -18.8880
  37   2.0000      -0.656322       -17.8594
  38   2.0000      -0.654098       -17.7989
  39   2.0000      -0.626373       -17.0445
  40   2.0000      -0.594899       -16.1880
  41   2.0000      -0.569931       -15.5086
  42   2.0000      -0.551971       -15.0199
  43   2.0000      -0.548424       -14.9234
  44   2.0000      -0.541914       -14.7462
  45   2.0000      -0.526912       -14.3380
  46   2.0000      -0.523849       -14.2546
  47   2.0000      -0.513810       -13.9815
  48   2.0000      -0.504041       -13.7157
  49   2.0000      -0.501182       -13.6378
  50   2.0000      -0.489050       -13.3077
  51   2.0000      -0.470643       -12.8068
  52   2.0000      -0.466969       -12.7069
  53   2.0000      -0.466160       -12.6849
  54   2.0000      -0.460029       -12.5180
  55   2.0000      -0.448295       -12.1987
  56   2.0000      -0.442238       -12.0339
  57   2.0000      -0.436796       -11.8858
  58   2.0000      -0.436016       -11.8646
  59   2.0000      -0.424318       -11.5463
  60   2.0000      -0.416222       -11.3260
  61   2.0000      -0.408185       -11.1073
  62   2.0000      -0.403582       -10.9820
  63   2.0000      -0.342599        -9.3226
  64   2.0000      -0.328746        -8.9456
  65   2.0000      -0.325017        -8.8442
  66   2.0000      -0.299779        -8.1574
  67   0.0000       0.035199         0.9578
  68   0.0000       0.054404         1.4804
  69   0.0000       0.111914         3.0453
  70   0.0000       0.114913         3.1270
  71   0.0000       0.128542         3.4978

MULLIKEN ATOMIC CHARGES
-----------------------
   0 S :    0.099307
   1 C :   -0.062107
   2 C :   -0.115080
   3 C :    0.101326
   4 C :   -0.196102
   5 H :   -0.031933
   6 C :    0.072883
   7 H :    0.033562
   8 H :    0.022966
   9 C :   -0.081280
  10 H :    0.030700
  11 H :    0.030565
  12 C :   -0.072145
  13 H :    0.060082
  14 H :    0.031293
  15 H :    0.025206
  16 S :    0.099223
  17 C :   -0.109255
  18 C :   -0.030924
  19 C :   -0.024848
  20 C :   -0.123318
  21 H :    0.026395
  22 C :    0.061461
  23 H :    0.025456
  24 H :    0.004637
  25 C :   -0.062045
  26 H :    0.018837
  27 H :    0.017542
  28 C :   -0.041533
  29 H :    0.033845
  30 H :    0.033820
  31 H :    0.040297
  32 H :    0.014454
  33 H :    0.066713
Sum of atomic charges:    0.0000000

LOEWDIN ATOMIC CHARGES
----------------------
   0 S :    0.415861
   1 C :   -0.190951
   2 C :   -0.057937
   3 C :   -0.048213
   4 C :   -0.177322
   5 H :    0.016294
   6 C :   -0.034318
   7 H :    0.030324
   8 H :    0.034090
   9 C :   -0.040210
  10 H :    0.022789
  11 H :    0.023498
  12 C :   -0.071938
  13 H :    0.033328
  14 H :    0.026767
  15 H :    0.025277
  16 S :    0.375482
  17 C :   -0.173494
  18 C :   -0.076566
  19 C :   -0.045175
  20 C :   -0.208686
  21 H :    0.032181
  22 C :   -0.026834
  23 H :    0.028270
  24 H :    0.020904
  25 C :   -0.028618
  26 H :    0.014786
  27 H :    0.020311
  28 C :   -0.059302
  29 H :    0.019098
  30 H :    0.027725
  31 H :    0.026887
  32 H :    0.010710
  33 H :    0.034983

  Mayer bond orders larger than 0.100000
B(  0-S ,  1-C ) :   1.1346 B(  0-S ,  4-C ) :   1.1722 B(  1-C ,  2-C ) :   1.6017
B(  1-C ,  4-C ) :   0.1030 B(  1-C , 32-H ) :   0.9807 B(  2-C ,  3-C ) :   1.2202
B(  2-C ,  6-C ) :   1.0156 B(  3-C ,  4-C ) :   1.5789 B(  3-C ,  5-H ) :   1.0206
B(  4-C , 20-C ) :   1.0084 B(  6-C ,  7-H ) :   0.9386 B(  6-C ,  8-H ) :   0.9438
B(  6-C ,  9-C ) :   1.0637 B(  9-C , 10-H ) :   0.9578 B(  9-C , 11-H ) :   0.9586
B(  9-C , 12-C ) :   1.0790 B( 12-C , 13-H ) :   0.9730 B( 12-C , 14-H ) :   0.9732
B( 12-C , 15-H ) :   0.9718 B( 16-S , 17-C ) :   1.1511 B( 16-S , 20-C ) :   1.1117
B( 17-C , 18-C ) :   1.6292 B( 17-C , 33-H ) :   0.9643 B( 18-C , 19-C ) :   1.2228
B( 18-C , 21-H ) :   0.9879 B( 19-C , 20-C ) :   1.6080 B( 19-C , 22-C ) :   1.0427
B( 22-C , 23-H ) :   0.9516 B( 22-C , 24-H ) :   0.9360 B( 22-C , 25-C ) :   1.0568
B( 25-C , 26-H ) :   0.9620 B( 25-C , 27-H ) :   0.9593 B( 25-C , 28-C ) :   1.0700
B( 28-C , 29-H ) :   0.9764 B( 28-C , 30-H ) :   0.9754 B( 28-C , 31-H ) :   0.9762

Dispersion correction           -0.015405057
FINAL SINGLE POINT ENERGY     -1339.860823308503

DIPOLE MOMENT
-------------
                                X             Y             Z
Electronic contribution:     -0.50386       0.77697     -26.79023
Nuclear contribution   :      0.30094      -1.28024      27.29923
                        -----------------------------------------
Total Dipole Moment    :     -0.20292      -0.50327       0.50900
                        -----------------------------------------
Magnitude (a.u.)       :      0.74400
Magnitude (Debye)      :      1.89111

Rotational constants in cm-1:     0.019713     0.009141     0.007651
Rotational constants in MHz :   590.989344   274.051461   229.365143

                             ****ORCA TERMINATED NORMALLY****
TOTAL RUN TIME: 0 days 0 hours 0 minutes 22 seconds 456 msec
