                         Program Version 4.2.1 -  RELEASE  -
|  1> ! wB97X-D3 SP def2-SVP
|  2> %pal
|  3> nprocs 24
|  4> end
|  5>
|  6> * xyz 0 1
|  7> S 	 -43.7933 	 -52.1623 	 -74.4967
|  8> C 	 -43.0932 	 -53.6963 	 -75.1289
|  9> C 	 -42.1565 	 -53.3269 	 -76.0597
| 10> C 	 -41.9022 	 -51.9068 	 -76.1318
| 11> C 	 -42.6102 	 -51.1465 	 -75.2731
| 12> H 	 -41.2445 	 -51.3805 	 -76.7419
| 13> C 	 -41.3381 	 -54.3169 	 -76.8225
| 14> H 	 -41.1215 	 -54.0379 	 -77.7926
| 15> H 	 -42.0188 	 -55.1334 	 -77.0237
| 16> C 	 -40.0319 	 -55.0048 	 -76.2255
| 17> H 	 -40.3555 	 -55.3999 	 -75.2966
| 18> H 	 -39.6182 	 -55.7146 	 -76.9422
| 19> C 	 -38.9569 	 -54.0038 	 -75.8408
| 20> H 	 -38.1457 	 -54.5378 	 -75.3152
| 21> H 	 -38.5186 	 -53.665 	 -76.7142
| 22> H 	 -39.2837 	 -53.1686 	 -75.2667
| 23> S 	 -44.0851 	 -49.1076 	 -76.2768
| 24> C 	 -43.5253 	 -47.5245 	 -76.1138
| 25> C 	 -42.4863 	 -47.4132 	 -75.244
| 26> C 	 -42.0062 	 -48.6913 	 -74.776
| 27> C 	 -42.7931 	 -49.706 	 -75.2752
| 28> H 	 -42.0372 	 -46.4399 	 -75.0415
| 29> C 	 -40.7219 	 -48.8756 	 -74.0268
| 30> H 	 -40.76 	 -49.8184 	 -73.5318
| 31> H 	 -40.6943 	 -48.1449 	 -73.1282
| 32> C 	 -39.4461 	 -48.9268 	 -74.8529
| 33> H 	 -39.4113 	 -48.1546 	 -75.5389
| 34> H 	 -39.3649 	 -49.8678 	 -75.4825
| 35> C 	 -38.1977 	 -48.8308 	 -73.9657
| 36> H 	 -38.4034 	 -48.5091 	 -72.9679
| 37> H 	 -37.6205 	 -47.9672 	 -74.3028
| 38> H 	 -37.6816 	 -49.7857 	 -73.819
| 39> H 	 -43.167 	 -54.6618 	 -74.6155
| 40> H 	 -44.0613 	 -46.6807 	 -76.5047
| 41> *
| 42>
| 43>                          ****END OF INPUT****

CARTESIAN COORDINATES (ANGSTROEM)
---------------------------------
  S    -43.793300  -52.162300  -74.496700
  C    -43.093200  -53.696300  -75.128900
  C    -42.156500  -53.326900  -76.059700
  C    -41.902200  -51.906800  -76.131800
  C    -42.610200  -51.146500  -75.273100
  H    -41.244500  -51.380500  -76.741900
  C    -41.338100  -54.316900  -76.822500
  H    -41.121500  -54.037900  -77.792600
  H    -42.018800  -55.133400  -77.023700
  C    -40.031900  -55.004800  -76.225500
  H    -40.355500  -55.399900  -75.296600
  H    -39.618200  -55.714600  -76.942200
  C    -38.956900  -54.003800  -75.840800
  H    -38.145700  -54.537800  -75.315200
  H    -38.518600  -53.665000  -76.714200
  H    -39.283700  -53.168600  -75.266700
  S    -44.085100  -49.107600  -76.276800
  C    -43.525300  -47.524500  -76.113800
  C    -42.486300  -47.413200  -75.244000
  C    -42.006200  -48.691300  -74.776000
  C    -42.793100  -49.706000  -75.275200
  H    -42.037200  -46.439900  -75.041500
  C    -40.721900  -48.875600  -74.026800
  H    -40.760000  -49.818400  -73.531800
  H    -40.694300  -48.144900  -73.128200
  C    -39.446100  -48.926800  -74.852900
  H    -39.411300  -48.154600  -75.538900
  H    -39.364900  -49.867800  -75.482500
  C    -38.197700  -48.830800  -73.965700
  H    -38.403400  -48.509100  -72.967900
  H    -37.620500  -47.967200  -74.302800
  H    -37.681600  -49.785700  -73.819000
  H    -43.167000  -54.661800  -74.615500
  H    -44.061300  -46.680700  -76.504700

 Total Charge           Charge          ....    0
 Multiplicity           Mult            ....    1
 Number of Electrons    NEL             ....  134
 Basis Dimension        Dim             ....  322

ORBITAL ENERGIES
----------------

  NO   OCC          E(Eh)            E(eV)
   0   2.0000     -88.963768     -2420.8272
   1   2.0000     -88.957413     -2420.6543
   2   2.0000     -10.324492      -280.9437
   3   2.0000     -10.321761      -280.8694
   4   2.0000     -10.319614      -280.8110
   5   2.0000     -10.309636      -280.5395
   6   2.0000     -10.304847      -280.4091
   7   2.0000     -10.303175      -280.3636
   8   2.0000     -10.292742      -280.0798
   9   2.0000     -10.291365      -280.0423
  10   2.0000     -10.288165      -279.9552
  11   2.0000     -10.286623      -279.9133
  12   2.0000     -10.284380      -279.8522
  13   2.0000     -10.281398      -279.7711
  14   2.0000     -10.274495      -279.5832
  15   2.0000     -10.266103      -279.3549
  16   2.0000      -8.080177      -219.8728
  17   2.0000      -8.072132      -219.6539
  18   2.0000      -6.038561      -164.3176
  19   2.0000      -6.034434      -164.2053
  20   2.0000      -6.030967      -164.1109
  21   2.0000      -6.030823      -164.1070
  22   2.0000      -6.026496      -163.9893
  23   2.0000      -6.022800      -163.8887
  24   2.0000      -1.014200       -27.5978
  25   2.0000      -0.988493       -26.8983
  26   2.0000      -0.913749       -24.8644
  27   2.0000      -0.910685       -24.7810
  28   2.0000      -0.873997       -23.7827
  29   2.0000      -0.854954       -23.2645
  30   2.0000      -0.843147       -22.9432
  31   2.0000      -0.821311       -22.3490
  32   2.0000      -0.785937       -21.3864
  33   2.0000      -0.773989       -21.0613
  34   2.0000      -0.708324       -19.2745
  35   2.0000      -0.703027       -19.1303
  36   2.0000      -0.697784       -18.9877
  37   2.0000      -0.660275       -17.9670
  38   2.0000      -0.648158       -17.6373
  39   2.0000      -0.615997       -16.7621
  40   2.0000      -0.602591       -16.3973
  41   2.0000      -0.583116       -15.8674
  42   2.0000      -0.564347       -15.3567
  43   2.0000      -0.548346       -14.9212
  44   2.0000      -0.543940       -14.8014
  45   2.0000      -0.525005       -14.2861
  46   2.0000      -0.519845       -14.1457
  47   2.0000      -0.515995       -14.0409
  48   2.0000      -0.513941       -13.9850
  49   2.0000      -0.501027       -13.6336
  50   2.0000      -0.492311       -13.3965
  51   2.0000      -0.480221       -13.0675
  52   2.0000      -0.472991       -12.8707
  53   2.0000      -0.462857       -12.5950
  54   2.0000      -0.459673       -12.5083
  55   2.0000      -0.450844       -12.2681
  56   2.0000      -0.448547       -12.2056
  57   2.0000      -0.438448       -11.9308
  58   2.0000      -0.425946       -11.5906
  59   2.0000      -0.424209       -11.5433
  60   2.0000      -0.416136       -11.3236
  61   2.0000      -0.412683       -11.2297
  62   2.0000      -0.408615       -11.1190
  63   2.0000      -0.340002        -9.2519
  64   2.0000      -0.329923        -8.9776
  65   2.0000      -0.323312        -8.7978
  66   2.0000      -0.310219        -8.4415
  67   0.0000       0.041550         1.1306
  68   0.0000       0.055385         1.5071
  69   0.0000       0.115427         3.1409
  70   0.0000       0.122977         3.3464
  71   0.0000       0.124652         3.3920

MULLIKEN ATOMIC CHARGES
-----------------------
   0 S :    0.073193
   1 C :   -0.125895
   2 C :   -0.083561
   3 C :    0.073342
   4 C :   -0.159995
   5 H :   -0.016348
   6 C :    0.070131
   7 H :   -0.001937
   8 H :    0.015060
   9 C :   -0.038967
  10 H :    0.012135
  11 H :    0.039153
  12 C :   -0.034158
  13 H :    0.030462
  14 H :    0.002687
  15 H :    0.036379
  16 S :    0.134124
  17 C :   -0.082144
  18 C :   -0.038880
  19 C :   -0.021464
  20 C :   -0.181204
  21 H :    0.018132
  22 C :    0.041876
  23 H :    0.019046
  24 H :    0.042121
  25 C :   -0.045932
  26 H :    0.005504
  27 H :    0.038992
  28 C :   -0.039020
  29 H :    0.009277
  30 H :    0.032864
  31 H :    0.046410
  32 H :    0.076032
  33 H :    0.052583
Sum of atomic charges:    0.0000000

LOEWDIN ATOMIC CHARGES
----------------------
   0 S :    0.377465
   1 C :   -0.179716
   2 C :   -0.060589
   3 C :   -0.055786
   4 C :   -0.193432
   5 H :    0.020525
   6 C :   -0.036356
   7 H :    0.017338
   8 H :    0.032299
   9 C :   -0.023863
  10 H :    0.015437
  11 H :    0.029146
  12 C :   -0.061795
  13 H :    0.029699
  14 H :    0.011584
  15 H :    0.021634
  16 S :    0.439088
  17 C :   -0.198202
  18 C :   -0.075464
  19 C :   -0.051559
  20 C :   -0.209675
  21 H :    0.032226
  22 C :   -0.039298
  23 H :    0.028800
  24 H :    0.040904
  25 C :   -0.035814
  26 H :    0.009945
  27 H :    0.033613
  28 C :   -0.068412
  29 H :    0.019721
  30 H :    0.032559
  31 H :    0.030759
  32 H :    0.040022
  33 H :    0.027197

  Mayer bond orders larger than 0.100000
B(  0-S ,  1-C ) :   1.1215 B(  0-S ,  4-C ) :   1.1455 B(  1-C ,  2-C ) :   1.6167
B(  1-C , 32-H ) :   0.9688 B(  2-C ,  3-C ) :   1.1968 B(  2-C ,  6-C ) :   1.0361
B(  3-C ,  4-C ) :   1.6134 B(  3-C ,  5-H ) :   1.0087 B(  4-C , 20-C ) :   0.9869
B(  6-C ,  7-H ) :   0.9382 B(  6-C ,  8-H ) :   0.9348 B(  6-C ,  9-C ) :   1.0644
B(  9-C , 10-H ) :   0.9566 B(  9-C , 11-H ) :   0.9552 B(  9-C , 12-C ) :   1.0884
B( 12-C , 13-H ) :   0.9717 B( 12-C , 14-H ) :   0.9738 B( 12-C , 15-H ) :   0.9745
B( 16-S , 17-C ) :   1.1705 B( 16-S , 20-C ) :   1.1552 B( 17-C , 18-C ) :   1.6181
B( 17-C , 33-H ) :   0.9652 B( 18-C , 19-C ) :   1.2247 B( 18-C , 21-H ) :   0.9934
B( 19-C , 20-C ) :   1.6201 B( 19-C , 22-C ) :   1.0635 B( 22-C , 23-H ) :   0.9187
B( 22-C , 24-H ) :   0.9358 B( 22-C , 25-C ) :   1.0638 B( 25-C , 26-H ) :   0.9665
B( 25-C , 27-H ) :   0.9510 B( 25-C , 28-C ) :   1.0671 B( 28-C , 29-H ) :   0.9734
B( 28-C , 30-H ) :   0.9768 B( 28-C , 31-H ) :   0.9777

Dispersion correction           -0.014739055
FINAL SINGLE POINT ENERGY     -1339.856117662592

DIPOLE MOMENT
-------------
                                X             Y             Z
Electronic contribution:    -29.01911       6.55312      -1.21857
Nuclear contribution   :     29.70038      -6.51376       1.07446
                        -----------------------------------------
Total Dipole Moment    :      0.68127       0.03936      -0.14411
                        -----------------------------------------
Magnitude (a.u.)       :      0.69746
Magnitude (Debye)      :      1.77280

Rotational constants in cm-1:     0.016991     0.009953     0.007116
Rotational constants in MHz :   509.373242   298.395310   213.341883

                             ****ORCA TERMINATED NORMALLY****
TOTAL RUN TIME: 0 days 0 hours 0 minutes 22 seconds 85 msec
