                         Program Version 4.2.1 -  RELEASE  -
|  1> ! wB97X-D3 SP def2-SVP
|  2> %pal
|  3> nprocs 24
|  4> end
|  5>
|  6> * xyz 0 1
|  7> S 	 -40.1106 	 -1.43712 	 13.3757
|  8> C 	 -40.2936 	 -2.20122 	 14.9259
|  9> C 	 -41.3178 	 -1.60635 	 15.6787
| 10> C 	 -41.9909 	 -0.574141 	 14.8727
| 11> C 	 -41.4758 	 -0.352534 	 13.6322
| 12> H 	 -42.8133 	 0.0124721 	 15.2393
| 13> C 	 -41.7875 	 -1.93138 	 17.1284
| 14> H 	 -42.1698 	 -2.91344 	 17.2602
| 15> H 	 -42.5224 	 -1.23816 	 17.5718
| 16> C 	 -40.6488 	 -1.78416 	 18.166
| 17> H 	 -40.947 	 -2.19202 	 19.0856
| 18> H 	 -39.9176 	 -2.50931 	 17.8392
| 19> C 	 -39.9994 	 -0.383558 	 18.1868
| 20> H 	 -39.3552 	 -0.313069 	 19.0563
| 21> H 	 -39.5423 	 -0.218628 	 17.1406
| 22> H 	 -40.8513 	 0.251933 	 18.3834
| 23> S 	 -42.7282 	 -0.142117 	 11.2089
| 24> C 	 -43.1942 	 1.41807 	 10.6139
| 25> C 	 -43.2 	 2.34357 	 11.626
| 26> C 	 -42.5468 	 1.88232 	 12.7835
| 27> C 	 -42.0943 	 0.566631 	 12.6541
| 28> H 	 -43.6793 	 3.28588 	 11.3832
| 29> C 	 -42.5605 	 2.67183 	 14.0768
| 30> H 	 -42.1179 	 3.67055 	 13.9455
| 31> H 	 -41.9945 	 2.17119 	 14.9109
| 32> C 	 -44.0514 	 2.88017 	 14.5194
| 33> H 	 -44.4907 	 1.9089 	 14.4951
| 34> H 	 -44.6781 	 3.36895 	 13.7761
| 35> C 	 -44.2687 	 3.49314 	 15.943
| 36> H 	 -43.4821 	 2.96265 	 16.5561
| 37> H 	 -45.217 	 3.26942 	 16.4581
| 38> H 	 -44.1107 	 4.5881 	 15.939
| 39> H 	 -39.6365 	 -2.8936 	 15.3785
| 40> H 	 -43.7208 	 1.56272 	 9.66617
| 41> *
| 42>
| 43>                          ****END OF INPUT****

CARTESIAN COORDINATES (ANGSTROEM)
---------------------------------
  S    -40.110600   -1.437120   13.375700
  C    -40.293600   -2.201220   14.925900
  C    -41.317800   -1.606350   15.678700
  C    -41.990900   -0.574141   14.872700
  C    -41.475800   -0.352534   13.632200
  H    -42.813300    0.012472   15.239300
  C    -41.787500   -1.931380   17.128400
  H    -42.169800   -2.913440   17.260200
  H    -42.522400   -1.238160   17.571800
  C    -40.648800   -1.784160   18.166000
  H    -40.947000   -2.192020   19.085600
  H    -39.917600   -2.509310   17.839200
  C    -39.999400   -0.383558   18.186800
  H    -39.355200   -0.313069   19.056300
  H    -39.542300   -0.218628   17.140600
  H    -40.851300    0.251933   18.383400
  S    -42.728200   -0.142117   11.208900
  C    -43.194200    1.418070   10.613900
  C    -43.200000    2.343570   11.626000
  C    -42.546800    1.882320   12.783500
  C    -42.094300    0.566631   12.654100
  H    -43.679300    3.285880   11.383200
  C    -42.560500    2.671830   14.076800
  H    -42.117900    3.670550   13.945500
  H    -41.994500    2.171190   14.910900
  C    -44.051400    2.880170   14.519400
  H    -44.490700    1.908900   14.495100
  H    -44.678100    3.368950   13.776100
  C    -44.268700    3.493140   15.943000
  H    -43.482100    2.962650   16.556100
  H    -45.217000    3.269420   16.458100
  H    -44.110700    4.588100   15.939000
  H    -39.636500   -2.893600   15.378500
  H    -43.720800    1.562720    9.666170

 Total Charge           Charge          ....    0
 Multiplicity           Mult            ....    1
 Number of Electrons    NEL             ....  134
 Basis Dimension        Dim             ....  322

ORBITAL ENERGIES
----------------

  NO   OCC          E(Eh)            E(eV)
   0   2.0000     -88.970550     -2421.0118
   1   2.0000     -88.964029     -2420.8343
   2   2.0000     -10.330626      -281.1106
   3   2.0000     -10.328194      -281.0444
   4   2.0000     -10.318414      -280.7783
   5   2.0000     -10.314609      -280.6748
   6   2.0000     -10.312032      -280.6046
   7   2.0000     -10.305278      -280.4209
   8   2.0000     -10.298936      -280.2483
   9   2.0000     -10.295839      -280.1640
  10   2.0000     -10.294491      -280.1273
  11   2.0000     -10.292592      -280.0757
  12   2.0000     -10.288815      -279.9729
  13   2.0000     -10.287564      -279.9389
  14   2.0000     -10.281889      -279.7844
  15   2.0000     -10.279160      -279.7102
  16   2.0000      -8.084899      -220.0013
  17   2.0000      -8.079652      -219.8585
  18   2.0000      -6.043521      -164.4526
  19   2.0000      -6.039393      -164.3402
  20   2.0000      -6.037954      -164.3011
  21   2.0000      -6.035606      -164.2372
  22   2.0000      -6.034209      -164.1992
  23   2.0000      -6.030396      -164.0954
  24   2.0000      -1.010252       -27.4904
  25   2.0000      -0.986735       -26.8504
  26   2.0000      -0.911408       -24.8007
  27   2.0000      -0.905370       -24.6364
  28   2.0000      -0.871539       -23.7158
  29   2.0000      -0.848439       -23.0872
  30   2.0000      -0.841141       -22.8886
  31   2.0000      -0.814837       -22.1728
  32   2.0000      -0.782710       -21.2986
  33   2.0000      -0.771719       -20.9995
  34   2.0000      -0.704956       -19.1828
  35   2.0000      -0.701852       -19.0984
  36   2.0000      -0.693543       -18.8723
  37   2.0000      -0.660216       -17.9654
  38   2.0000      -0.641879       -17.4664
  39   2.0000      -0.616816       -16.7844
  40   2.0000      -0.597146       -16.2492
  41   2.0000      -0.580915       -15.8075
  42   2.0000      -0.560145       -15.2423
  43   2.0000      -0.556240       -15.1361
  44   2.0000      -0.545399       -14.8411
  45   2.0000      -0.519808       -14.1447
  46   2.0000      -0.515188       -14.0190
  47   2.0000      -0.510348       -13.8873
  48   2.0000      -0.503582       -13.7032
  49   2.0000      -0.496484       -13.5100
  50   2.0000      -0.491127       -13.3642
  51   2.0000      -0.475238       -12.9319
  52   2.0000      -0.471393       -12.8272
  53   2.0000      -0.466237       -12.6869
  54   2.0000      -0.460373       -12.5274
  55   2.0000      -0.452276       -12.3071
  56   2.0000      -0.441204       -12.0058
  57   2.0000      -0.435578       -11.8527
  58   2.0000      -0.430098       -11.7036
  59   2.0000      -0.427178       -11.6241
  60   2.0000      -0.424575       -11.5533
  61   2.0000      -0.419568       -11.4170
  62   2.0000      -0.408305       -11.1105
  63   2.0000      -0.348609        -9.4861
  64   2.0000      -0.329846        -8.9756
  65   2.0000      -0.327864        -8.9216
  66   2.0000      -0.298604        -8.1254
  67   0.0000       0.030760         0.8370
  68   0.0000       0.066681         1.8145
  69   0.0000       0.108712         2.9582
  70   0.0000       0.115562         3.1446
  71   0.0000       0.128839         3.5059

MULLIKEN ATOMIC CHARGES
-----------------------
   0 S :    0.124444
   1 C :   -0.099317
   2 C :   -0.108050
   3 C :    0.035435
   4 C :   -0.147984
   5 H :    0.003166
   6 C :    0.072202
   7 H :    0.033313
   8 H :    0.024423
   9 C :   -0.098366
  10 H :    0.010356
  11 H :    0.007799
  12 C :   -0.044242
  13 H :    0.040647
  14 H :    0.074660
  15 H :    0.019054
  16 S :    0.111883
  17 C :   -0.100365
  18 C :   -0.054140
  19 C :   -0.013443
  20 C :   -0.152915
  21 H :    0.025124
  22 C :    0.058279
  23 H :    0.032680
  24 H :    0.038406
  25 C :   -0.099270
  26 H :    0.020083
  27 H :    0.026315
  28 C :   -0.062339
  29 H :    0.028924
  30 H :    0.045122
  31 H :    0.045970
  32 H :    0.040283
  33 H :    0.061863
Sum of atomic charges:    0.0000000

LOEWDIN ATOMIC CHARGES
----------------------
   0 S :    0.411988
   1 C :   -0.195252
   2 C :   -0.057940
   3 C :   -0.057055
   4 C :   -0.201163
   5 H :    0.026323
   6 C :   -0.027566
   7 H :    0.028639
   8 H :    0.029533
   9 C :   -0.042983
  10 H :    0.013428
  11 H :    0.012908
  12 C :   -0.066909
  13 H :    0.026942
  14 H :    0.045430
  15 H :    0.019916
  16 S :    0.423079
  17 C :   -0.190399
  18 C :   -0.072284
  19 C :   -0.056737
  20 C :   -0.200964
  21 H :    0.035707
  22 C :   -0.030628
  23 H :    0.030208
  24 H :    0.033751
  25 C :   -0.045415
  26 H :    0.018748
  27 H :    0.020976
  28 C :   -0.073068
  29 H :    0.029592
  30 H :    0.029479
  31 H :    0.027652
  32 H :    0.022671
  33 H :    0.031391

  Mayer bond orders larger than 0.100000
B(  0-S ,  1-C ) :   1.1458 B(  0-S ,  4-C ) :   1.1374 B(  1-C ,  2-C ) :   1.6082
B(  1-C , 32-H ) :   0.9694 B(  2-C ,  3-C ) :   1.2360 B(  2-C ,  6-C ) :   1.0067
B(  3-C ,  4-C ) :   1.5850 B(  3-C ,  5-H ) :   0.9947 B(  4-C , 20-C ) :   1.0214
B(  6-C ,  7-H ) :   0.9431 B(  6-C ,  8-H ) :   0.9545 B(  6-C ,  9-C ) :   1.0741
B(  9-C , 10-H ) :   0.9564 B(  9-C , 11-H ) :   0.9553 B(  9-C , 12-C ) :   1.0608
B( 12-C , 13-H ) :   0.9740 B( 12-C , 14-H ) :   0.9672 B( 12-C , 15-H ) :   0.9780
B( 16-S , 17-C ) :   1.1664 B( 16-S , 20-C ) :   1.1701 B( 17-C , 18-C ) :   1.5998
B( 17-C , 20-C ) :   0.1007 B( 17-C , 33-H ) :   0.9655 B( 18-C , 19-C ) :   1.2386
B( 18-C , 21-H ) :   0.9947 B( 19-C , 20-C ) :   1.5753 B( 19-C , 22-C ) :   1.0587
B( 22-C , 23-H ) :   0.9313 B( 22-C , 24-H ) :   0.9357 B( 22-C , 25-C ) :   1.0458
B( 25-C , 26-H ) :   0.9543 B( 25-C , 27-H ) :   0.9538 B( 25-C , 28-C ) :   1.0712
B( 28-C , 29-H ) :   0.9746 B( 28-C , 30-H ) :   0.9770 B( 28-C , 31-H ) :   0.9770

Dispersion correction           -0.014850613
FINAL SINGLE POINT ENERGY     -1339.868027473023

DIPOLE MOMENT
-------------
                                X             Y             Z
Electronic contribution:      5.51671     -10.92082     -27.68110
Nuclear contribution   :     -5.94820      11.12445      28.27628
                        -----------------------------------------
Total Dipole Moment    :     -0.43149       0.20363       0.59517
                        -----------------------------------------
Magnitude (a.u.)       :      0.76281
Magnitude (Debye)      :      1.93892

Rotational constants in cm-1:     0.017983     0.009550     0.006759
Rotational constants in MHz :   539.114622   286.295305   202.642369

                             ****ORCA TERMINATED NORMALLY****
TOTAL RUN TIME: 0 days 0 hours 0 minutes 22 seconds 180 msec
