                         Program Version 4.2.1 -  RELEASE  -
|  1> ! wB97X-D3 SP def2-SVP
|  2> %pal
|  3> nprocs 24
|  4> end
|  5>
|  6> * xyz 0 1
|  7> S 	 -119.331 	 24.0446 	 -16.9622
|  8> C 	 -119.594 	 23.4723 	 -18.5491
|  9> C 	 -119.374 	 24.4819 	 -19.5116
| 10> C 	 -118.824 	 25.6551 	 -18.8959
| 11> C 	 -118.929 	 25.6343 	 -17.5103
| 12> H 	 -118.623 	 26.6145 	 -19.3899
| 13> C 	 -119.408 	 24.3184 	 -21.011
| 14> H 	 -120.362 	 24.6077 	 -21.5336
| 15> H 	 -119.57 	 23.213 	 -21.1568
| 16> C 	 -118.295 	 24.9619 	 -21.8801
| 17> H 	 -118.601 	 24.7447 	 -22.91
| 18> H 	 -118.286 	 26.0639 	 -21.7343
| 19> C 	 -116.864 	 24.4174 	 -21.7926
| 20> H 	 -116.656 	 23.4406 	 -22.2489
| 21> H 	 -116.16 	 24.9667 	 -22.297
| 22> H 	 -116.55 	 24.4151 	 -20.717
| 23> S 	 -117.866 	 26.5653 	 -15.1855
| 24> C 	 -117.775 	 28.3497 	 -14.9454
| 25> C 	 -118.581 	 28.9057 	 -15.8584
| 26> C 	 -119.133 	 28.0873 	 -16.8897
| 27> C 	 -118.752 	 26.7912 	 -16.6747
| 28> H 	 -118.827 	 29.9636 	 -15.911
| 29> C 	 -120.023 	 28.6679 	 -17.9731
| 30> H 	 -120.221 	 28.048 	 -18.8724
| 31> H 	 -119.46 	 29.5521 	 -18.3199
| 32> C 	 -121.367 	 29.2076 	 -17.4744
| 33> H 	 -121.866 	 30.0079 	 -18.1677
| 34> H 	 -121.304 	 29.7667 	 -16.5444
| 35> C 	 -122.413 	 28.1513 	 -17.2042
| 36> H 	 -123.326 	 28.5505 	 -17.0112
| 37> H 	 -122.038 	 27.472 	 -16.3721
| 38> H 	 -122.631 	 27.5382 	 -18.0666
| 39> H 	 -119.784 	 22.4716 	 -18.8227
| 40> H 	 -117.488 	 28.9326 	 -14.0499
| 41> *
| 42>
| 43>                          ****END OF INPUT****

CARTESIAN COORDINATES (ANGSTROEM)
---------------------------------
  S    -119.331000   24.044600  -16.962200
  C    -119.594000   23.472300  -18.549100
  C    -119.374000   24.481900  -19.511600
  C    -118.824000   25.655100  -18.895900
  C    -118.929000   25.634300  -17.510300
  H    -118.623000   26.614500  -19.389900
  C    -119.408000   24.318400  -21.011000
  H    -120.362000   24.607700  -21.533600
  H    -119.570000   23.213000  -21.156800
  C    -118.295000   24.961900  -21.880100
  H    -118.601000   24.744700  -22.910000
  H    -118.286000   26.063900  -21.734300
  C    -116.864000   24.417400  -21.792600
  H    -116.656000   23.440600  -22.248900
  H    -116.160000   24.966700  -22.297000
  H    -116.550000   24.415100  -20.717000
  S    -117.866000   26.565300  -15.185500
  C    -117.775000   28.349700  -14.945400
  C    -118.581000   28.905700  -15.858400
  C    -119.133000   28.087300  -16.889700
  C    -118.752000   26.791200  -16.674700
  H    -118.827000   29.963600  -15.911000
  C    -120.023000   28.667900  -17.973100
  H    -120.221000   28.048000  -18.872400
  H    -119.460000   29.552100  -18.319900
  C    -121.367000   29.207600  -17.474400
  H    -121.866000   30.007900  -18.167700
  H    -121.304000   29.766700  -16.544400
  C    -122.413000   28.151300  -17.204200
  H    -123.326000   28.550500  -17.011200
  H    -122.038000   27.472000  -16.372100
  H    -122.631000   27.538200  -18.066600
  H    -119.784000   22.471600  -18.822700
  H    -117.488000   28.932600  -14.049900

 Total Charge           Charge          ....    0
 Multiplicity           Mult            ....    1
 Number of Electrons    NEL             ....  134
 Basis Dimension        Dim             ....  322

ORBITAL ENERGIES
----------------

  NO   OCC          E(Eh)            E(eV)
   0   2.0000     -88.969766     -2420.9904
   1   2.0000     -88.963825     -2420.8287
   2   2.0000     -10.326519      -280.9989
   3   2.0000     -10.325527      -280.9719
   4   2.0000     -10.319894      -280.8186
   5   2.0000     -10.311858      -280.5999
   6   2.0000     -10.304557      -280.4012
   7   2.0000     -10.302592      -280.3478
   8   2.0000     -10.300593      -280.2934
   9   2.0000     -10.300188      -280.2824
  10   2.0000     -10.295129      -280.1447
  11   2.0000     -10.293211      -280.0925
  12   2.0000     -10.292106      -280.0624
  13   2.0000     -10.291529      -280.0467
  14   2.0000     -10.270658      -279.4788
  15   2.0000     -10.266221      -279.3581
  16   2.0000      -8.085242      -220.0106
  17   2.0000      -8.078220      -219.8195
  18   2.0000      -6.043642      -164.4559
  19   2.0000      -6.039547      -164.3444
  20   2.0000      -6.036995      -164.2750
  21   2.0000      -6.036195      -164.2532
  22   2.0000      -6.032960      -164.1652
  23   2.0000      -6.028516      -164.0443
  24   2.0000      -1.012648       -27.5555
  25   2.0000      -0.988229       -26.8911
  26   2.0000      -0.911034       -24.7905
  27   2.0000      -0.906772       -24.6745
  28   2.0000      -0.875161       -23.8143
  29   2.0000      -0.853345       -23.2207
  30   2.0000      -0.845442       -23.0056
  31   2.0000      -0.817236       -22.2381
  32   2.0000      -0.785660       -21.3789
  33   2.0000      -0.777859       -21.1666
  34   2.0000      -0.711301       -19.3555
  35   2.0000      -0.696984       -18.9659
  36   2.0000      -0.692514       -18.8443
  37   2.0000      -0.661102       -17.9895
  38   2.0000      -0.640217       -17.4212
  39   2.0000      -0.622722       -16.9451
  40   2.0000      -0.601115       -16.3572
  41   2.0000      -0.565556       -15.3896
  42   2.0000      -0.559160       -15.2155
  43   2.0000      -0.542422       -14.7601
  44   2.0000      -0.536147       -14.5893
  45   2.0000      -0.533851       -14.5268
  46   2.0000      -0.520359       -14.1597
  47   2.0000      -0.510491       -13.8912
  48   2.0000      -0.506344       -13.7783
  49   2.0000      -0.500291       -13.6136
  50   2.0000      -0.489650       -13.3241
  51   2.0000      -0.483033       -13.1440
  52   2.0000      -0.470796       -12.8110
  53   2.0000      -0.466997       -12.7076
  54   2.0000      -0.458799       -12.4846
  55   2.0000      -0.448227       -12.1969
  56   2.0000      -0.443105       -12.0575
  57   2.0000      -0.435165       -11.8414
  58   2.0000      -0.430409       -11.7120
  59   2.0000      -0.425479       -11.5779
  60   2.0000      -0.420232       -11.4351
  61   2.0000      -0.413636       -11.2556
  62   2.0000      -0.407792       -11.0966
  63   2.0000      -0.354432        -9.6446
  64   2.0000      -0.332955        -9.0602
  65   2.0000      -0.326494        -8.8844
  66   2.0000      -0.289969        -7.8904
  67   0.0000       0.024401         0.6640
  68   0.0000       0.077192         2.1005
  69   0.0000       0.101322         2.7571
  70   0.0000       0.116181         3.1614
  71   0.0000       0.132035         3.5928

MULLIKEN ATOMIC CHARGES
-----------------------
   0 S :    0.133446
   1 C :   -0.090802
   2 C :   -0.089413
   3 C :    0.004939
   4 C :   -0.140524
   5 H :    0.026099
   6 C :    0.031197
   7 H :    0.040576
   8 H :    0.010196
   9 C :   -0.081798
  10 H :    0.029387
  11 H :    0.042752
  12 C :   -0.028484
  13 H :    0.025479
  14 H :    0.008087
  15 H :    0.042285
  16 S :    0.084137
  17 C :   -0.075042
  18 C :   -0.039878
  19 C :   -0.044314
  20 C :   -0.158474
  21 H :    0.014898
  22 C :    0.083654
  23 H :    0.039064
  24 H :    0.030930
  25 C :   -0.121927
  26 H :    0.034768
  27 H :    0.023722
  28 C :   -0.012947
  29 H :    0.007050
  30 H :    0.049312
  31 H :    0.016525
  32 H :    0.032460
  33 H :    0.072641
Sum of atomic charges:   -0.0000000

LOEWDIN ATOMIC CHARGES
----------------------
   0 S :    0.438037
   1 C :   -0.208058
   2 C :   -0.063533
   3 C :   -0.065987
   4 C :   -0.202966
   5 H :    0.032066
   6 C :   -0.048527
   7 H :    0.040553
   8 H :    0.033417
   9 C :   -0.042244
  10 H :    0.029178
  11 H :    0.029251
  12 C :   -0.070191
  13 H :    0.027651
  14 H :    0.014113
  15 H :    0.032854
  16 S :    0.374704
  17 C :   -0.179829
  18 C :   -0.065438
  19 C :   -0.062927
  20 C :   -0.186265
  21 H :    0.029156
  22 C :   -0.033337
  23 H :    0.035378
  24 H :    0.038045
  25 C :   -0.049760
  26 H :    0.031981
  27 H :    0.020912
  28 C :   -0.062740
  29 H :    0.010917
  30 H :    0.037068
  31 H :    0.021764
  32 H :    0.020101
  33 H :    0.044656

  Mayer bond orders larger than 0.100000
B(  0-S ,  1-C ) :   1.1568 B(  0-S ,  4-C ) :   1.1639 B(  1-C ,  2-C ) :   1.5727
B(  1-C , 32-H ) :   0.9704 B(  2-C ,  3-C ) :   1.2662 B(  2-C ,  6-C ) :   1.0299
B(  3-C ,  4-C ) :   1.5494 B(  3-C ,  5-H ) :   0.9820 B(  4-C , 20-C ) :   1.0532
B(  6-C ,  7-H ) :   0.9319 B(  6-C ,  8-H ) :   0.9367 B(  6-C ,  9-C ) :   1.0730
B(  9-C , 10-H ) :   0.9526 B(  9-C , 11-H ) :   0.9494 B(  9-C , 12-C ) :   1.0822
B( 12-C , 13-H ) :   0.9734 B( 12-C , 14-H ) :   0.9704 B( 12-C , 15-H ) :   0.9747
B( 16-S , 17-C ) :   1.1011 B( 16-S , 20-C ) :   1.1299 B( 17-C , 18-C ) :   1.6581
B( 17-C , 33-H ) :   0.9596 B( 18-C , 19-C ) :   1.2291 B( 18-C , 21-H ) :   0.9728
B( 19-C , 20-C ) :   1.6160 B( 19-C , 22-C ) :   1.0365 B( 22-C , 23-H ) :   0.9399
B( 22-C , 24-H ) :   0.9221 B( 22-C , 25-C ) :   1.0669 B( 25-C , 26-H ) :   0.9538
B( 25-C , 27-H ) :   0.9556 B( 25-C , 28-C ) :   1.0858 B( 28-C , 29-H ) :   0.9692
B( 28-C , 30-H ) :   0.9738 B( 28-C , 31-H ) :   0.9705

Dispersion correction           -0.014694363
FINAL SINGLE POINT ENERGY     -1339.862936653986

DIPOLE MOMENT
-------------
                                X             Y             Z
Electronic contribution:      7.26144      -7.63896      21.98989
Nuclear contribution   :     -7.55314       8.06937     -22.56305
                        -----------------------------------------
Total Dipole Moment    :     -0.29170       0.43041      -0.57315
                        -----------------------------------------
Magnitude (a.u.)       :      0.77385
Magnitude (Debye)      :      1.96697

Rotational constants in cm-1:     0.018383     0.008889     0.007834
Rotational constants in MHz :   551.117475   266.494671   234.851862

                             ****ORCA TERMINATED NORMALLY****
TOTAL RUN TIME: 0 days 0 hours 0 minutes 21 seconds 56 msec
