                         Program Version 4.2.1 -  RELEASE  -
|  1> ! wB97X-D3 SP def2-SVP
|  2> %pal
|  3> nprocs 24
|  4> end
|  5>
|  6> * xyz 0 1
|  7> S 	 -143.558 	 6.40516 	 3.72953
|  8> C 	 -142.866 	 5.04715 	 4.60362
|  9> C 	 -142.253 	 5.47498 	 5.77385
| 10> C 	 -142.272 	 6.89608 	 5.8891
| 11> C 	 -142.883 	 7.58982 	 4.87583
| 12> H 	 -141.881 	 7.55743 	 6.63385
| 13> C 	 -141.515 	 4.56936 	 6.72815
| 14> H 	 -140.501 	 4.91745 	 6.50315
| 15> H 	 -141.654 	 3.56123 	 6.42579
| 16> C 	 -141.773 	 4.61046 	 8.20365
| 17> H 	 -141.026 	 3.91656 	 8.62964
| 18> H 	 -141.697 	 5.65139 	 8.55013
| 19> C 	 -143.141 	 3.95534 	 8.63599
| 20> H 	 -143.868 	 4.70514 	 8.55361
| 21> H 	 -143.506 	 3.14351 	 8.08372
| 22> H 	 -143.163 	 3.6875 	 9.75577
| 23> S 	 -141.47 	 9.90153 	 5.15626
| 24> C 	 -142.115 	 11.3831 	 4.45728
| 25> C 	 -143.238 	 11.1405 	 3.77583
| 26> C 	 -143.681 	 9.79571 	 3.90019
| 27> C 	 -142.89 	 9.02881 	 4.68555
| 28> H 	 -143.739 	 11.8417 	 3.18088
| 29> C 	 -144.975 	 9.31973 	 3.15673
| 30> H 	 -145.265 	 8.38152 	 3.6768
| 31> H 	 -144.706 	 9.14169 	 2.13081
| 32> C 	 -146.203 	 10.2575 	 3.20185
| 33> H 	 -145.815 	 11.1151 	 2.68425
| 34> H 	 -146.523 	 10.5261 	 4.21492
| 35> C 	 -147.338 	 9.71677 	 2.28724
| 36> H 	 -147.022 	 9.56535 	 1.27962
| 37> H 	 -148.168 	 10.4262 	 2.3191
| 38> H 	 -147.692 	 8.78331 	 2.75163
| 39> H 	 -142.847 	 4.01477 	 4.22949
| 40> H 	 -141.611 	 12.3626 	 4.5199
| 41> *
| 42>
| 43>                          ****END OF INPUT****

CARTESIAN COORDINATES (ANGSTROEM)
---------------------------------
  S    -143.558000    6.405160    3.729530
  C    -142.866000    5.047150    4.603620
  C    -142.253000    5.474980    5.773850
  C    -142.272000    6.896080    5.889100
  C    -142.883000    7.589820    4.875830
  H    -141.881000    7.557430    6.633850
  C    -141.515000    4.569360    6.728150
  H    -140.501000    4.917450    6.503150
  H    -141.654000    3.561230    6.425790
  C    -141.773000    4.610460    8.203650
  H    -141.026000    3.916560    8.629640
  H    -141.697000    5.651390    8.550130
  C    -143.141000    3.955340    8.635990
  H    -143.868000    4.705140    8.553610
  H    -143.506000    3.143510    8.083720
  H    -143.163000    3.687500    9.755770
  S    -141.470000    9.901530    5.156260
  C    -142.115000   11.383100    4.457280
  C    -143.238000   11.140500    3.775830
  C    -143.681000    9.795710    3.900190
  C    -142.890000    9.028810    4.685550
  H    -143.739000   11.841700    3.180880
  C    -144.975000    9.319730    3.156730
  H    -145.265000    8.381520    3.676800
  H    -144.706000    9.141690    2.130810
  C    -146.203000   10.257500    3.201850
  H    -145.815000   11.115100    2.684250
  H    -146.523000   10.526100    4.214920
  C    -147.338000    9.716770    2.287240
  H    -147.022000    9.565350    1.279620
  H    -148.168000   10.426200    2.319100
  H    -147.692000    8.783310    2.751630
  H    -142.847000    4.014770    4.229490
  H    -141.611000   12.362600    4.519900

 Total Charge           Charge          ....    0
 Multiplicity           Mult            ....    1
 Number of Electrons    NEL             ....  134
 Basis Dimension        Dim             ....  322

ORBITAL ENERGIES
----------------

  NO   OCC          E(Eh)            E(eV)
   0   2.0000     -88.964509     -2420.8474
   1   2.0000     -88.963529     -2420.8207
   2   2.0000     -10.329399      -281.0772
   3   2.0000     -10.322462      -280.8885
   4   2.0000     -10.317368      -280.7499
   5   2.0000     -10.314572      -280.6738
   6   2.0000     -10.302119      -280.3349
   7   2.0000     -10.297674      -280.2140
   8   2.0000     -10.292383      -280.0700
   9   2.0000     -10.291031      -280.0332
  10   2.0000     -10.289149      -279.9820
  11   2.0000     -10.286753      -279.9168
  12   2.0000     -10.286547      -279.9112
  13   2.0000     -10.285887      -279.8932
  14   2.0000     -10.278821      -279.7009
  15   2.0000     -10.274036      -279.5707
  16   2.0000      -8.079688      -219.8595
  17   2.0000      -8.077162      -219.7908
  18   2.0000      -6.038365      -164.3123
  19   2.0000      -6.035862      -164.2441
  20   2.0000      -6.034261      -164.2006
  21   2.0000      -6.031751      -164.1323
  22   2.0000      -6.030113      -164.0877
  23   2.0000      -6.027854      -164.0262
  24   2.0000      -1.012287       -27.5457
  25   2.0000      -0.985421       -26.8147
  26   2.0000      -0.913769       -24.8649
  27   2.0000      -0.905638       -24.6437
  28   2.0000      -0.875637       -23.8273
  29   2.0000      -0.851538       -23.1715
  30   2.0000      -0.840056       -22.8591
  31   2.0000      -0.819346       -22.2955
  32   2.0000      -0.782559       -21.2945
  33   2.0000      -0.773118       -21.0376
  34   2.0000      -0.708582       -19.2815
  35   2.0000      -0.701961       -19.1013
  36   2.0000      -0.688858       -18.7448
  37   2.0000      -0.669154       -18.2086
  38   2.0000      -0.634563       -17.2673
  39   2.0000      -0.620083       -16.8733
  40   2.0000      -0.598332       -16.2814
  41   2.0000      -0.575066       -15.6483
  42   2.0000      -0.569906       -15.5079
  43   2.0000      -0.551470       -15.0063
  44   2.0000      -0.539150       -14.6710
  45   2.0000      -0.522734       -14.2243
  46   2.0000      -0.518300       -14.1036
  47   2.0000      -0.515169       -14.0185
  48   2.0000      -0.513198       -13.9648
  49   2.0000      -0.493159       -13.4195
  50   2.0000      -0.489535       -13.3209
  51   2.0000      -0.484079       -13.1725
  52   2.0000      -0.467977       -12.7343
  53   2.0000      -0.463851       -12.6220
  54   2.0000      -0.462004       -12.5718
  55   2.0000      -0.452848       -12.3226
  56   2.0000      -0.447315       -12.1721
  57   2.0000      -0.441184       -12.0052
  58   2.0000      -0.434559       -11.8250
  59   2.0000      -0.430418       -11.7123
  60   2.0000      -0.414886       -11.2896
  61   2.0000      -0.410044       -11.1579
  62   2.0000      -0.399234       -10.8637
  63   2.0000      -0.361610        -9.8399
  64   2.0000      -0.332563        -9.0495
  65   2.0000      -0.326761        -8.8916
  66   2.0000      -0.287552        -7.8247
  67   0.0000       0.026485         0.7207
  68   0.0000       0.082388         2.2419
  69   0.0000       0.111288         3.0283
  70   0.0000       0.119749         3.2585
  71   0.0000       0.133313         3.6276

MULLIKEN ATOMIC CHARGES
-----------------------
   0 S :    0.087458
   1 C :   -0.137288
   2 C :   -0.062483
   3 C :   -0.014720
   4 C :   -0.129511
   5 H :    0.001783
   6 C :    0.081867
   7 H :    0.044287
   8 H :    0.001634
   9 C :   -0.070036
  10 H :    0.039884
  11 H :    0.041048
  12 C :   -0.052721
  13 H :    0.021538
  14 H :    0.022537
  15 H :    0.041225
  16 S :    0.084628
  17 C :   -0.087828
  18 C :    0.004757
  19 C :   -0.079104
  20 C :   -0.106905
  21 H :   -0.004966
  22 C :    0.034523
  23 H :    0.035856
  24 H :    0.036190
  25 C :   -0.085432
  26 H :    0.017027
  27 H :    0.043208
  28 C :   -0.030535
  29 H :    0.030416
  30 H :    0.035132
  31 H :    0.033380
  32 H :    0.057990
  33 H :    0.065163
Sum of atomic charges:   -0.0000000

LOEWDIN ATOMIC CHARGES
----------------------
   0 S :    0.393677
   1 C :   -0.202432
   2 C :   -0.061850
   3 C :   -0.076573
   4 C :   -0.172204
   5 H :    0.022635
   6 C :   -0.032465
   7 H :    0.041356
   8 H :    0.022809
   9 C :   -0.036684
  10 H :    0.031734
  11 H :    0.027269
  12 C :   -0.066176
  13 H :    0.018859
  14 H :    0.016599
  15 H :    0.036362
  16 S :    0.404032
  17 C :   -0.174321
  18 C :   -0.065571
  19 C :   -0.060922
  20 C :   -0.199692
  21 H :    0.023185
  22 C :   -0.034902
  23 H :    0.019823
  24 H :    0.029236
  25 C :   -0.037295
  26 H :    0.015640
  27 H :    0.027719
  28 C :   -0.057158
  29 H :    0.021812
  30 H :    0.027084
  31 H :    0.027099
  32 H :    0.034370
  33 H :    0.036947

  Mayer bond orders larger than 0.100000
B(  0-S ,  1-C ) :   1.1288 B(  0-S ,  4-C ) :   1.1234 B(  1-C ,  2-C ) :   1.6132
B(  1-C , 32-H ) :   0.9658 B(  2-C ,  3-C ) :   1.2014 B(  2-C ,  6-C ) :   1.0148
B(  3-C ,  4-C ) :   1.5890 B(  3-C ,  5-H ) :   0.9981 B(  4-C , 20-C ) :   1.0735
B(  6-C ,  7-H ) :   0.9337 B(  6-C ,  8-H ) :   0.9379 B(  6-C ,  9-C ) :   1.0870
B(  9-C , 10-H ) :   0.9547 B(  9-C , 11-H ) :   0.9574 B(  9-C , 12-C ) :   1.0599
B( 12-C , 13-H ) :   0.9774 B( 12-C , 14-H ) :   0.9777 B( 12-C , 15-H ) :   0.9774
B( 16-S , 17-C ) :   1.1375 B( 16-S , 20-C ) :   1.1226 B( 17-C , 18-C ) :   1.6204
B( 17-C , 33-H ) :   0.9636 B( 18-C , 19-C ) :   1.2358 B( 18-C , 21-H ) :   1.0015
B( 19-C , 20-C ) :   1.6302 B( 19-C , 22-C ) :   1.0145 B( 22-C , 23-H ) :   0.9343
B( 22-C , 24-H ) :   0.9367 B( 22-C , 25-C ) :   1.0670 B( 25-C , 26-H ) :   0.9496
B( 25-C , 27-H ) :   0.9613 B( 25-C , 28-C ) :   1.0845 B( 28-C , 29-H ) :   0.9742
B( 28-C , 30-H ) :   0.9745 B( 28-C , 31-H ) :   0.9767

Dispersion correction           -0.013457518
FINAL SINGLE POINT ENERGY     -1339.875918964978

DIPOLE MOMENT
-------------
                                X             Y             Z
Electronic contribution:     12.41246       7.44343      -5.90194
Nuclear contribution   :    -12.49331      -7.38969       5.88062
                        -----------------------------------------
Total Dipole Moment    :     -0.08084       0.05374      -0.02132
                        -----------------------------------------
Magnitude (a.u.)       :      0.09939
Magnitude (Debye)      :      0.25263

Rotational constants in cm-1:     0.020652     0.007682     0.006284
Rotational constants in MHz :   619.122494   230.309642   188.380779

                             ****ORCA TERMINATED NORMALLY****
TOTAL RUN TIME: 0 days 0 hours 0 minutes 20 seconds 31 msec
