                         Program Version 4.2.1 -  RELEASE  -
|  1> ! wB97X-D3 SP def2-SVP
|  2> %pal
|  3> nprocs 24
|  4> end
|  5>
|  6> * xyz 0 1
|  7> S 	 -45.4821 	 -4.06158 	 -11.7137
|  8> C 	 -46.4534 	 -2.61218 	 -11.7471
|  9> C 	 -46.039 	 -1.71322 	 -12.7632
| 10> C 	 -44.9626 	 -2.27781 	 -13.5118
| 11> C 	 -44.82 	 -3.64356 	 -13.2433
| 12> H 	 -44.3723 	 -1.85917 	 -14.3209
| 13> C 	 -46.4604 	 -0.246812 	 -12.7409
| 14> H 	 -45.9525 	 0.345075 	 -13.4831
| 15> H 	 -46.0982 	 0.115971 	 -11.7731
| 16> C 	 -47.9636 	 0.0784845 	 -12.8677
| 17> H 	 -48.5923 	 -0.417115 	 -12.1608
| 18> H 	 -48.0547 	 1.11071 	 -12.6458
| 19> C 	 -48.3589 	 -0.182021 	 -14.2377
| 20> H 	 -48.3519 	 -1.27873 	 -14.4645
| 21> H 	 -49.4 	 0.153591 	 -14.4473
| 22> H 	 -47.7231 	 0.31717 	 -14.9338
| 23> S 	 -42.4156 	 -4.88503 	 -13.2177
| 24> C 	 -41.9951 	 -5.9316 	 -14.5726
| 25> C 	 -42.906 	 -5.76098 	 -15.5972
| 26> C 	 -44.0683 	 -5.04243 	 -15.1981
| 27> C 	 -43.8935 	 -4.44553 	 -14.002
| 28> H 	 -42.7546 	 -6.28811 	 -16.5092
| 29> C 	 -45.3858 	 -5.15491 	 -15.9982
| 30> H 	 -46.2048 	 -5.33893 	 -15.2809
| 31> H 	 -45.344 	 -6.04744 	 -16.5301
| 32> C 	 -45.8203 	 -4.00896 	 -16.9163
| 33> H 	 -46.1343 	 -3.10779 	 -16.4357
| 34> H 	 -46.6198 	 -4.44265 	 -17.4958
| 35> C 	 -44.7313 	 -3.48244 	 -17.9206
| 36> H 	 -44.2869 	 -2.51908 	 -17.6908
| 37> H 	 -45.0934 	 -3.45737 	 -18.8819
| 38> H 	 -43.8135 	 -4.07137 	 -18.037
| 39> H 	 -47.2368 	 -2.45379 	 -10.9893
| 40> H 	 -41.0918 	 -6.53943 	 -14.6958
| 41> *
| 42>
| 43>                          ****END OF INPUT****

CARTESIAN COORDINATES (ANGSTROEM)
---------------------------------
  S    -45.482100   -4.061580  -11.713700
  C    -46.453400   -2.612180  -11.747100
  C    -46.039000   -1.713220  -12.763200
  C    -44.962600   -2.277810  -13.511800
  C    -44.820000   -3.643560  -13.243300
  H    -44.372300   -1.859170  -14.320900
  C    -46.460400   -0.246812  -12.740900
  H    -45.952500    0.345075  -13.483100
  H    -46.098200    0.115971  -11.773100
  C    -47.963600    0.078484  -12.867700
  H    -48.592300   -0.417115  -12.160800
  H    -48.054700    1.110710  -12.645800
  C    -48.358900   -0.182021  -14.237700
  H    -48.351900   -1.278730  -14.464500
  H    -49.400000    0.153591  -14.447300
  H    -47.723100    0.317170  -14.933800
  S    -42.415600   -4.885030  -13.217700
  C    -41.995100   -5.931600  -14.572600
  C    -42.906000   -5.760980  -15.597200
  C    -44.068300   -5.042430  -15.198100
  C    -43.893500   -4.445530  -14.002000
  H    -42.754600   -6.288110  -16.509200
  C    -45.385800   -5.154910  -15.998200
  H    -46.204800   -5.338930  -15.280900
  H    -45.344000   -6.047440  -16.530100
  C    -45.820300   -4.008960  -16.916300
  H    -46.134300   -3.107790  -16.435700
  H    -46.619800   -4.442650  -17.495800
  C    -44.731300   -3.482440  -17.920600
  H    -44.286900   -2.519080  -17.690800
  H    -45.093400   -3.457370  -18.881900
  H    -43.813500   -4.071370  -18.037000
  H    -47.236800   -2.453790  -10.989300
  H    -41.091800   -6.539430  -14.695800

 Total Charge           Charge          ....    0
 Multiplicity           Mult            ....    1
 Number of Electrons    NEL             ....  134
 Basis Dimension        Dim             ....  322

ORBITAL ENERGIES
----------------

  NO   OCC          E(Eh)            E(eV)
   0   2.0000     -88.968859     -2420.9657
   1   2.0000     -88.961970     -2420.7783
   2   2.0000     -10.320624      -280.8384
   3   2.0000     -10.316375      -280.7228
   4   2.0000     -10.315827      -280.7079
   5   2.0000     -10.313942      -280.6566
   6   2.0000     -10.306540      -280.4552
   7   2.0000     -10.295833      -280.1638
   8   2.0000     -10.295203      -280.1467
   9   2.0000     -10.290987      -280.0320
  10   2.0000     -10.288255      -279.9576
  11   2.0000     -10.287196      -279.9288
  12   2.0000     -10.282853      -279.8107
  13   2.0000     -10.276419      -279.6356
  14   2.0000     -10.271372      -279.4982
  15   2.0000     -10.266520      -279.3662
  16   2.0000      -8.083985      -219.9764
  17   2.0000      -8.077094      -219.7889
  18   2.0000      -6.042235      -164.4176
  19   2.0000      -6.038585      -164.3182
  20   2.0000      -6.035583      -164.2366
  21   2.0000      -6.034861      -164.2169
  22   2.0000      -6.031611      -164.1285
  23   2.0000      -6.027791      -164.0245
  24   2.0000      -1.010617       -27.5003
  25   2.0000      -0.984716       -26.7955
  26   2.0000      -0.920906       -25.0591
  27   2.0000      -0.901580       -24.5332
  28   2.0000      -0.869734       -23.6667
  29   2.0000      -0.852784       -23.2054
  30   2.0000      -0.844769       -22.9873
  31   2.0000      -0.810896       -22.0656
  32   2.0000      -0.785791       -21.3825
  33   2.0000      -0.771381       -20.9903
  34   2.0000      -0.706733       -19.2312
  35   2.0000      -0.703796       -19.1513
  36   2.0000      -0.688954       -18.7474
  37   2.0000      -0.662516       -18.0280
  38   2.0000      -0.644556       -17.5393
  39   2.0000      -0.606737       -16.5101
  40   2.0000      -0.591488       -16.0952
  41   2.0000      -0.578758       -15.7488
  42   2.0000      -0.557400       -15.1676
  43   2.0000      -0.552806       -15.0426
  44   2.0000      -0.540888       -14.7183
  45   2.0000      -0.535241       -14.5647
  46   2.0000      -0.515679       -14.0323
  47   2.0000      -0.514574       -14.0023
  48   2.0000      -0.496787       -13.5183
  49   2.0000      -0.494377       -13.4527
  50   2.0000      -0.486227       -13.2309
  51   2.0000      -0.477834       -13.0025
  52   2.0000      -0.473802       -12.8928
  53   2.0000      -0.467319       -12.7164
  54   2.0000      -0.458472       -12.4757
  55   2.0000      -0.445923       -12.1342
  56   2.0000      -0.442578       -12.0432
  57   2.0000      -0.439759       -11.9665
  58   2.0000      -0.431286       -11.7359
  59   2.0000      -0.425782       -11.5861
  60   2.0000      -0.419662       -11.4196
  61   2.0000      -0.416389       -11.3305
  62   2.0000      -0.414425       -11.2771
  63   2.0000      -0.335391        -9.1265
  64   2.0000      -0.327416        -8.9094
  65   2.0000      -0.323805        -8.8112
  66   2.0000      -0.297583        -8.0976
  67   0.0000       0.033899         0.9224
  68   0.0000       0.059822         1.6278
  69   0.0000       0.106294         2.8924
  70   0.0000       0.124067         3.3760
  71   0.0000       0.131188         3.5698

MULLIKEN ATOMIC CHARGES
-----------------------
   0 S :    0.134322
   1 C :   -0.148085
   2 C :   -0.054289
   3 C :    0.026313
   4 C :   -0.171123
   5 H :    0.025358
   6 C :    0.030817
   7 H :    0.013889
   8 H :    0.039563
   9 C :   -0.014319
  10 H :    0.017621
  11 H :    0.013901
  12 C :   -0.052587
  13 H :    0.044877
  14 H :    0.028900
  15 H :    0.015259
  16 S :    0.107234
  17 C :   -0.104224
  18 C :   -0.028957
  19 C :   -0.035737
  20 C :   -0.188244
  21 H :    0.009147
  22 C :    0.110004
  23 H :    0.033299
  24 H :    0.000240
  25 C :   -0.041601
  26 H :    0.036391
  27 H :    0.028421
  28 C :   -0.051394
  29 H :    0.024860
  30 H :    0.013306
  31 H :    0.012950
  32 H :    0.062282
  33 H :    0.061605
Sum of atomic charges:   -0.0000000

LOEWDIN ATOMIC CHARGES
----------------------
   0 S :    0.428910
   1 C :   -0.204783
   2 C :   -0.062054
   3 C :   -0.053355
   4 C :   -0.212225
   5 H :    0.033918
   6 C :   -0.026206
   7 H :    0.025080
   8 H :    0.034384
   9 C :   -0.038064
  10 H :    0.019766
  11 H :    0.021971
  12 C :   -0.064855
  13 H :    0.032060
  14 H :    0.026498
  15 H :    0.018214
  16 S :    0.400761
  17 C :   -0.185059
  18 C :   -0.067739
  19 C :   -0.058119
  20 C :   -0.207478
  21 H :    0.025136
  22 C :   -0.020642
  23 H :    0.039209
  24 H :    0.020958
  25 C :   -0.030577
  26 H :    0.023197
  27 H :    0.026563
  28 C :   -0.071208
  29 H :    0.025156
  30 H :    0.014472
  31 H :    0.024842
  32 H :    0.027910
  33 H :    0.033363

  Mayer bond orders larger than 0.100000
B(  0-S ,  1-C ) :   1.1609 B(  0-S ,  4-C ) :   1.1717 B(  1-C ,  2-C ) :   1.5498
B(  1-C ,  4-C ) :   0.1073 B(  1-C , 32-H ) :   0.9701 B(  2-C ,  3-C ) :   1.2606
B(  2-C ,  6-C ) :   1.0131 B(  3-C ,  4-C ) :   1.5439 B(  3-C ,  5-H ) :   0.9905
B(  4-C , 20-C ) :   1.0262 B(  6-C ,  7-H ) :   0.9486 B(  6-C ,  8-H ) :   0.9415
B(  6-C ,  9-C ) :   1.0801 B(  9-C , 10-H ) :   0.9517 B(  9-C , 11-H ) :   0.9465
B(  9-C , 12-C ) :   1.0905 B( 12-C , 13-H ) :   0.9724 B( 12-C , 14-H ) :   0.9685
B( 12-C , 15-H ) :   0.9717 B( 16-S , 17-C ) :   1.1385 B( 16-S , 20-C ) :   1.1417
B( 17-C , 18-C ) :   1.6395 B( 17-C , 33-H ) :   0.9649 B( 18-C , 19-C ) :   1.2221
B( 18-C , 21-H ) :   0.9870 B( 19-C , 20-C ) :   1.6525 B( 19-C , 22-C ) :   1.0276
B( 22-C , 23-H ) :   0.9313 B( 22-C , 24-H ) :   0.9328 B( 22-C , 25-C ) :   1.0858
B( 25-C , 26-H ) :   0.9594 B( 25-C , 27-H ) :   0.9601 B( 25-C , 28-C ) :   1.0542
B( 28-C , 29-H ) :   0.9786 B( 28-C , 30-H ) :   0.9772 B( 28-C , 31-H ) :   0.9786

Dispersion correction           -0.015055473
FINAL SINGLE POINT ENERGY     -1339.858995919175

DIPOLE MOMENT
-------------
                                X             Y             Z
Electronic contribution:     16.10403     -15.27708      18.41799
Nuclear contribution   :    -16.38221      15.54695     -18.75187
                        -----------------------------------------
Total Dipole Moment    :     -0.27819       0.26987      -0.33387
                        -----------------------------------------
Magnitude (a.u.)       :      0.51155
Magnitude (Debye)      :      1.30027

Rotational constants in cm-1:     0.019621     0.009429     0.007109
Rotational constants in MHz :   588.219956   282.663416   213.127088

                             ****ORCA TERMINATED NORMALLY****
TOTAL RUN TIME: 0 days 0 hours 0 minutes 22 seconds 248 msec
