                         Program Version 4.2.1 -  RELEASE  -
|  1> ! wB97X-D3 SP def2-SVP
|  2> %pal
|  3> nprocs 24
|  4> end
|  5>
|  6> * xyz 0 1
|  7> S 	 -119.374 	 64.0479 	 -36.7263
|  8> C 	 -117.974 	 64.1731 	 -35.7276
|  9> C 	 -118.366 	 64.2284 	 -34.3965
| 10> C 	 -119.813 	 64.2669 	 -34.2702
| 11> C 	 -120.488 	 64.2001 	 -35.4595
| 12> H 	 -120.263 	 64.254 	 -33.2554
| 13> C 	 -117.399 	 64.3945 	 -33.2482
| 14> H 	 -117.776 	 65.2618 	 -32.7148
| 15> H 	 -116.423 	 64.7608 	 -33.6989
| 16> C 	 -117.301 	 63.0988 	 -32.3324
| 17> H 	 -116.412 	 63.1198 	 -31.6422
| 18> H 	 -118.124 	 63.1397 	 -31.6334
| 19> C 	 -117.454 	 61.7434 	 -33.0731
| 20> H 	 -118.429 	 61.6397 	 -33.3778
| 21> H 	 -116.73 	 61.6606 	 -33.8826
| 22> H 	 -117.306 	 60.8828 	 -32.3698
| 23> S 	 -122.316 	 65.1092 	 -37.285
| 24> C 	 -123.904 	 65.4156 	 -36.7844
| 25> C 	 -124.184 	 64.8645 	 -35.5773
| 26> C 	 -122.994 	 64.4303 	 -34.8745
| 27> C 	 -121.899 	 64.4556 	 -35.7096
| 28> H 	 -125.228 	 64.9845 	 -35.1979
| 29> C 	 -123.055 	 64.0663 	 -33.3715
| 30> H 	 -122.29 	 63.3836 	 -33.1591
| 31> H 	 -123.984 	 63.5387 	 -33.3407
| 32> C 	 -122.907 	 65.133 	 -32.3511
| 33> H 	 -123.512 	 65.9612 	 -32.6743
| 34> H 	 -121.919 	 65.5644 	 -32.357
| 35> C 	 -123.391 	 64.6366 	 -30.9839
| 36> H 	 -123.387 	 65.4087 	 -30.1425
| 37> H 	 -122.702 	 63.8722 	 -30.6179
| 38> H 	 -124.343 	 64.231 	 -31.0524
| 39> H 	 -116.989 	 64.5136 	 -36.1048
| 40> H 	 -124.643 	 65.7772 	 -37.5112
| 41> *
| 42>
| 43>                          ****END OF INPUT****

CARTESIAN COORDINATES (ANGSTROEM)
---------------------------------
  S    -119.374000   64.047900  -36.726300
  C    -117.974000   64.173100  -35.727600
  C    -118.366000   64.228400  -34.396500
  C    -119.813000   64.266900  -34.270200
  C    -120.488000   64.200100  -35.459500
  H    -120.263000   64.254000  -33.255400
  C    -117.399000   64.394500  -33.248200
  H    -117.776000   65.261800  -32.714800
  H    -116.423000   64.760800  -33.698900
  C    -117.301000   63.098800  -32.332400
  H    -116.412000   63.119800  -31.642200
  H    -118.124000   63.139700  -31.633400
  C    -117.454000   61.743400  -33.073100
  H    -118.429000   61.639700  -33.377800
  H    -116.730000   61.660600  -33.882600
  H    -117.306000   60.882800  -32.369800
  S    -122.316000   65.109200  -37.285000
  C    -123.904000   65.415600  -36.784400
  C    -124.184000   64.864500  -35.577300
  C    -122.994000   64.430300  -34.874500
  C    -121.899000   64.455600  -35.709600
  H    -125.228000   64.984500  -35.197900
  C    -123.055000   64.066300  -33.371500
  H    -122.290000   63.383600  -33.159100
  H    -123.984000   63.538700  -33.340700
  C    -122.907000   65.133000  -32.351100
  H    -123.512000   65.961200  -32.674300
  H    -121.919000   65.564400  -32.357000
  C    -123.391000   64.636600  -30.983900
  H    -123.387000   65.408700  -30.142500
  H    -122.702000   63.872200  -30.617900
  H    -124.343000   64.231000  -31.052400
  H    -116.989000   64.513600  -36.104800
  H    -124.643000   65.777200  -37.511200

 Total Charge           Charge          ....    0
 Multiplicity           Mult            ....    1
 Number of Electrons    NEL             ....  134
 Basis Dimension        Dim             ....  322

ORBITAL ENERGIES
----------------

  NO   OCC          E(Eh)            E(eV)
   0   2.0000     -88.963101     -2420.8090
   1   2.0000     -88.961889     -2420.7761
   2   2.0000     -10.327986      -281.0388
   3   2.0000     -10.327707      -281.0312
   4   2.0000     -10.313420      -280.6424
   5   2.0000     -10.311829      -280.5991
   6   2.0000     -10.307764      -280.4885
   7   2.0000     -10.301527      -280.3188
   8   2.0000     -10.299423      -280.2616
   9   2.0000     -10.296774      -280.1895
  10   2.0000     -10.294988      -280.1409
  11   2.0000     -10.294481      -280.1271
  12   2.0000     -10.286535      -279.9109
  13   2.0000     -10.283095      -279.8172
  14   2.0000     -10.282021      -279.7880
  15   2.0000     -10.272268      -279.5226
  16   2.0000      -8.079337      -219.8499
  17   2.0000      -8.078396      -219.8243
  18   2.0000      -6.037715      -164.2946
  19   2.0000      -6.036897      -164.2723
  20   2.0000      -6.033714      -164.1857
  21   2.0000      -6.032542      -164.1538
  22   2.0000      -6.030047      -164.0859
  23   2.0000      -6.029181      -164.0624
  24   2.0000      -1.017125       -27.6774
  25   2.0000      -0.993007       -27.0211
  26   2.0000      -0.921394       -25.0724
  27   2.0000      -0.906945       -24.6792
  28   2.0000      -0.870415       -23.6852
  29   2.0000      -0.855481       -23.2788
  30   2.0000      -0.840937       -22.8830
  31   2.0000      -0.816276       -22.2120
  32   2.0000      -0.787245       -21.4220
  33   2.0000      -0.775524       -21.1031
  34   2.0000      -0.713311       -19.4102
  35   2.0000      -0.703399       -19.1405
  36   2.0000      -0.692938       -18.8558
  37   2.0000      -0.661944       -18.0124
  38   2.0000      -0.630872       -17.1669
  39   2.0000      -0.625723       -17.0268
  40   2.0000      -0.600872       -16.3506
  41   2.0000      -0.573249       -15.5989
  42   2.0000      -0.558895       -15.2083
  43   2.0000      -0.550961       -14.9924
  44   2.0000      -0.541964       -14.7476
  45   2.0000      -0.524073       -14.2608
  46   2.0000      -0.521115       -14.1802
  47   2.0000      -0.515661       -14.0318
  48   2.0000      -0.505804       -13.7636
  49   2.0000      -0.498402       -13.5622
  50   2.0000      -0.496408       -13.5079
  51   2.0000      -0.479234       -13.0406
  52   2.0000      -0.470129       -12.7929
  53   2.0000      -0.464505       -12.6398
  54   2.0000      -0.460275       -12.5247
  55   2.0000      -0.453175       -12.3315
  56   2.0000      -0.449706       -12.2371
  57   2.0000      -0.444416       -12.0932
  58   2.0000      -0.437397       -11.9022
  59   2.0000      -0.421317       -11.4646
  60   2.0000      -0.417999       -11.3743
  61   2.0000      -0.416648       -11.3376
  62   2.0000      -0.409116       -11.1326
  63   2.0000      -0.362683        -9.8691
  64   2.0000      -0.334421        -9.1001
  65   2.0000      -0.324809        -8.8385
  66   2.0000      -0.287950        -7.8355
  67   0.0000       0.023996         0.6530
  68   0.0000       0.083971         2.2850
  69   0.0000       0.107966         2.9379
  70   0.0000       0.117736         3.2038
  71   0.0000       0.127555         3.4709

MULLIKEN ATOMIC CHARGES
-----------------------
   0 S :    0.092216
   1 C :   -0.133414
   2 C :   -0.145770
   3 C :   -0.021805
   4 C :   -0.086148
   5 H :    0.011035
   6 C :    0.071260
   7 H :    0.034754
   8 H :    0.028057
   9 C :   -0.099992
  10 H :    0.040034
  11 H :    0.018699
  12 C :   -0.009281
  13 H :    0.021762
  14 H :    0.036316
  15 H :    0.032383
  16 S :    0.103021
  17 C :   -0.101824
  18 C :   -0.038785
  19 C :   -0.088165
  20 C :   -0.101541
  21 H :    0.035706
  22 C :    0.075162
  23 H :    0.004173
  24 H :    0.017204
  25 C :   -0.021672
  26 H :    0.012189
  27 H :    0.024714
  28 C :   -0.038013
  29 H :    0.043238
  30 H :    0.025088
  31 H :    0.020422
  32 H :    0.071079
  33 H :    0.067899
Sum of atomic charges:   -0.0000000

LOEWDIN ATOMIC CHARGES
----------------------
   0 S :    0.429387
   1 C :   -0.221581
   2 C :   -0.061320
   3 C :   -0.081841
   4 C :   -0.201521
   5 H :    0.032045
   6 C :   -0.035631
   7 H :    0.032125
   8 H :    0.034692
   9 C :   -0.043060
  10 H :    0.028570
  11 H :    0.019286
  12 C :   -0.057858
  13 H :    0.014487
  14 H :    0.025789
  15 H :    0.032509
  16 S :    0.417376
  17 C :   -0.199729
  18 C :   -0.081886
  19 C :   -0.048696
  20 C :   -0.192039
  21 H :    0.039885
  22 C :   -0.024668
  23 H :    0.018932
  24 H :    0.030982
  25 C :   -0.039278
  26 H :    0.021514
  27 H :    0.022628
  28 C :   -0.058418
  29 H :    0.034880
  30 H :    0.024839
  31 H :    0.015623
  32 H :    0.038324
  33 H :    0.033655

  Mayer bond orders larger than 0.100000
B(  0-S ,  1-C ) :   1.1423 B(  0-S ,  4-C ) :   1.1670 B(  1-C ,  2-C ) :   1.5956
B(  1-C , 32-H ) :   0.9589 B(  2-C ,  3-C ) :   1.2687 B(  2-C ,  6-C ) :   1.0247
B(  3-C ,  4-C ) :   1.5391 B(  3-C ,  5-H ) :   0.9826 B(  4-C , 20-C ) :   1.0629
B(  6-C ,  7-H ) :   0.9483 B(  6-C ,  8-H ) :   0.9457 B(  6-C ,  9-C ) :   1.0342
B(  9-C , 10-H ) :   0.9638 B(  9-C , 11-H ) :   0.9561 B(  9-C , 12-C ) :   1.0868
B( 12-C , 13-H ) :   0.9652 B( 12-C , 14-H ) :   0.9788 B( 12-C , 15-H ) :   0.9720
B( 16-S , 17-C ) :   1.1689 B( 16-S , 20-C ) :   1.1330 B( 17-C , 18-C ) :   1.6284
B( 17-C , 33-H ) :   0.9600 B( 18-C , 19-C ) :   1.2210 B( 18-C , 21-H ) :   0.9828
B( 19-C , 20-C ) :   1.6220 B( 19-C , 22-C ) :   1.0322 B( 22-C , 23-H ) :   0.9262
B( 22-C , 24-H ) :   0.9316 B( 22-C , 25-C ) :   1.0736 B( 25-C , 26-H ) :   0.9468
B( 25-C , 27-H ) :   0.9461 B( 25-C , 28-C ) :   1.0766 B( 28-C , 29-H ) :   0.9741
B( 28-C , 30-H ) :   0.9745 B( 28-C , 31-H ) :   0.9757

Dispersion correction           -0.014588158
FINAL SINGLE POINT ENERGY     -1339.874323306322

DIPOLE MOMENT
-------------
                                X             Y             Z
Electronic contribution:     -3.75789       5.23379     -29.24357
Nuclear contribution   :      3.56872      -5.07438      29.89930
                        -----------------------------------------
Total Dipole Moment    :     -0.18918       0.15940       0.65573
                        -----------------------------------------
Magnitude (a.u.)       :      0.70084
Magnitude (Debye)      :      1.78139

Rotational constants in cm-1:     0.017398     0.010056     0.006815
Rotational constants in MHz :   521.579244   301.480203   204.323265

                             ****ORCA TERMINATED NORMALLY****
TOTAL RUN TIME: 0 days 0 hours 0 minutes 22 seconds 241 msec
