                         Program Version 4.2.1 -  RELEASE  -
|  1> ! wB97X-D3 SP def2-SVP
|  2> %pal
|  3> nprocs 24
|  4> end
|  5>
|  6> * xyz 0 1
|  7> S 	 -98.3133 	 8.20608 	 -3.5275
|  8> C 	 -97.8605 	 9.73167 	 -4.33007
|  9> C 	 -96.5509 	 9.63928 	 -4.66821
| 10> C 	 -95.916 	 8.45444 	 -4.25538
| 11> C 	 -96.6863 	 7.54544 	 -3.51088
| 12> H 	 -94.8934 	 8.11489 	 -4.4801
| 13> C 	 -95.7335 	 10.7889 	 -5.38893
| 14> H 	 -94.7276 	 10.5314 	 -5.57845
| 15> H 	 -95.5847 	 11.6181 	 -4.64399
| 16> C 	 -96.4251 	 11.3853 	 -6.65296
| 17> H 	 -96.5998 	 10.6659 	 -7.43421
| 18> H 	 -97.3364 	 11.9333 	 -6.45571
| 19> C 	 -95.4577 	 12.6058 	 -7.06828
| 20> H 	 -95.2285 	 13.2733 	 -6.24178
| 21> H 	 -94.6092 	 12.1546 	 -7.62982
| 22> H 	 -95.9656 	 13.0879 	 -7.89103
| 23> S 	 -97.5399 	 5.29036 	 -2.26357
| 24> C 	 -96.4242 	 4.10871 	 -1.8047
| 25> C 	 -95.1442 	 4.48477 	 -2.02741
| 26> C 	 -95.0723 	 5.71164 	 -2.72577
| 27> C 	 -96.3548 	 6.3015 	 -2.89695
| 28> H 	 -94.3479 	 3.8825 	 -1.79719
| 29> C 	 -93.6814 	 6.14314 	 -3.25153
| 30> H 	 -93.1919 	 5.97161 	 -2.32628
| 31> H 	 -93.6634 	 7.22387 	 -3.32308
| 32> C 	 -93.276 	 5.41486 	 -4.53403
| 33> H 	 -93.72 	 5.7848 	 -5.44659
| 34> H 	 -93.5641 	 4.34347 	 -4.4719
| 35> C 	 -91.8133 	 5.5789 	 -4.54938
| 36> H 	 -91.3077 	 5.03964 	 -5.33746
| 37> H 	 -91.2113 	 5.12688 	 -3.71671
| 38> H 	 -91.5159 	 6.60469 	 -4.65507
| 39> H 	 -98.4379 	 10.5725 	 -4.66741
| 40> H 	 -96.6193 	 3.0948 	 -1.41424
| 41> *
| 42>
| 43>                          ****END OF INPUT****

CARTESIAN COORDINATES (ANGSTROEM)
---------------------------------
  S    -98.313300    8.206080   -3.527500
  C    -97.860500    9.731670   -4.330070
  C    -96.550900    9.639280   -4.668210
  C    -95.916000    8.454440   -4.255380
  C    -96.686300    7.545440   -3.510880
  H    -94.893400    8.114890   -4.480100
  C    -95.733500   10.788900   -5.388930
  H    -94.727600   10.531400   -5.578450
  H    -95.584700   11.618100   -4.643990
  C    -96.425100   11.385300   -6.652960
  H    -96.599800   10.665900   -7.434210
  H    -97.336400   11.933300   -6.455710
  C    -95.457700   12.605800   -7.068280
  H    -95.228500   13.273300   -6.241780
  H    -94.609200   12.154600   -7.629820
  H    -95.965600   13.087900   -7.891030
  S    -97.539900    5.290360   -2.263570
  C    -96.424200    4.108710   -1.804700
  C    -95.144200    4.484770   -2.027410
  C    -95.072300    5.711640   -2.725770
  C    -96.354800    6.301500   -2.896950
  H    -94.347900    3.882500   -1.797190
  C    -93.681400    6.143140   -3.251530
  H    -93.191900    5.971610   -2.326280
  H    -93.663400    7.223870   -3.323080
  C    -93.276000    5.414860   -4.534030
  H    -93.720000    5.784800   -5.446590
  H    -93.564100    4.343470   -4.471900
  C    -91.813300    5.578900   -4.549380
  H    -91.307700    5.039640   -5.337460
  H    -91.211300    5.126880   -3.716710
  H    -91.515900    6.604690   -4.655070
  H    -98.437900   10.572500   -4.667410
  H    -96.619300    3.094800   -1.414240

 Total Charge           Charge          ....    0
 Multiplicity           Mult            ....    1
 Number of Electrons    NEL             ....  134
 Basis Dimension        Dim             ....  322

ORBITAL ENERGIES
----------------

  NO   OCC          E(Eh)            E(eV)
   0   2.0000     -88.968693     -2420.9612
   1   2.0000     -88.961538     -2420.7665
   2   2.0000     -10.330715      -281.1131
   3   2.0000     -10.323549      -280.9180
   4   2.0000     -10.312318      -280.6124
   5   2.0000     -10.309080      -280.5243
   6   2.0000     -10.301751      -280.3249
   7   2.0000     -10.296547      -280.1833
   8   2.0000     -10.296373      -280.1786
   9   2.0000     -10.291788      -280.0538
  10   2.0000     -10.291331      -280.0414
  11   2.0000     -10.291159      -280.0367
  12   2.0000     -10.288701      -279.9698
  13   2.0000     -10.283373      -279.8248
  14   2.0000     -10.282344      -279.7968
  15   2.0000     -10.274881      -279.5937
  16   2.0000      -8.085566      -220.0194
  17   2.0000      -8.075541      -219.7466
  18   2.0000      -6.043935      -164.4638
  19   2.0000      -6.039676      -164.3479
  20   2.0000      -6.036441      -164.2599
  21   2.0000      -6.034291      -164.2014
  22   2.0000      -6.030127      -164.0881
  23   2.0000      -6.026102      -163.9786
  24   2.0000      -1.018968       -27.7275
  25   2.0000      -0.986875       -26.8542
  26   2.0000      -0.923050       -25.1175
  27   2.0000      -0.903327       -24.5808
  28   2.0000      -0.875712       -23.8293
  29   2.0000      -0.861042       -23.4301
  30   2.0000      -0.836728       -22.7685
  31   2.0000      -0.814450       -22.1623
  32   2.0000      -0.780682       -21.2435
  33   2.0000      -0.769144       -20.9295
  34   2.0000      -0.715362       -19.4660
  35   2.0000      -0.707417       -19.2498
  36   2.0000      -0.699537       -19.0354
  37   2.0000      -0.671112       -18.2619
  38   2.0000      -0.632580       -17.2134
  39   2.0000      -0.618247       -16.8234
  40   2.0000      -0.597190       -16.2504
  41   2.0000      -0.571222       -15.5437
  42   2.0000      -0.567364       -15.4387
  43   2.0000      -0.563111       -15.3230
  44   2.0000      -0.537544       -14.6273
  45   2.0000      -0.528100       -14.3703
  46   2.0000      -0.520061       -14.1516
  47   2.0000      -0.516247       -14.0478
  48   2.0000      -0.512665       -13.9503
  49   2.0000      -0.498629       -13.5684
  50   2.0000      -0.494725       -13.4621
  51   2.0000      -0.478809       -13.0290
  52   2.0000      -0.474980       -12.9249
  53   2.0000      -0.471401       -12.8275
  54   2.0000      -0.460596       -12.5335
  55   2.0000      -0.453349       -12.3362
  56   2.0000      -0.447308       -12.1719
  57   2.0000      -0.443508       -12.0685
  58   2.0000      -0.428676       -11.6649
  59   2.0000      -0.424374       -11.5478
  60   2.0000      -0.417826       -11.3696
  61   2.0000      -0.403495       -10.9797
  62   2.0000      -0.398131       -10.8337
  63   2.0000      -0.366921        -9.9844
  64   2.0000      -0.335861        -9.1392
  65   2.0000      -0.325393        -8.8544
  66   2.0000      -0.276534        -7.5249
  67   0.0000       0.019075         0.5191
  68   0.0000       0.097387         2.6500
  69   0.0000       0.105593         2.8733
  70   0.0000       0.124557         3.3894
  71   0.0000       0.136139         3.7045

MULLIKEN ATOMIC CHARGES
-----------------------
   0 S :    0.079471
   1 C :   -0.107433
   2 C :   -0.041868
   3 C :   -0.020321
   4 C :   -0.129324
   5 H :   -0.001002
   6 C :    0.055093
   7 H :    0.006539
   8 H :    0.039538
   9 C :   -0.098795
  10 H :    0.043064
  11 H :    0.033915
  12 C :   -0.071535
  13 H :    0.052041
  14 H :    0.035971
  15 H :    0.024306
  16 S :    0.134511
  17 C :   -0.082335
  18 C :   -0.007920
  19 C :   -0.099946
  20 C :   -0.105314
  21 H :   -0.020032
  22 C :    0.042071
  23 H :    0.024907
  24 H :    0.016673
  25 C :    0.002905
  26 H :    0.037438
  27 H :    0.033792
  28 C :   -0.044610
  29 H :    0.013903
  30 H :    0.030419
  31 H :    0.024600
  32 H :    0.037955
  33 H :    0.061321
Sum of atomic charges:   -0.0000000

LOEWDIN ATOMIC CHARGES
----------------------
   0 S :    0.381333
   1 C :   -0.192769
   2 C :   -0.067749
   3 C :   -0.085924
   4 C :   -0.177364
   5 H :    0.027799
   6 C :   -0.027257
   7 H :    0.019886
   8 H :    0.038059
   9 C :   -0.033406
  10 H :    0.023989
  11 H :    0.020151
  12 C :   -0.067295
  13 H :    0.027301
  14 H :    0.028664
  15 H :    0.021755
  16 S :    0.465684
  17 C :   -0.205259
  18 C :   -0.068558
  19 C :   -0.047929
  20 C :   -0.232119
  21 H :    0.017889
  22 C :   -0.028425
  23 H :    0.033620
  24 H :    0.025125
  25 C :   -0.032725
  26 H :    0.030579
  27 H :    0.031559
  28 C :   -0.070877
  29 H :    0.019533
  30 H :    0.031207
  31 H :    0.022766
  32 H :    0.031672
  33 H :    0.039085

  Mayer bond orders larger than 0.100000
B(  0-S ,  1-C ) :   1.1134 B(  0-S ,  4-C ) :   1.1415 B(  1-C ,  2-C ) :   1.6206
B(  1-C ,  4-C ) :   0.1059 B(  1-C , 32-H ) :   0.9709 B(  2-C ,  3-C ) :   1.2654
B(  2-C ,  6-C ) :   0.9925 B(  3-C ,  4-C ) :   1.5479 B(  3-C ,  5-H ) :   0.9818
B(  4-C , 20-C ) :   1.1243 B(  6-C ,  7-H ) :   0.9534 B(  6-C ,  8-H ) :   0.9464
B(  6-C ,  9-C ) :   1.0557 B(  9-C , 10-H ) :   0.9644 B(  9-C , 11-H ) :   0.9583
B(  9-C , 12-C ) :   1.0692 B( 12-C , 13-H ) :   0.9757 B( 12-C , 14-H ) :   0.9771
B( 12-C , 15-H ) :   0.9762 B( 16-S , 17-C ) :   1.1792 B( 16-S , 20-C ) :   1.1566
B( 17-C , 18-C ) :   1.5707 B( 17-C , 33-H ) :   0.9611 B( 18-C , 19-C ) :   1.3018
B( 18-C , 21-H ) :   1.0044 B( 19-C , 20-C ) :   1.5146 B( 19-C , 22-C ) :   1.0097
B( 22-C , 23-H ) :   0.9450 B( 22-C , 24-H ) :   0.9252 B( 22-C , 25-C ) :   1.0473
B( 25-C , 26-H ) :   0.9478 B( 25-C , 27-H ) :   0.9556 B( 25-C , 28-C ) :   1.0865
B( 28-C , 29-H ) :   0.9675 B( 28-C , 30-H ) :   0.9746 B( 28-C , 31-H ) :   0.9694

Dispersion correction           -0.013468473
FINAL SINGLE POINT ENERGY     -1339.845751299682

DIPOLE MOMENT
-------------
                                X             Y             Z
Electronic contribution:    -23.68531     -13.20085      16.63957
Nuclear contribution   :     24.45049      13.15386     -16.98103
                        -----------------------------------------
Total Dipole Moment    :      0.76518      -0.04699      -0.34146
                        -----------------------------------------
Magnitude (a.u.)       :      0.83923
Magnitude (Debye)      :      2.13315

Rotational constants in cm-1:     0.018858     0.008193     0.005859
Rotational constants in MHz :   565.339348   245.610783   175.635747

                             ****ORCA TERMINATED NORMALLY****
TOTAL RUN TIME: 0 days 0 hours 0 minutes 21 seconds 305 msec
