                         Program Version 4.2.1 -  RELEASE  -
|  1> ! wB97X-D3 SP def2-SVP
|  2> %pal
|  3> nprocs 24
|  4> end
|  5>
|  6> * xyz 0 1
|  7> S 	 -118.715 	 19.4101 	 -112.472
|  8> C 	 -119.469 	 20.6611 	 -113.358
|  9> C 	 -118.964 	 20.6615 	 -114.648
| 10> C 	 -118.051 	 19.6273 	 -114.936
| 11> C 	 -117.796 	 18.8594 	 -113.83
| 12> H 	 -117.643 	 19.3354 	 -115.839
| 13> C 	 -119.364 	 21.5482 	 -115.741
| 14> H 	 -120.346 	 21.34 	 -116.188
| 15> H 	 -118.637 	 21.4711 	 -116.451
| 16> C 	 -119.488 	 23.0218 	 -115.339
| 17> H 	 -119.723 	 23.6459 	 -116.151
| 18> H 	 -120.362 	 23.1508 	 -114.716
| 19> C 	 -118.182 	 23.5531 	 -114.673
| 20> H 	 -117.917 	 22.9787 	 -113.757
| 21> H 	 -117.359 	 23.4145 	 -115.29
| 22> H 	 -118.3 	 24.6638 	 -114.509
| 23> S 	 -117.7 	 16.2895 	 -112.913
| 24> C 	 -116.172 	 15.5399 	 -112.869
| 25> C 	 -115.17 	 16.2353 	 -113.5
| 26> C 	 -115.621 	 17.4739 	 -113.966
| 27> C 	 -116.952 	 17.6968 	 -113.655
| 28> H 	 -114.131 	 16.0154 	 -113.677
| 29> C 	 -114.741 	 18.3997 	 -114.769
| 30> H 	 -114.173 	 19.0053 	 -114.144
| 31> H 	 -115.448 	 18.9842 	 -115.309
| 32> C 	 -113.841 	 17.7574 	 -115.789
| 33> H 	 -114.411 	 16.8875 	 -115.968
| 34> H 	 -112.974 	 17.2872 	 -115.363
| 35> C 	 -113.405 	 18.5219 	 -117.106
| 36> H 	 -113.011 	 17.8202 	 -117.846
| 37> H 	 -112.687 	 19.366 	 -116.987
| 38> H 	 -114.31 	 18.871 	 -117.616
| 39> H 	 -120.182 	 21.355 	 -112.882
| 40> H 	 -115.972 	 14.581 	 -112.379
| 41> *
| 42>
| 43>                          ****END OF INPUT****

CARTESIAN COORDINATES (ANGSTROEM)
---------------------------------
  S    -118.715000   19.410100  -112.472000
  C    -119.469000   20.661100  -113.358000
  C    -118.964000   20.661500  -114.648000
  C    -118.051000   19.627300  -114.936000
  C    -117.796000   18.859400  -113.830000
  H    -117.643000   19.335400  -115.839000
  C    -119.364000   21.548200  -115.741000
  H    -120.346000   21.340000  -116.188000
  H    -118.637000   21.471100  -116.451000
  C    -119.488000   23.021800  -115.339000
  H    -119.723000   23.645900  -116.151000
  H    -120.362000   23.150800  -114.716000
  C    -118.182000   23.553100  -114.673000
  H    -117.917000   22.978700  -113.757000
  H    -117.359000   23.414500  -115.290000
  H    -118.300000   24.663800  -114.509000
  S    -117.700000   16.289500  -112.913000
  C    -116.172000   15.539900  -112.869000
  C    -115.170000   16.235300  -113.500000
  C    -115.621000   17.473900  -113.966000
  C    -116.952000   17.696800  -113.655000
  H    -114.131000   16.015400  -113.677000
  C    -114.741000   18.399700  -114.769000
  H    -114.173000   19.005300  -114.144000
  H    -115.448000   18.984200  -115.309000
  C    -113.841000   17.757400  -115.789000
  H    -114.411000   16.887500  -115.968000
  H    -112.974000   17.287200  -115.363000
  C    -113.405000   18.521900  -117.106000
  H    -113.011000   17.820200  -117.846000
  H    -112.687000   19.366000  -116.987000
  H    -114.310000   18.871000  -117.616000
  H    -120.182000   21.355000  -112.882000
  H    -115.972000   14.581000  -112.379000

 Total Charge           Charge          ....    0
 Multiplicity           Mult            ....    1
 Number of Electrons    NEL             ....  134
 Basis Dimension        Dim             ....  322

ORBITAL ENERGIES
----------------

  NO   OCC          E(Eh)            E(eV)
   0   2.0000     -88.969170     -2420.9742
   1   2.0000     -88.962621     -2420.7960
   2   2.0000     -10.322185      -280.8809
   3   2.0000     -10.321397      -280.8595
   4   2.0000     -10.315130      -280.6889
   5   2.0000     -10.311043      -280.5777
   6   2.0000     -10.296241      -280.1750
   7   2.0000     -10.294166      -280.1185
   8   2.0000     -10.289585      -279.9938
   9   2.0000     -10.287693      -279.9424
  10   2.0000     -10.284451      -279.8541
  11   2.0000     -10.282545      -279.8023
  12   2.0000     -10.279714      -279.7252
  13   2.0000     -10.278214      -279.6844
  14   2.0000     -10.276101      -279.6269
  15   2.0000     -10.272571      -279.5309
  16   2.0000      -8.084635      -219.9941
  17   2.0000      -8.078582      -219.8294
  18   2.0000      -6.042919      -164.4362
  19   2.0000      -6.039172      -164.3342
  20   2.0000      -6.036864      -164.2714
  21   2.0000      -6.035447      -164.2329
  22   2.0000      -6.032705      -164.1583
  23   2.0000      -6.029711      -164.0768
  24   2.0000      -1.016371       -27.6569
  25   2.0000      -0.994359       -27.0579
  26   2.0000      -0.918403       -24.9910
  27   2.0000      -0.915934       -24.9238
  28   2.0000      -0.868758       -23.6401
  29   2.0000      -0.855174       -23.2705
  30   2.0000      -0.849014       -23.1029
  31   2.0000      -0.811962       -22.0946
  32   2.0000      -0.788709       -21.4619
  33   2.0000      -0.773460       -21.0469
  34   2.0000      -0.714148       -19.4329
  35   2.0000      -0.709495       -19.3063
  36   2.0000      -0.696338       -18.9483
  37   2.0000      -0.664300       -18.0765
  38   2.0000      -0.649108       -17.6631
  39   2.0000      -0.615035       -16.7360
  40   2.0000      -0.601054       -16.3555
  41   2.0000      -0.574499       -15.6329
  42   2.0000      -0.573981       -15.6188
  43   2.0000      -0.552612       -15.0373
  44   2.0000      -0.539545       -14.6818
  45   2.0000      -0.519426       -14.1343
  46   2.0000      -0.516725       -14.0608
  47   2.0000      -0.514757       -14.0072
  48   2.0000      -0.508665       -13.8415
  49   2.0000      -0.497764       -13.5449
  50   2.0000      -0.493307       -13.4236
  51   2.0000      -0.484503       -13.1840
  52   2.0000      -0.476664       -12.9707
  53   2.0000      -0.468427       -12.7466
  54   2.0000      -0.464104       -12.6289
  55   2.0000      -0.459020       -12.4906
  56   2.0000      -0.441311       -12.0087
  57   2.0000      -0.435734       -11.8569
  58   2.0000      -0.433599       -11.7988
  59   2.0000      -0.423425       -11.5220
  60   2.0000      -0.419966       -11.4278
  61   2.0000      -0.417437       -11.3590
  62   2.0000      -0.412105       -11.2139
  63   2.0000      -0.347301        -9.4505
  64   2.0000      -0.337965        -9.1965
  65   2.0000      -0.327569        -8.9136
  66   2.0000      -0.289149        -7.8681
  67   0.0000       0.031599         0.8599
  68   0.0000       0.071525         1.9463
  69   0.0000       0.113204         3.0804
  70   0.0000       0.126683         3.4472
  71   0.0000       0.134408         3.6574

MULLIKEN ATOMIC CHARGES
-----------------------
   0 S :    0.114487
   1 C :   -0.140278
   2 C :   -0.100181
   3 C :    0.054988
   4 C :   -0.167629
   5 H :   -0.010211
   6 C :    0.139857
   7 H :    0.040998
   8 H :   -0.014851
   9 C :   -0.077924
  10 H :    0.010734
  11 H :    0.016226
  12 C :   -0.057174
  13 H :    0.049878
  14 H :    0.010971
  15 H :    0.040790
  16 S :    0.134750
  17 C :   -0.077594
  18 C :   -0.019567
  19 C :   -0.099347
  20 C :   -0.184654
  21 H :    0.006026
  22 C :    0.217366
  23 H :    0.018858
  24 H :   -0.020185
  25 C :   -0.113333
  26 H :    0.014123
  27 H :    0.019705
  28 C :   -0.044128
  29 H :    0.035758
  30 H :    0.051611
  31 H :    0.025440
  32 H :    0.065321
  33 H :    0.059169
Sum of atomic charges:   -0.0000000

LOEWDIN ATOMIC CHARGES
----------------------
   0 S :    0.435817
   1 C :   -0.215913
   2 C :   -0.064389
   3 C :   -0.059323
   4 C :   -0.195282
   5 H :    0.020616
   6 C :   -0.025993
   7 H :    0.039000
   8 H :    0.013806
   9 C :   -0.035946
  10 H :    0.016710
  11 H :    0.017350
  12 C :   -0.067079
  13 H :    0.031077
  14 H :    0.012441
  15 H :    0.031878
  16 S :    0.430920
  17 C :   -0.196578
  18 C :   -0.074733
  19 C :   -0.052120
  20 C :   -0.205818
  21 H :    0.031645
  22 C :   -0.019972
  23 H :    0.024264
  24 H :    0.026386
  25 C :   -0.046872
  26 H :    0.021750
  27 H :    0.018094
  28 C :   -0.065226
  29 H :    0.031143
  30 H :    0.031100
  31 H :    0.024562
  32 H :    0.035556
  33 H :    0.031126

  Mayer bond orders larger than 0.100000
B(  0-S ,  1-C ) :   1.1503 B(  0-S ,  4-C ) :   1.1835 B(  1-C ,  2-C ) :   1.5535
B(  1-C , 32-H ) :   0.9736 B(  2-C ,  3-C ) :   1.2572 B(  2-C ,  6-C ) :   1.0372
B(  3-C ,  4-C ) :   1.5542 B(  3-C ,  5-H ) :   1.0034 B(  4-C , 20-C ) :   1.0259
B(  6-C ,  7-H ) :   0.9282 B(  6-C ,  8-H ) :   0.9308 B(  6-C ,  9-C ) :   1.0825
B(  9-C , 10-H ) :   0.9541 B(  9-C , 11-H ) :   0.9520 B(  9-C , 12-C ) :   1.0738
B( 12-C , 13-H ) :   0.9707 B( 12-C , 14-H ) :   0.9762 B( 12-C , 15-H ) :   0.9754
B( 16-S , 17-C ) :   1.1725 B( 16-S , 20-C ) :   1.1545 B( 17-C , 18-C ) :   1.5590
B( 17-C , 33-H ) :   0.9620 B( 18-C , 19-C ) :   1.2884 B( 18-C , 21-H ) :   0.9908
B( 19-C , 20-C ) :   1.5916 B( 19-C , 22-C ) :   1.0334 B( 22-C , 23-H ) :   0.9061
B( 22-C , 24-H ) :   0.9211 B( 22-C , 25-C ) :   1.0728 B( 25-C , 26-H ) :   0.9571
B( 25-C , 27-H ) :   0.9434 B( 25-C , 28-C ) :   1.0810 B( 28-C , 29-H ) :   0.9736
B( 28-C , 30-H ) :   0.9779 B( 28-C , 31-H ) :   0.9728

Dispersion correction           -0.014148458
FINAL SINGLE POINT ENERGY     -1339.864647194648

DIPOLE MOMENT
-------------
                                X             Y             Z
Electronic contribution:    -11.70650     -17.80283      18.71483
Nuclear contribution   :     11.96422      17.96996     -19.19054
                        -----------------------------------------
Total Dipole Moment    :      0.25772       0.16713      -0.47571
                        -----------------------------------------
Magnitude (a.u.)       :      0.56626
Magnitude (Debye)      :      1.43932

Rotational constants in cm-1:     0.018376     0.009076     0.006518
Rotational constants in MHz :   550.885921   272.106101   195.391966

                             ****ORCA TERMINATED NORMALLY****
TOTAL RUN TIME: 0 days 0 hours 0 minutes 21 seconds 819 msec
