                         Program Version 4.2.1 -  RELEASE  -
|  1> ! wB97X-D3 SP def2-SVP
|  2> %pal
|  3> nprocs 24
|  4> end
|  5>
|  6> * xyz 0 1
|  7> S 	 -16.6388 	 -27.9305 	 -93.6544
|  8> C 	 -15.7332 	 -29.3097 	 -93.0184
|  9> C 	 -16.1742 	 -30.5303 	 -93.4544
| 10> C 	 -17.2148 	 -30.321 	 -94.3417
| 11> C 	 -17.6142 	 -29.0312 	 -94.5364
| 12> H 	 -17.7363 	 -31.1095 	 -94.873
| 13> C 	 -15.4413 	 -31.8882 	 -93.228
| 14> H 	 -16.1301 	 -32.4193 	 -92.638
| 15> H 	 -14.6031 	 -31.6059 	 -92.5826
| 16> C 	 -14.8733 	 -32.5344 	 -94.5464
| 17> H 	 -14.2986 	 -33.4572 	 -94.3553
| 18> H 	 -15.742 	 -32.8521 	 -95.1367
| 19> C 	 -13.9335 	 -31.6219 	 -95.3701
| 20> H 	 -14.3252 	 -30.6276 	 -95.6166
| 21> H 	 -12.9335 	 -31.4268 	 -94.8861
| 22> H 	 -13.7513 	 -32.0379 	 -96.3267
| 23> S 	 -20.0128 	 -27.6087 	 -94.7057
| 24> C 	 -20.8703 	 -27.4279 	 -96.2624
| 25> C 	 -20.1362 	 -28.0444 	 -97.2477
| 26> C 	 -18.9562 	 -28.7554 	 -96.6897
| 27> C 	 -18.7217 	 -28.5022 	 -95.389
| 28> H 	 -20.4189 	 -28.0804 	 -98.3152
| 29> C 	 -18.2506 	 -29.7323 	 -97.6222
| 30> H 	 -19.0045 	 -30.2291 	 -98.1998
| 31> H 	 -17.9082 	 -30.4813 	 -97.0095
| 32> C 	 -17.194 	 -29.1275 	 -98.6219
| 33> H 	 -16.3108 	 -28.6737 	 -98.0459
| 34> H 	 -17.5959 	 -28.3209 	 -99.1183
| 35> C 	 -16.7612 	 -30.2054 	 -99.505
| 36> H 	 -16.2416 	 -31.0769 	 -99.0938
| 37> H 	 -16.0305 	 -29.9177 	 -100.277
| 38> H 	 -17.621 	 -30.4548 	 -100.179
| 39> H 	 -14.7535 	 -29.1181 	 -92.6319
| 40> H 	 -21.8121 	 -26.9465 	 -96.4517
| 41> *
| 42>
| 43>                          ****END OF INPUT****

CARTESIAN COORDINATES (ANGSTROEM)
---------------------------------
  S    -16.638800  -27.930500  -93.654400
  C    -15.733200  -29.309700  -93.018400
  C    -16.174200  -30.530300  -93.454400
  C    -17.214800  -30.321000  -94.341700
  C    -17.614200  -29.031200  -94.536400
  H    -17.736300  -31.109500  -94.873000
  C    -15.441300  -31.888200  -93.228000
  H    -16.130100  -32.419300  -92.638000
  H    -14.603100  -31.605900  -92.582600
  C    -14.873300  -32.534400  -94.546400
  H    -14.298600  -33.457200  -94.355300
  H    -15.742000  -32.852100  -95.136700
  C    -13.933500  -31.621900  -95.370100
  H    -14.325200  -30.627600  -95.616600
  H    -12.933500  -31.426800  -94.886100
  H    -13.751300  -32.037900  -96.326700
  S    -20.012800  -27.608700  -94.705700
  C    -20.870300  -27.427900  -96.262400
  C    -20.136200  -28.044400  -97.247700
  C    -18.956200  -28.755400  -96.689700
  C    -18.721700  -28.502200  -95.389000
  H    -20.418900  -28.080400  -98.315200
  C    -18.250600  -29.732300  -97.622200
  H    -19.004500  -30.229100  -98.199800
  H    -17.908200  -30.481300  -97.009500
  C    -17.194000  -29.127500  -98.621900
  H    -16.310800  -28.673700  -98.045900
  H    -17.595900  -28.320900  -99.118300
  C    -16.761200  -30.205400  -99.505000
  H    -16.241600  -31.076900  -99.093800
  H    -16.030500  -29.917700  -100.277000
  H    -17.621000  -30.454800  -100.179000
  H    -14.753500  -29.118100  -92.631900
  H    -21.812100  -26.946500  -96.451700

 Total Charge           Charge          ....    0
 Multiplicity           Mult            ....    1
 Number of Electrons    NEL             ....  134
 Basis Dimension        Dim             ....  322

ORBITAL ENERGIES
----------------

  NO   OCC          E(Eh)            E(eV)
   0   2.0000     -88.965616     -2420.8775
   1   2.0000     -88.961445     -2420.7640
   2   2.0000     -10.327053      -281.0134
   3   2.0000     -10.321728      -280.8685
   4   2.0000     -10.319163      -280.7987
   5   2.0000     -10.309681      -280.5407
   6   2.0000     -10.299940      -280.2756
   7   2.0000     -10.298911      -280.2476
   8   2.0000     -10.298511      -280.2367
   9   2.0000     -10.297895      -280.2200
  10   2.0000     -10.297430      -280.2073
  11   2.0000     -10.287571      -279.9390
  12   2.0000     -10.284350      -279.8514
  13   2.0000     -10.281850      -279.7834
  14   2.0000     -10.281341      -279.7695
  15   2.0000     -10.277733      -279.6713
  16   2.0000      -8.080991      -219.8950
  17   2.0000      -8.076435      -219.7710
  18   2.0000      -6.039187      -164.3346
  19   2.0000      -6.035523      -164.2349
  20   2.0000      -6.035238      -164.2272
  21   2.0000      -6.031929      -164.1371
  22   2.0000      -6.030878      -164.1085
  23   2.0000      -6.026867      -163.9994
  24   2.0000      -1.011392       -27.5214
  25   2.0000      -0.987159       -26.8620
  26   2.0000      -0.911578       -24.8053
  27   2.0000      -0.907459       -24.6932
  28   2.0000      -0.866732       -23.5850
  29   2.0000      -0.853056       -23.2128
  30   2.0000      -0.845341       -23.0029
  31   2.0000      -0.817800       -22.2535
  32   2.0000      -0.787039       -21.4164
  33   2.0000      -0.770687       -20.9715
  34   2.0000      -0.709978       -19.3195
  35   2.0000      -0.704437       -19.1687
  36   2.0000      -0.692448       -18.8425
  37   2.0000      -0.661736       -18.0067
  38   2.0000      -0.643627       -17.5140
  39   2.0000      -0.623837       -16.9755
  40   2.0000      -0.593019       -16.1369
  41   2.0000      -0.566411       -15.4128
  42   2.0000      -0.564661       -15.3652
  43   2.0000      -0.556597       -15.1458
  44   2.0000      -0.543172       -14.7804
  45   2.0000      -0.527053       -14.3418
  46   2.0000      -0.517894       -14.0926
  47   2.0000      -0.514117       -13.9898
  48   2.0000      -0.502098       -13.6628
  49   2.0000      -0.496669       -13.5150
  50   2.0000      -0.484113       -13.1734
  51   2.0000      -0.480485       -13.0747
  52   2.0000      -0.473439       -12.8829
  53   2.0000      -0.467328       -12.7166
  54   2.0000      -0.456289       -12.4163
  55   2.0000      -0.450361       -12.2550
  56   2.0000      -0.448179       -12.1956
  57   2.0000      -0.439844       -11.9688
  58   2.0000      -0.430505       -11.7146
  59   2.0000      -0.424740       -11.5578
  60   2.0000      -0.420549       -11.4437
  61   2.0000      -0.417159       -11.3515
  62   2.0000      -0.408645       -11.1198
  63   2.0000      -0.347011        -9.4427
  64   2.0000      -0.339181        -9.2296
  65   2.0000      -0.321897        -8.7593
  66   2.0000      -0.298416        -8.1203
  67   0.0000       0.042426         1.1545
  68   0.0000       0.069855         1.9009
  69   0.0000       0.112083         3.0499
  70   0.0000       0.117028         3.1845
  71   0.0000       0.130986         3.5643

MULLIKEN ATOMIC CHARGES
-----------------------
   0 S :    0.113188
   1 C :   -0.131988
   2 C :   -0.104306
   3 C :    0.015931
   4 C :   -0.168118
   5 H :    0.009513
   6 C :    0.120427
   7 H :    0.034225
   8 H :    0.015536
   9 C :   -0.080286
  10 H :    0.042249
  11 H :    0.033964
  12 C :   -0.061142
  13 H :    0.040649
  14 H :    0.038132
  15 H :    0.024319
  16 S :    0.097224
  17 C :   -0.088827
  18 C :   -0.027599
  19 C :   -0.084250
  20 C :   -0.119768
  21 H :    0.032441
  22 C :    0.114012
  23 H :    0.006662
  24 H :   -0.029822
  25 C :   -0.019322
  26 H :    0.039635
  27 H :    0.005967
  28 C :   -0.056450
  29 H :    0.038057
  30 H :    0.021224
  31 H :    0.027628
  32 H :    0.044659
  33 H :    0.056235
Sum of atomic charges:    0.0000000

LOEWDIN ATOMIC CHARGES
----------------------
   0 S :    0.415652
   1 C :   -0.188218
   2 C :   -0.063616
   3 C :   -0.069964
   4 C :   -0.194408
   5 H :    0.027830
   6 C :   -0.017729
   7 H :    0.027719
   8 H :    0.030300
   9 C :   -0.039203
  10 H :    0.030960
  11 H :    0.023896
  12 C :   -0.069513
  13 H :    0.027830
  14 H :    0.031276
  15 H :    0.021961
  16 S :    0.397489
  17 C :   -0.175214
  18 C :   -0.068840
  19 C :   -0.059363
  20 C :   -0.216378
  21 H :    0.034879
  22 C :   -0.020846
  23 H :    0.027516
  24 H :    0.013279
  25 C :   -0.032886
  26 H :    0.034140
  27 H :    0.013736
  28 C :   -0.077045
  29 H :    0.028297
  30 H :    0.026141
  31 H :    0.030764
  32 H :    0.018586
  33 H :    0.030969

  Mayer bond orders larger than 0.100000
B(  0-S ,  1-C ) :   1.1507 B(  0-S ,  4-C ) :   1.1706 B(  1-C ,  2-C ) :   1.6128
B(  1-C ,  4-C ) :   0.1048 B(  1-C , 32-H ) :   0.9614 B(  2-C ,  3-C ) :   1.2598
B(  2-C ,  6-C ) :   0.9968 B(  3-C ,  4-C ) :   1.5938 B(  3-C ,  5-H ) :   0.9913
B(  4-C , 20-C ) :   0.9765 B(  6-C ,  7-H ) :   0.9397 B(  6-C ,  8-H ) :   0.9434
B(  6-C ,  9-C ) :   1.0561 B(  9-C , 10-H ) :   0.9584 B(  9-C , 11-H ) :   0.9579
B(  9-C , 12-C ) :   1.0728 B( 12-C , 13-H ) :   0.9741 B( 12-C , 14-H ) :   0.9752
B( 12-C , 15-H ) :   0.9730 B( 16-S , 17-C ) :   1.1296 B( 16-S , 20-C ) :   1.1256
B( 17-C , 18-C ) :   1.6410 B( 17-C , 33-H ) :   0.9717 B( 18-C , 19-C ) :   1.2054
B( 18-C , 21-H ) :   0.9829 B( 19-C , 20-C ) :   1.6659 B( 19-C , 22-C ) :   1.0368
B( 22-C , 23-H ) :   0.9345 B( 22-C , 24-H ) :   0.9244 B( 22-C , 25-C ) :   1.0537
B( 25-C , 26-H ) :   0.9501 B( 25-C , 27-H ) :   0.9525 B( 25-C , 28-C ) :   1.0993
B( 28-C , 29-H ) :   0.9729 B( 28-C , 30-H ) :   0.9668 B( 28-C , 31-H ) :   0.9672

Dispersion correction           -0.015064542
FINAL SINGLE POINT ENERGY     -1339.865778390767

DIPOLE MOMENT
-------------
                                X             Y             Z
Electronic contribution:    -16.26816      19.24821      17.44384
Nuclear contribution   :     16.56243     -19.82712     -18.04582
                        -----------------------------------------
Total Dipole Moment    :      0.29428      -0.57891      -0.60199
                        -----------------------------------------
Magnitude (a.u.)       :      0.88550
Magnitude (Debye)      :      2.25077

Rotational constants in cm-1:     0.017401     0.010191     0.007228
Rotational constants in MHz :   521.669375   305.503892   216.699558

                             ****ORCA TERMINATED NORMALLY****
TOTAL RUN TIME: 0 days 0 hours 0 minutes 22 seconds 331 msec
