                         Program Version 4.2.1 -  RELEASE  -
|  1> ! wB97X-D3 SP def2-SVP
|  2> %pal
|  3> nprocs 24
|  4> end
|  5>
|  6> * xyz 0 1
|  7> S 	 -86.8207 	 -47.117 	 -71.1468
|  8> C 	 -85.2315 	 -47.6163 	 -70.6753
|  9> C 	 -84.7336 	 -48.5016 	 -71.6089
| 10> C 	 -85.6381 	 -48.7807 	 -72.6867
| 11> C 	 -86.8115 	 -48.1634 	 -72.594
| 12> H 	 -85.4979 	 -49.513 	 -73.4409
| 13> C 	 -83.4277 	 -49.2233 	 -71.4999
| 14> H 	 -83.5493 	 -50.2139 	 -71.9138
| 15> H 	 -83.1752 	 -49.3555 	 -70.5117
| 16> C 	 -82.2779 	 -48.5878 	 -72.3053
| 17> H 	 -81.4345 	 -49.2428 	 -72.6281
| 18> H 	 -82.6908 	 -48.3119 	 -73.2754
| 19> C 	 -81.6278 	 -47.2961 	 -71.6108
| 20> H 	 -81.0374 	 -47.5459 	 -70.7501
| 21> H 	 -81.0776 	 -46.865 	 -72.3932
| 22> H 	 -82.4105 	 -46.6537 	 -71.2811
| 23> S 	 -88.3517 	 -46.9317 	 -74.649
| 24> C 	 -89.6653 	 -47.8447 	 -75.4449
| 25> C 	 -89.8372 	 -49.0574 	 -74.7974
| 26> C 	 -88.9344 	 -49.2757 	 -73.6909
| 27> C 	 -87.9788 	 -48.2287 	 -73.4932
| 28> H 	 -90.6416 	 -49.6701 	 -75.1728
| 29> C 	 -88.9056 	 -50.5399 	 -72.9286
| 30> H 	 -89.9439 	 -50.7709 	 -72.749
| 31> H 	 -88.566 	 -50.3167 	 -71.847
| 32> C 	 -88.1759 	 -51.7698 	 -73.4578
| 33> H 	 -87.9081 	 -52.5312 	 -72.7359
| 34> H 	 -87.2555 	 -51.4838 	 -73.8636
| 35> C 	 -88.9572 	 -52.6132 	 -74.52
| 36> H 	 -88.4353 	 -53.4623 	 -74.83
| 37> H 	 -89.1555 	 -51.96 	 -75.3356
| 38> H 	 -89.8639 	 -53.0433 	 -74.1171
| 39> H 	 -84.7904 	 -47.4235 	 -69.7371
| 40> H 	 -90.2331 	 -47.5302 	 -76.3699
| 41> *
| 42>
| 43>                          ****END OF INPUT****

CARTESIAN COORDINATES (ANGSTROEM)
---------------------------------
  S    -86.820700  -47.117000  -71.146800
  C    -85.231500  -47.616300  -70.675300
  C    -84.733600  -48.501600  -71.608900
  C    -85.638100  -48.780700  -72.686700
  C    -86.811500  -48.163400  -72.594000
  H    -85.497900  -49.513000  -73.440900
  C    -83.427700  -49.223300  -71.499900
  H    -83.549300  -50.213900  -71.913800
  H    -83.175200  -49.355500  -70.511700
  C    -82.277900  -48.587800  -72.305300
  H    -81.434500  -49.242800  -72.628100
  H    -82.690800  -48.311900  -73.275400
  C    -81.627800  -47.296100  -71.610800
  H    -81.037400  -47.545900  -70.750100
  H    -81.077600  -46.865000  -72.393200
  H    -82.410500  -46.653700  -71.281100
  S    -88.351700  -46.931700  -74.649000
  C    -89.665300  -47.844700  -75.444900
  C    -89.837200  -49.057400  -74.797400
  C    -88.934400  -49.275700  -73.690900
  C    -87.978800  -48.228700  -73.493200
  H    -90.641600  -49.670100  -75.172800
  C    -88.905600  -50.539900  -72.928600
  H    -89.943900  -50.770900  -72.749000
  H    -88.566000  -50.316700  -71.847000
  C    -88.175900  -51.769800  -73.457800
  H    -87.908100  -52.531200  -72.735900
  H    -87.255500  -51.483800  -73.863600
  C    -88.957200  -52.613200  -74.520000
  H    -88.435300  -53.462300  -74.830000
  H    -89.155500  -51.960000  -75.335600
  H    -89.863900  -53.043300  -74.117100
  H    -84.790400  -47.423500  -69.737100
  H    -90.233100  -47.530200  -76.369900

 Total Charge           Charge          ....    0
 Multiplicity           Mult            ....    1
 Number of Electrons    NEL             ....  134
 Basis Dimension        Dim             ....  322

ORBITAL ENERGIES
----------------

  NO   OCC          E(Eh)            E(eV)
   0   2.0000     -88.966556     -2420.9031
   1   2.0000     -88.962604     -2420.7955
   2   2.0000     -10.335250      -281.2364
   3   2.0000     -10.330986      -281.1204
   4   2.0000     -10.328346      -281.0486
   5   2.0000     -10.314100      -280.6609
   6   2.0000     -10.310865      -280.5729
   7   2.0000     -10.300653      -280.2950
   8   2.0000     -10.298493      -280.2362
   9   2.0000     -10.291071      -280.0343
  10   2.0000     -10.290597      -280.0214
  11   2.0000     -10.289887      -280.0021
  12   2.0000     -10.283031      -279.8155
  13   2.0000     -10.281956      -279.7862
  14   2.0000     -10.269982      -279.4604
  15   2.0000     -10.268830      -279.4291
  16   2.0000      -8.080079      -219.8701
  17   2.0000      -8.077463      -219.7989
  18   2.0000      -6.038671      -164.3206
  19   2.0000      -6.036022      -164.2485
  20   2.0000      -6.034572      -164.2091
  21   2.0000      -6.031877      -164.1357
  22   2.0000      -6.030971      -164.1111
  23   2.0000      -6.028215      -164.0361
  24   2.0000      -1.005370       -27.3575
  25   2.0000      -0.980593       -26.6833
  26   2.0000      -0.908573       -24.7235
  27   2.0000      -0.907077       -24.6828
  28   2.0000      -0.870536       -23.6885
  29   2.0000      -0.847228       -23.0543
  30   2.0000      -0.845032       -22.9945
  31   2.0000      -0.821641       -22.3580
  32   2.0000      -0.784393       -21.3444
  33   2.0000      -0.771466       -20.9927
  34   2.0000      -0.715212       -19.4619
  35   2.0000      -0.700837       -19.0707
  36   2.0000      -0.693028       -18.8583
  37   2.0000      -0.655619       -17.8403
  38   2.0000      -0.653141       -17.7729
  39   2.0000      -0.625510       -17.0210
  40   2.0000      -0.590928       -16.0800
  41   2.0000      -0.571867       -15.5613
  42   2.0000      -0.555641       -15.1197
  43   2.0000      -0.549887       -14.9632
  44   2.0000      -0.540939       -14.7197
  45   2.0000      -0.536201       -14.5908
  46   2.0000      -0.523945       -14.2573
  47   2.0000      -0.515434       -14.0257
  48   2.0000      -0.510259       -13.8849
  49   2.0000      -0.500063       -13.6074
  50   2.0000      -0.485501       -13.2112
  51   2.0000      -0.481104       -13.0915
  52   2.0000      -0.475568       -12.9409
  53   2.0000      -0.471469       -12.8293
  54   2.0000      -0.458930       -12.4881
  55   2.0000      -0.451435       -12.2842
  56   2.0000      -0.447246       -12.1702
  57   2.0000      -0.435492       -11.8503
  58   2.0000      -0.432011       -11.7556
  59   2.0000      -0.422227       -11.4894
  60   2.0000      -0.415355       -11.3024
  61   2.0000      -0.407601       -11.0914
  62   2.0000      -0.405405       -11.0316
  63   2.0000      -0.345281        -9.3956
  64   2.0000      -0.330555        -8.9949
  65   2.0000      -0.322933        -8.7875
  66   2.0000      -0.307514        -8.3679
  67   0.0000       0.038526         1.0484
  68   0.0000       0.050858         1.3839
  69   0.0000       0.117573         3.1993
  70   0.0000       0.120213         3.2712
  71   0.0000       0.127199         3.4612

MULLIKEN ATOMIC CHARGES
-----------------------
   0 S :    0.100796
   1 C :   -0.093689
   2 C :   -0.113127
   3 C :    0.069886
   4 C :   -0.162577
   5 H :    0.001372
   6 C :    0.129383
   7 H :    0.014896
   8 H :   -0.001981
   9 C :   -0.109163
  10 H :    0.033371
  11 H :    0.019514
  12 C :   -0.023559
  13 H :    0.031646
  14 H :    0.029986
  15 H :    0.023474
  16 S :    0.102122
  17 C :   -0.128098
  18 C :   -0.030388
  19 C :   -0.026231
  20 C :   -0.153986
  21 H :    0.025655
  22 C :    0.039115
  23 H :    0.014993
  24 H :    0.043455
  25 C :   -0.019259
  26 H :    0.023609
  27 H :    0.004378
  28 C :   -0.034642
  29 H :    0.016709
  30 H :    0.027430
  31 H :    0.021103
  32 H :    0.037877
  33 H :    0.085933
Sum of atomic charges:    0.0000000

LOEWDIN ATOMIC CHARGES
----------------------
   0 S :    0.392762
   1 C :   -0.188533
   2 C :   -0.060162
   3 C :   -0.049979
   4 C :   -0.180615
   5 H :    0.029547
   6 C :   -0.027469
   7 H :    0.032517
   8 H :    0.016395
   9 C :   -0.038380
  10 H :    0.025327
  11 H :    0.020667
  12 C :   -0.055275
  13 H :    0.021390
  14 H :    0.021741
  15 H :    0.019487
  16 S :    0.386499
  17 C :   -0.183194
  18 C :   -0.077893
  19 C :   -0.051478
  20 C :   -0.198508
  21 H :    0.033524
  22 C :   -0.045878
  23 H :    0.029412
  24 H :    0.045942
  25 C :   -0.031748
  26 H :    0.026796
  27 H :    0.013079
  28 C :   -0.056676
  29 H :    0.018212
  30 H :    0.018858
  31 H :    0.022629
  32 H :    0.023194
  33 H :    0.047811

  Mayer bond orders larger than 0.100000
B(  0-S ,  1-C ) :   1.1388 B(  0-S ,  4-C ) :   1.1299 B(  1-C ,  2-C ) :   1.6188
B(  1-C , 32-H ) :   0.9735 B(  2-C ,  3-C ) :   1.2106 B(  2-C ,  6-C ) :   1.0374
B(  3-C ,  4-C ) :   1.6350 B(  3-C ,  5-H ) :   0.9996 B(  4-C , 20-C ) :   1.0143
B(  6-C ,  7-H ) :   0.9325 B(  6-C ,  8-H ) :   0.9429 B(  6-C ,  9-C ) :   1.0580
B(  9-C , 10-H ) :   0.9603 B(  9-C , 11-H ) :   0.9587 B(  9-C , 12-C ) :   1.0680
B( 12-C , 13-H ) :   0.9792 B( 12-C , 14-H ) :   0.9768 B( 12-C , 15-H ) :   0.9779
B( 16-S , 17-C ) :   1.1579 B( 16-S , 20-C ) :   1.1404 B( 17-C , 18-C ) :   1.6073
B( 17-C , 20-C ) :   0.1014 B( 17-C , 33-H ) :   0.9578 B( 18-C , 19-C ) :   1.2362
B( 18-C , 21-H ) :   0.9897 B( 19-C , 20-C ) :   1.5680 B( 19-C , 22-C ) :   1.0723
B( 22-C , 23-H ) :   0.9299 B( 22-C , 24-H ) :   0.9231 B( 22-C , 25-C ) :   1.0585
B( 25-C , 26-H ) :   0.9547 B( 25-C , 27-H ) :   0.9541 B( 25-C , 28-C ) :   1.0849
B( 28-C , 29-H ) :   0.9721 B( 28-C , 30-H ) :   0.9781 B( 28-C , 31-H ) :   0.9749

Dispersion correction           -0.014734300
FINAL SINGLE POINT ENERGY     -1339.868286715748

DIPOLE MOMENT
-------------
                                X             Y             Z
Electronic contribution:    -13.66856      18.79379       0.00435
Nuclear contribution   :     13.83836     -19.51168      -0.08790
                        -----------------------------------------
Total Dipole Moment    :      0.16979      -0.71789      -0.08355
                        -----------------------------------------
Magnitude (a.u.)       :      0.74241
Magnitude (Debye)      :      1.88707

Rotational constants in cm-1:     0.020224     0.007906     0.006716
Rotational constants in MHz :   606.299679   237.013808   201.347949

                             ****ORCA TERMINATED NORMALLY****
TOTAL RUN TIME: 0 days 0 hours 0 minutes 21 seconds 437 msec
