                         Program Version 4.2.1 -  RELEASE  -
|  1> ! wB97X-D3 SP def2-SVP
|  2> %pal
|  3> nprocs 24
|  4> end
|  5>
|  6> * xyz 0 1
|  7> S 	 -118.173 	 16.1111 	 -114.238
|  8> C 	 -116.938 	 16.7597 	 -115.282
|  9> C 	 -116.528 	 15.8056 	 -116.145
| 10> C 	 -117.221 	 14.5704 	 -116.019
| 11> C 	 -118.146 	 14.6348 	 -115.023
| 12> H 	 -117.1 	 13.5912 	 -116.506
| 13> C 	 -115.43 	 15.9549 	 -117.117
| 14> H 	 -115.031 	 16.9792 	 -117.131
| 15> H 	 -115.939 	 15.9558 	 -118.07
| 16> C 	 -114.389 	 14.881 	 -117.187
| 17> H 	 -114.108 	 14.491 	 -116.208
| 18> H 	 -114.801 	 13.9293 	 -117.504
| 19> C 	 -113.213 	 15.4978 	 -117.927
| 20> H 	 -113.561 	 15.8469 	 -118.919
| 21> H 	 -112.746 	 16.2994 	 -117.377
| 22> H 	 -112.388 	 14.7549 	 -118.084
| 23> S 	 -118.837 	 13.1502 	 -112.747
| 24> C 	 -119.918 	 11.8254 	 -112.996
| 25> C 	 -120.499 	 11.7684 	 -114.27
| 26> C 	 -119.85 	 12.7085 	 -115.168
| 27> C 	 -118.998 	 13.5771 	 -114.504
| 28> H 	 -121.161 	 10.9632 	 -114.514
| 29> C 	 -120.163 	 12.7146 	 -116.665
| 30> H 	 -119.226 	 12.8432 	 -117.217
| 31> H 	 -120.685 	 13.6692 	 -116.781
| 32> C 	 -120.846 	 11.4352 	 -117.266
| 33> H 	 -121.244 	 11.7587 	 -118.197
| 34> H 	 -121.688 	 11.1639 	 -116.68
| 35> C 	 -119.921 	 10.2058 	 -117.439
| 36> H 	 -119.736 	 9.70661 	 -116.503
| 37> H 	 -119.033 	 10.5612 	 -117.939
| 38> H 	 -120.298 	 9.43295 	 -118.088
| 39> H 	 -116.477 	 17.7228 	 -115.282
| 40> H 	 -120.166 	 11.0708 	 -112.336
| 41> *
| 42>
| 43>                          ****END OF INPUT****

CARTESIAN COORDINATES (ANGSTROEM)
---------------------------------
  S    -118.173000   16.111100  -114.238000
  C    -116.938000   16.759700  -115.282000
  C    -116.528000   15.805600  -116.145000
  C    -117.221000   14.570400  -116.019000
  C    -118.146000   14.634800  -115.023000
  H    -117.100000   13.591200  -116.506000
  C    -115.430000   15.954900  -117.117000
  H    -115.031000   16.979200  -117.131000
  H    -115.939000   15.955800  -118.070000
  C    -114.389000   14.881000  -117.187000
  H    -114.108000   14.491000  -116.208000
  H    -114.801000   13.929300  -117.504000
  C    -113.213000   15.497800  -117.927000
  H    -113.561000   15.846900  -118.919000
  H    -112.746000   16.299400  -117.377000
  H    -112.388000   14.754900  -118.084000
  S    -118.837000   13.150200  -112.747000
  C    -119.918000   11.825400  -112.996000
  C    -120.499000   11.768400  -114.270000
  C    -119.850000   12.708500  -115.168000
  C    -118.998000   13.577100  -114.504000
  H    -121.161000   10.963200  -114.514000
  C    -120.163000   12.714600  -116.665000
  H    -119.226000   12.843200  -117.217000
  H    -120.685000   13.669200  -116.781000
  C    -120.846000   11.435200  -117.266000
  H    -121.244000   11.758700  -118.197000
  H    -121.688000   11.163900  -116.680000
  C    -119.921000   10.205800  -117.439000
  H    -119.736000    9.706610  -116.503000
  H    -119.033000   10.561200  -117.939000
  H    -120.298000    9.432950  -118.088000
  H    -116.477000   17.722800  -115.282000
  H    -120.166000   11.070800  -112.336000

 Total Charge           Charge          ....    0
 Multiplicity           Mult            ....    1
 Number of Electrons    NEL             ....  134
 Basis Dimension        Dim             ....  322

ORBITAL ENERGIES
----------------

  NO   OCC          E(Eh)            E(eV)
   0   2.0000     -88.968017     -2420.9428
   1   2.0000     -88.960596     -2420.7409
   2   2.0000     -10.324849      -280.9534
   3   2.0000     -10.318256      -280.7740
   4   2.0000     -10.313389      -280.6416
   5   2.0000     -10.307215      -280.4736
   6   2.0000     -10.301700      -280.3235
   7   2.0000     -10.296329      -280.1774
   8   2.0000     -10.294335      -280.1231
   9   2.0000     -10.291275      -280.0398
  10   2.0000     -10.288136      -279.9544
  11   2.0000     -10.287151      -279.9276
  12   2.0000     -10.283329      -279.8236
  13   2.0000     -10.282947      -279.8132
  14   2.0000     -10.282109      -279.7904
  15   2.0000     -10.278396      -279.6894
  16   2.0000      -8.081941      -219.9208
  17   2.0000      -8.077221      -219.7924
  18   2.0000      -6.040498      -164.3703
  19   2.0000      -6.036645      -164.2655
  20   2.0000      -6.035647      -164.2383
  21   2.0000      -6.032615      -164.1558
  22   2.0000      -6.031441      -164.1239
  23   2.0000      -6.027967      -164.0293
  24   2.0000      -1.014946       -27.6181
  25   2.0000      -0.982057       -26.7231
  26   2.0000      -0.923219       -25.1221
  27   2.0000      -0.906181       -24.6584
  28   2.0000      -0.872848       -23.7514
  29   2.0000      -0.853401       -23.2222
  30   2.0000      -0.843308       -22.9476
  31   2.0000      -0.815598       -22.1935
  32   2.0000      -0.785700       -21.3800
  33   2.0000      -0.773131       -21.0380
  34   2.0000      -0.718219       -19.5437
  35   2.0000      -0.708346       -19.2751
  36   2.0000      -0.696426       -18.9507
  37   2.0000      -0.655477       -17.8364
  38   2.0000      -0.646346       -17.5880
  39   2.0000      -0.618912       -16.8415
  40   2.0000      -0.598468       -16.2851
  41   2.0000      -0.573703       -15.6112
  42   2.0000      -0.559510       -15.2251
  43   2.0000      -0.555278       -15.1099
  44   2.0000      -0.539976       -14.6935
  45   2.0000      -0.530796       -14.4437
  46   2.0000      -0.513001       -13.9595
  47   2.0000      -0.511926       -13.9302
  48   2.0000      -0.505606       -13.7582
  49   2.0000      -0.499628       -13.5956
  50   2.0000      -0.489718       -13.3259
  51   2.0000      -0.477909       -13.0046
  52   2.0000      -0.477528       -12.9942
  53   2.0000      -0.462902       -12.5962
  54   2.0000      -0.459149       -12.4941
  55   2.0000      -0.454590       -12.3700
  56   2.0000      -0.449716       -12.2374
  57   2.0000      -0.446203       -12.1418
  58   2.0000      -0.441051       -12.0016
  59   2.0000      -0.425625       -11.5819
  60   2.0000      -0.422685       -11.5018
  61   2.0000      -0.416648       -11.3376
  62   2.0000      -0.403657       -10.9841
  63   2.0000      -0.344405        -9.3717
  64   2.0000      -0.330657        -8.9976
  65   2.0000      -0.327066        -8.8999
  66   2.0000      -0.290161        -7.8957
  67   0.0000       0.038210         1.0397
  68   0.0000       0.068094         1.8529
  69   0.0000       0.117307         3.1921
  70   0.0000       0.123503         3.3607
  71   0.0000       0.132753         3.6124

MULLIKEN ATOMIC CHARGES
-----------------------
   0 S :    0.111389
   1 C :   -0.114050
   2 C :   -0.068940
   3 C :    0.001929
   4 C :   -0.165679
   5 H :    0.022843
   6 C :    0.074266
   7 H :    0.005013
   8 H :    0.025395
   9 C :   -0.054145
  10 H :    0.019100
  11 H :    0.018851
  12 C :   -0.047935
  13 H :    0.033355
  14 H :    0.040408
  15 H :    0.033575
  16 S :    0.119055
  17 C :   -0.055226
  18 C :   -0.045628
  19 C :   -0.051199
  20 C :   -0.151382
  21 H :    0.016211
  22 C :    0.057693
  23 H :    0.015231
  24 H :    0.051432
  25 C :   -0.043232
  26 H :    0.019840
  27 H :    0.019929
  28 C :   -0.030481
  29 H :    0.035138
  30 H :    0.023335
  31 H :    0.031131
  32 H :    0.026793
  33 H :    0.025986
Sum of atomic charges:    0.0000000

LOEWDIN ATOMIC CHARGES
----------------------
   0 S :    0.436618
   1 C :   -0.207381
   2 C :   -0.060328
   3 C :   -0.077083
   4 C :   -0.210254
   5 H :    0.035967
   6 C :   -0.038031
   7 H :    0.028803
   8 H :    0.036102
   9 C :   -0.047238
  10 H :    0.023633
  11 H :    0.023303
  12 C :   -0.060203
  13 H :    0.027474
  14 H :    0.026513
  15 H :    0.028291
  16 S :    0.390841
  17 C :   -0.174397
  18 C :   -0.072855
  19 C :   -0.045540
  20 C :   -0.194842
  21 H :    0.027098
  22 C :   -0.031547
  23 H :    0.028388
  24 H :    0.042717
  25 C :   -0.032359
  26 H :    0.023792
  27 H :    0.015519
  28 C :   -0.059494
  29 H :    0.024716
  30 H :    0.023971
  31 H :    0.027012
  32 H :    0.026074
  33 H :    0.014723

  Mayer bond orders larger than 0.100000
B(  0-S ,  1-C ) :   1.1089 B(  0-S ,  4-C ) :   1.1844 B(  1-C ,  2-C ) :   1.6408
B(  1-C , 32-H ) :   0.9720 B(  2-C ,  3-C ) :   1.2025 B(  2-C ,  6-C ) :   1.0302
B(  3-C ,  4-C ) :   1.5922 B(  3-C ,  5-H ) :   0.9885 B(  4-C , 20-C ) :   1.0162
B(  6-C ,  7-H ) :   0.9459 B(  6-C ,  8-H ) :   0.9123 B(  6-C ,  9-C ) :   1.0509
B(  9-C , 10-H ) :   0.9585 B(  9-C , 11-H ) :   0.9424 B(  9-C , 12-C ) :   1.0772
B( 12-C , 13-H ) :   0.9725 B( 12-C , 14-H ) :   0.9762 B( 12-C , 15-H ) :   0.9724
B( 16-S , 17-C ) :   1.1618 B( 16-S , 20-C ) :   1.1104 B( 17-C , 18-C ) :   1.6306
B( 17-C , 33-H ) :   0.9681 B( 18-C , 19-C ) :   1.2207 B( 18-C , 21-H ) :   0.9817
B( 19-C , 20-C ) :   1.6346 B( 19-C , 22-C ) :   1.0202 B( 22-C , 23-H ) :   0.9351
B( 22-C , 24-H ) :   0.9291 B( 22-C , 25-C ) :   1.0742 B( 25-C , 26-H ) :   0.9509
B( 25-C , 27-H ) :   0.9532 B( 25-C , 28-C ) :   1.0739 B( 28-C , 29-H ) :   0.9762
B( 28-C , 30-H ) :   0.9745 B( 28-C , 31-H ) :   0.9747

Dispersion correction           -0.013912879
FINAL SINGLE POINT ENERGY     -1339.869716519933

DIPOLE MOMENT
-------------
                                X             Y             Z
Electronic contribution:     -9.64630       9.18077      24.46324
Nuclear contribution   :      9.74998      -9.59997     -25.10013
                        -----------------------------------------
Total Dipole Moment    :      0.10368      -0.41920      -0.63689
                        -----------------------------------------
Magnitude (a.u.)       :      0.76949
Magnitude (Debye)      :      1.95588

Rotational constants in cm-1:     0.018331     0.008289     0.006544
Rotational constants in MHz :   549.560431   248.484287   196.198459

                             ****ORCA TERMINATED NORMALLY****
TOTAL RUN TIME: 0 days 0 hours 0 minutes 21 seconds 368 msec
