                         Program Version 4.2.1 -  RELEASE  -
|  1> ! wB97X-D3 SP def2-SVP
|  2> %pal
|  3> nprocs 24
|  4> end
|  5>
|  6> * xyz 0 1
|  7> S 	 21.2879 	 0.541716 	 -110.85
|  8> C 	 21.0587 	 -0.39667 	 -109.443
|  9> C 	 19.7721 	 -0.324427 	 -108.885
| 10> C 	 19.0155 	 0.561387 	 -109.634
| 11> C 	 19.6046 	 0.998129 	 -110.818
| 12> H 	 17.9837 	 0.784567 	 -109.501
| 13> C 	 19.2948 	 -0.96091 	 -107.582
| 14> H 	 19.5229 	 -0.169469 	 -106.856
| 15> H 	 19.848 	 -1.85686 	 -107.372
| 16> C 	 17.8001 	 -1.18387 	 -107.316
| 17> H 	 17.7439 	 -1.60289 	 -106.329
| 18> H 	 17.2042 	 -0.29364 	 -107.332
| 19> C 	 17.1991 	 -2.15898 	 -108.33
| 20> H 	 17.4415 	 -1.88343 	 -109.352
| 21> H 	 17.3456 	 -3.16672 	 -108.168
| 22> H 	 16.0803 	 -2.00456 	 -108.258
| 23> S 	 18.0167 	 3.37354 	 -110.99
| 24> C 	 17.8851 	 4.24 	 -112.547
| 25> C 	 18.6969 	 3.63127 	 -113.482
| 26> C 	 19.3473 	 2.43567 	 -112.995
| 27> C 	 19.1145 	 2.11647 	 -111.664
| 28> H 	 18.7513 	 4.06622 	 -114.484
| 29> C 	 20.246 	 1.69791 	 -113.975
| 30> H 	 19.62 	 1.52491 	 -114.823
| 31> H 	 20.3014 	 0.709523 	 -113.495
| 32> C 	 21.7505 	 2.02371 	 -114.073
| 33> H 	 22.2243 	 1.73536 	 -113.136
| 34> H 	 21.8303 	 3.10321 	 -114.279
| 35> C 	 22.4924 	 1.16822 	 -115.051
| 36> H 	 23.5545 	 1.39085 	 -115.046
| 37> H 	 21.9658 	 1.0347 	 -116
| 38> H 	 22.4384 	 0.207183 	 -114.576
| 39> H 	 21.7626 	 -1.17145 	 -109.063
| 40> H 	 17.2511 	 5.06722 	 -112.751
| 41> *
| 42>
| 43>                          ****END OF INPUT****

CARTESIAN COORDINATES (ANGSTROEM)
---------------------------------
  S     21.287900    0.541716  -110.850000
  C     21.058700   -0.396670  -109.443000
  C     19.772100   -0.324427  -108.885000
  C     19.015500    0.561387  -109.634000
  C     19.604600    0.998129  -110.818000
  H     17.983700    0.784567  -109.501000
  C     19.294800   -0.960910  -107.582000
  H     19.522900   -0.169469  -106.856000
  H     19.848000   -1.856860  -107.372000
  C     17.800100   -1.183870  -107.316000
  H     17.743900   -1.602890  -106.329000
  H     17.204200   -0.293640  -107.332000
  C     17.199100   -2.158980  -108.330000
  H     17.441500   -1.883430  -109.352000
  H     17.345600   -3.166720  -108.168000
  H     16.080300   -2.004560  -108.258000
  S     18.016700    3.373540  -110.990000
  C     17.885100    4.240000  -112.547000
  C     18.696900    3.631270  -113.482000
  C     19.347300    2.435670  -112.995000
  C     19.114500    2.116470  -111.664000
  H     18.751300    4.066220  -114.484000
  C     20.246000    1.697910  -113.975000
  H     19.620000    1.524910  -114.823000
  H     20.301400    0.709523  -113.495000
  C     21.750500    2.023710  -114.073000
  H     22.224300    1.735360  -113.136000
  H     21.830300    3.103210  -114.279000
  C     22.492400    1.168220  -115.051000
  H     23.554500    1.390850  -115.046000
  H     21.965800    1.034700  -116.000000
  H     22.438400    0.207183  -114.576000
  H     21.762600   -1.171450  -109.063000
  H     17.251100    5.067220  -112.751000

 Total Charge           Charge          ....    0
 Multiplicity           Mult            ....    1
 Number of Electrons    NEL             ....  134
 Basis Dimension        Dim             ....  322

ORBITAL ENERGIES
----------------

  NO   OCC          E(Eh)            E(eV)
   0   2.0000     -88.975525     -2421.1471
   1   2.0000     -88.962777     -2420.8002
   2   2.0000     -10.333136      -281.1789
   3   2.0000     -10.332106      -281.1509
   4   2.0000     -10.318641      -280.7845
   5   2.0000     -10.315960      -280.7115
   6   2.0000     -10.303224      -280.3650
   7   2.0000     -10.302321      -280.3404
   8   2.0000     -10.294820      -280.1363
   9   2.0000     -10.294288      -280.1218
  10   2.0000     -10.290875      -280.0290
  11   2.0000     -10.286671      -279.9146
  12   2.0000     -10.284469      -279.8546
  13   2.0000     -10.284037      -279.8429
  14   2.0000     -10.271590      -279.5042
  15   2.0000     -10.271437      -279.5000
  16   2.0000      -8.090016      -220.1405
  17   2.0000      -8.076050      -219.7605
  18   2.0000      -6.048349      -164.5839
  19   2.0000      -6.044575      -164.4812
  20   2.0000      -6.040988      -164.3836
  21   2.0000      -6.034838      -164.2163
  22   2.0000      -6.030757      -164.1052
  23   2.0000      -6.026609      -163.9924
  24   2.0000      -1.009135       -27.4600
  25   2.0000      -0.979548       -26.6548
  26   2.0000      -0.916490       -24.9390
  27   2.0000      -0.909925       -24.7603
  28   2.0000      -0.867562       -23.6076
  29   2.0000      -0.857267       -23.3274
  30   2.0000      -0.849226       -23.1086
  31   2.0000      -0.814373       -22.1602
  32   2.0000      -0.786004       -21.3882
  33   2.0000      -0.769869       -20.9492
  34   2.0000      -0.710813       -19.3422
  35   2.0000      -0.695153       -18.9161
  36   2.0000      -0.689495       -18.7621
  37   2.0000      -0.666946       -18.1485
  38   2.0000      -0.638462       -17.3734
  39   2.0000      -0.619911       -16.8686
  40   2.0000      -0.590508       -16.0685
  41   2.0000      -0.572109       -15.5679
  42   2.0000      -0.571034       -15.5386
  43   2.0000      -0.555021       -15.1029
  44   2.0000      -0.544411       -14.8142
  45   2.0000      -0.532580       -14.4922
  46   2.0000      -0.521726       -14.1969
  47   2.0000      -0.515377       -14.0241
  48   2.0000      -0.510109       -13.8808
  49   2.0000      -0.490462       -13.3462
  50   2.0000      -0.486070       -13.2266
  51   2.0000      -0.481020       -13.0892
  52   2.0000      -0.476863       -12.9761
  53   2.0000      -0.465814       -12.6755
  54   2.0000      -0.451861       -12.2958
  55   2.0000      -0.449896       -12.2423
  56   2.0000      -0.445618       -12.1259
  57   2.0000      -0.440799       -11.9947
  58   2.0000      -0.435884       -11.8610
  59   2.0000      -0.424762       -11.5583
  60   2.0000      -0.415737       -11.3128
  61   2.0000      -0.410494       -11.1701
  62   2.0000      -0.403580       -10.9820
  63   2.0000      -0.351989        -9.5781
  64   2.0000      -0.337570        -9.1858
  65   2.0000      -0.326721        -8.8905
  66   2.0000      -0.286568        -7.7979
  67   0.0000       0.020615         0.5610
  68   0.0000       0.078281         2.1301
  69   0.0000       0.106664         2.9025
  70   0.0000       0.112479         3.0607
  71   0.0000       0.132680         3.6104

MULLIKEN ATOMIC CHARGES
-----------------------
   0 S :    0.112221
   1 C :   -0.121070
   2 C :   -0.098471
   3 C :   -0.024282
   4 C :   -0.116794
   5 H :    0.009190
   6 C :    0.078987
   7 H :    0.049835
   8 H :    0.022907
   9 C :   -0.058416
  10 H :    0.027934
  11 H :    0.028187
  12 C :   -0.051865
  13 H :    0.038556
  14 H :    0.021680
  15 H :    0.028080
  16 S :    0.071976
  17 C :   -0.083729
  18 C :   -0.022328
  19 C :   -0.087978
  20 C :   -0.104534
  21 H :    0.028046
  22 C :    0.031271
  23 H :    0.026221
  24 H :    0.003213
  25 C :   -0.040200
  26 H :    0.027668
  27 H :    0.029665
  28 C :   -0.015371
  29 H :    0.040895
  30 H :    0.032896
  31 H :    0.007650
  32 H :    0.057598
  33 H :    0.050365
Sum of atomic charges:   -0.0000000

LOEWDIN ATOMIC CHARGES
----------------------
   0 S :    0.454064
   1 C :   -0.219354
   2 C :   -0.062311
   3 C :   -0.064259
   4 C :   -0.193068
   5 H :    0.023976
   6 C :   -0.029072
   7 H :    0.044547
   8 H :    0.028033
   9 C :   -0.036522
  10 H :    0.028640
  11 H :    0.022287
  12 C :   -0.064300
  13 H :    0.025724
  14 H :    0.012720
  15 H :    0.032847
  16 S :    0.363572
  17 C :   -0.166141
  18 C :   -0.072976
  19 C :   -0.062963
  20 C :   -0.181926
  21 H :    0.035706
  22 C :   -0.044931
  23 H :    0.028779
  24 H :    0.023182
  25 C :   -0.038023
  26 H :    0.016811
  27 H :    0.018118
  28 C :   -0.062870
  29 H :    0.030895
  30 H :    0.025191
  31 H :    0.023690
  32 H :    0.033908
  33 H :    0.026028

  Mayer bond orders larger than 0.100000
B(  0-S ,  1-C ) :   1.1748 B(  0-S ,  4-C ) :   1.1611 B(  1-C ,  2-C ) :   1.5722
B(  1-C ,  4-C ) :   0.1054 B(  1-C , 32-H ) :   0.9540 B(  2-C ,  3-C ) :   1.2930
B(  2-C ,  6-C ) :   1.0102 B(  3-C ,  4-C ) :   1.5284 B(  3-C ,  5-H ) :   0.9932
B(  4-C , 20-C ) :   1.0581 B(  6-C ,  7-H ) :   0.9309 B(  6-C ,  8-H ) :   0.9420
B(  6-C ,  9-C ) :   1.0940 B(  9-C , 10-H ) :   0.9493 B(  9-C , 11-H ) :   0.9511
B(  9-C , 12-C ) :   1.0796 B( 12-C , 13-H ) :   0.9754 B( 12-C , 14-H ) :   0.9781
B( 12-C , 15-H ) :   0.9755 B( 16-S , 17-C ) :   1.1391 B( 16-S , 20-C ) :   1.1022
B( 17-C , 18-C ) :   1.6236 B( 17-C , 33-H ) :   0.9707 B( 18-C , 19-C ) :   1.2271
B( 18-C , 21-H ) :   0.9897 B( 19-C , 20-C ) :   1.5957 B( 19-C , 22-C ) :   1.0512
B( 22-C , 23-H ) :   0.9372 B( 22-C , 24-H ) :   0.9218 B( 22-C , 25-C ) :   1.0529
B( 25-C , 26-H ) :   0.9515 B( 25-C , 27-H ) :   0.9573 B( 25-C , 28-C ) :   1.0780
B( 28-C , 29-H ) :   0.9699 B( 28-C , 30-H ) :   0.9748 B( 28-C , 31-H ) :   0.9720

Dispersion correction           -0.014276312
FINAL SINGLE POINT ENERGY     -1339.863480917852

DIPOLE MOMENT
-------------
                                X             Y             Z
Electronic contribution:     -0.78167      12.92124       1.47332
Nuclear contribution   :      0.73836     -13.22082      -1.35594
                        -----------------------------------------
Total Dipole Moment    :     -0.04331      -0.29958       0.11738
                        -----------------------------------------
Magnitude (a.u.)       :      0.32466
Magnitude (Debye)      :      0.82521

Rotational constants in cm-1:     0.019780     0.008648     0.006605
Rotational constants in MHz :   593.003599   259.259665   198.008517

                             ****ORCA TERMINATED NORMALLY****
TOTAL RUN TIME: 0 days 0 hours 0 minutes 21 seconds 504 msec
