                         Program Version 4.2.1 -  RELEASE  -
|  1> ! wB97X-D3 SP def2-SVP
|  2> %pal
|  3> nprocs 24
|  4> end
|  5>
|  6> * xyz 0 1
|  7> S 	 -134.982 	 15.8913 	 -14.8061
|  8> C 	 -135.234 	 14.4401 	 -13.8707
|  9> C 	 -135.92 	 13.5386 	 -14.6681
| 10> C 	 -136.017 	 13.9846 	 -16.0071
| 11> C 	 -135.472 	 15.2272 	 -16.2814
| 12> H 	 -136.325 	 13.3693 	 -16.8709
| 13> C 	 -136.316 	 12.0784 	 -14.176
| 14> H 	 -135.6 	 11.7832 	 -13.3965
| 15> H 	 -136.082 	 11.3367 	 -14.9198
| 16> C 	 -137.782 	 11.8026 	 -13.808
| 17> H 	 -138.032 	 10.7077 	 -13.7708
| 18> H 	 -137.912 	 12.2511 	 -12.7626
| 19> C 	 -138.864 	 12.3093 	 -14.8437
| 20> H 	 -139.852 	 11.8664 	 -14.6644
| 21> H 	 -139.004 	 13.4271 	 -14.8318
| 22> H 	 -138.645 	 11.9003 	 -15.7917
| 23> S 	 -135.806 	 17.6247 	 -17.6754
| 24> C 	 -136.049 	 17.5601 	 -19.3871
| 25> C 	 -135.641 	 16.3443 	 -19.8429
| 26> C 	 -135.239 	 15.42 	 -18.8506
| 27> C 	 -135.446 	 15.9178 	 -17.6042
| 28> H 	 -135.551 	 16.0683 	 -20.9018
| 29> C 	 -134.693 	 14.0435 	 -19.1902
| 30> H 	 -134.351 	 13.4762 	 -18.344
| 31> H 	 -133.839 	 14.2582 	 -19.8051
| 32> C 	 -135.646 	 13.1993 	 -20.0513
| 33> H 	 -135.986 	 13.7527 	 -20.8915
| 34> H 	 -136.597 	 13.0636 	 -19.6258
| 35> C 	 -135.1 	 11.8636 	 -20.3726
| 36> H 	 -135.195 	 11.167 	 -19.4947
| 37> H 	 -134.008 	 11.855 	 -20.6604
| 38> H 	 -135.502 	 11.4588 	 -21.2719
| 39> H 	 -135.159 	 14.2369 	 -12.7916
| 40> H 	 -136.334 	 18.3524 	 -20.062
| 41> *
| 42>
| 43>                          ****END OF INPUT****

CARTESIAN COORDINATES (ANGSTROEM)
---------------------------------
  S    -134.982000   15.891300  -14.806100
  C    -135.234000   14.440100  -13.870700
  C    -135.920000   13.538600  -14.668100
  C    -136.017000   13.984600  -16.007100
  C    -135.472000   15.227200  -16.281400
  H    -136.325000   13.369300  -16.870900
  C    -136.316000   12.078400  -14.176000
  H    -135.600000   11.783200  -13.396500
  H    -136.082000   11.336700  -14.919800
  C    -137.782000   11.802600  -13.808000
  H    -138.032000   10.707700  -13.770800
  H    -137.912000   12.251100  -12.762600
  C    -138.864000   12.309300  -14.843700
  H    -139.852000   11.866400  -14.664400
  H    -139.004000   13.427100  -14.831800
  H    -138.645000   11.900300  -15.791700
  S    -135.806000   17.624700  -17.675400
  C    -136.049000   17.560100  -19.387100
  C    -135.641000   16.344300  -19.842900
  C    -135.239000   15.420000  -18.850600
  C    -135.446000   15.917800  -17.604200
  H    -135.551000   16.068300  -20.901800
  C    -134.693000   14.043500  -19.190200
  H    -134.351000   13.476200  -18.344000
  H    -133.839000   14.258200  -19.805100
  C    -135.646000   13.199300  -20.051300
  H    -135.986000   13.752700  -20.891500
  H    -136.597000   13.063600  -19.625800
  C    -135.100000   11.863600  -20.372600
  H    -135.195000   11.167000  -19.494700
  H    -134.008000   11.855000  -20.660400
  H    -135.502000   11.458800  -21.271900
  H    -135.159000   14.236900  -12.791600
  H    -136.334000   18.352400  -20.062000

 Total Charge           Charge          ....    0
 Multiplicity           Mult            ....    1
 Number of Electrons    NEL             ....  134
 Basis Dimension        Dim             ....  322

ORBITAL ENERGIES
----------------

  NO   OCC          E(Eh)            E(eV)
   0   2.0000     -88.966687     -2420.9066
   1   2.0000     -88.964745     -2420.8538
   2   2.0000     -10.329296      -281.0744
   3   2.0000     -10.327909      -281.0367
   4   2.0000     -10.316857      -280.7359
   5   2.0000     -10.315862      -280.7089
   6   2.0000     -10.304576      -280.4018
   7   2.0000     -10.298715      -280.2423
   8   2.0000     -10.298395      -280.2336
   9   2.0000     -10.297309      -280.2040
  10   2.0000     -10.291772      -280.0534
  11   2.0000     -10.291708      -280.0516
  12   2.0000     -10.290560      -280.0204
  13   2.0000     -10.280885      -279.7571
  14   2.0000     -10.279966      -279.7321
  15   2.0000     -10.277326      -279.6603
  16   2.0000      -8.082270      -219.9297
  17   2.0000      -8.080197      -219.8733
  18   2.0000      -6.040734      -164.3767
  19   2.0000      -6.038789      -164.3238
  20   2.0000      -6.036512      -164.2618
  21   2.0000      -6.034729      -164.2133
  22   2.0000      -6.033148      -164.1703
  23   2.0000      -6.030698      -164.1036
  24   2.0000      -1.015602       -27.6359
  25   2.0000      -0.995150       -27.0794
  26   2.0000      -0.918756       -25.0006
  27   2.0000      -0.901469       -24.5302
  28   2.0000      -0.868834       -23.6422
  29   2.0000      -0.857599       -23.3364
  30   2.0000      -0.839066       -22.8321
  31   2.0000      -0.816490       -22.2178
  32   2.0000      -0.785835       -21.3837
  33   2.0000      -0.778744       -21.1907
  34   2.0000      -0.711305       -19.3556
  35   2.0000      -0.701005       -19.0753
  36   2.0000      -0.691455       -18.8155
  37   2.0000      -0.663031       -18.0420
  38   2.0000      -0.636328       -17.3154
  39   2.0000      -0.615911       -16.7598
  40   2.0000      -0.603453       -16.4208
  41   2.0000      -0.573186       -15.5972
  42   2.0000      -0.566233       -15.4080
  43   2.0000      -0.547746       -14.9049
  44   2.0000      -0.536665       -14.6034
  45   2.0000      -0.530989       -14.4489
  46   2.0000      -0.521634       -14.1944
  47   2.0000      -0.512196       -13.9376
  48   2.0000      -0.505665       -13.7598
  49   2.0000      -0.498965       -13.5775
  50   2.0000      -0.489675       -13.3247
  51   2.0000      -0.479511       -13.0482
  52   2.0000      -0.476868       -12.9762
  53   2.0000      -0.469813       -12.7843
  54   2.0000      -0.460355       -12.5269
  55   2.0000      -0.458615       -12.4795
  56   2.0000      -0.442499       -12.0410
  57   2.0000      -0.436542       -11.8789
  58   2.0000      -0.430342       -11.7102
  59   2.0000      -0.419787       -11.4230
  60   2.0000      -0.415224       -11.2988
  61   2.0000      -0.412807       -11.2330
  62   2.0000      -0.409411       -11.1406
  63   2.0000      -0.355323        -9.6688
  64   2.0000      -0.333279        -9.0690
  65   2.0000      -0.328883        -8.9494
  66   2.0000      -0.293263        -7.9801
  67   0.0000       0.030479         0.8294
  68   0.0000       0.075753         2.0613
  69   0.0000       0.109184         2.9711
  70   0.0000       0.120214         3.2712
  71   0.0000       0.128174         3.4878

MULLIKEN ATOMIC CHARGES
-----------------------
   0 S :    0.112126
   1 C :   -0.115888
   2 C :   -0.091571
   3 C :    0.005971
   4 C :   -0.137784
   5 H :    0.012701
   6 C :    0.058212
   7 H :    0.026446
   8 H :    0.016995
   9 C :   -0.104555
  10 H :    0.040760
  11 H :    0.039431
  12 C :   -0.059709
  13 H :    0.028887
  14 H :    0.060662
  15 H :    0.016840
  16 S :    0.105259
  17 C :   -0.071062
  18 C :   -0.049598
  19 C :   -0.047394
  20 C :   -0.143985
  21 H :    0.022249
  22 C :    0.095834
  23 H :    0.025214
  24 H :    0.025331
  25 C :   -0.049014
  26 H :    0.001991
  27 H :    0.009408
  28 C :   -0.040870
  29 H :    0.042714
  30 H :    0.022950
  31 H :    0.024387
  32 H :    0.060032
  33 H :    0.057031
Sum of atomic charges:    0.0000000

LOEWDIN ATOMIC CHARGES
----------------------
   0 S :    0.435055
   1 C :   -0.209130
   2 C :   -0.064943
   3 C :   -0.076659
   4 C :   -0.209849
   5 H :    0.031930
   6 C :   -0.036298
   7 H :    0.032552
   8 H :    0.025752
   9 C :   -0.048207
  10 H :    0.030652
  11 H :    0.027166
  12 C :   -0.070551
  13 H :    0.027638
  14 H :    0.034912
  15 H :    0.016434
  16 S :    0.408311
  17 C :   -0.186490
  18 C :   -0.074755
  19 C :   -0.059927
  20 C :   -0.191185
  21 H :    0.031865
  22 C :   -0.019170
  23 H :    0.027784
  24 H :    0.034038
  25 C :   -0.046654
  26 H :    0.018786
  27 H :    0.020136
  28 C :   -0.068180
  29 H :    0.032089
  30 H :    0.028813
  31 H :    0.023648
  32 H :    0.039878
  33 H :    0.034559

  Mayer bond orders larger than 0.100000
B(  0-S ,  1-C ) :   1.1496 B(  0-S ,  4-C ) :   1.1731 B(  1-C ,  2-C ) :   1.5949
B(  1-C ,  4-C ) :   0.1035 B(  1-C , 32-H ) :   0.9636 B(  2-C ,  3-C ) :   1.2789
B(  2-C ,  6-C ) :   0.9997 B(  3-C ,  4-C ) :   1.5474 B(  3-C ,  5-H ) :   0.9899
B(  4-C , 20-C ) :   1.0188 B(  6-C ,  7-H ) :   0.9507 B(  6-C ,  8-H ) :   0.9470
B(  6-C ,  9-C ) :   1.0644 B(  9-C , 10-H ) :   0.9591 B(  9-C , 11-H ) :   0.9592
B(  9-C , 12-C ) :   1.0707 B( 12-C , 13-H ) :   0.9758 B( 12-C , 14-H ) :   0.9736
B( 12-C , 15-H ) :   0.9735 B( 16-S , 17-C ) :   1.1475 B( 16-S , 20-C ) :   1.1329
B( 17-C , 18-C ) :   1.6064 B( 17-C , 33-H ) :   0.9704 B( 18-C , 19-C ) :   1.2495
B( 18-C , 21-H ) :   0.9830 B( 19-C , 20-C ) :   1.6164 B( 19-C , 22-C ) :   1.0375
B( 22-C , 23-H ) :   0.9428 B( 22-C , 24-H ) :   0.9213 B( 22-C , 25-C ) :   1.0602
B( 25-C , 26-H ) :   0.9456 B( 25-C , 27-H ) :   0.9463 B( 25-C , 28-C ) :   1.0940
B( 28-C , 29-H ) :   0.9729 B( 28-C , 30-H ) :   0.9704 B( 28-C , 31-H ) :   0.9700

Dispersion correction           -0.014248572
FINAL SINGLE POINT ENERGY     -1339.867027202644

DIPOLE MOMENT
-------------
                                X             Y             Z
Electronic contribution:      8.18626      28.14625       6.32970
Nuclear contribution   :     -8.31540     -28.82012      -6.77367
                        -----------------------------------------
Total Dipole Moment    :     -0.12913      -0.67387      -0.44397
                        -----------------------------------------
Magnitude (a.u.)       :      0.81724
Magnitude (Debye)      :      2.07727

Rotational constants in cm-1:     0.016336     0.009552     0.007036
Rotational constants in MHz :   489.752799   286.374162   210.932442

                             ****ORCA TERMINATED NORMALLY****
TOTAL RUN TIME: 0 days 0 hours 0 minutes 21 seconds 780 msec
