                         Program Version 4.2.1 -  RELEASE  -
|  1> ! wB97X-D3 SP def2-SVP
|  2> %pal
|  3> nprocs 24
|  4> end
|  5>
|  6> * xyz 0 1
|  7> S 	 37.6293 	 -5.41435 	 -110.593
|  8> C 	 38.9973 	 -5.17377 	 -111.653
|  9> C 	 38.6342 	 -4.61969 	 -112.905
| 10> C 	 37.2136 	 -4.43811 	 -112.946
| 11> C 	 36.5766 	 -4.96188 	 -111.861
| 12> H 	 36.6362 	 -4.136 	 -113.777
| 13> C 	 39.5856 	 -4.38284 	 -114.12
| 14> H 	 39.392 	 -5.23309 	 -114.812
| 15> H 	 40.5827 	 -4.67053 	 -113.858
| 16> C 	 39.5054 	 -2.94593 	 -114.735
| 17> H 	 38.517 	 -2.55685 	 -114.776
| 18> H 	 40.1336 	 -2.34081 	 -114.026
| 19> C 	 40.2232 	 -2.92903 	 -116.092
| 20> H 	 41.2778 	 -3.25114 	 -116.022
| 21> H 	 39.6511 	 -3.53532 	 -116.824
| 22> H 	 40.281 	 -1.89093 	 -116.411
| 23> S 	 34.2111 	 -5.71761 	 -113.214
| 24> C 	 32.7353 	 -6.17375 	 -112.296
| 25> C 	 32.9236 	 -5.82111 	 -110.969
| 26> C 	 34.2377 	 -5.29287 	 -110.712
| 27> C 	 35.1412 	 -5.25014 	 -111.777
| 28> H 	 32.1392 	 -5.90069 	 -110.271
| 29> C 	 34.5343 	 -4.8325 	 -109.315
| 30> H 	 33.8369 	 -4.01925 	 -109.085
| 31> H 	 35.5388 	 -4.27225 	 -109.389
| 32> C 	 34.7168 	 -5.88409 	 -108.201
| 33> H 	 35.2789 	 -5.4525 	 -107.343
| 34> H 	 35.3283 	 -6.68705 	 -108.568
| 35> C 	 33.3363 	 -6.33659 	 -107.625
| 36> H 	 33.531 	 -6.76746 	 -106.585
| 37> H 	 32.9067 	 -7.13768 	 -108.266
| 38> H 	 32.6544 	 -5.53189 	 -107.649
| 39> H 	 39.9904 	 -5.34858 	 -111.361
| 40> H 	 31.7191 	 -6.49944 	 -112.707
| 41> *
| 42>
| 43>                          ****END OF INPUT****

CARTESIAN COORDINATES (ANGSTROEM)
---------------------------------
  S     37.629300   -5.414350  -110.593000
  C     38.997300   -5.173770  -111.653000
  C     38.634200   -4.619690  -112.905000
  C     37.213600   -4.438110  -112.946000
  C     36.576600   -4.961880  -111.861000
  H     36.636200   -4.136000  -113.777000
  C     39.585600   -4.382840  -114.120000
  H     39.392000   -5.233090  -114.812000
  H     40.582700   -4.670530  -113.858000
  C     39.505400   -2.945930  -114.735000
  H     38.517000   -2.556850  -114.776000
  H     40.133600   -2.340810  -114.026000
  C     40.223200   -2.929030  -116.092000
  H     41.277800   -3.251140  -116.022000
  H     39.651100   -3.535320  -116.824000
  H     40.281000   -1.890930  -116.411000
  S     34.211100   -5.717610  -113.214000
  C     32.735300   -6.173750  -112.296000
  C     32.923600   -5.821110  -110.969000
  C     34.237700   -5.292870  -110.712000
  C     35.141200   -5.250140  -111.777000
  H     32.139200   -5.900690  -110.271000
  C     34.534300   -4.832500  -109.315000
  H     33.836900   -4.019250  -109.085000
  H     35.538800   -4.272250  -109.389000
  C     34.716800   -5.884090  -108.201000
  H     35.278900   -5.452500  -107.343000
  H     35.328300   -6.687050  -108.568000
  C     33.336300   -6.336590  -107.625000
  H     33.531000   -6.767460  -106.585000
  H     32.906700   -7.137680  -108.266000
  H     32.654400   -5.531890  -107.649000
  H     39.990400   -5.348580  -111.361000
  H     31.719100   -6.499440  -112.707000

 Total Charge           Charge          ....    0
 Multiplicity           Mult            ....    1
 Number of Electrons    NEL             ....  134
 Basis Dimension        Dim             ....  322

ORBITAL ENERGIES
----------------

  NO   OCC          E(Eh)            E(eV)
   0   2.0000     -88.970704     -2421.0159
   1   2.0000     -88.963957     -2420.8323
   2   2.0000     -10.331587      -281.1368
   3   2.0000     -10.328344      -281.0485
   4   2.0000     -10.328203      -281.0447
   5   2.0000     -10.312986      -280.6306
   6   2.0000     -10.309611      -280.5388
   7   2.0000     -10.301299      -280.3126
   8   2.0000     -10.298980      -280.2495
   9   2.0000     -10.293512      -280.1007
  10   2.0000     -10.292978      -280.0862
  11   2.0000     -10.290334      -280.0142
  12   2.0000     -10.290298      -280.0133
  13   2.0000     -10.286502      -279.9100
  14   2.0000     -10.283333      -279.8237
  15   2.0000     -10.280924      -279.7582
  16   2.0000      -8.085725      -220.0238
  17   2.0000      -8.077395      -219.7971
  18   2.0000      -6.044175      -164.4704
  19   2.0000      -6.040280      -164.3644
  20   2.0000      -6.036447      -164.2601
  21   2.0000      -6.036199      -164.2533
  22   2.0000      -6.032054      -164.1405
  23   2.0000      -6.027943      -164.0287
  24   2.0000      -1.008339       -27.4383
  25   2.0000      -0.980033       -26.6680
  26   2.0000      -0.907324       -24.6895
  27   2.0000      -0.901619       -24.5343
  28   2.0000      -0.869143       -23.6506
  29   2.0000      -0.854088       -23.2409
  30   2.0000      -0.838197       -22.8085
  31   2.0000      -0.816367       -22.2145
  32   2.0000      -0.780331       -21.2339
  33   2.0000      -0.765164       -20.8212
  34   2.0000      -0.708784       -19.2870
  35   2.0000      -0.698336       -19.0027
  36   2.0000      -0.686985       -18.6938
  37   2.0000      -0.669443       -18.2165
  38   2.0000      -0.640660       -17.4332
  39   2.0000      -0.621092       -16.9008
  40   2.0000      -0.589397       -16.0383
  41   2.0000      -0.568653       -15.4738
  42   2.0000      -0.563311       -15.3285
  43   2.0000      -0.541979       -14.7480
  44   2.0000      -0.539172       -14.6716
  45   2.0000      -0.527417       -14.3517
  46   2.0000      -0.520355       -14.1596
  47   2.0000      -0.512247       -13.9390
  48   2.0000      -0.504174       -13.7193
  49   2.0000      -0.492623       -13.4050
  50   2.0000      -0.488608       -13.2957
  51   2.0000      -0.476460       -12.9651
  52   2.0000      -0.471186       -12.8216
  53   2.0000      -0.466742       -12.7007
  54   2.0000      -0.464252       -12.6329
  55   2.0000      -0.453256       -12.3337
  56   2.0000      -0.446302       -12.1445
  57   2.0000      -0.442774       -12.0485
  58   2.0000      -0.431158       -11.7324
  59   2.0000      -0.425261       -11.5719
  60   2.0000      -0.416656       -11.3378
  61   2.0000      -0.407605       -11.0915
  62   2.0000      -0.400518       -10.8986
  63   2.0000      -0.354480        -9.6459
  64   2.0000      -0.333164        -9.0659
  65   2.0000      -0.326136        -8.8746
  66   2.0000      -0.285907        -7.7799
  67   0.0000       0.022906         0.6233
  68   0.0000       0.073974         2.0129
  69   0.0000       0.101149         2.7524
  70   0.0000       0.119551         3.2532
  71   0.0000       0.133411         3.6303

MULLIKEN ATOMIC CHARGES
-----------------------
   0 S :    0.122073
   1 C :   -0.103717
   2 C :   -0.080879
   3 C :    0.011382
   4 C :   -0.133166
   5 H :    0.000146
   6 C :    0.062616
   7 H :    0.040339
   8 H :   -0.000348
   9 C :   -0.082371
  10 H :    0.040991
  11 H :    0.041963
  12 C :   -0.054835
  13 H :    0.035754
  14 H :    0.043420
  15 H :    0.033616
  16 S :    0.075989
  17 C :   -0.114871
  18 C :   -0.002262
  19 C :   -0.067292
  20 C :   -0.093585
  21 H :    0.004221
  22 C :   -0.024427
  23 H :    0.040145
  24 H :    0.025765
  25 C :   -0.047044
  26 H :    0.035861
  27 H :    0.029956
  28 C :   -0.065917
  29 H :    0.048461
  30 H :    0.042055
  31 H :    0.023425
  32 H :    0.025471
  33 H :    0.087065
Sum of atomic charges:   -0.0000000

LOEWDIN ATOMIC CHARGES
----------------------
   0 S :    0.437761
   1 C :   -0.196090
   2 C :   -0.049557
   3 C :   -0.064824
   4 C :   -0.194965
   5 H :    0.022400
   6 C :   -0.033490
   7 H :    0.036331
   8 H :    0.023428
   9 C :   -0.035494
  10 H :    0.020582
  11 H :    0.034367
  12 C :   -0.066873
  13 H :    0.028365
  14 H :    0.028182
  15 H :    0.025792
  16 S :    0.374560
  17 C :   -0.182328
  18 C :   -0.067778
  19 C :   -0.067457
  20 C :   -0.186794
  21 H :    0.024159
  22 C :   -0.050844
  23 H :    0.032405
  24 H :    0.025999
  25 C :   -0.039382
  26 H :    0.028781
  27 H :    0.021321
  28 C :   -0.069817
  29 H :    0.035547
  30 H :    0.027124
  31 H :    0.013822
  32 H :    0.014046
  33 H :    0.050719

  Mayer bond orders larger than 0.100000
B(  0-S ,  1-C ) :   1.1391 B(  0-S ,  4-C ) :   1.1568 B(  1-C ,  2-C ) :   1.6041
B(  1-C , 32-H ) :   0.9750 B(  2-C ,  3-C ) :   1.2315 B(  2-C ,  6-C ) :   1.0146
B(  3-C ,  4-C ) :   1.5709 B(  3-C ,  5-H ) :   0.9970 B(  4-C , 20-C ) :   1.0571
B(  6-C ,  7-H ) :   0.9456 B(  6-C ,  8-H ) :   0.9391 B(  6-C ,  9-C ) :   1.0365
B(  9-C , 10-H ) :   0.9660 B(  9-C , 11-H ) :   0.9548 B(  9-C , 12-C ) :   1.0849
B( 12-C , 13-H ) :   0.9727 B( 12-C , 14-H ) :   0.9768 B( 12-C , 15-H ) :   0.9740
B( 16-S , 17-C ) :   1.1435 B( 16-S , 20-C ) :   1.1130 B( 17-C , 18-C ) :   1.6031
B( 17-C , 33-H ) :   0.9552 B( 18-C , 19-C ) :   1.2440 B( 18-C , 21-H ) :   0.9934
B( 19-C , 20-C ) :   1.5743 B( 19-C , 22-C ) :   1.0510 B( 22-C , 23-H ) :   0.9395
B( 22-C , 24-H ) :   0.9291 B( 22-C , 25-C ) :   1.0636 B( 25-C , 26-H ) :   0.9603
B( 25-C , 27-H ) :   0.9535 B( 25-C , 28-C ) :   1.0703 B( 28-C , 29-H ) :   0.9740
B( 28-C , 30-H ) :   0.9732 B( 28-C , 31-H ) :   0.9767

Dispersion correction           -0.014032792
FINAL SINGLE POINT ENERGY     -1339.871419335011

DIPOLE MOMENT
-------------
                                X             Y             Z
Electronic contribution:     -6.58891      -5.69487      -1.04963
Nuclear contribution   :      6.74691       5.84932       1.04083
                        -----------------------------------------
Total Dipole Moment    :      0.15800       0.15445      -0.00880
                        -----------------------------------------
Magnitude (a.u.)       :      0.22112
Magnitude (Debye)      :      0.56204

Rotational constants in cm-1:     0.025944     0.007111     0.005843
Rotational constants in MHz :   777.785913   213.196581   175.167153

                             ****ORCA TERMINATED NORMALLY****
TOTAL RUN TIME: 0 days 0 hours 0 minutes 20 seconds 27 msec
