                         Program Version 4.2.1 -  RELEASE  -
|  1> ! wB97X-D3 SP def2-SVP
|  2> %pal
|  3> nprocs 24
|  4> end
|  5>
|  6> * xyz 0 1
|  7> S 	 -119.867 	 62.1751 	 -36.4076
|  8> C 	 -121.464 	 62.8015 	 -36.5748
|  9> C 	 -122.404 	 61.7423 	 -36.503
| 10> C 	 -121.784 	 60.5413 	 -36.091
| 11> C 	 -120.404 	 60.5422 	 -36.0491
| 12> H 	 -122.275 	 59.6562 	 -35.8048
| 13> C 	 -123.954 	 61.8073 	 -36.6311
| 14> H 	 -124.234 	 62.8189 	 -36.3496
| 15> H 	 -124.369 	 61.1546 	 -35.8831
| 16> C 	 -124.611 	 61.4591 	 -37.9907
| 17> H 	 -125.65 	 61.2447 	 -37.6261
| 18> H 	 -124.6 	 62.2786 	 -38.6847
| 19> C 	 -124.094 	 60.1577 	 -38.6508
| 20> H 	 -124.255 	 59.4637 	 -37.8658
| 21> H 	 -124.716 	 59.6526 	 -39.3966
| 22> H 	 -123.01 	 60.1128 	 -38.9
| 23> S 	 -117.875 	 59.8294 	 -35.0119
| 24> C 	 -117.403 	 58.168 	 -34.9622
| 25> C 	 -118.449 	 57.2965 	 -35.3036
| 26> C 	 -119.668 	 58.0364 	 -35.6333
| 27> C 	 -119.507 	 59.444 	 -35.6658
| 28> H 	 -118.299 	 56.195 	 -35.2482
| 29> C 	 -120.911 	 57.2838 	 -36.1948
| 30> H 	 -121.307 	 57.9544 	 -36.9876
| 31> H 	 -121.609 	 57.3393 	 -35.4008
| 32> C 	 -120.798 	 55.8245 	 -36.6352
| 33> H 	 -121.77 	 55.6531 	 -37.0522
| 34> H 	 -120.646 	 55.0833 	 -35.7935
| 35> C 	 -119.785 	 55.736 	 -37.8527
| 36> H 	 -118.714 	 55.6102 	 -37.6581
| 37> H 	 -119.791 	 56.6826 	 -38.3776
| 38> H 	 -119.948 	 54.927 	 -38.4187
| 39> H 	 -121.812 	 63.7677 	 -36.7802
| 40> H 	 -116.485 	 57.7966 	 -34.5689
| 41> *
| 42>
| 43>                          ****END OF INPUT****

CARTESIAN COORDINATES (ANGSTROEM)
---------------------------------
  S    -119.867000   62.175100  -36.407600
  C    -121.464000   62.801500  -36.574800
  C    -122.404000   61.742300  -36.503000
  C    -121.784000   60.541300  -36.091000
  C    -120.404000   60.542200  -36.049100
  H    -122.275000   59.656200  -35.804800
  C    -123.954000   61.807300  -36.631100
  H    -124.234000   62.818900  -36.349600
  H    -124.369000   61.154600  -35.883100
  C    -124.611000   61.459100  -37.990700
  H    -125.650000   61.244700  -37.626100
  H    -124.600000   62.278600  -38.684700
  C    -124.094000   60.157700  -38.650800
  H    -124.255000   59.463700  -37.865800
  H    -124.716000   59.652600  -39.396600
  H    -123.010000   60.112800  -38.900000
  S    -117.875000   59.829400  -35.011900
  C    -117.403000   58.168000  -34.962200
  C    -118.449000   57.296500  -35.303600
  C    -119.668000   58.036400  -35.633300
  C    -119.507000   59.444000  -35.665800
  H    -118.299000   56.195000  -35.248200
  C    -120.911000   57.283800  -36.194800
  H    -121.307000   57.954400  -36.987600
  H    -121.609000   57.339300  -35.400800
  C    -120.798000   55.824500  -36.635200
  H    -121.770000   55.653100  -37.052200
  H    -120.646000   55.083300  -35.793500
  C    -119.785000   55.736000  -37.852700
  H    -118.714000   55.610200  -37.658100
  H    -119.791000   56.682600  -38.377600
  H    -119.948000   54.927000  -38.418700
  H    -121.812000   63.767700  -36.780200
  H    -116.485000   57.796600  -34.568900

 Total Charge           Charge          ....    0
 Multiplicity           Mult            ....    1
 Number of Electrons    NEL             ....  134
 Basis Dimension        Dim             ....  322

ORBITAL ENERGIES
----------------

  NO   OCC          E(Eh)            E(eV)
   0   2.0000     -88.970145     -2421.0007
   1   2.0000     -88.966516     -2420.9020
   2   2.0000     -10.336800      -281.2786
   3   2.0000     -10.333126      -281.1786
   4   2.0000     -10.317739      -280.7600
   5   2.0000     -10.314889      -280.6824
   6   2.0000     -10.313394      -280.6417
   7   2.0000     -10.303535      -280.3734
   8   2.0000     -10.302128      -280.3352
   9   2.0000     -10.297919      -280.2206
  10   2.0000     -10.296573      -280.1840
  11   2.0000     -10.293940      -280.1123
  12   2.0000     -10.293589      -280.1028
  13   2.0000     -10.287486      -279.9367
  14   2.0000     -10.277083      -279.6537
  15   2.0000     -10.269712      -279.4531
  16   2.0000      -8.084617      -219.9936
  17   2.0000      -8.080666      -219.8861
  18   2.0000      -6.043208      -164.4441
  19   2.0000      -6.039288      -164.3374
  20   2.0000      -6.039033      -164.3304
  21   2.0000      -6.035425      -164.2323
  22   2.0000      -6.035205      -164.2263
  23   2.0000      -6.031404      -164.1228
  24   2.0000      -1.003536       -27.3076
  25   2.0000      -0.979151       -26.6441
  26   2.0000      -0.908387       -24.7185
  27   2.0000      -0.906809       -24.6755
  28   2.0000      -0.868447       -23.6316
  29   2.0000      -0.849267       -23.1097
  30   2.0000      -0.837961       -22.8021
  31   2.0000      -0.813706       -22.1421
  32   2.0000      -0.788814       -21.4647
  33   2.0000      -0.777997       -21.1704
  34   2.0000      -0.712088       -19.3769
  35   2.0000      -0.702621       -19.1193
  36   2.0000      -0.696139       -18.9429
  37   2.0000      -0.654341       -17.8055
  38   2.0000      -0.640837       -17.4381
  39   2.0000      -0.617349       -16.7989
  40   2.0000      -0.589073       -16.0295
  41   2.0000      -0.576707       -15.6930
  42   2.0000      -0.565796       -15.3961
  43   2.0000      -0.553696       -15.0668
  44   2.0000      -0.539136       -14.6706
  45   2.0000      -0.531698       -14.4682
  46   2.0000      -0.515010       -14.0141
  47   2.0000      -0.509218       -13.8565
  48   2.0000      -0.503558       -13.7025
  49   2.0000      -0.496998       -13.5240
  50   2.0000      -0.491667       -13.3789
  51   2.0000      -0.477148       -12.9839
  52   2.0000      -0.472726       -12.8635
  53   2.0000      -0.464962       -12.6523
  54   2.0000      -0.458566       -12.4782
  55   2.0000      -0.450702       -12.2642
  56   2.0000      -0.445352       -12.1186
  57   2.0000      -0.442100       -12.0301
  58   2.0000      -0.428535       -11.6610
  59   2.0000      -0.427513       -11.6332
  60   2.0000      -0.420356       -11.4385
  61   2.0000      -0.412548       -11.2260
  62   2.0000      -0.409039       -11.1305
  63   2.0000      -0.359245        -9.7756
  64   2.0000      -0.331878        -9.0309
  65   2.0000      -0.328279        -8.9329
  66   2.0000      -0.280891        -7.6434
  67   0.0000       0.018701         0.5089
  68   0.0000       0.082457         2.2438
  69   0.0000       0.105366         2.8672
  70   0.0000       0.118671         3.2292
  71   0.0000       0.131793         3.5863

MULLIKEN ATOMIC CHARGES
-----------------------
   0 S :    0.119913
   1 C :   -0.076954
   2 C :   -0.109370
   3 C :   -0.000842
   4 C :   -0.117008
   5 H :   -0.015198
   6 C :    0.066002
   7 H :    0.018889
   8 H :    0.024072
   9 C :   -0.061706
  10 H :    0.036516
  11 H :    0.034523
  12 C :   -0.058429
  13 H :   -0.001918
  14 H :    0.034682
  15 H :    0.062630
  16 S :    0.100045
  17 C :   -0.074668
  18 C :   -0.055974
  19 C :   -0.059804
  20 C :   -0.136708
  21 H :    0.042346
  22 C :    0.000685
  23 H :    0.047999
  24 H :    0.033598
  25 C :   -0.047108
  26 H :    0.028264
  27 H :    0.047927
  28 C :   -0.022298
  29 H :    0.023983
  30 H :    0.036127
  31 H :    0.006682
  32 H :    0.024537
  33 H :    0.048564
Sum of atomic charges:   -0.0000000

LOEWDIN ATOMIC CHARGES
----------------------
   0 S :    0.421377
   1 C :   -0.200487
   2 C :   -0.062834
   3 C :   -0.067451
   4 C :   -0.191405
   5 H :    0.019859
   6 C :   -0.026837
   7 H :    0.030672
   8 H :    0.028298
   9 C :   -0.034414
  10 H :    0.034321
  11 H :    0.016729
  12 C :   -0.078770
  13 H :    0.018475
  14 H :    0.030203
  15 H :    0.033356
  16 S :    0.393801
  17 C :   -0.187821
  18 C :   -0.077989
  19 C :   -0.050213
  20 C :   -0.187828
  21 H :    0.040250
  22 C :   -0.039318
  23 H :    0.036296
  24 H :    0.025040
  25 C :   -0.037124
  26 H :    0.029038
  27 H :    0.031702
  28 C :   -0.060597
  29 H :    0.028384
  30 H :    0.032288
  31 H :    0.006821
  32 H :    0.020939
  33 H :    0.025239

  Mayer bond orders larger than 0.100000
B(  0-S ,  1-C ) :   1.1553 B(  0-S ,  4-C ) :   1.1440 B(  1-C ,  2-C ) :   1.5749
B(  1-C ,  4-C ) :   0.1024 B(  1-C , 32-H ) :   0.9736 B(  2-C ,  3-C ) :   1.2661
B(  2-C ,  6-C ) :   1.0161 B(  3-C ,  4-C ) :   1.5442 B(  3-C ,  5-H ) :   0.9968
B(  4-C , 20-C ) :   1.0910 B(  6-C ,  7-H ) :   0.9405 B(  6-C ,  8-H ) :   0.9469
B(  6-C ,  9-C ) :   1.0661 B(  9-C , 10-H ) :   0.9576 B(  9-C , 11-H ) :   0.9621
B(  9-C , 12-C ) :   1.0726 B( 12-C , 13-H ) :   0.9688 B( 12-C , 14-H ) :   0.9718
B( 12-C , 15-H ) :   0.9719 B( 16-S , 17-C ) :   1.1641 B( 16-S , 20-C ) :   1.1195
B( 17-C , 18-C ) :   1.6012 B( 17-C , 33-H ) :   0.9665 B( 18-C , 19-C ) :   1.2542
B( 18-C , 21-H ) :   0.9771 B( 19-C , 20-C ) :   1.5779 B( 19-C , 22-C ) :   1.0146
B( 22-C , 23-H ) :   0.9404 B( 22-C , 24-H ) :   0.9203 B( 22-C , 25-C ) :   1.0938
B( 25-C , 26-H ) :   0.9468 B( 25-C , 27-H ) :   0.9502 B( 25-C , 28-C ) :   1.0624
B( 28-C , 29-H ) :   0.9721 B( 28-C , 30-H ) :   0.9764 B( 28-C , 31-H ) :   0.9753

Dispersion correction           -0.014747987
FINAL SINGLE POINT ENERGY     -1339.854945371744

DIPOLE MOMENT
-------------
                                X             Y             Z
Electronic contribution:     21.16212      16.11470      12.12395
Nuclear contribution   :    -21.78281     -16.66284     -12.18969
                        -----------------------------------------
Total Dipole Moment    :     -0.62069      -0.54814      -0.06574
                        -----------------------------------------
Magnitude (a.u.)       :      0.83068
Magnitude (Debye)      :      2.11143

Rotational constants in cm-1:     0.018064     0.009528     0.006656
Rotational constants in MHz :   541.543208   285.635348   199.543255

                             ****ORCA TERMINATED NORMALLY****
TOTAL RUN TIME: 0 days 0 hours 0 minutes 22 seconds 195 msec
