                         Program Version 4.2.1 -  RELEASE  -
|  1> ! wB97X-D3 SP def2-SVP
|  2> %pal
|  3> nprocs 24
|  4> end
|  5>
|  6> * xyz 0 1
|  7> S 	 -38.9479 	 9.50707 	 25.6559
|  8> C 	 -38.678 	 10.2772 	 27.1462
|  9> C 	 -37.9791 	 9.45829 	 28.0044
| 10> C 	 -37.8514 	 8.14913 	 27.4894
| 11> C 	 -38.372 	 8.0005 	 26.1809
| 12> H 	 -37.4106 	 7.30467 	 27.9604
| 13> C 	 -37.7356 	 9.76505 	 29.4169
| 14> H 	 -37.7817 	 10.845 	 29.6104
| 15> H 	 -36.7231 	 9.46008 	 29.6962
| 16> C 	 -38.5787 	 8.9796 	 30.4421
| 17> H 	 -39.6127 	 9.05479 	 30.1265
| 18> H 	 -38.2854 	 7.93381 	 30.491
| 19> C 	 -38.545 	 9.68667 	 31.868
| 20> H 	 -37.5449 	 9.67333 	 32.313
| 21> H 	 -38.7816 	 10.8157 	 31.807
| 22> H 	 -39.2184 	 9.20872 	 32.5705
| 23> S 	 -37.6398 	 6.75346 	 23.7897
| 24> C 	 -37.8241 	 4.95624 	 23.7832
| 25> C 	 -38.5957 	 4.4838 	 24.8053
| 26> C 	 -38.811 	 5.47754 	 25.8043
| 27> C 	 -38.3842 	 6.76575 	 25.4137
| 28> H 	 -38.7235 	 3.42877 	 24.8753
| 29> C 	 -39.5653 	 5.15374 	 27.0429
| 30> H 	 -38.978 	 5.22442 	 27.9655
| 31> H 	 -39.7321 	 4.10412 	 27.0814
| 32> C 	 -40.7635 	 5.98261 	 27.1912
| 33> H 	 -40.5721 	 7.04876 	 27.285
| 34> H 	 -41.1368 	 5.67762 	 28.0982
| 35> C 	 -41.8783 	 5.92581 	 26.1002
| 36> H 	 -42.8459 	 6.29439 	 26.4969
| 37> H 	 -41.9151 	 4.90099 	 25.6637
| 38> H 	 -41.5387 	 6.60725 	 25.3051
| 39> H 	 -38.8429 	 11.33 	 27.3679
| 40> H 	 -37.4431 	 4.26721 	 23.0266
| 41> *
| 42>
| 43>                          ****END OF INPUT****

CARTESIAN COORDINATES (ANGSTROEM)
---------------------------------
  S    -38.947900    9.507070   25.655900
  C    -38.678000   10.277200   27.146200
  C    -37.979100    9.458290   28.004400
  C    -37.851400    8.149130   27.489400
  C    -38.372000    8.000500   26.180900
  H    -37.410600    7.304670   27.960400
  C    -37.735600    9.765050   29.416900
  H    -37.781700   10.845000   29.610400
  H    -36.723100    9.460080   29.696200
  C    -38.578700    8.979600   30.442100
  H    -39.612700    9.054790   30.126500
  H    -38.285400    7.933810   30.491000
  C    -38.545000    9.686670   31.868000
  H    -37.544900    9.673330   32.313000
  H    -38.781600   10.815700   31.807000
  H    -39.218400    9.208720   32.570500
  S    -37.639800    6.753460   23.789700
  C    -37.824100    4.956240   23.783200
  C    -38.595700    4.483800   24.805300
  C    -38.811000    5.477540   25.804300
  C    -38.384200    6.765750   25.413700
  H    -38.723500    3.428770   24.875300
  C    -39.565300    5.153740   27.042900
  H    -38.978000    5.224420   27.965500
  H    -39.732100    4.104120   27.081400
  C    -40.763500    5.982610   27.191200
  H    -40.572100    7.048760   27.285000
  H    -41.136800    5.677620   28.098200
  C    -41.878300    5.925810   26.100200
  H    -42.845900    6.294390   26.496900
  H    -41.915100    4.900990   25.663700
  H    -41.538700    6.607250   25.305100
  H    -38.842900   11.330000   27.367900
  H    -37.443100    4.267210   23.026600

 Total Charge           Charge          ....    0
 Multiplicity           Mult            ....    1
 Number of Electrons    NEL             ....  134
 Basis Dimension        Dim             ....  322

ORBITAL ENERGIES
----------------

  NO   OCC          E(Eh)            E(eV)
   0   2.0000     -88.968459     -2420.9548
   1   2.0000     -88.967990     -2420.9421
   2   2.0000     -10.330364      -281.1035
   3   2.0000     -10.327412      -281.0232
   4   2.0000     -10.321597      -280.8649
   5   2.0000     -10.309175      -280.5269
   6   2.0000     -10.304021      -280.3867
   7   2.0000     -10.294642      -280.1314
   8   2.0000     -10.291922      -280.0574
   9   2.0000     -10.291105      -280.0352
  10   2.0000     -10.289807      -279.9999
  11   2.0000     -10.288968      -279.9770
  12   2.0000     -10.288509      -279.9646
  13   2.0000     -10.282832      -279.8101
  14   2.0000     -10.275451      -279.6092
  15   2.0000     -10.267196      -279.3846
  16   2.0000      -8.084231      -219.9831
  17   2.0000      -8.081775      -219.9163
  18   2.0000      -6.042539      -164.4258
  19   2.0000      -6.040396      -164.3675
  20   2.0000      -6.038290      -164.3102
  21   2.0000      -6.036686      -164.2666
  22   2.0000      -6.035363      -164.2306
  23   2.0000      -6.032292      -164.1470
  24   2.0000      -1.012868       -27.5615
  25   2.0000      -0.984412       -26.7872
  26   2.0000      -0.916275       -24.9331
  27   2.0000      -0.914167       -24.8758
  28   2.0000      -0.870684       -23.6925
  29   2.0000      -0.848392       -23.0859
  30   2.0000      -0.842038       -22.9130
  31   2.0000      -0.813284       -22.1306
  32   2.0000      -0.783179       -21.3114
  33   2.0000      -0.772327       -21.0161
  34   2.0000      -0.714709       -19.4482
  35   2.0000      -0.701203       -19.0807
  36   2.0000      -0.684308       -18.6210
  37   2.0000      -0.662240       -18.0205
  38   2.0000      -0.644109       -17.5271
  39   2.0000      -0.620991       -16.8980
  40   2.0000      -0.599385       -16.3101
  41   2.0000      -0.576912       -15.6986
  42   2.0000      -0.561496       -15.2791
  43   2.0000      -0.550346       -14.9757
  44   2.0000      -0.544604       -14.8194
  45   2.0000      -0.522168       -14.2089
  46   2.0000      -0.516895       -14.0654
  47   2.0000      -0.509596       -13.8668
  48   2.0000      -0.503908       -13.7120
  49   2.0000      -0.493580       -13.4310
  50   2.0000      -0.489024       -13.3070
  51   2.0000      -0.477837       -13.0026
  52   2.0000      -0.472252       -12.8506
  53   2.0000      -0.465207       -12.6589
  54   2.0000      -0.462395       -12.5824
  55   2.0000      -0.447997       -12.1906
  56   2.0000      -0.443329       -12.0636
  57   2.0000      -0.442831       -12.0500
  58   2.0000      -0.434035       -11.8107
  59   2.0000      -0.431119       -11.7313
  60   2.0000      -0.417261       -11.3542
  61   2.0000      -0.411625       -11.2009
  62   2.0000      -0.404781       -11.0147
  63   2.0000      -0.348436        -9.4814
  64   2.0000      -0.331085        -9.0093
  65   2.0000      -0.328924        -8.9505
  66   2.0000      -0.288161        -7.8413
  67   0.0000       0.028243         0.7685
  68   0.0000       0.065046         1.7700
  69   0.0000       0.105002         2.8572
  70   0.0000       0.120416         3.2767
  71   0.0000       0.127658         3.4737

MULLIKEN ATOMIC CHARGES
-----------------------
   0 S :    0.131370
   1 C :   -0.126182
   2 C :   -0.046741
   3 C :    0.020961
   4 C :   -0.176294
   5 H :   -0.002320
   6 C :    0.054792
   7 H :    0.015209
   8 H :    0.020351
   9 C :   -0.067055
  10 H :    0.032514
  11 H :    0.036446
  12 C :   -0.089381
  13 H :    0.030346
  14 H :    0.042184
  15 H :    0.041650
  16 S :    0.102573
  17 C :   -0.098810
  18 C :   -0.014317
  19 C :   -0.053461
  20 C :   -0.146094
  21 H :    0.016460
  22 C :    0.114055
  23 H :    0.020460
  24 H :   -0.006047
  25 C :   -0.051753
  26 H :    0.043189
  27 H :   -0.004941
  28 C :   -0.059743
  29 H :    0.043870
  30 H :    0.029367
  31 H :    0.039236
  32 H :    0.050534
  33 H :    0.057572
Sum of atomic charges:   -0.0000000

LOEWDIN ATOMIC CHARGES
----------------------
   0 S :    0.454757
   1 C :   -0.218763
   2 C :   -0.069540
   3 C :   -0.056607
   4 C :   -0.216628
   5 H :    0.024123
   6 C :   -0.037252
   7 H :    0.028149
   8 H :    0.031786
   9 C :   -0.032619
  10 H :    0.022119
  11 H :    0.023220
  12 C :   -0.072599
  13 H :    0.021723
  14 H :    0.033818
  15 H :    0.024336
  16 S :    0.368054
  17 C :   -0.159993
  18 C :   -0.069930
  19 C :   -0.045724
  20 C :   -0.191249
  21 H :    0.031441
  22 C :   -0.035218
  23 H :    0.036828
  24 H :    0.025928
  25 C :   -0.039235
  26 H :    0.028900
  27 H :    0.010409
  28 C :   -0.065682
  29 H :    0.030208
  30 H :    0.023970
  31 H :    0.027476
  32 H :    0.032191
  33 H :    0.031603

  Mayer bond orders larger than 0.100000
B(  0-S ,  1-C ) :   1.1619 B(  0-S ,  4-C ) :   1.1819 B(  1-C ,  2-C ) :   1.5585
B(  1-C ,  4-C ) :   0.1003 B(  1-C , 32-H ) :   0.9665 B(  2-C ,  3-C ) :   1.2635
B(  2-C ,  6-C ) :   1.0635 B(  3-C ,  4-C ) :   1.5149 B(  3-C ,  5-H ) :   1.0081
B(  4-C , 20-C ) :   1.0580 B(  6-C ,  7-H ) :   0.9454 B(  6-C ,  8-H ) :   0.9246
B(  6-C ,  9-C ) :   1.0544 B(  9-C , 10-H ) :   0.9608 B(  9-C , 11-H ) :   0.9528
B(  9-C , 12-C ) :   1.0722 B( 12-C , 13-H ) :   0.9772 B( 12-C , 14-H ) :   0.9761
B( 12-C , 15-H ) :   0.9769 B( 16-S , 17-C ) :   1.1367 B( 16-S , 20-C ) :   1.1184
B( 17-C , 18-C ) :   1.6533 B( 17-C , 20-C ) :   0.1017 B( 17-C , 33-H ) :   0.9607
B( 18-C , 19-C ) :   1.2215 B( 18-C , 21-H ) :   0.9847 B( 19-C , 20-C ) :   1.5961
B( 19-C , 22-C ) :   1.0512 B( 22-C , 23-H ) :   0.9152 B( 22-C , 24-H ) :   0.9194
B( 22-C , 25-C ) :   1.0940 B( 25-C , 26-H ) :   0.9507 B( 25-C , 27-H ) :   0.9470
B( 25-C , 28-C ) :   1.0653 B( 28-C , 29-H ) :   0.9754 B( 28-C , 30-H ) :   0.9788
B( 28-C , 31-H ) :   0.9743

Dispersion correction           -0.015759461
FINAL SINGLE POINT ENERGY     -1339.872370711071

DIPOLE MOMENT
-------------
                                X             Y             Z
Electronic contribution:      9.46754       2.43247     -26.03402
Nuclear contribution   :     -9.47938      -2.77252      26.69813
                        -----------------------------------------
Total Dipole Moment    :     -0.01184      -0.34004       0.66412
                        -----------------------------------------
Magnitude (a.u.)       :      0.74621
Magnitude (Debye)      :      1.89670

Rotational constants in cm-1:     0.021531     0.008686     0.007469
Rotational constants in MHz :   645.476481   260.389442   223.910658

                             ****ORCA TERMINATED NORMALLY****
TOTAL RUN TIME: 0 days 0 hours 0 minutes 23 seconds 74 msec
