                         Program Version 4.2.1 -  RELEASE  -
|  1> ! wB97X-D3 SP def2-SVP
|  2> %pal
|  3> nprocs 24
|  4> end
|  5>
|  6> * xyz 0 1
|  7> S 	 -114.429 	 39.8573 	 -120.677
|  8> C 	 -113.529 	 38.4174 	 -120.957
|  9> C 	 -114.175 	 37.5662 	 -121.879
| 10> C 	 -115.276 	 38.1836 	 -122.486
| 11> C 	 -115.64 	 39.3685 	 -121.866
| 12> H 	 -115.901 	 37.8307 	 -123.285
| 13> C 	 -113.595 	 36.2418 	 -122.417
| 14> H 	 -112.52 	 36.1696 	 -122.168
| 15> H 	 -113.686 	 36.3931 	 -123.498
| 16> C 	 -114.275 	 34.9505 	 -121.943
| 17> H 	 -113.694 	 34.1137 	 -122.396
| 18> H 	 -114.21 	 34.877 	 -120.851
| 19> C 	 -115.738 	 34.8154 	 -122.332
| 20> H 	 -116.116 	 33.7739 	 -122.221
| 21> H 	 -116.381 	 35.4162 	 -121.721
| 22> H 	 -115.997 	 35.0525 	 -123.423
| 23> S 	 -117.128 	 40.7005 	 -123.745
| 24> C 	 -118.599 	 41.4886 	 -123.193
| 25> C 	 -119.008 	 41.1518 	 -121.917
| 26> C 	 -117.97 	 40.3479 	 -121.281
| 27> C 	 -116.863 	 40.0971 	 -122.106
| 28> H 	 -119.878 	 41.5371 	 -121.374
| 29> C 	 -118.188 	 39.8436 	 -119.918
| 30> H 	 -118.909 	 40.5512 	 -119.483
| 31> H 	 -117.254 	 39.9553 	 -119.467
| 32> C 	 -118.607 	 38.3944 	 -119.738
| 33> H 	 -118.45 	 38.1473 	 -118.645
| 34> H 	 -117.929 	 37.6889 	 -120.242
| 35> C 	 -120.036 	 38.0274 	 -120.087
| 36> H 	 -120.35 	 38.2455 	 -121.052
| 37> H 	 -120.63 	 38.6355 	 -119.459
| 38> H 	 -120.221 	 36.9956 	 -119.83
| 39> H 	 -112.588 	 38.1687 	 -120.574
| 40> H 	 -119.024 	 42.291 	 -123.662
| 41> *
| 42>
| 43>                          ****END OF INPUT****

CARTESIAN COORDINATES (ANGSTROEM)
---------------------------------
  S    -114.429000   39.857300  -120.677000
  C    -113.529000   38.417400  -120.957000
  C    -114.175000   37.566200  -121.879000
  C    -115.276000   38.183600  -122.486000
  C    -115.640000   39.368500  -121.866000
  H    -115.901000   37.830700  -123.285000
  C    -113.595000   36.241800  -122.417000
  H    -112.520000   36.169600  -122.168000
  H    -113.686000   36.393100  -123.498000
  C    -114.275000   34.950500  -121.943000
  H    -113.694000   34.113700  -122.396000
  H    -114.210000   34.877000  -120.851000
  C    -115.738000   34.815400  -122.332000
  H    -116.116000   33.773900  -122.221000
  H    -116.381000   35.416200  -121.721000
  H    -115.997000   35.052500  -123.423000
  S    -117.128000   40.700500  -123.745000
  C    -118.599000   41.488600  -123.193000
  C    -119.008000   41.151800  -121.917000
  C    -117.970000   40.347900  -121.281000
  C    -116.863000   40.097100  -122.106000
  H    -119.878000   41.537100  -121.374000
  C    -118.188000   39.843600  -119.918000
  H    -118.909000   40.551200  -119.483000
  H    -117.254000   39.955300  -119.467000
  C    -118.607000   38.394400  -119.738000
  H    -118.450000   38.147300  -118.645000
  H    -117.929000   37.688900  -120.242000
  C    -120.036000   38.027400  -120.087000
  H    -120.350000   38.245500  -121.052000
  H    -120.630000   38.635500  -119.459000
  H    -120.221000   36.995600  -119.830000
  H    -112.588000   38.168700  -120.574000
  H    -119.024000   42.291000  -123.662000

 Total Charge           Charge          ....    0
 Multiplicity           Mult            ....    1
 Number of Electrons    NEL             ....  134
 Basis Dimension        Dim             ....  322

ORBITAL ENERGIES
----------------

  NO   OCC          E(Eh)            E(eV)
   0   2.0000     -88.971450     -2421.0362
   1   2.0000     -88.966788     -2420.9094
   2   2.0000     -10.327110      -281.0150
   3   2.0000     -10.324528      -280.9447
   4   2.0000     -10.311957      -280.6026
   5   2.0000     -10.310490      -280.5627
   6   2.0000     -10.300921      -280.3023
   7   2.0000     -10.300565      -280.2926
   8   2.0000     -10.297192      -280.2008
   9   2.0000     -10.295039      -280.1422
  10   2.0000     -10.291172      -280.0370
  11   2.0000     -10.290478      -280.0181
  12   2.0000     -10.285145      -279.8730
  13   2.0000     -10.281547      -279.7751
  14   2.0000     -10.279951      -279.7317
  15   2.0000     -10.262876      -279.2671
  16   2.0000      -8.085654      -220.0218
  17   2.0000      -8.081138      -219.8989
  18   2.0000      -6.044026      -164.4663
  19   2.0000      -6.040193      -164.3620
  20   2.0000      -6.039681      -164.3481
  21   2.0000      -6.036643      -164.2654
  22   2.0000      -6.035811      -164.2428
  23   2.0000      -6.031789      -164.1333
  24   2.0000      -1.005243       -27.3540
  25   2.0000      -0.981851       -26.7175
  26   2.0000      -0.912686       -24.8354
  27   2.0000      -0.908583       -24.7238
  28   2.0000      -0.870334       -23.6830
  29   2.0000      -0.853194       -23.2166
  30   2.0000      -0.848682       -23.0938
  31   2.0000      -0.814511       -22.1640
  32   2.0000      -0.786436       -21.4000
  33   2.0000      -0.770291       -20.9607
  34   2.0000      -0.710217       -19.3260
  35   2.0000      -0.698169       -18.9981
  36   2.0000      -0.688718       -18.7410
  37   2.0000      -0.669297       -18.2125
  38   2.0000      -0.643371       -17.5070
  39   2.0000      -0.610153       -16.6031
  40   2.0000      -0.588717       -16.0198
  41   2.0000      -0.570524       -15.5248
  42   2.0000      -0.557129       -15.1603
  43   2.0000      -0.550893       -14.9906
  44   2.0000      -0.545687       -14.8489
  45   2.0000      -0.538863       -14.6632
  46   2.0000      -0.522656       -14.2222
  47   2.0000      -0.512332       -13.9413
  48   2.0000      -0.504158       -13.7188
  49   2.0000      -0.493154       -13.4194
  50   2.0000      -0.484910       -13.1951
  51   2.0000      -0.483586       -13.1590
  52   2.0000      -0.475093       -12.9279
  53   2.0000      -0.466536       -12.6951
  54   2.0000      -0.459586       -12.5060
  55   2.0000      -0.447554       -12.1786
  56   2.0000      -0.445483       -12.1222
  57   2.0000      -0.436087       -11.8665
  58   2.0000      -0.430436       -11.7128
  59   2.0000      -0.429332       -11.6827
  60   2.0000      -0.420936       -11.4542
  61   2.0000      -0.413466       -11.2510
  62   2.0000      -0.407817       -11.0973
  63   2.0000      -0.344584        -9.3766
  64   2.0000      -0.334251        -9.0954
  65   2.0000      -0.326281        -8.8786
  66   2.0000      -0.286568        -7.7979
  67   0.0000       0.034287         0.9330
  68   0.0000       0.054592         1.4855
  69   0.0000       0.102922         2.8006
  70   0.0000       0.117703         3.2029
  71   0.0000       0.126641         3.4461

MULLIKEN ATOMIC CHARGES
-----------------------
   0 S :    0.133477
   1 C :   -0.095591
   2 C :   -0.093041
   3 C :    0.036313
   4 C :   -0.166004
   5 H :    0.009480
   6 C :    0.038695
   7 H :    0.025226
   8 H :    0.036975
   9 C :   -0.044722
  10 H :    0.038272
  11 H :    0.033654
  12 C :   -0.089835
  13 H :    0.035293
  14 H :    0.039034
  15 H :    0.034758
  16 S :    0.108711
  17 C :   -0.051913
  18 C :   -0.037157
  19 C :   -0.077556
  20 C :   -0.175049
  21 H :    0.030916
  22 C :    0.133373
  23 H :    0.012434
  24 H :   -0.001077
  25 C :   -0.094458
  26 H :    0.030149
  27 H :    0.032484
  28 C :    0.013215
  29 H :    0.021313
  30 H :    0.000835
  31 H :    0.029789
  32 H :    0.023648
  33 H :    0.028360
Sum of atomic charges:    0.0000000

LOEWDIN ATOMIC CHARGES
----------------------
   0 S :    0.423961
   1 C :   -0.203957
   2 C :   -0.062860
   3 C :   -0.061090
   4 C :   -0.195328
   5 H :    0.029606
   6 C :   -0.032532
   7 H :    0.031187
   8 H :    0.033177
   9 C :   -0.042525
  10 H :    0.029679
  11 H :    0.028601
  12 C :   -0.077293
  13 H :    0.030370
  14 H :    0.020801
  15 H :    0.029214
  16 S :    0.397307
  17 C :   -0.165700
  18 C :   -0.067585
  19 C :   -0.050370
  20 C :   -0.200882
  21 H :    0.036387
  22 C :   -0.035246
  23 H :    0.031093
  24 H :    0.022847
  25 C :   -0.037291
  26 H :    0.030723
  27 H :    0.024516
  28 C :   -0.055386
  29 H :    0.015613
  30 H :    0.017822
  31 H :    0.028497
  32 H :    0.016628
  33 H :    0.010013

  Mayer bond orders larger than 0.100000
B(  0-S ,  1-C ) :   1.1537 B(  0-S ,  4-C ) :   1.1537 B(  1-C ,  2-C ) :   1.5839
B(  1-C ,  4-C ) :   0.1056 B(  1-C , 32-H ) :   0.9735 B(  2-C ,  3-C ) :   1.2685
B(  2-C ,  6-C ) :   1.0050 B(  3-C ,  4-C ) :   1.5539 B(  3-C ,  5-H ) :   0.9905
B(  4-C , 20-C ) :   1.0456 B(  6-C ,  7-H ) :   0.9442 B(  6-C ,  8-H ) :   0.9481
B(  6-C ,  9-C ) :   1.0751 B(  9-C , 10-H ) :   0.9556 B(  9-C , 11-H ) :   0.9511
B(  9-C , 12-C ) :   1.0808 B( 12-C , 13-H ) :   0.9710 B( 12-C , 14-H ) :   0.9729
B( 12-C , 15-H ) :   0.9732 B( 16-S , 17-C ) :   1.1517 B( 16-S , 20-C ) :   1.1220
B( 17-C , 18-C ) :   1.6203 B( 17-C , 33-H ) :   0.9725 B( 18-C , 19-C ) :   1.2229
B( 18-C , 21-H ) :   0.9831 B( 19-C , 20-C ) :   1.6012 B( 19-C , 22-C ) :   1.0537
B( 22-C , 23-H ) :   0.9289 B( 22-C , 24-H ) :   0.9036 B( 22-C , 25-C ) :   1.0827
B( 25-C , 26-H ) :   0.9527 B( 25-C , 27-H ) :   0.9537 B( 25-C , 28-C ) :   1.0792
B( 28-C , 29-H ) :   0.9769 B( 28-C , 30-H ) :   0.9700 B( 28-C , 31-H ) :   0.9709

Dispersion correction           -0.015415598
FINAL SINGLE POINT ENERGY     -1339.874323007662

DIPOLE MOMENT
-------------
                                X             Y             Z
Electronic contribution:      8.48343      22.27096      -7.01182
Nuclear contribution   :     -8.61303     -22.61738       7.18526
                        -----------------------------------------
Total Dipole Moment    :     -0.12961      -0.34643       0.17344
                        -----------------------------------------
Magnitude (a.u.)       :      0.40852
Magnitude (Debye)      :      1.03838

Rotational constants in cm-1:     0.017990     0.009318     0.008169
Rotational constants in MHz :   539.315114   279.359978   244.914765

                             ****ORCA TERMINATED NORMALLY****
TOTAL RUN TIME: 0 days 0 hours 0 minutes 23 seconds 661 msec
