                         Program Version 4.2.1 -  RELEASE  -
|  1> ! wB97X-D3 SP def2-SVP
|  2> %pal
|  3> nprocs 24
|  4> end
|  5>
|  6> * xyz 0 1
|  7> S 	 -42.6985 	 19.28 	 30.7908
|  8> C 	 -41.0212 	 18.9331 	 30.6467
|  9> C 	 -40.2343 	 20.0552 	 30.5564
| 10> C 	 -40.9932 	 21.2585 	 30.8065
| 11> C 	 -42.3563 	 21.0276 	 30.839
| 12> H 	 -40.5815 	 22.2426 	 30.8055
| 13> C 	 -38.739 	 20.0847 	 30.2974
| 14> H 	 -38.5962 	 20.1911 	 29.2131
| 15> H 	 -38.2923 	 19.1676 	 30.6061
| 16> C 	 -37.8656 	 21.1315 	 30.9902
| 17> H 	 -36.827 	 20.8202 	 30.7484
| 18> H 	 -38.2014 	 22.0685 	 30.5427
| 19> C 	 -38.0912 	 21.2252 	 32.4616
| 20> H 	 -37.5932 	 20.4511 	 33.0418
| 21> H 	 -37.6779 	 22.1368 	 32.8066
| 22> H 	 -39.119 	 21.2943 	 32.6622
| 23> S 	 -44.7639 	 21.4817 	 32.0114
| 24> C 	 -45.5121 	 23.0905 	 31.8229
| 25> C 	 -44.8271 	 23.8672 	 30.929
| 26> C 	 -43.6033 	 23.2593 	 30.5422
| 27> C 	 -43.475 	 21.925 	 30.9555
| 28> H 	 -45.1863 	 24.8555 	 30.7057
| 29> C 	 -42.6088 	 24.0185 	 29.7184
| 30> H 	 -43.1994 	 24.2836 	 28.8615
| 31> H 	 -41.8183 	 23.3841 	 29.2206
| 32> C 	 -42.0701 	 25.3742 	 30.3665
| 33> H 	 -42.9148 	 26.0735 	 30.3554
| 34> H 	 -41.2995 	 25.9208 	 29.7463
| 35> C 	 -41.5502 	 25.1493 	 31.7572
| 36> H 	 -42.429 	 24.8866 	 32.3464
| 37> H 	 -41.0594 	 26.1101 	 32.1157
| 38> H 	 -40.8126 	 24.3078 	 31.8379
| 39> H 	 -40.5894 	 18.026 	 30.4608
| 40> H 	 -46.3876 	 23.4182 	 32.304
| 41> *
| 42>
| 43>                          ****END OF INPUT****

CARTESIAN COORDINATES (ANGSTROEM)
---------------------------------
  S    -42.698500   19.280000   30.790800
  C    -41.021200   18.933100   30.646700
  C    -40.234300   20.055200   30.556400
  C    -40.993200   21.258500   30.806500
  C    -42.356300   21.027600   30.839000
  H    -40.581500   22.242600   30.805500
  C    -38.739000   20.084700   30.297400
  H    -38.596200   20.191100   29.213100
  H    -38.292300   19.167600   30.606100
  C    -37.865600   21.131500   30.990200
  H    -36.827000   20.820200   30.748400
  H    -38.201400   22.068500   30.542700
  C    -38.091200   21.225200   32.461600
  H    -37.593200   20.451100   33.041800
  H    -37.677900   22.136800   32.806600
  H    -39.119000   21.294300   32.662200
  S    -44.763900   21.481700   32.011400
  C    -45.512100   23.090500   31.822900
  C    -44.827100   23.867200   30.929000
  C    -43.603300   23.259300   30.542200
  C    -43.475000   21.925000   30.955500
  H    -45.186300   24.855500   30.705700
  C    -42.608800   24.018500   29.718400
  H    -43.199400   24.283600   28.861500
  H    -41.818300   23.384100   29.220600
  C    -42.070100   25.374200   30.366500
  H    -42.914800   26.073500   30.355400
  H    -41.299500   25.920800   29.746300
  C    -41.550200   25.149300   31.757200
  H    -42.429000   24.886600   32.346400
  H    -41.059400   26.110100   32.115700
  H    -40.812600   24.307800   31.837900
  H    -40.589400   18.026000   30.460800
  H    -46.387600   23.418200   32.304000

 Total Charge           Charge          ....    0
 Multiplicity           Mult            ....    1
 Number of Electrons    NEL             ....  134
 Basis Dimension        Dim             ....  322

ORBITAL ENERGIES
----------------

  NO   OCC          E(Eh)            E(eV)
   0   2.0000     -88.967512     -2420.9291
   1   2.0000     -88.965663     -2420.8788
   2   2.0000     -10.331548      -281.1357
   3   2.0000     -10.325113      -280.9606
   4   2.0000     -10.318371      -280.7771
   5   2.0000     -10.305510      -280.4272
   6   2.0000     -10.302531      -280.3461
   7   2.0000     -10.298942      -280.2484
   8   2.0000     -10.295790      -280.1627
   9   2.0000     -10.295727      -280.1610
  10   2.0000     -10.294062      -280.1157
  11   2.0000     -10.293626      -280.1038
  12   2.0000     -10.286208      -279.9019
  13   2.0000     -10.285721      -279.8887
  14   2.0000     -10.282799      -279.8092
  15   2.0000     -10.263465      -279.2831
  16   2.0000      -8.082222      -219.9284
  17   2.0000      -8.080519      -219.8821
  18   2.0000      -6.040751      -164.3772
  19   2.0000      -6.039065      -164.3313
  20   2.0000      -6.036797      -164.2696
  21   2.0000      -6.035118      -164.2239
  22   2.0000      -6.032876      -164.1629
  23   2.0000      -6.031132      -164.1154
  24   2.0000      -1.009731       -27.4762
  25   2.0000      -0.985418       -26.8146
  26   2.0000      -0.918078       -24.9822
  27   2.0000      -0.907559       -24.6959
  28   2.0000      -0.877281       -23.8720
  29   2.0000      -0.852276       -23.1916
  30   2.0000      -0.844962       -22.9926
  31   2.0000      -0.821729       -22.3604
  32   2.0000      -0.787072       -21.4173
  33   2.0000      -0.771876       -21.0038
  34   2.0000      -0.712592       -19.3906
  35   2.0000      -0.695271       -18.9193
  36   2.0000      -0.690979       -18.8025
  37   2.0000      -0.662134       -18.0176
  38   2.0000      -0.640031       -17.4161
  39   2.0000      -0.629917       -17.1409
  40   2.0000      -0.595455       -16.2032
  41   2.0000      -0.573232       -15.5984
  42   2.0000      -0.558805       -15.2059
  43   2.0000      -0.553684       -15.0665
  44   2.0000      -0.546827       -14.8799
  45   2.0000      -0.541806       -14.7433
  46   2.0000      -0.519483       -14.1359
  47   2.0000      -0.510787       -13.8992
  48   2.0000      -0.504504       -13.7282
  49   2.0000      -0.498596       -13.5675
  50   2.0000      -0.494783       -13.4637
  51   2.0000      -0.479419       -13.0456
  52   2.0000      -0.472273       -12.8512
  53   2.0000      -0.466928       -12.7057
  54   2.0000      -0.465164       -12.6578
  55   2.0000      -0.449683       -12.2365
  56   2.0000      -0.447394       -12.1742
  57   2.0000      -0.439583       -11.9617
  58   2.0000      -0.430286       -11.7087
  59   2.0000      -0.423938       -11.5359
  60   2.0000      -0.418616       -11.3911
  61   2.0000      -0.413337       -11.2475
  62   2.0000      -0.407352       -11.0846
  63   2.0000      -0.360230        -9.8024
  64   2.0000      -0.334234        -9.0950
  65   2.0000      -0.326403        -8.8819
  66   2.0000      -0.283888        -7.7250
  67   0.0000       0.024541         0.6678
  68   0.0000       0.075930         2.0662
  69   0.0000       0.104373         2.8401
  70   0.0000       0.115450         3.1416
  71   0.0000       0.125310         3.4099

MULLIKEN ATOMIC CHARGES
-----------------------
   0 S :    0.102932
   1 C :   -0.053838
   2 C :   -0.134712
   3 C :    0.036939
   4 C :   -0.142124
   5 H :   -0.013587
   6 C :    0.079724
   7 H :    0.045488
   8 H :    0.005096
   9 C :   -0.095633
  10 H :    0.039842
  11 H :    0.023675
  12 C :   -0.001920
  13 H :    0.028895
  14 H :    0.014928
  15 H :    0.025243
  16 S :    0.103815
  17 C :   -0.073191
  18 C :   -0.018604
  19 C :   -0.071330
  20 C :   -0.104167
  21 H :    0.017868
  22 C :    0.033263
  23 H :    0.026650
  24 H :    0.039748
  25 C :   -0.087474
  26 H :    0.024505
  27 H :    0.037766
  28 C :   -0.069306
  29 H :    0.050504
  30 H :    0.046217
  31 H :    0.041542
  32 H :    0.002291
  33 H :    0.038955
Sum of atomic charges:    0.0000000

LOEWDIN ATOMIC CHARGES
----------------------
   0 S :    0.400212
   1 C :   -0.193723
   2 C :   -0.058033
   3 C :   -0.065616
   4 C :   -0.170894
   5 H :    0.020496
   6 C :   -0.034654
   7 H :    0.037009
   8 H :    0.022055
   9 C :   -0.039970
  10 H :    0.032790
  11 H :    0.020029
  12 C :   -0.059417
  13 H :    0.026820
  14 H :    0.023048
  15 H :    0.021524
  16 S :    0.403603
  17 C :   -0.160136
  18 C :   -0.064714
  19 C :   -0.057211
  20 C :   -0.213159
  21 H :    0.032982
  22 C :   -0.042849
  23 H :    0.032504
  24 H :    0.035970
  25 C :   -0.044857
  26 H :    0.020789
  27 H :    0.028487
  28 C :   -0.074083
  29 H :    0.029685
  30 H :    0.033907
  31 H :    0.027025
  32 H :    0.010233
  33 H :    0.020148

  Mayer bond orders larger than 0.100000
B(  0-S ,  1-C ) :   1.1275 B(  0-S ,  4-C ) :   1.1429 B(  1-C ,  2-C ) :   1.6494
B(  1-C , 32-H ) :   0.9692 B(  2-C ,  3-C ) :   1.2160 B(  2-C ,  6-C ) :   1.0159
B(  3-C ,  4-C ) :   1.5858 B(  3-C ,  5-H ) :   0.9852 B(  4-C , 20-C ) :   1.0562
B(  6-C ,  7-H ) :   0.9323 B(  6-C ,  8-H ) :   0.9411 B(  6-C ,  9-C ) :   1.0798
B(  9-C , 10-H ) :   0.9550 B(  9-C , 11-H ) :   0.9474 B(  9-C , 12-C ) :   1.0979
B( 12-C , 13-H ) :   0.9724 B( 12-C , 14-H ) :   0.9681 B( 12-C , 15-H ) :   0.9673
B( 16-S , 17-C ) :   1.1460 B( 16-S , 20-C ) :   1.1356 B( 17-C , 18-C ) :   1.6167
B( 17-C , 33-H ) :   0.9719 B( 18-C , 19-C ) :   1.2288 B( 18-C , 21-H ) :   0.9935
B( 19-C , 20-C ) :   1.5824 B( 19-C , 22-C ) :   1.0367 B( 22-C , 23-H ) :   0.9342
B( 22-C , 24-H ) :   0.9422 B( 22-C , 25-C ) :   1.0536 B( 25-C , 26-H ) :   0.9531
B( 25-C , 27-H ) :   0.9599 B( 25-C , 28-C ) :   1.0761 B( 28-C , 29-H ) :   0.9666
B( 28-C , 30-H ) :   0.9710 B( 28-C , 31-H ) :   0.9741

Dispersion correction           -0.015546178
FINAL SINGLE POINT ENERGY     -1339.876741259325

DIPOLE MOMENT
-------------
                                X             Y             Z
Electronic contribution:    -23.48112     -16.40843       0.18728
Nuclear contribution   :     23.86321      17.00515      -0.36243
                        -----------------------------------------
Total Dipole Moment    :      0.38209       0.59673      -0.17515
                        -----------------------------------------
Magnitude (a.u.)       :      0.72990
Magnitude (Debye)      :      1.85525

Rotational constants in cm-1:     0.018578     0.010337     0.007457
Rotational constants in MHz :   556.967533   309.904138   223.555108

                             ****ORCA TERMINATED NORMALLY****
TOTAL RUN TIME: 0 days 0 hours 0 minutes 23 seconds 94 msec
