                         Program Version 4.2.1 -  RELEASE  -
|  1> ! wB97X-D3 SP def2-SVP
|  2> %pal
|  3> nprocs 24
|  4> end
|  5>
|  6> * xyz 0 1
|  7> S 	 -134.825 	 72.9772 	 -67.4261
|  8> C 	 -133.288 	 73.8042 	 -67.3049
|  9> C 	 -132.712 	 73.6238 	 -66.0178
| 10> C 	 -133.525 	 72.8746 	 -65.2019
| 11> C 	 -134.659 	 72.3672 	 -65.8118
| 12> H 	 -133.463 	 72.5975 	 -64.196
| 13> C 	 -131.384 	 74.2196 	 -65.4697
| 14> H 	 -130.587 	 74.4422 	 -66.2248
| 15> H 	 -130.851 	 73.3835 	 -64.991
| 16> C 	 -131.55 	 75.3889 	 -64.4952
| 17> H 	 -132.279 	 75.2287 	 -63.6864
| 18> H 	 -130.639 	 75.5496 	 -64.0092
| 19> C 	 -131.821 	 76.6662 	 -65.2196
| 20> H 	 -132.769 	 76.6316 	 -65.765
| 21> H 	 -131.995 	 77.5605 	 -64.577
| 22> H 	 -131.105 	 76.9722 	 -66.0274
| 23> S 	 -135.631 	 69.8437 	 -65.3878
| 24> C 	 -137.185 	 69.7075 	 -64.6248
| 25> C 	 -137.672 	 70.9017 	 -64.1039
| 26> C 	 -136.884 	 72.0322 	 -64.5256
| 27> C 	 -135.733 	 71.5651 	 -65.2019
| 28> H 	 -138.53 	 71.0094 	 -63.4948
| 29> C 	 -137.266 	 73.3701 	 -64.0056
| 30> H 	 -136.322 	 73.8837 	 -63.5807
| 31> H 	 -137.778 	 73.255 	 -63.0864
| 32> C 	 -137.951 	 74.3329 	 -64.9883
| 33> H 	 -138.845 	 73.9273 	 -65.2702
| 34> H 	 -137.44 	 74.5388 	 -65.9195
| 35> C 	 -138.22 	 75.7646 	 -64.4272
| 36> H 	 -138.636 	 75.8228 	 -63.4014
| 37> H 	 -138.839 	 76.3007 	 -65.1786
| 38> H 	 -137.348 	 76.3015 	 -64.4189
| 39> H 	 -132.92 	 74.63 	 -67.8599
| 40> H 	 -137.7 	 68.772 	 -64.3654
| 41> *
| 42>
| 43>                          ****END OF INPUT****

CARTESIAN COORDINATES (ANGSTROEM)
---------------------------------
  S    -134.825000   72.977200  -67.426100
  C    -133.288000   73.804200  -67.304900
  C    -132.712000   73.623800  -66.017800
  C    -133.525000   72.874600  -65.201900
  C    -134.659000   72.367200  -65.811800
  H    -133.463000   72.597500  -64.196000
  C    -131.384000   74.219600  -65.469700
  H    -130.587000   74.442200  -66.224800
  H    -130.851000   73.383500  -64.991000
  C    -131.550000   75.388900  -64.495200
  H    -132.279000   75.228700  -63.686400
  H    -130.639000   75.549600  -64.009200
  C    -131.821000   76.666200  -65.219600
  H    -132.769000   76.631600  -65.765000
  H    -131.995000   77.560500  -64.577000
  H    -131.105000   76.972200  -66.027400
  S    -135.631000   69.843700  -65.387800
  C    -137.185000   69.707500  -64.624800
  C    -137.672000   70.901700  -64.103900
  C    -136.884000   72.032200  -64.525600
  C    -135.733000   71.565100  -65.201900
  H    -138.530000   71.009400  -63.494800
  C    -137.266000   73.370100  -64.005600
  H    -136.322000   73.883700  -63.580700
  H    -137.778000   73.255000  -63.086400
  C    -137.951000   74.332900  -64.988300
  H    -138.845000   73.927300  -65.270200
  H    -137.440000   74.538800  -65.919500
  C    -138.220000   75.764600  -64.427200
  H    -138.636000   75.822800  -63.401400
  H    -138.839000   76.300700  -65.178600
  H    -137.348000   76.301500  -64.418900
  H    -132.920000   74.630000  -67.859900
  H    -137.700000   68.772000  -64.365400

 Total Charge           Charge          ....    0
 Multiplicity           Mult            ....    1
 Number of Electrons    NEL             ....  134
 Basis Dimension        Dim             ....  322

ORBITAL ENERGIES
----------------

  NO   OCC          E(Eh)            E(eV)
   0   2.0000     -88.971931     -2421.0493
   1   2.0000     -88.968737     -2420.9624
   2   2.0000     -10.325866      -280.9811
   3   2.0000     -10.322084      -280.8782
   4   2.0000     -10.317207      -280.7455
   5   2.0000     -10.311705      -280.5958
   6   2.0000     -10.304432      -280.3978
   7   2.0000     -10.302297      -280.3397
   8   2.0000     -10.299024      -280.2507
   9   2.0000     -10.293783      -280.1081
  10   2.0000     -10.290930      -280.0304
  11   2.0000     -10.283707      -279.8339
  12   2.0000     -10.283165      -279.8192
  13   2.0000     -10.278099      -279.6813
  14   2.0000     -10.277983      -279.6781
  15   2.0000     -10.273582      -279.5584
  16   2.0000      -8.086834      -220.0539
  17   2.0000      -8.083059      -219.9512
  18   2.0000      -6.045207      -164.4984
  19   2.0000      -6.041402      -164.3949
  20   2.0000      -6.041351      -164.3935
  21   2.0000      -6.037645      -164.2927
  22   2.0000      -6.037525      -164.2894
  23   2.0000      -6.034170      -164.1981
  24   2.0000      -1.006616       -27.3914
  25   2.0000      -0.984502       -26.7897
  26   2.0000      -0.912369       -24.8268
  27   2.0000      -0.908968       -24.7343
  28   2.0000      -0.864512       -23.5246
  29   2.0000      -0.854742       -23.2587
  30   2.0000      -0.851681       -23.1754
  31   2.0000      -0.809425       -22.0256
  32   2.0000      -0.784558       -21.3489
  33   2.0000      -0.770278       -20.9603
  34   2.0000      -0.711277       -19.3548
  35   2.0000      -0.701132       -19.0788
  36   2.0000      -0.690204       -18.7814
  37   2.0000      -0.664106       -18.0712
  38   2.0000      -0.646088       -17.5809
  39   2.0000      -0.619335       -16.8530
  40   2.0000      -0.599032       -16.3005
  41   2.0000      -0.569978       -15.5099
  42   2.0000      -0.558639       -15.2013
  43   2.0000      -0.547135       -14.8883
  44   2.0000      -0.538568       -14.6552
  45   2.0000      -0.528450       -14.3799
  46   2.0000      -0.516296       -14.0491
  47   2.0000      -0.513390       -13.9700
  48   2.0000      -0.500115       -13.6088
  49   2.0000      -0.488620       -13.2960
  50   2.0000      -0.483331       -13.1521
  51   2.0000      -0.478418       -13.0184
  52   2.0000      -0.471978       -12.8432
  53   2.0000      -0.463838       -12.6217
  54   2.0000      -0.459995       -12.5171
  55   2.0000      -0.449965       -12.2442
  56   2.0000      -0.443433       -12.0664
  57   2.0000      -0.442205       -12.0330
  58   2.0000      -0.435985       -11.8638
  59   2.0000      -0.427864       -11.6428
  60   2.0000      -0.423103       -11.5132
  61   2.0000      -0.413725       -11.2580
  62   2.0000      -0.411526       -11.1982
  63   2.0000      -0.339215        -9.2305
  64   2.0000      -0.333154        -9.0656
  65   2.0000      -0.312811        -8.5120
  66   2.0000      -0.307669        -8.3721
  67   0.0000       0.044630         1.2144
  68   0.0000       0.047778         1.3001
  69   0.0000       0.107436         2.9235
  70   0.0000       0.125076         3.4035
  71   0.0000       0.129532         3.5248

MULLIKEN ATOMIC CHARGES
-----------------------
   0 S :    0.131075
   1 C :   -0.096408
   2 C :   -0.079014
   3 C :    0.071901
   4 C :   -0.186588
   5 H :   -0.016294
   6 C :    0.027864
   7 H :    0.027456
   8 H :    0.029503
   9 C :   -0.002635
  10 H :    0.033849
  11 H :    0.014492
  12 C :   -0.089981
  13 H :    0.020136
  14 H :    0.034384
  15 H :    0.031706
  16 S :    0.144379
  17 C :   -0.089516
  18 C :   -0.032761
  19 C :    0.010525
  20 C :   -0.221714
  21 H :    0.006681
  22 C :    0.055074
  23 H :    0.025983
  24 H :    0.008353
  25 C :   -0.022435
  26 H :    0.002613
  27 H :    0.027841
  28 C :   -0.047551
  29 H :    0.033837
  30 H :    0.034456
  31 H :    0.012619
  32 H :    0.040881
  33 H :    0.059289
Sum of atomic charges:    0.0000000

LOEWDIN ATOMIC CHARGES
----------------------
   0 S :    0.428982
   1 C :   -0.207283
   2 C :   -0.059366
   3 C :   -0.058325
   4 C :   -0.206307
   5 H :    0.024901
   6 C :   -0.034315
   7 H :    0.035308
   8 H :    0.034268
   9 C :   -0.039888
  10 H :    0.030202
  11 H :    0.019586
  12 C :   -0.078283
  13 H :    0.021462
  14 H :    0.028642
  15 H :    0.027755
  16 S :    0.433843
  17 C :   -0.196564
  18 C :   -0.063805
  19 C :   -0.047283
  20 C :   -0.217810
  21 H :    0.024413
  22 C :   -0.036648
  23 H :    0.039775
  24 H :    0.025997
  25 C :   -0.027798
  26 H :    0.009265
  27 H :    0.026819
  28 C :   -0.061636
  29 H :    0.025569
  30 H :    0.032747
  31 H :    0.011044
  32 H :    0.023190
  33 H :    0.031542

  Mayer bond orders larger than 0.100000
B(  0-S ,  1-C ) :   1.1613 B(  0-S ,  4-C ) :   1.1709 B(  1-C ,  2-C ) :   1.5728
B(  1-C ,  4-C ) :   0.1132 B(  1-C , 32-H ) :   0.9652 B(  2-C ,  3-C ) :   1.2631
B(  2-C ,  6-C ) :   1.0118 B(  3-C ,  4-C ) :   1.5724 B(  3-C ,  5-H ) :   1.0035
B(  4-C , 20-C ) :   0.9985 B(  6-C ,  7-H ) :   0.9471 B(  6-C ,  8-H ) :   0.9412
B(  6-C ,  9-C ) :   1.0743 B(  9-C , 10-H ) :   0.9544 B(  9-C , 11-H ) :   0.9480
B(  9-C , 12-C ) :   1.0763 B( 12-C , 13-H ) :   0.9739 B( 12-C , 14-H ) :   0.9715
B( 12-C , 15-H ) :   0.9735 B( 16-S , 17-C ) :   1.1603 B( 16-S , 20-C ) :   1.1675
B( 17-C , 18-C ) :   1.6013 B( 17-C , 33-H ) :   0.9622 B( 18-C , 19-C ) :   1.2541
B( 18-C , 21-H ) :   0.9892 B( 19-C , 20-C ) :   1.5780 B( 19-C , 22-C ) :   1.0438
B( 22-C , 23-H ) :   0.9328 B( 22-C , 24-H ) :   0.9351 B( 22-C , 25-C ) :   1.0523
B( 25-C , 26-H ) :   0.9550 B( 25-C , 27-H ) :   0.9552 B( 25-C , 28-C ) :   1.0823
B( 28-C , 29-H ) :   0.9754 B( 28-C , 30-H ) :   0.9741 B( 28-C , 31-H ) :   0.9766

Dispersion correction           -0.014684920
FINAL SINGLE POINT ENERGY     -1339.858815981567

DIPOLE MOMENT
-------------
                                X             Y             Z
Electronic contribution:     -2.57856     -26.14683     -10.17063
Nuclear contribution   :      2.57544      26.54728      10.70882
                        -----------------------------------------
Total Dipole Moment    :     -0.00312       0.40045       0.53819
                        -----------------------------------------
Magnitude (a.u.)       :      0.67084
Magnitude (Debye)      :      1.70513

Rotational constants in cm-1:     0.017808     0.009076     0.007237
Rotational constants in MHz :   533.857961   272.082601   216.950039

                             ****ORCA TERMINATED NORMALLY****
TOTAL RUN TIME: 0 days 0 hours 0 minutes 21 seconds 521 msec
