                         Program Version 4.2.1 -  RELEASE  -
|  1> ! wB97X-D3 SP def2-SVP
|  2> %pal
|  3> nprocs 24
|  4> end
|  5>
|  6> * xyz 0 1
|  7> S 	 -112.045 	 24.2553 	 -112.187
|  8> C 	 -111.041 	 23.0596 	 -111.365
|  9> C 	 -110.311 	 22.2606 	 -112.178
| 10> C 	 -110.604 	 22.6116 	 -113.543
| 11> C 	 -111.403 	 23.7212 	 -113.759
| 12> H 	 -110.2 	 22.0312 	 -114.342
| 13> C 	 -109.413 	 21.1136 	 -111.661
| 14> H 	 -109.528 	 20.3336 	 -112.432
| 15> H 	 -109.829 	 20.7247 	 -110.712
| 16> C 	 -107.852 	 21.4333 	 -111.438
| 17> H 	 -107.798 	 22.1293 	 -110.6
| 18> H 	 -107.33 	 20.6237 	 -110.888
| 19> C 	 -107.024 	 21.7162 	 -112.681
| 20> H 	 -107.199 	 22.6711 	 -113.072
| 21> H 	 -105.974 	 21.6284 	 -112.435
| 22> H 	 -107.246 	 20.9691 	 -113.524
| 23> S 	 -113.719 	 24.2459 	 -115.333
| 24> C 	 -113.498 	 24.6516 	 -117.009
| 25> C 	 -112.19 	 24.691 	 -117.349
| 26> C 	 -111.245 	 24.3943 	 -116.28
| 27> C 	 -111.913 	 24.2389 	 -115.059
| 28> H 	 -111.967 	 25.0004 	 -118.353
| 29> C 	 -109.703 	 24.31 	 -116.48
| 30> H 	 -109.458 	 23.2488 	 -116.479
| 31> H 	 -109.196 	 24.7735 	 -115.569
| 32> C 	 -108.973 	 24.9026 	 -117.725
| 33> H 	 -109.341 	 24.3566 	 -118.691
| 34> H 	 -107.952 	 24.5929 	 -117.779
| 35> C 	 -109.127 	 26.4101 	 -117.933
| 36> H 	 -108.64 	 26.755 	 -118.863
| 37> H 	 -108.704 	 26.8873 	 -117.125
| 38> H 	 -110.203 	 26.6445 	 -117.941
| 39> H 	 -110.933 	 23.0075 	 -110.315
| 40> H 	 -114.282 	 24.9385 	 -117.673
| 41> *
| 42>
| 43>                          ****END OF INPUT****

CARTESIAN COORDINATES (ANGSTROEM)
---------------------------------
  S    -112.045000   24.255300  -112.187000
  C    -111.041000   23.059600  -111.365000
  C    -110.311000   22.260600  -112.178000
  C    -110.604000   22.611600  -113.543000
  C    -111.403000   23.721200  -113.759000
  H    -110.200000   22.031200  -114.342000
  C    -109.413000   21.113600  -111.661000
  H    -109.528000   20.333600  -112.432000
  H    -109.829000   20.724700  -110.712000
  C    -107.852000   21.433300  -111.438000
  H    -107.798000   22.129300  -110.600000
  H    -107.330000   20.623700  -110.888000
  C    -107.024000   21.716200  -112.681000
  H    -107.199000   22.671100  -113.072000
  H    -105.974000   21.628400  -112.435000
  H    -107.246000   20.969100  -113.524000
  S    -113.719000   24.245900  -115.333000
  C    -113.498000   24.651600  -117.009000
  C    -112.190000   24.691000  -117.349000
  C    -111.245000   24.394300  -116.280000
  C    -111.913000   24.238900  -115.059000
  H    -111.967000   25.000400  -118.353000
  C    -109.703000   24.310000  -116.480000
  H    -109.458000   23.248800  -116.479000
  H    -109.196000   24.773500  -115.569000
  C    -108.973000   24.902600  -117.725000
  H    -109.341000   24.356600  -118.691000
  H    -107.952000   24.592900  -117.779000
  C    -109.127000   26.410100  -117.933000
  H    -108.640000   26.755000  -118.863000
  H    -108.704000   26.887300  -117.125000
  H    -110.203000   26.644500  -117.941000
  H    -110.933000   23.007500  -110.315000
  H    -114.282000   24.938500  -117.673000

 Total Charge           Charge          ....    0
 Multiplicity           Mult            ....    1
 Number of Electrons    NEL             ....  134
 Basis Dimension        Dim             ....  322

ORBITAL ENERGIES
----------------

  NO   OCC          E(Eh)            E(eV)
   0   2.0000     -88.965803     -2420.8826
   1   2.0000     -88.963103     -2420.8091
   2   2.0000     -10.336206      -281.2625
   3   2.0000     -10.334799      -281.2242
   4   2.0000     -10.315791      -280.7069
   5   2.0000     -10.313857      -280.6543
   6   2.0000     -10.310028      -280.5501
   7   2.0000     -10.306890      -280.4647
   8   2.0000     -10.304739      -280.4062
   9   2.0000     -10.300493      -280.2907
  10   2.0000     -10.296081      -280.1706
  11   2.0000     -10.295586      -280.1571
  12   2.0000     -10.295026      -280.1419
  13   2.0000     -10.292599      -280.0759
  14   2.0000     -10.281789      -279.7817
  15   2.0000     -10.273311      -279.5510
  16   2.0000      -8.079921      -219.8658
  17   2.0000      -8.077165      -219.7908
  18   2.0000      -6.038525      -164.3166
  19   2.0000      -6.035876      -164.2445
  20   2.0000      -6.034592      -164.2096
  21   2.0000      -6.031843      -164.1348
  22   2.0000      -6.030541      -164.0994
  23   2.0000      -6.027662      -164.0210
  24   2.0000      -0.998633       -27.1742
  25   2.0000      -0.979546       -26.6548
  26   2.0000      -0.902207       -24.5503
  27   2.0000      -0.901673       -24.5358
  28   2.0000      -0.868812       -23.6416
  29   2.0000      -0.849459       -23.1150
  30   2.0000      -0.839875       -22.8542
  31   2.0000      -0.816010       -22.2048
  32   2.0000      -0.786285       -21.3959
  33   2.0000      -0.775769       -21.1098
  34   2.0000      -0.707676       -19.2568
  35   2.0000      -0.705016       -19.1845
  36   2.0000      -0.693845       -18.8805
  37   2.0000      -0.652197       -17.7472
  38   2.0000      -0.638433       -17.3726
  39   2.0000      -0.617288       -16.7973
  40   2.0000      -0.592593       -16.1253
  41   2.0000      -0.565454       -15.3868
  42   2.0000      -0.552664       -15.0388
  43   2.0000      -0.548267       -14.9191
  44   2.0000      -0.543820       -14.7981
  45   2.0000      -0.536435       -14.5971
  46   2.0000      -0.516900       -14.0656
  47   2.0000      -0.505451       -13.7540
  48   2.0000      -0.501384       -13.6434
  49   2.0000      -0.497416       -13.5354
  50   2.0000      -0.491433       -13.3726
  51   2.0000      -0.479741       -13.0544
  52   2.0000      -0.471331       -12.8256
  53   2.0000      -0.466360       -12.6903
  54   2.0000      -0.458992       -12.4898
  55   2.0000      -0.446185       -12.1413
  56   2.0000      -0.443175       -12.0594
  57   2.0000      -0.440635       -11.9903
  58   2.0000      -0.433517       -11.7966
  59   2.0000      -0.429711       -11.6930
  60   2.0000      -0.422928       -11.5085
  61   2.0000      -0.409028       -11.1302
  62   2.0000      -0.406838       -11.0706
  63   2.0000      -0.348635        -9.4868
  64   2.0000      -0.331232        -9.0133
  65   2.0000      -0.328920        -8.9504
  66   2.0000      -0.295333        -8.0364
  67   0.0000       0.027498         0.7483
  68   0.0000       0.069958         1.9036
  69   0.0000       0.109666         2.9842
  70   0.0000       0.119639         3.2555
  71   0.0000       0.127173         3.4605

MULLIKEN ATOMIC CHARGES
-----------------------
   0 S :    0.100440
   1 C :   -0.104036
   2 C :   -0.080949
   3 C :    0.034617
   4 C :   -0.152333
   5 H :   -0.004169
   6 C :    0.046479
   7 H :    0.030741
   8 H :    0.034300
   9 C :   -0.072660
  10 H :    0.019321
  11 H :    0.023458
  12 C :   -0.035951
  13 H :    0.032717
  14 H :    0.035773
  15 H :    0.036458
  16 S :    0.086711
  17 C :   -0.073256
  18 C :   -0.038967
  19 C :   -0.029749
  20 C :   -0.131655
  21 H :    0.015555
  22 C :    0.025033
  23 H :    0.046156
  24 H :    0.054216
  25 C :   -0.099555
  26 H :    0.023729
  27 H :    0.023574
  28 C :   -0.012344
  29 H :    0.040205
  30 H :    0.015044
  31 H :    0.032288
  32 H :    0.028162
  33 H :    0.050646
Sum of atomic charges:    0.0000000

LOEWDIN ATOMIC CHARGES
----------------------
   0 S :    0.382555
   1 C :   -0.173920
   2 C :   -0.070786
   3 C :   -0.051640
   4 C :   -0.189334
   5 H :    0.023220
   6 C :   -0.025607
   7 H :    0.030473
   8 H :    0.035215
   9 C :   -0.048391
  10 H :    0.023180
  11 H :    0.027730
  12 C :   -0.064678
  13 H :    0.017341
  14 H :    0.029096
  15 H :    0.034748
  16 S :    0.373224
  17 C :   -0.177908
  18 C :   -0.077599
  19 C :   -0.047246
  20 C :   -0.177520
  21 H :    0.028483
  22 C :   -0.037295
  23 H :    0.034980
  24 H :    0.042306
  25 C :   -0.049719
  26 H :    0.026484
  27 H :    0.022006
  28 C :   -0.060133
  29 H :    0.031344
  30 H :    0.013641
  31 H :    0.028701
  32 H :    0.018307
  33 H :    0.028740

  Mayer bond orders larger than 0.100000
B(  0-S ,  1-C ) :   1.1393 B(  0-S ,  4-C ) :   1.1274 B(  1-C ,  2-C ) :   1.6490
B(  1-C , 32-H ) :   0.9629 B(  2-C ,  3-C ) :   1.2364 B(  2-C ,  6-C ) :   1.0049
B(  3-C ,  4-C ) :   1.5853 B(  3-C ,  5-H ) :   0.9930 B(  4-C , 20-C ) :   1.0349
B(  6-C ,  7-H ) :   0.9462 B(  6-C ,  8-H ) :   0.9469 B(  6-C ,  9-C ) :   1.0623
B(  9-C , 10-H ) :   0.9541 B(  9-C , 11-H ) :   0.9575 B(  9-C , 12-C ) :   1.0688
B( 12-C , 13-H ) :   0.9776 B( 12-C , 14-H ) :   0.9733 B( 12-C , 15-H ) :   0.9737
B( 16-S , 17-C ) :   1.1411 B( 16-S , 20-C ) :   1.1188 B( 17-C , 18-C ) :   1.6539
B( 17-C , 33-H ) :   0.9634 B( 18-C , 19-C ) :   1.2036 B( 18-C , 21-H ) :   0.9867
B( 19-C , 20-C ) :   1.6339 B( 19-C , 22-C ) :   1.0146 B( 22-C , 23-H ) :   0.9309
B( 22-C , 24-H ) :   0.9426 B( 22-C , 25-C ) :   1.0819 B( 25-C , 26-H ) :   0.9471
B( 25-C , 27-H ) :   0.9521 B( 25-C , 28-C ) :   1.0743 B( 28-C , 29-H ) :   0.9733
B( 28-C , 30-H ) :   0.9739 B( 28-C , 31-H ) :   0.9751

Dispersion correction           -0.014185837
FINAL SINGLE POINT ENERGY     -1339.872597720368

DIPOLE MOMENT
-------------
                                X             Y             Z
Electronic contribution:    -27.70057       4.84019       6.88603
Nuclear contribution   :     28.43198      -5.15903      -7.09555
                        -----------------------------------------
Total Dipole Moment    :      0.73141      -0.31884      -0.20952
                        -----------------------------------------
Magnitude (a.u.)       :      0.82494
Magnitude (Debye)      :      2.09682

Rotational constants in cm-1:     0.017380     0.008745     0.006372
Rotational constants in MHz :   521.047770   262.155207   191.030005

                             ****ORCA TERMINATED NORMALLY****
TOTAL RUN TIME: 0 days 0 hours 0 minutes 21 seconds 294 msec
