                         Program Version 4.2.1 -  RELEASE  -
|  1> ! wB97X-D3 SP def2-SVP
|  2> %pal
|  3> nprocs 24
|  4> end
|  5>
|  6> * xyz 0 1
|  7> S 	 -66.6274 	 6.60374 	 -69.4958
|  8> C 	 -66.2904 	 7.6451 	 -70.9467
|  9> C 	 -65.8896 	 6.91189 	 -72.0693
| 10> C 	 -65.7875 	 5.48385 	 -71.6817
| 11> C 	 -66.2668 	 5.13459 	 -70.4272
| 12> H 	 -65.5102 	 4.64435 	 -72.3055
| 13> C 	 -65.5431 	 7.47243 	 -73.4
| 14> H 	 -64.6375 	 6.96037 	 -73.7684
| 15> H 	 -65.2951 	 8.53985 	 -73.254
| 16> C 	 -66.6816 	 7.33079 	 -74.4539
| 17> H 	 -67.6738 	 7.60968 	 -74.0567
| 18> H 	 -66.5937 	 8.0533 	 -75.2425
| 19> C 	 -66.6496 	 5.86164 	 -74.9892
| 20> H 	 -67.1187 	 5.10528 	 -74.3077
| 21> H 	 -67.0683 	 5.94565 	 -75.9907
| 22> H 	 -65.6559 	 5.48806 	 -75.3386
| 23> S 	 -65.9334 	 3.60489 	 -68.1319
| 24> C 	 -66.6324 	 2.04544 	 -67.9947
| 25> C 	 -67.0319 	 1.60144 	 -69.1955
| 26> C 	 -66.9969 	 2.64409 	 -70.2061
| 27> C 	 -66.4245 	 3.85118 	 -69.7677
| 28> H 	 -67.4455 	 0.626218 	 -69.3376
| 29> C 	 -67.5181 	 2.42105 	 -71.5738
| 30> H 	 -67.6629 	 3.46152 	 -71.9287
| 31> H 	 -68.5496 	 2.01612 	 -71.484
| 32> C 	 -66.7732 	 1.58692 	 -72.5868
| 33> H 	 -66.6817 	 0.579872 	 -72.239
| 34> H 	 -65.7385 	 1.92193 	 -72.5502
| 35> C 	 -67.4413 	 1.59602 	 -73.994
| 36> H 	 -66.7392 	 1.22718 	 -74.7318
| 37> H 	 -67.9373 	 2.54351 	 -74.3689
| 38> H 	 -68.2138 	 0.812072 	 -74.0086
| 39> H 	 -66.2911 	 8.71093 	 -70.9644
| 40> H 	 -66.6618 	 1.47868 	 -67.0779
| 41> *
| 42>
| 43>                          ****END OF INPUT****

CARTESIAN COORDINATES (ANGSTROEM)
---------------------------------
  S    -66.627400    6.603740  -69.495800
  C    -66.290400    7.645100  -70.946700
  C    -65.889600    6.911890  -72.069300
  C    -65.787500    5.483850  -71.681700
  C    -66.266800    5.134590  -70.427200
  H    -65.510200    4.644350  -72.305500
  C    -65.543100    7.472430  -73.400000
  H    -64.637500    6.960370  -73.768400
  H    -65.295100    8.539850  -73.254000
  C    -66.681600    7.330790  -74.453900
  H    -67.673800    7.609680  -74.056700
  H    -66.593700    8.053300  -75.242500
  C    -66.649600    5.861640  -74.989200
  H    -67.118700    5.105280  -74.307700
  H    -67.068300    5.945650  -75.990700
  H    -65.655900    5.488060  -75.338600
  S    -65.933400    3.604890  -68.131900
  C    -66.632400    2.045440  -67.994700
  C    -67.031900    1.601440  -69.195500
  C    -66.996900    2.644090  -70.206100
  C    -66.424500    3.851180  -69.767700
  H    -67.445500    0.626218  -69.337600
  C    -67.518100    2.421050  -71.573800
  H    -67.662900    3.461520  -71.928700
  H    -68.549600    2.016120  -71.484000
  C    -66.773200    1.586920  -72.586800
  H    -66.681700    0.579872  -72.239000
  H    -65.738500    1.921930  -72.550200
  C    -67.441300    1.596020  -73.994000
  H    -66.739200    1.227180  -74.731800
  H    -67.937300    2.543510  -74.368900
  H    -68.213800    0.812072  -74.008600
  H    -66.291100    8.710930  -70.964400
  H    -66.661800    1.478680  -67.077900

 Total Charge           Charge          ....    0
 Multiplicity           Mult            ....    1
 Number of Electrons    NEL             ....  134
 Basis Dimension        Dim             ....  322

ORBITAL ENERGIES
----------------

  NO   OCC          E(Eh)            E(eV)
   0   2.0000     -88.964644     -2420.8510
   1   2.0000     -88.961699     -2420.7709
   2   2.0000     -10.334864      -281.2259
   3   2.0000     -10.327156      -281.0162
   4   2.0000     -10.319962      -280.8204
   5   2.0000     -10.313266      -280.6382
   6   2.0000     -10.310226      -280.5555
   7   2.0000     -10.303166      -280.3634
   8   2.0000     -10.301086      -280.3068
   9   2.0000     -10.297337      -280.2048
  10   2.0000     -10.293746      -280.1071
  11   2.0000     -10.289926      -280.0031
  12   2.0000     -10.286864      -279.9198
  13   2.0000     -10.286754      -279.9168
  14   2.0000     -10.286640      -279.9137
  15   2.0000     -10.284989      -279.8688
  16   2.0000      -8.077979      -219.8130
  17   2.0000      -8.077804      -219.8082
  18   2.0000      -6.036739      -164.2680
  19   2.0000      -6.036286      -164.2557
  20   2.0000      -6.032772      -164.1601
  21   2.0000      -6.032061      -164.1407
  22   2.0000      -6.028542      -164.0450
  23   2.0000      -6.028448      -164.0424
  24   2.0000      -1.009270       -27.4636
  25   2.0000      -0.977030       -26.5863
  26   2.0000      -0.912400       -24.8277
  27   2.0000      -0.911409       -24.8007
  28   2.0000      -0.870858       -23.6972
  29   2.0000      -0.849499       -23.1160
  30   2.0000      -0.837000       -22.7759
  31   2.0000      -0.819090       -22.2886
  32   2.0000      -0.781148       -21.2561
  33   2.0000      -0.769925       -20.9507
  34   2.0000      -0.710947       -19.3458
  35   2.0000      -0.707580       -19.2542
  36   2.0000      -0.699323       -19.0296
  37   2.0000      -0.660693       -17.9784
  38   2.0000      -0.641100       -17.4452
  39   2.0000      -0.613640       -16.6980
  40   2.0000      -0.597859       -16.2686
  41   2.0000      -0.573756       -15.6127
  42   2.0000      -0.562214       -15.2986
  43   2.0000      -0.550952       -14.9922
  44   2.0000      -0.540300       -14.7023
  45   2.0000      -0.525180       -14.2909
  46   2.0000      -0.514306       -13.9950
  47   2.0000      -0.512352       -13.9418
  48   2.0000      -0.507471       -13.8090
  49   2.0000      -0.499480       -13.5915
  50   2.0000      -0.489480       -13.3194
  51   2.0000      -0.480352       -13.0710
  52   2.0000      -0.474674       -12.9165
  53   2.0000      -0.461513       -12.5584
  54   2.0000      -0.460203       -12.5228
  55   2.0000      -0.451055       -12.2738
  56   2.0000      -0.444734       -12.1018
  57   2.0000      -0.439311       -11.9543
  58   2.0000      -0.434239       -11.8163
  59   2.0000      -0.422903       -11.5078
  60   2.0000      -0.414856       -11.2888
  61   2.0000      -0.412068       -11.2129
  62   2.0000      -0.409926       -11.1546
  63   2.0000      -0.350273        -9.5314
  64   2.0000      -0.327080        -8.9003
  65   2.0000      -0.325886        -8.8678
  66   2.0000      -0.293643        -7.9904
  67   0.0000       0.025385         0.6908
  68   0.0000       0.076959         2.0942
  69   0.0000       0.108876         2.9627
  70   0.0000       0.118711         3.2303
  71   0.0000       0.123823         3.3694

MULLIKEN ATOMIC CHARGES
-----------------------
   0 S :    0.093648
   1 C :   -0.100364
   2 C :   -0.097727
   3 C :    0.038433
   4 C :   -0.160890
   5 H :    0.006597
   6 C :    0.055695
   7 H :    0.038276
   8 H :    0.023179
   9 C :   -0.046449
  10 H :    0.034087
  11 H :    0.023053
  12 C :   -0.090393
  13 H :    0.072636
  14 H :    0.027176
  15 H :    0.026255
  16 S :    0.101834
  17 C :   -0.082308
  18 C :   -0.001200
  19 C :   -0.067394
  20 C :   -0.123562
  21 H :    0.011015
  22 C :    0.016802
  23 H :    0.022587
  24 H :    0.022678
  25 C :   -0.025004
  26 H :    0.014836
  27 H :    0.020687
  28 C :   -0.064874
  29 H :    0.033971
  30 H :    0.052369
  31 H :    0.029380
  32 H :    0.036297
  33 H :    0.058674
Sum of atomic charges:    0.0000000

LOEWDIN ATOMIC CHARGES
----------------------
   0 S :    0.364870
   1 C :   -0.170785
   2 C :   -0.055037
   3 C :   -0.061500
   4 C :   -0.181311
   5 H :    0.027804
   6 C :   -0.035301
   7 H :    0.035723
   8 H :    0.031567
   9 C :   -0.034842
  10 H :    0.030475
  11 H :    0.020516
  12 C :   -0.079350
  13 H :    0.032877
  14 H :    0.028518
  15 H :    0.027876
  16 S :    0.423558
  17 C :   -0.184637
  18 C :   -0.072272
  19 C :   -0.053223
  20 C :   -0.215860
  21 H :    0.029075
  22 C :   -0.047755
  23 H :    0.031417
  24 H :    0.031630
  25 C :   -0.038887
  26 H :    0.021785
  27 H :    0.020517
  28 C :   -0.070015
  29 H :    0.027321
  30 H :    0.033565
  31 H :    0.027972
  32 H :    0.021610
  33 H :    0.032101

  Mayer bond orders larger than 0.100000
B(  0-S ,  1-C ) :   1.1174 B(  0-S ,  4-C ) :   1.1192 B(  1-C ,  2-C ) :   1.6515
B(  1-C , 32-H ) :   0.9666 B(  2-C ,  3-C ) :   1.1834 B(  2-C ,  6-C ) :   1.0374
B(  3-C ,  4-C ) :   1.6130 B(  3-C ,  5-H ) :   0.9865 B(  4-C , 20-C ) :   1.0559
B(  6-C ,  7-H ) :   0.9458 B(  6-C ,  8-H ) :   0.9355 B(  6-C ,  9-C ) :   1.0586
B(  9-C , 10-H ) :   0.9547 B(  9-C , 11-H ) :   0.9606 B(  9-C , 12-C ) :   1.0676
B( 12-C , 13-H ) :   0.9700 B( 12-C , 14-H ) :   0.9716 B( 12-C , 15-H ) :   0.9727
B( 16-S , 17-C ) :   1.1647 B( 16-S , 20-C ) :   1.1366 B( 17-C , 18-C ) :   1.5936
B( 17-C , 33-H ) :   0.9691 B( 18-C , 19-C ) :   1.2422 B( 18-C , 21-H ) :   0.9981
B( 19-C , 20-C ) :   1.5644 B( 19-C , 22-C ) :   1.0677 B( 22-C , 23-H ) :   0.9296
B( 22-C , 24-H ) :   0.9244 B( 22-C , 25-C ) :   1.0649 B( 25-C , 26-H ) :   0.9476
B( 25-C , 27-H ) :   0.9537 B( 25-C , 28-C ) :   1.0677 B( 28-C , 29-H ) :   0.9739
B( 28-C , 30-H ) :   0.9767 B( 28-C , 31-H ) :   0.9736

Dispersion correction           -0.015107147
FINAL SINGLE POINT ENERGY     -1339.876839806684

DIPOLE MOMENT
-------------
                                X             Y             Z
Electronic contribution:      4.02886       5.82952      31.73436
Nuclear contribution   :     -4.10566      -6.08997     -32.47715
                        -----------------------------------------
Total Dipole Moment    :     -0.07680      -0.26045      -0.74279
                        -----------------------------------------
Magnitude (a.u.)       :      0.79087
Magnitude (Debye)      :      2.01022

Rotational constants in cm-1:     0.017014     0.010518     0.006785
Rotational constants in MHz :   510.057020   315.330207   203.407034

                             ****ORCA TERMINATED NORMALLY****
TOTAL RUN TIME: 0 days 0 hours 0 minutes 22 seconds 427 msec
