                         Program Version 4.2.1 -  RELEASE  -
|  1> ! wB97X-D3 SP def2-SVP
|  2> %pal
|  3> nprocs 24
|  4> end
|  5>
|  6> * xyz 0 1
|  7> S 	 -56.4824 	 -49.5854 	 -80.9523
|  8> C 	 -56.4694 	 -49.0766 	 -82.6665
|  9> C 	 -55.5166 	 -48.1205 	 -82.9913
| 10> C 	 -54.6455 	 -47.9499 	 -81.8564
| 11> C 	 -55.0089 	 -48.6998 	 -80.7483
| 12> H 	 -53.7103 	 -47.3257 	 -81.7099
| 13> C 	 -55.4521 	 -47.261 	 -84.2063
| 14> H 	 -55.5138 	 -48.0405 	 -84.9888
| 15> H 	 -54.509 	 -46.8318 	 -84.1638
| 16> C 	 -56.6807 	 -46.3023 	 -84.3702
| 17> H 	 -56.3442 	 -45.5513 	 -85.0872
| 18> H 	 -57.5012 	 -46.7752 	 -84.9039
| 19> C 	 -57.1585 	 -45.5906 	 -83.1285
| 20> H 	 -57.3936 	 -46.3176 	 -82.3551
| 21> H 	 -56.3982 	 -44.9569 	 -82.8463
| 22> H 	 -58.0357 	 -44.9317 	 -83.3686
| 23> S 	 -53.8793 	 -50.0066 	 -78.6369
| 24> C 	 -53.0803 	 -49.0801 	 -77.3693
| 25> C 	 -53.1785 	 -47.7054 	 -77.6125
| 26> C 	 -53.8141 	 -47.4184 	 -78.8366
| 27> C 	 -54.3317 	 -48.5544 	 -79.4868
| 28> H 	 -52.6199 	 -46.9978 	 -76.9795
| 29> C 	 -53.9744 	 -45.9664 	 -79.2423
| 30> H 	 -54.5224 	 -45.3307 	 -78.46
| 31> H 	 -54.6412 	 -45.8676 	 -80.1081
| 32> C 	 -52.6859 	 -45.2856 	 -79.7203
| 33> H 	 -52.1354 	 -45.9766 	 -80.443
| 34> H 	 -52.1165 	 -45.1175 	 -78.766
| 35> C 	 -52.9034 	 -43.9465 	 -80.3784
| 36> H 	 -53.3104 	 -43.2066 	 -79.648
| 37> H 	 -53.5038 	 -44.108 	 -81.3091
| 38> H 	 -52.0384 	 -43.5216 	 -80.8645
| 39> H 	 -57.1952 	 -49.3578 	 -83.46
| 40> H 	 -52.4531 	 -49.5013 	 -76.6482
| 41> *
| 42>
| 43>                          ****END OF INPUT****

CARTESIAN COORDINATES (ANGSTROEM)
---------------------------------
  S    -56.482400  -49.585400  -80.952300
  C    -56.469400  -49.076600  -82.666500
  C    -55.516600  -48.120500  -82.991300
  C    -54.645500  -47.949900  -81.856400
  C    -55.008900  -48.699800  -80.748300
  H    -53.710300  -47.325700  -81.709900
  C    -55.452100  -47.261000  -84.206300
  H    -55.513800  -48.040500  -84.988800
  H    -54.509000  -46.831800  -84.163800
  C    -56.680700  -46.302300  -84.370200
  H    -56.344200  -45.551300  -85.087200
  H    -57.501200  -46.775200  -84.903900
  C    -57.158500  -45.590600  -83.128500
  H    -57.393600  -46.317600  -82.355100
  H    -56.398200  -44.956900  -82.846300
  H    -58.035700  -44.931700  -83.368600
  S    -53.879300  -50.006600  -78.636900
  C    -53.080300  -49.080100  -77.369300
  C    -53.178500  -47.705400  -77.612500
  C    -53.814100  -47.418400  -78.836600
  C    -54.331700  -48.554400  -79.486800
  H    -52.619900  -46.997800  -76.979500
  C    -53.974400  -45.966400  -79.242300
  H    -54.522400  -45.330700  -78.460000
  H    -54.641200  -45.867600  -80.108100
  C    -52.685900  -45.285600  -79.720300
  H    -52.135400  -45.976600  -80.443000
  H    -52.116500  -45.117500  -78.766000
  C    -52.903400  -43.946500  -80.378400
  H    -53.310400  -43.206600  -79.648000
  H    -53.503800  -44.108000  -81.309100
  H    -52.038400  -43.521600  -80.864500
  H    -57.195200  -49.357800  -83.460000
  H    -52.453100  -49.501300  -76.648200

 Total Charge           Charge          ....    0
 Multiplicity           Mult            ....    1
 Number of Electrons    NEL             ....  134
 Basis Dimension        Dim             ....  322

ORBITAL ENERGIES
----------------

  NO   OCC          E(Eh)            E(eV)
   0   2.0000     -88.972641     -2421.0687
   1   2.0000     -88.967130     -2420.9187
   2   2.0000     -10.326565      -281.0001
   3   2.0000     -10.324218      -280.9363
   4   2.0000     -10.316264      -280.7198
   5   2.0000     -10.315984      -280.7122
   6   2.0000     -10.304238      -280.3926
   7   2.0000     -10.301298      -280.3126
   8   2.0000     -10.296257      -280.1754
   9   2.0000     -10.296247      -280.1751
  10   2.0000     -10.295522      -280.1554
  11   2.0000     -10.294121      -280.1173
  12   2.0000     -10.292190      -280.0647
  13   2.0000     -10.288051      -279.9521
  14   2.0000     -10.284446      -279.8540
  15   2.0000     -10.270606      -279.4774
  16   2.0000      -8.086650      -220.0489
  17   2.0000      -8.081752      -219.9156
  18   2.0000      -6.045199      -164.4982
  19   2.0000      -6.041500      -164.3976
  20   2.0000      -6.040146      -164.3607
  21   2.0000      -6.037171      -164.2798
  22   2.0000      -6.036163      -164.2523
  23   2.0000      -6.032767      -164.1599
  24   2.0000      -1.006804       -27.3965
  25   2.0000      -0.981690       -26.7131
  26   2.0000      -0.917117       -24.9560
  27   2.0000      -0.910550       -24.7773
  28   2.0000      -0.868430       -23.6312
  29   2.0000      -0.854153       -23.2427
  30   2.0000      -0.849498       -23.1160
  31   2.0000      -0.810294       -22.0492
  32   2.0000      -0.786919       -21.4132
  33   2.0000      -0.771593       -20.9961
  34   2.0000      -0.707931       -19.2638
  35   2.0000      -0.700804       -19.0699
  36   2.0000      -0.688989       -18.7483
  37   2.0000      -0.661415       -17.9980
  38   2.0000      -0.630957       -17.1692
  39   2.0000      -0.609878       -16.5956
  40   2.0000      -0.594986       -16.1904
  41   2.0000      -0.577174       -15.7057
  42   2.0000      -0.571156       -15.5419
  43   2.0000      -0.551684       -15.0121
  44   2.0000      -0.546073       -14.8594
  45   2.0000      -0.521802       -14.1990
  46   2.0000      -0.517862       -14.0917
  47   2.0000      -0.513342       -13.9687
  48   2.0000      -0.506752       -13.7894
  49   2.0000      -0.490941       -13.3592
  50   2.0000      -0.489667       -13.3245
  51   2.0000      -0.477487       -12.9931
  52   2.0000      -0.468393       -12.7456
  53   2.0000      -0.464316       -12.6347
  54   2.0000      -0.463877       -12.6227
  55   2.0000      -0.450192       -12.2503
  56   2.0000      -0.440824       -11.9954
  57   2.0000      -0.439319       -11.9545
  58   2.0000      -0.430456       -11.7133
  59   2.0000      -0.428691       -11.6653
  60   2.0000      -0.423514       -11.5244
  61   2.0000      -0.420699       -11.4478
  62   2.0000      -0.406258       -11.0549
  63   2.0000      -0.344674        -9.3791
  64   2.0000      -0.332681        -9.0527
  65   2.0000      -0.331138        -9.0107
  66   2.0000      -0.286937        -7.8080
  67   0.0000       0.026710         0.7268
  68   0.0000       0.068074         1.8524
  69   0.0000       0.101939         2.7739
  70   0.0000       0.115076         3.1314
  71   0.0000       0.119481         3.2512

MULLIKEN ATOMIC CHARGES
-----------------------
   0 S :    0.130178
   1 C :   -0.132107
   2 C :   -0.139161
   3 C :   -0.013369
   4 C :   -0.137958
   5 H :    0.023815
   6 C :    0.133469
   7 H :    0.038128
   8 H :    0.005769
   9 C :   -0.086143
  10 H :    0.025556
  11 H :    0.024544
  12 C :   -0.019997
  13 H :    0.055274
  14 H :    0.012677
  15 H :    0.039101
  16 S :    0.107324
  17 C :   -0.080021
  18 C :   -0.038089
  19 C :   -0.009205
  20 C :   -0.160090
  21 H :    0.033526
  22 C :    0.018658
  23 H :    0.045807
  24 H :    0.009320
  25 C :   -0.120641
  26 H :    0.048465
  27 H :    0.035014
  28 C :   -0.041427
  29 H :    0.047170
  30 H :    0.025449
  31 H :    0.029784
  32 H :    0.047810
  33 H :    0.041369
Sum of atomic charges:   -0.0000000

LOEWDIN ATOMIC CHARGES
----------------------
   0 S :    0.403925
   1 C :   -0.200964
   2 C :   -0.060922
   3 C :   -0.072814
   4 C :   -0.205528
   5 H :    0.039892
   6 C :   -0.025218
   7 H :    0.044659
   8 H :    0.020966
   9 C :   -0.038978
  10 H :    0.025936
  11 H :    0.021763
  12 C :   -0.060456
  13 H :    0.029527
  14 H :    0.013148
  15 H :    0.035419
  16 S :    0.411788
  17 C :   -0.174292
  18 C :   -0.067545
  19 C :   -0.059048
  20 C :   -0.201681
  21 H :    0.037279
  22 C :   -0.044406
  23 H :    0.039321
  24 H :    0.022631
  25 C :   -0.051008
  26 H :    0.029939
  27 H :    0.025204
  28 C :   -0.074428
  29 H :    0.032850
  30 H :    0.028129
  31 H :    0.026000
  32 H :    0.031717
  33 H :    0.017197

  Mayer bond orders larger than 0.100000
B(  0-S ,  1-C ) :   1.1169 B(  0-S ,  4-C ) :   1.1448 B(  1-C ,  2-C ) :   1.6273
B(  1-C , 32-H ) :   0.9610 B(  2-C ,  3-C ) :   1.2124 B(  2-C ,  6-C ) :   1.0154
B(  3-C ,  4-C ) :   1.5919 B(  3-C ,  5-H ) :   0.9803 B(  4-C , 20-C ) :   1.0476
B(  6-C ,  7-H ) :   0.9305 B(  6-C ,  8-H ) :   0.9371 B(  6-C ,  9-C ) :   1.0599
B(  9-C , 10-H ) :   0.9567 B(  9-C , 11-H ) :   0.9540 B(  9-C , 12-C ) :   1.0886
B( 12-C , 13-H ) :   0.9667 B( 12-C , 14-H ) :   0.9757 B( 12-C , 15-H ) :   0.9693
B( 16-S , 17-C ) :   1.1653 B( 16-S , 20-C ) :   1.1503 B( 17-C , 18-C ) :   1.5807
B( 17-C , 20-C ) :   0.1079 B( 17-C , 33-H ) :   0.9748 B( 18-C , 19-C ) :   1.2684
B( 18-C , 21-H ) :   0.9841 B( 19-C , 20-C ) :   1.5606 B( 19-C , 22-C ) :   1.0439
B( 22-C , 23-H ) :   0.9390 B( 22-C , 24-H ) :   0.9349 B( 22-C , 25-C ) :   1.0448
B( 25-C , 26-H ) :   0.9494 B( 25-C , 27-H ) :   0.9520 B( 25-C , 28-C ) :   1.0979
B( 28-C , 29-H ) :   0.9704 B( 28-C , 30-H ) :   0.9668 B( 28-C , 31-H ) :   0.9703

Dispersion correction           -0.015466331
FINAL SINGLE POINT ENERGY     -1339.868515399039

DIPOLE MOMENT
-------------
                                X             Y             Z
Electronic contribution:     -1.71651     -28.06237      13.14026
Nuclear contribution   :      1.94591      28.77157     -13.44230
                        -----------------------------------------
Total Dipole Moment    :      0.22940       0.70921      -0.30204
                        -----------------------------------------
Magnitude (a.u.)       :      0.80425
Magnitude (Debye)      :      2.04425

Rotational constants in cm-1:     0.017674     0.010479     0.007140
Rotational constants in MHz :   529.850144   314.151216   214.038738

                             ****ORCA TERMINATED NORMALLY****
TOTAL RUN TIME: 0 days 0 hours 0 minutes 22 seconds 838 msec
