                         Program Version 4.2.1 -  RELEASE  -
|  1> ! wB97X-D3 SP def2-SVP
|  2> %pal
|  3> nprocs 24
|  4> end
|  5>
|  6> * xyz 0 1
|  7> S 	 -101.722 	 -3.76838 	 -103.255
|  8> C 	 -100.734 	 -5.14413 	 -103.834
|  9> C 	 -101.506 	 -5.80767 	 -104.756
| 10> C 	 -102.713 	 -5.16488 	 -105.118
| 11> C 	 -102.924 	 -3.92458 	 -104.492
| 12> H 	 -103.382 	 -5.36352 	 -106.029
| 13> C 	 -101.073 	 -7.15132 	 -105.398
| 14> H 	 -99.9967 	 -7.19685 	 -105.368
| 15> H 	 -101.236 	 -7.10857 	 -106.501
| 16> C 	 -101.672 	 -8.46942 	 -104.86
| 17> H 	 -102.772 	 -8.46419 	 -104.951
| 18> H 	 -101.322 	 -9.3453 	 -105.499
| 19> C 	 -101.158 	 -8.76699 	 -103.482
| 20> H 	 -101.609 	 -9.68409 	 -103.058
| 21> H 	 -100.108 	 -9.06678 	 -103.615
| 22> H 	 -101.258 	 -7.94704 	 -102.8
| 23> S 	 -103.166 	 -1.24712 	 -105.215
| 24> C 	 -104.736 	 -0.647183 	 -105.553
| 25> C 	 -105.683 	 -1.5908 	 -105.341
| 26> C 	 -105.169 	 -2.8699 	 -105.083
| 27> C 	 -103.814 	 -2.84517 	 -104.897
| 28> H 	 -106.738 	 -1.35567 	 -105.491
| 29> C 	 -106.034 	 -4.0636 	 -104.974
| 30> H 	 -106.896 	 -3.83892 	 -104.389
| 31> H 	 -105.587 	 -4.77141 	 -104.319
| 32> C 	 -106.521 	 -4.71368 	 -106.322
| 33> H 	 -105.667 	 -4.87538 	 -107.01
| 34> H 	 -107.231 	 -3.97922 	 -106.715
| 35> C 	 -107.134 	 -6.16908 	 -106.164
| 36> H 	 -106.529 	 -6.94861 	 -105.831
| 37> H 	 -107.5 	 -6.48261 	 -107.148
| 38> H 	 -107.937 	 -6.21143 	 -105.48
| 39> H 	 -99.7471 	 -5.51123 	 -103.582
| 40> H 	 -105.021 	 0.39084 	 -105.791
| 41> *
| 42>
| 43>                          ****END OF INPUT****

CARTESIAN COORDINATES (ANGSTROEM)
---------------------------------
  S    -101.722000   -3.768380  -103.255000
  C    -100.734000   -5.144130  -103.834000
  C    -101.506000   -5.807670  -104.756000
  C    -102.713000   -5.164880  -105.118000
  C    -102.924000   -3.924580  -104.492000
  H    -103.382000   -5.363520  -106.029000
  C    -101.073000   -7.151320  -105.398000
  H    -99.996700   -7.196850  -105.368000
  H    -101.236000   -7.108570  -106.501000
  C    -101.672000   -8.469420  -104.860000
  H    -102.772000   -8.464190  -104.951000
  H    -101.322000   -9.345300  -105.499000
  C    -101.158000   -8.766990  -103.482000
  H    -101.609000   -9.684090  -103.058000
  H    -100.108000   -9.066780  -103.615000
  H    -101.258000   -7.947040  -102.800000
  S    -103.166000   -1.247120  -105.215000
  C    -104.736000   -0.647183  -105.553000
  C    -105.683000   -1.590800  -105.341000
  C    -105.169000   -2.869900  -105.083000
  C    -103.814000   -2.845170  -104.897000
  H    -106.738000   -1.355670  -105.491000
  C    -106.034000   -4.063600  -104.974000
  H    -106.896000   -3.838920  -104.389000
  H    -105.587000   -4.771410  -104.319000
  C    -106.521000   -4.713680  -106.322000
  H    -105.667000   -4.875380  -107.010000
  H    -107.231000   -3.979220  -106.715000
  C    -107.134000   -6.169080  -106.164000
  H    -106.529000   -6.948610  -105.831000
  H    -107.500000   -6.482610  -107.148000
  H    -107.937000   -6.211430  -105.480000
  H    -99.747100   -5.511230  -103.582000
  H    -105.021000    0.390840  -105.791000

 Total Charge           Charge          ....    0
 Multiplicity           Mult            ....    1
 Number of Electrons    NEL             ....  134
 Basis Dimension        Dim             ....  322

ORBITAL ENERGIES
----------------

  NO   OCC          E(Eh)            E(eV)
   0   2.0000     -88.967686     -2420.9338
   1   2.0000     -88.965634     -2420.8780
   2   2.0000     -10.331469      -281.1336
   3   2.0000     -10.325446      -280.9697
   4   2.0000     -10.317864      -280.7634
   5   2.0000     -10.314964      -280.6844
   6   2.0000     -10.303153      -280.3630
   7   2.0000     -10.299133      -280.2536
   8   2.0000     -10.298817      -280.2451
   9   2.0000     -10.297047      -280.1969
  10   2.0000     -10.293837      -280.1096
  11   2.0000     -10.291497      -280.0459
  12   2.0000     -10.287797      -279.9452
  13   2.0000     -10.283004      -279.8148
  14   2.0000     -10.275504      -279.6107
  15   2.0000     -10.273087      -279.5449
  16   2.0000      -8.082951      -219.9483
  17   2.0000      -8.079894      -219.8651
  18   2.0000      -6.041413      -164.3952
  19   2.0000      -6.038520      -164.3165
  20   2.0000      -6.037372      -164.2852
  21   2.0000      -6.034340      -164.2027
  22   2.0000      -6.033720      -164.1859
  23   2.0000      -6.030636      -164.1020
  24   2.0000      -1.013908       -27.5898
  25   2.0000      -0.989196       -26.9174
  26   2.0000      -0.909781       -24.7564
  27   2.0000      -0.907362       -24.6906
  28   2.0000      -0.872222       -23.7344
  29   2.0000      -0.853373       -23.2214
  30   2.0000      -0.840963       -22.8838
  31   2.0000      -0.815105       -22.1801
  32   2.0000      -0.786513       -21.4021
  33   2.0000      -0.776064       -21.1178
  34   2.0000      -0.713006       -19.4019
  35   2.0000      -0.703926       -19.1548
  36   2.0000      -0.690236       -18.7823
  37   2.0000      -0.660884       -17.9836
  38   2.0000      -0.637422       -17.3451
  39   2.0000      -0.612542       -16.6681
  40   2.0000      -0.600012       -16.3272
  41   2.0000      -0.572839       -15.5877
  42   2.0000      -0.560634       -15.2556
  43   2.0000      -0.550426       -14.9779
  44   2.0000      -0.539256       -14.6739
  45   2.0000      -0.529028       -14.3956
  46   2.0000      -0.516624       -14.0580
  47   2.0000      -0.514142       -13.9905
  48   2.0000      -0.505124       -13.7451
  49   2.0000      -0.503447       -13.6995
  50   2.0000      -0.485673       -13.2158
  51   2.0000      -0.482275       -13.1234
  52   2.0000      -0.476392       -12.9633
  53   2.0000      -0.465587       -12.6693
  54   2.0000      -0.459668       -12.5082
  55   2.0000      -0.444117       -12.0850
  56   2.0000      -0.437780       -11.9126
  57   2.0000      -0.435687       -11.8556
  58   2.0000      -0.432327       -11.7642
  59   2.0000      -0.429294       -11.6817
  60   2.0000      -0.421257       -11.4630
  61   2.0000      -0.418218       -11.3803
  62   2.0000      -0.408618       -11.1191
  63   2.0000      -0.347446        -9.4545
  64   2.0000      -0.335824        -9.1382
  65   2.0000      -0.328405        -8.9364
  66   2.0000      -0.295072        -8.0293
  67   0.0000       0.024431         0.6648
  68   0.0000       0.072583         1.9751
  69   0.0000       0.116362         3.1664
  70   0.0000       0.125786         3.4228
  71   0.0000       0.128170         3.4877

MULLIKEN ATOMIC CHARGES
-----------------------
   0 S :    0.104593
   1 C :   -0.104860
   2 C :   -0.102829
   3 C :    0.024524
   4 C :   -0.180716
   5 H :    0.038855
   6 C :    0.046699
   7 H :    0.005484
   8 H :    0.030015
   9 C :   -0.071140
  10 H :    0.033194
  11 H :    0.035452
  12 C :   -0.047763
  13 H :    0.031961
  14 H :    0.021058
  15 H :    0.041172
  16 S :    0.130880
  17 C :   -0.092472
  18 C :   -0.036175
  19 C :   -0.022553
  20 C :   -0.157662
  21 H :    0.017273
  22 C :    0.087720
  23 H :    0.010518
  24 H :    0.007590
  25 C :   -0.083674
  26 H :    0.040422
  27 H :    0.037104
  28 C :   -0.022121
  29 H :    0.020978
  30 H :    0.032300
  31 H :    0.015097
  32 H :    0.046102
  33 H :    0.062975
Sum of atomic charges:   -0.0000000

LOEWDIN ATOMIC CHARGES
----------------------
   0 S :    0.398289
   1 C :   -0.189600
   2 C :   -0.068559
   3 C :   -0.077990
   4 C :   -0.195867
   5 H :    0.043680
   6 C :   -0.034395
   7 H :    0.023036
   8 H :    0.033089
   9 C :   -0.045172
  10 H :    0.021898
  11 H :    0.032887
  12 C :   -0.068544
  13 H :    0.028443
  14 H :    0.026467
  15 H :    0.020724
  16 S :    0.425536
  17 C :   -0.195446
  18 C :   -0.075093
  19 C :   -0.053846
  20 C :   -0.201127
  21 H :    0.032854
  22 C :   -0.036607
  23 H :    0.028743
  24 H :    0.024870
  25 C :   -0.028125
  26 H :    0.024941
  27 H :    0.026344
  28 C :   -0.060869
  29 H :    0.018719
  30 H :    0.030200
  31 H :    0.017629
  32 H :    0.034608
  33 H :    0.038282

  Mayer bond orders larger than 0.100000
B(  0-S ,  1-C ) :   1.1164 B(  0-S ,  4-C ) :   1.1618 B(  1-C ,  2-C ) :   1.6099
B(  1-C ,  4-C ) :   0.1004 B(  1-C , 32-H ) :   0.9701 B(  2-C ,  3-C ) :   1.2528
B(  2-C ,  6-C ) :   1.0184 B(  3-C ,  4-C ) :   1.5494 B(  3-C ,  5-H ) :   0.9766
B(  4-C , 20-C ) :   1.0523 B(  6-C ,  7-H ) :   0.9427 B(  6-C ,  8-H ) :   0.9427
B(  6-C ,  9-C ) :   1.0678 B(  9-C , 10-H ) :   0.9571 B(  9-C , 11-H ) :   0.9537
B(  9-C , 12-C ) :   1.0752 B( 12-C , 13-H ) :   0.9709 B( 12-C , 14-H ) :   0.9731
B( 12-C , 15-H ) :   0.9785 B( 16-S , 17-C ) :   1.1612 B( 16-S , 20-C ) :   1.1384
B( 17-C , 18-C ) :   1.6093 B( 17-C , 33-H ) :   0.9608 B( 18-C , 19-C ) :   1.2537
B( 18-C , 21-H ) :   0.9891 B( 19-C , 20-C ) :   1.5833 B( 19-C , 22-C ) :   1.0675
B( 22-C , 23-H ) :   0.9254 B( 22-C , 24-H ) :   0.9222 B( 22-C , 25-C ) :   1.0423
B( 25-C , 26-H ) :   0.9608 B( 25-C , 27-H ) :   0.9577 B( 25-C , 28-C ) :   1.0736
B( 28-C , 29-H ) :   0.9764 B( 28-C , 30-H ) :   0.9756 B( 28-C , 31-H ) :   0.9755

Dispersion correction           -0.014406615
FINAL SINGLE POINT ENERGY     -1339.873419083331

DIPOLE MOMENT
-------------
                                X             Y             Z
Electronic contribution:      9.28888      28.09189       5.89551
Nuclear contribution   :     -9.66165     -28.49922      -6.23318
                        -----------------------------------------
Total Dipole Moment    :     -0.37277      -0.40733      -0.33766
                        -----------------------------------------
Magnitude (a.u.)       :      0.64722
Magnitude (Debye)      :      1.64509

Rotational constants in cm-1:     0.018385     0.009114     0.006566
Rotational constants in MHz :   551.169304   273.242977   196.839529

                             ****ORCA TERMINATED NORMALLY****
TOTAL RUN TIME: 0 days 0 hours 0 minutes 21 seconds 755 msec
