                         Program Version 4.2.1 -  RELEASE  -
|  1> ! wB97X-D3 SP def2-SVP
|  2> %pal
|  3> nprocs 24
|  4> end
|  5>
|  6> * xyz 0 1
|  7> S 	 -139.416 	 23.3353 	 -21.7101
|  8> C 	 -140.382 	 21.9977 	 -22.0664
|  9> C 	 -139.704 	 21.0943 	 -22.8694
| 10> C 	 -138.318 	 21.316 	 -23.0214
| 11> C 	 -137.986 	 22.5128 	 -22.3627
| 12> H 	 -137.56 	 20.7517 	 -23.5949
| 13> C 	 -140.107 	 19.5885 	 -22.9569
| 14> H 	 -139.85 	 19.0829 	 -23.9163
| 15> H 	 -141.262 	 19.6341 	 -22.9846
| 16> C 	 -139.619 	 18.7707 	 -21.7499
| 17> H 	 -139.646 	 19.3078 	 -20.7726
| 18> H 	 -140.276 	 17.931 	 -21.7723
| 19> C 	 -138.28 	 18.0389 	 -21.9956
| 20> H 	 -138.049 	 17.3899 	 -21.1681
| 21> H 	 -138.116 	 17.4601 	 -22.9069
| 22> H 	 -137.486 	 18.8445 	 -22.0052
| 23> S 	 -136.57 	 24.8488 	 -21.9973
| 24> C 	 -134.848 	 24.8892 	 -21.7909
| 25> C 	 -134.344 	 23.6295 	 -21.7801
| 26> C 	 -135.341 	 22.5738 	 -21.853
| 27> C 	 -136.609 	 23.1001 	 -22.0802
| 28> H 	 -133.37 	 23.5482 	 -21.4121
| 29> C 	 -134.884 	 21.1364 	 -21.8167
| 30> H 	 -135.777 	 20.4894 	 -21.6127
| 31> H 	 -134.285 	 21.0033 	 -20.8861
| 32> C 	 -134.345 	 20.6132 	 -23.1166
| 33> H 	 -133.414 	 21.1349 	 -23.2167
| 34> H 	 -134.971 	 20.9299 	 -23.9729
| 35> C 	 -134.157 	 19.0673 	 -23.0534
| 36> H 	 -134.039 	 18.741 	 -24.0565
| 37> H 	 -134.997 	 18.461 	 -22.6507
| 38> H 	 -133.207 	 18.8852 	 -22.5104
| 39> H 	 -141.417 	 22.0391 	 -21.711
| 40> H 	 -134.272 	 25.7915 	 -21.6896
| 41> *
| 42>
| 43>                          ****END OF INPUT****

CARTESIAN COORDINATES (ANGSTROEM)
---------------------------------
  S    -139.416000   23.335300  -21.710100
  C    -140.382000   21.997700  -22.066400
  C    -139.704000   21.094300  -22.869400
  C    -138.318000   21.316000  -23.021400
  C    -137.986000   22.512800  -22.362700
  H    -137.560000   20.751700  -23.594900
  C    -140.107000   19.588500  -22.956900
  H    -139.850000   19.082900  -23.916300
  H    -141.262000   19.634100  -22.984600
  C    -139.619000   18.770700  -21.749900
  H    -139.646000   19.307800  -20.772600
  H    -140.276000   17.931000  -21.772300
  C    -138.280000   18.038900  -21.995600
  H    -138.049000   17.389900  -21.168100
  H    -138.116000   17.460100  -22.906900
  H    -137.486000   18.844500  -22.005200
  S    -136.570000   24.848800  -21.997300
  C    -134.848000   24.889200  -21.790900
  C    -134.344000   23.629500  -21.780100
  C    -135.341000   22.573800  -21.853000
  C    -136.609000   23.100100  -22.080200
  H    -133.370000   23.548200  -21.412100
  C    -134.884000   21.136400  -21.816700
  H    -135.777000   20.489400  -21.612700
  H    -134.285000   21.003300  -20.886100
  C    -134.345000   20.613200  -23.116600
  H    -133.414000   21.134900  -23.216700
  H    -134.971000   20.929900  -23.972900
  C    -134.157000   19.067300  -23.053400
  H    -134.039000   18.741000  -24.056500
  H    -134.997000   18.461000  -22.650700
  H    -133.207000   18.885200  -22.510400
  H    -141.417000   22.039100  -21.711000
  H    -134.272000   25.791500  -21.689600

 Total Charge           Charge          ....    0
 Multiplicity           Mult            ....    1
 Number of Electrons    NEL             ....  134
 Basis Dimension        Dim             ....  322

ORBITAL ENERGIES
----------------

  NO   OCC          E(Eh)            E(eV)
   0   2.0000     -88.967644     -2420.9327
   1   2.0000     -88.960327     -2420.7336
   2   2.0000     -10.338179      -281.3161
   3   2.0000     -10.332231      -281.1543
   4   2.0000     -10.314637      -280.6755
   5   2.0000     -10.313111      -280.6340
   6   2.0000     -10.304861      -280.4095
   7   2.0000     -10.300929      -280.3025
   8   2.0000     -10.300594      -280.2934
   9   2.0000     -10.300428      -280.2889
  10   2.0000     -10.292059      -280.0612
  11   2.0000     -10.288218      -279.9566
  12   2.0000     -10.287652      -279.9412
  13   2.0000     -10.286226      -279.9025
  14   2.0000     -10.282207      -279.7931
  15   2.0000     -10.281293      -279.7682
  16   2.0000      -8.083407      -219.9607
  17   2.0000      -8.075803      -219.7538
  18   2.0000      -6.041698      -164.4030
  19   2.0000      -6.037793      -164.2967
  20   2.0000      -6.034367      -164.2035
  21   2.0000      -6.034300      -164.2016
  22   2.0000      -6.030196      -164.0900
  23   2.0000      -6.026493      -163.9892
  24   2.0000      -1.007569       -27.4174
  25   2.0000      -0.988546       -26.8997
  26   2.0000      -0.913296       -24.8521
  27   2.0000      -0.905634       -24.6435
  28   2.0000      -0.865450       -23.5501
  29   2.0000      -0.853736       -23.2313
  30   2.0000      -0.845014       -22.9940
  31   2.0000      -0.815058       -22.1789
  32   2.0000      -0.778393       -21.1812
  33   2.0000      -0.768337       -20.9075
  34   2.0000      -0.702790       -19.1239
  35   2.0000      -0.694853       -18.9079
  36   2.0000      -0.689881       -18.7726
  37   2.0000      -0.665064       -18.0973
  38   2.0000      -0.644855       -17.5474
  39   2.0000      -0.617324       -16.7982
  40   2.0000      -0.596688       -16.2367
  41   2.0000      -0.570423       -15.5220
  42   2.0000      -0.567713       -15.4483
  43   2.0000      -0.544261       -14.8101
  44   2.0000      -0.533734       -14.5236
  45   2.0000      -0.523994       -14.2586
  46   2.0000      -0.517985       -14.0951
  47   2.0000      -0.512593       -13.9484
  48   2.0000      -0.505855       -13.7650
  49   2.0000      -0.502062       -13.6618
  50   2.0000      -0.491445       -13.3729
  51   2.0000      -0.482376       -13.1261
  52   2.0000      -0.472419       -12.8552
  53   2.0000      -0.465404       -12.6643
  54   2.0000      -0.451622       -12.2893
  55   2.0000      -0.448541       -12.2054
  56   2.0000      -0.444807       -12.1038
  57   2.0000      -0.441865       -12.0237
  58   2.0000      -0.438506       -11.9324
  59   2.0000      -0.425360       -11.5746
  60   2.0000      -0.417141       -11.3510
  61   2.0000      -0.408922       -11.1273
  62   2.0000      -0.390773       -10.6335
  63   2.0000      -0.356587        -9.7032
  64   2.0000      -0.335500        -9.1294
  65   2.0000      -0.326189        -8.8760
  66   2.0000      -0.286563        -7.7978
  67   0.0000       0.026567         0.7229
  68   0.0000       0.075420         2.0523
  69   0.0000       0.103952         2.8287
  70   0.0000       0.115439         3.1413
  71   0.0000       0.123666         3.3651

MULLIKEN ATOMIC CHARGES
-----------------------
   0 S :    0.115258
   1 C :   -0.143727
   2 C :   -0.019565
   3 C :   -0.010472
   4 C :   -0.126393
   5 H :    0.038031
   6 C :   -0.036693
   7 H :    0.032820
   8 H :    0.034069
   9 C :   -0.025871
  10 H :    0.054330
  11 H :    0.023427
  12 C :   -0.087222
  13 H :    0.033320
  14 H :    0.035782
  15 H :    0.024378
  16 S :    0.077296
  17 C :   -0.083390
  18 C :   -0.010298
  19 C :   -0.078103
  20 C :   -0.120519
  21 H :    0.006330
  22 C :    0.028970
  23 H :    0.010825
  24 H :    0.038850
  25 C :   -0.064418
  26 H :    0.021193
  27 H :    0.038459
  28 C :   -0.039553
  29 H :    0.024989
  30 H :    0.042639
  31 H :    0.040791
  32 H :    0.067840
  33 H :    0.056630
Sum of atomic charges:   -0.0000000

LOEWDIN ATOMIC CHARGES
----------------------
   0 S :    0.423881
   1 C :   -0.214723
   2 C :   -0.076468
   3 C :   -0.064312
   4 C :   -0.177542
   5 H :    0.042279
   6 C :   -0.037444
   7 H :    0.029949
   8 H :    0.031067
   9 C :   -0.039391
  10 H :    0.036933
  11 H :    0.023780
  12 C :   -0.073125
  13 H :    0.024342
  14 H :    0.024653
  15 H :    0.020711
  16 S :    0.396467
  17 C :   -0.179412
  18 C :   -0.074635
  19 C :   -0.060294
  20 C :   -0.191975
  21 H :    0.023255
  22 C :   -0.044124
  23 H :    0.026999
  24 H :    0.036796
  25 C :   -0.038097
  26 H :    0.022414
  27 H :    0.027510
  28 C :   -0.065771
  29 H :    0.021331
  30 H :    0.029376
  31 H :    0.032614
  32 H :    0.033214
  33 H :    0.029741

  Mayer bond orders larger than 0.100000
B(  0-S ,  1-C ) :   1.1655 B(  0-S ,  4-C ) :   1.1726 B(  1-C ,  2-C ) :   1.5645
B(  1-C ,  4-C ) :   0.1040 B(  1-C , 32-H ) :   0.9732 B(  2-C ,  3-C ) :   1.2331
B(  2-C ,  6-C ) :   1.0434 B(  3-C ,  4-C ) :   1.5604 B(  3-C ,  5-H ) :   0.9940
B(  4-C , 20-C ) :   1.0094 B(  6-C ,  7-H ) :   0.9462 B(  6-C ,  8-H ) :   0.9535
B(  6-C ,  9-C ) :   1.0445 B(  9-C , 10-H ) :   0.9569 B(  9-C , 11-H ) :   0.9510
B(  9-C , 12-C ) :   1.0771 B( 12-C , 13-H ) :   0.9706 B( 12-C , 14-H ) :   0.9723
B( 12-C , 15-H ) :   0.9693 B( 16-S , 17-C ) :   1.1493 B( 16-S , 20-C ) :   1.1386
B( 17-C , 18-C ) :   1.6370 B( 17-C , 33-H ) :   0.9681 B( 18-C , 19-C ) :   1.2189
B( 18-C , 21-H ) :   0.9869 B( 19-C , 20-C ) :   1.6191 B( 19-C , 22-C ) :   1.0563
B( 22-C , 23-H ) :   0.9361 B( 22-C , 24-H ) :   0.9289 B( 22-C , 25-C ) :   1.0514
B( 25-C , 26-H ) :   0.9520 B( 25-C , 27-H ) :   0.9552 B( 25-C , 28-C ) :   1.0730
B( 28-C , 29-H ) :   0.9749 B( 28-C , 30-H ) :   0.9752 B( 28-C , 31-H ) :   0.9740

Dispersion correction           -0.015670092
FINAL SINGLE POINT ENERGY     -1339.858704475342

DIPOLE MOMENT
-------------
                                X             Y             Z
Electronic contribution:     -8.29176      30.81544       3.05337
Nuclear contribution   :      8.56931     -31.42406      -2.94928
                        -----------------------------------------
Total Dipole Moment    :      0.27755      -0.60862       0.10409
                        -----------------------------------------
Magnitude (a.u.)       :      0.67697
Magnitude (Debye)      :      1.72073

Rotational constants in cm-1:     0.016413     0.011482     0.007115
Rotational constants in MHz :   492.052633   344.208210   213.315837

                             ****ORCA TERMINATED NORMALLY****
TOTAL RUN TIME: 0 days 0 hours 0 minutes 22 seconds 782 msec
