                         Program Version 4.2.1 -  RELEASE  -
|  1> ! wB97X-D3 SP def2-SVP
|  2> %pal
|  3> nprocs 24
|  4> end
|  5>
|  6> * xyz 0 1
|  7> S 	 -139.306 	 8.40058 	 -7.52025
|  8> C 	 -138.436 	 8.77361 	 -8.96227
|  9> C 	 -137.111 	 8.54787 	 -8.766
| 10> C 	 -136.796 	 8.0135 	 -7.49702
| 11> C 	 -137.912 	 7.8468 	 -6.69322
| 12> H 	 -135.788 	 7.76145 	 -7.20697
| 13> C 	 -136.082 	 8.818 	 -9.93905
| 14> H 	 -136.608 	 9.31737 	 -10.7511
| 15> H 	 -135.753 	 7.90505 	 -10.3433
| 16> C 	 -134.858 	 9.7048 	 -9.70403
| 17> H 	 -135.222 	 10.7222 	 -9.51772
| 18> H 	 -134.364 	 9.34021 	 -8.75461
| 19> C 	 -133.993 	 9.63688 	 -10.9009
| 20> H 	 -133.103 	 10.2968 	 -10.7749
| 21> H 	 -133.476 	 8.62569 	 -10.9902
| 22> H 	 -134.555 	 9.87631 	 -11.7955
| 23> S 	 -138.9 	 5.76337 	 -5.14705
| 24> C 	 -138.551 	 5.80544 	 -3.50541
| 25> C 	 -137.765 	 6.88389 	 -3.07499
| 26> C 	 -137.607 	 7.82986 	 -4.09914
| 27> C 	 -138.062 	 7.34923 	 -5.37611
| 28> H 	 -137.417 	 6.86118 	 -2.06482
| 29> C 	 -136.885 	 9.16544 	 -3.8176
| 30> H 	 -136.158 	 9.32328 	 -4.62142
| 31> H 	 -136.215 	 9.00705 	 -2.92357
| 32> C 	 -137.839 	 10.3474 	 -3.47367
| 33> H 	 -138.484 	 9.93541 	 -2.67142
| 34> H 	 -138.455 	 10.5872 	 -4.35125
| 35> C 	 -137.126 	 11.5377 	 -2.88253
| 36> H 	 -137.605 	 12.475 	 -3.17108
| 37> H 	 -136.138 	 11.5579 	 -3.32958
| 38> H 	 -137.069 	 11.535 	 -1.83205
| 39> H 	 -138.934 	 9.05034 	 -9.96458
| 40> H 	 -138.859 	 4.99251 	 -2.81756
| 41> *
| 42>
| 43>                          ****END OF INPUT****

CARTESIAN COORDINATES (ANGSTROEM)
---------------------------------
  S    -139.306000    8.400580   -7.520250
  C    -138.436000    8.773610   -8.962270
  C    -137.111000    8.547870   -8.766000
  C    -136.796000    8.013500   -7.497020
  C    -137.912000    7.846800   -6.693220
  H    -135.788000    7.761450   -7.206970
  C    -136.082000    8.818000   -9.939050
  H    -136.608000    9.317370  -10.751100
  H    -135.753000    7.905050  -10.343300
  C    -134.858000    9.704800   -9.704030
  H    -135.222000   10.722200   -9.517720
  H    -134.364000    9.340210   -8.754610
  C    -133.993000    9.636880  -10.900900
  H    -133.103000   10.296800  -10.774900
  H    -133.476000    8.625690  -10.990200
  H    -134.555000    9.876310  -11.795500
  S    -138.900000    5.763370   -5.147050
  C    -138.551000    5.805440   -3.505410
  C    -137.765000    6.883890   -3.074990
  C    -137.607000    7.829860   -4.099140
  C    -138.062000    7.349230   -5.376110
  H    -137.417000    6.861180   -2.064820
  C    -136.885000    9.165440   -3.817600
  H    -136.158000    9.323280   -4.621420
  H    -136.215000    9.007050   -2.923570
  C    -137.839000   10.347400   -3.473670
  H    -138.484000    9.935410   -2.671420
  H    -138.455000   10.587200   -4.351250
  C    -137.126000   11.537700   -2.882530
  H    -137.605000   12.475000   -3.171080
  H    -136.138000   11.557900   -3.329580
  H    -137.069000   11.535000   -1.832050
  H    -138.934000    9.050340   -9.964580
  H    -138.859000    4.992510   -2.817560

 Total Charge           Charge          ....    0
 Multiplicity           Mult            ....    1
 Number of Electrons    NEL             ....  134
 Basis Dimension        Dim             ....  322

ORBITAL ENERGIES
----------------

  NO   OCC          E(Eh)            E(eV)
   0   2.0000     -88.968175     -2420.9471
   1   2.0000     -88.960804     -2420.7465
   2   2.0000     -10.326601      -281.0011
   3   2.0000     -10.322549      -280.8908
   4   2.0000     -10.315847      -280.7085
   5   2.0000     -10.313480      -280.6440
   6   2.0000     -10.310086      -280.5517
   7   2.0000     -10.297942      -280.2213
   8   2.0000     -10.295979      -280.1678
   9   2.0000     -10.293022      -280.0874
  10   2.0000     -10.290111      -280.0082
  11   2.0000     -10.287156      -279.9278
  12   2.0000     -10.286601      -279.9127
  13   2.0000     -10.285161      -279.8735
  14   2.0000     -10.283641      -279.8321
  15   2.0000     -10.269748      -279.4541
  16   2.0000      -8.083278      -219.9572
  17   2.0000      -8.076916      -219.7841
  18   2.0000      -6.041426      -164.3956
  19   2.0000      -6.037690      -164.2939
  20   2.0000      -6.035260      -164.2278
  21   2.0000      -6.034432      -164.2052
  22   2.0000      -6.031058      -164.1134
  23   2.0000      -6.027922      -164.0281
  24   2.0000      -1.010637       -27.5008
  25   2.0000      -0.986011       -26.8307
  26   2.0000      -0.915231       -24.9047
  27   2.0000      -0.905367       -24.6363
  28   2.0000      -0.873739       -23.7757
  29   2.0000      -0.855677       -23.2841
  30   2.0000      -0.845466       -23.0063
  31   2.0000      -0.809265       -22.0212
  32   2.0000      -0.783472       -21.3194
  33   2.0000      -0.765898       -20.8411
  34   2.0000      -0.706683       -19.2298
  35   2.0000      -0.691953       -18.8290
  36   2.0000      -0.684643       -18.6301
  37   2.0000      -0.655431       -17.8352
  38   2.0000      -0.639558       -17.4033
  39   2.0000      -0.623890       -16.9769
  40   2.0000      -0.593680       -16.1549
  41   2.0000      -0.571977       -15.5643
  42   2.0000      -0.568187       -15.4612
  43   2.0000      -0.560192       -15.2436
  44   2.0000      -0.526066       -14.3150
  45   2.0000      -0.520969       -14.1763
  46   2.0000      -0.515204       -14.0194
  47   2.0000      -0.512484       -13.9454
  48   2.0000      -0.500822       -13.6280
  49   2.0000      -0.496664       -13.5149
  50   2.0000      -0.494154       -13.4466
  51   2.0000      -0.482288       -13.1237
  52   2.0000      -0.471006       -12.8167
  53   2.0000      -0.465364       -12.6632
  54   2.0000      -0.461058       -12.5460
  55   2.0000      -0.452225       -12.3057
  56   2.0000      -0.449381       -12.2283
  57   2.0000      -0.429772       -11.6947
  58   2.0000      -0.425909       -11.5896
  59   2.0000      -0.423511       -11.5243
  60   2.0000      -0.418988       -11.4013
  61   2.0000      -0.412860       -11.2345
  62   2.0000      -0.410865       -11.1802
  63   2.0000      -0.337678        -9.1887
  64   2.0000      -0.331459        -9.0195
  65   2.0000      -0.326788        -8.8924
  66   2.0000      -0.296922        -8.0797
  67   0.0000       0.033990         0.9249
  68   0.0000       0.061648         1.6775
  69   0.0000       0.117182         3.1887
  70   0.0000       0.129144         3.5142
  71   0.0000       0.133766         3.6400

MULLIKEN ATOMIC CHARGES
-----------------------
   0 S :    0.117377
   1 C :   -0.163431
   2 C :   -0.073088
   3 C :    0.064626
   4 C :   -0.181093
   5 H :    0.003794
   6 C :    0.060825
   7 H :    0.003968
   8 H :    0.017614
   9 C :   -0.082070
  10 H :    0.033427
  11 H :    0.031168
  12 C :   -0.058950
  13 H :    0.037511
  14 H :    0.038014
  15 H :    0.036413
  16 S :    0.134899
  17 C :   -0.108096
  18 C :   -0.046674
  19 C :    0.005133
  20 C :   -0.190515
  21 H :    0.014861
  22 C :    0.038750
  23 H :    0.027886
  24 H :    0.020406
  25 C :   -0.076659
  26 H :    0.030962
  27 H :    0.044450
  28 C :   -0.012420
  29 H :    0.029499
  30 H :    0.024731
  31 H :    0.028027
  32 H :    0.081277
  33 H :    0.067379
Sum of atomic charges:   -0.0000000

LOEWDIN ATOMIC CHARGES
----------------------
   0 S :    0.434032
   1 C :   -0.219923
   2 C :   -0.070451
   3 C :   -0.059406
   4 C :   -0.214790
   5 H :    0.029778
   6 C :   -0.025272
   7 H :    0.024653
   8 H :    0.019659
   9 C :   -0.048354
  10 H :    0.025309
  11 H :    0.025321
  12 C :   -0.069913
  13 H :    0.030725
  14 H :    0.033571
  15 H :    0.025192
  16 S :    0.428738
  17 C :   -0.206579
  18 C :   -0.080968
  19 C :   -0.037554
  20 C :   -0.208698
  21 H :    0.030630
  22 C :   -0.035480
  23 H :    0.026786
  24 H :    0.032067
  25 C :   -0.041046
  26 H :    0.029020
  27 H :    0.028155
  28 C :   -0.062808
  29 H :    0.030223
  30 H :    0.025561
  31 H :    0.019819
  32 H :    0.048461
  33 H :    0.033543

  Mayer bond orders larger than 0.100000
B(  0-S ,  1-C ) :   1.1485 B(  0-S ,  4-C ) :   1.1836 B(  1-C ,  2-C ) :   1.6069
B(  1-C , 32-H ) :   0.9559 B(  2-C ,  3-C ) :   1.2710 B(  2-C ,  6-C ) :   0.9969
B(  3-C ,  4-C ) :   1.5387 B(  3-C ,  5-H ) :   1.0052 B(  4-C , 20-C ) :   1.0540
B(  6-C ,  7-H ) :   0.9458 B(  6-C ,  8-H ) :   0.9464 B(  6-C ,  9-C ) :   1.0579
B(  9-C , 10-H ) :   0.9538 B(  9-C , 11-H ) :   0.9534 B(  9-C , 12-C ) :   1.0918
B( 12-C , 13-H ) :   0.9699 B( 12-C , 14-H ) :   0.9703 B( 12-C , 15-H ) :   0.9709
B( 16-S , 17-C ) :   1.2060 B( 16-S , 20-C ) :   1.1439 B( 17-C , 18-C ) :   1.5649
B( 17-C , 20-C ) :   0.1163 B( 17-C , 33-H ) :   0.9583 B( 18-C , 19-C ) :   1.2765
B( 18-C , 21-H ) :   0.9959 B( 19-C , 20-C ) :   1.5344 B( 19-C , 22-C ) :   1.0357
B( 22-C , 23-H ) :   0.9293 B( 22-C , 24-H ) :   0.9440 B( 22-C , 25-C ) :   1.0572
B( 25-C , 26-H ) :   0.9588 B( 25-C , 27-H ) :   0.9588 B( 25-C , 28-C ) :   1.0785
B( 28-C , 29-H ) :   0.9725 B( 28-C , 30-H ) :   0.9740 B( 28-C , 31-H ) :   0.9761

Dispersion correction           -0.013425099
FINAL SINGLE POINT ENERGY     -1339.877511049235

DIPOLE MOMENT
-------------
                                X             Y             Z
Electronic contribution:    -19.78718     -19.05294       3.41341
Nuclear contribution   :     20.27821      19.25008      -3.35692
                        -----------------------------------------
Total Dipole Moment    :      0.49103       0.19714       0.05649
                        -----------------------------------------
Magnitude (a.u.)       :      0.53214
Magnitude (Debye)      :      1.35258

Rotational constants in cm-1:     0.017581     0.007902     0.006512
Rotational constants in MHz :   527.056218   236.909311   195.211499

                             ****ORCA TERMINATED NORMALLY****
TOTAL RUN TIME: 0 days 0 hours 0 minutes 20 seconds 927 msec
