                         Program Version 4.2.1 -  RELEASE  -
|  1> ! wB97X-D3 SP def2-SVP
|  2> %pal
|  3> nprocs 24
|  4> end
|  5>
|  6> * xyz 0 1
|  7> S 	 -94.7719 	 44.6885 	 -84.3671
|  8> C 	 -94.4847 	 42.9732 	 -84.6227
|  9> C 	 -95.4881 	 42.3433 	 -85.3768
| 10> C 	 -96.4148 	 43.3288 	 -85.8348
| 11> C 	 -96.0647 	 44.6541 	 -85.5601
| 12> H 	 -97.3083 	 43.2721 	 -86.4566
| 13> C 	 -95.4984 	 40.8827 	 -85.7552
| 14> H 	 -96.4691 	 40.6349 	 -86.1625
| 15> H 	 -95.3444 	 40.336 	 -84.8463
| 16> C 	 -94.463 	 40.4677 	 -86.7937
| 17> H 	 -94.5262 	 41.0771 	 -87.6916
| 18> H 	 -93.4622 	 40.6997 	 -86.4049
| 19> C 	 -94.509 	 38.9655 	 -87.2004
| 20> H 	 -95.5366 	 38.7071 	 -87.6469
| 21> H 	 -93.748 	 38.7444 	 -87.9645
| 22> H 	 -94.3286 	 38.317 	 -86.426
| 23> S 	 -97.1734 	 46.9839 	 -84.5037
| 24> C 	 -98.1775 	 48.0576 	 -85.543
| 25> C 	 -98.1914 	 47.5369 	 -86.8502
| 26> C 	 -97.6249 	 46.2362 	 -86.9119
| 27> C 	 -96.886 	 45.8312 	 -85.7968
| 28> H 	 -98.5416 	 48.0672 	 -87.7536
| 29> C 	 -97.6045 	 45.5476 	 -88.2493
| 30> H 	 -96.926 	 44.7026 	 -88.2312
| 31> H 	 -97.2939 	 46.2387 	 -88.9886
| 32> C 	 -98.9536 	 44.8891 	 -88.6551
| 33> H 	 -99.3472 	 44.3636 	 -87.7794
| 34> H 	 -98.6569 	 44.1397 	 -89.4484
| 35> C 	 -99.9358 	 45.8868 	 -89.3413
| 36> H 	 -100.803 	 45.4706 	 -89.7906
| 37> H 	 -99.4789 	 46.3875 	 -90.1412
| 38> H 	 -100.245 	 46.7217 	 -88.6877
| 39> H 	 -93.6552 	 42.3497 	 -84.2239
| 40> H 	 -98.4525 	 49.0399 	 -85.1929
| 41> *
| 42>
| 43>                          ****END OF INPUT****

CARTESIAN COORDINATES (ANGSTROEM)
---------------------------------
  S    -94.771900   44.688500  -84.367100
  C    -94.484700   42.973200  -84.622700
  C    -95.488100   42.343300  -85.376800
  C    -96.414800   43.328800  -85.834800
  C    -96.064700   44.654100  -85.560100
  H    -97.308300   43.272100  -86.456600
  C    -95.498400   40.882700  -85.755200
  H    -96.469100   40.634900  -86.162500
  H    -95.344400   40.336000  -84.846300
  C    -94.463000   40.467700  -86.793700
  H    -94.526200   41.077100  -87.691600
  H    -93.462200   40.699700  -86.404900
  C    -94.509000   38.965500  -87.200400
  H    -95.536600   38.707100  -87.646900
  H    -93.748000   38.744400  -87.964500
  H    -94.328600   38.317000  -86.426000
  S    -97.173400   46.983900  -84.503700
  C    -98.177500   48.057600  -85.543000
  C    -98.191400   47.536900  -86.850200
  C    -97.624900   46.236200  -86.911900
  C    -96.886000   45.831200  -85.796800
  H    -98.541600   48.067200  -87.753600
  C    -97.604500   45.547600  -88.249300
  H    -96.926000   44.702600  -88.231200
  H    -97.293900   46.238700  -88.988600
  C    -98.953600   44.889100  -88.655100
  H    -99.347200   44.363600  -87.779400
  H    -98.656900   44.139700  -89.448400
  C    -99.935800   45.886800  -89.341300
  H    -100.803000   45.470600  -89.790600
  H    -99.478900   46.387500  -90.141200
  H    -100.245000   46.721700  -88.687700
  H    -93.655200   42.349700  -84.223900
  H    -98.452500   49.039900  -85.192900

 Total Charge           Charge          ....    0
 Multiplicity           Mult            ....    1
 Number of Electrons    NEL             ....  134
 Basis Dimension        Dim             ....  322

ORBITAL ENERGIES
----------------

  NO   OCC          E(Eh)            E(eV)
   0   2.0000     -88.972093     -2421.0537
   1   2.0000     -88.964515     -2420.8475
   2   2.0000     -10.332142      -281.1519
   3   2.0000     -10.330511      -281.1075
   4   2.0000     -10.325346      -280.9669
   5   2.0000     -10.321547      -280.8636
   6   2.0000     -10.307542      -280.4825
   7   2.0000     -10.301895      -280.3288
   8   2.0000     -10.299528      -280.2644
   9   2.0000     -10.299482      -280.2631
  10   2.0000     -10.294462      -280.1265
  11   2.0000     -10.292704      -280.0787
  12   2.0000     -10.290198      -280.0105
  13   2.0000     -10.283844      -279.8376
  14   2.0000     -10.282932      -279.8128
  15   2.0000     -10.273341      -279.5518
  16   2.0000      -8.086185      -220.0363
  17   2.0000      -8.078497      -219.8271
  18   2.0000      -6.044713      -164.4850
  19   2.0000      -6.040862      -164.3802
  20   2.0000      -6.037130      -164.2787
  21   2.0000      -6.036890      -164.2721
  22   2.0000      -6.033041      -164.1674
  23   2.0000      -6.029226      -164.0636
  24   2.0000      -1.004757       -27.3408
  25   2.0000      -0.980321       -26.6759
  26   2.0000      -0.914826       -24.8937
  27   2.0000      -0.905977       -24.6529
  28   2.0000      -0.868186       -23.6246
  29   2.0000      -0.851130       -23.1604
  30   2.0000      -0.842462       -22.9246
  31   2.0000      -0.813921       -22.1479
  32   2.0000      -0.785851       -21.3841
  33   2.0000      -0.773846       -21.0574
  34   2.0000      -0.706653       -19.2290
  35   2.0000      -0.706034       -19.2122
  36   2.0000      -0.692572       -18.8458
  37   2.0000      -0.667410       -18.1611
  38   2.0000      -0.641771       -17.4635
  39   2.0000      -0.613296       -16.6886
  40   2.0000      -0.596795       -16.2396
  41   2.0000      -0.574039       -15.6204
  42   2.0000      -0.560750       -15.2588
  43   2.0000      -0.550880       -14.9902
  44   2.0000      -0.538981       -14.6664
  45   2.0000      -0.524964       -14.2850
  46   2.0000      -0.518200       -14.1009
  47   2.0000      -0.509146       -13.8546
  48   2.0000      -0.503679       -13.7058
  49   2.0000      -0.500822       -13.6280
  50   2.0000      -0.497519       -13.5382
  51   2.0000      -0.478919       -13.0320
  52   2.0000      -0.473270       -12.8783
  53   2.0000      -0.467344       -12.7171
  54   2.0000      -0.460196       -12.5226
  55   2.0000      -0.445713       -12.1285
  56   2.0000      -0.445094       -12.1116
  57   2.0000      -0.441938       -12.0257
  58   2.0000      -0.434581       -11.8256
  59   2.0000      -0.431705       -11.7473
  60   2.0000      -0.422198       -11.4886
  61   2.0000      -0.417020       -11.3477
  62   2.0000      -0.410531       -11.1711
  63   2.0000      -0.353238        -9.6121
  64   2.0000      -0.334226        -9.0948
  65   2.0000      -0.328136        -8.9290
  66   2.0000      -0.284446        -7.7402
  67   0.0000       0.018391         0.5004
  68   0.0000       0.065627         1.7858
  69   0.0000       0.103578         2.8185
  70   0.0000       0.114427         3.1137
  71   0.0000       0.132644         3.6094

MULLIKEN ATOMIC CHARGES
-----------------------
   0 S :    0.113739
   1 C :   -0.124061
   2 C :   -0.084727
   3 C :    0.018704
   4 C :   -0.151731
   5 H :    0.008765
   6 C :    0.107258
   7 H :    0.014176
   8 H :    0.025135
   9 C :   -0.078415
  10 H :    0.029340
  11 H :    0.018743
  12 C :   -0.042424
  13 H :    0.037037
  14 H :    0.039327
  15 H :    0.016965
  16 S :    0.080600
  17 C :   -0.100611
  18 C :   -0.021546
  19 C :   -0.065363
  20 C :   -0.116499
  21 H :    0.041535
  22 C :    0.045167
  23 H :    0.016422
  24 H :    0.019926
  25 C :   -0.090972
  26 H :    0.043492
  27 H :    0.038561
  28 C :   -0.023920
  29 H :    0.027481
  30 H :    0.004157
  31 H :    0.030703
  32 H :    0.058802
  33 H :    0.064232
Sum of atomic charges:   -0.0000000

LOEWDIN ATOMIC CHARGES
----------------------
   0 S :    0.404967
   1 C :   -0.197852
   2 C :   -0.060385
   3 C :   -0.058787
   4 C :   -0.190452
   5 H :    0.031278
   6 C :   -0.028075
   7 H :    0.029088
   8 H :    0.030704
   9 C :   -0.038197
  10 H :    0.025102
  11 H :    0.021214
  12 C :   -0.062685
  13 H :    0.032559
  14 H :    0.031293
  15 H :    0.010321
  16 S :    0.379874
  17 C :   -0.171173
  18 C :   -0.065142
  19 C :   -0.066645
  20 C :   -0.194505
  21 H :    0.038541
  22 C :   -0.029743
  23 H :    0.026054
  24 H :    0.024483
  25 C :   -0.035477
  26 H :    0.023570
  27 H :    0.030544
  28 C :   -0.069181
  29 H :    0.022441
  30 H :    0.016999
  31 H :    0.026736
  32 H :    0.035982
  33 H :    0.026551

  Mayer bond orders larger than 0.100000
B(  0-S ,  1-C ) :   1.1494 B(  0-S ,  4-C ) :   1.1382 B(  1-C ,  2-C ) :   1.5911
B(  1-C ,  4-C ) :   0.1010 B(  1-C , 32-H ) :   0.9617 B(  2-C ,  3-C ) :   1.2458
B(  2-C ,  6-C ) :   1.0298 B(  3-C ,  4-C ) :   1.5538 B(  3-C ,  5-H ) :   0.9895
B(  4-C , 20-C ) :   1.0683 B(  6-C ,  7-H ) :   0.9394 B(  6-C ,  8-H ) :   0.9301
B(  6-C ,  9-C ) :   1.0680 B(  9-C , 10-H ) :   0.9561 B(  9-C , 11-H ) :   0.9533
B(  9-C , 12-C ) :   1.0821 B( 12-C , 13-H ) :   0.9746 B( 12-C , 14-H ) :   0.9745
B( 12-C , 15-H ) :   0.9765 B( 16-S , 17-C ) :   1.1488 B( 16-S , 20-C ) :   1.1293
B( 17-C , 18-C ) :   1.5731 B( 17-C , 20-C ) :   0.1047 B( 17-C , 33-H ) :   0.9711
B( 18-C , 19-C ) :   1.2630 B( 18-C , 21-H ) :   0.9758 B( 19-C , 20-C ) :   1.5797
B( 19-C , 22-C ) :   1.0600 B( 22-C , 23-H ) :   0.9350 B( 22-C , 24-H ) :   0.9412
B( 22-C , 25-C ) :   1.0569 B( 25-C , 26-H ) :   0.9545 B( 25-C , 27-H ) :   0.9607
B( 25-C , 28-C ) :   1.0731 B( 28-C , 29-H ) :   0.9733 B( 28-C , 30-H ) :   0.9717
B( 28-C , 31-H ) :   0.9719

Dispersion correction           -0.013960652
FINAL SINGLE POINT ENERGY     -1339.874233410970

DIPOLE MOMENT
-------------
                                X             Y             Z
Electronic contribution:      5.79300      19.97717      21.90262
Nuclear contribution   :     -5.84276     -20.39195     -22.46780
                        -----------------------------------------
Total Dipole Moment    :     -0.04976      -0.41478      -0.56517
                        -----------------------------------------
Magnitude (a.u.)       :      0.70281
Magnitude (Debye)      :      1.78639

Rotational constants in cm-1:     0.019166     0.008168     0.005943
Rotational constants in MHz :   574.588805   244.873056   178.181379

                             ****ORCA TERMINATED NORMALLY****
TOTAL RUN TIME: 0 days 0 hours 0 minutes 21 seconds 316 msec
