                         Program Version 4.2.1 -  RELEASE  -
|  1> ! wB97X-D3 SP def2-SVP
|  2> %pal
|  3> nprocs 24
|  4> end
|  5>
|  6> * xyz 0 1
|  7> S 	 1.95152 	 -21.941 	 -114.267
|  8> C 	 2.49446 	 -20.3192 	 -113.902
|  9> C 	 1.47321 	 -19.535 	 -113.409
| 10> C 	 0.231664 	 -20.2158 	 -113.335
| 11> C 	 0.337457 	 -21.565 	 -113.581
| 12> H 	 -0.698377 	 -19.7306 	 -113.069
| 13> C 	 1.6433 	 -17.9967 	 -113.202
| 14> H 	 2.62637 	 -17.92 	 -112.715
| 15> H 	 0.990011 	 -17.6298 	 -112.409
| 16> C 	 1.73433 	 -17.1928 	 -114.513
| 17> H 	 0.779113 	 -17.1728 	 -115.117
| 18> H 	 1.70739 	 -16.1371 	 -114.301
| 19> C 	 2.87351 	 -17.5159 	 -115.541
| 20> H 	 2.61864 	 -18.3836 	 -116.113
| 21> H 	 2.93136 	 -16.6639 	 -116.304
| 22> H 	 3.88124 	 -17.5064 	 -115.153
| 23> S 	 -0.482958 	 -23.66 	 -112.029
| 24> C 	 -2.11335 	 -24.271 	 -112.105
| 25> C 	 -2.87804 	 -23.5402 	 -113.036
| 26> C 	 -2.13365 	 -22.4485 	 -113.598
| 27> C 	 -0.755729 	 -22.4458 	 -113.311
| 28> H 	 -3.95788 	 -23.9158 	 -113.072
| 29> C 	 -2.86893 	 -21.3281 	 -114.312
| 30> H 	 -2.21435 	 -20.9308 	 -115.136
| 31> H 	 -3.0915 	 -20.5132 	 -113.667
| 32> C 	 -4.20899 	 -21.6469 	 -114.901
| 33> H 	 -4.62888 	 -20.651 	 -115.161
| 34> H 	 -4.8707 	 -22.1231 	 -114.165
| 35> C 	 -4.03566 	 -22.55 	 -116.103
| 36> H 	 -3.80864 	 -23.5388 	 -115.819
| 37> H 	 -3.25922 	 -22.2165 	 -116.757
| 38> H 	 -4.9597 	 -22.6877 	 -116.684
| 39> H 	 3.515 	 -19.9108 	 -113.972
| 40> H 	 -2.53514 	 -25.0533 	 -111.452
| 41> *
| 42>
| 43>                          ****END OF INPUT****

CARTESIAN COORDINATES (ANGSTROEM)
---------------------------------
  S      1.951520  -21.941000  -114.267000
  C      2.494460  -20.319200  -113.902000
  C      1.473210  -19.535000  -113.409000
  C      0.231664  -20.215800  -113.335000
  C      0.337457  -21.565000  -113.581000
  H     -0.698377  -19.730600  -113.069000
  C      1.643300  -17.996700  -113.202000
  H      2.626370  -17.920000  -112.715000
  H      0.990011  -17.629800  -112.409000
  C      1.734330  -17.192800  -114.513000
  H      0.779113  -17.172800  -115.117000
  H      1.707390  -16.137100  -114.301000
  C      2.873510  -17.515900  -115.541000
  H      2.618640  -18.383600  -116.113000
  H      2.931360  -16.663900  -116.304000
  H      3.881240  -17.506400  -115.153000
  S     -0.482958  -23.660000  -112.029000
  C     -2.113350  -24.271000  -112.105000
  C     -2.878040  -23.540200  -113.036000
  C     -2.133650  -22.448500  -113.598000
  C     -0.755729  -22.445800  -113.311000
  H     -3.957880  -23.915800  -113.072000
  C     -2.868930  -21.328100  -114.312000
  H     -2.214350  -20.930800  -115.136000
  H     -3.091500  -20.513200  -113.667000
  C     -4.208990  -21.646900  -114.901000
  H     -4.628880  -20.651000  -115.161000
  H     -4.870700  -22.123100  -114.165000
  C     -4.035660  -22.550000  -116.103000
  H     -3.808640  -23.538800  -115.819000
  H     -3.259220  -22.216500  -116.757000
  H     -4.959700  -22.687700  -116.684000
  H      3.515000  -19.910800  -113.972000
  H     -2.535140  -25.053300  -111.452000

 Total Charge           Charge          ....    0
 Multiplicity           Mult            ....    1
 Number of Electrons    NEL             ....  134
 Basis Dimension        Dim             ....  322

ORBITAL ENERGIES
----------------

  NO   OCC          E(Eh)            E(eV)
   0   2.0000     -88.971062     -2421.0257
   1   2.0000     -88.961834     -2420.7746
   2   2.0000     -10.329597      -281.0826
   3   2.0000     -10.328251      -281.0460
   4   2.0000     -10.320955      -280.8475
   5   2.0000     -10.315409      -280.6966
   6   2.0000     -10.310517      -280.5634
   7   2.0000     -10.302701      -280.3508
   8   2.0000     -10.299411      -280.2612
   9   2.0000     -10.298567      -280.2383
  10   2.0000     -10.294651      -280.1317
  11   2.0000     -10.292712      -280.0789
  12   2.0000     -10.287017      -279.9240
  13   2.0000     -10.285432      -279.8808
  14   2.0000     -10.284041      -279.8430
  15   2.0000     -10.266051      -279.3534
  16   2.0000      -8.084683      -219.9954
  17   2.0000      -8.076249      -219.7659
  18   2.0000      -6.043385      -164.4489
  19   2.0000      -6.039386      -164.3400
  20   2.0000      -6.035263      -164.2278
  21   2.0000      -6.034711      -164.2128
  22   2.0000      -6.030700      -164.1037
  23   2.0000      -6.027150      -164.0071
  24   2.0000      -1.002565       -27.2812
  25   2.0000      -0.979420       -26.6514
  26   2.0000      -0.916311       -24.9341
  27   2.0000      -0.903176       -24.5767
  28   2.0000      -0.869841       -23.6696
  29   2.0000      -0.846696       -23.0398
  30   2.0000      -0.840410       -22.8687
  31   2.0000      -0.810103       -22.0440
  32   2.0000      -0.785411       -21.3721
  33   2.0000      -0.775496       -21.1023
  34   2.0000      -0.711901       -19.3718
  35   2.0000      -0.698766       -19.0144
  36   2.0000      -0.692781       -18.8515
  37   2.0000      -0.648325       -17.6418
  38   2.0000      -0.635355       -17.2889
  39   2.0000      -0.619031       -16.8447
  40   2.0000      -0.598848       -16.2955
  41   2.0000      -0.568884       -15.4801
  42   2.0000      -0.560153       -15.2425
  43   2.0000      -0.545206       -14.8358
  44   2.0000      -0.540750       -14.7146
  45   2.0000      -0.526978       -14.3398
  46   2.0000      -0.520835       -14.1726
  47   2.0000      -0.510908       -13.9025
  48   2.0000      -0.504413       -13.7258
  49   2.0000      -0.494725       -13.4622
  50   2.0000      -0.488486       -13.2924
  51   2.0000      -0.479493       -13.0477
  52   2.0000      -0.470669       -12.8076
  53   2.0000      -0.461277       -12.5520
  54   2.0000      -0.453795       -12.3484
  55   2.0000      -0.448739       -12.2108
  56   2.0000      -0.439997       -11.9729
  57   2.0000      -0.436950       -11.8900
  58   2.0000      -0.431248       -11.7349
  59   2.0000      -0.425158       -11.5691
  60   2.0000      -0.423605       -11.5269
  61   2.0000      -0.410744       -11.1769
  62   2.0000      -0.407140       -11.0788
  63   2.0000      -0.344046        -9.3620
  64   2.0000      -0.329456        -8.9649
  65   2.0000      -0.324785        -8.8379
  66   2.0000      -0.291554        -7.9336
  67   0.0000       0.027383         0.7451
  68   0.0000       0.061128         1.6634
  69   0.0000       0.111105         3.0233
  70   0.0000       0.119677         3.2566
  71   0.0000       0.129412         3.5215

MULLIKEN ATOMIC CHARGES
-----------------------
   0 S :    0.129172
   1 C :   -0.124947
   2 C :   -0.102489
   3 C :    0.030866
   4 C :   -0.151679
   5 H :    0.013140
   6 C :    0.080930
   7 H :    0.021585
   8 H :    0.028149
   9 C :   -0.067497
  10 H :    0.024604
  11 H :    0.020521
  12 C :   -0.072311
  13 H :    0.053279
  14 H :    0.034604
  15 H :    0.032425
  16 S :    0.098722
  17 C :   -0.112557
  18 C :   -0.084777
  19 C :   -0.016891
  20 C :   -0.152749
  21 H :    0.056011
  22 C :    0.031793
  23 H :    0.037353
  24 H :    0.035533
  25 C :   -0.075781
  26 H :    0.029592
  27 H :    0.027607
  28 C :   -0.018037
  29 H :    0.017512
  30 H :    0.022712
  31 H :    0.027139
  32 H :    0.056670
  33 H :    0.069797
Sum of atomic charges:    0.0000000

LOEWDIN ATOMIC CHARGES
----------------------
   0 S :    0.395248
   1 C :   -0.198143
   2 C :   -0.068657
   3 C :   -0.048354
   4 C :   -0.194624
   5 H :    0.032503
   6 C :   -0.033786
   7 H :    0.033043
   8 H :    0.031718
   9 C :   -0.048771
  10 H :    0.030337
  11 H :    0.021757
  12 C :   -0.069630
  13 H :    0.025095
  14 H :    0.037431
  15 H :    0.019957
  16 S :    0.399918
  17 C :   -0.192690
  18 C :   -0.093914
  19 C :   -0.052410
  20 C :   -0.190474
  21 H :    0.049937
  22 C :   -0.037250
  23 H :    0.036782
  24 H :    0.027342
  25 C :   -0.042715
  26 H :    0.028753
  27 H :    0.022405
  28 C :   -0.062071
  29 H :    0.019816
  30 H :    0.022577
  31 H :    0.026775
  32 H :    0.036042
  33 H :    0.036049

  Mayer bond orders larger than 0.100000
B(  0-S ,  1-C ) :   1.1318 B(  0-S ,  4-C ) :   1.1257 B(  1-C ,  2-C ) :   1.6252
B(  1-C , 32-H ) :   0.9554 B(  2-C ,  3-C ) :   1.2572 B(  2-C ,  6-C ) :   1.0150
B(  3-C ,  4-C ) :   1.5551 B(  3-C ,  5-H ) :   0.9954 B(  4-C , 20-C ) :   1.0809
B(  6-C ,  7-H ) :   0.9390 B(  6-C ,  8-H ) :   0.9457 B(  6-C ,  9-C ) :   1.0581
B(  9-C , 10-H ) :   0.9537 B(  9-C , 11-H ) :   0.9566 B(  9-C , 12-C ) :   1.0769
B( 12-C , 13-H ) :   0.9727 B( 12-C , 14-H ) :   0.9697 B( 12-C , 15-H ) :   0.9761
B( 16-S , 17-C ) :   1.1779 B( 16-S , 20-C ) :   1.1303 B( 17-C , 18-C ) :   1.6006
B( 17-C , 20-C ) :   0.1083 B( 17-C , 33-H ) :   0.9603 B( 18-C , 19-C ) :   1.2310
B( 18-C , 21-H ) :   0.9769 B( 19-C , 20-C ) :   1.5813 B( 19-C , 22-C ) :   1.0341
B( 22-C , 23-H ) :   0.9333 B( 22-C , 24-H ) :   0.9296 B( 22-C , 25-C ) :   1.0968
B( 25-C , 26-H ) :   0.9519 B( 25-C , 27-H ) :   0.9402 B( 25-C , 28-C ) :   1.0861
B( 28-C , 29-H ) :   0.9713 B( 28-C , 30-H ) :   0.9729 B( 28-C , 31-H ) :   0.9726

Dispersion correction           -0.014494824
FINAL SINGLE POINT ENERGY     -1339.861800909076

DIPOLE MOMENT
-------------
                                X             Y             Z
Electronic contribution:      9.23113     -19.37900      12.54284
Nuclear contribution   :     -9.61744      20.03986     -12.54118
                        -----------------------------------------
Total Dipole Moment    :     -0.38631       0.66086       0.00166
                        -----------------------------------------
Magnitude (a.u.)       :      0.76549
Magnitude (Debye)      :      1.94573

Rotational constants in cm-1:     0.020794     0.007947     0.006533
Rotational constants in MHz :   623.393553   238.235057   195.841146

                             ****ORCA TERMINATED NORMALLY****
TOTAL RUN TIME: 0 days 0 hours 0 minutes 22 seconds 518 msec
