                         Program Version 4.2.1 -  RELEASE  -
|  1> ! wB97X-D3 SP def2-SVP
|  2> %pal
|  3> nprocs 24
|  4> end
|  5>
|  6> * xyz 0 1
|  7> S 	 -130.374 	 26.4303 	 -19.1378
|  8> C 	 -128.999 	 25.3764 	 -19.0199
|  9> C 	 -127.944 	 26.0347 	 -18.3969
| 10> C 	 -128.299 	 27.4136 	 -18.0967
| 11> C 	 -129.55 	 27.8027 	 -18.5599
| 12> H 	 -127.654 	 28.1462 	 -17.7187
| 13> C 	 -126.576 	 25.4046 	 -18.2885
| 14> H 	 -125.843 	 25.8727 	 -18.9433
| 15> H 	 -126.65 	 24.3123 	 -18.6358
| 16> C 	 -125.982 	 25.1877 	 -16.9063
| 17> H 	 -125.027 	 24.6759 	 -17.0004
| 18> H 	 -125.894 	 26.1559 	 -16.3614
| 19> C 	 -127.008 	 24.4063 	 -15.9977
| 20> H 	 -126.976 	 23.3532 	 -16.2273
| 21> H 	 -126.961 	 24.5849 	 -14.9351
| 22> H 	 -127.941 	 24.7834 	 -16.2388
| 23> S 	 -129.787 	 30.0859 	 -16.9471
| 24> C 	 -130.503 	 31.4898 	 -17.6909
| 25> C 	 -130.782 	 31.2597 	 -19.0301
| 26> C 	 -130.558 	 29.9512 	 -19.4758
| 27> C 	 -130.026 	 29.1832 	 -18.4887
| 28> H 	 -131.152 	 32.1549 	 -19.5133
| 29> C 	 -130.817 	 29.4652 	 -20.8558
| 30> H 	 -131.314 	 30.2584 	 -21.3786
| 31> H 	 -131.475 	 28.5275 	 -20.8753
| 32> C 	 -129.597 	 29.0859 	 -21.6339
| 33> H 	 -128.87 	 28.4507 	 -21.1433
| 34> H 	 -129.076 	 30.0138 	 -21.7136
| 35> C 	 -130.012 	 28.6703 	 -23.1121
| 36> H 	 -130.444 	 29.4857 	 -23.6617
| 37> H 	 -130.602 	 27.7986 	 -23.086
| 38> H 	 -129.054 	 28.3692 	 -23.6066
| 39> H 	 -129 	 24.3301 	 -19.3401
| 40> H 	 -130.646 	 32.3723 	 -17.1288
| 41> *
| 42>
| 43>                          ****END OF INPUT****

CARTESIAN COORDINATES (ANGSTROEM)
---------------------------------
  S    -130.374000   26.430300  -19.137800
  C    -128.999000   25.376400  -19.019900
  C    -127.944000   26.034700  -18.396900
  C    -128.299000   27.413600  -18.096700
  C    -129.550000   27.802700  -18.559900
  H    -127.654000   28.146200  -17.718700
  C    -126.576000   25.404600  -18.288500
  H    -125.843000   25.872700  -18.943300
  H    -126.650000   24.312300  -18.635800
  C    -125.982000   25.187700  -16.906300
  H    -125.027000   24.675900  -17.000400
  H    -125.894000   26.155900  -16.361400
  C    -127.008000   24.406300  -15.997700
  H    -126.976000   23.353200  -16.227300
  H    -126.961000   24.584900  -14.935100
  H    -127.941000   24.783400  -16.238800
  S    -129.787000   30.085900  -16.947100
  C    -130.503000   31.489800  -17.690900
  C    -130.782000   31.259700  -19.030100
  C    -130.558000   29.951200  -19.475800
  C    -130.026000   29.183200  -18.488700
  H    -131.152000   32.154900  -19.513300
  C    -130.817000   29.465200  -20.855800
  H    -131.314000   30.258400  -21.378600
  H    -131.475000   28.527500  -20.875300
  C    -129.597000   29.085900  -21.633900
  H    -128.870000   28.450700  -21.143300
  H    -129.076000   30.013800  -21.713600
  C    -130.012000   28.670300  -23.112100
  H    -130.444000   29.485700  -23.661700
  H    -130.602000   27.798600  -23.086000
  H    -129.054000   28.369200  -23.606600
  H    -129.000000   24.330100  -19.340100
  H    -130.646000   32.372300  -17.128800

 Total Charge           Charge          ....    0
 Multiplicity           Mult            ....    1
 Number of Electrons    NEL             ....  134
 Basis Dimension        Dim             ....  322

ORBITAL ENERGIES
----------------

  NO   OCC          E(Eh)            E(eV)
   0   2.0000     -88.967745     -2420.9354
   1   2.0000     -88.967003     -2420.9152
   2   2.0000     -10.328045      -281.0404
   3   2.0000     -10.327086      -281.0143
   4   2.0000     -10.316568      -280.7281
   5   2.0000     -10.316485      -280.7258
   6   2.0000     -10.306621      -280.4574
   7   2.0000     -10.299486      -280.2633
   8   2.0000     -10.296625      -280.1854
   9   2.0000     -10.294294      -280.1220
  10   2.0000     -10.291735      -280.0523
  11   2.0000     -10.288934      -279.9761
  12   2.0000     -10.288168      -279.9553
  13   2.0000     -10.277829      -279.6739
  14   2.0000     -10.276519      -279.6383
  15   2.0000     -10.264702      -279.3167
  16   2.0000      -8.083056      -219.9511
  17   2.0000      -8.081148      -219.8992
  18   2.0000      -6.041499      -164.3976
  19   2.0000      -6.039539      -164.3442
  20   2.0000      -6.037342      -164.2844
  21   2.0000      -6.035850      -164.2438
  22   2.0000      -6.033984      -164.1930
  23   2.0000      -6.031969      -164.1382
  24   2.0000      -1.011347       -27.5202
  25   2.0000      -0.988729       -26.9047
  26   2.0000      -0.915353       -24.9080
  27   2.0000      -0.911528       -24.8039
  28   2.0000      -0.869568       -23.6622
  29   2.0000      -0.852311       -23.1925
  30   2.0000      -0.842597       -22.9282
  31   2.0000      -0.811880       -22.0924
  32   2.0000      -0.783636       -21.3238
  33   2.0000      -0.775741       -21.1090
  34   2.0000      -0.712437       -19.3864
  35   2.0000      -0.698444       -19.0056
  36   2.0000      -0.688377       -18.7317
  37   2.0000      -0.669562       -18.2197
  38   2.0000      -0.640618       -17.4321
  39   2.0000      -0.618433       -16.8284
  40   2.0000      -0.599585       -16.3155
  41   2.0000      -0.573090       -15.5946
  42   2.0000      -0.568721       -15.4757
  43   2.0000      -0.553371       -15.0580
  44   2.0000      -0.545257       -14.8372
  45   2.0000      -0.524701       -14.2778
  46   2.0000      -0.516553       -14.0561
  47   2.0000      -0.513963       -13.9856
  48   2.0000      -0.504889       -13.7387
  49   2.0000      -0.492983       -13.4148
  50   2.0000      -0.490994       -13.3606
  51   2.0000      -0.481763       -13.1095
  52   2.0000      -0.469639       -12.7795
  53   2.0000      -0.466726       -12.7003
  54   2.0000      -0.464896       -12.6505
  55   2.0000      -0.445480       -12.1221
  56   2.0000      -0.444356       -12.0915
  57   2.0000      -0.438233       -11.9249
  58   2.0000      -0.434575       -11.8254
  59   2.0000      -0.424516       -11.5517
  60   2.0000      -0.419703       -11.4207
  61   2.0000      -0.413240       -11.2448
  62   2.0000      -0.402841       -10.9619
  63   2.0000      -0.348352        -9.4791
  64   2.0000      -0.335885        -9.1399
  65   2.0000      -0.330034        -8.9807
  66   2.0000      -0.292563        -7.9610
  67   0.0000       0.026840         0.7303
  68   0.0000       0.073288         1.9943
  69   0.0000       0.100983         2.7479
  70   0.0000       0.130899         3.5619
  71   0.0000       0.134228         3.6525

MULLIKEN ATOMIC CHARGES
-----------------------
   0 S :    0.121804
   1 C :   -0.137788
   2 C :   -0.076455
   3 C :    0.029896
   4 C :   -0.160315
   5 H :   -0.007747
   6 C :    0.032398
   7 H :    0.046873
   8 H :    0.019874
   9 C :   -0.082706
  10 H :    0.039245
  11 H :    0.032565
  12 C :   -0.037443
  13 H :    0.025281
  14 H :    0.030911
  15 H :    0.017830
  16 S :    0.104603
  17 C :   -0.093400
  18 C :   -0.048086
  19 C :    0.015648
  20 C :   -0.154375
  21 H :    0.016289
  22 C :    0.077976
  23 H :    0.007129
  24 H :    0.039300
  25 C :   -0.096660
  26 H :    0.050508
  27 H :    0.010386
  28 C :   -0.028520
  29 H :    0.035610
  30 H :    0.027561
  31 H :    0.034697
  32 H :    0.060996
  33 H :    0.046115
Sum of atomic charges:    0.0000000

LOEWDIN ATOMIC CHARGES
----------------------
   0 S :    0.436623
   1 C :   -0.204652
   2 C :   -0.063826
   3 C :   -0.065887
   4 C :   -0.206967
   5 H :    0.016548
   6 C :   -0.038238
   7 H :    0.032374
   8 H :    0.036393
   9 C :   -0.040049
  10 H :    0.024475
  11 H :    0.023825
  12 C :   -0.061734
  13 H :    0.021084
  14 H :    0.025649
  15 H :    0.016330
  16 S :    0.390530
  17 C :   -0.174358
  18 C :   -0.071428
  19 C :   -0.058563
  20 C :   -0.173372
  21 H :    0.033708
  22 C :   -0.036351
  23 H :    0.027537
  24 H :    0.032671
  25 C :   -0.038749
  26 H :    0.025580
  27 H :    0.019293
  28 C :   -0.056230
  29 H :    0.023509
  30 H :    0.017179
  31 H :    0.032802
  32 H :    0.033742
  33 H :    0.020552

  Mayer bond orders larger than 0.100000
B(  0-S ,  1-C ) :   1.1473 B(  0-S ,  4-C ) :   1.1696 B(  1-C ,  2-C ) :   1.5827
B(  1-C , 32-H ) :   0.9666 B(  2-C ,  3-C ) :   1.2400 B(  2-C ,  6-C ) :   1.0290
B(  3-C ,  4-C ) :   1.5458 B(  3-C ,  5-H ) :   1.0043 B(  4-C , 20-C ) :   1.0412
B(  6-C ,  7-H ) :   0.9438 B(  6-C ,  8-H ) :   0.9441 B(  6-C ,  9-C ) :   1.0662
B(  9-C , 10-H ) :   0.9612 B(  9-C , 11-H ) :   0.9588 B(  9-C , 12-C ) :   1.0600
B( 12-C , 13-H ) :   0.9766 B( 12-C , 14-H ) :   0.9771 B( 12-C , 15-H ) :   0.9746
B( 16-S , 17-C ) :   1.1566 B( 16-S , 20-C ) :   1.1359 B( 17-C , 18-C ) :   1.6067
B( 17-C , 20-C ) :   0.1004 B( 17-C , 33-H ) :   0.9737 B( 18-C , 19-C ) :   1.2206
B( 18-C , 21-H ) :   0.9972 B( 19-C , 20-C ) :   1.5882 B( 19-C , 22-C ) :   1.0472
B( 22-C , 23-H ) :   0.9266 B( 22-C , 24-H ) :   0.9298 B( 22-C , 25-C ) :   1.0555
B( 25-C , 26-H ) :   0.9612 B( 25-C , 27-H ) :   0.9473 B( 25-C , 28-C ) :   1.0768
B( 28-C , 29-H ) :   0.9751 B( 28-C , 30-H ) :   0.9777 B( 28-C , 31-H ) :   0.9751

Dispersion correction           -0.014999243
FINAL SINGLE POINT ENERGY     -1339.875289472848

DIPOLE MOMENT
-------------
                                X             Y             Z
Electronic contribution:    -11.43597       9.25484       9.03403
Nuclear contribution   :     11.70521      -9.11579      -9.33678
                        -----------------------------------------
Total Dipole Moment    :      0.26924       0.13906      -0.30275
                        -----------------------------------------
Magnitude (a.u.)       :      0.42835
Magnitude (Debye)      :      1.08878

Rotational constants in cm-1:     0.019458     0.009164     0.007079
Rotational constants in MHz :   583.336985   274.718305   212.224185

                             ****ORCA TERMINATED NORMALLY****
TOTAL RUN TIME: 0 days 0 hours 0 minutes 22 seconds 88 msec
