                         Program Version 4.2.1 -  RELEASE  -
|  1> ! wB97X-D3 SP def2-SVP
|  2> %pal
|  3> nprocs 24
|  4> end
|  5>
|  6> * xyz 0 1
|  7> S 	 -89.3713 	 -34.0224 	 -74.5247
|  8> C 	 -87.702 	 -34.1555 	 -74.3108
|  9> C 	 -87.0265 	 -32.9472 	 -74.4533
| 10> C 	 -87.9294 	 -31.8536 	 -74.472
| 11> C 	 -89.2199 	 -32.2528 	 -74.6243
| 12> H 	 -87.6694 	 -30.7973 	 -74.5372
| 13> C 	 -85.548 	 -32.8259 	 -74.7137
| 14> H 	 -84.909 	 -33.3054 	 -73.9394
| 15> H 	 -85.232 	 -31.7808 	 -74.7666
| 16> C 	 -85.1073 	 -33.4114 	 -76.0524
| 17> H 	 -84.0185 	 -33.3413 	 -76.208
| 18> H 	 -85.3225 	 -34.5416 	 -75.9898
| 19> C 	 -85.8229 	 -32.8751 	 -77.2485
| 20> H 	 -86.0574 	 -31.9036 	 -77.0051
| 21> H 	 -85.3594 	 -32.8142 	 -78.2248
| 22> H 	 -86.8731 	 -33.2877 	 -77.3667
| 23> S 	 -91.3737 	 -31.2728 	 -73.3146
| 24> C 	 -92.6669 	 -30.3138 	 -74.1216
| 25> C 	 -92.2899 	 -30.0824 	 -75.429
| 26> C 	 -91.0254 	 -30.6986 	 -75.8152
| 27> C 	 -90.3873 	 -31.3832 	 -74.8058
| 28> H 	 -92.9842 	 -29.4875 	 -76.0571
| 29> C 	 -90.6195 	 -30.8147 	 -77.3245
| 30> H 	 -89.5305 	 -30.582 	 -77.4348
| 31> H 	 -91.2785 	 -30.0981 	 -77.9219
| 32> C 	 -90.8103 	 -32.2086 	 -77.979
| 33> H 	 -91.8572 	 -32.4734 	 -78.2094
| 34> H 	 -90.3861 	 -32.9547 	 -77.25
| 35> C 	 -90.0306 	 -32.3378 	 -79.324
| 36> H 	 -90.1374 	 -31.4576 	 -79.9587
| 37> H 	 -90.2888 	 -33.1955 	 -79.953
| 38> H 	 -88.9498 	 -32.4583 	 -79.0755
| 39> H 	 -87.2285 	 -35.1476 	 -74.4015
| 40> H 	 -93.5852 	 -29.8152 	 -73.8094
| 41> *
| 42>
| 43>                          ****END OF INPUT****

CARTESIAN COORDINATES (ANGSTROEM)
---------------------------------
  S    -89.371300  -34.022400  -74.524700
  C    -87.702000  -34.155500  -74.310800
  C    -87.026500  -32.947200  -74.453300
  C    -87.929400  -31.853600  -74.472000
  C    -89.219900  -32.252800  -74.624300
  H    -87.669400  -30.797300  -74.537200
  C    -85.548000  -32.825900  -74.713700
  H    -84.909000  -33.305400  -73.939400
  H    -85.232000  -31.780800  -74.766600
  C    -85.107300  -33.411400  -76.052400
  H    -84.018500  -33.341300  -76.208000
  H    -85.322500  -34.541600  -75.989800
  C    -85.822900  -32.875100  -77.248500
  H    -86.057400  -31.903600  -77.005100
  H    -85.359400  -32.814200  -78.224800
  H    -86.873100  -33.287700  -77.366700
  S    -91.373700  -31.272800  -73.314600
  C    -92.666900  -30.313800  -74.121600
  C    -92.289900  -30.082400  -75.429000
  C    -91.025400  -30.698600  -75.815200
  C    -90.387300  -31.383200  -74.805800
  H    -92.984200  -29.487500  -76.057100
  C    -90.619500  -30.814700  -77.324500
  H    -89.530500  -30.582000  -77.434800
  H    -91.278500  -30.098100  -77.921900
  C    -90.810300  -32.208600  -77.979000
  H    -91.857200  -32.473400  -78.209400
  H    -90.386100  -32.954700  -77.250000
  C    -90.030600  -32.337800  -79.324000
  H    -90.137400  -31.457600  -79.958700
  H    -90.288800  -33.195500  -79.953000
  H    -88.949800  -32.458300  -79.075500
  H    -87.228500  -35.147600  -74.401500
  H    -93.585200  -29.815200  -73.809400

 Total Charge           Charge          ....    0
 Multiplicity           Mult            ....    1
 Number of Electrons    NEL             ....  134
 Basis Dimension        Dim             ....  322

ORBITAL ENERGIES
----------------

  NO   OCC          E(Eh)            E(eV)
   0   2.0000     -88.972240     -2421.0577
   1   2.0000     -88.962487     -2420.7923
   2   2.0000     -10.332918      -281.1730
   3   2.0000     -10.331290      -281.1287
   4   2.0000     -10.321852      -280.8719
   5   2.0000     -10.315768      -280.7063
   6   2.0000     -10.312159      -280.6081
   7   2.0000     -10.304451      -280.3984
   8   2.0000     -10.303686      -280.3776
   9   2.0000     -10.299148      -280.2541
  10   2.0000     -10.298693      -280.2417
  11   2.0000     -10.296770      -280.1894
  12   2.0000     -10.292162      -280.0640
  13   2.0000     -10.290300      -280.0133
  14   2.0000     -10.279690      -279.7246
  15   2.0000     -10.270291      -279.4688
  16   2.0000      -8.087333      -220.0675
  17   2.0000      -8.075862      -219.7554
  18   2.0000      -6.045639      -164.5102
  19   2.0000      -6.041819      -164.4063
  20   2.0000      -6.038220      -164.3083
  21   2.0000      -6.034776      -164.2146
  22   2.0000      -6.030399      -164.0955
  23   2.0000      -6.026379      -163.9861
  24   2.0000      -1.011098       -27.5134
  25   2.0000      -0.980160       -26.6715
  26   2.0000      -0.918694       -24.9989
  27   2.0000      -0.895642       -24.3717
  28   2.0000      -0.872714       -23.7478
  29   2.0000      -0.856794       -23.3145
  30   2.0000      -0.837454       -22.7883
  31   2.0000      -0.819001       -22.2862
  32   2.0000      -0.782556       -21.2944
  33   2.0000      -0.765789       -20.8382
  34   2.0000      -0.704477       -19.1698
  35   2.0000      -0.700840       -19.0708
  36   2.0000      -0.683529       -18.5998
  37   2.0000      -0.658598       -17.9214
  38   2.0000      -0.650098       -17.6901
  39   2.0000      -0.614563       -16.7231
  40   2.0000      -0.584819       -15.9137
  41   2.0000      -0.575935       -15.6720
  42   2.0000      -0.561692       -15.2844
  43   2.0000      -0.559007       -15.2114
  44   2.0000      -0.544080       -14.8052
  45   2.0000      -0.512173       -13.9369
  46   2.0000      -0.509186       -13.8557
  47   2.0000      -0.507712       -13.8156
  48   2.0000      -0.506516       -13.7830
  49   2.0000      -0.496138       -13.5006
  50   2.0000      -0.490423       -13.3451
  51   2.0000      -0.482628       -13.1330
  52   2.0000      -0.473281       -12.8786
  53   2.0000      -0.467554       -12.7228
  54   2.0000      -0.457381       -12.4460
  55   2.0000      -0.449494       -12.2314
  56   2.0000      -0.442778       -12.0486
  57   2.0000      -0.439865       -11.9693
  58   2.0000      -0.430021       -11.7015
  59   2.0000      -0.426294       -11.6001
  60   2.0000      -0.414948       -11.2913
  61   2.0000      -0.409080       -11.1316
  62   2.0000      -0.404544       -11.0082
  63   2.0000      -0.347405        -9.4534
  64   2.0000      -0.328231        -8.9316
  65   2.0000      -0.325455        -8.8561
  66   2.0000      -0.307439        -8.3658
  67   0.0000       0.037225         1.0130
  68   0.0000       0.048867         1.3297
  69   0.0000       0.110281         3.0009
  70   0.0000       0.112917         3.0726
  71   0.0000       0.122474         3.3327

MULLIKEN ATOMIC CHARGES
-----------------------
   0 S :    0.141957
   1 C :   -0.125612
   2 C :   -0.095087
   3 C :    0.068313
   4 C :   -0.186485
   5 H :    0.023298
   6 C :    0.067252
   7 H :    0.044385
   8 H :    0.021025
   9 C :   -0.117679
  10 H :    0.038010
  11 H :    0.028559
  12 C :   -0.012873
  13 H :   -0.015787
  14 H :    0.040887
  15 H :    0.039462
  16 S :    0.088106
  17 C :   -0.076291
  18 C :   -0.078700
  19 C :    0.009817
  20 C :   -0.177702
  21 H :    0.034601
  22 C :    0.025169
  23 H :    0.037106
  24 H :    0.033292
  25 C :   -0.078043
  26 H :    0.036690
  27 H :    0.033859
  28 C :   -0.076571
  29 H :    0.030433
  30 H :    0.038021
  31 H :    0.036017
  32 H :    0.066817
  33 H :    0.057753
Sum of atomic charges:   -0.0000000

LOEWDIN ATOMIC CHARGES
----------------------
   0 S :    0.434273
   1 C :   -0.212704
   2 C :   -0.067685
   3 C :   -0.048793
   4 C :   -0.199660
   5 H :    0.039500
   6 C :   -0.034563
   7 H :    0.039429
   8 H :    0.027749
   9 C :   -0.047393
  10 H :    0.027356
  11 H :    0.024104
  12 C :   -0.073940
  13 H :    0.011122
  14 H :    0.028968
  15 H :    0.036148
  16 S :    0.371060
  17 C :   -0.178105
  18 C :   -0.079409
  19 C :   -0.057857
  20 C :   -0.184690
  21 H :    0.036699
  22 C :   -0.035079
  23 H :    0.034346
  24 H :    0.033812
  25 C :   -0.045527
  26 H :    0.023917
  27 H :    0.022069
  28 C :   -0.073703
  29 H :    0.022037
  30 H :    0.027253
  31 H :    0.027384
  32 H :    0.032294
  33 H :    0.039592

  Mayer bond orders larger than 0.100000
B(  0-S ,  1-C ) :   1.1692 B(  0-S ,  4-C ) :   1.1515 B(  1-C ,  2-C ) :   1.5885
B(  1-C , 32-H ) :   0.9598 B(  2-C ,  3-C ) :   1.2455 B(  2-C ,  6-C ) :   1.0262
B(  3-C ,  4-C ) :   1.5955 B(  3-C ,  5-H ) :   0.9908 B(  4-C , 20-C ) :   0.9991
B(  6-C ,  7-H ) :   0.9372 B(  6-C ,  8-H ) :   0.9418 B(  6-C ,  9-C ) :   1.0787
B(  9-C , 10-H ) :   0.9567 B(  9-C , 11-H ) :   0.9554 B(  9-C , 12-C ) :   1.0687
B( 12-C , 13-H ) :   0.9682 B( 12-C , 14-H ) :   0.9745 B( 12-C , 15-H ) :   0.9619
B( 16-S , 17-C ) :   1.1250 B( 16-S , 20-C ) :   1.1230 B( 17-C , 18-C ) :   1.6706
B( 17-C , 33-H ) :   0.9606 B( 18-C , 19-C ) :   1.2050 B( 18-C , 21-H ) :   0.9786
B( 19-C , 20-C ) :   1.6425 B( 19-C , 22-C ) :   1.0404 B( 22-C , 23-H ) :   0.9405
B( 22-C , 24-H ) :   0.9384 B( 22-C , 25-C ) :   1.0553 B( 25-C , 26-H ) :   0.9591
B( 25-C , 27-H ) :   0.9561 B( 25-C , 28-C ) :   1.0708 B( 28-C , 29-H ) :   0.9756
B( 28-C , 30-H ) :   0.9753 B( 28-C , 31-H ) :   0.9757

Dispersion correction           -0.015825391
FINAL SINGLE POINT ENERGY     -1339.870745745040

DIPOLE MOMENT
-------------
                                X             Y             Z
Electronic contribution:    -14.82986       0.17838      23.49064
Nuclear contribution   :     15.13762      -0.03811     -24.05055
                        -----------------------------------------
Total Dipole Moment    :      0.30776       0.14026      -0.55991
                        -----------------------------------------
Magnitude (a.u.)       :      0.65413
Magnitude (Debye)      :      1.66267

Rotational constants in cm-1:     0.019181     0.009846     0.007633
Rotational constants in MHz :   575.042168   295.165651   228.826125

                             ****ORCA TERMINATED NORMALLY****
TOTAL RUN TIME: 0 days 0 hours 0 minutes 22 seconds 669 msec
