                         Program Version 4.2.1 -  RELEASE  -
|  1> ! wB97X-D3 SP def2-SVP
|  2> %pal
|  3> nprocs 24
|  4> end
|  5>
|  6> * xyz 0 1
|  7> S 	 27.6235 	 -30.1434 	 -132.832
|  8> C 	 27.4825 	 -28.5577 	 -132.207
|  9> C 	 27.5866 	 -28.6262 	 -130.844
| 10> C 	 27.8253 	 -29.9172 	 -130.314
| 11> C 	 27.9635 	 -30.8684 	 -131.296
| 12> H 	 28.1995 	 -30.2564 	 -129.32
| 13> C 	 27.6986 	 -27.4446 	 -129.91
| 14> H 	 27.3653 	 -26.4978 	 -130.412
| 15> H 	 28.7474 	 -27.4001 	 -129.498
| 16> C 	 26.7229 	 -27.4671 	 -128.711
| 17> H 	 25.6832 	 -27.1804 	 -128.917
| 18> H 	 26.7341 	 -28.547 	 -128.357
| 19> C 	 27.1624 	 -26.6862 	 -127.423
| 20> H 	 27.3168 	 -25.6895 	 -127.723
| 21> H 	 26.4323 	 -26.9091 	 -126.65
| 22> H 	 28.1811 	 -26.9866 	 -127.107
| 23> S 	 28.3227 	 -33.1551 	 -132.7
| 24> C 	 28.926 	 -34.6487 	 -132.066
| 25> C 	 29.0229 	 -34.513 	 -130.69
| 26> C 	 28.6789 	 -33.2022 	 -130.186
| 27> C 	 28.4259 	 -32.2705 	 -131.212
| 28> H 	 29.2373 	 -35.3959 	 -130.109
| 29> C 	 28.8929 	 -32.8202 	 -128.677
| 30> H 	 29.2882 	 -31.8081 	 -128.676
| 31> H 	 29.6424 	 -33.4363 	 -128.361
| 32> C 	 27.7361 	 -33.0301 	 -127.713
| 33> H 	 27.3089 	 -33.9631 	 -127.934
| 34> H 	 26.9849 	 -32.2975 	 -127.96
| 35> C 	 28.1266 	 -32.8955 	 -126.194
| 36> H 	 28.9653 	 -33.5328 	 -125.778
| 37> H 	 27.2365 	 -33.0593 	 -125.63
| 38> H 	 28.367 	 -31.9119 	 -125.919
| 39> H 	 27.512 	 -27.7047 	 -132.828
| 40> H 	 29.1451 	 -35.5702 	 -132.6
| 41> *
| 42>
| 43>                          ****END OF INPUT****

CARTESIAN COORDINATES (ANGSTROEM)
---------------------------------
  S     27.623500  -30.143400  -132.832000
  C     27.482500  -28.557700  -132.207000
  C     27.586600  -28.626200  -130.844000
  C     27.825300  -29.917200  -130.314000
  C     27.963500  -30.868400  -131.296000
  H     28.199500  -30.256400  -129.320000
  C     27.698600  -27.444600  -129.910000
  H     27.365300  -26.497800  -130.412000
  H     28.747400  -27.400100  -129.498000
  C     26.722900  -27.467100  -128.711000
  H     25.683200  -27.180400  -128.917000
  H     26.734100  -28.547000  -128.357000
  C     27.162400  -26.686200  -127.423000
  H     27.316800  -25.689500  -127.723000
  H     26.432300  -26.909100  -126.650000
  H     28.181100  -26.986600  -127.107000
  S     28.322700  -33.155100  -132.700000
  C     28.926000  -34.648700  -132.066000
  C     29.022900  -34.513000  -130.690000
  C     28.678900  -33.202200  -130.186000
  C     28.425900  -32.270500  -131.212000
  H     29.237300  -35.395900  -130.109000
  C     28.892900  -32.820200  -128.677000
  H     29.288200  -31.808100  -128.676000
  H     29.642400  -33.436300  -128.361000
  C     27.736100  -33.030100  -127.713000
  H     27.308900  -33.963100  -127.934000
  H     26.984900  -32.297500  -127.960000
  C     28.126600  -32.895500  -126.194000
  H     28.965300  -33.532800  -125.778000
  H     27.236500  -33.059300  -125.630000
  H     28.367000  -31.911900  -125.919000
  H     27.512000  -27.704700  -132.828000
  H     29.145100  -35.570200  -132.600000

 Total Charge           Charge          ....    0
 Multiplicity           Mult            ....    1
 Number of Electrons    NEL             ....  134
 Basis Dimension        Dim             ....  322

ORBITAL ENERGIES
----------------

  NO   OCC          E(Eh)            E(eV)
   0   2.0000     -88.963875     -2420.8301
   1   2.0000     -88.963045     -2420.8075
   2   2.0000     -10.334258      -281.2095
   3   2.0000     -10.333198      -281.1806
   4   2.0000     -10.320138      -280.8252
   5   2.0000     -10.312398      -280.6146
   6   2.0000     -10.310265      -280.5566
   7   2.0000     -10.301596      -280.3207
   8   2.0000     -10.298308      -280.2312
   9   2.0000     -10.297178      -280.2005
  10   2.0000     -10.294900      -280.1385
  11   2.0000     -10.289411      -279.9891
  12   2.0000     -10.287510      -279.9374
  13   2.0000     -10.285425      -279.8806
  14   2.0000     -10.280889      -279.7572
  15   2.0000     -10.277930      -279.6767
  16   2.0000      -8.079406      -219.8518
  17   2.0000      -8.079127      -219.8442
  18   2.0000      -6.037964      -164.3013
  19   2.0000      -6.037671      -164.2934
  20   2.0000      -6.033663      -164.1843
  21   2.0000      -6.033327      -164.1752
  22   2.0000      -6.030183      -164.0896
  23   2.0000      -6.029870      -164.0811
  24   2.0000      -1.016003       -27.6468
  25   2.0000      -0.991654       -26.9843
  26   2.0000      -0.909769       -24.7561
  27   2.0000      -0.907315       -24.6893
  28   2.0000      -0.873784       -23.7769
  29   2.0000      -0.852751       -23.2045
  30   2.0000      -0.842969       -22.9383
  31   2.0000      -0.821194       -22.3458
  32   2.0000      -0.784482       -21.3468
  33   2.0000      -0.774384       -21.0721
  34   2.0000      -0.712740       -19.3947
  35   2.0000      -0.700347       -19.0574
  36   2.0000      -0.690978       -18.8025
  37   2.0000      -0.664848       -18.0914
  38   2.0000      -0.644744       -17.5444
  39   2.0000      -0.624696       -16.9988
  40   2.0000      -0.593167       -16.1409
  41   2.0000      -0.571367       -15.5477
  42   2.0000      -0.568128       -15.4596
  43   2.0000      -0.556738       -15.1496
  44   2.0000      -0.530193       -14.4273
  45   2.0000      -0.526186       -14.3183
  46   2.0000      -0.523627       -14.2486
  47   2.0000      -0.514320       -13.9953
  48   2.0000      -0.511197       -13.9104
  49   2.0000      -0.504402       -13.7255
  50   2.0000      -0.500455       -13.6181
  51   2.0000      -0.490881       -13.3575
  52   2.0000      -0.474793       -12.9198
  53   2.0000      -0.466989       -12.7074
  54   2.0000      -0.459838       -12.5128
  55   2.0000      -0.447945       -12.1892
  56   2.0000      -0.441813       -12.0223
  57   2.0000      -0.441005       -12.0004
  58   2.0000      -0.434571       -11.8253
  59   2.0000      -0.427451       -11.6315
  60   2.0000      -0.419191       -11.4068
  61   2.0000      -0.403939       -10.9917
  62   2.0000      -0.400480       -10.8976
  63   2.0000      -0.367341        -9.9958
  64   2.0000      -0.336364        -9.1529
  65   2.0000      -0.324589        -8.8325
  66   2.0000      -0.286809        -7.8045
  67   0.0000       0.016648         0.4530
  68   0.0000       0.092631         2.5206
  69   0.0000       0.102313         2.7841
  70   0.0000       0.114139         3.1059
  71   0.0000       0.125977         3.4280

MULLIKEN ATOMIC CHARGES
-----------------------
   0 S :    0.091499
   1 C :   -0.093029
   2 C :   -0.058355
   3 C :   -0.022729
   4 C :   -0.107577
   5 H :    0.023729
   6 C :    0.049825
   7 H :    0.029509
   8 H :    0.048542
   9 C :   -0.147607
  10 H :    0.040669
  11 H :    0.029884
  12 C :   -0.029920
  13 H :    0.021115
  14 H :    0.049686
  15 H :    0.020457
  16 S :    0.079545
  17 C :   -0.077519
  18 C :   -0.039719
  19 C :   -0.069083
  20 C :   -0.101056
  21 H :    0.019351
  22 C :    0.062342
  23 H :    0.025545
  24 H :   -0.009055
  25 C :   -0.025448
  26 H :    0.015758
  27 H :    0.023221
  28 C :   -0.039568
  29 H :    0.044393
  30 H :    0.027601
  31 H :    0.012942
  32 H :    0.040216
  33 H :    0.064837
Sum of atomic charges:   -0.0000000

LOEWDIN ATOMIC CHARGES
----------------------
   0 S :    0.420719
   1 C :   -0.197988
   2 C :   -0.067267
   3 C :   -0.081428
   4 C :   -0.186625
   5 H :    0.038367
   6 C :   -0.039186
   7 H :    0.033379
   8 H :    0.039303
   9 C :   -0.048939
  10 H :    0.024433
  11 H :    0.022235
  12 C :   -0.061516
  13 H :    0.015436
  14 H :    0.030758
  15 H :    0.023367
  16 S :    0.418670
  17 C :   -0.192221
  18 C :   -0.075723
  19 C :   -0.056576
  20 C :   -0.195826
  21 H :    0.030195
  22 C :   -0.024103
  23 H :    0.025733
  24 H :    0.016351
  25 C :   -0.029249
  26 H :    0.018667
  27 H :    0.024648
  28 C :   -0.065512
  29 H :    0.033292
  30 H :    0.026408
  31 H :    0.017115
  32 H :    0.025677
  33 H :    0.037407

  Mayer bond orders larger than 0.100000
B(  0-S ,  1-C ) :   1.1360 B(  0-S ,  4-C ) :   1.1632 B(  1-C ,  2-C ) :   1.6045
B(  1-C , 32-H ) :   0.9818 B(  2-C ,  3-C ) :   1.2293 B(  2-C ,  6-C ) :   1.0355
B(  3-C ,  4-C ) :   1.5939 B(  3-C ,  5-H ) :   0.9766 B(  4-C , 20-C ) :   1.0613
B(  6-C ,  7-H ) :   0.9427 B(  6-C ,  8-H ) :   0.9440 B(  6-C ,  9-C ) :   1.0437
B(  9-C , 10-H ) :   0.9595 B(  9-C , 11-H ) :   0.9632 B(  9-C , 12-C ) :   1.0716
B( 12-C , 13-H ) :   0.9760 B( 12-C , 14-H ) :   0.9754 B( 12-C , 15-H ) :   0.9753
B( 16-S , 17-C ) :   1.1648 B( 16-S , 20-C ) :   1.1520 B( 17-C , 18-C ) :   1.5878
B( 17-C , 20-C ) :   0.1002 B( 17-C , 33-H ) :   0.9699 B( 18-C , 19-C ) :   1.2688
B( 18-C , 21-H ) :   0.9893 B( 19-C , 20-C ) :   1.5529 B( 19-C , 22-C ) :   1.0187
B( 22-C , 23-H ) :   0.9459 B( 22-C , 24-H ) :   0.9323 B( 22-C , 25-C ) :   1.0618
B( 25-C , 26-H ) :   0.9536 B( 25-C , 27-H ) :   0.9516 B( 25-C , 28-C ) :   1.0774
B( 28-C , 29-H ) :   0.9766 B( 28-C , 30-H ) :   0.9733 B( 28-C , 31-H ) :   0.9737

Dispersion correction           -0.013518587
FINAL SINGLE POINT ENERGY     -1339.859039252307

DIPOLE MOMENT
-------------
                                X             Y             Z
Electronic contribution:      1.71079     -10.55415     -32.20436
Nuclear contribution   :     -1.52378      10.56247      32.83896
                        -----------------------------------------
Total Dipole Moment    :      0.18701       0.00832       0.63460
                        -----------------------------------------
Magnitude (a.u.)       :      0.66163
Magnitude (Debye)      :      1.68174

Rotational constants in cm-1:     0.016171     0.009765     0.006236
Rotational constants in MHz :   484.807973   292.743133   186.944995

                             ****ORCA TERMINATED NORMALLY****
TOTAL RUN TIME: 0 days 0 hours 0 minutes 20 seconds 315 msec
