                         Program Version 4.2.1 -  RELEASE  -
|  1> ! wB97X-D3 SP def2-SVP
|  2> %pal
|  3> nprocs 24
|  4> end
|  5>
|  6> * xyz 0 1
|  7> S 	 -51.7611 	 12.3472 	 -99.6391
|  8> C 	 -50.2105 	 12.1196 	 -98.9024
|  9> C 	 -49.2315 	 12.0033 	 -99.8761
| 10> C 	 -49.6468 	 12.3107 	 -101.179
| 11> C 	 -51.033 	 12.646 	 -101.216
| 12> H 	 -49.112 	 12.3208 	 -102.146
| 13> C 	 -47.8871 	 11.5022 	 -99.5342
| 14> H 	 -47.7535 	 10.5162 	 -99.874
| 15> H 	 -47.9946 	 11.2927 	 -98.5028
| 16> C 	 -46.7158 	 12.4427 	 -99.8786
| 17> H 	 -47.1558 	 13.4314 	 -99.8466
| 18> H 	 -45.9129 	 12.443 	 -99.1803
| 19> C 	 -46.1553 	 12.1694 	 -101.325
| 20> H 	 -45.8815 	 11.1177 	 -101.337
| 21> H 	 -46.9734 	 12.3004 	 -102.024
| 22> H 	 -45.3722 	 12.8135 	 -101.678
| 23> S 	 -52.533 	 14.6853 	 -102.19
| 24> C 	 -53.3768 	 14.6041 	 -103.716
| 25> C 	 -52.9622 	 13.4727 	 -104.383
| 26> C 	 -52.0263 	 12.6066 	 -103.666
| 27> C 	 -51.7975 	 13.1269 	 -102.372
| 28> H 	 -53.497 	 13.2792 	 -105.322
| 29> C 	 -51.6271 	 11.2392 	 -104.164
| 30> H 	 -51.0227 	 10.7131 	 -103.386
| 31> H 	 -50.8629 	 11.6117 	 -104.838
| 32> C 	 -52.7583 	 10.3269 	 -104.645
| 33> H 	 -53.3152 	 10.6788 	 -105.49
| 34> H 	 -53.4956 	 10.0942 	 -103.863
| 35> C 	 -52.2418 	 8.95612 	 -105.063
| 36> H 	 -51.7175 	 8.41534 	 -104.21
| 37> H 	 -51.4712 	 9.08761 	 -105.888
| 38> H 	 -53.0314 	 8.32174 	 -105.374
| 39> H 	 -50.0614 	 12.083 	 -97.8169
| 40> H 	 -54.1726 	 15.2201 	 -104.083
| 41> *
| 42>
| 43>                          ****END OF INPUT****

CARTESIAN COORDINATES (ANGSTROEM)
---------------------------------
  S    -51.761100   12.347200  -99.639100
  C    -50.210500   12.119600  -98.902400
  C    -49.231500   12.003300  -99.876100
  C    -49.646800   12.310700  -101.179000
  C    -51.033000   12.646000  -101.216000
  H    -49.112000   12.320800  -102.146000
  C    -47.887100   11.502200  -99.534200
  H    -47.753500   10.516200  -99.874000
  H    -47.994600   11.292700  -98.502800
  C    -46.715800   12.442700  -99.878600
  H    -47.155800   13.431400  -99.846600
  H    -45.912900   12.443000  -99.180300
  C    -46.155300   12.169400  -101.325000
  H    -45.881500   11.117700  -101.337000
  H    -46.973400   12.300400  -102.024000
  H    -45.372200   12.813500  -101.678000
  S    -52.533000   14.685300  -102.190000
  C    -53.376800   14.604100  -103.716000
  C    -52.962200   13.472700  -104.383000
  C    -52.026300   12.606600  -103.666000
  C    -51.797500   13.126900  -102.372000
  H    -53.497000   13.279200  -105.322000
  C    -51.627100   11.239200  -104.164000
  H    -51.022700   10.713100  -103.386000
  H    -50.862900   11.611700  -104.838000
  C    -52.758300   10.326900  -104.645000
  H    -53.315200   10.678800  -105.490000
  H    -53.495600   10.094200  -103.863000
  C    -52.241800    8.956120  -105.063000
  H    -51.717500    8.415340  -104.210000
  H    -51.471200    9.087610  -105.888000
  H    -53.031400    8.321740  -105.374000
  H    -50.061400   12.083000  -97.816900
  H    -54.172600   15.220100  -104.083000

 Total Charge           Charge          ....    0
 Multiplicity           Mult            ....    1
 Number of Electrons    NEL             ....  134
 Basis Dimension        Dim             ....  322

ORBITAL ENERGIES
----------------

  NO   OCC          E(Eh)            E(eV)
   0   2.0000     -88.967503     -2420.9288
   1   2.0000     -88.960306     -2420.7330
   2   2.0000     -10.332956      -281.1740
   3   2.0000     -10.326194      -280.9900
   4   2.0000     -10.314156      -280.6624
   5   2.0000     -10.314109      -280.6612
   6   2.0000     -10.309958      -280.5482
   7   2.0000     -10.298539      -280.2375
   8   2.0000     -10.296604      -280.1848
   9   2.0000     -10.295836      -280.1639
  10   2.0000     -10.295323      -280.1500
  11   2.0000     -10.288427      -279.9623
  12   2.0000     -10.283763      -279.8354
  13   2.0000     -10.282339      -279.7967
  14   2.0000     -10.278718      -279.6981
  15   2.0000     -10.276957      -279.6502
  16   2.0000      -8.082146      -219.9264
  17   2.0000      -8.075483      -219.7451
  18   2.0000      -6.040504      -164.3705
  19   2.0000      -6.036636      -164.2652
  20   2.0000      -6.033996      -164.1934
  21   2.0000      -6.033105      -164.1691
  22   2.0000      -6.029814      -164.0796
  23   2.0000      -6.026300      -163.9840
  24   2.0000      -1.004337       -27.3294
  25   2.0000      -0.984119       -26.7792
  26   2.0000      -0.913555       -24.8591
  27   2.0000      -0.910880       -24.7863
  28   2.0000      -0.867177       -23.5971
  29   2.0000      -0.851091       -23.1594
  30   2.0000      -0.844485       -22.9796
  31   2.0000      -0.818284       -22.2666
  32   2.0000      -0.781316       -21.2607
  33   2.0000      -0.766746       -20.8642
  34   2.0000      -0.710749       -19.3405
  35   2.0000      -0.702339       -19.1116
  36   2.0000      -0.696841       -18.9620
  37   2.0000      -0.652403       -17.7528
  38   2.0000      -0.642463       -17.4823
  39   2.0000      -0.620402       -16.8820
  40   2.0000      -0.594884       -16.1876
  41   2.0000      -0.574893       -15.6436
  42   2.0000      -0.563509       -15.3339
  43   2.0000      -0.547550       -14.8996
  44   2.0000      -0.538842       -14.6626
  45   2.0000      -0.534132       -14.5345
  46   2.0000      -0.516934       -14.0665
  47   2.0000      -0.511955       -13.9310
  48   2.0000      -0.506166       -13.7735
  49   2.0000      -0.501026       -13.6336
  50   2.0000      -0.495612       -13.4863
  51   2.0000      -0.475180       -12.9303
  52   2.0000      -0.467283       -12.7154
  53   2.0000      -0.465834       -12.6760
  54   2.0000      -0.455417       -12.3925
  55   2.0000      -0.447505       -12.1772
  56   2.0000      -0.442783       -12.0487
  57   2.0000      -0.435971       -11.8634
  58   2.0000      -0.433605       -11.7990
  59   2.0000      -0.423993       -11.5374
  60   2.0000      -0.423020       -11.5110
  61   2.0000      -0.418188       -11.3795
  62   2.0000      -0.408054       -11.1037
  63   2.0000      -0.340041        -9.2530
  64   2.0000      -0.328302        -8.9336
  65   2.0000      -0.323246        -8.7960
  66   2.0000      -0.295309        -8.0358
  67   0.0000       0.026421         0.7190
  68   0.0000       0.072093         1.9618
  69   0.0000       0.112046         3.0489
  70   0.0000       0.124689         3.3930
  71   0.0000       0.136604         3.7172

MULLIKEN ATOMIC CHARGES
-----------------------
   0 S :    0.128423
   1 C :   -0.136774
   2 C :   -0.116085
   3 C :    0.040623
   4 C :   -0.183459
   5 H :    0.031311
   6 C :    0.127370
   7 H :    0.018029
   8 H :   -0.017421
   9 C :   -0.054433
  10 H :    0.031151
  11 H :    0.027001
  12 C :   -0.037271
  13 H :    0.028123
  14 H :    0.011081
  15 H :    0.037404
  16 S :    0.108060
  17 C :   -0.087658
  18 C :   -0.065272
  19 C :   -0.030572
  20 C :   -0.184221
  21 H :    0.026379
  22 C :    0.071471
  23 H :    0.024069
  24 H :    0.038710
  25 C :   -0.048310
  26 H :    0.028419
  27 H :    0.041445
  28 C :   -0.078150
  29 H :    0.036682
  30 H :    0.034790
  31 H :    0.031866
  32 H :    0.062781
  33 H :    0.054440
Sum of atomic charges:   -0.0000000

LOEWDIN ATOMIC CHARGES
----------------------
   0 S :    0.418945
   1 C :   -0.208313
   2 C :   -0.066588
   3 C :   -0.063961
   4 C :   -0.195898
   5 H :    0.037975
   6 C :   -0.030145
   7 H :    0.027159
   8 H :    0.026639
   9 C :   -0.031361
  10 H :    0.025081
  11 H :    0.018450
  12 C :   -0.060602
  13 H :    0.023941
  14 H :    0.019084
  15 H :    0.023917
  16 S :    0.413864
  17 C :   -0.189937
  18 C :   -0.078076
  19 C :   -0.053200
  20 C :   -0.215833
  21 H :    0.032509
  22 C :   -0.038863
  23 H :    0.035778
  24 H :    0.040186
  25 C :   -0.039692
  26 H :    0.021782
  27 H :    0.033661
  28 C :   -0.067983
  29 H :    0.028523
  30 H :    0.028191
  31 H :    0.019278
  32 H :    0.034194
  33 H :    0.031297

  Mayer bond orders larger than 0.100000
B(  0-S ,  1-C ) :   1.1515 B(  0-S ,  4-C ) :   1.1819 B(  1-C ,  2-C ) :   1.5705
B(  1-C ,  4-C ) :   0.1058 B(  1-C , 32-H ) :   0.9641 B(  2-C ,  3-C ) :   1.2599
B(  2-C ,  6-C ) :   1.0445 B(  3-C ,  4-C ) :   1.5263 B(  3-C ,  5-H ) :   0.9876
B(  4-C , 20-C ) :   1.0339 B(  6-C ,  7-H ) :   0.9303 B(  6-C ,  8-H ) :   0.9188
B(  6-C ,  9-C ) :   1.0385 B(  9-C , 10-H ) :   0.9637 B(  9-C , 11-H ) :   0.9617
B(  9-C , 12-C ) :   1.0664 B( 12-C , 13-H ) :   0.9774 B( 12-C , 14-H ) :   0.9776
B( 12-C , 15-H ) :   0.9726 B( 16-S , 17-C ) :   1.1449 B( 16-S , 20-C ) :   1.1583
B( 17-C , 18-C ) :   1.6335 B( 17-C , 33-H ) :   0.9697 B( 18-C , 19-C ) :   1.2174
B( 18-C , 21-H ) :   0.9836 B( 19-C , 20-C ) :   1.5718 B( 19-C , 22-C ) :   1.0320
B( 22-C , 23-H ) :   0.9364 B( 22-C , 24-H ) :   0.9233 B( 22-C , 25-C ) :   1.0581
B( 25-C , 26-H ) :   0.9507 B( 25-C , 27-H ) :   0.9549 B( 25-C , 28-C ) :   1.0941
B( 28-C , 29-H ) :   0.9739 B( 28-C , 30-H ) :   0.9748 B( 28-C , 31-H ) :   0.9743

Dispersion correction           -0.013961137
FINAL SINGLE POINT ENERGY     -1339.866107219440

DIPOLE MOMENT
-------------
                                X             Y             Z
Electronic contribution:    -16.41968      16.34860      10.63009
Nuclear contribution   :     16.60907     -16.78391     -10.90187
                        -----------------------------------------
Total Dipole Moment    :      0.18939      -0.43531      -0.27179
                        -----------------------------------------
Magnitude (a.u.)       :      0.54702
Magnitude (Debye)      :      1.39041

Rotational constants in cm-1:     0.016844     0.008431     0.007069
Rotational constants in MHz :   504.981886   252.762277   211.925610

                             ****ORCA TERMINATED NORMALLY****
TOTAL RUN TIME: 0 days 0 hours 0 minutes 21 seconds 398 msec
