                         Program Version 4.2.1 -  RELEASE  -
|  1> ! wB97X-D3 SP def2-SVP
|  2> %pal
|  3> nprocs 24
|  4> end
|  5>
|  6> * xyz 0 1
|  7> S 	 -106.777 	 0.788772 	 -108.12
|  8> C 	 -107.218 	 2.51818 	 -108.243
|  9> C 	 -107.21 	 2.86689 	 -109.582
| 10> C 	 -106.746 	 1.86003 	 -110.461
| 11> C 	 -106.63 	 0.624685 	 -109.866
| 12> H 	 -106.719 	 1.95395 	 -111.538
| 13> C 	 -107.682 	 4.32845 	 -110.127
| 14> H 	 -108.752 	 4.43896 	 -110.124
| 15> H 	 -107.358 	 4.36743 	 -111.171
| 16> C 	 -107.14 	 5.55792 	 -109.329
| 17> H 	 -107.413 	 6.45796 	 -109.851
| 18> H 	 -107.544 	 5.52338 	 -108.296
| 19> C 	 -105.646 	 5.44387 	 -109.218
| 20> H 	 -105.242 	 4.52657 	 -108.786
| 21> H 	 -105.223 	 5.46845 	 -110.151
| 22> H 	 -105.222 	 6.27635 	 -108.718
| 23> S 	 -104.847 	 -1.33691 	 -109.84
| 24> C 	 -104.494 	 -2.36337 	 -111.186
| 25> C 	 -105.476 	 -2.19156 	 -112.143
| 26> C 	 -106.527 	 -1.20111 	 -111.815
| 27> C 	 -106.291 	 -0.664886 	 -110.512
| 28> H 	 -105.294 	 -2.70398 	 -113.049
| 29> C 	 -107.693 	 -0.825885 	 -112.693
| 30> H 	 -108.021 	 0.147019 	 -112.443
| 31> H 	 -108.589 	 -1.46711 	 -112.363
| 32> C 	 -107.464 	 -1.11365 	 -114.254
| 33> H 	 -108.46 	 -1.1504 	 -114.747
| 34> H 	 -106.94 	 -2.0414 	 -114.431
| 35> C 	 -106.583 	 -0.166398 	 -115.078
| 36> H 	 -107.051 	 0.771248 	 -115.357
| 37> H 	 -106.317 	 -0.614331 	 -115.978
| 38> H 	 -105.693 	 0.0885465 	 -114.477
| 39> H 	 -107.647 	 3.20072 	 -107.474
| 40> H 	 -103.586 	 -2.92753 	 -111.26
| 41> *
| 42>
| 43>                          ****END OF INPUT****

CARTESIAN COORDINATES (ANGSTROEM)
---------------------------------
  S    -106.777000    0.788772  -108.120000
  C    -107.218000    2.518180  -108.243000
  C    -107.210000    2.866890  -109.582000
  C    -106.746000    1.860030  -110.461000
  C    -106.630000    0.624685  -109.866000
  H    -106.719000    1.953950  -111.538000
  C    -107.682000    4.328450  -110.127000
  H    -108.752000    4.438960  -110.124000
  H    -107.358000    4.367430  -111.171000
  C    -107.140000    5.557920  -109.329000
  H    -107.413000    6.457960  -109.851000
  H    -107.544000    5.523380  -108.296000
  C    -105.646000    5.443870  -109.218000
  H    -105.242000    4.526570  -108.786000
  H    -105.223000    5.468450  -110.151000
  H    -105.222000    6.276350  -108.718000
  S    -104.847000   -1.336910  -109.840000
  C    -104.494000   -2.363370  -111.186000
  C    -105.476000   -2.191560  -112.143000
  C    -106.527000   -1.201110  -111.815000
  C    -106.291000   -0.664886  -110.512000
  H    -105.294000   -2.703980  -113.049000
  C    -107.693000   -0.825885  -112.693000
  H    -108.021000    0.147019  -112.443000
  H    -108.589000   -1.467110  -112.363000
  C    -107.464000   -1.113650  -114.254000
  H    -108.460000   -1.150400  -114.747000
  H    -106.940000   -2.041400  -114.431000
  C    -106.583000   -0.166398  -115.078000
  H    -107.051000    0.771248  -115.357000
  H    -106.317000   -0.614331  -115.978000
  H    -105.693000    0.088547  -114.477000
  H    -107.647000    3.200720  -107.474000
  H    -103.586000   -2.927530  -111.260000

 Total Charge           Charge          ....    0
 Multiplicity           Mult            ....    1
 Number of Electrons    NEL             ....  134
 Basis Dimension        Dim             ....  322

ORBITAL ENERGIES
----------------

  NO   OCC          E(Eh)            E(eV)
   0   2.0000     -88.967486     -2420.9284
   1   2.0000     -88.962073     -2420.7811
   2   2.0000     -10.336002      -281.2569
   3   2.0000     -10.331507      -281.1346
   4   2.0000     -10.320064      -280.8232
   5   2.0000     -10.319129      -280.7978
   6   2.0000     -10.318451      -280.7793
   7   2.0000     -10.306087      -280.4429
   8   2.0000     -10.303481      -280.3720
   9   2.0000     -10.299892      -280.2743
  10   2.0000     -10.298060      -280.2245
  11   2.0000     -10.295073      -280.1432
  12   2.0000     -10.292546      -280.0744
  13   2.0000     -10.287388      -279.9340
  14   2.0000     -10.273481      -279.5556
  15   2.0000     -10.256462      -279.0925
  16   2.0000      -8.081260      -219.9023
  17   2.0000      -8.077896      -219.8107
  18   2.0000      -6.039952      -164.3554
  19   2.0000      -6.036343      -164.2572
  20   2.0000      -6.035885      -164.2448
  21   2.0000      -6.031942      -164.1375
  22   2.0000      -6.031880      -164.1358
  23   2.0000      -6.028919      -164.0552
  24   2.0000      -1.006015       -27.3751
  25   2.0000      -0.981285       -26.7021
  26   2.0000      -0.906238       -24.6600
  27   2.0000      -0.904210       -24.6048
  28   2.0000      -0.869451       -23.6590
  29   2.0000      -0.851729       -23.1767
  30   2.0000      -0.841051       -22.8862
  31   2.0000      -0.814967       -22.1764
  32   2.0000      -0.783825       -21.3290
  33   2.0000      -0.775312       -21.0973
  34   2.0000      -0.707424       -19.2500
  35   2.0000      -0.701317       -19.0838
  36   2.0000      -0.694526       -18.8990
  37   2.0000      -0.654903       -17.8208
  38   2.0000      -0.632783       -17.2189
  39   2.0000      -0.617498       -16.8030
  40   2.0000      -0.601218       -16.3600
  41   2.0000      -0.574511       -15.6332
  42   2.0000      -0.550287       -14.9741
  43   2.0000      -0.546779       -14.8786
  44   2.0000      -0.543630       -14.7929
  45   2.0000      -0.537710       -14.6318
  46   2.0000      -0.525776       -14.3071
  47   2.0000      -0.508665       -13.8415
  48   2.0000      -0.504090       -13.7170
  49   2.0000      -0.501880       -13.6568
  50   2.0000      -0.488857       -13.3025
  51   2.0000      -0.479059       -13.0359
  52   2.0000      -0.476904       -12.9772
  53   2.0000      -0.470709       -12.8087
  54   2.0000      -0.456085       -12.4107
  55   2.0000      -0.443752       -12.0751
  56   2.0000      -0.440851       -11.9962
  57   2.0000      -0.436072       -11.8661
  58   2.0000      -0.428185       -11.6515
  59   2.0000      -0.425353       -11.5744
  60   2.0000      -0.423439       -11.5224
  61   2.0000      -0.415455       -11.3051
  62   2.0000      -0.409643       -11.1470
  63   2.0000      -0.351467        -9.5639
  64   2.0000      -0.333251        -9.0682
  65   2.0000      -0.323613        -8.8059
  66   2.0000      -0.291985        -7.9453
  67   0.0000       0.026277         0.7150
  68   0.0000       0.065161         1.7731
  69   0.0000       0.107683         2.9302
  70   0.0000       0.114709         3.1214
  71   0.0000       0.133382         3.6295

MULLIKEN ATOMIC CHARGES
-----------------------
   0 S :    0.101192
   1 C :   -0.127643
   2 C :   -0.124328
   3 C :    0.038832
   4 C :   -0.154412
   5 H :    0.013903
   6 C :    0.059541
   7 H :    0.039107
   8 H :    0.019783
   9 C :   -0.077336
  10 H :    0.033550
  11 H :    0.030663
  12 C :   -0.008328
  13 H :    0.042384
  14 H :   -0.006059
  15 H :    0.016666
  16 S :    0.093359
  17 C :   -0.093036
  18 C :   -0.030269
  19 C :   -0.067811
  20 C :   -0.106092
  21 H :    0.009744
  22 C :    0.082138
  23 H :    0.009427
  24 H :    0.060466
  25 C :   -0.103980
  26 H :    0.036932
  27 H :    0.032196
  28 C :   -0.027020
  29 H :    0.021837
  30 H :    0.020287
  31 H :    0.034561
  32 H :    0.067668
  33 H :    0.062073
Sum of atomic charges:   -0.0000000

LOEWDIN ATOMIC CHARGES
----------------------
   0 S :    0.387697
   1 C :   -0.203827
   2 C :   -0.059039
   3 C :   -0.075111
   4 C :   -0.185038
   5 H :    0.030280
   6 C :   -0.023047
   7 H :    0.027372
   8 H :    0.025206
   9 C :   -0.036544
  10 H :    0.026156
  11 H :    0.023671
  12 C :   -0.063634
  13 H :    0.030423
  14 H :    0.012329
  15 H :    0.019569
  16 S :    0.428960
  17 C :   -0.185872
  18 C :   -0.074374
  19 C :   -0.047998
  20 C :   -0.211737
  21 H :    0.023556
  22 C :   -0.032973
  23 H :    0.022177
  24 H :    0.052586
  25 C :   -0.040328
  26 H :    0.028892
  27 H :    0.023794
  28 C :   -0.062628
  29 H :    0.020237
  30 H :    0.018046
  31 H :    0.028742
  32 H :    0.041860
  33 H :    0.030598

  Mayer bond orders larger than 0.100000
B(  0-S ,  1-C ) :   1.1169 B(  0-S ,  4-C ) :   1.1560 B(  1-C ,  2-C ) :   1.6314
B(  1-C , 32-H ) :   0.9627 B(  2-C ,  3-C ) :   1.2583 B(  2-C ,  6-C ) :   0.9880
B(  3-C ,  4-C ) :   1.5798 B(  3-C ,  5-H ) :   0.9831 B(  4-C , 20-C ) :   1.0047
B(  6-C ,  7-H ) :   0.9475 B(  6-C ,  8-H ) :   0.9490 B(  6-C ,  9-C ) :   1.0781
B(  9-C , 10-H ) :   0.9546 B(  9-C , 11-H ) :   0.9535 B(  9-C , 12-C ) :   1.0878
B( 12-C , 13-H ) :   0.9677 B( 12-C , 14-H ) :   0.9701 B( 12-C , 15-H ) :   0.9711
B( 16-S , 17-C ) :   1.1771 B( 16-S , 20-C ) :   1.1637 B( 17-C , 18-C ) :   1.5914
B( 17-C , 33-H ) :   0.9714 B( 18-C , 19-C ) :   1.2314 B( 18-C , 21-H ) :   0.9972
B( 19-C , 20-C ) :   1.5563 B( 19-C , 22-C ) :   1.0410 B( 22-C , 23-H ) :   0.9398
B( 22-C , 24-H ) :   0.9330 B( 22-C , 25-C ) :   1.0540 B( 25-C , 26-H ) :   0.9583
B( 25-C , 27-H ) :   0.9607 B( 25-C , 28-C ) :   1.0773 B( 28-C , 29-H ) :   0.9758
B( 28-C , 30-H ) :   0.9752 B( 28-C , 31-H ) :   0.9742

Dispersion correction           -0.014171194
FINAL SINGLE POINT ENERGY     -1339.857145719094

DIPOLE MOMENT
-------------
                                X             Y             Z
Electronic contribution:      4.96525     -17.20113      18.27460
Nuclear contribution   :     -5.09513      17.48155     -19.04371
                        -----------------------------------------
Total Dipole Moment    :     -0.12987       0.28042      -0.76911
                        -----------------------------------------
Magnitude (a.u.)       :      0.82888
Magnitude (Debye)      :      2.10683

Rotational constants in cm-1:     0.019520     0.008163     0.006498
Rotational constants in MHz :   585.199296   244.727202   194.791665

                             ****ORCA TERMINATED NORMALLY****
TOTAL RUN TIME: 0 days 0 hours 0 minutes 21 seconds 346 msec
