                         Program Version 4.2.1 -  RELEASE  -
|  1> ! wB97X-D3 SP def2-SVP
|  2> %pal
|  3> nprocs 24
|  4> end
|  5>
|  6> * xyz 0 1
|  7> S 	 -83.831 	 -9.0658 	 -57.2072
|  8> C 	 -85.4445 	 -9.72828 	 -56.8868
|  9> C 	 -86.4291 	 -8.82844 	 -57.2096
| 10> C 	 -85.8956 	 -7.59711 	 -57.6787
| 11> C 	 -84.4992 	 -7.51439 	 -57.6727
| 12> H 	 -86.4529 	 -6.74414 	 -57.994
| 13> C 	 -87.8275 	 -9.09174 	 -56.9264
| 14> H 	 -88.12 	 -10.1115 	 -57.2809
| 15> H 	 -88.3759 	 -8.49032 	 -57.6922
| 16> C 	 -88.4478 	 -8.71564 	 -55.57
| 17> H 	 -87.8454 	 -9.36181 	 -54.8493
| 18> H 	 -88.2445 	 -7.69936 	 -55.3273
| 19> C 	 -89.9822 	 -9.04832 	 -55.655
| 20> H 	 -90.1844 	 -10.082 	 -56.1487
| 21> H 	 -90.3207 	 -9.21943 	 -54.6184
| 22> H 	 -90.5333 	 -8.27039 	 -56.1732
| 23> S 	 -82.4736 	 -5.67243 	 -56.9364
| 24> C 	 -82.1371 	 -4.39249 	 -58.0478
| 25> C 	 -82.8026 	 -4.50301 	 -59.2724
| 26> C 	 -83.5915 	 -5.72855 	 -59.3471
| 27> C 	 -83.6932 	 -6.34038 	 -58.0735
| 28> H 	 -82.5364 	 -3.72937 	 -60.0637
| 29> C 	 -84.1821 	 -6.33262 	 -60.6082
| 30> H 	 -84.5877 	 -5.57387 	 -61.3063
| 31> H 	 -84.9895 	 -6.99686 	 -60.4403
| 32> C 	 -83.1743 	 -7.16543 	 -61.4059
| 33> H 	 -82.7461 	 -8.00374 	 -60.8322
| 34> H 	 -82.3003 	 -6.57216 	 -61.4677
| 35> C 	 -83.6371 	 -7.70801 	 -62.7319
| 36> H 	 -84.6499 	 -7.98843 	 -62.7041
| 37> H 	 -82.8734 	 -8.44592 	 -63.0013
| 38> H 	 -83.5759 	 -6.79654 	 -63.3666
| 39> H 	 -85.5206 	 -10.7499 	 -56.514
| 40> H 	 -81.4967 	 -3.5833 	 -57.6421
| 41> *
| 42>
| 43>                          ****END OF INPUT****

CARTESIAN COORDINATES (ANGSTROEM)
---------------------------------
  S    -83.831000   -9.065800  -57.207200
  C    -85.444500   -9.728280  -56.886800
  C    -86.429100   -8.828440  -57.209600
  C    -85.895600   -7.597110  -57.678700
  C    -84.499200   -7.514390  -57.672700
  H    -86.452900   -6.744140  -57.994000
  C    -87.827500   -9.091740  -56.926400
  H    -88.120000  -10.111500  -57.280900
  H    -88.375900   -8.490320  -57.692200
  C    -88.447800   -8.715640  -55.570000
  H    -87.845400   -9.361810  -54.849300
  H    -88.244500   -7.699360  -55.327300
  C    -89.982200   -9.048320  -55.655000
  H    -90.184400  -10.082000  -56.148700
  H    -90.320700   -9.219430  -54.618400
  H    -90.533300   -8.270390  -56.173200
  S    -82.473600   -5.672430  -56.936400
  C    -82.137100   -4.392490  -58.047800
  C    -82.802600   -4.503010  -59.272400
  C    -83.591500   -5.728550  -59.347100
  C    -83.693200   -6.340380  -58.073500
  H    -82.536400   -3.729370  -60.063700
  C    -84.182100   -6.332620  -60.608200
  H    -84.587700   -5.573870  -61.306300
  H    -84.989500   -6.996860  -60.440300
  C    -83.174300   -7.165430  -61.405900
  H    -82.746100   -8.003740  -60.832200
  H    -82.300300   -6.572160  -61.467700
  C    -83.637100   -7.708010  -62.731900
  H    -84.649900   -7.988430  -62.704100
  H    -82.873400   -8.445920  -63.001300
  H    -83.575900   -6.796540  -63.366600
  H    -85.520600  -10.749900  -56.514000
  H    -81.496700   -3.583300  -57.642100

 Total Charge           Charge          ....    0
 Multiplicity           Mult            ....    1
 Number of Electrons    NEL             ....  134
 Basis Dimension        Dim             ....  322

ORBITAL ENERGIES
----------------

  NO   OCC          E(Eh)            E(eV)
   0   2.0000     -88.965708     -2420.8800
   1   2.0000     -88.963166     -2420.8108
   2   2.0000     -10.332734      -281.1680
   3   2.0000     -10.330446      -281.1057
   4   2.0000     -10.323233      -280.9095
   5   2.0000     -10.316074      -280.7147
   6   2.0000     -10.313686      -280.6497
   7   2.0000     -10.307798      -280.4894
   8   2.0000     -10.295746      -280.1615
   9   2.0000     -10.294017      -280.1144
  10   2.0000     -10.291947      -280.0581
  11   2.0000     -10.291584      -280.0482
  12   2.0000     -10.288948      -279.9765
  13   2.0000     -10.288454      -279.9631
  14   2.0000     -10.274420      -279.5812
  15   2.0000     -10.273192      -279.5478
  16   2.0000      -8.080466      -219.8806
  17   2.0000      -8.077577      -219.8021
  18   2.0000      -6.038841      -164.3252
  19   2.0000      -6.036025      -164.2486
  20   2.0000      -6.035047      -164.2220
  21   2.0000      -6.032060      -164.1407
  22   2.0000      -6.031292      -164.1198
  23   2.0000      -6.028512      -164.0442
  24   2.0000      -0.999475       -27.1971
  25   2.0000      -0.980012       -26.6675
  26   2.0000      -0.912274       -24.8242
  27   2.0000      -0.911581       -24.8054
  28   2.0000      -0.863498       -23.4970
  29   2.0000      -0.852214       -23.1899
  30   2.0000      -0.843180       -22.9441
  31   2.0000      -0.810384       -22.0517
  32   2.0000      -0.782287       -21.2871
  33   2.0000      -0.765883       -20.8407
  34   2.0000      -0.704377       -19.1671
  35   2.0000      -0.697398       -18.9772
  36   2.0000      -0.691673       -18.8214
  37   2.0000      -0.653825       -17.7915
  38   2.0000      -0.642769       -17.4906
  39   2.0000      -0.619116       -16.8470
  40   2.0000      -0.599060       -16.3013
  41   2.0000      -0.567127       -15.4323
  42   2.0000      -0.562378       -15.3031
  43   2.0000      -0.554607       -15.0916
  44   2.0000      -0.532975       -14.5030
  45   2.0000      -0.518051       -14.0969
  46   2.0000      -0.517180       -14.0732
  47   2.0000      -0.512176       -13.9370
  48   2.0000      -0.507528       -13.8105
  49   2.0000      -0.498273       -13.5587
  50   2.0000      -0.488289       -13.2870
  51   2.0000      -0.471644       -12.8341
  52   2.0000      -0.468110       -12.7379
  53   2.0000      -0.460438       -12.5291
  54   2.0000      -0.457462       -12.4482
  55   2.0000      -0.448313       -12.1992
  56   2.0000      -0.445633       -12.1263
  57   2.0000      -0.440849       -11.9961
  58   2.0000      -0.436584       -11.8800
  59   2.0000      -0.428192       -11.6517
  60   2.0000      -0.420767       -11.4496
  61   2.0000      -0.406612       -11.0645
  62   2.0000      -0.398912       -10.8550
  63   2.0000      -0.336822        -9.1654
  64   2.0000      -0.331150        -9.0110
  65   2.0000      -0.328268        -8.9326
  66   2.0000      -0.294301        -8.0083
  67   0.0000       0.031150         0.8476
  68   0.0000       0.060698         1.6517
  69   0.0000       0.109892         2.9903
  70   0.0000       0.121655         3.3104
  71   0.0000       0.126266         3.4359

MULLIKEN ATOMIC CHARGES
-----------------------
   0 S :    0.100274
   1 C :   -0.144817
   2 C :   -0.041475
   3 C :    0.048519
   4 C :   -0.155677
   5 H :    0.001239
   6 C :    0.001291
   7 H :    0.027165
   8 H :    0.008709
   9 C :   -0.032457
  10 H :    0.033549
  11 H :    0.029513
  12 C :   -0.075541
  13 H :    0.041826
  14 H :    0.041696
  15 H :    0.050920
  16 S :    0.104954
  17 C :   -0.123322
  18 C :   -0.042311
  19 C :   -0.028462
  20 C :   -0.176978
  21 H :    0.052581
  22 C :    0.095491
  23 H :    0.018877
  24 H :    0.011533
  25 C :   -0.106829
  26 H :    0.017170
  27 H :    0.004541
  28 C :    0.003122
  29 H :    0.026302
  30 H :    0.048793
  31 H :    0.025953
  32 H :    0.055464
  33 H :    0.078384
Sum of atomic charges:   -0.0000000

LOEWDIN ATOMIC CHARGES
----------------------
   0 S :    0.390937
   1 C :   -0.184117
   2 C :   -0.074259
   3 C :   -0.056661
   4 C :   -0.195450
   5 H :    0.027734
   6 C :   -0.050344
   7 H :    0.033246
   8 H :    0.029206
   9 C :   -0.032573
  10 H :    0.029433
  11 H :    0.021888
  12 C :   -0.069842
  13 H :    0.035874
  14 H :    0.029147
  15 H :    0.026933
  16 S :    0.395324
  17 C :   -0.191540
  18 C :   -0.084933
  19 C :   -0.040139
  20 C :   -0.191648
  21 H :    0.047409
  22 C :   -0.031047
  23 H :    0.030615
  24 H :    0.023928
  25 C :   -0.045866
  26 H :    0.021976
  27 H :    0.013804
  28 C :   -0.056967
  29 H :    0.018816
  30 H :    0.036471
  31 H :    0.029922
  32 H :    0.028978
  33 H :    0.033748

  Mayer bond orders larger than 0.100000
B(  0-S ,  1-C ) :   1.1377 B(  0-S ,  4-C ) :   1.1579 B(  1-C ,  2-C ) :   1.5790
B(  1-C , 32-H ) :   0.9748 B(  2-C ,  3-C ) :   1.2441 B(  2-C ,  6-C ) :   1.0408
B(  3-C ,  4-C ) :   1.5638 B(  3-C ,  5-H ) :   1.0019 B(  4-C , 20-C ) :   1.0350
B(  6-C ,  7-H ) :   0.9377 B(  6-C ,  8-H ) :   0.9305 B(  6-C ,  9-C ) :   1.0522
B(  9-C , 10-H ) :   0.9578 B(  9-C , 11-H ) :   0.9550 B(  9-C , 12-C ) :   1.0592
B( 12-C , 13-H ) :   0.9747 B( 12-C , 14-H ) :   0.9757 B( 12-C , 15-H ) :   0.9765
B( 16-S , 17-C ) :   1.1726 B( 16-S , 20-C ) :   1.1337 B( 17-C , 18-C ) :   1.6049
B( 17-C , 20-C ) :   0.1002 B( 17-C , 33-H ) :   0.9620 B( 18-C , 19-C ) :   1.2157
B( 18-C , 21-H ) :   0.9809 B( 19-C , 20-C ) :   1.5928 B( 19-C , 22-C ) :   1.0567
B( 22-C , 23-H ) :   0.9357 B( 22-C , 24-H ) :   0.9230 B( 22-C , 25-C ) :   1.0622
B( 25-C , 26-H ) :   0.9515 B( 25-C , 27-H ) :   0.9552 B( 25-C , 28-C ) :   1.0729
B( 28-C , 29-H ) :   0.9746 B( 28-C , 30-H ) :   0.9729 B( 28-C , 31-H ) :   0.9750

Dispersion correction           -0.013874710
FINAL SINGLE POINT ENERGY     -1339.868318900922

DIPOLE MOMENT
-------------
                                X             Y             Z
Electronic contribution:     19.64554       5.49281      11.35459
Nuclear contribution   :    -20.02574      -5.40870     -11.63134
                        -----------------------------------------
Total Dipole Moment    :     -0.38020       0.08411      -0.27675
                        -----------------------------------------
Magnitude (a.u.)       :      0.47772
Magnitude (Debye)      :      1.21427

Rotational constants in cm-1:     0.019025     0.007487     0.006529
Rotational constants in MHz :   570.368420   224.445651   195.720998

                             ****ORCA TERMINATED NORMALLY****
TOTAL RUN TIME: 0 days 0 hours 0 minutes 21 seconds 158 msec
