                         Program Version 4.2.1 -  RELEASE  -
|  1> ! wB97X-D3 SP def2-SVP
|  2> %pal
|  3> nprocs 24
|  4> end
|  5>
|  6> * xyz 0 1
|  7> S 	 -63.8594 	 17.5948 	 -118.497
|  8> C 	 -64.0757 	 15.9135 	 -118.194
|  9> C 	 -63.3344 	 15.504 	 -117.086
| 10> C 	 -62.435 	 16.4782 	 -116.587
| 11> C 	 -62.7031 	 17.7464 	 -117.117
| 12> H 	 -61.6785 	 16.3301 	 -115.803
| 13> C 	 -63.3808 	 14.0732 	 -116.508
| 14> H 	 -63.6316 	 14.3795 	 -115.494
| 15> H 	 -62.4462 	 13.5849 	 -116.377
| 16> C 	 -64.4624 	 13.0945 	 -117.094
| 17> H 	 -65.4205 	 13.57 	 -117.114
| 18> H 	 -64.136 	 12.9012 	 -118.124
| 19> C 	 -64.5817 	 11.8012 	 -116.315
| 20> H 	 -63.6562 	 11.1721 	 -116.362
| 21> H 	 -64.7025 	 11.9669 	 -115.312
| 22> H 	 -65.4989 	 11.2227 	 -116.604
| 23> S 	 -61.7183 	 20.1115 	 -118.074
| 24> C 	 -60.8537 	 21.2254 	 -117.08
| 25> C 	 -60.7826 	 20.7372 	 -115.808
| 26> C 	 -61.4072 	 19.4732 	 -115.62
| 27> C 	 -61.9629 	 18.9882 	 -116.81
| 28> H 	 -60.0995 	 21.2465 	 -115.236
| 29> C 	 -61.3258 	 18.7526 	 -114.269
| 30> H 	 -60.4581 	 18.0944 	 -114.143
| 31> H 	 -62.0959 	 17.9648 	 -114.346
| 32> C 	 -61.6632 	 19.5322 	 -113.058
| 33> H 	 -62.722 	 19.9127 	 -113.11
| 34> H 	 -61.0979 	 20.3902 	 -112.865
| 35> C 	 -61.6836 	 18.6636 	 -111.881
| 36> H 	 -62.6603 	 18.802 	 -111.361
| 37> H 	 -60.7781 	 18.676 	 -111.328
| 38> H 	 -61.9188 	 17.645 	 -112.145
| 39> H 	 -64.7432 	 15.2307 	 -118.615
| 40> H 	 -60.2151 	 22.0668 	 -117.292
| 41> *
| 42>
| 43>                          ****END OF INPUT****

CARTESIAN COORDINATES (ANGSTROEM)
---------------------------------
  S    -63.859400   17.594800  -118.497000
  C    -64.075700   15.913500  -118.194000
  C    -63.334400   15.504000  -117.086000
  C    -62.435000   16.478200  -116.587000
  C    -62.703100   17.746400  -117.117000
  H    -61.678500   16.330100  -115.803000
  C    -63.380800   14.073200  -116.508000
  H    -63.631600   14.379500  -115.494000
  H    -62.446200   13.584900  -116.377000
  C    -64.462400   13.094500  -117.094000
  H    -65.420500   13.570000  -117.114000
  H    -64.136000   12.901200  -118.124000
  C    -64.581700   11.801200  -116.315000
  H    -63.656200   11.172100  -116.362000
  H    -64.702500   11.966900  -115.312000
  H    -65.498900   11.222700  -116.604000
  S    -61.718300   20.111500  -118.074000
  C    -60.853700   21.225400  -117.080000
  C    -60.782600   20.737200  -115.808000
  C    -61.407200   19.473200  -115.620000
  C    -61.962900   18.988200  -116.810000
  H    -60.099500   21.246500  -115.236000
  C    -61.325800   18.752600  -114.269000
  H    -60.458100   18.094400  -114.143000
  H    -62.095900   17.964800  -114.346000
  C    -61.663200   19.532200  -113.058000
  H    -62.722000   19.912700  -113.110000
  H    -61.097900   20.390200  -112.865000
  C    -61.683600   18.663600  -111.881000
  H    -62.660300   18.802000  -111.361000
  H    -60.778100   18.676000  -111.328000
  H    -61.918800   17.645000  -112.145000
  H    -64.743200   15.230700  -118.615000
  H    -60.215100   22.066800  -117.292000

 Total Charge           Charge          ....    0
 Multiplicity           Mult            ....    1
 Number of Electrons    NEL             ....  134
 Basis Dimension        Dim             ....  322

ORBITAL ENERGIES
----------------

  NO   OCC          E(Eh)            E(eV)
   0   2.0000     -88.969962     -2420.9957
   1   2.0000     -88.965136     -2420.8644
   2   2.0000     -10.339511      -281.3524
   3   2.0000     -10.329180      -281.0713
   4   2.0000     -10.310026      -280.5501
   5   2.0000     -10.308469      -280.5077
   6   2.0000     -10.303857      -280.3822
   7   2.0000     -10.303185      -280.3639
   8   2.0000     -10.299203      -280.2556
   9   2.0000     -10.293083      -280.0890
  10   2.0000     -10.291291      -280.0403
  11   2.0000     -10.290580      -280.0209
  12   2.0000     -10.282109      -279.7904
  13   2.0000     -10.279473      -279.7187
  14   2.0000     -10.274891      -279.5940
  15   2.0000     -10.269121      -279.4370
  16   2.0000      -8.083790      -219.9711
  17   2.0000      -8.080907      -219.8927
  18   2.0000      -6.042437      -164.4231
  19   2.0000      -6.039406      -164.3406
  20   2.0000      -6.038458      -164.3148
  21   2.0000      -6.035101      -164.2235
  22   2.0000      -6.034422      -164.2050
  23   2.0000      -6.031773      -164.1329
  24   2.0000      -1.010095       -27.4861
  25   2.0000      -0.986424       -26.8420
  26   2.0000      -0.924865       -25.1669
  27   2.0000      -0.909149       -24.7392
  28   2.0000      -0.872606       -23.7448
  29   2.0000      -0.859188       -23.3797
  30   2.0000      -0.850722       -23.1493
  31   2.0000      -0.820194       -22.3186
  32   2.0000      -0.781541       -21.2668
  33   2.0000      -0.770937       -20.9783
  34   2.0000      -0.718925       -19.5630
  35   2.0000      -0.705434       -19.1958
  36   2.0000      -0.698236       -19.0000
  37   2.0000      -0.658985       -17.9319
  38   2.0000      -0.636055       -17.3079
  39   2.0000      -0.619339       -16.8531
  40   2.0000      -0.597998       -16.2724
  41   2.0000      -0.580991       -15.8096
  42   2.0000      -0.579499       -15.7690
  43   2.0000      -0.565489       -15.3877
  44   2.0000      -0.529859       -14.4182
  45   2.0000      -0.521772       -14.1981
  46   2.0000      -0.520708       -14.1692
  47   2.0000      -0.514228       -13.9928
  48   2.0000      -0.508849       -13.8465
  49   2.0000      -0.504810       -13.7366
  50   2.0000      -0.494169       -13.4470
  51   2.0000      -0.486011       -13.2250
  52   2.0000      -0.480975       -13.0880
  53   2.0000      -0.472021       -12.8444
  54   2.0000      -0.460681       -12.5358
  55   2.0000      -0.450520       -12.2593
  56   2.0000      -0.439832       -11.9684
  57   2.0000      -0.434161       -11.8141
  58   2.0000      -0.432460       -11.7678
  59   2.0000      -0.423847       -11.5335
  60   2.0000      -0.419784       -11.4229
  61   2.0000      -0.412152       -11.2152
  62   2.0000      -0.407928       -11.1003
  63   2.0000      -0.360070        -9.7980
  64   2.0000      -0.332388        -9.0448
  65   2.0000      -0.327204        -8.9037
  66   2.0000      -0.285006        -7.7554
  67   0.0000       0.023798         0.6476
  68   0.0000       0.083226         2.2647
  69   0.0000       0.106988         2.9113
  70   0.0000       0.121365         3.3025
  71   0.0000       0.140671         3.8279

MULLIKEN ATOMIC CHARGES
-----------------------
   0 S :    0.113744
   1 C :   -0.084149
   2 C :   -0.100547
   3 C :   -0.008587
   4 C :   -0.123134
   5 H :    0.027801
   6 C :    0.052342
   7 H :    0.022775
   8 H :    0.027452
   9 C :   -0.093206
  10 H :    0.033386
  11 H :    0.041847
  12 C :   -0.020624
  13 H :    0.034834
  14 H :    0.005177
  15 H :    0.041698
  16 S :    0.108598
  17 C :   -0.083080
  18 C :   -0.025471
  19 C :   -0.027156
  20 C :   -0.136021
  21 H :   -0.010864
  22 C :    0.035125
  23 H :    0.040559
  24 H :    0.009837
  25 C :   -0.057189
  26 H :    0.030555
  27 H :    0.017398
  28 C :   -0.014494
  29 H :    0.027013
  30 H :    0.039918
  31 H :   -0.002482
  32 H :    0.025686
  33 H :    0.051260
Sum of atomic charges:    0.0000000

LOEWDIN ATOMIC CHARGES
----------------------
   0 S :    0.396000
   1 C :   -0.208209
   2 C :   -0.058319
   3 C :   -0.065264
   4 C :   -0.169395
   5 H :    0.036490
   6 C :   -0.031555
   7 H :    0.032950
   8 H :    0.025399
   9 C :   -0.040751
  10 H :    0.022140
  11 H :    0.026734
  12 C :   -0.063446
  13 H :    0.031163
  14 H :    0.011325
  15 H :    0.035557
  16 S :    0.433366
  17 C :   -0.196428
  18 C :   -0.065820
  19 C :   -0.057961
  20 C :   -0.207250
  21 H :    0.017957
  22 C :   -0.040634
  23 H :    0.031001
  24 H :    0.030275
  25 C :   -0.046890
  26 H :    0.035888
  27 H :    0.014958
  28 C :   -0.065996
  29 H :    0.038280
  30 H :    0.022582
  31 H :    0.021813
  32 H :    0.018608
  33 H :    0.035433

  Mayer bond orders larger than 0.100000
B(  0-S ,  1-C ) :   1.1234 B(  0-S ,  4-C ) :   1.1422 B(  1-C ,  2-C ) :   1.6230
B(  1-C , 32-H ) :   0.9605 B(  2-C ,  3-C ) :   1.2576 B(  2-C ,  6-C ) :   0.9884
B(  3-C ,  4-C ) :   1.5536 B(  3-C ,  5-H ) :   0.9846 B(  4-C , 20-C ) :   1.0622
B(  6-C ,  7-H ) :   0.9346 B(  6-C ,  8-H ) :   0.9496 B(  6-C ,  9-C ) :   1.0712
B(  9-C , 10-H ) :   0.9516 B(  9-C , 11-H ) :   0.9523 B(  9-C , 12-C ) :   1.0918
B( 12-C , 13-H ) :   0.9726 B( 12-C , 14-H ) :   0.9719 B( 12-C , 15-H ) :   0.9718
B( 16-S , 17-C ) :   1.1553 B( 16-S , 20-C ) :   1.1547 B( 17-C , 18-C ) :   1.6260
B( 17-C , 33-H ) :   0.9633 B( 18-C , 19-C ) :   1.2507 B( 18-C , 21-H ) :   0.9972
B( 19-C , 20-C ) :   1.5666 B( 19-C , 22-C ) :   1.0304 B( 22-C , 23-H ) :   0.9380
B( 22-C , 24-H ) :   0.9186 B( 22-C , 25-C ) :   1.0743 B( 25-C , 26-H ) :   0.9551
B( 25-C , 27-H ) :   0.9530 B( 25-C , 28-C ) :   1.0912 B( 28-C , 29-H ) :   0.9713
B( 28-C , 30-H ) :   0.9742 B( 28-C , 31-H ) :   0.9599

Dispersion correction           -0.013126655
FINAL SINGLE POINT ENERGY     -1339.847140324523

DIPOLE MOMENT
-------------
                                X             Y             Z
Electronic contribution:      1.82726      20.28862     -23.12460
Nuclear contribution   :     -1.59527     -20.74677      23.76654
                        -----------------------------------------
Total Dipole Moment    :      0.23199      -0.45815       0.64194
                        -----------------------------------------
Magnitude (a.u.)       :      0.82207
Magnitude (Debye)      :      2.08955

Rotational constants in cm-1:     0.018797     0.007781     0.005717
Rotational constants in MHz :   563.521855   233.280603   171.398618

                             ****ORCA TERMINATED NORMALLY****
TOTAL RUN TIME: 0 days 0 hours 0 minutes 20 seconds 923 msec
