                         Program Version 4.2.1 -  RELEASE  -
|  1> ! wB97X-D3 SP def2-SVP
|  2> %pal
|  3> nprocs 24
|  4> end
|  5>
|  6> * xyz 0 1
|  7> S 	 -86.666 	 3.00281 	 -113.345
|  8> C 	 -87.7587 	 2.2064 	 -112.177
|  9> C 	 -88.9341 	 1.70806 	 -112.683
| 10> C 	 -89.0674 	 2.10817 	 -114.055
| 11> C 	 -87.9444 	 2.76937 	 -114.526
| 12> H 	 -89.9159 	 1.97508 	 -114.75
| 13> C 	 -90.0996 	 1.13467 	 -111.866
| 14> H 	 -91.0179 	 1.72889 	 -112.09
| 15> H 	 -89.8641 	 1.32958 	 -110.804
| 16> C 	 -90.2196 	 -0.392683 	 -112.131
| 17> H 	 -91.1464 	 -0.700708 	 -111.656
| 18> H 	 -90.4238 	 -0.440528 	 -113.166
| 19> C 	 -89.0151 	 -1.231 	 -111.606
| 20> H 	 -88.7304 	 -1.10689 	 -110.611
| 21> H 	 -89.3719 	 -2.31295 	 -111.567
| 22> H 	 -88.0995 	 -1.00322 	 -112.233
| 23> S 	 -88.2627 	 2.02201 	 -117.16
| 24> C 	 -87.5043 	 2.98977 	 -118.4
| 25> C 	 -86.8002 	 4.05454 	 -117.889
| 26> C 	 -87.0324 	 4.27339 	 -116.504
| 27> C 	 -87.7603 	 3.18506 	 -115.904
| 28> H 	 -86.2434 	 4.58549 	 -118.607
| 29> C 	 -86.2587 	 5.40784 	 -115.739
| 30> H 	 -85.7668 	 5.98513 	 -116.511
| 31> H 	 -85.5851 	 4.90022 	 -115.038
| 32> C 	 -87.0476 	 6.35175 	 -114.853
| 33> H 	 -86.4696 	 7.18843 	 -114.423
| 34> H 	 -87.3652 	 5.81264 	 -114.009
| 35> C 	 -88.2858 	 6.90738 	 -115.587
| 36> H 	 -89.0639 	 7.41021 	 -114.889
| 37> H 	 -88.6942 	 6.08942 	 -116.207
| 38> H 	 -87.944 	 7.72193 	 -116.239
| 39> H 	 -87.4919 	 2.17956 	 -111.17
| 40> H 	 -87.2948 	 2.5774 	 -119.331
| 41> *
| 42>
| 43>                          ****END OF INPUT****

CARTESIAN COORDINATES (ANGSTROEM)
---------------------------------
  S    -86.666000    3.002810  -113.345000
  C    -87.758700    2.206400  -112.177000
  C    -88.934100    1.708060  -112.683000
  C    -89.067400    2.108170  -114.055000
  C    -87.944400    2.769370  -114.526000
  H    -89.915900    1.975080  -114.750000
  C    -90.099600    1.134670  -111.866000
  H    -91.017900    1.728890  -112.090000
  H    -89.864100    1.329580  -110.804000
  C    -90.219600   -0.392683  -112.131000
  H    -91.146400   -0.700708  -111.656000
  H    -90.423800   -0.440528  -113.166000
  C    -89.015100   -1.231000  -111.606000
  H    -88.730400   -1.106890  -110.611000
  H    -89.371900   -2.312950  -111.567000
  H    -88.099500   -1.003220  -112.233000
  S    -88.262700    2.022010  -117.160000
  C    -87.504300    2.989770  -118.400000
  C    -86.800200    4.054540  -117.889000
  C    -87.032400    4.273390  -116.504000
  C    -87.760300    3.185060  -115.904000
  H    -86.243400    4.585490  -118.607000
  C    -86.258700    5.407840  -115.739000
  H    -85.766800    5.985130  -116.511000
  H    -85.585100    4.900220  -115.038000
  C    -87.047600    6.351750  -114.853000
  H    -86.469600    7.188430  -114.423000
  H    -87.365200    5.812640  -114.009000
  C    -88.285800    6.907380  -115.587000
  H    -89.063900    7.410210  -114.889000
  H    -88.694200    6.089420  -116.207000
  H    -87.944000    7.721930  -116.239000
  H    -87.491900    2.179560  -111.170000
  H    -87.294800    2.577400  -119.331000

 Total Charge           Charge          ....    0
 Multiplicity           Mult            ....    1
 Number of Electrons    NEL             ....  134
 Basis Dimension        Dim             ....  322

ORBITAL ENERGIES
----------------

  NO   OCC          E(Eh)            E(eV)
   0   2.0000     -88.971899     -2421.0485
   1   2.0000     -88.967546     -2420.9300
   2   2.0000     -10.332635      -281.1653
   3   2.0000     -10.330655      -281.1114
   4   2.0000     -10.313462      -280.6436
   5   2.0000     -10.312296      -280.6118
   6   2.0000     -10.309930      -280.5475
   7   2.0000     -10.304535      -280.4006
   8   2.0000     -10.299307      -280.2584
   9   2.0000     -10.297286      -280.2034
  10   2.0000     -10.293888      -280.1109
  11   2.0000     -10.292555      -280.0747
  12   2.0000     -10.287458      -279.9360
  13   2.0000     -10.284359      -279.8516
  14   2.0000     -10.275039      -279.5980
  15   2.0000     -10.274433      -279.5815
  16   2.0000      -8.085566      -220.0194
  17   2.0000      -8.081697      -219.9142
  18   2.0000      -6.044044      -164.4668
  19   2.0000      -6.040502      -164.3704
  20   2.0000      -6.040135      -164.3604
  21   2.0000      -6.036232      -164.2542
  22   2.0000      -6.036169      -164.2525
  23   2.0000      -6.032633      -164.1563
  24   2.0000      -1.003131       -27.2966
  25   2.0000      -0.979796       -26.6616
  26   2.0000      -0.909622       -24.7521
  27   2.0000      -0.905299       -24.6344
  28   2.0000      -0.868521       -23.6337
  29   2.0000      -0.849763       -23.1232
  30   2.0000      -0.839561       -22.8456
  31   2.0000      -0.809157       -22.0183
  32   2.0000      -0.782197       -21.2847
  33   2.0000      -0.771082       -20.9822
  34   2.0000      -0.712680       -19.3930
  35   2.0000      -0.699722       -19.0404
  36   2.0000      -0.684470       -18.6254
  37   2.0000      -0.667213       -18.1558
  38   2.0000      -0.637657       -17.3515
  39   2.0000      -0.616863       -16.7857
  40   2.0000      -0.584696       -15.9104
  41   2.0000      -0.569279       -15.4909
  42   2.0000      -0.558262       -15.1911
  43   2.0000      -0.549781       -14.9603
  44   2.0000      -0.543842       -14.7987
  45   2.0000      -0.537446       -14.6246
  46   2.0000      -0.511024       -13.9057
  47   2.0000      -0.510309       -13.8862
  48   2.0000      -0.494360       -13.4522
  49   2.0000      -0.491689       -13.3795
  50   2.0000      -0.483633       -13.1603
  51   2.0000      -0.475243       -12.9320
  52   2.0000      -0.473071       -12.8729
  53   2.0000      -0.463833       -12.6215
  54   2.0000      -0.460582       -12.5331
  55   2.0000      -0.454555       -12.3691
  56   2.0000      -0.436923       -11.8893
  57   2.0000      -0.434757       -11.8303
  58   2.0000      -0.429859       -11.6970
  59   2.0000      -0.423661       -11.5284
  60   2.0000      -0.420975       -11.4553
  61   2.0000      -0.418576       -11.3900
  62   2.0000      -0.405285       -11.0284
  63   2.0000      -0.350644        -9.5415
  64   2.0000      -0.336873        -9.1668
  65   2.0000      -0.333107        -9.0643
  66   2.0000      -0.283174        -7.7055
  67   0.0000       0.016970         0.4618
  68   0.0000       0.073659         2.0044
  69   0.0000       0.098699         2.6857
  70   0.0000       0.104840         2.8528
  71   0.0000       0.123609         3.3636

MULLIKEN ATOMIC CHARGES
-----------------------
   0 S :    0.096682
   1 C :   -0.105773
   2 C :   -0.055469
   3 C :   -0.018078
   4 C :   -0.124665
   5 H :    0.029542
   6 C :    0.024533
   7 H :    0.048452
   8 H :    0.022091
   9 C :   -0.036527
  10 H :    0.023007
  11 H :    0.021697
  12 C :   -0.065431
  13 H :    0.016947
  14 H :    0.044737
  15 H :    0.064362
  16 S :    0.096429
  17 C :   -0.069563
  18 C :   -0.036348
  19 C :   -0.073618
  20 C :   -0.140154
  21 H :    0.010544
  22 C :    0.073740
  23 H :    0.019631
  24 H :    0.044543
  25 C :   -0.043705
  26 H :    0.030831
  27 H :    0.011535
  28 C :   -0.100433
  29 H :    0.045879
  30 H :    0.057273
  31 H :    0.024896
  32 H :    0.021756
  33 H :    0.040655
Sum of atomic charges:   -0.0000000

LOEWDIN ATOMIC CHARGES
----------------------
   0 S :    0.395438
   1 C :   -0.172352
   2 C :   -0.057453
   3 C :   -0.070020
   4 C :   -0.186897
   5 H :    0.034271
   6 C :   -0.029203
   7 H :    0.037568
   8 H :    0.027231
   9 C :   -0.035638
  10 H :    0.022145
  11 H :    0.019510
  12 C :   -0.070810
  13 H :    0.014538
  14 H :    0.039257
  15 H :    0.039412
  16 S :    0.404270
  17 C :   -0.180296
  18 C :   -0.063231
  19 C :   -0.056972
  20 C :   -0.188987
  21 H :    0.027839
  22 C :   -0.027713
  23 H :    0.028009
  24 H :    0.028066
  25 C :   -0.047399
  26 H :    0.028432
  27 H :    0.007883
  28 C :   -0.076048
  29 H :    0.033821
  30 H :    0.029248
  31 H :    0.020626
  32 H :    0.009806
  33 H :    0.015650

  Mayer bond orders larger than 0.100000
B(  0-S ,  1-C ) :   1.1179 B(  0-S ,  4-C ) :   1.1286 B(  1-C ,  2-C ) :   1.6421
B(  1-C , 32-H ) :   0.9728 B(  2-C ,  3-C ) :   1.1948 B(  2-C ,  6-C ) :   1.0097
B(  3-C ,  4-C ) :   1.5938 B(  3-C ,  5-H ) :   0.9853 B(  4-C , 20-C ) :   1.0862
B(  6-C ,  7-H ) :   0.9510 B(  6-C ,  8-H ) :   0.9487 B(  6-C ,  9-C ) :   1.0557
B(  9-C , 10-H ) :   0.9577 B(  9-C , 11-H ) :   0.9611 B(  9-C , 12-C ) :   1.0631
B( 12-C , 13-H ) :   0.9766 B( 12-C , 14-H ) :   0.9742 B( 12-C , 15-H ) :   0.9724
B( 16-S , 17-C ) :   1.1572 B( 16-S , 20-C ) :   1.1529 B( 17-C , 18-C ) :   1.6175
B( 17-C , 20-C ) :   0.1010 B( 17-C , 33-H ) :   0.9661 B( 18-C , 19-C ) :   1.2494
B( 18-C , 21-H ) :   0.9944 B( 19-C , 20-C ) :   1.5130 B( 19-C , 22-C ) :   1.0253
B( 22-C , 23-H ) :   0.9393 B( 22-C , 24-H ) :   0.9368 B( 22-C , 25-C ) :   1.0728
B( 25-C , 26-H ) :   0.9554 B( 25-C , 27-H ) :   0.9492 B( 25-C , 28-C ) :   1.0712
B( 28-C , 29-H ) :   0.9751 B( 28-C , 30-H ) :   0.9719 B( 28-C , 31-H ) :   0.9775

Dispersion correction           -0.015008500
FINAL SINGLE POINT ENERGY     -1339.864760282336

DIPOLE MOMENT
-------------
                                X             Y             Z
Electronic contribution:      6.56414      -2.52849     -10.51552
Nuclear contribution   :     -6.59230       2.48505      10.73031
                        -----------------------------------------
Total Dipole Moment    :     -0.02815      -0.04344       0.21479
                        -----------------------------------------
Magnitude (a.u.)       :      0.22094
Magnitude (Debye)      :      0.56158

Rotational constants in cm-1:     0.022328     0.008457     0.007030
Rotational constants in MHz :   669.383106   253.535201   210.748221

                             ****ORCA TERMINATED NORMALLY****
TOTAL RUN TIME: 0 days 0 hours 0 minutes 20 seconds 860 msec
