                         Program Version 4.2.1 -  RELEASE  -
|  1> ! wB97X-D3 SP def2-SVP
|  2> %pal
|  3> nprocs 24
|  4> end
|  5>
|  6> * xyz 0 1
|  7> S 	 -47.3493 	 12.0328 	 26.5531
|  8> C 	 -46.8968 	 13.6352 	 27.0507
|  9> C 	 -47.9871 	 14.5196 	 26.9331
| 10> C 	 -49.1201 	 13.9446 	 26.3651
| 11> C 	 -48.9551 	 12.5912 	 26.2474
| 12> H 	 -49.9481 	 14.4573 	 26.0259
| 13> C 	 -47.8868 	 16.0557 	 27.12
| 14> H 	 -46.9426 	 16.2967 	 27.6165
| 15> H 	 -48.5958 	 16.2706 	 27.8291
| 16> C 	 -48.2194 	 16.9307 	 25.9005
| 17> H 	 -49.2502 	 16.8596 	 25.6435
| 18> H 	 -48.0898 	 17.9221 	 26.308
| 19> C 	 -47.383 	 16.7811 	 24.6747
| 20> H 	 -47.8299 	 17.2976 	 23.8351
| 21> H 	 -46.3658 	 17.1254 	 24.8064
| 22> H 	 -47.2273 	 15.7685 	 24.3765
| 23> S 	 -49.6948 	 10.0344 	 26.6192
| 24> C 	 -51.1491 	 9.39158 	 25.9088
| 25> C 	 -51.8066 	 10.332 	 25.1193
| 26> C 	 -51.0672 	 11.5867 	 25.0666
| 27> C 	 -49.918 	 11.5861 	 25.9088
| 28> H 	 -52.5687 	 9.94615 	 24.5091
| 29> C 	 -51.5878 	 12.705 	 24.0849
| 30> H 	 -51.5856 	 12.2684 	 23.0732
| 31> H 	 -50.9347 	 13.5929 	 24.231
| 32> C 	 -52.9993 	 13.1659 	 24.4093
| 33> H 	 -53.725 	 12.3202 	 24.2006
| 34> H 	 -53.4238 	 13.9884 	 23.8487
| 35> C 	 -53.0915 	 13.6574 	 25.8907
| 36> H 	 -53.2411 	 12.8036 	 26.5102
| 37> H 	 -53.9969 	 14.1368 	 25.7839
| 38> H 	 -52.2898 	 14.3468 	 26.1214
| 39> H 	 -45.9942 	 13.9 	 27.5623
| 40> H 	 -51.512 	 8.39993 	 25.8398
| 41> *
| 42>
| 43>                          ****END OF INPUT****

CARTESIAN COORDINATES (ANGSTROEM)
---------------------------------
  S    -47.349300   12.032800   26.553100
  C    -46.896800   13.635200   27.050700
  C    -47.987100   14.519600   26.933100
  C    -49.120100   13.944600   26.365100
  C    -48.955100   12.591200   26.247400
  H    -49.948100   14.457300   26.025900
  C    -47.886800   16.055700   27.120000
  H    -46.942600   16.296700   27.616500
  H    -48.595800   16.270600   27.829100
  C    -48.219400   16.930700   25.900500
  H    -49.250200   16.859600   25.643500
  H    -48.089800   17.922100   26.308000
  C    -47.383000   16.781100   24.674700
  H    -47.829900   17.297600   23.835100
  H    -46.365800   17.125400   24.806400
  H    -47.227300   15.768500   24.376500
  S    -49.694800   10.034400   26.619200
  C    -51.149100    9.391580   25.908800
  C    -51.806600   10.332000   25.119300
  C    -51.067200   11.586700   25.066600
  C    -49.918000   11.586100   25.908800
  H    -52.568700    9.946150   24.509100
  C    -51.587800   12.705000   24.084900
  H    -51.585600   12.268400   23.073200
  H    -50.934700   13.592900   24.231000
  C    -52.999300   13.165900   24.409300
  H    -53.725000   12.320200   24.200600
  H    -53.423800   13.988400   23.848700
  C    -53.091500   13.657400   25.890700
  H    -53.241100   12.803600   26.510200
  H    -53.996900   14.136800   25.783900
  H    -52.289800   14.346800   26.121400
  H    -45.994200   13.900000   27.562300
  H    -51.512000    8.399930   25.839800

 Total Charge           Charge          ....    0
 Multiplicity           Mult            ....    1
 Number of Electrons    NEL             ....  134
 Basis Dimension        Dim             ....  322

ORBITAL ENERGIES
----------------

  NO   OCC          E(Eh)            E(eV)
   0   2.0000     -88.969234     -2420.9759
   1   2.0000     -88.968229     -2420.9486
   2   2.0000     -10.327139      -281.0157
   3   2.0000     -10.326468      -280.9975
   4   2.0000     -10.313158      -280.6353
   5   2.0000     -10.311904      -280.6012
   6   2.0000     -10.310206      -280.5550
   7   2.0000     -10.298953      -280.2487
   8   2.0000     -10.297965      -280.2219
   9   2.0000     -10.292571      -280.0751
  10   2.0000     -10.287274      -279.9310
  11   2.0000     -10.286065      -279.8981
  12   2.0000     -10.285057      -279.8706
  13   2.0000     -10.282749      -279.8078
  14   2.0000     -10.266952      -279.3780
  15   2.0000     -10.265815      -279.3470
  16   2.0000      -8.084487      -219.9901
  17   2.0000      -8.083242      -219.9562
  18   2.0000      -6.042829      -164.4337
  19   2.0000      -6.041828      -164.4065
  20   2.0000      -6.038982      -164.3291
  21   2.0000      -6.037591      -164.2912
  22   2.0000      -6.035340      -164.2300
  23   2.0000      -6.034014      -164.1939
  24   2.0000      -1.014432       -27.6041
  25   2.0000      -0.984172       -26.7807
  26   2.0000      -0.915168       -24.9030
  27   2.0000      -0.907904       -24.7053
  28   2.0000      -0.872962       -23.7545
  29   2.0000      -0.857499       -23.3337
  30   2.0000      -0.842409       -22.9231
  31   2.0000      -0.817799       -22.2534
  32   2.0000      -0.788502       -21.4562
  33   2.0000      -0.774347       -21.0710
  34   2.0000      -0.713282       -19.4094
  35   2.0000      -0.697335       -18.9754
  36   2.0000      -0.688778       -18.7426
  37   2.0000      -0.659648       -17.9499
  38   2.0000      -0.641223       -17.4486
  39   2.0000      -0.633077       -17.2269
  40   2.0000      -0.587755       -15.9936
  41   2.0000      -0.566473       -15.4145
  42   2.0000      -0.558267       -15.1912
  43   2.0000      -0.555245       -15.1090
  44   2.0000      -0.551205       -14.9990
  45   2.0000      -0.541432       -14.7331
  46   2.0000      -0.523821       -14.2539
  47   2.0000      -0.512125       -13.9356
  48   2.0000      -0.506912       -13.7938
  49   2.0000      -0.505986       -13.7686
  50   2.0000      -0.497007       -13.5242
  51   2.0000      -0.478189       -13.0122
  52   2.0000      -0.467116       -12.7109
  53   2.0000      -0.461310       -12.5529
  54   2.0000      -0.460843       -12.5402
  55   2.0000      -0.456713       -12.4278
  56   2.0000      -0.447908       -12.1882
  57   2.0000      -0.440802       -11.9948
  58   2.0000      -0.431743       -11.7483
  59   2.0000      -0.424447       -11.5498
  60   2.0000      -0.421013       -11.4564
  61   2.0000      -0.410381       -11.1670
  62   2.0000      -0.403073       -10.9682
  63   2.0000      -0.354598        -9.6491
  64   2.0000      -0.337162        -9.1746
  65   2.0000      -0.328629        -8.9424
  66   2.0000      -0.280603        -7.6356
  67   0.0000       0.021255         0.5784
  68   0.0000       0.077408         2.1064
  69   0.0000       0.106638         2.9018
  70   0.0000       0.119075         3.2402
  71   0.0000       0.128136         3.4868

MULLIKEN ATOMIC CHARGES
-----------------------
   0 S :    0.114529
   1 C :   -0.114565
   2 C :   -0.104979
   3 C :    0.039837
   4 C :   -0.110038
   5 H :   -0.043998
   6 C :    0.112272
   7 H :    0.011757
   8 H :    0.005689
   9 C :   -0.069253
  10 H :    0.018196
  11 H :    0.025199
  12 C :   -0.013752
  13 H :    0.029696
  14 H :    0.018909
  15 H :    0.026831
  16 S :    0.110332
  17 C :   -0.074240
  18 C :   -0.039267
  19 C :   -0.065064
  20 C :   -0.132404
  21 H :    0.010502
  22 C :    0.085903
  23 H :    0.045269
  24 H :    0.022767
  25 C :   -0.139253
  26 H :    0.029669
  27 H :    0.029097
  28 C :   -0.002826
  29 H :    0.046060
  30 H :    0.007618
  31 H :    0.035857
  32 H :    0.041235
  33 H :    0.042415
Sum of atomic charges:    0.0000000

LOEWDIN ATOMIC CHARGES
----------------------
   0 S :    0.423715
   1 C :   -0.212254
   2 C :   -0.052848
   3 C :   -0.059595
   4 C :   -0.182444
   5 H :    0.014174
   6 C :   -0.022635
   7 H :    0.028245
   8 H :    0.021777
   9 C :   -0.037849
  10 H :    0.018744
  11 H :    0.029022
  12 C :   -0.063397
  13 H :    0.027690
  14 H :    0.024673
  15 H :    0.023867
  16 S :    0.423709
  17 C :   -0.189171
  18 C :   -0.066894
  19 C :   -0.051863
  20 C :   -0.212946
  21 H :    0.024739
  22 C :   -0.032123
  23 H :    0.035113
  24 H :    0.027432
  25 C :   -0.045821
  26 H :    0.024197
  27 H :    0.019785
  28 C :   -0.052929
  29 H :    0.027523
  30 H :    0.016733
  31 H :    0.023089
  32 H :    0.023129
  33 H :    0.025414

  Mayer bond orders larger than 0.100000
B(  0-S ,  1-C ) :   1.1320 B(  0-S ,  4-C ) :   1.1707 B(  1-C ,  2-C ) :   1.5882
B(  1-C ,  4-C ) :   0.1038 B(  1-C , 32-H ) :   0.9681 B(  2-C ,  3-C ) :   1.2636
B(  2-C ,  6-C ) :   1.0200 B(  3-C ,  4-C ) :   1.5340 B(  3-C ,  5-H ) :   1.0065
B(  4-C , 20-C ) :   1.0690 B(  6-C ,  7-H ) :   0.9440 B(  6-C ,  8-H ) :   0.9226
B(  6-C ,  9-C ) :   1.0827 B(  9-C , 10-H ) :   0.9519 B(  9-C , 11-H ) :   0.9489
B(  9-C , 12-C ) :   1.0865 B( 12-C , 13-H ) :   0.9718 B( 12-C , 14-H ) :   0.9712
B( 12-C , 15-H ) :   0.9728 B( 16-S , 17-C ) :   1.1504 B( 16-S , 20-C ) :   1.1462
B( 17-C , 18-C ) :   1.6259 B( 17-C , 33-H ) :   0.9672 B( 18-C , 19-C ) :   1.2358
B( 18-C , 21-H ) :   0.9903 B( 19-C , 20-C ) :   1.5646 B( 19-C , 22-C ) :   1.0240
B( 22-C , 23-H ) :   0.9409 B( 22-C , 24-H ) :   0.9407 B( 22-C , 25-C ) :   1.0721
B( 25-C , 26-H ) :   0.9497 B( 25-C , 27-H ) :   0.9691 B( 25-C , 28-C ) :   1.0585
B( 28-C , 29-H ) :   0.9716 B( 28-C , 30-H ) :   0.9745 B( 28-C , 31-H ) :   0.9767

Dispersion correction           -0.015164379
FINAL SINGLE POINT ENERGY     -1339.854258877867

DIPOLE MOMENT
-------------
                                X             Y             Z
Electronic contribution:     10.71915     -24.83782       8.19210
Nuclear contribution   :    -11.07903      25.27618      -8.47863
                        -----------------------------------------
Total Dipole Moment    :     -0.35988       0.43835      -0.28653
                        -----------------------------------------
Magnitude (a.u.)       :      0.63543
Magnitude (Debye)      :      1.61513

Rotational constants in cm-1:     0.019153     0.009936     0.007169
Rotational constants in MHz :   574.191170   297.879032   214.922774

                             ****ORCA TERMINATED NORMALLY****
TOTAL RUN TIME: 0 days 0 hours 0 minutes 21 seconds 448 msec
