                         Program Version 4.2.1 -  RELEASE  -
|  1> ! wB97X-D3 SP def2-SVP
|  2> %pal
|  3> nprocs 24
|  4> end
|  5>
|  6> * xyz 0 1
|  7> S 	 -120.161 	 26.284 	 -22.4687
|  8> C 	 -120.094 	 25.83 	 -24.1662
|  9> C 	 -120.683 	 26.856 	 -24.9176
| 10> C 	 -121.186 	 27.8867 	 -24.1287
| 11> C 	 -120.928 	 27.8102 	 -22.7933
| 12> H 	 -121.563 	 28.8199 	 -24.4681
| 13> C 	 -120.626 	 26.9104 	 -26.4051
| 14> H 	 -121.519 	 26.4474 	 -26.7669
| 15> H 	 -119.761 	 26.3188 	 -26.7104
| 16> C 	 -120.448 	 28.268 	 -27.0847
| 17> H 	 -120.759 	 28.2534 	 -28.1045
| 18> H 	 -121.207 	 28.9321 	 -26.6761
| 19> C 	 -119.161 	 29.0842 	 -26.7921
| 20> H 	 -119.295 	 30.1003 	 -27.1193
| 21> H 	 -118.862 	 29.0118 	 -25.7458
| 22> H 	 -118.246 	 28.7259 	 -27.2506
| 23> S 	 -120.042 	 30.0497 	 -21.4068
| 24> C 	 -120.953 	 30.6787 	 -20.0842
| 25> C 	 -122.17 	 30.0771 	 -19.9633
| 26> C 	 -122.351 	 28.9186 	 -20.9026
| 27> C 	 -121.218 	 28.7065 	 -21.6467
| 28> H 	 -122.863 	 30.4096 	 -19.2113
| 29> C 	 -123.671 	 28.1195 	 -20.9349
| 30> H 	 -123.63 	 27.2112 	 -21.4536
| 31> H 	 -124.31 	 28.7422 	 -21.5903
| 32> C 	 -124.33 	 27.8562 	 -19.5321
| 33> H 	 -125.257 	 27.4213 	 -19.6037
| 34> H 	 -124.476 	 28.8136 	 -19.0406
| 35> C 	 -123.428 	 26.9339 	 -18.6682
| 36> H 	 -123.797 	 26.9456 	 -17.6317
| 37> H 	 -122.406 	 27.2967 	 -18.6775
| 38> H 	 -123.383 	 25.8643 	 -18.9632
| 39> H 	 -119.691 	 24.9219 	 -24.5613
| 40> H 	 -120.546 	 31.4201 	 -19.4677
| 41> *
| 42>
| 43>                          ****END OF INPUT****

CARTESIAN COORDINATES (ANGSTROEM)
---------------------------------
  S    -120.161000   26.284000  -22.468700
  C    -120.094000   25.830000  -24.166200
  C    -120.683000   26.856000  -24.917600
  C    -121.186000   27.886700  -24.128700
  C    -120.928000   27.810200  -22.793300
  H    -121.563000   28.819900  -24.468100
  C    -120.626000   26.910400  -26.405100
  H    -121.519000   26.447400  -26.766900
  H    -119.761000   26.318800  -26.710400
  C    -120.448000   28.268000  -27.084700
  H    -120.759000   28.253400  -28.104500
  H    -121.207000   28.932100  -26.676100
  C    -119.161000   29.084200  -26.792100
  H    -119.295000   30.100300  -27.119300
  H    -118.862000   29.011800  -25.745800
  H    -118.246000   28.725900  -27.250600
  S    -120.042000   30.049700  -21.406800
  C    -120.953000   30.678700  -20.084200
  C    -122.170000   30.077100  -19.963300
  C    -122.351000   28.918600  -20.902600
  C    -121.218000   28.706500  -21.646700
  H    -122.863000   30.409600  -19.211300
  C    -123.671000   28.119500  -20.934900
  H    -123.630000   27.211200  -21.453600
  H    -124.310000   28.742200  -21.590300
  C    -124.330000   27.856200  -19.532100
  H    -125.257000   27.421300  -19.603700
  H    -124.476000   28.813600  -19.040600
  C    -123.428000   26.933900  -18.668200
  H    -123.797000   26.945600  -17.631700
  H    -122.406000   27.296700  -18.677500
  H    -123.383000   25.864300  -18.963200
  H    -119.691000   24.921900  -24.561300
  H    -120.546000   31.420100  -19.467700

 Total Charge           Charge          ....    0
 Multiplicity           Mult            ....    1
 Number of Electrons    NEL             ....  134
 Basis Dimension        Dim             ....  322

ORBITAL ENERGIES
----------------

  NO   OCC          E(Eh)            E(eV)
   0   2.0000     -88.961916     -2420.7768
   1   2.0000     -88.959143     -2420.7014
   2   2.0000     -10.330061      -281.0953
   3   2.0000     -10.326308      -280.9931
   4   2.0000     -10.316467      -280.7254
   5   2.0000     -10.314616      -280.6750
   6   2.0000     -10.313452      -280.6433
   7   2.0000     -10.298320      -280.2315
   8   2.0000     -10.296705      -280.1876
   9   2.0000     -10.294113      -280.1171
  10   2.0000     -10.286664      -279.9144
  11   2.0000     -10.285470      -279.8819
  12   2.0000     -10.284776      -279.8630
  13   2.0000     -10.283919      -279.8397
  14   2.0000     -10.275926      -279.6222
  15   2.0000     -10.273872      -279.5663
  16   2.0000      -8.076665      -219.7772
  17   2.0000      -8.074213      -219.7105
  18   2.0000      -6.035059      -164.2223
  19   2.0000      -6.032808      -164.1610
  20   2.0000      -6.030944      -164.1103
  21   2.0000      -6.028788      -164.0517
  22   2.0000      -6.027769      -164.0239
  23   2.0000      -6.024743      -163.9416
  24   2.0000      -1.004714       -27.3397
  25   2.0000      -0.982959       -26.7477
  26   2.0000      -0.912212       -24.8225
  27   2.0000      -0.903818       -24.5941
  28   2.0000      -0.867674       -23.6106
  29   2.0000      -0.843816       -22.9614
  30   2.0000      -0.840192       -22.8628
  31   2.0000      -0.818814       -22.2811
  32   2.0000      -0.785335       -21.3701
  33   2.0000      -0.774440       -21.0736
  34   2.0000      -0.713186       -19.4068
  35   2.0000      -0.704391       -19.1674
  36   2.0000      -0.690697       -18.7948
  37   2.0000      -0.659179       -17.9372
  38   2.0000      -0.642747       -17.4900
  39   2.0000      -0.623377       -16.9630
  40   2.0000      -0.604670       -16.4539
  41   2.0000      -0.566328       -15.4106
  42   2.0000      -0.560759       -15.2590
  43   2.0000      -0.549081       -14.9413
  44   2.0000      -0.539826       -14.6894
  45   2.0000      -0.528133       -14.3712
  46   2.0000      -0.521859       -14.2005
  47   2.0000      -0.516752       -14.0615
  48   2.0000      -0.505158       -13.7461
  49   2.0000      -0.490719       -13.3531
  50   2.0000      -0.487711       -13.2713
  51   2.0000      -0.477677       -12.9983
  52   2.0000      -0.469864       -12.7856
  53   2.0000      -0.467968       -12.7340
  54   2.0000      -0.459693       -12.5089
  55   2.0000      -0.446863       -12.1597
  56   2.0000      -0.441667       -12.0184
  57   2.0000      -0.439842       -11.9687
  58   2.0000      -0.435195       -11.8423
  59   2.0000      -0.423595       -11.5266
  60   2.0000      -0.418351       -11.3839
  61   2.0000      -0.415346       -11.3021
  62   2.0000      -0.404783       -11.0147
  63   2.0000      -0.334986        -9.1154
  64   2.0000      -0.326043        -8.8721
  65   2.0000      -0.323058        -8.7909
  66   2.0000      -0.313052        -8.5186
  67   0.0000       0.047341         1.2882
  68   0.0000       0.055353         1.5062
  69   0.0000       0.107964         2.9378
  70   0.0000       0.130477         3.5505
  71   0.0000       0.135552         3.6886

MULLIKEN ATOMIC CHARGES
-----------------------
   0 S :    0.108519
   1 C :   -0.118459
   2 C :   -0.106235
   3 C :    0.067104
   4 C :   -0.190058
   5 H :   -0.006792
   6 C :    0.106196
   7 H :    0.034597
   8 H :    0.021965
   9 C :   -0.077464
  10 H :    0.019876
  11 H :    0.014232
  12 C :   -0.044149
  13 H :    0.036430
  14 H :    0.038097
  15 H :    0.019865
  16 S :    0.086675
  17 C :   -0.060614
  18 C :   -0.034866
  19 C :   -0.024763
  20 C :   -0.178188
  21 H :    0.020410
  22 C :    0.086040
  23 H :    0.016671
  24 H :    0.040436
  25 C :   -0.036229
  26 H :    0.013347
  27 H :    0.023933
  28 C :   -0.076580
  29 H :    0.033897
  30 H :    0.041595
  31 H :    0.038953
  32 H :    0.041229
  33 H :    0.044331
Sum of atomic charges:   -0.0000000

LOEWDIN ATOMIC CHARGES
----------------------
   0 S :    0.415526
   1 C :   -0.193134
   2 C :   -0.067805
   3 C :   -0.066029
   4 C :   -0.199429
   5 H :    0.026892
   6 C :   -0.030047
   7 H :    0.033858
   8 H :    0.031480
   9 C :   -0.043306
  10 H :    0.023289
  11 H :    0.022097
  12 C :   -0.065565
  13 H :    0.026970
  14 H :    0.030523
  15 H :    0.020384
  16 S :    0.382422
  17 C :   -0.169624
  18 C :   -0.074638
  19 C :   -0.037226
  20 C :   -0.197500
  21 H :    0.028425
  22 C :   -0.025374
  23 H :    0.023100
  24 H :    0.039968
  25 C :   -0.028605
  26 H :    0.014333
  27 H :    0.021078
  28 C :   -0.068435
  29 H :    0.026939
  30 H :    0.025177
  31 H :    0.028998
  32 H :    0.025061
  33 H :    0.020197

  Mayer bond orders larger than 0.100000
B(  0-S ,  1-C ) :   1.1573 B(  0-S ,  4-C ) :   1.1752 B(  1-C ,  2-C ) :   1.5694
B(  1-C ,  4-C ) :   0.1132 B(  1-C , 32-H ) :   0.9770 B(  2-C ,  3-C ) :   1.2606
B(  2-C ,  6-C ) :   1.0103 B(  3-C ,  4-C ) :   1.5875 B(  3-C ,  5-H ) :   0.9997
B(  4-C , 20-C ) :   0.9753 B(  6-C ,  7-H ) :   0.9245 B(  6-C ,  8-H ) :   0.9470
B(  6-C ,  9-C ) :   1.0901 B(  9-C , 10-H ) :   0.9512 B(  9-C , 11-H ) :   0.9492
B(  9-C , 12-C ) :   1.0670 B( 12-C , 13-H ) :   0.9764 B( 12-C , 14-H ) :   0.9735
B( 12-C , 15-H ) :   0.9746 B( 16-S , 17-C ) :   1.1500 B( 16-S , 20-C ) :   1.1156
B( 17-C , 18-C ) :   1.6479 B( 17-C , 33-H ) :   0.9739 B( 18-C , 19-C ) :   1.1682
B( 18-C , 21-H ) :   0.9924 B( 19-C , 20-C ) :   1.6684 B( 19-C , 22-C ) :   1.0309
B( 22-C , 23-H ) :   0.9410 B( 22-C , 24-H ) :   0.9304 B( 22-C , 25-C ) :   1.0693
B( 25-C , 26-H ) :   0.9543 B( 25-C , 27-H ) :   0.9562 B( 25-C , 28-C ) :   1.0712
B( 28-C , 29-H ) :   0.9751 B( 28-C , 30-H ) :   0.9766 B( 28-C , 31-H ) :   0.9761

Dispersion correction           -0.014787691
FINAL SINGLE POINT ENERGY     -1339.876565937631

DIPOLE MOMENT
-------------
                                X             Y             Z
Electronic contribution:      9.41085       0.97473       6.84621
Nuclear contribution   :     -9.88672      -0.84985      -7.01845
                        -----------------------------------------
Total Dipole Moment    :     -0.47587       0.12488      -0.17224
                        -----------------------------------------
Magnitude (a.u.)       :      0.52126
Magnitude (Debye)      :      1.32494

Rotational constants in cm-1:     0.021833     0.008084     0.007001
Rotational constants in MHz :   654.542469   242.362303   209.881257

                             ****ORCA TERMINATED NORMALLY****
TOTAL RUN TIME: 0 days 0 hours 0 minutes 21 seconds 525 msec
