                         Program Version 4.2.1 -  RELEASE  -
|  1> ! wB97X-D3 SP def2-SVP
|  2> %pal
|  3> nprocs 24
|  4> end
|  5>
|  6> * xyz 0 1
|  7> S 	 -109.164 	 60.7248 	 -95.5497
|  8> C 	 -108.761 	 61.0813 	 -93.8613
|  9> C 	 -107.569 	 60.4344 	 -93.4277
| 10> C 	 -106.981 	 59.6666 	 -94.4801
| 11> C 	 -107.67 	 59.7369 	 -95.6965
| 12> H 	 -106.061 	 59.1597 	 -94.557
| 13> C 	 -106.804 	 60.6115 	 -92.0997
| 14> H 	 -106.216 	 59.6751 	 -91.9254
| 15> H 	 -107.497 	 60.6814 	 -91.2297
| 16> C 	 -105.895 	 61.8424 	 -92.1045
| 17> H 	 -104.903 	 61.5996 	 -91.7297
| 18> H 	 -105.607 	 61.9363 	 -93.1723
| 19> C 	 -106.425 	 63.1262 	 -91.5422
| 20> H 	 -105.691 	 63.8907 	 -91.3925
| 21> H 	 -107.138 	 63.5776 	 -92.2603
| 22> H 	 -107.034 	 63.0006 	 -90.6118
| 23> S 	 -107.53 	 60.215 	 -98.4114
| 24> C 	 -107.176 	 58.8853 	 -99.4863
| 25> C 	 -106.941 	 57.7567 	 -98.7039
| 26> C 	 -107.059 	 57.8706 	 -97.3028
| 27> C 	 -107.312 	 59.1907 	 -96.9784
| 28> H 	 -106.808 	 56.8605 	 -99.2895
| 29> C 	 -106.978 	 56.6866 	 -96.3545
| 30> H 	 -107.791 	 56.9258 	 -95.5889
| 31> H 	 -106.104 	 56.8546 	 -95.759
| 32> C 	 -107.071 	 55.2687 	 -96.9811
| 33> H 	 -106.319 	 55.0798 	 -97.7873
| 34> H 	 -107.998 	 55.1574 	 -97.5093
| 35> C 	 -106.925 	 54.1756 	 -95.9263
| 36> H 	 -106.031 	 54.1974 	 -95.3129
| 37> H 	 -106.957 	 53.0945 	 -96.36
| 38> H 	 -107.856 	 54.1782 	 -95.2982
| 39> H 	 -109.405 	 61.8323 	 -93.353
| 40> H 	 -107.109 	 58.8913 	 -100.543
| 41> *
| 42>
| 43>                          ****END OF INPUT****

CARTESIAN COORDINATES (ANGSTROEM)
---------------------------------
  S    -109.164000   60.724800  -95.549700
  C    -108.761000   61.081300  -93.861300
  C    -107.569000   60.434400  -93.427700
  C    -106.981000   59.666600  -94.480100
  C    -107.670000   59.736900  -95.696500
  H    -106.061000   59.159700  -94.557000
  C    -106.804000   60.611500  -92.099700
  H    -106.216000   59.675100  -91.925400
  H    -107.497000   60.681400  -91.229700
  C    -105.895000   61.842400  -92.104500
  H    -104.903000   61.599600  -91.729700
  H    -105.607000   61.936300  -93.172300
  C    -106.425000   63.126200  -91.542200
  H    -105.691000   63.890700  -91.392500
  H    -107.138000   63.577600  -92.260300
  H    -107.034000   63.000600  -90.611800
  S    -107.530000   60.215000  -98.411400
  C    -107.176000   58.885300  -99.486300
  C    -106.941000   57.756700  -98.703900
  C    -107.059000   57.870600  -97.302800
  C    -107.312000   59.190700  -96.978400
  H    -106.808000   56.860500  -99.289500
  C    -106.978000   56.686600  -96.354500
  H    -107.791000   56.925800  -95.588900
  H    -106.104000   56.854600  -95.759000
  C    -107.071000   55.268700  -96.981100
  H    -106.319000   55.079800  -97.787300
  H    -107.998000   55.157400  -97.509300
  C    -106.925000   54.175600  -95.926300
  H    -106.031000   54.197400  -95.312900
  H    -106.957000   53.094500  -96.360000
  H    -107.856000   54.178200  -95.298200
  H    -109.405000   61.832300  -93.353000
  H    -107.109000   58.891300  -100.543000

 Total Charge           Charge          ....    0
 Multiplicity           Mult            ....    1
 Number of Electrons    NEL             ....  134
 Basis Dimension        Dim             ....  322

ORBITAL ENERGIES
----------------

  NO   OCC          E(Eh)            E(eV)
   0   2.0000     -88.966217     -2420.8939
   1   2.0000     -88.966068     -2420.8898
   2   2.0000     -10.330869      -281.1172
   3   2.0000     -10.323869      -280.9268
   4   2.0000     -10.323690      -280.9219
   5   2.0000     -10.315583      -280.7013
   6   2.0000     -10.312167      -280.6083
   7   2.0000     -10.303758      -280.3795
   8   2.0000     -10.300321      -280.2860
   9   2.0000     -10.299834      -280.2727
  10   2.0000     -10.295322      -280.1500
  11   2.0000     -10.294916      -280.1389
  12   2.0000     -10.289631      -279.9951
  13   2.0000     -10.289617      -279.9947
  14   2.0000     -10.283444      -279.8267
  15   2.0000     -10.279256      -279.7128
  16   2.0000      -8.080405      -219.8790
  17   2.0000      -8.079790      -219.8623
  18   2.0000      -6.038972      -164.3288
  19   2.0000      -6.038221      -164.3083
  20   2.0000      -6.034930      -164.2188
  21   2.0000      -6.034448      -164.2057
  22   2.0000      -6.031190      -164.1170
  23   2.0000      -6.030676      -164.1030
  24   2.0000      -1.003091       -27.2955
  25   2.0000      -0.975461       -26.5437
  26   2.0000      -0.909377       -24.7454
  27   2.0000      -0.908057       -24.7095
  28   2.0000      -0.867759       -23.6129
  29   2.0000      -0.853613       -23.2280
  30   2.0000      -0.845198       -22.9990
  31   2.0000      -0.809735       -22.0340
  32   2.0000      -0.782139       -21.2831
  33   2.0000      -0.770465       -20.9654
  34   2.0000      -0.709760       -19.3135
  35   2.0000      -0.702695       -19.1213
  36   2.0000      -0.695245       -18.9186
  37   2.0000      -0.654825       -17.8187
  38   2.0000      -0.644066       -17.5259
  39   2.0000      -0.616732       -16.7821
  40   2.0000      -0.595962       -16.2170
  41   2.0000      -0.564847       -15.3703
  42   2.0000      -0.564098       -15.3499
  43   2.0000      -0.549918       -14.9640
  44   2.0000      -0.532505       -14.4902
  45   2.0000      -0.528984       -14.3944
  46   2.0000      -0.516117       -14.0443
  47   2.0000      -0.511393       -13.9157
  48   2.0000      -0.498576       -13.5670
  49   2.0000      -0.497588       -13.5400
  50   2.0000      -0.491360       -13.3706
  51   2.0000      -0.482877       -13.1398
  52   2.0000      -0.468318       -12.7436
  53   2.0000      -0.461447       -12.5566
  54   2.0000      -0.456324       -12.4172
  55   2.0000      -0.449477       -12.2309
  56   2.0000      -0.440134       -11.9766
  57   2.0000      -0.439361       -11.9556
  58   2.0000      -0.434092       -11.8123
  59   2.0000      -0.430816       -11.7231
  60   2.0000      -0.420872       -11.4525
  61   2.0000      -0.417659       -11.3651
  62   2.0000      -0.400671       -10.9028
  63   2.0000      -0.345212        -9.3937
  64   2.0000      -0.333625        -9.0784
  65   2.0000      -0.329668        -8.9707
  66   2.0000      -0.285686        -7.7739
  67   0.0000       0.022310         0.6071
  68   0.0000       0.066853         1.8192
  69   0.0000       0.107650         2.9293
  70   0.0000       0.125012         3.4018
  71   0.0000       0.138260         3.7622

MULLIKEN ATOMIC CHARGES
-----------------------
   0 S :    0.100914
   1 C :   -0.152255
   2 C :   -0.058152
   3 C :    0.030475
   4 C :   -0.173789
   5 H :   -0.000356
   6 C :    0.041297
   7 H :    0.034503
   8 H :    0.031453
   9 C :   -0.059772
  10 H :    0.017872
  11 H :    0.026627
  12 C :   -0.036496
  13 H :    0.034035
  14 H :    0.028077
  15 H :    0.033603
  16 S :    0.107365
  17 C :   -0.079234
  18 C :   -0.062283
  19 C :   -0.017629
  20 C :   -0.172484
  21 H :    0.011380
  22 C :    0.073990
  23 H :    0.047776
  24 H :    0.026650
  25 C :   -0.065324
  26 H :    0.041703
  27 H :    0.032505
  28 C :   -0.077935
  29 H :    0.041063
  30 H :    0.039585
  31 H :    0.039019
  32 H :    0.070803
  33 H :    0.045016
Sum of atomic charges:   -0.0000000

LOEWDIN ATOMIC CHARGES
----------------------
   0 S :    0.378357
   1 C :   -0.198594
   2 C :   -0.059085
   3 C :   -0.062808
   4 C :   -0.174281
   5 H :    0.026413
   6 C :   -0.032549
   7 H :    0.037692
   8 H :    0.030755
   9 C :   -0.054049
  10 H :    0.022907
  11 H :    0.032068
  12 C :   -0.068829
  13 H :    0.026157
  14 H :    0.029188
  15 H :    0.028613
  16 S :    0.400483
  17 C :   -0.183989
  18 C :   -0.076112
  19 C :   -0.052347
  20 C :   -0.202991
  21 H :    0.026418
  22 C :   -0.033635
  23 H :    0.047040
  24 H :    0.029285
  25 C :   -0.044053
  26 H :    0.028971
  27 H :    0.026279
  28 C :   -0.074536
  29 H :    0.023062
  30 H :    0.035399
  31 H :    0.030508
  32 H :    0.032447
  33 H :    0.025814

  Mayer bond orders larger than 0.100000
B(  0-S ,  1-C ) :   1.1428 B(  0-S ,  4-C ) :   1.1390 B(  1-C ,  2-C ) :   1.5850
B(  1-C ,  4-C ) :   0.1029 B(  1-C , 32-H ) :   0.9674 B(  2-C ,  3-C ) :   1.2268
B(  2-C ,  6-C ) :   1.0338 B(  3-C ,  4-C ) :   1.5762 B(  3-C ,  5-H ) :   0.9970
B(  4-C , 20-C ) :   1.0802 B(  6-C ,  7-H ) :   0.9412 B(  6-C ,  8-H ) :   0.9483
B(  6-C ,  9-C ) :   1.0503 B(  9-C , 10-H ) :   0.9550 B(  9-C , 11-H ) :   0.9518
B(  9-C , 12-C ) :   1.0809 B( 12-C , 13-H ) :   0.9717 B( 12-C , 14-H ) :   0.9708
B( 12-C , 15-H ) :   0.9756 B( 16-S , 17-C ) :   1.1499 B( 16-S , 20-C ) :   1.1411
B( 17-C , 18-C ) :   1.5991 B( 17-C , 20-C ) :   0.1033 B( 17-C , 33-H ) :   0.9704
B( 18-C , 19-C ) :   1.2640 B( 18-C , 21-H ) :   0.9849 B( 19-C , 20-C ) :   1.5616
B( 19-C , 22-C ) :   1.0231 B( 22-C , 23-H ) :   0.9226 B( 22-C , 24-H ) :   0.9281
B( 22-C , 25-C ) :   1.0623 B( 25-C , 26-H ) :   0.9488 B( 25-C , 27-H ) :   0.9537
B( 25-C , 28-C ) :   1.0838 B( 28-C , 29-H ) :   0.9767 B( 28-C , 30-H ) :   0.9736
B( 28-C , 31-H ) :   0.9743

Dispersion correction           -0.013811748
FINAL SINGLE POINT ENERGY     -1339.877048618927

DIPOLE MOMENT
-------------
                                X             Y             Z
Electronic contribution:     -9.85347      11.00092     -17.92356
Nuclear contribution   :     10.17207     -11.39496      18.14234
                        -----------------------------------------
Total Dipole Moment    :      0.31861      -0.39404       0.21878
                        -----------------------------------------
Magnitude (a.u.)       :      0.55194
Magnitude (Debye)      :      1.40293

Rotational constants in cm-1:     0.019260     0.007693     0.006202
Rotational constants in MHz :   577.406355   230.633150   185.923744

                             ****ORCA TERMINATED NORMALLY****
TOTAL RUN TIME: 0 days 0 hours 0 minutes 20 seconds 77 msec
