                         Program Version 4.2.1 -  RELEASE  -
|  1> ! wB97X-D3 SP def2-SVP
|  2> %pal
|  3> nprocs 24
|  4> end
|  5>
|  6> * xyz 0 1
|  7> S 	 -120.759 	 61.7133 	 -36.2406
|  8> C 	 -119.625 	 60.4989 	 -35.7081
|  9> C 	 -118.812 	 60.8725 	 -34.6855
| 10> C 	 -118.795 	 62.2639 	 -34.6396
| 11> C 	 -119.783 	 62.8845 	 -35.4141
| 12> H 	 -118.141 	 62.8508 	 -33.9974
| 13> C 	 -117.946 	 59.9571 	 -33.7487
| 14> H 	 -118.474 	 59.1444 	 -33.3705
| 15> H 	 -117.678 	 60.5691 	 -32.9404
| 16> C 	 -116.666 	 59.4414 	 -34.3515
| 17> H 	 -116.785 	 58.8451 	 -35.2075
| 18> H 	 -115.974 	 60.2498 	 -34.627
| 19> C 	 -115.91 	 58.5228 	 -33.3334
| 20> H 	 -116.649 	 57.7621 	 -32.9664
| 21> H 	 -115.055 	 57.9385 	 -33.7926
| 22> H 	 -115.462 	 59.1092 	 -32.491
| 23> S 	 -119.415 	 65.2432 	 -36.7351
| 24> C 	 -120.178 	 66.6983 	 -36.2339
| 25> C 	 -120.661 	 66.5684 	 -34.9189
| 26> C 	 -120.498 	 65.2451 	 -34.4198
| 27> C 	 -120.101 	 64.3107 	 -35.4176
| 28> H 	 -120.9 	 67.5049 	 -34.4198
| 29> C 	 -120.994 	 64.8545 	 -33.0427
| 30> H 	 -120.787 	 63.8362 	 -32.759
| 31> H 	 -122.106 	 64.936 	 -33.1464
| 32> C 	 -120.503 	 65.6931 	 -31.8803
| 33> H 	 -120.72 	 66.7296 	 -32.0187
| 34> H 	 -119.429 	 65.6565 	 -31.924
| 35> C 	 -120.976 	 65.1204 	 -30.5489
| 36> H 	 -120.524 	 65.6935 	 -29.804
| 37> H 	 -120.726 	 64.0837 	 -30.4026
| 38> H 	 -122.112 	 65.1687 	 -30.3475
| 39> H 	 -119.713 	 59.51 	 -36.0332
| 40> H 	 -120.192 	 67.6701 	 -36.7784
| 41> *
| 42>
| 43>                          ****END OF INPUT****

CARTESIAN COORDINATES (ANGSTROEM)
---------------------------------
  S    -120.759000   61.713300  -36.240600
  C    -119.625000   60.498900  -35.708100
  C    -118.812000   60.872500  -34.685500
  C    -118.795000   62.263900  -34.639600
  C    -119.783000   62.884500  -35.414100
  H    -118.141000   62.850800  -33.997400
  C    -117.946000   59.957100  -33.748700
  H    -118.474000   59.144400  -33.370500
  H    -117.678000   60.569100  -32.940400
  C    -116.666000   59.441400  -34.351500
  H    -116.785000   58.845100  -35.207500
  H    -115.974000   60.249800  -34.627000
  C    -115.910000   58.522800  -33.333400
  H    -116.649000   57.762100  -32.966400
  H    -115.055000   57.938500  -33.792600
  H    -115.462000   59.109200  -32.491000
  S    -119.415000   65.243200  -36.735100
  C    -120.178000   66.698300  -36.233900
  C    -120.661000   66.568400  -34.918900
  C    -120.498000   65.245100  -34.419800
  C    -120.101000   64.310700  -35.417600
  H    -120.900000   67.504900  -34.419800
  C    -120.994000   64.854500  -33.042700
  H    -120.787000   63.836200  -32.759000
  H    -122.106000   64.936000  -33.146400
  C    -120.503000   65.693100  -31.880300
  H    -120.720000   66.729600  -32.018700
  H    -119.429000   65.656500  -31.924000
  C    -120.976000   65.120400  -30.548900
  H    -120.524000   65.693500  -29.804000
  H    -120.726000   64.083700  -30.402600
  H    -122.112000   65.168700  -30.347500
  H    -119.713000   59.510000  -36.033200
  H    -120.192000   67.670100  -36.778400

 Total Charge           Charge          ....    0
 Multiplicity           Mult            ....    1
 Number of Electrons    NEL             ....  134
 Basis Dimension        Dim             ....  322

ORBITAL ENERGIES
----------------

  NO   OCC          E(Eh)            E(eV)
   0   2.0000     -88.967900     -2420.9396
   1   2.0000     -88.959773     -2420.7185
   2   2.0000     -10.324687      -280.9490
   3   2.0000     -10.322758      -280.8965
   4   2.0000     -10.318026      -280.7678
   5   2.0000     -10.306812      -280.4626
   6   2.0000     -10.306191      -280.4457
   7   2.0000     -10.298379      -280.2331
   8   2.0000     -10.292765      -280.0804
   9   2.0000     -10.292738      -280.0796
  10   2.0000     -10.290553      -280.0202
  11   2.0000     -10.290450      -280.0174
  12   2.0000     -10.284890      -279.8661
  13   2.0000     -10.284436      -279.8537
  14   2.0000     -10.280615      -279.7497
  15   2.0000     -10.277817      -279.6736
  16   2.0000      -8.083021      -219.9502
  17   2.0000      -8.075049      -219.7333
  18   2.0000      -6.041312      -164.3924
  19   2.0000      -6.037689      -164.2939
  20   2.0000      -6.033781      -164.1875
  21   2.0000      -6.033431      -164.1780
  22   2.0000      -6.029446      -164.0696
  23   2.0000      -6.025939      -163.9741
  24   2.0000      -1.007575       -27.4175
  25   2.0000      -0.985914       -26.8281
  26   2.0000      -0.915072       -24.9004
  27   2.0000      -0.911703       -24.8087
  28   2.0000      -0.866435       -23.5769
  29   2.0000      -0.850724       -23.1494
  30   2.0000      -0.847637       -23.0654
  31   2.0000      -0.806807       -21.9543
  32   2.0000      -0.783675       -21.3249
  33   2.0000      -0.769996       -20.9527
  34   2.0000      -0.705803       -19.2059
  35   2.0000      -0.702047       -19.1037
  36   2.0000      -0.694261       -18.8918
  37   2.0000      -0.648907       -17.6577
  38   2.0000      -0.644585       -17.5401
  39   2.0000      -0.623467       -16.9654
  40   2.0000      -0.598111       -16.2754
  41   2.0000      -0.575259       -15.6536
  42   2.0000      -0.567316       -15.4375
  43   2.0000      -0.562317       -15.3014
  44   2.0000      -0.526107       -14.3161
  45   2.0000      -0.522373       -14.2145
  46   2.0000      -0.511383       -13.9155
  47   2.0000      -0.509013       -13.8510
  48   2.0000      -0.502255       -13.6671
  49   2.0000      -0.499870       -13.6021
  50   2.0000      -0.485239       -13.2040
  51   2.0000      -0.479638       -13.0516
  52   2.0000      -0.470566       -12.8048
  53   2.0000      -0.468003       -12.7350
  54   2.0000      -0.460070       -12.5191
  55   2.0000      -0.446998       -12.1634
  56   2.0000      -0.443879       -12.0786
  57   2.0000      -0.439918       -11.9708
  58   2.0000      -0.437662       -11.9094
  59   2.0000      -0.430219       -11.7069
  60   2.0000      -0.424932       -11.5630
  61   2.0000      -0.419162       -11.4060
  62   2.0000      -0.412453       -11.2234
  63   2.0000      -0.337382        -9.1806
  64   2.0000      -0.323569        -8.8048
  65   2.0000      -0.314089        -8.5468
  66   2.0000      -0.304517        -8.2863
  67   0.0000       0.033579         0.9137
  68   0.0000       0.057669         1.5693
  69   0.0000       0.105718         2.8767
  70   0.0000       0.110969         3.0196
  71   0.0000       0.138473         3.7680

MULLIKEN ATOMIC CHARGES
-----------------------
   0 S :    0.135197
   1 C :   -0.110001
   2 C :   -0.073716
   3 C :    0.039443
   4 C :   -0.189285
   5 H :    0.007318
   6 C :    0.147422
   7 H :    0.009368
   8 H :    0.001002
   9 C :   -0.061223
  10 H :    0.020424
  11 H :    0.031691
  12 C :   -0.107027
  13 H :    0.035895
  14 H :    0.045687
  15 H :    0.043266
  16 S :    0.112663
  17 C :   -0.107447
  18 C :   -0.054954
  19 C :   -0.004042
  20 C :   -0.168389
  21 H :    0.028464
  22 C :    0.049516
  23 H :    0.010566
  24 H :    0.045452
  25 C :   -0.074602
  26 H :    0.020126
  27 H :    0.020089
  28 C :   -0.028306
  29 H :    0.020153
  30 H :    0.027289
  31 H :    0.038009
  32 H :    0.018132
  33 H :    0.071820
Sum of atomic charges:   -0.0000000

LOEWDIN ATOMIC CHARGES
----------------------
   0 S :    0.425580
   1 C :   -0.179788
   2 C :   -0.061219
   3 C :   -0.052512
   4 C :   -0.217873
   5 H :    0.030009
   6 C :   -0.011841
   7 H :    0.022671
   8 H :    0.025918
   9 C :   -0.037049
  10 H :    0.016300
  11 H :    0.026915
  12 C :   -0.076168
  13 H :    0.025950
  14 H :    0.031532
  15 H :    0.026612
  16 S :    0.424362
  17 C :   -0.198616
  18 C :   -0.086165
  19 C :   -0.048045
  20 C :   -0.215429
  21 H :    0.033498
  22 C :   -0.035262
  23 H :    0.023747
  24 H :    0.039078
  25 C :   -0.038218
  26 H :    0.018040
  27 H :    0.023970
  28 C :   -0.060921
  29 H :    0.018371
  30 H :    0.023113
  31 H :    0.034622
  32 H :    0.010199
  33 H :    0.038618

  Mayer bond orders larger than 0.100000
B(  0-S ,  1-C ) :   1.1627 B(  0-S ,  4-C ) :   1.1604 B(  1-C ,  2-C ) :   1.5977
B(  1-C ,  4-C ) :   0.1015 B(  1-C , 32-H ) :   0.9756 B(  2-C ,  3-C ) :   1.2645
B(  2-C ,  6-C ) :   1.0064 B(  3-C ,  4-C ) :   1.5605 B(  3-C ,  5-H ) :   0.9952
B(  4-C , 20-C ) :   1.0272 B(  6-C ,  7-H ) :   0.9383 B(  6-C ,  8-H ) :   0.9343
B(  6-C ,  9-C ) :   1.0762 B(  9-C , 10-H ) :   0.9582 B(  9-C , 11-H ) :   0.9542
B(  9-C , 12-C ) :   1.0735 B( 12-C , 13-H ) :   0.9743 B( 12-C , 14-H ) :   0.9756
B( 12-C , 15-H ) :   0.9776 B( 16-S , 17-C ) :   1.1927 B( 16-S , 20-C ) :   1.1544
B( 17-C , 18-C ) :   1.5704 B( 17-C , 20-C ) :   0.1141 B( 17-C , 33-H ) :   0.9629
B( 18-C , 19-C ) :   1.2574 B( 18-C , 21-H ) :   0.9900 B( 19-C , 20-C ) :   1.5369
B( 19-C , 22-C ) :   1.0488 B( 22-C , 23-H ) :   0.9395 B( 22-C , 24-H ) :   0.9406
B( 22-C , 25-C ) :   1.0590 B( 25-C , 26-H ) :   0.9522 B( 25-C , 27-H ) :   0.9520
B( 25-C , 28-C ) :   1.0933 B( 28-C , 29-H ) :   0.9721 B( 28-C , 30-H ) :   0.9718
B( 28-C , 31-H ) :   0.9732

Dispersion correction           -0.013479144
FINAL SINGLE POINT ENERGY     -1339.858788269271

DIPOLE MOMENT
-------------
                                X             Y             Z
Electronic contribution:     -9.39529       8.61679     -25.12742
Nuclear contribution   :      9.64336      -8.70883      25.78940
                        -----------------------------------------
Total Dipole Moment    :      0.24808      -0.09204       0.66198
                        -----------------------------------------
Magnitude (a.u.)       :      0.71291
Magnitude (Debye)      :      1.81206

Rotational constants in cm-1:     0.017476     0.007740     0.006270
Rotational constants in MHz :   523.913379   232.025019   187.974716

                             ****ORCA TERMINATED NORMALLY****
TOTAL RUN TIME: 0 days 0 hours 0 minutes 20 seconds 848 msec
