                         Program Version 4.2.1 -  RELEASE  -
|  1> ! wB97X-D3 SP def2-SVP
|  2> %pal
|  3> nprocs 24
|  4> end
|  5>
|  6> * xyz 0 1
|  7> S 	 -38.852 	 -10.6379 	 16.8319
|  8> C 	 -37.5307 	 -11.6802 	 17.4082
|  9> C 	 -36.5521 	 -10.8201 	 17.9492
| 10> C 	 -36.8577 	 -9.4423 	 17.756
| 11> C 	 -38.1362 	 -9.15159 	 17.239
| 12> H 	 -36.1075 	 -8.65966 	 17.855
| 13> C 	 -35.2475 	 -11.2915 	 18.517
| 14> H 	 -35.4564 	 -12.2597 	 18.9554
| 15> H 	 -34.8932 	 -10.8572 	 19.4865
| 16> C 	 -34.0333 	 -11.4485 	 17.5031
| 17> H 	 -34.2503 	 -11.9691 	 16.5668
| 18> H 	 -33.6825 	 -10.5207 	 17.1409
| 19> C 	 -32.8572 	 -12.2446 	 18.1339
| 20> H 	 -32.0698 	 -12.1931 	 17.3589
| 21> H 	 -32.5339 	 -11.883 	 19.1455
| 22> H 	 -33.0312 	 -13.3316 	 18.2873
| 23> S 	 -38.3511 	 -7.83049 	 14.9175
| 24> C 	 -38.716 	 -6.20925 	 14.9314
| 25> C 	 -39.1734 	 -5.7392 	 16.1378
| 26> C 	 -38.9963 	 -6.69492 	 17.1647
| 27> C 	 -38.6265 	 -7.90528 	 16.6092
| 28> H 	 -39.4233 	 -4.75738 	 16.3047
| 29> C 	 -38.8976 	 -6.46583 	 18.6712
| 30> H 	 -38.4306 	 -7.28245 	 19.173
| 31> H 	 -39.9137 	 -6.38697 	 19.0626
| 32> C 	 -38.0913 	 -5.16967 	 19.0639
| 33> H 	 -38.2561 	 -4.98392 	 20.1631
| 34> H 	 -38.5612 	 -4.37373 	 18.4911
| 35> C 	 -36.6022 	 -5.21382 	 18.7764
| 36> H 	 -36.1887 	 -6.11445 	 19.1419
| 37> H 	 -36.038 	 -4.35738 	 19.1517
| 38> H 	 -36.2418 	 -5.28476 	 17.7874
| 39> H 	 -37.4997 	 -12.7821 	 17.5463
| 40> H 	 -38.6435 	 -5.63044 	 14.0418
| 41> *
| 42>
| 43>                          ****END OF INPUT****

CARTESIAN COORDINATES (ANGSTROEM)
---------------------------------
  S    -38.852000  -10.637900   16.831900
  C    -37.530700  -11.680200   17.408200
  C    -36.552100  -10.820100   17.949200
  C    -36.857700   -9.442300   17.756000
  C    -38.136200   -9.151590   17.239000
  H    -36.107500   -8.659660   17.855000
  C    -35.247500  -11.291500   18.517000
  H    -35.456400  -12.259700   18.955400
  H    -34.893200  -10.857200   19.486500
  C    -34.033300  -11.448500   17.503100
  H    -34.250300  -11.969100   16.566800
  H    -33.682500  -10.520700   17.140900
  C    -32.857200  -12.244600   18.133900
  H    -32.069800  -12.193100   17.358900
  H    -32.533900  -11.883000   19.145500
  H    -33.031200  -13.331600   18.287300
  S    -38.351100   -7.830490   14.917500
  C    -38.716000   -6.209250   14.931400
  C    -39.173400   -5.739200   16.137800
  C    -38.996300   -6.694920   17.164700
  C    -38.626500   -7.905280   16.609200
  H    -39.423300   -4.757380   16.304700
  C    -38.897600   -6.465830   18.671200
  H    -38.430600   -7.282450   19.173000
  H    -39.913700   -6.386970   19.062600
  C    -38.091300   -5.169670   19.063900
  H    -38.256100   -4.983920   20.163100
  H    -38.561200   -4.373730   18.491100
  C    -36.602200   -5.213820   18.776400
  H    -36.188700   -6.114450   19.141900
  H    -36.038000   -4.357380   19.151700
  H    -36.241800   -5.284760   17.787400
  H    -37.499700  -12.782100   17.546300
  H    -38.643500   -5.630440   14.041800

 Total Charge           Charge          ....    0
 Multiplicity           Mult            ....    1
 Number of Electrons    NEL             ....  134
 Basis Dimension        Dim             ....  322

ORBITAL ENERGIES
----------------

  NO   OCC          E(Eh)            E(eV)
   0   2.0000     -88.965469     -2420.8735
   1   2.0000     -88.964505     -2420.8473
   2   2.0000     -10.327371      -281.0221
   3   2.0000     -10.320904      -280.8461
   4   2.0000     -10.318678      -280.7855
   5   2.0000     -10.309199      -280.5276
   6   2.0000     -10.302708      -280.3509
   7   2.0000     -10.301452      -280.3168
   8   2.0000     -10.295557      -280.1563
   9   2.0000     -10.292989      -280.0865
  10   2.0000     -10.292597      -280.0758
  11   2.0000     -10.291046      -280.0336
  12   2.0000     -10.289516      -279.9920
  13   2.0000     -10.286493      -279.9097
  14   2.0000     -10.286377      -279.9065
  15   2.0000     -10.268266      -279.4137
  16   2.0000      -8.082800      -219.9442
  17   2.0000      -8.079302      -219.8490
  18   2.0000      -6.040861      -164.3802
  19   2.0000      -6.037784      -164.2964
  20   2.0000      -6.037010      -164.2754
  21   2.0000      -6.033774      -164.1873
  22   2.0000      -6.033434      -164.1781
  23   2.0000      -6.030418      -164.0960
  24   2.0000      -1.018343       -27.7105
  25   2.0000      -0.988689       -26.9036
  26   2.0000      -0.908608       -24.7245
  27   2.0000      -0.905199       -24.6317
  28   2.0000      -0.867219       -23.5982
  29   2.0000      -0.855657       -23.2836
  30   2.0000      -0.842186       -22.9170
  31   2.0000      -0.811978       -22.0950
  32   2.0000      -0.787839       -21.4382
  33   2.0000      -0.770727       -20.9726
  34   2.0000      -0.708121       -19.2690
  35   2.0000      -0.704338       -19.1660
  36   2.0000      -0.693693       -18.8764
  37   2.0000      -0.661775       -18.0078
  38   2.0000      -0.639434       -17.3999
  39   2.0000      -0.618117       -16.8198
  40   2.0000      -0.605854       -16.4861
  41   2.0000      -0.571574       -15.5533
  42   2.0000      -0.552913       -15.0455
  43   2.0000      -0.544664       -14.8211
  44   2.0000      -0.544624       -14.8200
  45   2.0000      -0.528385       -14.3781
  46   2.0000      -0.517437       -14.0802
  47   2.0000      -0.511799       -13.9267
  48   2.0000      -0.498105       -13.5541
  49   2.0000      -0.496572       -13.5124
  50   2.0000      -0.492358       -13.3978
  51   2.0000      -0.482564       -13.1312
  52   2.0000      -0.471662       -12.8346
  53   2.0000      -0.465836       -12.6760
  54   2.0000      -0.458585       -12.4787
  55   2.0000      -0.455721       -12.4008
  56   2.0000      -0.445358       -12.1188
  57   2.0000      -0.442726       -12.0472
  58   2.0000      -0.429089       -11.6761
  59   2.0000      -0.420761       -11.4495
  60   2.0000      -0.419150       -11.4057
  61   2.0000      -0.415888       -11.3169
  62   2.0000      -0.408550       -11.1172
  63   2.0000      -0.340224        -9.2580
  64   2.0000      -0.328961        -8.9515
  65   2.0000      -0.324870        -8.8402
  66   2.0000      -0.300355        -8.1731
  67   0.0000       0.043475         1.1830
  68   0.0000       0.057841         1.5739
  69   0.0000       0.116944         3.1822
  70   0.0000       0.120942         3.2910
  71   0.0000       0.134353         3.6559

MULLIKEN ATOMIC CHARGES
-----------------------
   0 S :    0.102576
   1 C :   -0.123761
   2 C :   -0.099545
   3 C :    0.039847
   4 C :   -0.154358
   5 H :    0.013302
   6 C :    0.042996
   7 H :    0.002273
   8 H :    0.030798
   9 C :   -0.032237
  10 H :    0.027336
  11 H :    0.018764
  12 C :   -0.093451
  13 H :    0.038631
  14 H :    0.038059
  15 H :    0.037220
  16 S :    0.151995
  17 C :   -0.088487
  18 C :    0.005436
  19 C :   -0.034632
  20 C :   -0.183411
  21 H :   -0.017483
  22 C :    0.084690
  23 H :    0.025615
  24 H :    0.035455
  25 C :   -0.092234
  26 H :    0.043960
  27 H :    0.024939
  28 C :   -0.016123
  29 H :    0.007466
  30 H :    0.034153
  31 H :    0.016335
  32 H :    0.067329
  33 H :    0.046547
Sum of atomic charges:   -0.0000000

LOEWDIN ATOMIC CHARGES
----------------------
   0 S :    0.427287
   1 C :   -0.204037
   2 C :   -0.068875
   3 C :   -0.070019
   4 C :   -0.219610
   5 H :    0.027777
   6 C :   -0.045062
   7 H :    0.027907
   8 H :    0.036794
   9 C :   -0.032232
  10 H :    0.028352
  11 H :    0.016453
  12 C :   -0.073951
  13 H :    0.030110
  14 H :    0.025653
  15 H :    0.025672
  16 S :    0.468527
  17 C :   -0.198089
  18 C :   -0.065227
  19 C :   -0.047106
  20 C :   -0.223756
  21 H :    0.015707
  22 C :   -0.022764
  23 H :    0.025379
  24 H :    0.035040
  25 C :   -0.036225
  26 H :    0.033514
  27 H :    0.018353
  28 C :   -0.070607
  29 H :    0.019210
  30 H :    0.030971
  31 H :    0.022361
  32 H :    0.040978
  33 H :    0.021513

  Mayer bond orders larger than 0.100000
B(  0-S ,  1-C ) :   1.1503 B(  0-S ,  4-C ) :   1.1885 B(  1-C ,  2-C ) :   1.5569
B(  1-C ,  4-C ) :   0.1102 B(  1-C , 32-H ) :   0.9640 B(  2-C ,  3-C ) :   1.2929
B(  2-C ,  6-C ) :   1.0390 B(  3-C ,  4-C ) :   1.5192 B(  3-C ,  5-H ) :   0.9920
B(  4-C , 20-C ) :   0.9780 B(  6-C ,  7-H ) :   0.9366 B(  6-C ,  8-H ) :   0.9439
B(  6-C ,  9-C ) :   1.0428 B(  9-C , 10-H ) :   0.9566 B(  9-C , 11-H ) :   0.9604
B(  9-C , 12-C ) :   1.0737 B( 12-C , 13-H ) :   0.9749 B( 12-C , 14-H ) :   0.9762
B( 12-C , 15-H ) :   0.9775 B( 16-S , 17-C ) :   1.2028 B( 16-S , 20-C ) :   1.1722
B( 17-C , 18-C ) :   1.5705 B( 17-C , 33-H ) :   0.9710 B( 18-C , 19-C ) :   1.2620
B( 18-C , 21-H ) :   1.0041 B( 19-C , 20-C ) :   1.5966 B( 19-C , 22-C ) :   1.0376
B( 22-C , 23-H ) :   0.9402 B( 22-C , 24-H ) :   0.9279 B( 22-C , 25-C ) :   1.0738
B( 25-C , 26-H ) :   0.9555 B( 25-C , 27-H ) :   0.9574 B( 25-C , 28-C ) :   1.0687
B( 28-C , 29-H ) :   0.9703 B( 28-C , 30-H ) :   0.9723 B( 28-C , 31-H ) :   0.9721

Dispersion correction           -0.014538004
FINAL SINGLE POINT ENERGY     -1339.861406092315

DIPOLE MOMENT
-------------
                                X             Y             Z
Electronic contribution:    -21.18377      -2.79413     -15.49945
Nuclear contribution   :     21.72895       3.04480      15.68154
                        -----------------------------------------
Total Dipole Moment    :      0.54519       0.25067       0.18209
                        -----------------------------------------
Magnitude (a.u.)       :      0.62707
Magnitude (Debye)      :      1.59389

Rotational constants in cm-1:     0.019702     0.008044     0.006910
Rotational constants in MHz :   590.647520   241.159339   207.169637

                             ****ORCA TERMINATED NORMALLY****
TOTAL RUN TIME: 0 days 0 hours 0 minutes 21 seconds 524 msec
