                         Program Version 4.2.1 -  RELEASE  -
|  1> ! wB97X-D3 SP def2-SVP
|  2> %pal
|  3> nprocs 24
|  4> end
|  5>
|  6> * xyz 0 1
|  7> S 	 -102.055 	 60.6539 	 -97.1544
|  8> C 	 -103.509 	 60.2768 	 -98.0343
|  9> C 	 -103.418 	 60.58 	 -99.3522
| 10> C 	 -102.181 	 61.1089 	 -99.7072
| 11> C 	 -101.302 	 61.1506 	 -98.6628
| 12> H 	 -101.969 	 61.3751 	 -100.756
| 13> C 	 -104.563 	 60.24 	 -100.235
| 14> H 	 -105.039 	 61.1964 	 -100.475
| 15> H 	 -105.166 	 59.6926 	 -99.5528
| 16> C 	 -104.216 	 59.5003 	 -101.485
| 17> H 	 -103.611 	 60.0821 	 -102.14
| 18> H 	 -103.658 	 58.7065 	 -101.204
| 19> C 	 -105.475 	 59.1011 	 -102.246
| 20> H 	 -106.18 	 58.4296 	 -101.634
| 21> H 	 -106.009 	 59.8781 	 -102.781
| 22> H 	 -105.221 	 58.5548 	 -103.166
| 23> S 	 -99.6945 	 63.3901 	 -99.2015
| 24> C 	 -98.0762 	 63.3681 	 -98.4844
| 25> C 	 -97.6798 	 62.1409 	 -98.0444
| 26> C 	 -98.7802 	 61.2223 	 -98.1564
| 27> C 	 -99.978 	 61.7679 	 -98.6182
| 28> H 	 -96.6556 	 62.0477 	 -97.7126
| 29> C 	 -98.5285 	 59.7576 	 -97.7854
| 30> H 	 -99.1963 	 59.5915 	 -96.893
| 31> H 	 -97.5334 	 59.5231 	 -97.3504
| 32> C 	 -98.8171 	 58.6847 	 -98.8997
| 33> H 	 -97.8645 	 58.7123 	 -99.4676
| 34> H 	 -99.6573 	 58.9157 	 -99.5964
| 35> C 	 -98.8524 	 57.1854 	 -98.353
| 36> H 	 -99.7755 	 56.9381 	 -97.7998
| 37> H 	 -98.0064 	 57.1028 	 -97.6635
| 38> H 	 -98.851 	 56.3881 	 -99.0695
| 39> H 	 -104.274 	 59.827 	 -97.4349
| 40> H 	 -97.3158 	 64.1431 	 -98.7046
| 41> *
| 42>
| 43>                          ****END OF INPUT****

CARTESIAN COORDINATES (ANGSTROEM)
---------------------------------
  S    -102.055000   60.653900  -97.154400
  C    -103.509000   60.276800  -98.034300
  C    -103.418000   60.580000  -99.352200
  C    -102.181000   61.108900  -99.707200
  C    -101.302000   61.150600  -98.662800
  H    -101.969000   61.375100  -100.756000
  C    -104.563000   60.240000  -100.235000
  H    -105.039000   61.196400  -100.475000
  H    -105.166000   59.692600  -99.552800
  C    -104.216000   59.500300  -101.485000
  H    -103.611000   60.082100  -102.140000
  H    -103.658000   58.706500  -101.204000
  C    -105.475000   59.101100  -102.246000
  H    -106.180000   58.429600  -101.634000
  H    -106.009000   59.878100  -102.781000
  H    -105.221000   58.554800  -103.166000
  S    -99.694500   63.390100  -99.201500
  C    -98.076200   63.368100  -98.484400
  C    -97.679800   62.140900  -98.044400
  C    -98.780200   61.222300  -98.156400
  C    -99.978000   61.767900  -98.618200
  H    -96.655600   62.047700  -97.712600
  C    -98.528500   59.757600  -97.785400
  H    -99.196300   59.591500  -96.893000
  H    -97.533400   59.523100  -97.350400
  C    -98.817100   58.684700  -98.899700
  H    -97.864500   58.712300  -99.467600
  H    -99.657300   58.915700  -99.596400
  C    -98.852400   57.185400  -98.353000
  H    -99.775500   56.938100  -97.799800
  H    -98.006400   57.102800  -97.663500
  H    -98.851000   56.388100  -99.069500
  H    -104.274000   59.827000  -97.434900
  H    -97.315800   64.143100  -98.704600

 Total Charge           Charge          ....    0
 Multiplicity           Mult            ....    1
 Number of Electrons    NEL             ....  134
 Basis Dimension        Dim             ....  322

ORBITAL ENERGIES
----------------

  NO   OCC          E(Eh)            E(eV)
   0   2.0000     -88.965191     -2420.8659
   1   2.0000     -88.962817     -2420.8013
   2   2.0000     -10.328728      -281.0590
   3   2.0000     -10.324377      -280.9406
   4   2.0000     -10.316329      -280.7216
   5   2.0000     -10.306691      -280.4593
   6   2.0000     -10.306160      -280.4449
   7   2.0000     -10.296290      -280.1763
   8   2.0000     -10.293120      -280.0900
   9   2.0000     -10.292342      -280.0689
  10   2.0000     -10.292229      -280.0658
  11   2.0000     -10.290210      -280.0109
  12   2.0000     -10.283862      -279.8381
  13   2.0000     -10.281881      -279.7842
  14   2.0000     -10.277982      -279.6781
  15   2.0000     -10.276318      -279.6328
  16   2.0000      -8.079632      -219.8580
  17   2.0000      -8.077966      -219.8126
  18   2.0000      -6.038153      -164.3065
  19   2.0000      -6.036305      -164.2562
  20   2.0000      -6.034356      -164.2032
  21   2.0000      -6.032490      -164.1524
  22   2.0000      -6.030222      -164.0907
  23   2.0000      -6.028825      -164.0527
  24   2.0000      -1.010021       -27.4841
  25   2.0000      -0.987296       -26.8657
  26   2.0000      -0.923359       -25.1259
  27   2.0000      -0.891984       -24.2721
  28   2.0000      -0.872684       -23.7469
  29   2.0000      -0.853701       -23.2304
  30   2.0000      -0.839903       -22.8549
  31   2.0000      -0.821449       -22.3528
  32   2.0000      -0.781412       -21.2633
  33   2.0000      -0.764233       -20.7958
  34   2.0000      -0.718726       -19.5575
  35   2.0000      -0.698453       -19.0059
  36   2.0000      -0.684193       -18.6178
  37   2.0000      -0.661809       -18.0087
  38   2.0000      -0.642646       -17.4873
  39   2.0000      -0.625436       -17.0190
  40   2.0000      -0.590179       -16.0596
  41   2.0000      -0.581358       -15.8195
  42   2.0000      -0.568335       -15.4652
  43   2.0000      -0.549232       -14.9454
  44   2.0000      -0.527415       -14.3517
  45   2.0000      -0.521447       -14.1893
  46   2.0000      -0.515593       -14.0300
  47   2.0000      -0.507911       -13.8210
  48   2.0000      -0.501511       -13.6468
  49   2.0000      -0.495454       -13.4820
  50   2.0000      -0.483513       -13.1570
  51   2.0000      -0.481690       -13.1075
  52   2.0000      -0.470786       -12.8107
  53   2.0000      -0.469367       -12.7721
  54   2.0000      -0.457174       -12.4403
  55   2.0000      -0.454045       -12.3552
  56   2.0000      -0.440108       -11.9759
  57   2.0000      -0.433949       -11.8083
  58   2.0000      -0.430843       -11.7238
  59   2.0000      -0.427185       -11.6243
  60   2.0000      -0.419374       -11.4117
  61   2.0000      -0.417506       -11.3609
  62   2.0000      -0.405023       -11.0212
  63   2.0000      -0.343819        -9.3558
  64   2.0000      -0.335538        -9.1304
  65   2.0000      -0.326467        -8.8836
  66   2.0000      -0.292945        -7.9714
  67   0.0000       0.029908         0.8138
  68   0.0000       0.070537         1.9194
  69   0.0000       0.107012         2.9120
  70   0.0000       0.116153         3.1607
  71   0.0000       0.137314         3.7365

MULLIKEN ATOMIC CHARGES
-----------------------
   0 S :    0.109352
   1 C :   -0.160109
   2 C :   -0.084934
   3 C :    0.004178
   4 C :   -0.143357
   5 H :    0.019792
   6 C :    0.126245
   7 H :    0.031774
   8 H :   -0.000645
   9 C :   -0.015525
  10 H :    0.018490
  11 H :    0.005118
  12 C :   -0.068595
  13 H :    0.046042
  14 H :    0.027119
  15 H :    0.021184
  16 S :    0.110530
  17 C :   -0.107479
  18 C :   -0.028649
  19 C :   -0.030607
  20 C :   -0.138390
  21 H :    0.025473
  22 C :    0.030123
  23 H :    0.034665
  24 H :    0.023210
  25 C :   -0.086717
  26 H :    0.033977
  27 H :    0.056192
  28 C :   -0.061030
  29 H :    0.032691
  30 H :    0.028108
  31 H :    0.029501
  32 H :    0.046612
  33 H :    0.065664
Sum of atomic charges:    0.0000000

LOEWDIN ATOMIC CHARGES
----------------------
   0 S :    0.411003
   1 C :   -0.193648
   2 C :   -0.068041
   3 C :   -0.068888
   4 C :   -0.181134
   5 H :    0.037641
   6 C :   -0.023048
   7 H :    0.034690
   8 H :    0.026342
   9 C :   -0.030131
  10 H :    0.023007
  11 H :    0.013650
  12 C :   -0.073469
  13 H :    0.033730
  14 H :    0.025806
  15 H :    0.027387
  16 S :    0.397550
  17 C :   -0.181415
  18 C :   -0.070942
  19 C :   -0.052540
  20 C :   -0.210482
  21 H :    0.037640
  22 C :   -0.044216
  23 H :    0.029856
  24 H :    0.030195
  25 C :   -0.041898
  26 H :    0.027031
  27 H :    0.028731
  28 C :   -0.070101
  29 H :    0.025780
  30 H :    0.023935
  31 H :    0.021672
  32 H :    0.020558
  33 H :    0.033750

  Mayer bond orders larger than 0.100000
B(  0-S ,  1-C ) :   1.1420 B(  0-S ,  4-C ) :   1.1704 B(  1-C ,  2-C ) :   1.5948
B(  1-C , 32-H ) :   0.9735 B(  2-C ,  3-C ) :   1.2564 B(  2-C ,  6-C ) :   1.0185
B(  3-C ,  4-C ) :   1.5495 B(  3-C ,  5-H ) :   0.9991 B(  4-C , 20-C ) :   1.0475
B(  6-C ,  7-H ) :   0.9170 B(  6-C ,  8-H ) :   0.9380 B(  6-C ,  9-C ) :   1.0809
B(  9-C , 10-H ) :   0.9424 B(  9-C , 11-H ) :   0.9539 B(  9-C , 12-C ) :   1.0985
B( 12-C , 13-H ) :   0.9743 B( 12-C , 14-H ) :   0.9705 B( 12-C , 15-H ) :   0.9690
B( 16-S , 17-C ) :   1.1538 B( 16-S , 20-C ) :   1.1212 B( 17-C , 18-C ) :   1.6341
B( 17-C , 33-H ) :   0.9551 B( 18-C , 19-C ) :   1.2309 B( 18-C , 21-H ) :   0.9944
B( 19-C , 20-C ) :   1.5828 B( 19-C , 22-C ) :   1.0322 B( 22-C , 23-H ) :   0.9343
B( 22-C , 24-H ) :   0.9456 B( 22-C , 25-C ) :   1.0358 B( 25-C , 26-H ) :   0.9595
B( 25-C , 27-H ) :   0.9642 B( 25-C , 28-C ) :   1.0633 B( 28-C , 29-H ) :   0.9780
B( 28-C , 30-H ) :   0.9762 B( 28-C , 31-H ) :   0.9779

Dispersion correction           -0.014374109
FINAL SINGLE POINT ENERGY     -1339.864576242249

DIPOLE MOMENT
-------------
                                X             Y             Z
Electronic contribution:      6.40569      21.12999      11.51724
Nuclear contribution   :     -6.38461     -21.48453     -11.84780
                        -----------------------------------------
Total Dipole Moment    :      0.02107      -0.35454      -0.33056
                        -----------------------------------------
Magnitude (a.u.)       :      0.48519
Magnitude (Debye)      :      1.23326

Rotational constants in cm-1:     0.018724     0.008306     0.007120
Rotational constants in MHz :   561.344537   249.003427   213.455462

                             ****ORCA TERMINATED NORMALLY****
TOTAL RUN TIME: 0 days 0 hours 0 minutes 21 seconds 546 msec
