                         Program Version 4.2.1 -  RELEASE  -
|  1> ! wB97X-D3 SP def2-SVP
|  2> %pal
|  3> nprocs 24
|  4> end
|  5>
|  6> * xyz 0 1
|  7> S 	 -67.7483 	 7.49704 	 -75.2288
|  8> C 	 -66.4803 	 8.38653 	 -74.3983
|  9> C 	 -66.7744 	 9.72146 	 -74.3963
| 10> C 	 -68.0553 	 9.96091 	 -74.9457
| 11> C 	 -68.7277 	 8.87995 	 -75.4315
| 12> H 	 -68.351 	 10.9933 	 -74.9604
| 13> C 	 -65.8424 	 10.7811 	 -73.8731
| 14> H 	 -65.9573 	 11.5937 	 -74.5468
| 15> H 	 -64.839 	 10.3392 	 -74.0324
| 16> C 	 -65.9644 	 11.0537 	 -72.4127
| 17> H 	 -65.2475 	 11.8203 	 -72.1132
| 18> H 	 -67.0248 	 11.382 	 -72.2947
| 19> C 	 -65.7743 	 9.89608 	 -71.4392
| 20> H 	 -65.8573 	 10.2563 	 -70.39
| 21> H 	 -66.4127 	 9.10549 	 -71.6923
| 22> H 	 -64.7503 	 9.42877 	 -71.5176
| 23> S 	 -70.2145 	 8.30525 	 -77.7621
| 24> C 	 -71.9703 	 8.60738 	 -77.8321
| 25> C 	 -72.3619 	 9.24784 	 -76.6415
| 26> C 	 -71.3001 	 9.19838 	 -75.6558
| 27> C 	 -70.0339 	 8.87954 	 -76.0739
| 28> H 	 -73.4435 	 9.43045 	 -76.5007
| 29> C 	 -71.6324 	 9.35094 	 -74.1794
| 30> H 	 -70.8047 	 8.85692 	 -73.6689
| 31> H 	 -72.6347 	 8.9015 	 -74.1558
| 32> C 	 -71.8206 	 10.8207 	 -73.7387
| 33> H 	 -72.5259 	 11.3254 	 -74.3175
| 34> H 	 -70.8497 	 11.341 	 -73.8327
| 35> C 	 -72.2239 	 10.8958 	 -72.2673
| 36> H 	 -72.3442 	 11.8743 	 -71.8753
| 37> H 	 -71.4968 	 10.488 	 -71.6226
| 38> H 	 -73.1591 	 10.3928 	 -72.0709
| 39> H 	 -65.5105 	 8.00519 	 -74.2922
| 40> H 	 -72.5951 	 8.48916 	 -78.6888
| 41> *
| 42>
| 43>                          ****END OF INPUT****

CARTESIAN COORDINATES (ANGSTROEM)
---------------------------------
  S    -67.748300    7.497040  -75.228800
  C    -66.480300    8.386530  -74.398300
  C    -66.774400    9.721460  -74.396300
  C    -68.055300    9.960910  -74.945700
  C    -68.727700    8.879950  -75.431500
  H    -68.351000   10.993300  -74.960400
  C    -65.842400   10.781100  -73.873100
  H    -65.957300   11.593700  -74.546800
  H    -64.839000   10.339200  -74.032400
  C    -65.964400   11.053700  -72.412700
  H    -65.247500   11.820300  -72.113200
  H    -67.024800   11.382000  -72.294700
  C    -65.774300    9.896080  -71.439200
  H    -65.857300   10.256300  -70.390000
  H    -66.412700    9.105490  -71.692300
  H    -64.750300    9.428770  -71.517600
  S    -70.214500    8.305250  -77.762100
  C    -71.970300    8.607380  -77.832100
  C    -72.361900    9.247840  -76.641500
  C    -71.300100    9.198380  -75.655800
  C    -70.033900    8.879540  -76.073900
  H    -73.443500    9.430450  -76.500700
  C    -71.632400    9.350940  -74.179400
  H    -70.804700    8.856920  -73.668900
  H    -72.634700    8.901500  -74.155800
  C    -71.820600   10.820700  -73.738700
  H    -72.525900   11.325400  -74.317500
  H    -70.849700   11.341000  -73.832700
  C    -72.223900   10.895800  -72.267300
  H    -72.344200   11.874300  -71.875300
  H    -71.496800   10.488000  -71.622600
  H    -73.159100   10.392800  -72.070900
  H    -65.510500    8.005190  -74.292200
  H    -72.595100    8.489160  -78.688800

 Total Charge           Charge          ....    0
 Multiplicity           Mult            ....    1
 Number of Electrons    NEL             ....  134
 Basis Dimension        Dim             ....  322

ORBITAL ENERGIES
----------------

  NO   OCC          E(Eh)            E(eV)
   0   2.0000     -88.966834     -2420.9106
   1   2.0000     -88.960728     -2420.7445
   2   2.0000     -10.331546      -281.1357
   3   2.0000     -10.328429      -281.0508
   4   2.0000     -10.326041      -280.9859
   5   2.0000     -10.310575      -280.5650
   6   2.0000     -10.303860      -280.3823
   7   2.0000     -10.302446      -280.3438
   8   2.0000     -10.296620      -280.1853
   9   2.0000     -10.292052      -280.0610
  10   2.0000     -10.290652      -280.0229
  11   2.0000     -10.288897      -279.9751
  12   2.0000     -10.288410      -279.9619
  13   2.0000     -10.281338      -279.7694
  14   2.0000     -10.278475      -279.6915
  15   2.0000     -10.265565      -279.3402
  16   2.0000      -8.082352      -219.9320
  17   2.0000      -8.074558      -219.7199
  18   2.0000      -6.040806      -164.3787
  19   2.0000      -6.036604      -164.2643
  20   2.0000      -6.033242      -164.1729
  21   2.0000      -6.033216      -164.1721
  22   2.0000      -6.029141      -164.0613
  23   2.0000      -6.025227      -163.9548
  24   2.0000      -1.013426       -27.5767
  25   2.0000      -0.983706       -26.7680
  26   2.0000      -0.923721       -25.1357
  27   2.0000      -0.906532       -24.6680
  28   2.0000      -0.872269       -23.7356
  29   2.0000      -0.851651       -23.1746
  30   2.0000      -0.844754       -22.9869
  31   2.0000      -0.819040       -22.2872
  32   2.0000      -0.788940       -21.4681
  33   2.0000      -0.771644       -20.9975
  34   2.0000      -0.712887       -19.3986
  35   2.0000      -0.699597       -19.0370
  36   2.0000      -0.696795       -18.9608
  37   2.0000      -0.663875       -18.0650
  38   2.0000      -0.643956       -17.5229
  39   2.0000      -0.628877       -17.1126
  40   2.0000      -0.588576       -16.0160
  41   2.0000      -0.577761       -15.7217
  42   2.0000      -0.570109       -15.5135
  43   2.0000      -0.557240       -15.1633
  44   2.0000      -0.554538       -15.0897
  45   2.0000      -0.527600       -14.3567
  46   2.0000      -0.519494       -14.1361
  47   2.0000      -0.517749       -14.0887
  48   2.0000      -0.509616       -13.8674
  49   2.0000      -0.497965       -13.5503
  50   2.0000      -0.484014       -13.1707
  51   2.0000      -0.479706       -13.0535
  52   2.0000      -0.475349       -12.9349
  53   2.0000      -0.467605       -12.7242
  54   2.0000      -0.461807       -12.5664
  55   2.0000      -0.451885       -12.2964
  56   2.0000      -0.443556       -12.0698
  57   2.0000      -0.438288       -11.9264
  58   2.0000      -0.436224       -11.8703
  59   2.0000      -0.424151       -11.5417
  60   2.0000      -0.416071       -11.3219
  61   2.0000      -0.413785       -11.2597
  62   2.0000      -0.403467       -10.9789
  63   2.0000      -0.341907        -9.3038
  64   2.0000      -0.335365        -9.1258
  65   2.0000      -0.323393        -8.8000
  66   2.0000      -0.304301        -8.2805
  67   0.0000       0.029063         0.7908
  68   0.0000       0.062657         1.7050
  69   0.0000       0.114971         3.1285
  70   0.0000       0.118757         3.2315
  71   0.0000       0.130247         3.5442

MULLIKEN ATOMIC CHARGES
-----------------------
   0 S :    0.117476
   1 C :   -0.103536
   2 C :   -0.158339
   3 C :    0.050686
   4 C :   -0.149015
   5 H :   -0.001324
   6 C :    0.105213
   7 H :    0.023378
   8 H :    0.013177
   9 C :   -0.054239
  10 H :    0.037502
  11 H :    0.025326
  12 C :   -0.062667
  13 H :    0.048492
  14 H :    0.035769
  15 H :    0.020477
  16 S :    0.079077
  17 C :   -0.093151
  18 C :   -0.031920
  19 C :   -0.068170
  20 C :   -0.124795
  21 H :    0.039808
  22 C :    0.059923
  23 H :    0.041207
  24 H :    0.026707
  25 C :   -0.055682
  26 H :    0.014418
  27 H :    0.022868
  28 C :   -0.005371
  29 H :    0.017004
  30 H :    0.014142
  31 H :    0.017814
  32 H :    0.037513
  33 H :    0.060230
Sum of atomic charges:    0.0000000

LOEWDIN ATOMIC CHARGES
----------------------
   0 S :    0.427870
   1 C :   -0.187688
   2 C :   -0.063239
   3 C :   -0.060661
   4 C :   -0.211758
   5 H :    0.027514
   6 C :   -0.029412
   7 H :    0.028989
   8 H :    0.031869
   9 C :   -0.042313
  10 H :    0.026837
  11 H :    0.027585
  12 C :   -0.066091
  13 H :    0.034779
  14 H :    0.016371
  15 H :    0.025731
  16 S :    0.367916
  17 C :   -0.161990
  18 C :   -0.081161
  19 C :   -0.053387
  20 C :   -0.193767
  21 H :    0.038200
  22 C :   -0.024144
  23 H :    0.034303
  24 H :    0.034496
  25 C :   -0.031662
  26 H :    0.014090
  27 H :    0.024713
  28 C :   -0.062100
  29 H :    0.020767
  30 H :    0.019696
  31 H :    0.021874
  32 H :    0.018051
  33 H :    0.027723

  Mayer bond orders larger than 0.100000
B(  0-S ,  1-C ) :   1.1479 B(  0-S ,  4-C ) :   1.1664 B(  1-C ,  2-C ) :   1.5933
B(  1-C , 32-H ) :   0.9681 B(  2-C ,  3-C ) :   1.2858 B(  2-C ,  6-C ) :   1.0110
B(  3-C ,  4-C ) :   1.5314 B(  3-C ,  5-H ) :   1.0007 B(  4-C , 20-C ) :   1.0289
B(  6-C ,  7-H ) :   0.9379 B(  6-C ,  8-H ) :   0.9329 B(  6-C ,  9-C ) :   1.0754
B(  9-C , 10-H ) :   0.9551 B(  9-C , 11-H ) :   0.9502 B(  9-C , 12-C ) :   1.0849
B( 12-C , 13-H ) :   0.9724 B( 12-C , 14-H ) :   0.9706 B( 12-C , 15-H ) :   0.9710
B( 16-S , 17-C ) :   1.1618 B( 16-S , 20-C ) :   1.0958 B( 17-C , 18-C ) :   1.6188
B( 17-C , 33-H ) :   0.9690 B( 18-C , 19-C ) :   1.2214 B( 18-C , 21-H ) :   0.9792
B( 19-C , 20-C ) :   1.6368 B( 19-C , 22-C ) :   1.0356 B( 22-C , 23-H ) :   0.9367
B( 22-C , 24-H ) :   0.9338 B( 22-C , 25-C ) :   1.0744 B( 25-C , 26-H ) :   0.9574
B( 25-C , 27-H ) :   0.9508 B( 25-C , 28-C ) :   1.0920 B( 28-C , 29-H ) :   0.9718
B( 28-C , 30-H ) :   0.9716 B( 28-C , 31-H ) :   0.9725

Dispersion correction           -0.014449306
FINAL SINGLE POINT ENERGY     -1339.868997896669

DIPOLE MOMENT
-------------
                                X             Y             Z
Electronic contribution:     -0.79351     -15.67028     -24.61271
Nuclear contribution   :      0.73926      16.15511      24.98438
                        -----------------------------------------
Total Dipole Moment    :     -0.05426       0.48483       0.37167
                        -----------------------------------------
Magnitude (a.u.)       :      0.61330
Magnitude (Debye)      :      1.55889

Rotational constants in cm-1:     0.018623     0.009127     0.006765
Rotational constants in MHz :   558.317022   273.610451   202.805968

                             ****ORCA TERMINATED NORMALLY****
TOTAL RUN TIME: 0 days 0 hours 0 minutes 22 seconds 159 msec
