                         Program Version 4.2.1 -  RELEASE  -
|  1> ! wB97X-D3 SP def2-SVP
|  2> %pal
|  3> nprocs 24
|  4> end
|  5>
|  6> * xyz 0 1
|  7> S 	 -31.6136 	 14.5003 	 5.20915
|  8> C 	 -33.1673 	 13.6749 	 5.37861
|  9> C 	 -33.8171 	 14.0882 	 6.49689
| 10> C 	 -32.9801 	 14.8151 	 7.38351
| 11> C 	 -31.7578 	 15.1369 	 6.83171
| 12> H 	 -33.3171 	 15.2487 	 8.28151
| 13> C 	 -35.2446 	 13.6311 	 6.80136
| 14> H 	 -35.4149 	 13.7698 	 7.83572
| 15> H 	 -35.2846 	 12.5729 	 6.60487
| 16> C 	 -36.4275 	 14.3592 	 6.15502
| 17> H 	 -36.3848 	 15.4245 	 6.33303
| 18> H 	 -36.4616 	 14.2991 	 5.07491
| 19> C 	 -37.7835 	 13.8124 	 6.57559
| 20> H 	 -38.6227 	 14.3199 	 6.01422
| 21> H 	 -37.7223 	 12.7455 	 6.41403
| 22> H 	 -37.9701 	 13.9303 	 7.61867
| 23> S 	 -30.0139 	 17.2358 	 6.35921
| 24> C 	 -29.0855 	 17.9516 	 7.72078
| 25> C 	 -29.2682 	 17.1898 	 8.87365
| 26> C 	 -30.2559 	 16.1779 	 8.72625
| 27> C 	 -30.7392 	 16.0541 	 7.43707
| 28> H 	 -28.6029 	 17.4831 	 9.66457
| 29> C 	 -30.7643 	 15.397 	 9.88551
| 30> H 	 -31.001 	 14.3848 	 9.55978
| 31> H 	 -31.6902 	 15.858 	 10.1487
| 32> C 	 -29.7885 	 15.1771 	 11.0721
| 33> H 	 -29.2476 	 16.1158 	 11.2916
| 34> H 	 -28.949 	 14.4571 	 10.7563
| 35> C 	 -30.5421 	 14.6815 	 12.3694
| 36> H 	 -31.3978 	 15.2311 	 12.5866
| 37> H 	 -29.7969 	 14.8854 	 13.1865
| 38> H 	 -30.7566 	 13.5928 	 12.4254
| 39> H 	 -33.6603 	 13.1362 	 4.56143
| 40> H 	 -28.4454 	 18.7918 	 7.70577
| 41> *
| 42>
| 43>                          ****END OF INPUT****

CARTESIAN COORDINATES (ANGSTROEM)
---------------------------------
  S    -31.613600   14.500300    5.209150
  C    -33.167300   13.674900    5.378610
  C    -33.817100   14.088200    6.496890
  C    -32.980100   14.815100    7.383510
  C    -31.757800   15.136900    6.831710
  H    -33.317100   15.248700    8.281510
  C    -35.244600   13.631100    6.801360
  H    -35.414900   13.769800    7.835720
  H    -35.284600   12.572900    6.604870
  C    -36.427500   14.359200    6.155020
  H    -36.384800   15.424500    6.333030
  H    -36.461600   14.299100    5.074910
  C    -37.783500   13.812400    6.575590
  H    -38.622700   14.319900    6.014220
  H    -37.722300   12.745500    6.414030
  H    -37.970100   13.930300    7.618670
  S    -30.013900   17.235800    6.359210
  C    -29.085500   17.951600    7.720780
  C    -29.268200   17.189800    8.873650
  C    -30.255900   16.177900    8.726250
  C    -30.739200   16.054100    7.437070
  H    -28.602900   17.483100    9.664570
  C    -30.764300   15.397000    9.885510
  H    -31.001000   14.384800    9.559780
  H    -31.690200   15.858000   10.148700
  C    -29.788500   15.177100   11.072100
  H    -29.247600   16.115800   11.291600
  H    -28.949000   14.457100   10.756300
  C    -30.542100   14.681500   12.369400
  H    -31.397800   15.231100   12.586600
  H    -29.796900   14.885400   13.186500
  H    -30.756600   13.592800   12.425400
  H    -33.660300   13.136200    4.561430
  H    -28.445400   18.791800    7.705770

 Total Charge           Charge          ....    0
 Multiplicity           Mult            ....    1
 Number of Electrons    NEL             ....  134
 Basis Dimension        Dim             ....  322

ORBITAL ENERGIES
----------------

  NO   OCC          E(Eh)            E(eV)
   0   2.0000     -88.967486     -2420.9284
   1   2.0000     -88.965393     -2420.8714
   2   2.0000     -10.334162      -281.2068
   3   2.0000     -10.329119      -281.0696
   4   2.0000     -10.318157      -280.7713
   5   2.0000     -10.311905      -280.6012
   6   2.0000     -10.302126      -280.3351
   7   2.0000     -10.298871      -280.2465
   8   2.0000     -10.298820      -280.2452
   9   2.0000     -10.294774      -280.1350
  10   2.0000     -10.290562      -280.0204
  11   2.0000     -10.289553      -279.9930
  12   2.0000     -10.285969      -279.8955
  13   2.0000     -10.283178      -279.8195
  14   2.0000     -10.282801      -279.8092
  15   2.0000     -10.278593      -279.6947
  16   2.0000      -8.081960      -219.9213
  17   2.0000      -8.079202      -219.8463
  18   2.0000      -6.040500      -164.3704
  19   2.0000      -6.037794      -164.2967
  20   2.0000      -6.036639      -164.2653
  21   2.0000      -6.033854      -164.1895
  22   2.0000      -6.032571      -164.1546
  23   2.0000      -6.029925      -164.0826
  24   2.0000      -1.005394       -27.3582
  25   2.0000      -0.983266       -26.7560
  26   2.0000      -0.913771       -24.8650
  27   2.0000      -0.904209       -24.6048
  28   2.0000      -0.869352       -23.6563
  29   2.0000      -0.851861       -23.1803
  30   2.0000      -0.843627       -22.9562
  31   2.0000      -0.819320       -22.2948
  32   2.0000      -0.781780       -21.2733
  33   2.0000      -0.771491       -20.9933
  34   2.0000      -0.705802       -19.2059
  35   2.0000      -0.701778       -19.0964
  36   2.0000      -0.701042       -19.0763
  37   2.0000      -0.655307       -17.8318
  38   2.0000      -0.640607       -17.4318
  39   2.0000      -0.623753       -16.9732
  40   2.0000      -0.594997       -16.1907
  41   2.0000      -0.575059       -15.6482
  42   2.0000      -0.565308       -15.3828
  43   2.0000      -0.562680       -15.3113
  44   2.0000      -0.532285       -14.4842
  45   2.0000      -0.525116       -14.2891
  46   2.0000      -0.515726       -14.0336
  47   2.0000      -0.511923       -13.9301
  48   2.0000      -0.504219       -13.7205
  49   2.0000      -0.497384       -13.5345
  50   2.0000      -0.490890       -13.3578
  51   2.0000      -0.476712       -12.9720
  52   2.0000      -0.472002       -12.8438
  53   2.0000      -0.467740       -12.7279
  54   2.0000      -0.461045       -12.5457
  55   2.0000      -0.449420       -12.2293
  56   2.0000      -0.446052       -12.1377
  57   2.0000      -0.439809       -11.9678
  58   2.0000      -0.438142       -11.9225
  59   2.0000      -0.423508       -11.5242
  60   2.0000      -0.421085       -11.4583
  61   2.0000      -0.416366       -11.3299
  62   2.0000      -0.409107       -11.1324
  63   2.0000      -0.352196        -9.5837
  64   2.0000      -0.333791        -9.0829
  65   2.0000      -0.329246        -8.9592
  66   2.0000      -0.288709        -7.8562
  67   0.0000       0.027539         0.7494
  68   0.0000       0.069295         1.8856
  69   0.0000       0.105511         2.8711
  70   0.0000       0.125685         3.4201
  71   0.0000       0.138930         3.7805

MULLIKEN ATOMIC CHARGES
-----------------------
   0 S :    0.105338
   1 C :   -0.126403
   2 C :   -0.076607
   3 C :    0.025578
   4 C :   -0.119932
   5 H :   -0.007687
   6 C :    0.077927
   7 H :    0.001927
   8 H :    0.028584
   9 C :   -0.060899
  10 H :    0.023255
  11 H :    0.018579
  12 C :   -0.049719
  13 H :    0.049609
  14 H :    0.023415
  15 H :    0.020647
  16 S :    0.091540
  17 C :   -0.084697
  18 C :   -0.056277
  19 C :   -0.023391
  20 C :   -0.138499
  21 H :    0.023040
  22 C :    0.069198
  23 H :    0.032418
  24 H :    0.035239
  25 C :   -0.125569
  26 H :    0.033185
  27 H :    0.050232
  28 C :   -0.041846
  29 H :    0.023816
  30 H :    0.034492
  31 H :    0.046683
  32 H :    0.056568
  33 H :    0.040255
Sum of atomic charges:    0.0000000

LOEWDIN ATOMIC CHARGES
----------------------
   0 S :    0.397410
   1 C :   -0.192265
   2 C :   -0.060456
   3 C :   -0.063238
   4 C :   -0.182796
   5 H :    0.023456
   6 C :   -0.026251
   7 H :    0.024320
   8 H :    0.031396
   9 C :   -0.041723
  10 H :    0.021866
  11 H :    0.019837
  12 C :   -0.063082
  13 H :    0.036792
  14 H :    0.023012
  15 H :    0.016357
  16 S :    0.381225
  17 C :   -0.164597
  18 C :   -0.070444
  19 C :   -0.061220
  20 C :   -0.190497
  21 H :    0.033370
  22 C :   -0.037020
  23 H :    0.034884
  24 H :    0.028265
  25 C :   -0.042926
  26 H :    0.018953
  27 H :    0.036250
  28 C :   -0.064243
  29 H :    0.014300
  30 H :    0.034110
  31 H :    0.030655
  32 H :    0.032435
  33 H :    0.021864

  Mayer bond orders larger than 0.100000
B(  0-S ,  1-C ) :   1.1223 B(  0-S ,  4-C ) :   1.1570 B(  1-C ,  2-C ) :   1.6296
B(  1-C , 32-H ) :   0.9648 B(  2-C ,  3-C ) :   1.2472 B(  2-C ,  6-C ) :   1.0171
B(  3-C ,  4-C ) :   1.5586 B(  3-C ,  5-H ) :   1.0015 B(  4-C , 20-C ) :   1.0307
B(  6-C ,  7-H ) :   0.9392 B(  6-C ,  8-H ) :   0.9431 B(  6-C ,  9-C ) :   1.0630
B(  9-C , 10-H ) :   0.9528 B(  9-C , 11-H ) :   0.9555 B(  9-C , 12-C ) :   1.0831
B( 12-C , 13-H ) :   0.9730 B( 12-C , 14-H ) :   0.9736 B( 12-C , 15-H ) :   0.9761
B( 16-S , 17-C ) :   1.1426 B( 16-S , 20-C ) :   1.1304 B( 17-C , 18-C ) :   1.6344
B( 17-C , 20-C ) :   0.1012 B( 17-C , 33-H ) :   0.9690 B( 18-C , 19-C ) :   1.2099
B( 18-C , 21-H ) :   0.9925 B( 19-C , 20-C ) :   1.6134 B( 19-C , 22-C ) :   1.0421
B( 22-C , 23-H ) :   0.9277 B( 22-C , 24-H ) :   0.9315 B( 22-C , 25-C ) :   1.0597
B( 25-C , 26-H ) :   0.9562 B( 25-C , 27-H ) :   0.9577 B( 25-C , 28-C ) :   1.0707
B( 28-C , 29-H ) :   0.9784 B( 28-C , 30-H ) :   0.9767 B( 28-C , 31-H ) :   0.9773

Dispersion correction           -0.013141749
FINAL SINGLE POINT ENERGY     -1339.875852216091

DIPOLE MOMENT
-------------
                                X             Y             Z
Electronic contribution:     18.17271       8.76680     -19.83049
Nuclear contribution   :    -18.55666      -8.79063      20.41336
                        -----------------------------------------
Total Dipole Moment    :     -0.38395      -0.02383       0.58286
                        -----------------------------------------
Magnitude (a.u.)       :      0.69837
Magnitude (Debye)      :      1.77511

Rotational constants in cm-1:     0.017773     0.007581     0.005904
Rotational constants in MHz :   532.835578   227.276192   177.003656

                             ****ORCA TERMINATED NORMALLY****
TOTAL RUN TIME: 0 days 0 hours 0 minutes 20 seconds 689 msec
