                         Program Version 4.2.1 -  RELEASE  -
|  1> ! wB97X-D3 SP def2-SVP
|  2> %pal
|  3> nprocs 24
|  4> end
|  5>
|  6> * xyz 0 1
|  7> S 	 -96.13 	 50.9256 	 -99.9642
|  8> C 	 -95.3481 	 49.8718 	 -98.7999
|  9> C 	 -94.6666 	 50.629 	 -97.875
| 10> C 	 -94.7893 	 52.0339 	 -98.0953
| 11> C 	 -95.5776 	 52.4014 	 -99.162
| 12> H 	 -94.2197 	 52.7754 	 -97.5031
| 13> C 	 -93.9584 	 50.0372 	 -96.6777
| 14> H 	 -94.3595 	 49.0407 	 -96.4315
| 15> H 	 -94.1061 	 50.7647 	 -95.8449
| 16> C 	 -92.3974 	 50.0168 	 -96.9265
| 17> H 	 -92.2944 	 49.5396 	 -97.8937
| 18> H 	 -92.0191 	 50.9959 	 -97.2305
| 19> C 	 -91.5924 	 49.4221 	 -95.8132
| 20> H 	 -90.5759 	 49.5709 	 -96.1175
| 21> H 	 -91.7414 	 49.9036 	 -94.7969
| 22> H 	 -91.783 	 48.4195 	 -95.7237
| 23> S 	 -95.3778 	 54.119 	 -101.334
| 24> C 	 -95.7586 	 55.8176 	 -101.136
| 25> C 	 -96.2371 	 55.9993 	 -99.8233
| 26> C 	 -96.2959 	 54.8835 	 -98.9865
| 27> C 	 -95.8822 	 53.7171 	 -99.6468
| 28> H 	 -96.4589 	 57.0572 	 -99.4886
| 29> C 	 -96.8942 	 54.9993 	 -97.6258
| 30> H 	 -97.4401 	 54.0656 	 -97.3318
| 31> H 	 -97.6361 	 55.7736 	 -97.7026
| 32> C 	 -95.9713 	 55.3323 	 -96.4243
| 33> H 	 -94.8863 	 55.3335 	 -96.4402
| 34> H 	 -96.0993 	 54.6768 	 -95.5278
| 35> C 	 -96.3312 	 56.7092 	 -95.7291
| 36> H 	 -95.7228 	 56.902 	 -94.9099
| 37> H 	 -97.3261 	 56.6388 	 -95.358
| 38> H 	 -96.3269 	 57.6133 	 -96.4237
| 39> H 	 -95.4639 	 48.7782 	 -98.8651
| 40> H 	 -95.6526 	 56.6377 	 -101.857
| 41> *
| 42>
| 43>                          ****END OF INPUT****

CARTESIAN COORDINATES (ANGSTROEM)
---------------------------------
  S    -96.130000   50.925600  -99.964200
  C    -95.348100   49.871800  -98.799900
  C    -94.666600   50.629000  -97.875000
  C    -94.789300   52.033900  -98.095300
  C    -95.577600   52.401400  -99.162000
  H    -94.219700   52.775400  -97.503100
  C    -93.958400   50.037200  -96.677700
  H    -94.359500   49.040700  -96.431500
  H    -94.106100   50.764700  -95.844900
  C    -92.397400   50.016800  -96.926500
  H    -92.294400   49.539600  -97.893700
  H    -92.019100   50.995900  -97.230500
  C    -91.592400   49.422100  -95.813200
  H    -90.575900   49.570900  -96.117500
  H    -91.741400   49.903600  -94.796900
  H    -91.783000   48.419500  -95.723700
  S    -95.377800   54.119000  -101.334000
  C    -95.758600   55.817600  -101.136000
  C    -96.237100   55.999300  -99.823300
  C    -96.295900   54.883500  -98.986500
  C    -95.882200   53.717100  -99.646800
  H    -96.458900   57.057200  -99.488600
  C    -96.894200   54.999300  -97.625800
  H    -97.440100   54.065600  -97.331800
  H    -97.636100   55.773600  -97.702600
  C    -95.971300   55.332300  -96.424300
  H    -94.886300   55.333500  -96.440200
  H    -96.099300   54.676800  -95.527800
  C    -96.331200   56.709200  -95.729100
  H    -95.722800   56.902000  -94.909900
  H    -97.326100   56.638800  -95.358000
  H    -96.326900   57.613300  -96.423700
  H    -95.463900   48.778200  -98.865100
  H    -95.652600   56.637700  -101.857000

 Total Charge           Charge          ....    0
 Multiplicity           Mult            ....    1
 Number of Electrons    NEL             ....  134
 Basis Dimension        Dim             ....  322

ORBITAL ENERGIES
----------------

  NO   OCC          E(Eh)            E(eV)
   0   2.0000     -88.967805     -2420.9370
   1   2.0000     -88.961759     -2420.7725
   2   2.0000     -10.331727      -281.1406
   3   2.0000     -10.330291      -281.1015
   4   2.0000     -10.323830      -280.9257
   5   2.0000     -10.316622      -280.7296
   6   2.0000     -10.304946      -280.4118
   7   2.0000     -10.299826      -280.2725
   8   2.0000     -10.297923      -280.2207
   9   2.0000     -10.297021      -280.1962
  10   2.0000     -10.296703      -280.1875
  11   2.0000     -10.296543      -280.1832
  12   2.0000     -10.293027      -280.0875
  13   2.0000     -10.284002      -279.8419
  14   2.0000     -10.276018      -279.6247
  15   2.0000     -10.273437      -279.5544
  16   2.0000      -8.081420      -219.9066
  17   2.0000      -8.076454      -219.7715
  18   2.0000      -6.039972      -164.3560
  19   2.0000      -6.035943      -164.2464
  20   2.0000      -6.035031      -164.2216
  21   2.0000      -6.032313      -164.1476
  22   2.0000      -6.030856      -164.1079
  23   2.0000      -6.027247      -164.0097
  24   2.0000      -1.003930       -27.3183
  25   2.0000      -0.981847       -26.7174
  26   2.0000      -0.909821       -24.7575
  27   2.0000      -0.905565       -24.6417
  28   2.0000      -0.871175       -23.7059
  29   2.0000      -0.853015       -23.2117
  30   2.0000      -0.846474       -23.0337
  31   2.0000      -0.811474       -22.0813
  32   2.0000      -0.782924       -21.3045
  33   2.0000      -0.770148       -20.9568
  34   2.0000      -0.711576       -19.3630
  35   2.0000      -0.701133       -19.0788
  36   2.0000      -0.695461       -18.9244
  37   2.0000      -0.659121       -17.9356
  38   2.0000      -0.641917       -17.4675
  39   2.0000      -0.619795       -16.8655
  40   2.0000      -0.597489       -16.2585
  41   2.0000      -0.563585       -15.3359
  42   2.0000      -0.556842       -15.1524
  43   2.0000      -0.548778       -14.9330
  44   2.0000      -0.531627       -14.4663
  45   2.0000      -0.528995       -14.3947
  46   2.0000      -0.519743       -14.1429
  47   2.0000      -0.511765       -13.9258
  48   2.0000      -0.508925       -13.8486
  49   2.0000      -0.502496       -13.6736
  50   2.0000      -0.497626       -13.5411
  51   2.0000      -0.476041       -12.9537
  52   2.0000      -0.471603       -12.8330
  53   2.0000      -0.466405       -12.6915
  54   2.0000      -0.465332       -12.6623
  55   2.0000      -0.451131       -12.2759
  56   2.0000      -0.448383       -12.2011
  57   2.0000      -0.436071       -11.8661
  58   2.0000      -0.432541       -11.7700
  59   2.0000      -0.417768       -11.3680
  60   2.0000      -0.413038       -11.2393
  61   2.0000      -0.411508       -11.1977
  62   2.0000      -0.407156       -11.0793
  63   2.0000      -0.345630        -9.4051
  64   2.0000      -0.333698        -9.0804
  65   2.0000      -0.325599        -8.8600
  66   2.0000      -0.292266        -7.9530
  67   0.0000       0.025410         0.6915
  68   0.0000       0.063998         1.7415
  69   0.0000       0.115710         3.1486
  70   0.0000       0.124624         3.3912
  71   0.0000       0.126628         3.4457

MULLIKEN ATOMIC CHARGES
-----------------------
   0 S :    0.093844
   1 C :   -0.141018
   2 C :   -0.087805
   3 C :    0.030335
   4 C :   -0.150973
   5 H :    0.022875
   6 C :    0.054876
   7 H :    0.030466
   8 H :    0.029770
   9 C :   -0.105049
  10 H :    0.017186
  11 H :    0.017536
  12 C :    0.018978
  13 H :    0.029899
  14 H :    0.037745
  15 H :    0.014988
  16 S :    0.105634
  17 C :   -0.099742
  18 C :   -0.078163
  19 C :    0.012334
  20 C :   -0.157430
  21 H :    0.036118
  22 C :    0.081792
  23 H :    0.048893
  24 H :    0.027471
  25 C :   -0.091473
  26 H :    0.035567
  27 H :    0.027924
  28 C :   -0.075662
  29 H :    0.019657
  30 H :    0.024364
  31 H :    0.035882
  32 H :    0.063607
  33 H :    0.069574
Sum of atomic charges:   -0.0000000

LOEWDIN ATOMIC CHARGES
----------------------
   0 S :    0.390998
   1 C :   -0.195494
   2 C :   -0.070021
   3 C :   -0.061776
   4 C :   -0.193918
   5 H :    0.036347
   6 C :   -0.029027
   7 H :    0.030308
   8 H :    0.032040
   9 C :   -0.045342
  10 H :    0.022965
  11 H :    0.022556
  12 C :   -0.058927
  13 H :    0.029283
  14 H :    0.034139
  15 H :    0.013206
  16 S :    0.394943
  17 C :   -0.192442
  18 C :   -0.081127
  19 C :   -0.056230
  20 C :   -0.183517
  21 H :    0.037721
  22 C :   -0.027382
  23 H :    0.046575
  24 H :    0.033084
  25 C :   -0.048413
  26 H :    0.022761
  27 H :    0.030640
  28 C :   -0.064372
  29 H :    0.014220
  30 H :    0.017092
  31 H :    0.025339
  32 H :    0.034998
  33 H :    0.038774

  Mayer bond orders larger than 0.100000
B(  0-S ,  1-C ) :   1.1369 B(  0-S ,  4-C ) :   1.1433 B(  1-C ,  2-C ) :   1.5960
B(  1-C , 32-H ) :   0.9711 B(  2-C ,  3-C ) :   1.2513 B(  2-C ,  6-C ) :   1.0272
B(  3-C ,  4-C ) :   1.5738 B(  3-C ,  5-H ) :   0.9872 B(  4-C , 20-C ) :   1.0510
B(  6-C ,  7-H ) :   0.9491 B(  6-C ,  8-H ) :   0.9402 B(  6-C ,  9-C ) :   1.0472
B(  9-C , 10-H ) :   0.9515 B(  9-C , 11-H ) :   0.9575 B(  9-C , 12-C ) :   1.0820
B( 12-C , 13-H ) :   0.9696 B( 12-C , 14-H ) :   0.9714 B( 12-C , 15-H ) :   0.9721
B( 16-S , 17-C ) :   1.1617 B( 16-S , 20-C ) :   1.1418 B( 17-C , 18-C ) :   1.5791
B( 17-C , 20-C ) :   0.1153 B( 17-C , 33-H ) :   0.9668 B( 18-C , 19-C ) :   1.2788
B( 18-C , 21-H ) :   0.9750 B( 19-C , 20-C ) :   1.5502 B( 19-C , 22-C ) :   1.0493
B( 22-C , 23-H ) :   0.9350 B( 22-C , 24-H ) :   0.9491 B( 22-C , 25-C ) :   1.0169
B( 25-C , 26-H ) :   0.9695 B( 25-C , 27-H ) :   0.9612 B( 25-C , 28-C ) :   1.0764
B( 28-C , 29-H ) :   0.9758 B( 28-C , 30-H ) :   0.9791 B( 28-C , 31-H ) :   0.9770

Dispersion correction           -0.013788025
FINAL SINGLE POINT ENERGY     -1339.869237198416

DIPOLE MOMENT
-------------
                                X             Y             Z
Electronic contribution:     -9.55267      -2.47949     -27.62952
Nuclear contribution   :      9.78984       2.61458      28.30071
                        -----------------------------------------
Total Dipole Moment    :      0.23716       0.13509       0.67119
                        -----------------------------------------
Magnitude (a.u.)       :      0.72456
Magnitude (Debye)      :      1.84168

Rotational constants in cm-1:     0.016950     0.008353     0.006438
Rotational constants in MHz :   508.154657   250.413054   193.020466

                             ****ORCA TERMINATED NORMALLY****
TOTAL RUN TIME: 0 days 0 hours 0 minutes 20 seconds 29 msec
