                         Program Version 4.2.1 -  RELEASE  -
|  1> ! wB97X-D3 SP def2-SVP
|  2> %pal
|  3> nprocs 24
|  4> end
|  5>
|  6> * xyz 0 1
|  7> S 	 -96.9239 	 15.9837 	 -120.494
|  8> C 	 -96.3678 	 15.5329 	 -118.858
|  9> C 	 -97.4631 	 15.3294 	 -118.091
| 10> C 	 -98.736 	 15.6464 	 -118.691
| 11> C 	 -98.5645 	 16.0547 	 -120.011
| 12> H 	 -99.7385 	 15.6691 	 -118.172
| 13> C 	 -97.4116 	 15.0431 	 -116.608
| 14> H 	 -97.8357 	 15.9425 	 -116.173
| 15> H 	 -96.4523 	 15.1379 	 -116.137
| 16> C 	 -98.0664 	 13.7096 	 -116.127
| 17> H 	 -99.1526 	 13.6848 	 -115.843
| 18> H 	 -98.0145 	 13.0512 	 -117.001
| 19> C 	 -97.2577 	 13.1116 	 -114.936
| 20> H 	 -97.6691 	 12.1325 	 -114.699
| 21> H 	 -96.2116 	 12.8372 	 -115.236
| 22> H 	 -97.2839 	 13.7784 	 -114.16
| 23> S 	 -99.2336 	 17.9669 	 -121.987
| 24> C 	 -100.855 	 18.0244 	 -122.62
| 25> C 	 -101.63 	 16.9988 	 -122.129
| 26> C 	 -100.959 	 16.1978 	 -121.142
| 27> C 	 -99.6358 	 16.5867 	 -120.906
| 28> H 	 -102.658 	 16.8622 	 -122.288
| 29> C 	 -101.766 	 15.1586 	 -120.37
| 30> H 	 -101.102 	 14.5126 	 -119.722
| 31> H 	 -102.056 	 14.4009 	 -121.196
| 32> C 	 -102.931 	 15.5926 	 -119.472
| 33> H 	 -103.204 	 14.7067 	 -118.801
| 34> H 	 -103.858 	 15.8071 	 -120.058
| 35> C 	 -102.671 	 16.7437 	 -118.42
| 36> H 	 -102.143 	 17.5466 	 -118.862
| 37> H 	 -102.152 	 16.4008 	 -117.593
| 38> H 	 -103.627 	 17.1263 	 -118.055
| 39> H 	 -95.4023 	 15.6498 	 -118.423
| 40> H 	 -101.125 	 18.685 	 -123.345
| 41> *
| 42>
| 43>                          ****END OF INPUT****

CARTESIAN COORDINATES (ANGSTROEM)
---------------------------------
  S    -96.923900   15.983700  -120.494000
  C    -96.367800   15.532900  -118.858000
  C    -97.463100   15.329400  -118.091000
  C    -98.736000   15.646400  -118.691000
  C    -98.564500   16.054700  -120.011000
  H    -99.738500   15.669100  -118.172000
  C    -97.411600   15.043100  -116.608000
  H    -97.835700   15.942500  -116.173000
  H    -96.452300   15.137900  -116.137000
  C    -98.066400   13.709600  -116.127000
  H    -99.152600   13.684800  -115.843000
  H    -98.014500   13.051200  -117.001000
  C    -97.257700   13.111600  -114.936000
  H    -97.669100   12.132500  -114.699000
  H    -96.211600   12.837200  -115.236000
  H    -97.283900   13.778400  -114.160000
  S    -99.233600   17.966900  -121.987000
  C    -100.855000   18.024400  -122.620000
  C    -101.630000   16.998800  -122.129000
  C    -100.959000   16.197800  -121.142000
  C    -99.635800   16.586700  -120.906000
  H    -102.658000   16.862200  -122.288000
  C    -101.766000   15.158600  -120.370000
  H    -101.102000   14.512600  -119.722000
  H    -102.056000   14.400900  -121.196000
  C    -102.931000   15.592600  -119.472000
  H    -103.204000   14.706700  -118.801000
  H    -103.858000   15.807100  -120.058000
  C    -102.671000   16.743700  -118.420000
  H    -102.143000   17.546600  -118.862000
  H    -102.152000   16.400800  -117.593000
  H    -103.627000   17.126300  -118.055000
  H    -95.402300   15.649800  -118.423000
  H    -101.125000   18.685000  -123.345000

 Total Charge           Charge          ....    0
 Multiplicity           Mult            ....    1
 Number of Electrons    NEL             ....  134
 Basis Dimension        Dim             ....  322

ORBITAL ENERGIES
----------------

  NO   OCC          E(Eh)            E(eV)
   0   2.0000     -88.966210     -2420.8936
   1   2.0000     -88.965407     -2420.8718
   2   2.0000     -10.335685      -281.2483
   3   2.0000     -10.334520      -281.2166
   4   2.0000     -10.315988      -280.7123
   5   2.0000     -10.309839      -280.5450
   6   2.0000     -10.307816      -280.4899
   7   2.0000     -10.304110      -280.3891
   8   2.0000     -10.301301      -280.3127
   9   2.0000     -10.299841      -280.2729
  10   2.0000     -10.298715      -280.2423
  11   2.0000     -10.292788      -280.0810
  12   2.0000     -10.292563      -280.0749
  13   2.0000     -10.287999      -279.9507
  14   2.0000     -10.276903      -279.6488
  15   2.0000     -10.273625      -279.5595
  16   2.0000      -8.080480      -219.8811
  17   2.0000      -8.080244      -219.8746
  18   2.0000      -6.038995      -164.3294
  19   2.0000      -6.038917      -164.3273
  20   2.0000      -6.035035      -164.2217
  21   2.0000      -6.034724      -164.2132
  22   2.0000      -6.031272      -164.1193
  23   2.0000      -6.030813      -164.1068
  24   2.0000      -1.004722       -27.3399
  25   2.0000      -0.983773       -26.7698
  26   2.0000      -0.908489       -24.7212
  27   2.0000      -0.902343       -24.5540
  28   2.0000      -0.867980       -23.6189
  29   2.0000      -0.849162       -23.1069
  30   2.0000      -0.842534       -22.9265
  31   2.0000      -0.815261       -22.1844
  32   2.0000      -0.785126       -21.3644
  33   2.0000      -0.776507       -21.1298
  34   2.0000      -0.709980       -19.3195
  35   2.0000      -0.699502       -19.0344
  36   2.0000      -0.695996       -18.9390
  37   2.0000      -0.663021       -18.0417
  38   2.0000      -0.639704       -17.4072
  39   2.0000      -0.617787       -16.8108
  40   2.0000      -0.598739       -16.2925
  41   2.0000      -0.570581       -15.5263
  42   2.0000      -0.557366       -15.1667
  43   2.0000      -0.547981       -14.9113
  44   2.0000      -0.544913       -14.8278
  45   2.0000      -0.533191       -14.5089
  46   2.0000      -0.518869       -14.1191
  47   2.0000      -0.510844       -13.9008
  48   2.0000      -0.504432       -13.7263
  49   2.0000      -0.496956       -13.5228
  50   2.0000      -0.490014       -13.3339
  51   2.0000      -0.474563       -12.9135
  52   2.0000      -0.473048       -12.8723
  53   2.0000      -0.466219       -12.6865
  54   2.0000      -0.464039       -12.6271
  55   2.0000      -0.448626       -12.2077
  56   2.0000      -0.445494       -12.1225
  57   2.0000      -0.440672       -11.9913
  58   2.0000      -0.436256       -11.8711
  59   2.0000      -0.422851       -11.5064
  60   2.0000      -0.412233       -11.2174
  61   2.0000      -0.410885       -11.1807
  62   2.0000      -0.407911       -11.0998
  63   2.0000      -0.351080        -9.5534
  64   2.0000      -0.331893        -9.0313
  65   2.0000      -0.328840        -8.9482
  66   2.0000      -0.293890        -7.9971
  67   0.0000       0.024507         0.6669
  68   0.0000       0.077160         2.0996
  69   0.0000       0.111289         3.0283
  70   0.0000       0.117553         3.1988
  71   0.0000       0.126997         3.4558

MULLIKEN ATOMIC CHARGES
-----------------------
   0 S :    0.099603
   1 C :   -0.113926
   2 C :   -0.084088
   3 C :   -0.002519
   4 C :   -0.116780
   5 H :    0.032539
   6 C :    0.069733
   7 H :    0.028542
   8 H :    0.000760
   9 C :   -0.095983
  10 H :    0.039965
  11 H :    0.035644
  12 C :   -0.046199
  13 H :    0.028920
  14 H :    0.036539
  15 H :    0.028164
  16 S :    0.094190
  17 C :   -0.046567
  18 C :    0.006243
  19 C :   -0.052862
  20 C :   -0.151515
  21 H :    0.001678
  22 C :    0.008563
  23 H :    0.032032
  24 H :    0.051943
  25 C :   -0.108026
  26 H :    0.041363
  27 H :    0.038330
  28 C :   -0.023578
  29 H :    0.040117
  30 H :    0.024481
  31 H :    0.030782
  32 H :    0.043293
  33 H :    0.028617
Sum of atomic charges:   -0.0000000

LOEWDIN ATOMIC CHARGES
----------------------
   0 S :    0.401446
   1 C :   -0.193485
   2 C :   -0.059313
   3 C :   -0.077485
   4 C :   -0.192552
   5 H :    0.041590
   6 C :   -0.038376
   7 H :    0.034534
   8 H :    0.025204
   9 C :   -0.043647
  10 H :    0.027789
  11 H :    0.025042
  12 C :   -0.057590
  13 H :    0.026378
  14 H :    0.030319
  15 H :    0.011076
  16 S :    0.389535
  17 C :   -0.160320
  18 C :   -0.063057
  19 C :   -0.057503
  20 C :   -0.185227
  21 H :    0.023994
  22 C :   -0.051813
  23 H :    0.033807
  24 H :    0.047264
  25 C :   -0.047695
  26 H :    0.035612
  27 H :    0.023225
  28 C :   -0.056376
  29 H :    0.022863
  30 H :    0.012840
  31 H :    0.031509
  32 H :    0.029933
  33 H :    0.010478

  Mayer bond orders larger than 0.100000
B(  0-S ,  1-C ) :   1.0968 B(  0-S ,  4-C ) :   1.1689 B(  1-C ,  2-C ) :   1.6440
B(  1-C , 32-H ) :   0.9707 B(  2-C ,  3-C ) :   1.2127 B(  2-C ,  6-C ) :   1.0359
B(  3-C ,  4-C ) :   1.5654 B(  3-C ,  5-H ) :   0.9844 B(  4-C , 20-C ) :   1.0362
B(  6-C ,  7-H ) :   0.9321 B(  6-C ,  8-H ) :   0.9494 B(  6-C ,  9-C ) :   1.0231
B(  9-C , 10-H ) :   0.9560 B(  9-C , 11-H ) :   0.9667 B(  9-C , 12-C ) :   1.0874
B( 12-C , 13-H ) :   0.9741 B( 12-C , 14-H ) :   0.9761 B( 12-C , 15-H ) :   0.9791
B( 16-S , 17-C ) :   1.1621 B( 16-S , 20-C ) :   1.1281 B( 17-C , 18-C ) :   1.5829
B( 17-C , 33-H ) :   0.9820 B( 18-C , 19-C ) :   1.2498 B( 18-C , 21-H ) :   0.9984
B( 19-C , 20-C ) :   1.5923 B( 19-C , 22-C ) :   1.0422 B( 22-C , 23-H ) :   0.9386
B( 22-C , 24-H ) :   0.9325 B( 22-C , 25-C ) :   1.0605 B( 25-C , 26-H ) :   0.9577
B( 25-C , 27-H ) :   0.9598 B( 25-C , 28-C ) :   1.0677 B( 28-C , 29-H ) :   0.9777
B( 28-C , 30-H ) :   0.9740 B( 28-C , 31-H ) :   0.9719

Dispersion correction           -0.014527063
FINAL SINGLE POINT ENERGY     -1339.863163541133

DIPOLE MOMENT
-------------
                                X             Y             Z
Electronic contribution:     12.19283      12.96453     -25.27761
Nuclear contribution   :    -12.70547     -13.05833      25.83871
                        -----------------------------------------
Total Dipole Moment    :     -0.51264      -0.09380       0.56111
                        -----------------------------------------
Magnitude (a.u.)       :      0.76579
Magnitude (Debye)      :      1.94649

Rotational constants in cm-1:     0.019503     0.008687     0.006407
Rotational constants in MHz :   584.673829   260.415057   192.063779

                             ****ORCA TERMINATED NORMALLY****
TOTAL RUN TIME: 0 days 0 hours 0 minutes 21 seconds 734 msec
