                         Program Version 4.2.1 -  RELEASE  -
|  1> ! wB97X-D3 SP def2-SVP
|  2> %pal
|  3> nprocs 24
|  4> end
|  5>
|  6> * xyz 0 1
|  7> S 	 -65.8143 	 -46.6742 	 -91.6699
|  8> C 	 -64.0988 	 -46.5327 	 -92.1002
|  9> C 	 -63.3924 	 -47.6054 	 -91.6519
| 10> C 	 -64.2178 	 -48.4894 	 -90.8957
| 11> C 	 -65.5712 	 -48.1093 	 -90.7979
| 12> H 	 -63.8268 	 -49.3668 	 -90.341
| 13> C 	 -61.9115 	 -47.8802 	 -91.8899
| 14> H 	 -61.6997 	 -47.5034 	 -92.8767
| 15> H 	 -61.8971 	 -48.9093 	 -92.026
| 16> C 	 -61.0007 	 -47.3101 	 -90.8276
| 17> H 	 -61.2357 	 -46.1777 	 -90.816
| 18> H 	 -61.0903 	 -47.7043 	 -89.8284
| 19> C 	 -59.5463 	 -47.4996 	 -91.228
| 20> H 	 -59.3219 	 -48.5671 	 -91.2927
| 21> H 	 -59.366 	 -47.1394 	 -92.2302
| 22> H 	 -58.8878 	 -46.8924 	 -90.603
| 23> S 	 -67.3348 	 -47.8234 	 -88.8035
| 24> C 	 -68.2634 	 -49.0963 	 -88.1855
| 25> C 	 -67.9348 	 -50.2484 	 -88.7607
| 26> C 	 -67.0288 	 -50.095 	 -89.8844
| 27> C 	 -66.6023 	 -48.8012 	 -90.0542
| 28> H 	 -68.4146 	 -51.1708 	 -88.4459
| 29> C 	 -66.6352 	 -51.323 	 -90.5576
| 30> H 	 -67.4127 	 -52.0342 	 -90.2034
| 31> H 	 -65.6734 	 -51.7298 	 -90.1828
| 32> C 	 -66.7592 	 -51.3183 	 -92.0712
| 33> H 	 -66.2318 	 -52.1532 	 -92.4383
| 34> H 	 -66.1453 	 -50.489 	 -92.5713
| 35> C 	 -68.2036 	 -51.155 	 -92.6477
| 36> H 	 -68.6891 	 -50.2095 	 -92.2646
| 37> H 	 -68.8581 	 -51.9328 	 -92.2162
| 38> H 	 -68.3842 	 -51.1983 	 -93.7856
| 39> H 	 -63.6787 	 -45.7291 	 -92.6921
| 40> H 	 -68.86 	 -49.0493 	 -87.2791
| 41> *
| 42>
| 43>                          ****END OF INPUT****

CARTESIAN COORDINATES (ANGSTROEM)
---------------------------------
  S    -65.814300  -46.674200  -91.669900
  C    -64.098800  -46.532700  -92.100200
  C    -63.392400  -47.605400  -91.651900
  C    -64.217800  -48.489400  -90.895700
  C    -65.571200  -48.109300  -90.797900
  H    -63.826800  -49.366800  -90.341000
  C    -61.911500  -47.880200  -91.889900
  H    -61.699700  -47.503400  -92.876700
  H    -61.897100  -48.909300  -92.026000
  C    -61.000700  -47.310100  -90.827600
  H    -61.235700  -46.177700  -90.816000
  H    -61.090300  -47.704300  -89.828400
  C    -59.546300  -47.499600  -91.228000
  H    -59.321900  -48.567100  -91.292700
  H    -59.366000  -47.139400  -92.230200
  H    -58.887800  -46.892400  -90.603000
  S    -67.334800  -47.823400  -88.803500
  C    -68.263400  -49.096300  -88.185500
  C    -67.934800  -50.248400  -88.760700
  C    -67.028800  -50.095000  -89.884400
  C    -66.602300  -48.801200  -90.054200
  H    -68.414600  -51.170800  -88.445900
  C    -66.635200  -51.323000  -90.557600
  H    -67.412700  -52.034200  -90.203400
  H    -65.673400  -51.729800  -90.182800
  C    -66.759200  -51.318300  -92.071200
  H    -66.231800  -52.153200  -92.438300
  H    -66.145300  -50.489000  -92.571300
  C    -68.203600  -51.155000  -92.647700
  H    -68.689100  -50.209500  -92.264600
  H    -68.858100  -51.932800  -92.216200
  H    -68.384200  -51.198300  -93.785600
  H    -63.678700  -45.729100  -92.692100
  H    -68.860000  -49.049300  -87.279100

 Total Charge           Charge          ....    0
 Multiplicity           Mult            ....    1
 Number of Electrons    NEL             ....  134
 Basis Dimension        Dim             ....  322

ORBITAL ENERGIES
----------------

  NO   OCC          E(Eh)            E(eV)
   0   2.0000     -88.966446     -2420.9001
   1   2.0000     -88.957574     -2420.6586
   2   2.0000     -10.328122      -281.0425
   3   2.0000     -10.324061      -280.9320
   4   2.0000     -10.311880      -280.6005
   5   2.0000     -10.306940      -280.4661
   6   2.0000     -10.298607      -280.2393
   7   2.0000     -10.296908      -280.1931
   8   2.0000     -10.294429      -280.1257
   9   2.0000     -10.291486      -280.0456
  10   2.0000     -10.290241      -280.0117
  11   2.0000     -10.286612      -279.9129
  12   2.0000     -10.286122      -279.8996
  13   2.0000     -10.285918      -279.8941
  14   2.0000     -10.285380      -279.8794
  15   2.0000     -10.276424      -279.6357
  16   2.0000      -8.081577      -219.9109
  17   2.0000      -8.074068      -219.7066
  18   2.0000      -6.039993      -164.3566
  19   2.0000      -6.035963      -164.2469
  20   2.0000      -6.032540      -164.1538
  21   2.0000      -6.032465      -164.1517
  22   2.0000      -6.028236      -164.0366
  23   2.0000      -6.024819      -163.9437
  24   2.0000      -1.014790       -27.6138
  25   2.0000      -0.991468       -26.9792
  26   2.0000      -0.919665       -25.0253
  27   2.0000      -0.912552       -24.8318
  28   2.0000      -0.876206       -23.8428
  29   2.0000      -0.848410       -23.0864
  30   2.0000      -0.842098       -22.9146
  31   2.0000      -0.812505       -22.1094
  32   2.0000      -0.784372       -21.3439
  33   2.0000      -0.773100       -21.0371
  34   2.0000      -0.713317       -19.4103
  35   2.0000      -0.702524       -19.1167
  36   2.0000      -0.690698       -18.7949
  37   2.0000      -0.664093       -18.0709
  38   2.0000      -0.637746       -17.3540
  39   2.0000      -0.618469       -16.8294
  40   2.0000      -0.590374       -16.0649
  41   2.0000      -0.573386       -15.6026
  42   2.0000      -0.565840       -15.3973
  43   2.0000      -0.554238       -15.0816
  44   2.0000      -0.537391       -14.6231
  45   2.0000      -0.535997       -14.5852
  46   2.0000      -0.512766       -13.9531
  47   2.0000      -0.511158       -13.9093
  48   2.0000      -0.507057       -13.7977
  49   2.0000      -0.502907       -13.6848
  50   2.0000      -0.483223       -13.1492
  51   2.0000      -0.478214       -13.0129
  52   2.0000      -0.472507       -12.8576
  53   2.0000      -0.462157       -12.5759
  54   2.0000      -0.458506       -12.4766
  55   2.0000      -0.449158       -12.2222
  56   2.0000      -0.444552       -12.0969
  57   2.0000      -0.440697       -11.9920
  58   2.0000      -0.426578       -11.6078
  59   2.0000      -0.424849       -11.5607
  60   2.0000      -0.418523       -11.3886
  61   2.0000      -0.415182       -11.2977
  62   2.0000      -0.401729       -10.9316
  63   2.0000      -0.347127        -9.4458
  64   2.0000      -0.333115        -9.0645
  65   2.0000      -0.323500        -8.8029
  66   2.0000      -0.298206        -8.1146
  67   0.0000       0.034997         0.9523
  68   0.0000       0.075429         2.0525
  69   0.0000       0.117551         3.1987
  70   0.0000       0.121547         3.3075
  71   0.0000       0.139767         3.8033

MULLIKEN ATOMIC CHARGES
-----------------------
   0 S :    0.122080
   1 C :   -0.135481
   2 C :   -0.102327
   3 C :    0.019785
   4 C :   -0.156901
   5 H :    0.016711
   6 C :    0.117720
   7 H :    0.009811
   8 H :    0.002211
   9 C :   -0.078640
  10 H :    0.038090
  11 H :    0.036875
  12 C :   -0.020290
  13 H :    0.029074
  14 H :    0.010825
  15 H :    0.037877
  16 S :    0.093204
  17 C :   -0.064142
  18 C :   -0.055949
  19 C :   -0.052084
  20 C :   -0.134291
  21 H :    0.020229
  22 C :    0.052638
  23 H :    0.013878
  24 H :    0.048115
  25 C :   -0.048769
  26 H :    0.010739
  27 H :    0.042036
  28 C :   -0.103594
  29 H :    0.050213
  30 H :    0.022295
  31 H :    0.056784
  32 H :    0.043910
  33 H :    0.057365
Sum of atomic charges:   -0.0000000

LOEWDIN ATOMIC CHARGES
----------------------
   0 S :    0.425104
   1 C :   -0.193732
   2 C :   -0.062603
   3 C :   -0.069285
   4 C :   -0.220173
   5 H :    0.032888
   6 C :   -0.024595
   7 H :    0.030400
   8 H :    0.021126
   9 C :   -0.039013
  10 H :    0.034791
  11 H :    0.024999
  12 C :   -0.065242
  13 H :    0.025883
  14 H :    0.019392
  15 H :    0.027553
  16 S :    0.425183
  17 C :   -0.197271
  18 C :   -0.079586
  19 C :   -0.060242
  20 C :   -0.197025
  21 H :    0.031818
  22 C :   -0.037718
  23 H :    0.034650
  24 H :    0.038845
  25 C :   -0.046571
  26 H :    0.016071
  27 H :    0.032926
  28 C :   -0.082122
  29 H :    0.032982
  30 H :    0.019641
  31 H :    0.038132
  32 H :    0.028107
  33 H :    0.034689

  Mayer bond orders larger than 0.100000
B(  0-S ,  1-C ) :   1.1321 B(  0-S ,  4-C ) :   1.1801 B(  1-C ,  2-C ) :   1.6081
B(  1-C , 32-H ) :   0.9708 B(  2-C ,  3-C ) :   1.2683 B(  2-C ,  6-C ) :   1.0050
B(  3-C ,  4-C ) :   1.5385 B(  3-C ,  5-H ) :   0.9912 B(  4-C , 20-C ) :   1.0252
B(  6-C ,  7-H ) :   0.9364 B(  6-C ,  8-H ) :   0.9309 B(  6-C ,  9-C ) :   1.0646
B(  9-C , 10-H ) :   0.9537 B(  9-C , 11-H ) :   0.9567 B(  9-C , 12-C ) :   1.0866
B( 12-C , 13-H ) :   0.9723 B( 12-C , 14-H ) :   0.9717 B( 12-C , 15-H ) :   0.9733
B( 16-S , 17-C ) :   1.1621 B( 16-S , 20-C ) :   1.1420 B( 17-C , 18-C ) :   1.6331
B( 17-C , 33-H ) :   0.9605 B( 18-C , 19-C ) :   1.2304 B( 18-C , 21-H ) :   0.9869
B( 19-C , 20-C ) :   1.6027 B( 19-C , 22-C ) :   1.0505 B( 22-C , 23-H ) :   0.9325
B( 22-C , 24-H ) :   0.9267 B( 22-C , 25-C ) :   1.0776 B( 25-C , 26-H ) :   0.9542
B( 25-C , 27-H ) :   0.9536 B( 25-C , 28-C ) :   1.0530 B( 28-C , 29-H ) :   0.9745
B( 28-C , 30-H ) :   0.9748 B( 28-C , 31-H ) :   0.9766

Dispersion correction           -0.014382667
FINAL SINGLE POINT ENERGY     -1339.875971740030

DIPOLE MOMENT
-------------
                                X             Y             Z
Electronic contribution:    -16.33056      12.77893       8.89688
Nuclear contribution   :     16.80615     -13.26500      -8.87194
                        -----------------------------------------
Total Dipole Moment    :      0.47559      -0.48607       0.02493
                        -----------------------------------------
Magnitude (a.u.)       :      0.68049
Magnitude (Debye)      :      1.72968

Rotational constants in cm-1:     0.021047     0.007630     0.006985
Rotational constants in MHz :   630.987568   228.740996   209.401812

                             ****ORCA TERMINATED NORMALLY****
TOTAL RUN TIME: 0 days 0 hours 0 minutes 21 seconds 596 msec
