                         Program Version 4.2.1 -  RELEASE  -
|  1> ! wB97X-D3 SP def2-SVP
|  2> %pal
|  3> nprocs 24
|  4> end
|  5>
|  6> * xyz 0 1
|  7> S 	 -20.262 	 -30.8316 	 -101.552
|  8> C 	 -19.4893 	 -29.5974 	 -102.555
|  9> C 	 -19.4735 	 -29.9641 	 -103.925
| 10> C 	 -19.8382 	 -31.3212 	 -104.084
| 11> C 	 -20.1785 	 -32.0037 	 -102.91
| 12> H 	 -19.8026 	 -31.9037 	 -104.989
| 13> C 	 -19.119 	 -29.097 	 -105.131
| 14> H 	 -18.3577 	 -29.5557 	 -105.773
| 15> H 	 -18.5226 	 -28.2871 	 -104.756
| 16> C 	 -20.3748 	 -28.6561 	 -105.946
| 17> H 	 -20.0618 	 -28.2498 	 -106.883
| 18> H 	 -20.9372 	 -29.5423 	 -106.205
| 19> C 	 -21.3902 	 -27.7879 	 -105.313
| 20> H 	 -22.2532 	 -27.5737 	 -105.92
| 21> H 	 -21.7463 	 -28.2979 	 -104.387
| 22> H 	 -20.9515 	 -26.8104 	 -104.969
| 23> S 	 -19.3241 	 -34.4617 	 -102.256
| 24> C 	 -20.4684 	 -35.8119 	 -102.255
| 25> C 	 -21.7049 	 -35.5277 	 -102.772
| 26> C 	 -21.7869 	 -34.0826 	 -103.013
| 27> C 	 -20.578 	 -33.3491 	 -102.792
| 28> H 	 -22.5163 	 -36.2281 	 -102.943
| 29> C 	 -23.1147 	 -33.4031 	 -103.339
| 30> H 	 -22.8725 	 -33.0235 	 -104.302
| 31> H 	 -23.1848 	 -32.6359 	 -102.579
| 32> C 	 -24.4407 	 -34.1426 	 -103.458
| 33> H 	 -24.2229 	 -34.9903 	 -103.993
| 34> H 	 -25.0335 	 -33.4159 	 -104.022
| 35> C 	 -25.119 	 -34.3697 	 -102.073
| 36> H 	 -25.1135 	 -33.3944 	 -101.581
| 37> H 	 -24.5845 	 -34.9559 	 -101.418
| 38> H 	 -26.2367 	 -34.5666 	 -102.106
| 39> H 	 -19.3095 	 -28.5664 	 -102.214
| 40> H 	 -20.1927 	 -36.7711 	 -101.824
| 41> *
| 42>
| 43>                          ****END OF INPUT****

CARTESIAN COORDINATES (ANGSTROEM)
---------------------------------
  S    -20.262000  -30.831600  -101.552000
  C    -19.489300  -29.597400  -102.555000
  C    -19.473500  -29.964100  -103.925000
  C    -19.838200  -31.321200  -104.084000
  C    -20.178500  -32.003700  -102.910000
  H    -19.802600  -31.903700  -104.989000
  C    -19.119000  -29.097000  -105.131000
  H    -18.357700  -29.555700  -105.773000
  H    -18.522600  -28.287100  -104.756000
  C    -20.374800  -28.656100  -105.946000
  H    -20.061800  -28.249800  -106.883000
  H    -20.937200  -29.542300  -106.205000
  C    -21.390200  -27.787900  -105.313000
  H    -22.253200  -27.573700  -105.920000
  H    -21.746300  -28.297900  -104.387000
  H    -20.951500  -26.810400  -104.969000
  S    -19.324100  -34.461700  -102.256000
  C    -20.468400  -35.811900  -102.255000
  C    -21.704900  -35.527700  -102.772000
  C    -21.786900  -34.082600  -103.013000
  C    -20.578000  -33.349100  -102.792000
  H    -22.516300  -36.228100  -102.943000
  C    -23.114700  -33.403100  -103.339000
  H    -22.872500  -33.023500  -104.302000
  H    -23.184800  -32.635900  -102.579000
  C    -24.440700  -34.142600  -103.458000
  H    -24.222900  -34.990300  -103.993000
  H    -25.033500  -33.415900  -104.022000
  C    -25.119000  -34.369700  -102.073000
  H    -25.113500  -33.394400  -101.581000
  H    -24.584500  -34.955900  -101.418000
  H    -26.236700  -34.566600  -102.106000
  H    -19.309500  -28.566400  -102.214000
  H    -20.192700  -36.771100  -101.824000

 Total Charge           Charge          ....    0
 Multiplicity           Mult            ....    1
 Number of Electrons    NEL             ....  134
 Basis Dimension        Dim             ....  322

ORBITAL ENERGIES
----------------

  NO   OCC          E(Eh)            E(eV)
   0   2.0000     -88.967592     -2420.9313
   1   2.0000     -88.961977     -2420.7785
   2   2.0000     -10.327955      -281.0380
   3   2.0000     -10.322573      -280.8915
   4   2.0000     -10.321307      -280.8570
   5   2.0000     -10.320585      -280.8374
   6   2.0000     -10.312154      -280.6080
   7   2.0000     -10.305544      -280.4281
   8   2.0000     -10.299169      -280.2546
   9   2.0000     -10.295954      -280.1672
  10   2.0000     -10.294204      -280.1195
  11   2.0000     -10.285703      -279.8882
  12   2.0000     -10.283143      -279.8185
  13   2.0000     -10.282973      -279.8139
  14   2.0000     -10.278290      -279.6865
  15   2.0000     -10.276370      -279.6342
  16   2.0000      -8.081100      -219.8979
  17   2.0000      -8.076483      -219.7723
  18   2.0000      -6.039583      -164.3454
  19   2.0000      -6.035829      -164.2432
  20   2.0000      -6.035052      -164.2221
  21   2.0000      -6.031909      -164.1366
  22   2.0000      -6.030987      -164.1115
  23   2.0000      -6.027230      -164.0093
  24   2.0000      -0.998281       -27.1646
  25   2.0000      -0.974482       -26.5170
  26   2.0000      -0.912523       -24.8310
  27   2.0000      -0.910433       -24.7741
  28   2.0000      -0.871776       -23.7222
  29   2.0000      -0.848418       -23.0866
  30   2.0000      -0.843257       -22.9462
  31   2.0000      -0.813437       -22.1347
  32   2.0000      -0.785502       -21.3746
  33   2.0000      -0.769483       -20.9387
  34   2.0000      -0.715254       -19.4631
  35   2.0000      -0.699589       -19.0368
  36   2.0000      -0.691744       -18.8233
  37   2.0000      -0.653945       -17.7948
  38   2.0000      -0.641899       -17.4670
  39   2.0000      -0.616881       -16.7862
  40   2.0000      -0.598315       -16.2810
  41   2.0000      -0.569931       -15.5086
  42   2.0000      -0.558634       -15.2012
  43   2.0000      -0.550095       -14.9688
  44   2.0000      -0.545724       -14.8499
  45   2.0000      -0.538810       -14.6618
  46   2.0000      -0.517897       -14.0927
  47   2.0000      -0.513581       -13.9752
  48   2.0000      -0.503567       -13.7027
  49   2.0000      -0.497229       -13.5303
  50   2.0000      -0.483621       -13.1600
  51   2.0000      -0.475861       -12.9488
  52   2.0000      -0.469184       -12.7672
  53   2.0000      -0.462530       -12.5861
  54   2.0000      -0.457500       -12.4492
  55   2.0000      -0.452169       -12.3041
  56   2.0000      -0.445643       -12.1266
  57   2.0000      -0.440125       -11.9764
  58   2.0000      -0.437433       -11.9032
  59   2.0000      -0.420664       -11.4468
  60   2.0000      -0.419041       -11.4027
  61   2.0000      -0.414254       -11.2724
  62   2.0000      -0.408547       -11.1171
  63   2.0000      -0.335930        -9.1411
  64   2.0000      -0.330547        -8.9946
  65   2.0000      -0.310792        -8.4571
  66   2.0000      -0.303948        -8.2709
  67   0.0000       0.034201         0.9307
  68   0.0000       0.049040         1.3345
  69   0.0000       0.106807         2.9064
  70   0.0000       0.117784         3.2051
  71   0.0000       0.126667         3.4468

MULLIKEN ATOMIC CHARGES
-----------------------
   0 S :    0.113446
   1 C :   -0.118932
   2 C :   -0.108496
   3 C :    0.060394
   4 C :   -0.185682
   5 H :    0.011985
   6 C :    0.085236
   7 H :    0.031905
   8 H :    0.007201
   9 C :   -0.045129
  10 H :    0.020129
  11 H :    0.019156
  12 C :   -0.056857
  13 H :    0.036940
  14 H :    0.038165
  15 H :    0.024514
  16 S :    0.106586
  17 C :   -0.084510
  18 C :   -0.027577
  19 C :   -0.067575
  20 C :   -0.191984
  21 H :    0.029856
  22 C :    0.056160
  23 H :    0.024928
  24 H :    0.029871
  25 C :   -0.018103
  26 H :    0.011850
  27 H :    0.035322
  28 C :   -0.038044
  29 H :    0.013832
  30 H :    0.021356
  31 H :    0.046956
  32 H :    0.058823
  33 H :    0.058277
Sum of atomic charges:   -0.0000000

LOEWDIN ATOMIC CHARGES
----------------------
   0 S :    0.385347
   1 C :   -0.193239
   2 C :   -0.065457
   3 C :   -0.048413
   4 C :   -0.197782
   5 H :    0.031728
   6 C :   -0.029258
   7 H :    0.035991
   8 H :    0.025646
   9 C :   -0.040915
  10 H :    0.019698
  11 H :    0.025075
  12 C :   -0.067865
  13 H :    0.026091
  14 H :    0.030486
  15 H :    0.023959
  16 S :    0.399362
  17 C :   -0.167594
  18 C :   -0.080630
  19 C :   -0.035979
  20 C :   -0.224853
  21 H :    0.035637
  22 C :   -0.034117
  23 H :    0.033112
  24 H :    0.030552
  25 C :   -0.029384
  26 H :    0.009021
  27 H :    0.035665
  28 C :   -0.065375
  29 H :    0.027901
  30 H :    0.012296
  31 H :    0.035729
  32 H :    0.030897
  33 H :    0.026669

  Mayer bond orders larger than 0.100000
B(  0-S ,  1-C ) :   1.1523 B(  0-S ,  4-C ) :   1.1233 B(  1-C ,  2-C ) :   1.5845
B(  1-C ,  4-C ) :   0.1100 B(  1-C , 32-H ) :   0.9628 B(  2-C ,  3-C ) :   1.2453
B(  2-C ,  6-C ) :   1.0265 B(  3-C ,  4-C ) :   1.5787 B(  3-C ,  5-H ) :   0.9924
B(  4-C , 20-C ) :   1.0785 B(  6-C ,  7-H ) :   0.9435 B(  6-C ,  8-H ) :   0.9380
B(  6-C ,  9-C ) :   1.0568 B(  9-C , 10-H ) :   0.9537 B(  9-C , 11-H ) :   0.9542
B(  9-C , 12-C ) :   1.0890 B( 12-C , 13-H ) :   0.9708 B( 12-C , 14-H ) :   0.9708
B( 12-C , 15-H ) :   0.9727 B( 16-S , 17-C ) :   1.1707 B( 16-S , 20-C ) :   1.1237
B( 17-C , 18-C ) :   1.6024 B( 17-C , 33-H ) :   0.9628 B( 18-C , 19-C ) :   1.2358
B( 18-C , 21-H ) :   0.9856 B( 19-C , 20-C ) :   1.5955 B( 19-C , 22-C ) :   1.0091
B( 22-C , 23-H ) :   0.9231 B( 22-C , 24-H ) :   0.9388 B( 22-C , 25-C ) :   1.0892
B( 25-C , 26-H ) :   0.9517 B( 25-C , 27-H ) :   0.9508 B( 25-C , 28-C ) :   1.0719
B( 28-C , 29-H ) :   0.9686 B( 28-C , 30-H ) :   0.9807 B( 28-C , 31-H ) :   0.9753

Dispersion correction           -0.014493771
FINAL SINGLE POINT ENERGY     -1339.856401652423

DIPOLE MOMENT
-------------
                                X             Y             Z
Electronic contribution:     17.93168      -9.90436      12.88180
Nuclear contribution   :    -18.36841      10.01763     -13.35806
                        -----------------------------------------
Total Dipole Moment    :     -0.43673       0.11327      -0.47625
                        -----------------------------------------
Magnitude (a.u.)       :      0.65604
Magnitude (Debye)      :      1.66751

Rotational constants in cm-1:     0.019128     0.008177     0.006768
Rotational constants in MHz :   573.456946   245.139352   202.897375

                             ****ORCA TERMINATED NORMALLY****
TOTAL RUN TIME: 0 days 0 hours 0 minutes 21 seconds 402 msec
