                         Program Version 4.2.1 -  RELEASE  -
|  1> ! wB97X-D3 SP def2-SVP
|  2> %pal
|  3> nprocs 24
|  4> end
|  5>
|  6> * xyz 0 1
|  7> S 	 -48.8184 	 1.5019 	 -17.7366
|  8> C 	 -48.5655 	 0.345857 	 -18.9952
|  9> C 	 -48.1572 	 -0.919402 	 -18.4902
| 10> C 	 -48.1273 	 -0.990912 	 -17.0719
| 11> C 	 -48.3915 	 0.268693 	 -16.5293
| 12> H 	 -47.8392 	 -1.82621 	 -16.536
| 13> C 	 -47.8309 	 -2.12137 	 -19.3237
| 14> H 	 -47.738 	 -3.00038 	 -18.6873
| 15> H 	 -46.825 	 -1.81526 	 -19.6814
| 16> C 	 -48.8146 	 -2.46969 	 -20.549
| 17> H 	 -49.8032 	 -2.42419 	 -20.208
| 18> H 	 -48.5562 	 -1.76743 	 -21.3384
| 19> C 	 -48.6203 	 -3.91996 	 -21.0402
| 20> H 	 -49.2424 	 -4.15095 	 -21.9009
| 21> H 	 -47.6174 	 -4.00186 	 -21.3587
| 22> H 	 -48.7591 	 -4.63479 	 -20.2438
| 23> S 	 -47.8824 	 2.15491 	 -14.5699
| 24> C 	 -48.133 	 1.71287 	 -12.9259
| 25> C 	 -48.8208 	 0.496225 	 -12.8052
| 26> C 	 -48.8455 	 -0.221411 	 -14.0539
| 27> C 	 -48.4086 	 0.57519 	 -15.0899
| 28> H 	 -49.2527 	 0.301913 	 -11.8336
| 29> C 	 -49.5321 	 -1.57762 	 -14.2003
| 30> H 	 -48.7993 	 -2.22274 	 -13.821
| 31> H 	 -49.5633 	 -1.7198 	 -15.2329
| 32> C 	 -50.9656 	 -1.69612 	 -13.6457
| 33> H 	 -51.518 	 -0.903515 	 -14.1428
| 34> H 	 -50.9839 	 -1.50662 	 -12.5864
| 35> C 	 -51.8164 	 -2.9277 	 -14.0816
| 36> H 	 -52.0801 	 -2.87231 	 -15.1249
| 37> H 	 -52.754 	 -2.93156 	 -13.5688
| 38> H 	 -51.421 	 -3.91876 	 -14.0289
| 39> H 	 -48.6541 	 0.655103 	 -19.9898
| 40> H 	 -47.9703 	 2.41308 	 -12.0708
| 41> *
| 42>
| 43>                          ****END OF INPUT****

CARTESIAN COORDINATES (ANGSTROEM)
---------------------------------
  S    -48.818400    1.501900  -17.736600
  C    -48.565500    0.345857  -18.995200
  C    -48.157200   -0.919402  -18.490200
  C    -48.127300   -0.990912  -17.071900
  C    -48.391500    0.268693  -16.529300
  H    -47.839200   -1.826210  -16.536000
  C    -47.830900   -2.121370  -19.323700
  H    -47.738000   -3.000380  -18.687300
  H    -46.825000   -1.815260  -19.681400
  C    -48.814600   -2.469690  -20.549000
  H    -49.803200   -2.424190  -20.208000
  H    -48.556200   -1.767430  -21.338400
  C    -48.620300   -3.919960  -21.040200
  H    -49.242400   -4.150950  -21.900900
  H    -47.617400   -4.001860  -21.358700
  H    -48.759100   -4.634790  -20.243800
  S    -47.882400    2.154910  -14.569900
  C    -48.133000    1.712870  -12.925900
  C    -48.820800    0.496225  -12.805200
  C    -48.845500   -0.221411  -14.053900
  C    -48.408600    0.575190  -15.089900
  H    -49.252700    0.301913  -11.833600
  C    -49.532100   -1.577620  -14.200300
  H    -48.799300   -2.222740  -13.821000
  H    -49.563300   -1.719800  -15.232900
  C    -50.965600   -1.696120  -13.645700
  H    -51.518000   -0.903515  -14.142800
  H    -50.983900   -1.506620  -12.586400
  C    -51.816400   -2.927700  -14.081600
  H    -52.080100   -2.872310  -15.124900
  H    -52.754000   -2.931560  -13.568800
  H    -51.421000   -3.918760  -14.028900
  H    -48.654100    0.655103  -19.989800
  H    -47.970300    2.413080  -12.070800

 Total Charge           Charge          ....    0
 Multiplicity           Mult            ....    1
 Number of Electrons    NEL             ....  134
 Basis Dimension        Dim             ....  322

ORBITAL ENERGIES
----------------

  NO   OCC          E(Eh)            E(eV)
   0   2.0000     -88.968933     -2420.9677
   1   2.0000     -88.964729     -2420.8534
   2   2.0000     -10.332605      -281.1645
   3   2.0000     -10.323005      -280.9032
   4   2.0000     -10.316889      -280.7368
   5   2.0000     -10.308245      -280.5016
   6   2.0000     -10.302616      -280.3484
   7   2.0000     -10.302230      -280.3379
   8   2.0000     -10.294796      -280.1356
   9   2.0000     -10.294616      -280.1307
  10   2.0000     -10.289943      -280.0036
  11   2.0000     -10.288757      -279.9713
  12   2.0000     -10.287842      -279.9464
  13   2.0000     -10.280938      -279.7586
  14   2.0000     -10.274028      -279.5705
  15   2.0000     -10.273957      -279.5686
  16   2.0000      -8.083410      -219.9608
  17   2.0000      -8.080124      -219.8714
  18   2.0000      -6.041894      -164.4083
  19   2.0000      -6.038534      -164.3169
  20   2.0000      -6.037958      -164.3012
  21   2.0000      -6.034673      -164.2118
  22   2.0000      -6.034241      -164.2000
  23   2.0000      -6.030843      -164.1076
  24   2.0000      -1.005478       -27.3605
  25   2.0000      -0.981673       -26.7127
  26   2.0000      -0.907817       -24.7030
  27   2.0000      -0.904618       -24.6159
  28   2.0000      -0.864582       -23.5265
  29   2.0000      -0.859019       -23.3751
  30   2.0000      -0.848857       -23.0986
  31   2.0000      -0.812013       -22.0960
  32   2.0000      -0.786550       -21.4031
  33   2.0000      -0.764856       -20.8128
  34   2.0000      -0.711547       -19.3622
  35   2.0000      -0.709002       -19.2929
  36   2.0000      -0.690766       -18.7967
  37   2.0000      -0.661018       -17.9872
  38   2.0000      -0.643821       -17.5192
  39   2.0000      -0.615593       -16.7511
  40   2.0000      -0.588470       -16.0131
  41   2.0000      -0.574664       -15.6374
  42   2.0000      -0.568929       -15.4814
  43   2.0000      -0.557714       -15.1762
  44   2.0000      -0.529520       -14.4090
  45   2.0000      -0.524303       -14.2670
  46   2.0000      -0.521625       -14.1941
  47   2.0000      -0.514384       -13.9971
  48   2.0000      -0.500695       -13.6246
  49   2.0000      -0.494687       -13.4611
  50   2.0000      -0.486810       -13.2468
  51   2.0000      -0.481527       -13.1030
  52   2.0000      -0.475720       -12.9450
  53   2.0000      -0.466334       -12.6896
  54   2.0000      -0.458376       -12.4730
  55   2.0000      -0.453748       -12.3471
  56   2.0000      -0.450033       -12.2460
  57   2.0000      -0.441320       -12.0089
  58   2.0000      -0.431192       -11.7333
  59   2.0000      -0.427246       -11.6260
  60   2.0000      -0.421645       -11.4736
  61   2.0000      -0.420218       -11.4347
  62   2.0000      -0.414326       -11.2744
  63   2.0000      -0.352140        -9.5822
  64   2.0000      -0.330020        -8.9803
  65   2.0000      -0.329401        -8.9635
  66   2.0000      -0.278572        -7.5803
  67   0.0000       0.027416         0.7460
  68   0.0000       0.071785         1.9534
  69   0.0000       0.110390         3.0039
  70   0.0000       0.124308         3.3826
  71   0.0000       0.135494         3.6870

MULLIKEN ATOMIC CHARGES
-----------------------
   0 S :    0.112325
   1 C :   -0.117095
   2 C :   -0.075657
   3 C :    0.021759
   4 C :   -0.126103
   5 H :   -0.005882
   6 C :    0.032063
   7 H :    0.015243
   8 H :    0.049622
   9 C :   -0.059695
  10 H :    0.030620
  11 H :    0.037761
  12 C :   -0.035495
  13 H :    0.037600
  14 H :    0.014645
  15 H :    0.029881
  16 S :    0.113806
  17 C :   -0.120490
  18 C :   -0.047732
  19 C :   -0.088518
  20 C :   -0.143194
  21 H :    0.022419
  22 C :    0.154444
  23 H :    0.021848
  24 H :   -0.008998
  25 C :   -0.072208
  26 H :    0.035896
  27 H :    0.033357
  28 C :   -0.034322
  29 H :    0.022717
  30 H :    0.028912
  31 H :    0.021350
  32 H :    0.027685
  33 H :    0.071436
Sum of atomic charges:    0.0000000

LOEWDIN ATOMIC CHARGES
----------------------
   0 S :    0.407183
   1 C :   -0.210351
   2 C :   -0.053626
   3 C :   -0.061335
   4 C :   -0.171584
   5 H :    0.021649
   6 C :   -0.035669
   7 H :    0.024165
   8 H :    0.042032
   9 C :   -0.026876
  10 H :    0.017323
  11 H :    0.024789
  12 C :   -0.060379
  13 H :    0.027938
  14 H :    0.018309
  15 H :    0.022820
  16 S :    0.413689
  17 C :   -0.203205
  18 C :   -0.071211
  19 C :   -0.052605
  20 C :   -0.203910
  21 H :    0.031571
  22 C :   -0.023519
  23 H :    0.025537
  24 H :    0.020947
  25 C :   -0.031883
  26 H :    0.034263
  27 H :    0.018978
  28 C :   -0.064895
  29 H :    0.025602
  30 H :    0.027261
  31 H :    0.018875
  32 H :    0.012148
  33 H :    0.035965

  Mayer bond orders larger than 0.100000
B(  0-S ,  1-C ) :   1.1370 B(  0-S ,  4-C ) :   1.1691 B(  1-C ,  2-C ) :   1.5612
B(  1-C ,  4-C ) :   0.1033 B(  1-C , 32-H ) :   0.9840 B(  2-C ,  3-C ) :   1.2708
B(  2-C ,  6-C ) :   1.0213 B(  3-C ,  4-C ) :   1.5283 B(  3-C ,  5-H ) :   1.0011
B(  4-C , 20-C ) :   1.0489 B(  6-C ,  7-H ) :   0.9513 B(  6-C ,  8-H ) :   0.9284
B(  6-C ,  9-C ) :   1.0520 B(  9-C , 10-H ) :   0.9666 B(  9-C , 11-H ) :   0.9528
B(  9-C , 12-C ) :   1.0925 B( 12-C , 13-H ) :   0.9742 B( 12-C , 14-H ) :   0.9741
B( 12-C , 15-H ) :   0.9760 B( 16-S , 17-C ) :   1.1633 B( 16-S , 20-C ) :   1.1384
B( 17-C , 18-C ) :   1.6124 B( 17-C , 33-H ) :   0.9614 B( 18-C , 19-C ) :   1.2202
B( 18-C , 21-H ) :   0.9935 B( 19-C , 20-C ) :   1.5985 B( 19-C , 22-C ) :   1.0280
B( 22-C , 23-H ) :   0.9159 B( 22-C , 24-H ) :   0.9242 B( 22-C , 25-C ) :   1.0651
B( 25-C , 26-H ) :   0.9557 B( 25-C , 27-H ) :   0.9599 B( 25-C , 28-C ) :   1.0800
B( 28-C , 29-H ) :   0.9741 B( 28-C , 30-H ) :   0.9739 B( 28-C , 31-H ) :   0.9783

Dispersion correction           -0.013537437
FINAL SINGLE POINT ENERGY     -1339.866293908342

DIPOLE MOMENT
-------------
                                X             Y             Z
Electronic contribution:      9.82550      28.18097       7.88876
Nuclear contribution   :    -10.04176     -28.75136      -7.94915
                        -----------------------------------------
Total Dipole Moment    :     -0.21625      -0.57039      -0.06039
                        -----------------------------------------
Magnitude (a.u.)       :      0.61300
Magnitude (Debye)      :      1.55811

Rotational constants in cm-1:     0.018168     0.008255     0.006171
Rotational constants in MHz :   544.651916   247.473551   184.997129

                             ****ORCA TERMINATED NORMALLY****
TOTAL RUN TIME: 0 days 0 hours 0 minutes 20 seconds 96 msec
