                         Program Version 4.2.1 -  RELEASE  -
|  1> ! wB97X-D3 SP def2-SVP
|  2> %pal
|  3> nprocs 24
|  4> end
|  5>
|  6> * xyz 0 1
|  7> S 	 -76.3592 	 -0.283861 	 11.2409
|  8> C 	 -77.8537 	 0.669582 	 11.1352
|  9> C 	 -78.6385 	 0.460766 	 12.2019
| 10> C 	 -77.9387 	 -0.0949462 	 13.2892
| 11> C 	 -76.6852 	 -0.558253 	 12.9991
| 12> H 	 -78.4043 	 -0.15681 	 14.255
| 13> C 	 -80.1269 	 0.885393 	 12.2675
| 14> H 	 -80.1538 	 1.93821 	 12.2573
| 15> H 	 -80.5887 	 0.515977 	 13.1894
| 16> C 	 -80.9409 	 0.402789 	 11.0825
| 17> H 	 -81.8955 	 0.953853 	 11.2296
| 18> H 	 -80.5389 	 0.71862 	 10.1647
| 19> C 	 -81.2686 	 -1.04752 	 11.1351
| 20> H 	 -81.4301 	 -1.29847 	 12.1545
| 21> H 	 -82.171 	 -1.3293 	 10.6642
| 22> H 	 -80.4551 	 -1.58455 	 10.6817
| 23> S 	 -75.3129 	 -2.88006 	 13.5788
| 24> C 	 -74.076 	 -2.7686 	 14.7899
| 25> C 	 -74.2855 	 -1.68591 	 15.6445
| 26> C 	 -75.2609 	 -0.769491 	 15.1301
| 27> C 	 -75.7848 	 -1.18789 	 13.9094
| 28> H 	 -73.5835 	 -1.48547 	 16.3931
| 29> C 	 -75.2852 	 0.62796 	 15.6844
| 30> H 	 -75.561 	 0.587125 	 16.7367
| 31> H 	 -76.0368 	 1.24711 	 15.2308
| 32> C 	 -73.9542 	 1.35163 	 15.8136
| 33> H 	 -73.4249 	 0.870194 	 16.6208
| 34> H 	 -74.0927 	 2.40535 	 16.1108
| 35> C 	 -73.157 	 1.38527 	 14.5223
| 36> H 	 -72.2145 	 1.92823 	 14.6525
| 37> H 	 -73.7905 	 1.83408 	 13.7353
| 38> H 	 -72.8033 	 0.409409 	 14.1517
| 39> H 	 -78.2209 	 1.10873 	 10.1644
| 40> H 	 -73.1956 	 -3.33896 	 14.7508
| 41> *
| 42>
| 43>                          ****END OF INPUT****

CARTESIAN COORDINATES (ANGSTROEM)
---------------------------------
  S    -76.359200   -0.283861   11.240900
  C    -77.853700    0.669582   11.135200
  C    -78.638500    0.460766   12.201900
  C    -77.938700   -0.094946   13.289200
  C    -76.685200   -0.558253   12.999100
  H    -78.404300   -0.156810   14.255000
  C    -80.126900    0.885393   12.267500
  H    -80.153800    1.938210   12.257300
  H    -80.588700    0.515977   13.189400
  C    -80.940900    0.402789   11.082500
  H    -81.895500    0.953853   11.229600
  H    -80.538900    0.718620   10.164700
  C    -81.268600   -1.047520   11.135100
  H    -81.430100   -1.298470   12.154500
  H    -82.171000   -1.329300   10.664200
  H    -80.455100   -1.584550   10.681700
  S    -75.312900   -2.880060   13.578800
  C    -74.076000   -2.768600   14.789900
  C    -74.285500   -1.685910   15.644500
  C    -75.260900   -0.769491   15.130100
  C    -75.784800   -1.187890   13.909400
  H    -73.583500   -1.485470   16.393100
  C    -75.285200    0.627960   15.684400
  H    -75.561000    0.587125   16.736700
  H    -76.036800    1.247110   15.230800
  C    -73.954200    1.351630   15.813600
  H    -73.424900    0.870194   16.620800
  H    -74.092700    2.405350   16.110800
  C    -73.157000    1.385270   14.522300
  H    -72.214500    1.928230   14.652500
  H    -73.790500    1.834080   13.735300
  H    -72.803300    0.409409   14.151700
  H    -78.220900    1.108730   10.164400
  H    -73.195600   -3.338960   14.750800

 Total Charge           Charge          ....    0
 Multiplicity           Mult            ....    1
 Number of Electrons    NEL             ....  134
 Basis Dimension        Dim             ....  322

ORBITAL ENERGIES
----------------

  NO   OCC          E(Eh)            E(eV)
   0   2.0000     -88.964795     -2420.8551
   1   2.0000     -88.960041     -2420.7258
   2   2.0000     -10.328683      -281.0577
   3   2.0000     -10.324895      -280.9547
   4   2.0000     -10.315949      -280.7112
   5   2.0000     -10.313348      -280.6405
   6   2.0000     -10.304492      -280.3995
   7   2.0000     -10.294595      -280.1302
   8   2.0000     -10.291593      -280.0485
   9   2.0000     -10.291149      -280.0364
  10   2.0000     -10.290846      -280.0282
  11   2.0000     -10.284240      -279.8484
  12   2.0000     -10.282898      -279.8119
  13   2.0000     -10.279689      -279.7245
  14   2.0000     -10.270625      -279.4779
  15   2.0000     -10.264137      -279.3014
  16   2.0000      -8.078432      -219.8253
  17   2.0000      -8.075034      -219.7328
  18   2.0000      -6.037104      -164.2779
  19   2.0000      -6.033515      -164.1803
  20   2.0000      -6.033305      -164.1746
  21   2.0000      -6.029623      -164.0744
  22   2.0000      -6.028835      -164.0529
  23   2.0000      -6.025698      -163.9676
  24   2.0000      -1.004351       -27.3298
  25   2.0000      -0.983442       -26.7608
  26   2.0000      -0.919417       -25.0186
  27   2.0000      -0.911955       -24.8156
  28   2.0000      -0.872551       -23.7433
  29   2.0000      -0.848730       -23.0951
  30   2.0000      -0.842890       -22.9362
  31   2.0000      -0.812979       -22.1223
  32   2.0000      -0.787232       -21.4217
  33   2.0000      -0.775579       -21.1046
  34   2.0000      -0.709795       -19.3145
  35   2.0000      -0.701453       -19.0875
  36   2.0000      -0.691260       -18.8101
  37   2.0000      -0.660146       -17.9635
  38   2.0000      -0.634807       -17.2740
  39   2.0000      -0.617654       -16.8072
  40   2.0000      -0.599216       -16.3055
  41   2.0000      -0.582431       -15.8488
  42   2.0000      -0.563382       -15.3304
  43   2.0000      -0.555129       -15.1058
  44   2.0000      -0.546228       -14.8636
  45   2.0000      -0.535876       -14.5819
  46   2.0000      -0.518831       -14.1181
  47   2.0000      -0.511937       -13.9305
  48   2.0000      -0.500900       -13.6302
  49   2.0000      -0.497498       -13.5376
  50   2.0000      -0.492424       -13.3995
  51   2.0000      -0.477995       -13.0069
  52   2.0000      -0.470069       -12.7912
  53   2.0000      -0.462893       -12.5959
  54   2.0000      -0.454957       -12.3800
  55   2.0000      -0.448036       -12.1917
  56   2.0000      -0.443782       -12.0759
  57   2.0000      -0.437733       -11.9113
  58   2.0000      -0.432460       -11.7678
  59   2.0000      -0.429019       -11.6742
  60   2.0000      -0.416088       -11.3223
  61   2.0000      -0.414895       -11.2899
  62   2.0000      -0.406254       -11.0547
  63   2.0000      -0.338896        -9.2218
  64   2.0000      -0.331028        -9.0077
  65   2.0000      -0.327059        -8.8997
  66   2.0000      -0.292710        -7.9650
  67   0.0000       0.022335         0.6078
  68   0.0000       0.062886         1.7112
  69   0.0000       0.103972         2.8292
  70   0.0000       0.116402         3.1675
  71   0.0000       0.134284         3.6540

MULLIKEN ATOMIC CHARGES
-----------------------
   0 S :    0.099963
   1 C :   -0.154620
   2 C :   -0.086873
   3 C :    0.051508
   4 C :   -0.147960
   5 H :    0.004903
   6 C :    0.094056
   7 H :    0.029434
   8 H :    0.016920
   9 C :   -0.091150
  10 H :    0.022625
  11 H :    0.013423
  12 C :    0.013758
  13 H :    0.007140
  14 H :    0.020318
  15 H :    0.038208
  16 S :    0.096635
  17 C :   -0.087115
  18 C :   -0.020669
  19 C :   -0.000347
  20 C :   -0.180015
  21 H :    0.004953
  22 C :    0.083521
  23 H :    0.021098
  24 H :    0.018466
  25 C :   -0.087380
  26 H :    0.018548
  27 H :    0.033359
  28 C :   -0.048809
  29 H :    0.029037
  30 H :    0.038256
  31 H :    0.031054
  32 H :    0.067475
  33 H :    0.050279
Sum of atomic charges:   -0.0000000

LOEWDIN ATOMIC CHARGES
----------------------
   0 S :    0.367076
   1 C :   -0.187930
   2 C :   -0.071434
   3 C :   -0.048929
   4 C :   -0.181449
   5 H :    0.030877
   6 C :   -0.018800
   7 H :    0.028213
   8 H :    0.027644
   9 C :   -0.038176
  10 H :    0.028246
  11 H :    0.012040
  12 C :   -0.054833
  13 H :    0.021380
  14 H :    0.021699
  15 H :    0.028545
  16 S :    0.383978
  17 C :   -0.172683
  18 C :   -0.058728
  19 C :   -0.049734
  20 C :   -0.185724
  21 H :    0.021642
  22 C :   -0.034288
  23 H :    0.036196
  24 H :    0.024719
  25 C :   -0.041209
  26 H :    0.015888
  27 H :    0.031160
  28 C :   -0.071436
  29 H :    0.024746
  30 H :    0.030309
  31 H :    0.024907
  32 H :    0.036682
  33 H :    0.019406

  Mayer bond orders larger than 0.100000
B(  0-S ,  1-C ) :   1.1229 B(  0-S ,  4-C ) :   1.1124 B(  1-C ,  2-C ) :   1.6438
B(  1-C , 32-H ) :   0.9586 B(  2-C ,  3-C ) :   1.2353 B(  2-C ,  6-C ) :   0.9952
B(  3-C ,  4-C ) :   1.5801 B(  3-C ,  5-H ) :   1.0004 B(  4-C , 20-C ) :   1.0806
B(  6-C ,  7-H ) :   0.9360 B(  6-C ,  8-H ) :   0.9446 B(  6-C ,  9-C ) :   1.0924
B(  9-C , 10-H ) :   0.9503 B(  9-C , 11-H ) :   0.9566 B(  9-C , 12-C ) :   1.0802
B( 12-C , 13-H ) :   0.9701 B( 12-C , 14-H ) :   0.9732 B( 12-C , 15-H ) :   0.9736
B( 16-S , 17-C ) :   1.1497 B( 16-S , 20-C ) :   1.1259 B( 17-C , 18-C ) :   1.6213
B( 17-C , 33-H ) :   0.9736 B( 18-C , 19-C ) :   1.2012 B( 18-C , 21-H ) :   0.9949
B( 19-C , 20-C ) :   1.6006 B( 19-C , 22-C ) :   1.0673 B( 22-C , 23-H ) :   0.9231
B( 22-C , 24-H ) :   0.9375 B( 22-C , 25-C ) :   1.0771 B( 25-C , 26-H ) :   0.9509
B( 25-C , 27-H ) :   0.9503 B( 25-C , 28-C ) :   1.0853 B( 28-C , 29-H ) :   0.9730
B( 28-C , 30-H ) :   0.9743 B( 28-C , 31-H ) :   0.9698

Dispersion correction           -0.015025712
FINAL SINGLE POINT ENERGY     -1339.862945847785

DIPOLE MOMENT
-------------
                                X             Y             Z
Electronic contribution:      9.21974     -12.96782      -4.13880
Nuclear contribution   :     -9.52718      13.42227       4.39738
                        -----------------------------------------
Total Dipole Moment    :     -0.30744       0.45445       0.25858
                        -----------------------------------------
Magnitude (a.u.)       :      0.60655
Magnitude (Debye)      :      1.54173

Rotational constants in cm-1:     0.023891     0.007756     0.007005
Rotational constants in MHz :   716.235951   232.526503   209.989747

                             ****ORCA TERMINATED NORMALLY****
TOTAL RUN TIME: 0 days 0 hours 0 minutes 23 seconds 204 msec
