                         Program Version 4.2.1 -  RELEASE  -
|  1> ! wB97X-D3 SP def2-SVP
|  2> %pal
|  3> nprocs 24
|  4> end
|  5>
|  6> * xyz 0 1
|  7> S 	 -57.6142 	 13.4717 	 -92.4015
|  8> C 	 -56.2085 	 12.5727 	 -91.9113
|  9> C 	 -55.324 	 13.307 	 -91.1482
| 10> C 	 -55.7842 	 14.6955 	 -91.0419
| 11> C 	 -57.0009 	 14.8887 	 -91.5748
| 12> H 	 -55.2185 	 15.4692 	 -90.6187
| 13> C 	 -54.0074 	 12.6987 	 -90.6335
| 14> H 	 -54.2246 	 11.6106 	 -90.5873
| 15> H 	 -53.8155 	 12.9413 	 -89.56
| 16> C 	 -52.8976 	 13.1855 	 -91.5775
| 17> H 	 -53.1399 	 12.8896 	 -92.5643
| 18> H 	 -52.7364 	 14.258 	 -91.5803
| 19> C 	 -51.5278 	 12.6058 	 -91.1231
| 20> H 	 -51.5797 	 11.5437 	 -91.1865
| 21> H 	 -50.5964 	 12.9212 	 -91.7083
| 22> H 	 -51.3497 	 12.9071 	 -90.0124
| 23> S 	 -58.4352 	 16.3384 	 -89.7555
| 24> C 	 -58.9034 	 17.943 	 -90.2241
| 25> C 	 -58.417 	 18.2828 	 -91.3927
| 26> C 	 -57.6994 	 17.2836 	 -92.0985
| 27> C 	 -57.7421 	 16.0865 	 -91.3834
| 28> H 	 -58.6835 	 19.34 	 -91.6714
| 29> C 	 -57.0744 	 17.5909 	 -93.4256
| 30> H 	 -57.8355 	 17.6922 	 -94.1789
| 31> H 	 -56.6123 	 16.6231 	 -93.7019
| 32> C 	 -56.0758 	 18.6955 	 -93.5531
| 33> H 	 -55.2559 	 18.5037 	 -92.7981
| 34> H 	 -56.6002 	 19.6505 	 -93.2573
| 35> C 	 -55.406 	 19.0128 	 -94.9286
| 36> H 	 -54.5336 	 19.5904 	 -94.6694
| 37> H 	 -56.0954 	 19.5416 	 -95.6294
| 38> H 	 -55.0907 	 18.0206 	 -95.2798
| 39> H 	 -56.1972 	 11.4867 	 -92.1011
| 40> H 	 -59.4335 	 18.6515 	 -89.6364
| 41> *
| 42>
| 43>                          ****END OF INPUT****

CARTESIAN COORDINATES (ANGSTROEM)
---------------------------------
  S    -57.614200   13.471700  -92.401500
  C    -56.208500   12.572700  -91.911300
  C    -55.324000   13.307000  -91.148200
  C    -55.784200   14.695500  -91.041900
  C    -57.000900   14.888700  -91.574800
  H    -55.218500   15.469200  -90.618700
  C    -54.007400   12.698700  -90.633500
  H    -54.224600   11.610600  -90.587300
  H    -53.815500   12.941300  -89.560000
  C    -52.897600   13.185500  -91.577500
  H    -53.139900   12.889600  -92.564300
  H    -52.736400   14.258000  -91.580300
  C    -51.527800   12.605800  -91.123100
  H    -51.579700   11.543700  -91.186500
  H    -50.596400   12.921200  -91.708300
  H    -51.349700   12.907100  -90.012400
  S    -58.435200   16.338400  -89.755500
  C    -58.903400   17.943000  -90.224100
  C    -58.417000   18.282800  -91.392700
  C    -57.699400   17.283600  -92.098500
  C    -57.742100   16.086500  -91.383400
  H    -58.683500   19.340000  -91.671400
  C    -57.074400   17.590900  -93.425600
  H    -57.835500   17.692200  -94.178900
  H    -56.612300   16.623100  -93.701900
  C    -56.075800   18.695500  -93.553100
  H    -55.255900   18.503700  -92.798100
  H    -56.600200   19.650500  -93.257300
  C    -55.406000   19.012800  -94.928600
  H    -54.533600   19.590400  -94.669400
  H    -56.095400   19.541600  -95.629400
  H    -55.090700   18.020600  -95.279800
  H    -56.197200   11.486700  -92.101100
  H    -59.433500   18.651500  -89.636400

 Total Charge           Charge          ....    0
 Multiplicity           Mult            ....    1
 Number of Electrons    NEL             ....  134
 Basis Dimension        Dim             ....  322

ORBITAL ENERGIES
----------------

  NO   OCC          E(Eh)            E(eV)
   0   2.0000     -88.961507     -2420.7657
   1   2.0000     -88.960671     -2420.7429
   2   2.0000     -10.323316      -280.9117
   3   2.0000     -10.318584      -280.7829
   4   2.0000     -10.312824      -280.6262
   5   2.0000     -10.303820      -280.3812
   6   2.0000     -10.303493      -280.3723
   7   2.0000     -10.303390      -280.3695
   8   2.0000     -10.301339      -280.3137
   9   2.0000     -10.292541      -280.0743
  10   2.0000     -10.289280      -279.9856
  11   2.0000     -10.287512      -279.9374
  12   2.0000     -10.287315      -279.9321
  13   2.0000     -10.286643      -279.9138
  14   2.0000     -10.285519      -279.8832
  15   2.0000     -10.283271      -279.8220
  16   2.0000      -8.076864      -219.7827
  17   2.0000      -8.075518      -219.7460
  18   2.0000      -6.035335      -164.2298
  19   2.0000      -6.034021      -164.1941
  20   2.0000      -6.031377      -164.1221
  21   2.0000      -6.030219      -164.0906
  22   2.0000      -6.027542      -164.0177
  23   2.0000      -6.026050      -163.9772
  24   2.0000      -1.009551       -27.4713
  25   2.0000      -0.985724       -26.8229
  26   2.0000      -0.911146       -24.7935
  27   2.0000      -0.910205       -24.7679
  28   2.0000      -0.875977       -23.8366
  29   2.0000      -0.849099       -23.1052
  30   2.0000      -0.844132       -22.9700
  31   2.0000      -0.817095       -22.2343
  32   2.0000      -0.784116       -21.3369
  33   2.0000      -0.766316       -20.8525
  34   2.0000      -0.708909       -19.2904
  35   2.0000      -0.696822       -18.9615
  36   2.0000      -0.690406       -18.7869
  37   2.0000      -0.649763       -17.6809
  38   2.0000      -0.646646       -17.5961
  39   2.0000      -0.617609       -16.8060
  40   2.0000      -0.598776       -16.2935
  41   2.0000      -0.572156       -15.5692
  42   2.0000      -0.566425       -15.4132
  43   2.0000      -0.555647       -15.1199
  44   2.0000      -0.527916       -14.3653
  45   2.0000      -0.523049       -14.2329
  46   2.0000      -0.519023       -14.1233
  47   2.0000      -0.512195       -13.9375
  48   2.0000      -0.508408       -13.8345
  49   2.0000      -0.501978       -13.6595
  50   2.0000      -0.488693       -13.2980
  51   2.0000      -0.473522       -12.8852
  52   2.0000      -0.465730       -12.6731
  53   2.0000      -0.461727       -12.5642
  54   2.0000      -0.454686       -12.3726
  55   2.0000      -0.451236       -12.2788
  56   2.0000      -0.446376       -12.1465
  57   2.0000      -0.436814       -11.8863
  58   2.0000      -0.430444       -11.7130
  59   2.0000      -0.426971       -11.6185
  60   2.0000      -0.423092       -11.5129
  61   2.0000      -0.416235       -11.3263
  62   2.0000      -0.403876       -10.9900
  63   2.0000      -0.337604        -9.1867
  64   2.0000      -0.327372        -8.9082
  65   2.0000      -0.320974        -8.7342
  66   2.0000      -0.311566        -8.4781
  67   0.0000       0.050889         1.3848
  68   0.0000       0.054716         1.4889
  69   0.0000       0.111636         3.0378
  70   0.0000       0.122291         3.3277
  71   0.0000       0.132428         3.6035

MULLIKEN ATOMIC CHARGES
-----------------------
   0 S :    0.109003
   1 C :   -0.141758
   2 C :   -0.098865
   3 C :    0.057614
   4 C :   -0.175675
   5 H :   -0.005004
   6 C :    0.045845
   7 H :    0.031507
   8 H :    0.034527
   9 C :   -0.042450
  10 H :    0.024356
  11 H :    0.036321
  12 C :   -0.081962
  13 H :    0.025846
  14 H :    0.048186
  15 H :    0.038884
  16 S :    0.104445
  17 C :   -0.068836
  18 C :   -0.051555
  19 C :   -0.001600
  20 C :   -0.179951
  21 H :    0.028308
  22 C :    0.119504
  23 H :    0.024025
  24 H :    0.010754
  25 C :   -0.145144
  26 H :    0.035691
  27 H :    0.030617
  28 C :   -0.032510
  29 H :    0.041082
  30 H :    0.051014
  31 H :    0.032099
  32 H :    0.061014
  33 H :    0.034671
Sum of atomic charges:    0.0000000

LOEWDIN ATOMIC CHARGES
----------------------
   0 S :    0.399320
   1 C :   -0.203783
   2 C :   -0.058979
   3 C :   -0.046972
   4 C :   -0.205174
   5 H :    0.024446
   6 C :   -0.031552
   7 H :    0.035065
   8 H :    0.032607
   9 C :   -0.034764
  10 H :    0.020864
  11 H :    0.027017
  12 C :   -0.076871
  13 H :    0.015479
  14 H :    0.031493
  15 H :    0.032527
  16 S :    0.391245
  17 C :   -0.179600
  18 C :   -0.083676
  19 C :   -0.045121
  20 C :   -0.187638
  21 H :    0.040517
  22 C :   -0.041555
  23 H :    0.031285
  24 H :    0.030310
  25 C :   -0.049901
  26 H :    0.028802
  27 H :    0.023426
  28 C :   -0.061051
  29 H :    0.029513
  30 H :    0.031124
  31 H :    0.026376
  32 H :    0.029827
  33 H :    0.025391

  Mayer bond orders larger than 0.100000
B(  0-S ,  1-C ) :   1.1372 B(  0-S ,  4-C ) :   1.1276 B(  1-C ,  2-C ) :   1.6418
B(  1-C , 32-H ) :   0.9630 B(  2-C ,  3-C ) :   1.1967 B(  2-C ,  6-C ) :   1.0221
B(  3-C ,  4-C ) :   1.6236 B(  3-C ,  5-H ) :   1.0087 B(  4-C , 20-C ) :   1.0208
B(  6-C ,  7-H ) :   0.9451 B(  6-C ,  8-H ) :   0.9408 B(  6-C ,  9-C ) :   1.0470
B(  9-C , 10-H ) :   0.9556 B(  9-C , 11-H ) :   0.9615 B(  9-C , 12-C ) :   1.0719
B( 12-C , 13-H ) :   0.9773 B( 12-C , 14-H ) :   0.9753 B( 12-C , 15-H ) :   0.9738
B( 16-S , 17-C ) :   1.1292 B( 16-S , 20-C ) :   1.1339 B( 17-C , 18-C ) :   1.6922
B( 17-C , 33-H ) :   0.9618 B( 18-C , 19-C ) :   1.1915 B( 18-C , 21-H ) :   0.9790
B( 19-C , 20-C ) :   1.6159 B( 19-C , 22-C ) :   1.0511 B( 22-C , 23-H ) :   0.9268
B( 22-C , 24-H ) :   0.9142 B( 22-C , 25-C ) :   1.0669 B( 25-C , 26-H ) :   0.9557
B( 25-C , 27-H ) :   0.9519 B( 25-C , 28-C ) :   1.0782 B( 28-C , 29-H ) :   0.9751
B( 28-C , 30-H ) :   0.9746 B( 28-C , 31-H ) :   0.9759

Dispersion correction           -0.013782335
FINAL SINGLE POINT ENERGY     -1339.869603658689

DIPOLE MOMENT
-------------
                                X             Y             Z
Electronic contribution:    -24.92627      -4.86142       9.64714
Nuclear contribution   :     25.43684       5.14536      -9.75265
                        -----------------------------------------
Total Dipole Moment    :      0.51057       0.28395      -0.10551
                        -----------------------------------------
Magnitude (a.u.)       :      0.59367
Magnitude (Debye)      :      1.50898

Rotational constants in cm-1:     0.016631     0.008240     0.006712
Rotational constants in MHz :   498.592134   247.043546   201.231979

                             ****ORCA TERMINATED NORMALLY****
TOTAL RUN TIME: 0 days 0 hours 0 minutes 21 seconds 62 msec
