                         Program Version 4.2.1 -  RELEASE  -
|  1> ! wB97X-D3 SP def2-SVP
|  2> %pal
|  3> nprocs 24
|  4> end
|  5>
|  6> * xyz 0 1
|  7> S 	 -113.337 	 51.9903 	 -88.0736
|  8> C 	 -112.304 	 50.6635 	 -87.6081
|  9> C 	 -110.956 	 50.936 	 -87.84
| 10> C 	 -110.784 	 52.1611 	 -88.5867
| 11> C 	 -111.993 	 52.6969 	 -88.9609
| 12> H 	 -109.877 	 52.5979 	 -89.0515
| 13> C 	 -109.815 	 50.1297 	 -87.2524
| 14> H 	 -110.081 	 49.9543 	 -86.2462
| 15> H 	 -108.851 	 50.6643 	 -87.2585
| 16> C 	 -109.393 	 48.7784 	 -87.9215
| 17> H 	 -109.368 	 48.8468 	 -88.9972
| 18> H 	 -108.397 	 48.6316 	 -87.6984
| 19> C 	 -110.265 	 47.5423 	 -87.6103
| 20> H 	 -110.063 	 47.0605 	 -86.6416
| 21> H 	 -111.308 	 47.8255 	 -87.6488
| 22> H 	 -110.101 	 46.7375 	 -88.4241
| 23> S 	 -111.448 	 53.6991 	 -91.46
| 24> C 	 -111.762 	 55.3724 	 -91.8171
| 25> C 	 -112.341 	 56.0124 	 -90.7132
| 26> C 	 -112.633 	 55.143 	 -89.5675
| 27> C 	 -112.129 	 53.8581 	 -89.8046
| 28> H 	 -112.569 	 57.0363 	 -90.771
| 29> C 	 -113.239 	 55.8087 	 -88.381
| 30> H 	 -112.827 	 56.8239 	 -88.3126
| 31> H 	 -112.73 	 55.4682 	 -87.49
| 32> C 	 -114.761 	 55.6589 	 -88.2237
| 33> H 	 -114.867 	 54.5728 	 -88.0585
| 34> H 	 -115.297 	 55.845 	 -89.0993
| 35> C 	 -115.317 	 56.4069 	 -86.9891
| 36> H 	 -116.375 	 56.522 	 -87.1871
| 37> H 	 -114.839 	 57.4351 	 -86.9877
| 38> H 	 -115.169 	 55.9881 	 -85.9893
| 39> H 	 -112.632 	 49.7758 	 -87.0688
| 40> H 	 -111.476 	 55.8203 	 -92.717
| 41> *
| 42>
| 43>                          ****END OF INPUT****

CARTESIAN COORDINATES (ANGSTROEM)
---------------------------------
  S    -113.337000   51.990300  -88.073600
  C    -112.304000   50.663500  -87.608100
  C    -110.956000   50.936000  -87.840000
  C    -110.784000   52.161100  -88.586700
  C    -111.993000   52.696900  -88.960900
  H    -109.877000   52.597900  -89.051500
  C    -109.815000   50.129700  -87.252400
  H    -110.081000   49.954300  -86.246200
  H    -108.851000   50.664300  -87.258500
  C    -109.393000   48.778400  -87.921500
  H    -109.368000   48.846800  -88.997200
  H    -108.397000   48.631600  -87.698400
  C    -110.265000   47.542300  -87.610300
  H    -110.063000   47.060500  -86.641600
  H    -111.308000   47.825500  -87.648800
  H    -110.101000   46.737500  -88.424100
  S    -111.448000   53.699100  -91.460000
  C    -111.762000   55.372400  -91.817100
  C    -112.341000   56.012400  -90.713200
  C    -112.633000   55.143000  -89.567500
  C    -112.129000   53.858100  -89.804600
  H    -112.569000   57.036300  -90.771000
  C    -113.239000   55.808700  -88.381000
  H    -112.827000   56.823900  -88.312600
  H    -112.730000   55.468200  -87.490000
  C    -114.761000   55.658900  -88.223700
  H    -114.867000   54.572800  -88.058500
  H    -115.297000   55.845000  -89.099300
  C    -115.317000   56.406900  -86.989100
  H    -116.375000   56.522000  -87.187100
  H    -114.839000   57.435100  -86.987700
  H    -115.169000   55.988100  -85.989300
  H    -112.632000   49.775800  -87.068800
  H    -111.476000   55.820300  -92.717000

 Total Charge           Charge          ....    0
 Multiplicity           Mult            ....    1
 Number of Electrons    NEL             ....  134
 Basis Dimension        Dim             ....  322

ORBITAL ENERGIES
----------------

  NO   OCC          E(Eh)            E(eV)
   0   2.0000     -88.968823     -2420.9648
   1   2.0000     -88.964833     -2420.8562
   2   2.0000     -10.329736      -281.0864
   3   2.0000     -10.325931      -280.9829
   4   2.0000     -10.314672      -280.6765
   5   2.0000     -10.314056      -280.6597
   6   2.0000     -10.306136      -280.4442
   7   2.0000     -10.305464      -280.4259
   8   2.0000     -10.296900      -280.1929
   9   2.0000     -10.292283      -280.0672
  10   2.0000     -10.291104      -280.0352
  11   2.0000     -10.288293      -279.9587
  12   2.0000     -10.284382      -279.8523
  13   2.0000     -10.284058      -279.8435
  14   2.0000     -10.282254      -279.7943
  15   2.0000     -10.280360      -279.7428
  16   2.0000      -8.083097      -219.9523
  17   2.0000      -8.078976      -219.8401
  18   2.0000      -6.041622      -164.4009
  19   2.0000      -6.037895      -164.2995
  20   2.0000      -6.037574      -164.2907
  21   2.0000      -6.033666      -164.1844
  22   2.0000      -6.033498      -164.1798
  23   2.0000      -6.029756      -164.0780
  24   2.0000      -1.002977       -27.2924
  25   2.0000      -0.977352       -26.5951
  26   2.0000      -0.909096       -24.7378
  27   2.0000      -0.906728       -24.6733
  28   2.0000      -0.867448       -23.6045
  29   2.0000      -0.850520       -23.1438
  30   2.0000      -0.846512       -23.0348
  31   2.0000      -0.807987       -21.9864
  32   2.0000      -0.783536       -21.3211
  33   2.0000      -0.771463       -20.9926
  34   2.0000      -0.711048       -19.3486
  35   2.0000      -0.703024       -19.1303
  36   2.0000      -0.693641       -18.8749
  37   2.0000      -0.667043       -18.1511
  38   2.0000      -0.638798       -17.3826
  39   2.0000      -0.612726       -16.6731
  40   2.0000      -0.598722       -16.2921
  41   2.0000      -0.568904       -15.4807
  42   2.0000      -0.558067       -15.1858
  43   2.0000      -0.540626       -14.7112
  44   2.0000      -0.535499       -14.5717
  45   2.0000      -0.528472       -14.3805
  46   2.0000      -0.520099       -14.1526
  47   2.0000      -0.515166       -14.0184
  48   2.0000      -0.507707       -13.8154
  49   2.0000      -0.494746       -13.4627
  50   2.0000      -0.484086       -13.1727
  51   2.0000      -0.482399       -13.1267
  52   2.0000      -0.473740       -12.8911
  53   2.0000      -0.465519       -12.6674
  54   2.0000      -0.461497       -12.5580
  55   2.0000      -0.446206       -12.1419
  56   2.0000      -0.441143       -12.0041
  57   2.0000      -0.437137       -11.8951
  58   2.0000      -0.434134       -11.8134
  59   2.0000      -0.423436       -11.5223
  60   2.0000      -0.421024       -11.4566
  61   2.0000      -0.416383       -11.3304
  62   2.0000      -0.405896       -11.0450
  63   2.0000      -0.344030        -9.3615
  64   2.0000      -0.329422        -8.9640
  65   2.0000      -0.326794        -8.8925
  66   2.0000      -0.291182        -7.9235
  67   0.0000       0.030667         0.8345
  68   0.0000       0.063694         1.7332
  69   0.0000       0.092282         2.5111
  70   0.0000       0.116453         3.1689
  71   0.0000       0.128756         3.5036

MULLIKEN ATOMIC CHARGES
-----------------------
   0 S :    0.114917
   1 C :   -0.120948
   2 C :   -0.064956
   3 C :    0.018940
   4 C :   -0.158590
   5 H :    0.033380
   6 C :    0.046565
   7 H :    0.025113
   8 H :    0.028906
   9 C :   -0.022186
  10 H :    0.020691
  11 H :    0.007023
  12 C :   -0.088121
  13 H :    0.039002
  14 H :    0.025790
  15 H :    0.044895
  16 S :    0.101787
  17 C :   -0.073528
  18 C :   -0.028106
  19 C :   -0.012270
  20 C :   -0.185801
  21 H :    0.003748
  22 C :    0.050723
  23 H :    0.014505
  24 H :    0.013112
  25 C :   -0.034007
  26 H :    0.024119
  27 H :    0.020362
  28 C :   -0.054084
  29 H :    0.036635
  30 H :    0.031562
  31 H :    0.046465
  32 H :    0.053663
  33 H :    0.040697
Sum of atomic charges:   -0.0000000

LOEWDIN ATOMIC CHARGES
----------------------
   0 S :    0.406628
   1 C :   -0.202011
   2 C :   -0.058301
   3 C :   -0.061619
   4 C :   -0.194904
   5 H :    0.039043
   6 C :   -0.029660
   7 H :    0.026224
   8 H :    0.037836
   9 C :   -0.034442
  10 H :    0.025953
  11 H :    0.012975
  12 C :   -0.073269
  13 H :    0.023719
  14 H :    0.019940
  15 H :    0.036977
  16 S :    0.395665
  17 C :   -0.182513
  18 C :   -0.061177
  19 C :   -0.051642
  20 C :   -0.184250
  21 H :    0.020816
  22 C :   -0.043666
  23 H :    0.030840
  24 H :    0.030905
  25 C :   -0.032784
  26 H :    0.023357
  27 H :    0.017157
  28 C :   -0.067788
  29 H :    0.027759
  30 H :    0.029760
  31 H :    0.028106
  32 H :    0.026676
  33 H :    0.017692

  Mayer bond orders larger than 0.100000
B(  0-S ,  1-C ) :   1.1308 B(  0-S ,  4-C ) :   1.1369 B(  1-C ,  2-C ) :   1.6179
B(  1-C , 32-H ) :   0.9646 B(  2-C ,  3-C ) :   1.2209 B(  2-C ,  6-C ) :   1.0211
B(  3-C ,  4-C ) :   1.5926 B(  3-C ,  5-H ) :   0.9849 B(  4-C , 20-C ) :   1.0525
B(  6-C ,  7-H ) :   0.9451 B(  6-C ,  8-H ) :   0.9477 B(  6-C ,  9-C ) :   1.0651
B(  9-C , 10-H ) :   0.9568 B(  9-C , 11-H ) :   0.9581 B(  9-C , 12-C ) :   1.0713
B( 12-C , 13-H ) :   0.9771 B( 12-C , 14-H ) :   0.9763 B( 12-C , 15-H ) :   0.9761
B( 16-S , 17-C ) :   1.1459 B( 16-S , 20-C ) :   1.1374 B( 17-C , 18-C ) :   1.6075
B( 17-C , 33-H ) :   0.9768 B( 18-C , 19-C ) :   1.2237 B( 18-C , 21-H ) :   0.9943
B( 19-C , 20-C ) :   1.5852 B( 19-C , 22-C ) :   1.0511 B( 22-C , 23-H ) :   0.9324
B( 22-C , 24-H ) :   0.9248 B( 22-C , 25-C ) :   1.0470 B( 25-C , 26-H ) :   0.9475
B( 25-C , 27-H ) :   0.9625 B( 25-C , 28-C ) :   1.0732 B( 28-C , 29-H ) :   0.9761
B( 28-C , 30-H ) :   0.9755 B( 28-C , 31-H ) :   0.9766

Dispersion correction           -0.014067677
FINAL SINGLE POINT ENERGY     -1339.866308600264

DIPOLE MOMENT
-------------
                                X             Y             Z
Electronic contribution:     -0.48982       4.36356     -13.46900
Nuclear contribution   :      0.74561      -4.21609      13.76924
                        -----------------------------------------
Total Dipole Moment    :      0.25579       0.14747       0.30023
                        -----------------------------------------
Magnitude (a.u.)       :      0.42109
Magnitude (Debye)      :      1.07033

Rotational constants in cm-1:     0.021609     0.007616     0.006055
Rotational constants in MHz :   647.811651   228.320995   181.512619

                             ****ORCA TERMINATED NORMALLY****
TOTAL RUN TIME: 0 days 0 hours 0 minutes 19 seconds 642 msec
