                         Program Version 4.2.1 -  RELEASE  -
|  1> ! wB97X-D3 SP def2-SVP
|  2> %pal
|  3> nprocs 24
|  4> end
|  5>
|  6> * xyz 0 1
|  7> S 	 -49.0908 	 21.2174 	 33.7054
|  8> C 	 -48.673 	 22.9618 	 33.9875
|  9> C 	 -48.2316 	 23.5539 	 32.8366
| 10> C 	 -48.3384 	 22.6468 	 31.7019
| 11> C 	 -48.7567 	 21.3468 	 31.9625
| 12> H 	 -48.0726 	 22.8772 	 30.6369
| 13> C 	 -47.6305 	 24.9028 	 32.7112
| 14> H 	 -48.311 	 25.7251 	 32.9632
| 15> H 	 -47.4439 	 25.0289 	 31.6361
| 16> C 	 -46.2544 	 25.1225 	 33.434
| 17> H 	 -46.01 	 26.2227 	 33.3987
| 18> H 	 -46.3852 	 24.8342 	 34.4864
| 19> C 	 -45.033 	 24.2943 	 32.9753
| 20> H 	 -44.3505 	 24.3381 	 33.7727
| 21> H 	 -45.1302 	 23.1809 	 32.8023
| 22> H 	 -44.637 	 24.7247 	 31.9784
| 23> S 	 -50.6112 	 19.6154 	 30.9971
| 24> C 	 -50.1778 	 18.6672 	 29.5171
| 25> C 	 -48.8714 	 18.8188 	 29.1922
| 26> C 	 -48.183 	 19.7805 	 30.0383
| 27> C 	 -48.9743 	 20.2855 	 31.0474
| 28> H 	 -48.3692 	 18.2475 	 28.412
| 29> C 	 -46.7315 	 20.184 	 29.817
| 30> H 	 -46.3357 	 20.4054 	 30.8393
| 31> H 	 -46.6994 	 21.1171 	 29.2612
| 32> C 	 -45.7224 	 19.1194 	 29.2207
| 33> H 	 -46.0574 	 19.0539 	 28.1157
| 34> H 	 -45.7129 	 18.1105 	 29.6026
| 35> C 	 -44.3098 	 19.7705 	 29.1328
| 36> H 	 -44.3699 	 20.7171 	 28.6749
| 37> H 	 -43.4883 	 19.2135 	 28.6168
| 38> H 	 -43.9642 	 19.9618 	 30.1068
| 39> H 	 -48.7023 	 23.507 	 34.9221
| 40> H 	 -50.8139 	 17.8375 	 29.1379
| 41> *
| 42>
| 43>                          ****END OF INPUT****

CARTESIAN COORDINATES (ANGSTROEM)
---------------------------------
  S    -49.090800   21.217400   33.705400
  C    -48.673000   22.961800   33.987500
  C    -48.231600   23.553900   32.836600
  C    -48.338400   22.646800   31.701900
  C    -48.756700   21.346800   31.962500
  H    -48.072600   22.877200   30.636900
  C    -47.630500   24.902800   32.711200
  H    -48.311000   25.725100   32.963200
  H    -47.443900   25.028900   31.636100
  C    -46.254400   25.122500   33.434000
  H    -46.010000   26.222700   33.398700
  H    -46.385200   24.834200   34.486400
  C    -45.033000   24.294300   32.975300
  H    -44.350500   24.338100   33.772700
  H    -45.130200   23.180900   32.802300
  H    -44.637000   24.724700   31.978400
  S    -50.611200   19.615400   30.997100
  C    -50.177800   18.667200   29.517100
  C    -48.871400   18.818800   29.192200
  C    -48.183000   19.780500   30.038300
  C    -48.974300   20.285500   31.047400
  H    -48.369200   18.247500   28.412000
  C    -46.731500   20.184000   29.817000
  H    -46.335700   20.405400   30.839300
  H    -46.699400   21.117100   29.261200
  C    -45.722400   19.119400   29.220700
  H    -46.057400   19.053900   28.115700
  H    -45.712900   18.110500   29.602600
  C    -44.309800   19.770500   29.132800
  H    -44.369900   20.717100   28.674900
  H    -43.488300   19.213500   28.616800
  H    -43.964200   19.961800   30.106800
  H    -48.702300   23.507000   34.922100
  H    -50.813900   17.837500   29.137900

 Total Charge           Charge          ....    0
 Multiplicity           Mult            ....    1
 Number of Electrons    NEL             ....  134
 Basis Dimension        Dim             ....  322

ORBITAL ENERGIES
----------------

  NO   OCC          E(Eh)            E(eV)
   0   2.0000     -88.965498     -2420.8743
   1   2.0000     -88.963092     -2420.8088
   2   2.0000     -10.330437      -281.1055
   3   2.0000     -10.325555      -280.9726
   4   2.0000     -10.323467      -280.9158
   5   2.0000     -10.318945      -280.7928
   6   2.0000     -10.307358      -280.4775
   7   2.0000     -10.302619      -280.3485
   8   2.0000     -10.301140      -280.3083
   9   2.0000     -10.301123      -280.3078
  10   2.0000     -10.300223      -280.2833
  11   2.0000     -10.297804      -280.2175
  12   2.0000     -10.297614      -280.2123
  13   2.0000     -10.294772      -280.1350
  14   2.0000     -10.285672      -279.8874
  15   2.0000     -10.276550      -279.6391
  16   2.0000      -8.078803      -219.8354
  17   2.0000      -8.077031      -219.7872
  18   2.0000      -6.037579      -164.2909
  19   2.0000      -6.035736      -164.2407
  20   2.0000      -6.033549      -164.1812
  21   2.0000      -6.031785      -164.1332
  22   2.0000      -6.029299      -164.0656
  23   2.0000      -6.027468      -164.0157
  24   2.0000      -1.001527       -27.2529
  25   2.0000      -0.975539       -26.5458
  26   2.0000      -0.909336       -24.7443
  27   2.0000      -0.901847       -24.5405
  28   2.0000      -0.871609       -23.7177
  29   2.0000      -0.848172       -23.0799
  30   2.0000      -0.840119       -22.8608
  31   2.0000      -0.814135       -22.1537
  32   2.0000      -0.782704       -21.2984
  33   2.0000      -0.770349       -20.9623
  34   2.0000      -0.710520       -19.3342
  35   2.0000      -0.704225       -19.1629
  36   2.0000      -0.696684       -18.9577
  37   2.0000      -0.656741       -17.8708
  38   2.0000      -0.635641       -17.2967
  39   2.0000      -0.607142       -16.5212
  40   2.0000      -0.593983       -16.1631
  41   2.0000      -0.573301       -15.6003
  42   2.0000      -0.565678       -15.3929
  43   2.0000      -0.547898       -14.9091
  44   2.0000      -0.538428       -14.6514
  45   2.0000      -0.525778       -14.3071
  46   2.0000      -0.513225       -13.9656
  47   2.0000      -0.512244       -13.9389
  48   2.0000      -0.504059       -13.7161
  49   2.0000      -0.501663       -13.6510
  50   2.0000      -0.487720       -13.2715
  51   2.0000      -0.473720       -12.8906
  52   2.0000      -0.468278       -12.7425
  53   2.0000      -0.463554       -12.6139
  54   2.0000      -0.457415       -12.4469
  55   2.0000      -0.454589       -12.3700
  56   2.0000      -0.447321       -12.1722
  57   2.0000      -0.440076       -11.9751
  58   2.0000      -0.428949       -11.6723
  59   2.0000      -0.423634       -11.5277
  60   2.0000      -0.419837       -11.4243
  61   2.0000      -0.411119       -11.1871
  62   2.0000      -0.405533       -11.0351
  63   2.0000      -0.348210        -9.4753
  64   2.0000      -0.329487        -8.9658
  65   2.0000      -0.326916        -8.8958
  66   2.0000      -0.298009        -8.1092
  67   0.0000       0.025312         0.6888
  68   0.0000       0.066739         1.8161
  69   0.0000       0.103497         2.8163
  70   0.0000       0.120441         3.2774
  71   0.0000       0.126811         3.4507

MULLIKEN ATOMIC CHARGES
-----------------------
   0 S :    0.093733
   1 C :   -0.120913
   2 C :   -0.077783
   3 C :    0.018292
   4 C :   -0.168381
   5 H :    0.025732
   6 C :    0.074100
   7 H :    0.042092
   8 H :    0.013727
   9 C :   -0.095979
  10 H :    0.044988
  11 H :    0.025694
  12 C :   -0.075382
  13 H :    0.028758
  14 H :    0.049057
  15 H :    0.041674
  16 S :    0.089402
  17 C :   -0.095694
  18 C :   -0.025625
  19 C :   -0.031714
  20 C :   -0.141889
  21 H :    0.027144
  22 C :    0.014802
  23 H :    0.044797
  24 H :    0.044752
  25 C :   -0.108762
  26 H :    0.037668
  27 H :    0.047949
  28 C :   -0.017098
  29 H :    0.013920
  30 H :    0.043416
  31 H :    0.013693
  32 H :    0.048760
  33 H :    0.075071
Sum of atomic charges:    0.0000000

LOEWDIN ATOMIC CHARGES
----------------------
   0 S :    0.364448
   1 C :   -0.171063
   2 C :   -0.068006
   3 C :   -0.061466
   4 C :   -0.191057
   5 H :    0.036036
   6 C :   -0.039307
   7 H :    0.036466
   8 H :    0.030027
   9 C :   -0.041147
  10 H :    0.032873
  11 H :    0.020816
  12 C :   -0.075346
  13 H :    0.020515
  14 H :    0.034077
  15 H :    0.031539
  16 S :    0.370493
  17 C :   -0.167394
  18 C :   -0.069757
  19 C :   -0.052592
  20 C :   -0.195667
  21 H :    0.035188
  22 C :   -0.035567
  23 H :    0.036291
  24 H :    0.032624
  25 C :   -0.040951
  26 H :    0.028288
  27 H :    0.024434
  28 C :   -0.062949
  29 H :    0.019455
  30 H :    0.032885
  31 H :    0.016255
  32 H :    0.030909
  33 H :    0.038648

  Mayer bond orders larger than 0.100000
B(  0-S ,  1-C ) :   1.1156 B(  0-S ,  4-C ) :   1.1195 B(  1-C ,  2-C ) :   1.6385
B(  1-C , 32-H ) :   0.9678 B(  2-C ,  3-C ) :   1.2145 B(  2-C ,  6-C ) :   1.0272
B(  3-C ,  4-C ) :   1.6057 B(  3-C ,  5-H ) :   0.9796 B(  4-C , 20-C ) :   1.0636
B(  6-C ,  7-H ) :   0.9353 B(  6-C ,  8-H ) :   0.9401 B(  6-C ,  9-C ) :   1.0629
B(  9-C , 10-H ) :   0.9562 B(  9-C , 11-H ) :   0.9624 B(  9-C , 12-C ) :   1.0687
B( 12-C , 13-H ) :   0.9746 B( 12-C , 14-H ) :   0.9746 B( 12-C , 15-H ) :   0.9752
B( 16-S , 17-C ) :   1.1261 B( 16-S , 20-C ) :   1.1156 B( 17-C , 18-C ) :   1.6489
B( 17-C , 33-H ) :   0.9570 B( 18-C , 19-C ) :   1.2104 B( 18-C , 21-H ) :   0.9853
B( 19-C , 20-C ) :   1.6353 B( 19-C , 22-C ) :   1.0292 B( 22-C , 23-H ) :   0.9425
B( 22-C , 24-H ) :   0.9313 B( 22-C , 25-C ) :   1.0518 B( 25-C , 26-H ) :   0.9501
B( 25-C , 27-H ) :   0.9666 B( 25-C , 28-C ) :   1.0719 B( 28-C , 29-H ) :   0.9710
B( 28-C , 30-H ) :   0.9749 B( 28-C , 31-H ) :   0.9756

Dispersion correction           -0.014171471
FINAL SINGLE POINT ENERGY     -1339.872283923825

DIPOLE MOMENT
-------------
                                X             Y             Z
Electronic contribution:    -27.85055     -11.12502       7.27215
Nuclear contribution   :     28.51971      11.41825      -7.59905
                        -----------------------------------------
Total Dipole Moment    :      0.66916       0.29323      -0.32690
                        -----------------------------------------
Magnitude (a.u.)       :      0.80039
Magnitude (Debye)      :      2.03443

Rotational constants in cm-1:     0.016571     0.009448     0.006570
Rotational constants in MHz :   496.791742   283.247406   196.967419

                             ****ORCA TERMINATED NORMALLY****
TOTAL RUN TIME: 0 days 0 hours 0 minutes 21 seconds 415 msec
