                         Program Version 4.2.1 -  RELEASE  -
|  1> ! wB97X-D3 SP def2-SVP
|  2> %pal
|  3> nprocs 24
|  4> end
|  5>
|  6> * xyz 0 1
|  7> S 	 -44.976 	 29.7031 	 30.5161
|  8> C 	 -46.2901 	 28.5244 	 30.7099
|  9> C 	 -45.9308 	 27.2228 	 30.4769
| 10> C 	 -44.5472 	 27.1623 	 30.1055
| 11> C 	 -43.99 	 28.4219 	 29.872
| 12> H 	 -43.9813 	 26.2487 	 29.8102
| 13> C 	 -46.762 	 26.0152 	 30.6758
| 14> H 	 -46.7593 	 25.5229 	 29.7249
| 15> H 	 -47.7897 	 26.3872 	 30.6927
| 16> C 	 -46.4302 	 25.1147 	 31.8332
| 17> H 	 -45.3887 	 24.8942 	 31.7605
| 18> H 	 -46.587 	 25.598 	 32.8551
| 19> C 	 -47.175 	 23.7539 	 31.7679
| 20> H 	 -47.1009 	 23.246 	 30.8382
| 21> H 	 -46.8221 	 22.9996 	 32.5267
| 22> H 	 -48.2396 	 23.8987 	 31.9552
| 23> S 	 -41.527 	 29.7159 	 29.9747
| 24> C 	 -40.2662 	 29.163 	 28.8802
| 25> C 	 -40.756 	 28.3339 	 27.8949
| 26> C 	 -42.1308 	 28.0828 	 28.0701
| 27> C 	 -42.6752 	 28.662 	 29.2088
| 28> H 	 -40.1832 	 27.9415 	 27.1506
| 29> C 	 -42.9161 	 27.1655 	 27.105
| 30> H 	 -42.569 	 27.4329 	 26.0694
| 31> H 	 -44.0277 	 27.3187 	 27.2315
| 32> C 	 -42.6445 	 25.6484 	 27.3656
| 33> H 	 -42.7332 	 25.4435 	 28.4346
| 34> H 	 -41.5454 	 25.4317 	 27.0971
| 35> C 	 -43.5179 	 24.639 	 26.6623
| 36> H 	 -43.3048 	 23.6482 	 26.9032
| 37> H 	 -43.4335 	 24.7121 	 25.6645
| 38> H 	 -44.6225 	 24.7704 	 26.866
| 39> H 	 -47.2986 	 28.8015 	 31.0302
| 40> H 	 -39.2634 	 29.5346 	 28.9279
| 41> *
| 42>
| 43>                          ****END OF INPUT****

CARTESIAN COORDINATES (ANGSTROEM)
---------------------------------
  S    -44.976000   29.703100   30.516100
  C    -46.290100   28.524400   30.709900
  C    -45.930800   27.222800   30.476900
  C    -44.547200   27.162300   30.105500
  C    -43.990000   28.421900   29.872000
  H    -43.981300   26.248700   29.810200
  C    -46.762000   26.015200   30.675800
  H    -46.759300   25.522900   29.724900
  H    -47.789700   26.387200   30.692700
  C    -46.430200   25.114700   31.833200
  H    -45.388700   24.894200   31.760500
  H    -46.587000   25.598000   32.855100
  C    -47.175000   23.753900   31.767900
  H    -47.100900   23.246000   30.838200
  H    -46.822100   22.999600   32.526700
  H    -48.239600   23.898700   31.955200
  S    -41.527000   29.715900   29.974700
  C    -40.266200   29.163000   28.880200
  C    -40.756000   28.333900   27.894900
  C    -42.130800   28.082800   28.070100
  C    -42.675200   28.662000   29.208800
  H    -40.183200   27.941500   27.150600
  C    -42.916100   27.165500   27.105000
  H    -42.569000   27.432900   26.069400
  H    -44.027700   27.318700   27.231500
  C    -42.644500   25.648400   27.365600
  H    -42.733200   25.443500   28.434600
  H    -41.545400   25.431700   27.097100
  C    -43.517900   24.639000   26.662300
  H    -43.304800   23.648200   26.903200
  H    -43.433500   24.712100   25.664500
  H    -44.622500   24.770400   26.866000
  H    -47.298600   28.801500   31.030200
  H    -39.263400   29.534600   28.927900

 Total Charge           Charge          ....    0
 Multiplicity           Mult            ....    1
 Number of Electrons    NEL             ....  134
 Basis Dimension        Dim             ....  322

ORBITAL ENERGIES
----------------

  NO   OCC          E(Eh)            E(eV)
   0   2.0000     -88.968030     -2420.9432
   1   2.0000     -88.965275     -2420.8682
   2   2.0000     -10.331941      -281.1464
   3   2.0000     -10.325687      -280.9762
   4   2.0000     -10.317496      -280.7533
   5   2.0000     -10.314513      -280.6722
   6   2.0000     -10.301657      -280.3223
   7   2.0000     -10.301511      -280.3184
   8   2.0000     -10.298681      -280.2414
   9   2.0000     -10.296338      -280.1776
  10   2.0000     -10.293347      -280.0962
  11   2.0000     -10.293043      -280.0879
  12   2.0000     -10.288611      -279.9673
  13   2.0000     -10.288010      -279.9510
  14   2.0000     -10.281424      -279.7718
  15   2.0000     -10.268375      -279.4167
  16   2.0000      -8.082608      -219.9389
  17   2.0000      -8.080341      -219.8773
  18   2.0000      -6.041126      -164.3874
  19   2.0000      -6.038810      -164.3244
  20   2.0000      -6.037385      -164.2856
  21   2.0000      -6.034812      -164.2156
  22   2.0000      -6.033139      -164.1701
  23   2.0000      -6.031143      -164.1157
  24   2.0000      -1.006044       -27.3759
  25   2.0000      -0.985630       -26.8204
  26   2.0000      -0.917871       -24.9766
  27   2.0000      -0.904502       -24.6128
  28   2.0000      -0.867467       -23.6050
  29   2.0000      -0.854571       -23.2541
  30   2.0000      -0.847866       -23.0716
  31   2.0000      -0.814021       -22.1507
  32   2.0000      -0.785323       -21.3697
  33   2.0000      -0.773439       -21.0463
  34   2.0000      -0.710047       -19.3214
  35   2.0000      -0.698661       -19.0115
  36   2.0000      -0.691860       -18.8265
  37   2.0000      -0.669459       -18.2169
  38   2.0000      -0.637821       -17.3560
  39   2.0000      -0.619291       -16.8518
  40   2.0000      -0.595415       -16.2021
  41   2.0000      -0.571107       -15.5406
  42   2.0000      -0.565955       -15.4004
  43   2.0000      -0.557450       -15.1690
  44   2.0000      -0.529898       -14.4193
  45   2.0000      -0.526577       -14.3289
  46   2.0000      -0.516116       -14.0442
  47   2.0000      -0.513282       -13.9671
  48   2.0000      -0.506362       -13.7788
  49   2.0000      -0.501555       -13.6480
  50   2.0000      -0.489748       -13.3267
  51   2.0000      -0.477423       -12.9913
  52   2.0000      -0.471640       -12.8340
  53   2.0000      -0.463515       -12.6129
  54   2.0000      -0.460296       -12.5253
  55   2.0000      -0.455750       -12.4016
  56   2.0000      -0.445885       -12.1332
  57   2.0000      -0.443082       -12.0569
  58   2.0000      -0.434443       -11.8218
  59   2.0000      -0.427883       -11.6433
  60   2.0000      -0.422841       -11.5061
  61   2.0000      -0.418117       -11.3775
  62   2.0000      -0.413917       -11.2633
  63   2.0000      -0.346877        -9.4390
  64   2.0000      -0.332699        -9.0532
  65   2.0000      -0.330771        -9.0007
  66   2.0000      -0.289961        -7.8903
  67   0.0000       0.029612         0.8058
  68   0.0000       0.070659         1.9227
  69   0.0000       0.100189         2.7263
  70   0.0000       0.121251         3.2994
  71   0.0000       0.126442         3.4407

MULLIKEN ATOMIC CHARGES
-----------------------
   0 S :    0.112037
   1 C :   -0.121740
   2 C :   -0.096843
   3 C :    0.011750
   4 C :   -0.146963
   5 H :    0.015082
   6 C :    0.101970
   7 H :    0.015575
   8 H :    0.004119
   9 C :   -0.054769
  10 H :    0.023327
  11 H :    0.047642
  12 C :   -0.057924
  13 H :    0.022315
  14 H :    0.041515
  15 H :    0.030284
  16 S :    0.101948
  17 C :   -0.085488
  18 C :    0.015408
  19 C :   -0.043039
  20 C :   -0.148622
  21 H :   -0.020725
  22 C :    0.044459
  23 H :    0.035843
  24 H :    0.046226
  25 C :   -0.117820
  26 H :    0.029855
  27 H :    0.030108
  28 C :    0.026123
  29 H :    0.018626
  30 H :    0.000397
  31 H :    0.024411
  32 H :    0.042554
  33 H :    0.052360
Sum of atomic charges:   -0.0000000

LOEWDIN ATOMIC CHARGES
----------------------
   0 S :    0.392734
   1 C :   -0.188000
   2 C :   -0.063702
   3 C :   -0.066386
   4 C :   -0.189908
   5 H :    0.033890
   6 C :   -0.035890
   7 H :    0.031254
   8 H :    0.030189
   9 C :   -0.037038
  10 H :    0.020790
  11 H :    0.037484
  12 C :   -0.067938
  13 H :    0.018418
  14 H :    0.033432
  15 H :    0.024115
  16 S :    0.404689
  17 C :   -0.170250
  18 C :   -0.057376
  19 C :   -0.056400
  20 C :   -0.204188
  21 H :    0.017089
  22 C :   -0.032987
  23 H :    0.034152
  24 H :    0.036334
  25 C :   -0.045750
  26 H :    0.017552
  27 H :    0.028905
  28 C :   -0.057232
  29 H :    0.021475
  30 H :    0.008690
  31 H :    0.030840
  32 H :    0.026660
  33 H :    0.024356

  Mayer bond orders larger than 0.100000
B(  0-S ,  1-C ) :   1.1185 B(  0-S ,  4-C ) :   1.1527 B(  1-C ,  2-C ) :   1.6471
B(  1-C , 32-H ) :   0.9609 B(  2-C ,  3-C ) :   1.2127 B(  2-C ,  6-C ) :   1.0305
B(  3-C ,  4-C ) :   1.5852 B(  3-C ,  5-H ) :   0.9820 B(  4-C , 20-C ) :   1.0174
B(  6-C ,  7-H ) :   0.9257 B(  6-C ,  8-H ) :   0.9255 B(  6-C ,  9-C ) :   1.0632
B(  9-C , 10-H ) :   0.9552 B(  9-C , 11-H ) :   0.9532 B(  9-C , 12-C ) :   1.0781
B( 12-C , 13-H ) :   0.9754 B( 12-C , 14-H ) :   0.9754 B( 12-C , 15-H ) :   0.9767
B( 16-S , 17-C ) :   1.1633 B( 16-S , 20-C ) :   1.1419 B( 17-C , 18-C ) :   1.5818
B( 17-C , 33-H ) :   0.9715 B( 18-C , 19-C ) :   1.2527 B( 18-C , 21-H ) :   1.0108
B( 19-C , 20-C ) :   1.6012 B( 19-C , 22-C ) :   1.0419 B( 22-C , 23-H ) :   0.9354
B( 22-C , 24-H ) :   0.9368 B( 22-C , 25-C ) :   1.0540 B( 25-C , 26-H ) :   0.9558
B( 25-C , 27-H ) :   0.9483 B( 25-C , 28-C ) :   1.0915 B( 28-C , 29-H ) :   0.9695
B( 28-C , 30-H ) :   0.9690 B( 28-C , 31-H ) :   0.9682

Dispersion correction           -0.014541598
FINAL SINGLE POINT ENERGY     -1339.878080506628

DIPOLE MOMENT
-------------
                                X             Y             Z
Electronic contribution:     11.54604      30.34734       5.79403
Nuclear contribution   :    -11.64252     -31.05693      -6.09450
                        -----------------------------------------
Total Dipole Moment    :     -0.09648      -0.70959      -0.30047
                        -----------------------------------------
Magnitude (a.u.)       :      0.77660
Magnitude (Debye)      :      1.97396

Rotational constants in cm-1:     0.017519     0.009192     0.006736
Rotational constants in MHz :   525.210511   275.578026   201.948763

                             ****ORCA TERMINATED NORMALLY****
TOTAL RUN TIME: 0 days 0 hours 0 minutes 21 seconds 880 msec
