                         Program Version 4.2.1 -  RELEASE  -
|  1> ! wB97X-D3 SP def2-SVP
|  2> %pal
|  3> nprocs 24
|  4> end
|  5>
|  6> * xyz 0 1
|  7> S 	 47.9644 	 -22.2002 	 -115.156
|  8> C 	 47.6045 	 -23.8619 	 -114.915
|  9> C 	 47.5045 	 -24.2262 	 -113.584
| 10> C 	 47.8371 	 -23.1216 	 -112.74
| 11> C 	 48.1622 	 -21.9482 	 -113.452
| 12> H 	 47.9652 	 -23.0602 	 -111.645
| 13> C 	 47.2352 	 -25.6189 	 -112.964
| 14> H 	 47.2984 	 -25.571 	 -111.885
| 15> H 	 47.8833 	 -26.3169 	 -113.373
| 16> C 	 45.8129 	 -26.0561 	 -113.372
| 17> H 	 45.162 	 -25.5332 	 -112.688
| 18> H 	 45.7142 	 -25.7412 	 -114.373
| 19> C 	 45.6876 	 -27.5561 	 -113.315
| 20> H 	 46.612 	 -28.0474 	 -113.693
| 21> H 	 45.5144 	 -27.8737 	 -112.213
| 22> H 	 44.7698 	 -27.9245 	 -113.725
| 23> S 	 49.8737 	 -19.852 	 -113.356
| 24> C 	 49.5617 	 -18.4511 	 -112.437
| 25> C 	 48.3641 	 -18.654 	 -111.709
| 26> C 	 47.8319 	 -19.9864 	 -111.896
| 27> C 	 48.5023 	 -20.6889 	 -112.833
| 28> H 	 47.8861 	 -17.9627 	 -111.092
| 29> C 	 46.6139 	 -20.4126 	 -111.102
| 30> H 	 46.1698 	 -21.2529 	 -111.666
| 31> H 	 45.8783 	 -19.5868 	 -111.052
| 32> C 	 46.9308 	 -21.0623 	 -109.716
| 33> H 	 47.422 	 -20.4217 	 -109.051
| 34> H 	 47.5453 	 -21.8624 	 -109.839
| 35> C 	 45.6264 	 -21.5536 	 -109.039
| 36> H 	 45.9248 	 -22.2141 	 -108.174
| 37> H 	 44.9761 	 -22.0272 	 -109.798
| 38> H 	 45.0219 	 -20.6874 	 -108.708
| 39> H 	 47.4029 	 -24.484 	 -115.681
| 40> H 	 50.072 	 -17.5182 	 -112.48
| 41> *
| 42>
| 43>                          ****END OF INPUT****

CARTESIAN COORDINATES (ANGSTROEM)
---------------------------------
  S     47.964400  -22.200200  -115.156000
  C     47.604500  -23.861900  -114.915000
  C     47.504500  -24.226200  -113.584000
  C     47.837100  -23.121600  -112.740000
  C     48.162200  -21.948200  -113.452000
  H     47.965200  -23.060200  -111.645000
  C     47.235200  -25.618900  -112.964000
  H     47.298400  -25.571000  -111.885000
  H     47.883300  -26.316900  -113.373000
  C     45.812900  -26.056100  -113.372000
  H     45.162000  -25.533200  -112.688000
  H     45.714200  -25.741200  -114.373000
  C     45.687600  -27.556100  -113.315000
  H     46.612000  -28.047400  -113.693000
  H     45.514400  -27.873700  -112.213000
  H     44.769800  -27.924500  -113.725000
  S     49.873700  -19.852000  -113.356000
  C     49.561700  -18.451100  -112.437000
  C     48.364100  -18.654000  -111.709000
  C     47.831900  -19.986400  -111.896000
  C     48.502300  -20.688900  -112.833000
  H     47.886100  -17.962700  -111.092000
  C     46.613900  -20.412600  -111.102000
  H     46.169800  -21.252900  -111.666000
  H     45.878300  -19.586800  -111.052000
  C     46.930800  -21.062300  -109.716000
  H     47.422000  -20.421700  -109.051000
  H     47.545300  -21.862400  -109.839000
  C     45.626400  -21.553600  -109.039000
  H     45.924800  -22.214100  -108.174000
  H     44.976100  -22.027200  -109.798000
  H     45.021900  -20.687400  -108.708000
  H     47.402900  -24.484000  -115.681000
  H     50.072000  -17.518200  -112.480000

 Total Charge           Charge          ....    0
 Multiplicity           Mult            ....    1
 Number of Electrons    NEL             ....  134
 Basis Dimension        Dim             ....  322

ORBITAL ENERGIES
----------------

  NO   OCC          E(Eh)            E(eV)
   0   2.0000     -88.969951     -2420.9955
   1   2.0000     -88.963075     -2420.8083
   2   2.0000     -10.326418      -280.9961
   3   2.0000     -10.315455      -280.6978
   4   2.0000     -10.315425      -280.6970
   5   2.0000     -10.305985      -280.4401
   6   2.0000     -10.303318      -280.3675
   7   2.0000     -10.295991      -280.1682
   8   2.0000     -10.295460      -280.1537
   9   2.0000     -10.293179      -280.0917
  10   2.0000     -10.290988      -280.0320
  11   2.0000     -10.287812      -279.9456
  12   2.0000     -10.285311      -279.8775
  13   2.0000     -10.283710      -279.8340
  14   2.0000     -10.278638      -279.6960
  15   2.0000     -10.277172      -279.6561
  16   2.0000      -8.085241      -220.0106
  17   2.0000      -8.079733      -219.8607
  18   2.0000      -6.043601      -164.4548
  19   2.0000      -6.039620      -164.3464
  20   2.0000      -6.038195      -164.3076
  21   2.0000      -6.036188      -164.2530
  22   2.0000      -6.033705      -164.1855
  23   2.0000      -6.030693      -164.1035
  24   2.0000      -1.015998       -27.6467
  25   2.0000      -0.990711       -26.9586
  26   2.0000      -0.918149       -24.9841
  27   2.0000      -0.908964       -24.7342
  28   2.0000      -0.872277       -23.7359
  29   2.0000      -0.854357       -23.2482
  30   2.0000      -0.848626       -23.0923
  31   2.0000      -0.810974       -22.0677
  32   2.0000      -0.780043       -21.2260
  33   2.0000      -0.770261       -20.9599
  34   2.0000      -0.707986       -19.2653
  35   2.0000      -0.703611       -19.1462
  36   2.0000      -0.694824       -18.9071
  37   2.0000      -0.673983       -18.3400
  38   2.0000      -0.650232       -17.6937
  39   2.0000      -0.616457       -16.7747
  40   2.0000      -0.595388       -16.2013
  41   2.0000      -0.582262       -15.8442
  42   2.0000      -0.570359       -15.5202
  43   2.0000      -0.565200       -15.3799
  44   2.0000      -0.528885       -14.3917
  45   2.0000      -0.522737       -14.2244
  46   2.0000      -0.519886       -14.1468
  47   2.0000      -0.515329       -14.0228
  48   2.0000      -0.507577       -13.8119
  49   2.0000      -0.501965       -13.6592
  50   2.0000      -0.497539       -13.5387
  51   2.0000      -0.482168       -13.1205
  52   2.0000      -0.472001       -12.8438
  53   2.0000      -0.469775       -12.7832
  54   2.0000      -0.457617       -12.4524
  55   2.0000      -0.445253       -12.1160
  56   2.0000      -0.443329       -12.0636
  57   2.0000      -0.440520       -11.9872
  58   2.0000      -0.436400       -11.8751
  59   2.0000      -0.424907       -11.5623
  60   2.0000      -0.423563       -11.5257
  61   2.0000      -0.418936       -11.3998
  62   2.0000      -0.415508       -11.3065
  63   2.0000      -0.345271        -9.3953
  64   2.0000      -0.334390        -9.0992
  65   2.0000      -0.325908        -8.8684
  66   2.0000      -0.294057        -8.0017
  67   0.0000       0.033508         0.9118
  68   0.0000       0.074794         2.0352
  69   0.0000       0.121026         3.2933
  70   0.0000       0.126651         3.4463
  71   0.0000       0.129388         3.5208

MULLIKEN ATOMIC CHARGES
-----------------------
   0 S :    0.138910
   1 C :   -0.087055
   2 C :   -0.079601
   3 C :   -0.006187
   4 C :   -0.156067
   5 H :    0.015964
   6 C :    0.119236
   7 H :    0.023620
   8 H :    0.010185
   9 C :   -0.068699
  10 H :    0.030759
  11 H :    0.019635
  12 C :   -0.056439
  13 H :    0.042205
  14 H :    0.027686
  15 H :    0.030390
  16 S :    0.122719
  17 C :   -0.081169
  18 C :   -0.013001
  19 C :   -0.037046
  20 C :   -0.173810
  21 H :   -0.007807
  22 C :    0.023933
  23 H :    0.027517
  24 H :    0.032505
  25 C :   -0.002450
  26 H :    0.012479
  27 H :   -0.005935
  28 C :   -0.072182
  29 H :    0.051597
  30 H :    0.030330
  31 H :    0.033659
  32 H :    0.000222
  33 H :    0.053897
Sum of atomic charges:   -0.0000000

LOEWDIN ATOMIC CHARGES
----------------------
   0 S :    0.437909
   1 C :   -0.194004
   2 C :   -0.054674
   3 C :   -0.067514
   4 C :   -0.203011
   5 H :    0.033444
   6 C :   -0.011643
   7 H :    0.028249
   8 H :    0.018481
   9 C :   -0.034782
  10 H :    0.025786
  11 H :    0.015331
  12 C :   -0.072347
  13 H :    0.028476
  14 H :    0.033160
  15 H :    0.021316
  16 S :    0.452628
  17 C :   -0.200480
  18 C :   -0.059605
  19 C :   -0.058996
  20 C :   -0.229162
  21 H :    0.017456
  22 C :   -0.031079
  23 H :    0.031474
  24 H :    0.031450
  25 C :   -0.025066
  26 H :    0.015887
  27 H :    0.005718
  28 C :   -0.068437
  29 H :    0.034241
  30 H :    0.024860
  31 H :    0.026119
  32 H :    0.001669
  33 H :    0.027147

  Mayer bond orders larger than 0.100000
B(  0-S ,  1-C ) :   1.1560 B(  0-S ,  4-C ) :   1.1725 B(  1-C ,  2-C ) :   1.5814
B(  1-C ,  4-C ) :   0.1000 B(  1-C , 32-H ) :   0.9792 B(  2-C ,  3-C ) :   1.2625
B(  2-C ,  6-C ) :   1.0137 B(  3-C ,  4-C ) :   1.5426 B(  3-C ,  5-H ) :   0.9917
B(  4-C , 20-C ) :   1.0343 B(  6-C ,  7-H ) :   0.9463 B(  6-C ,  8-H ) :   0.9396
B(  6-C ,  9-C ) :   1.0570 B(  9-C , 10-H ) :   0.9543 B(  9-C , 11-H ) :   0.9664
B(  9-C , 12-C ) :   1.0850 B( 12-C , 13-H ) :   0.9746 B( 12-C , 14-H ) :   0.9699
B( 12-C , 15-H ) :   0.9721 B( 16-S , 17-C ) :   1.1776 B( 16-S , 20-C ) :   1.1540
B( 17-C , 18-C ) :   1.5509 B( 17-C , 33-H ) :   0.9765 B( 18-C , 19-C ) :   1.2713
B( 18-C , 21-H ) :   0.9990 B( 19-C , 20-C ) :   1.5852 B( 19-C , 22-C ) :   1.0534
B( 22-C , 23-H ) :   0.9233 B( 22-C , 24-H ) :   0.9403 B( 22-C , 25-C ) :   1.0642
B( 25-C , 26-H ) :   0.9496 B( 25-C , 27-H ) :   0.9508 B( 25-C , 28-C ) :   1.0803
B( 28-C , 29-H ) :   0.9740 B( 28-C , 30-H ) :   0.9734 B( 28-C , 31-H ) :   0.9764

Dispersion correction           -0.014064975
FINAL SINGLE POINT ENERGY     -1339.868389198886

DIPOLE MOMENT
-------------
                                X             Y             Z
Electronic contribution:     18.17130      19.05681     -17.79084
Nuclear contribution   :    -18.54151     -19.28133      18.18161
                        -----------------------------------------
Total Dipole Moment    :     -0.37021      -0.22452       0.39076
                        -----------------------------------------
Magnitude (a.u.)       :      0.58324
Magnitude (Debye)      :      1.48247

Rotational constants in cm-1:     0.019289     0.008656     0.006337
Rotational constants in MHz :   578.279337   259.501954   189.985995

                             ****ORCA TERMINATED NORMALLY****
TOTAL RUN TIME: 0 days 0 hours 0 minutes 21 seconds 862 msec
