                         Program Version 4.2.1 -  RELEASE  -
|  1> ! wB97X-D3 SP def2-SVP
|  2> %pal
|  3> nprocs 24
|  4> end
|  5>
|  6> * xyz 0 1
|  7> S 	 -63.8085 	 14.7826 	 -120.308
|  8> C 	 -62.4843 	 13.596 	 -120.153
|  9> C 	 -62.9821 	 12.2681 	 -120.222
| 10> C 	 -64.4135 	 12.3161 	 -120.295
| 11> C 	 -65.0693 	 13.5151 	 -120.213
| 12> H 	 -65.0511 	 11.4513 	 -120.426
| 13> C 	 -62.166 	 10.9884 	 -120.504
| 14> H 	 -61.1832 	 11.3051 	 -120.755
| 15> H 	 -62.4763 	 10.5861 	 -121.473
| 16> C 	 -62.3816 	 9.81059 	 -119.505
| 17> H 	 -62.7409 	 10.2141 	 -118.541
| 18> H 	 -63.1919 	 9.17113 	 -119.93
| 19> C 	 -60.9748 	 9.1321 	 -119.447
| 20> H 	 -60.7331 	 8.85593 	 -120.544
| 21> H 	 -60.1773 	 9.74601 	 -119.11
| 22> H 	 -61.088 	 8.12868 	 -118.934
| 23> S 	 -67.0148 	 14.1156 	 -122.149
| 24> C 	 -68.6316 	 14.4746 	 -121.689
| 25> C 	 -68.7761 	 14.3792 	 -120.333
| 26> C 	 -67.5875 	 13.975 	 -119.636
| 27> C 	 -66.504 	 13.8013 	 -120.48
| 28> H 	 -69.7638 	 14.4849 	 -119.932
| 29> C 	 -67.5521 	 13.823 	 -118.17
| 30> H 	 -67.8779 	 14.6998 	 -117.602
| 31> H 	 -66.6007 	 13.4487 	 -117.893
| 32> C 	 -68.4517 	 12.6993 	 -117.615
| 33> H 	 -68.3124 	 11.8243 	 -118.249
| 34> H 	 -69.5632 	 12.9049 	 -117.788
| 35> C 	 -68.2278 	 12.3744 	 -116.135
| 36> H 	 -67.179 	 12.172 	 -115.94
| 37> H 	 -68.7288 	 11.4323 	 -115.984
| 38> H 	 -68.6563 	 13.108 	 -115.412
| 39> H 	 -61.4046 	 13.8821 	 -120.216
| 40> H 	 -69.4564 	 14.625 	 -122.376
| 41> *
| 42>
| 43>                          ****END OF INPUT****

CARTESIAN COORDINATES (ANGSTROEM)
---------------------------------
  S    -63.808500   14.782600  -120.308000
  C    -62.484300   13.596000  -120.153000
  C    -62.982100   12.268100  -120.222000
  C    -64.413500   12.316100  -120.295000
  C    -65.069300   13.515100  -120.213000
  H    -65.051100   11.451300  -120.426000
  C    -62.166000   10.988400  -120.504000
  H    -61.183200   11.305100  -120.755000
  H    -62.476300   10.586100  -121.473000
  C    -62.381600    9.810590  -119.505000
  H    -62.740900   10.214100  -118.541000
  H    -63.191900    9.171130  -119.930000
  C    -60.974800    9.132100  -119.447000
  H    -60.733100    8.855930  -120.544000
  H    -60.177300    9.746010  -119.110000
  H    -61.088000    8.128680  -118.934000
  S    -67.014800   14.115600  -122.149000
  C    -68.631600   14.474600  -121.689000
  C    -68.776100   14.379200  -120.333000
  C    -67.587500   13.975000  -119.636000
  C    -66.504000   13.801300  -120.480000
  H    -69.763800   14.484900  -119.932000
  C    -67.552100   13.823000  -118.170000
  H    -67.877900   14.699800  -117.602000
  H    -66.600700   13.448700  -117.893000
  C    -68.451700   12.699300  -117.615000
  H    -68.312400   11.824300  -118.249000
  H    -69.563200   12.904900  -117.788000
  C    -68.227800   12.374400  -116.135000
  H    -67.179000   12.172000  -115.940000
  H    -68.728800   11.432300  -115.984000
  H    -68.656300   13.108000  -115.412000
  H    -61.404600   13.882100  -120.216000
  H    -69.456400   14.625000  -122.376000

 Total Charge           Charge          ....    0
 Multiplicity           Mult            ....    1
 Number of Electrons    NEL             ....  134
 Basis Dimension        Dim             ....  322

ORBITAL ENERGIES
----------------

  NO   OCC          E(Eh)            E(eV)
   0   2.0000     -88.963302     -2420.8145
   1   2.0000     -88.962147     -2420.7831
   2   2.0000     -10.331674      -281.1391
   3   2.0000     -10.329595      -281.0826
   4   2.0000     -10.326931      -281.0101
   5   2.0000     -10.316006      -280.7128
   6   2.0000     -10.307986      -280.4946
   7   2.0000     -10.303008      -280.3591
   8   2.0000     -10.297660      -280.2136
   9   2.0000     -10.294374      -280.1242
  10   2.0000     -10.294304      -280.1222
  11   2.0000     -10.291962      -280.0585
  12   2.0000     -10.289508      -279.9917
  13   2.0000     -10.287496      -279.9370
  14   2.0000     -10.282154      -279.7916
  15   2.0000     -10.278710      -279.6979
  16   2.0000      -8.077305      -219.7946
  17   2.0000      -8.076899      -219.7836
  18   2.0000      -6.035792      -164.2422
  19   2.0000      -6.035568      -164.2361
  20   2.0000      -6.031663      -164.1299
  21   2.0000      -6.031542      -164.1266
  22   2.0000      -6.028135      -164.0339
  23   2.0000      -6.027558      -164.0182
  24   2.0000      -1.002537       -27.2804
  25   2.0000      -0.979090       -26.6424
  26   2.0000      -0.911627       -24.8066
  27   2.0000      -0.907453       -24.6931
  28   2.0000      -0.866025       -23.5657
  29   2.0000      -0.849566       -23.1179
  30   2.0000      -0.839376       -22.8406
  31   2.0000      -0.814153       -22.1542
  32   2.0000      -0.780503       -21.2386
  33   2.0000      -0.767801       -20.8929
  34   2.0000      -0.707829       -19.2610
  35   2.0000      -0.693943       -18.8832
  36   2.0000      -0.691252       -18.8099
  37   2.0000      -0.656250       -17.8575
  38   2.0000      -0.642475       -17.4826
  39   2.0000      -0.616943       -16.7879
  40   2.0000      -0.600869       -16.3505
  41   2.0000      -0.574047       -15.6206
  42   2.0000      -0.568665       -15.4742
  43   2.0000      -0.554440       -15.0871
  44   2.0000      -0.525140       -14.2898
  45   2.0000      -0.519530       -14.1371
  46   2.0000      -0.513716       -13.9789
  47   2.0000      -0.508385       -13.8339
  48   2.0000      -0.507678       -13.8146
  49   2.0000      -0.494454       -13.4548
  50   2.0000      -0.489445       -13.3185
  51   2.0000      -0.480419       -13.0729
  52   2.0000      -0.471929       -12.8418
  53   2.0000      -0.467472       -12.7206
  54   2.0000      -0.460127       -12.5207
  55   2.0000      -0.447371       -12.1736
  56   2.0000      -0.446733       -12.1562
  57   2.0000      -0.433703       -11.8017
  58   2.0000      -0.426038       -11.5931
  59   2.0000      -0.421617       -11.4728
  60   2.0000      -0.417411       -11.3583
  61   2.0000      -0.414027       -11.2662
  62   2.0000      -0.410950       -11.1825
  63   2.0000      -0.333905        -9.0860
  64   2.0000      -0.326024        -8.8716
  65   2.0000      -0.321133        -8.7385
  66   2.0000      -0.312189        -8.4951
  67   0.0000       0.041528         1.1300
  68   0.0000       0.051131         1.3914
  69   0.0000       0.105934         2.8826
  70   0.0000       0.124138         3.3780
  71   0.0000       0.132596         3.6081

MULLIKEN ATOMIC CHARGES
-----------------------
   0 S :    0.094048
   1 C :   -0.144642
   2 C :   -0.077751
   3 C :    0.028059
   4 C :   -0.154789
   5 H :    0.009837
   6 C :    0.052794
   7 H :    0.007069
   8 H :    0.034436
   9 C :   -0.074480
  10 H :    0.048062
  11 H :    0.046673
  12 C :   -0.083942
  13 H :    0.034616
  14 H :    0.049219
  15 H :    0.045758
  16 S :    0.109183
  17 C :   -0.089986
  18 C :   -0.027456
  19 C :   -0.017146
  20 C :   -0.181592
  21 H :    0.011849
  22 C :    0.130193
  23 H :    0.036073
  24 H :    0.007608
  25 C :   -0.156967
  26 H :    0.023392
  27 H :    0.028397
  28 C :   -0.026376
  29 H :    0.030132
  30 H :    0.027982
  31 H :    0.045689
  32 H :    0.072456
  33 H :    0.061600
Sum of atomic charges:    0.0000000

LOEWDIN ATOMIC CHARGES
----------------------
   0 S :    0.376667
   1 C :   -0.188534
   2 C :   -0.068374
   3 C :   -0.056880
   4 C :   -0.194302
   5 H :    0.028737
   6 C :   -0.032119
   7 H :    0.022335
   8 H :    0.037186
   9 C :   -0.040910
  10 H :    0.024702
  11 H :    0.030915
  12 C :   -0.066529
  13 H :    0.032851
  14 H :    0.021786
  15 H :    0.029717
  16 S :    0.407463
  17 C :   -0.186077
  18 C :   -0.074580
  19 C :   -0.048958
  20 C :   -0.200339
  21 H :    0.028233
  22 C :   -0.030437
  23 H :    0.036376
  24 H :    0.025912
  25 C :   -0.046229
  26 H :    0.020071
  27 H :    0.022478
  28 C :   -0.066440
  29 H :    0.024518
  30 H :    0.028350
  31 H :    0.031213
  32 H :    0.037702
  33 H :    0.033495

  Mayer bond orders larger than 0.100000
B(  0-S ,  1-C ) :   1.1574 B(  0-S ,  4-C ) :   1.1218 B(  1-C ,  2-C ) :   1.5908
B(  1-C , 32-H ) :   0.9592 B(  2-C ,  3-C ) :   1.2349 B(  2-C ,  6-C ) :   1.0278
B(  3-C ,  4-C ) :   1.6164 B(  3-C ,  5-H ) :   0.9881 B(  4-C , 20-C ) :   1.0162
B(  6-C ,  7-H ) :   0.9517 B(  6-C ,  8-H ) :   0.9416 B(  6-C ,  9-C ) :   1.0154
B(  9-C , 10-H ) :   0.9706 B(  9-C , 11-H ) :   0.9560 B(  9-C , 12-C ) :   1.0662
B( 12-C , 13-H ) :   0.9715 B( 12-C , 14-H ) :   0.9816 B( 12-C , 15-H ) :   0.9741
B( 16-S , 17-C ) :   1.1658 B( 16-S , 20-C ) :   1.1360 B( 17-C , 18-C ) :   1.6135
B( 17-C , 33-H ) :   0.9648 B( 18-C , 19-C ) :   1.2225 B( 18-C , 21-H ) :   0.9963
B( 19-C , 20-C ) :   1.6028 B( 19-C , 22-C ) :   1.0788 B( 22-C , 23-H ) :   0.9312
B( 22-C , 24-H ) :   0.9205 B( 22-C , 25-C ) :   1.0510 B( 25-C , 26-H ) :   0.9555
B( 25-C , 27-H ) :   0.9518 B( 25-C , 28-C ) :   1.0909 B( 28-C , 29-H ) :   0.9724
B( 28-C , 30-H ) :   0.9714 B( 28-C , 31-H ) :   0.9732

Dispersion correction           -0.013346996
FINAL SINGLE POINT ENERGY     -1339.868833356689

DIPOLE MOMENT
-------------
                                X             Y             Z
Electronic contribution:     -3.25478      20.94357     -17.18301
Nuclear contribution   :      3.16158     -21.53042      17.28907
                        -----------------------------------------
Total Dipole Moment    :     -0.09320      -0.58684       0.10606
                        -----------------------------------------
Magnitude (a.u.)       :      0.60359
Magnitude (Debye)      :      1.53420

Rotational constants in cm-1:     0.017315     0.007775     0.006321
Rotational constants in MHz :   519.103328   233.083452   189.501884

                             ****ORCA TERMINATED NORMALLY****
TOTAL RUN TIME: 0 days 0 hours 0 minutes 20 seconds 728 msec
