                         Program Version 4.2.1 -  RELEASE  -
|  1> ! wB97X-D3 SP def2-SVP
|  2> %pal
|  3> nprocs 24
|  4> end
|  5>
|  6> * xyz 0 1
|  7> S 	 -86.7625 	 3.47137 	 -116.651
|  8> C 	 -86.4893 	 1.7295 	 -116.63
|  9> C 	 -87.2105 	 1.0988 	 -117.619
| 10> C 	 -88.1028 	 1.99792 	 -118.301
| 11> C 	 -88.0873 	 3.28982 	 -117.812
| 12> H 	 -88.725 	 1.67912 	 -119.115
| 13> C 	 -87.273 	 -0.454562 	 -117.865
| 14> H 	 -86.2869 	 -0.917578 	 -117.91
| 15> H 	 -87.7665 	 -0.560874 	 -118.841
| 16> C 	 -88.1508 	 -1.19808 	 -116.826
| 17> H 	 -87.9813 	 -2.33613 	 -116.716
| 18> H 	 -87.7493 	 -0.861357 	 -115.852
| 19> C 	 -89.5744 	 -0.700261 	 -116.704
| 20> H 	 -89.7216 	 0.15439 	 -116.117
| 21> H 	 -89.9876 	 -0.440789 	 -117.647
| 22> H 	 -90.117 	 -1.54546 	 -116.314
| 23> S 	 -87.9817 	 5.82349 	 -118.986
| 24> C 	 -89.4736 	 6.70424 	 -119.032
| 25> C 	 -90.5366 	 5.94248 	 -118.702
| 26> C 	 -90.2537 	 4.55732 	 -118.446
| 27> C 	 -88.845 	 4.44203 	 -118.333
| 28> H 	 -91.5146 	 6.42609 	 -118.663
| 29> C 	 -91.4071 	 3.59731 	 -118.125
| 30> H 	 -91.2042 	 2.66586 	 -118.695
| 31> H 	 -92.3393 	 3.91829 	 -118.542
| 32> C 	 -91.458 	 3.18087 	 -116.67
| 33> H 	 -91.4897 	 4.12174 	 -116.066
| 34> H 	 -90.4558 	 2.73064 	 -116.38
| 35> C 	 -92.6394 	 2.2561 	 -116.261
| 36> H 	 -92.4485 	 1.22966 	 -116.484
| 37> H 	 -93.4599 	 2.55891 	 -116.931
| 38> H 	 -92.8821 	 2.32649 	 -115.235
| 39> H 	 -85.6748 	 1.2913 	 -116.123
| 40> H 	 -89.4998 	 7.76284 	 -119.207
| 41> *
| 42>
| 43>                          ****END OF INPUT****

CARTESIAN COORDINATES (ANGSTROEM)
---------------------------------
  S    -86.762500    3.471370  -116.651000
  C    -86.489300    1.729500  -116.630000
  C    -87.210500    1.098800  -117.619000
  C    -88.102800    1.997920  -118.301000
  C    -88.087300    3.289820  -117.812000
  H    -88.725000    1.679120  -119.115000
  C    -87.273000   -0.454562  -117.865000
  H    -86.286900   -0.917578  -117.910000
  H    -87.766500   -0.560874  -118.841000
  C    -88.150800   -1.198080  -116.826000
  H    -87.981300   -2.336130  -116.716000
  H    -87.749300   -0.861357  -115.852000
  C    -89.574400   -0.700261  -116.704000
  H    -89.721600    0.154390  -116.117000
  H    -89.987600   -0.440789  -117.647000
  H    -90.117000   -1.545460  -116.314000
  S    -87.981700    5.823490  -118.986000
  C    -89.473600    6.704240  -119.032000
  C    -90.536600    5.942480  -118.702000
  C    -90.253700    4.557320  -118.446000
  C    -88.845000    4.442030  -118.333000
  H    -91.514600    6.426090  -118.663000
  C    -91.407100    3.597310  -118.125000
  H    -91.204200    2.665860  -118.695000
  H    -92.339300    3.918290  -118.542000
  C    -91.458000    3.180870  -116.670000
  H    -91.489700    4.121740  -116.066000
  H    -90.455800    2.730640  -116.380000
  C    -92.639400    2.256100  -116.261000
  H    -92.448500    1.229660  -116.484000
  H    -93.459900    2.558910  -116.931000
  H    -92.882100    2.326490  -115.235000
  H    -85.674800    1.291300  -116.123000
  H    -89.499800    7.762840  -119.207000

 Total Charge           Charge          ....    0
 Multiplicity           Mult            ....    1
 Number of Electrons    NEL             ....  134
 Basis Dimension        Dim             ....  322

ORBITAL ENERGIES
----------------

  NO   OCC          E(Eh)            E(eV)
   0   2.0000     -88.966792     -2420.9095
   1   2.0000     -88.966559     -2420.9031
   2   2.0000     -10.332021      -281.1486
   3   2.0000     -10.331677      -281.1392
   4   2.0000     -10.313171      -280.6356
   5   2.0000     -10.310175      -280.5541
   6   2.0000     -10.309046      -280.5234
   7   2.0000     -10.304958      -280.4122
   8   2.0000     -10.299322      -280.2588
   9   2.0000     -10.295851      -280.1643
  10   2.0000     -10.294820      -280.1363
  11   2.0000     -10.291704      -280.0515
  12   2.0000     -10.290210      -280.0109
  13   2.0000     -10.289328      -279.9868
  14   2.0000     -10.275092      -279.5995
  15   2.0000     -10.266972      -279.3785
  16   2.0000      -8.081682      -219.9138
  17   2.0000      -8.081012      -219.8955
  18   2.0000      -6.040126      -164.3602
  19   2.0000      -6.039552      -164.3446
  20   2.0000      -6.036304      -164.2562
  21   2.0000      -6.035627      -164.2377
  22   2.0000      -6.032320      -164.1478
  23   2.0000      -6.031723      -164.1315
  24   2.0000      -1.004592       -27.3363
  25   2.0000      -0.983434       -26.7606
  26   2.0000      -0.908586       -24.7239
  27   2.0000      -0.907392       -24.6914
  28   2.0000      -0.866803       -23.5869
  29   2.0000      -0.850092       -23.1322
  30   2.0000      -0.843467       -22.9519
  31   2.0000      -0.814077       -22.1522
  32   2.0000      -0.787195       -21.4207
  33   2.0000      -0.775869       -21.1125
  34   2.0000      -0.706719       -19.2308
  35   2.0000      -0.697203       -18.9719
  36   2.0000      -0.687791       -18.7157
  37   2.0000      -0.657403       -17.8888
  38   2.0000      -0.641278       -17.4501
  39   2.0000      -0.617271       -16.7968
  40   2.0000      -0.599394       -16.3103
  41   2.0000      -0.565921       -15.3995
  42   2.0000      -0.561461       -15.2781
  43   2.0000      -0.551035       -14.9944
  44   2.0000      -0.540945       -14.7199
  45   2.0000      -0.529547       -14.4097
  46   2.0000      -0.510671       -13.8961
  47   2.0000      -0.509824       -13.8730
  48   2.0000      -0.507387       -13.8067
  49   2.0000      -0.497025       -13.5247
  50   2.0000      -0.492906       -13.4127
  51   2.0000      -0.481052       -13.0901
  52   2.0000      -0.475157       -12.9297
  53   2.0000      -0.465628       -12.6704
  54   2.0000      -0.458409       -12.4739
  55   2.0000      -0.446637       -12.1536
  56   2.0000      -0.444643       -12.0993
  57   2.0000      -0.439192       -11.9510
  58   2.0000      -0.434583       -11.8256
  59   2.0000      -0.428865       -11.6700
  60   2.0000      -0.425800       -11.5866
  61   2.0000      -0.407273       -11.0825
  62   2.0000      -0.398086       -10.8325
  63   2.0000      -0.343515        -9.3475
  64   2.0000      -0.332648        -9.0518
  65   2.0000      -0.330342        -8.9891
  66   2.0000      -0.293694        -7.9918
  67   0.0000       0.026061         0.7092
  68   0.0000       0.064658         1.7594
  69   0.0000       0.112796         3.0693
  70   0.0000       0.118267         3.2182
  71   0.0000       0.127370         3.4659

MULLIKEN ATOMIC CHARGES
-----------------------
   0 S :    0.103750
   1 C :   -0.105080
   2 C :   -0.103517
   3 C :    0.036610
   4 C :   -0.160835
   5 H :    0.011642
   6 C :    0.073070
   7 H :    0.033638
   8 H :    0.024069
   9 C :   -0.113878
  10 H :    0.049716
  11 H :    0.017641
  12 C :   -0.007812
  13 H :    0.036721
  14 H :    0.004764
  15 H :    0.030638
  16 S :    0.119044
  17 C :   -0.088189
  18 C :   -0.038422
  19 C :   -0.025455
  20 C :   -0.175450
  21 H :    0.020778
  22 C :    0.096305
  23 H :    0.020160
  24 H :    0.013723
  25 C :   -0.130604
  26 H :    0.030544
  27 H :    0.052369
  28 C :   -0.001619
  29 H :    0.026485
  30 H :    0.022062
  31 H :    0.035764
  32 H :    0.040289
  33 H :    0.051078
Sum of atomic charges:    0.0000000

LOEWDIN ATOMIC CHARGES
----------------------
   0 S :    0.393442
   1 C :   -0.185775
   2 C :   -0.061152
   3 C :   -0.060424
   4 C :   -0.189594
   5 H :    0.028040
   6 C :   -0.026820
   7 H :    0.030389
   8 H :    0.025977
   9 C :   -0.056686
  10 H :    0.034800
  11 H :    0.026336
  12 C :   -0.058932
  13 H :    0.021440
  14 H :    0.013945
  15 H :    0.031659
  16 S :    0.408061
  17 C :   -0.191083
  18 C :   -0.072356
  19 C :   -0.044080
  20 C :   -0.196561
  21 H :    0.033793
  22 C :   -0.032860
  23 H :    0.033489
  24 H :    0.025148
  25 C :   -0.047684
  26 H :    0.025367
  27 H :    0.031026
  28 C :   -0.059337
  29 H :    0.021498
  30 H :    0.027650
  31 H :    0.024195
  32 H :    0.020919
  33 H :    0.026168

  Mayer bond orders larger than 0.100000
B(  0-S ,  1-C ) :   1.1374 B(  0-S ,  4-C ) :   1.1424 B(  1-C ,  2-C ) :   1.6181
B(  1-C , 32-H ) :   0.9713 B(  2-C ,  3-C ) :   1.2457 B(  2-C ,  6-C ) :   1.0147
B(  3-C ,  4-C ) :   1.5730 B(  3-C ,  5-H ) :   0.9939 B(  4-C , 20-C ) :   1.0458
B(  6-C ,  7-H ) :   0.9449 B(  6-C ,  8-H ) :   0.9466 B(  6-C ,  9-C ) :   1.0657
B(  9-C , 10-H ) :   0.9632 B(  9-C , 11-H ) :   0.9533 B(  9-C , 12-C ) :   1.0623
B( 12-C , 13-H ) :   0.9733 B( 12-C , 14-H ) :   0.9765 B( 12-C , 15-H ) :   0.9685
B( 16-S , 17-C ) :   1.1319 B( 16-S , 20-C ) :   1.1632 B( 17-C , 18-C ) :   1.6459
B( 17-C , 33-H ) :   0.9672 B( 18-C , 19-C ) :   1.2238 B( 18-C , 21-H ) :   0.9865
B( 19-C , 20-C ) :   1.5775 B( 19-C , 22-C ) :   1.0475 B( 22-C , 23-H ) :   0.9243
B( 22-C , 24-H ) :   0.9325 B( 22-C , 25-C ) :   1.0629 B( 25-C , 26-H ) :   0.9563
B( 25-C , 27-H ) :   0.9508 B( 25-C , 28-C ) :   1.0710 B( 28-C , 29-H ) :   0.9741
B( 28-C , 30-H ) :   0.9737 B( 28-C , 31-H ) :   0.9755

Dispersion correction           -0.016122398
FINAL SINGLE POINT ENERGY     -1339.870910323855

DIPOLE MOMENT
-------------
                                X             Y             Z
Electronic contribution:     18.92370      23.02409      -6.87074
Nuclear contribution   :    -19.34465     -23.42284       6.89120
                        -----------------------------------------
Total Dipole Moment    :     -0.42095      -0.39875       0.02045
                        -----------------------------------------
Magnitude (a.u.)       :      0.58019
Magnitude (Debye)      :      1.47472

Rotational constants in cm-1:     0.018245     0.010349     0.007382
Rotational constants in MHz :   546.973837   310.267883   221.320330

                             ****ORCA TERMINATED NORMALLY****
TOTAL RUN TIME: 0 days 0 hours 0 minutes 22 seconds 997 msec
