                         Program Version 4.2.1 -  RELEASE  -
|  1> ! wB97X-D3 SP def2-SVP
|  2> %pal
|  3> nprocs 24
|  4> end
|  5>
|  6> * xyz 0 1
|  7> S 	 -128.081 	 62.956 	 -58.5882
|  8> C 	 -128.442 	 62.9907 	 -60.2432
|  9> C 	 -128.955 	 61.796 	 -60.7406
| 10> C 	 -128.925 	 60.8012 	 -59.747
| 11> C 	 -128.569 	 61.2226 	 -58.4918
| 12> H 	 -129.397 	 59.7996 	 -59.8489
| 13> C 	 -129.325 	 61.4709 	 -62.1537
| 14> H 	 -128.965 	 60.5854 	 -62.543
| 15> H 	 -128.829 	 62.1242 	 -62.8065
| 16> C 	 -130.792 	 61.6769 	 -62.4909
| 17> H 	 -131.395 	 61.0459 	 -61.8939
| 18> H 	 -131.082 	 62.6766 	 -62.291
| 19> C 	 -131.163 	 61.3041 	 -64.0014
| 20> H 	 -132.143 	 61.5894 	 -64.2641
| 21> H 	 -130.33 	 61.7473 	 -64.5635
| 22> H 	 -131.013 	 60.2029 	 -64.1388
| 23> S 	 -127.142 	 60.6308 	 -56.2836
| 24> C 	 -127.818 	 59.5386 	 -55.1592
| 25> C 	 -129.117 	 59.1224 	 -55.4268
| 26> C 	 -129.655 	 59.7421 	 -56.6216
| 27> C 	 -128.681 	 60.4898 	 -57.2457
| 28> H 	 -129.671 	 58.4973 	 -54.699
| 29> C 	 -131.054 	 59.4981 	 -57.0817
| 30> H 	 -131.169 	 59.8861 	 -58.0895
| 31> H 	 -131.64 	 60.2298 	 -56.4462
| 32> C 	 -131.582 	 58.1134 	 -56.8987
| 33> H 	 -131.75 	 57.9977 	 -55.8251
| 34> H 	 -130.81 	 57.4395 	 -57.2391
| 35> C 	 -132.86 	 57.9316 	 -57.8288
| 36> H 	 -132.589 	 57.7959 	 -58.9027
| 37> H 	 -133.632 	 58.7069 	 -57.6579
| 38> H 	 -133.27 	 56.9555 	 -57.7282
| 39> H 	 -128.41 	 63.9232 	 -60.7261
| 40> H 	 -127.302 	 59.1131 	 -54.3182
| 41> *
| 42>
| 43>                          ****END OF INPUT****

CARTESIAN COORDINATES (ANGSTROEM)
---------------------------------
  S    -128.081000   62.956000  -58.588200
  C    -128.442000   62.990700  -60.243200
  C    -128.955000   61.796000  -60.740600
  C    -128.925000   60.801200  -59.747000
  C    -128.569000   61.222600  -58.491800
  H    -129.397000   59.799600  -59.848900
  C    -129.325000   61.470900  -62.153700
  H    -128.965000   60.585400  -62.543000
  H    -128.829000   62.124200  -62.806500
  C    -130.792000   61.676900  -62.490900
  H    -131.395000   61.045900  -61.893900
  H    -131.082000   62.676600  -62.291000
  C    -131.163000   61.304100  -64.001400
  H    -132.143000   61.589400  -64.264100
  H    -130.330000   61.747300  -64.563500
  H    -131.013000   60.202900  -64.138800
  S    -127.142000   60.630800  -56.283600
  C    -127.818000   59.538600  -55.159200
  C    -129.117000   59.122400  -55.426800
  C    -129.655000   59.742100  -56.621600
  C    -128.681000   60.489800  -57.245700
  H    -129.671000   58.497300  -54.699000
  C    -131.054000   59.498100  -57.081700
  H    -131.169000   59.886100  -58.089500
  H    -131.640000   60.229800  -56.446200
  C    -131.582000   58.113400  -56.898700
  H    -131.750000   57.997700  -55.825100
  H    -130.810000   57.439500  -57.239100
  C    -132.860000   57.931600  -57.828800
  H    -132.589000   57.795900  -58.902700
  H    -133.632000   58.706900  -57.657900
  H    -133.270000   56.955500  -57.728200
  H    -128.410000   63.923200  -60.726100
  H    -127.302000   59.113100  -54.318200

 Total Charge           Charge          ....    0
 Multiplicity           Mult            ....    1
 Number of Electrons    NEL             ....  134
 Basis Dimension        Dim             ....  322

ORBITAL ENERGIES
----------------

  NO   OCC          E(Eh)            E(eV)
   0   2.0000     -88.964457     -2420.8460
   1   2.0000     -88.963697     -2420.8253
   2   2.0000     -10.326358      -280.9945
   3   2.0000     -10.326095      -280.9873
   4   2.0000     -10.313896      -280.6554
   5   2.0000     -10.308742      -280.5151
   6   2.0000     -10.306669      -280.4587
   7   2.0000     -10.298316      -280.2314
   8   2.0000     -10.295800      -280.1630
   9   2.0000     -10.292158      -280.0639
  10   2.0000     -10.291011      -280.0327
  11   2.0000     -10.289868      -280.0016
  12   2.0000     -10.287311      -279.9320
  13   2.0000     -10.282259      -279.7945
  14   2.0000     -10.279330      -279.7148
  15   2.0000     -10.278440      -279.6906
  16   2.0000      -8.079645      -219.8583
  17   2.0000      -8.078519      -219.8277
  18   2.0000      -6.037983      -164.3019
  19   2.0000      -6.036912      -164.2727
  20   2.0000      -6.034155      -164.1977
  21   2.0000      -6.033228      -164.1725
  22   2.0000      -6.030492      -164.0980
  23   2.0000      -6.029183      -164.0624
  24   2.0000      -1.004792       -27.3418
  25   2.0000      -0.983886       -26.7729
  26   2.0000      -0.916841       -24.9485
  27   2.0000      -0.912926       -24.8420
  28   2.0000      -0.868336       -23.6286
  29   2.0000      -0.851959       -23.1830
  30   2.0000      -0.847403       -23.0590
  31   2.0000      -0.810425       -22.0528
  32   2.0000      -0.785166       -21.3654
  33   2.0000      -0.771215       -20.9858
  34   2.0000      -0.711857       -19.3706
  35   2.0000      -0.705125       -19.1874
  36   2.0000      -0.695985       -18.9387
  37   2.0000      -0.657938       -17.9034
  38   2.0000      -0.646721       -17.5982
  39   2.0000      -0.623248       -16.9594
  40   2.0000      -0.599041       -16.3007
  41   2.0000      -0.572973       -15.5914
  42   2.0000      -0.570352       -15.5201
  43   2.0000      -0.555463       -15.1149
  44   2.0000      -0.531892       -14.4735
  45   2.0000      -0.526047       -14.3145
  46   2.0000      -0.523120       -14.2348
  47   2.0000      -0.506492       -13.7824
  48   2.0000      -0.498397       -13.5621
  49   2.0000      -0.495761       -13.4904
  50   2.0000      -0.490290       -13.3415
  51   2.0000      -0.479954       -13.0602
  52   2.0000      -0.470868       -12.8130
  53   2.0000      -0.466944       -12.7062
  54   2.0000      -0.456337       -12.4175
  55   2.0000      -0.449638       -12.2353
  56   2.0000      -0.443201       -12.0601
  57   2.0000      -0.440683       -11.9916
  58   2.0000      -0.437827       -11.9139
  59   2.0000      -0.429598       -11.6900
  60   2.0000      -0.424989       -11.5645
  61   2.0000      -0.417571       -11.3627
  62   2.0000      -0.413459       -11.2508
  63   2.0000      -0.347714        -9.4618
  64   2.0000      -0.332098        -9.0368
  65   2.0000      -0.329759        -8.9732
  66   2.0000      -0.284806        -7.7500
  67   0.0000       0.033488         0.9113
  68   0.0000       0.064445         1.7536
  69   0.0000       0.107290         2.9195
  70   0.0000       0.119891         3.2624
  71   0.0000       0.126014         3.4290

MULLIKEN ATOMIC CHARGES
-----------------------
   0 S :    0.111875
   1 C :   -0.101066
   2 C :   -0.085457
   3 C :    0.026099
   4 C :   -0.151900
   5 H :    0.024840
   6 C :    0.121191
   7 H :   -0.001742
   8 H :   -0.010803
   9 C :   -0.063651
  10 H :    0.011281
  11 H :    0.018025
  12 C :   -0.047189
  13 H :    0.041293
  14 H :    0.026152
  15 H :    0.032173
  16 S :    0.098555
  17 C :   -0.057791
  18 C :   -0.078735
  19 C :   -0.022684
  20 C :   -0.184523
  21 H :    0.030561
  22 C :    0.064257
  23 H :    0.015834
  24 H :    0.045411
  25 C :   -0.076243
  26 H :    0.041224
  27 H :    0.035843
  28 C :   -0.049283
  29 H :    0.034416
  30 H :    0.050136
  31 H :    0.019218
  32 H :    0.034890
  33 H :    0.047793
Sum of atomic charges:    0.0000000

LOEWDIN ATOMIC CHARGES
----------------------
   0 S :    0.406631
   1 C :   -0.198208
   2 C :   -0.063035
   3 C :   -0.064615
   4 C :   -0.189591
   5 H :    0.037485
   6 C :   -0.028482
   7 H :    0.021554
   8 H :    0.025047
   9 C :   -0.026536
  10 H :    0.011919
  11 H :    0.016758
  12 C :   -0.060688
  13 H :    0.019934
  14 H :    0.024184
  15 H :    0.028343
  16 S :    0.390930
  17 C :   -0.187802
  18 C :   -0.082997
  19 C :   -0.046649
  20 C :   -0.177508
  21 H :    0.035350
  22 C :   -0.039022
  23 H :    0.026977
  24 H :    0.045044
  25 C :   -0.036581
  26 H :    0.026133
  27 H :    0.026435
  28 C :   -0.068917
  29 H :    0.033845
  30 H :    0.030820
  31 H :    0.020878
  32 H :    0.016861
  33 H :    0.025504

  Mayer bond orders larger than 0.100000
B(  0-S ,  1-C ) :   1.1655 B(  0-S ,  4-C ) :   1.1381 B(  1-C ,  2-C ) :   1.5809
B(  1-C ,  4-C ) :   0.1004 B(  1-C , 32-H ) :   0.9722 B(  2-C ,  3-C ) :   1.2599
B(  2-C ,  6-C ) :   1.0292 B(  3-C ,  4-C ) :   1.5839 B(  3-C ,  5-H ) :   0.9858
B(  4-C , 20-C ) :   1.0387 B(  6-C ,  7-H ) :   0.9439 B(  6-C ,  8-H ) :   0.9232
B(  6-C ,  9-C ) :   1.0555 B(  9-C , 10-H ) :   0.9597 B(  9-C , 11-H ) :   0.9579
B(  9-C , 12-C ) :   1.0715 B( 12-C , 13-H ) :   0.9771 B( 12-C , 14-H ) :   0.9773
B( 12-C , 15-H ) :   0.9772 B( 16-S , 17-C ) :   1.1585 B( 16-S , 20-C ) :   1.1119
B( 17-C , 18-C ) :   1.6440 B( 17-C , 33-H ) :   0.9622 B( 18-C , 19-C ) :   1.1896
B( 18-C , 21-H ) :   0.9822 B( 19-C , 20-C ) :   1.6387 B( 19-C , 22-C ) :   1.0453
B( 22-C , 23-H ) :   0.9406 B( 22-C , 24-H ) :   0.9120 B( 22-C , 25-C ) :   1.0558
B( 25-C , 26-H ) :   0.9456 B( 25-C , 27-H ) :   0.9637 B( 25-C , 28-C ) :   1.0819
B( 28-C , 29-H ) :   0.9718 B( 28-C , 30-H ) :   0.9754 B( 28-C , 31-H ) :   0.9719

Dispersion correction           -0.013544828
FINAL SINGLE POINT ENERGY     -1339.865020084764

DIPOLE MOMENT
-------------
                                X             Y             Z
Electronic contribution:     23.94979      11.78788      18.56103
Nuclear contribution   :    -24.56358     -12.15631     -18.76838
                        -----------------------------------------
Total Dipole Moment    :     -0.61379      -0.36843      -0.20735
                        -----------------------------------------
Magnitude (a.u.)       :      0.74530
Magnitude (Debye)      :      1.89440

Rotational constants in cm-1:     0.016621     0.008953     0.006156
Rotational constants in MHz :   498.281053   268.404341   184.558910

                             ****ORCA TERMINATED NORMALLY****
TOTAL RUN TIME: 0 days 0 hours 0 minutes 21 seconds 143 msec
