                         Program Version 4.2.1 -  RELEASE  -
|  1> ! wB97X-D3 SP def2-SVP
|  2> %pal
|  3> nprocs 24
|  4> end
|  5>
|  6> * xyz 0 1
|  7> S 	 -112.558 	 17.3763 	 -116.974
|  8> C 	 -112.579 	 18.5768 	 -115.623
|  9> C 	 -111.856 	 19.7218 	 -115.888
| 10> C 	 -111.412 	 19.7278 	 -117.221
| 11> C 	 -111.566 	 18.5206 	 -117.864
| 12> H 	 -110.768 	 20.4684 	 -117.7
| 13> C 	 -111.523 	 20.9474 	 -115.006
| 14> H 	 -112.214 	 20.9467 	 -114.131
| 15> H 	 -111.938 	 21.778 	 -115.558
| 16> C 	 -110.048 	 21.1374 	 -114.542
| 17> H 	 -109.316 	 21.1897 	 -115.394
| 18> H 	 -109.946 	 22.0351 	 -113.939
| 19> C 	 -109.551 	 19.9929 	 -113.654
| 20> H 	 -108.435 	 20.03 	 -113.677
| 21> H 	 -109.957 	 20.1629 	 -112.592
| 22> H 	 -109.984 	 18.9806 	 -113.928
| 23> S 	 -111.927 	 17.4938 	 -120.362
| 24> C 	 -110.649 	 17.4825 	 -121.555
| 25> C 	 -109.443 	 17.6656 	 -120.957
| 26> C 	 -109.596 	 18.1566 	 -119.596
| 27> C 	 -110.891 	 18.0734 	 -119.089
| 28> H 	 -108.45 	 17.5107 	 -121.46
| 29> C 	 -108.342 	 18.4754 	 -118.747
| 30> H 	 -108.768 	 18.452 	 -117.721
| 31> H 	 -108.103 	 19.503 	 -118.999
| 32> C 	 -107.228 	 17.4162 	 -118.847
| 33> H 	 -106.814 	 17.3524 	 -119.773
| 34> H 	 -107.587 	 16.4207 	 -118.635
| 35> C 	 -106.073 	 17.6877 	 -117.794
| 36> H 	 -106.282 	 17.7799 	 -116.781
| 37> H 	 -105.603 	 18.6116 	 -118.126
| 38> H 	 -105.266 	 16.9734 	 -117.81
| 39> H 	 -112.993 	 18.4007 	 -114.652
| 40> H 	 -110.849 	 17.194 	 -122.604
| 41> *
| 42>
| 43>                          ****END OF INPUT****

CARTESIAN COORDINATES (ANGSTROEM)
---------------------------------
  S    -112.558000   17.376300  -116.974000
  C    -112.579000   18.576800  -115.623000
  C    -111.856000   19.721800  -115.888000
  C    -111.412000   19.727800  -117.221000
  C    -111.566000   18.520600  -117.864000
  H    -110.768000   20.468400  -117.700000
  C    -111.523000   20.947400  -115.006000
  H    -112.214000   20.946700  -114.131000
  H    -111.938000   21.778000  -115.558000
  C    -110.048000   21.137400  -114.542000
  H    -109.316000   21.189700  -115.394000
  H    -109.946000   22.035100  -113.939000
  C    -109.551000   19.992900  -113.654000
  H    -108.435000   20.030000  -113.677000
  H    -109.957000   20.162900  -112.592000
  H    -109.984000   18.980600  -113.928000
  S    -111.927000   17.493800  -120.362000
  C    -110.649000   17.482500  -121.555000
  C    -109.443000   17.665600  -120.957000
  C    -109.596000   18.156600  -119.596000
  C    -110.891000   18.073400  -119.089000
  H    -108.450000   17.510700  -121.460000
  C    -108.342000   18.475400  -118.747000
  H    -108.768000   18.452000  -117.721000
  H    -108.103000   19.503000  -118.999000
  C    -107.228000   17.416200  -118.847000
  H    -106.814000   17.352400  -119.773000
  H    -107.587000   16.420700  -118.635000
  C    -106.073000   17.687700  -117.794000
  H    -106.282000   17.779900  -116.781000
  H    -105.603000   18.611600  -118.126000
  H    -105.266000   16.973400  -117.810000
  H    -112.993000   18.400700  -114.652000
  H    -110.849000   17.194000  -122.604000

 Total Charge           Charge          ....    0
 Multiplicity           Mult            ....    1
 Number of Electrons    NEL             ....  134
 Basis Dimension        Dim             ....  322

ORBITAL ENERGIES
----------------

  NO   OCC          E(Eh)            E(eV)
   0   2.0000     -88.969994     -2420.9966
   1   2.0000     -88.958385     -2420.6807
   2   2.0000     -10.331558      -281.1360
   3   2.0000     -10.325468      -280.9703
   4   2.0000     -10.319862      -280.8177
   5   2.0000     -10.317277      -280.7474
   6   2.0000     -10.306074      -280.4425
   7   2.0000     -10.304005      -280.3862
   8   2.0000     -10.301326      -280.3133
   9   2.0000     -10.298854      -280.2461
  10   2.0000     -10.296394      -280.1791
  11   2.0000     -10.293878      -280.1107
  12   2.0000     -10.291404      -280.0433
  13   2.0000     -10.289118      -279.9811
  14   2.0000     -10.285787      -279.8905
  15   2.0000     -10.272885      -279.5394
  16   2.0000      -8.083810      -219.9717
  17   2.0000      -8.073987      -219.7044
  18   2.0000      -6.042315      -164.4198
  19   2.0000      -6.038689      -164.3211
  20   2.0000      -6.034382      -164.2039
  21   2.0000      -6.032583      -164.1549
  22   2.0000      -6.028297      -164.0383
  23   2.0000      -6.024678      -163.9398
  24   2.0000      -1.006036       -27.3756
  25   2.0000      -0.983174       -26.7535
  26   2.0000      -0.907909       -24.7055
  27   2.0000      -0.903515       -24.5859
  28   2.0000      -0.868698       -23.6385
  29   2.0000      -0.849664       -23.1205
  30   2.0000      -0.842042       -22.9131
  31   2.0000      -0.813142       -22.1267
  32   2.0000      -0.781599       -21.2684
  33   2.0000      -0.771621       -20.9969
  34   2.0000      -0.715997       -19.4833
  35   2.0000      -0.698410       -19.0047
  36   2.0000      -0.692726       -18.8500
  37   2.0000      -0.654987       -17.8231
  38   2.0000      -0.639025       -17.3887
  39   2.0000      -0.618860       -16.8400
  40   2.0000      -0.591942       -16.1076
  41   2.0000      -0.568156       -15.4603
  42   2.0000      -0.564233       -15.3535
  43   2.0000      -0.552345       -15.0301
  44   2.0000      -0.540160       -14.6985
  45   2.0000      -0.523241       -14.2381
  46   2.0000      -0.516504       -14.0548
  47   2.0000      -0.513959       -13.9855
  48   2.0000      -0.497410       -13.5352
  49   2.0000      -0.491390       -13.3714
  50   2.0000      -0.484965       -13.1966
  51   2.0000      -0.482056       -13.1174
  52   2.0000      -0.473499       -12.8846
  53   2.0000      -0.459619       -12.5069
  54   2.0000      -0.455946       -12.4069
  55   2.0000      -0.448793       -12.2123
  56   2.0000      -0.447263       -12.1707
  57   2.0000      -0.439834       -11.9685
  58   2.0000      -0.432264       -11.7625
  59   2.0000      -0.428560       -11.6617
  60   2.0000      -0.424333       -11.5467
  61   2.0000      -0.416762       -11.3407
  62   2.0000      -0.405768       -11.0415
  63   2.0000      -0.346681        -9.4337
  64   2.0000      -0.337685        -9.1889
  65   2.0000      -0.323347        -8.7987
  66   2.0000      -0.294116        -8.0033
  67   0.0000       0.031863         0.8670
  68   0.0000       0.066342         1.8053
  69   0.0000       0.099637         2.7113
  70   0.0000       0.122974         3.3463
  71   0.0000       0.129007         3.5105

MULLIKEN ATOMIC CHARGES
-----------------------
   0 S :    0.109141
   1 C :   -0.104611
   2 C :   -0.106469
   3 C :    0.026919
   4 C :   -0.140825
   5 H :    0.019115
   6 C :    0.065953
   7 H :    0.016910
   8 H :    0.035030
   9 C :   -0.058509
  10 H :    0.037705
  11 H :    0.038374
  12 C :   -0.110648
  13 H :    0.049159
  14 H :    0.036312
  15 H :    0.054213
  16 S :    0.083291
  17 C :   -0.098939
  18 C :   -0.037087
  19 C :   -0.092768
  20 C :   -0.138205
  21 H :    0.043775
  22 C :    0.062214
  23 H :    0.038699
  24 H :    0.035676
  25 C :   -0.035018
  26 H :    0.008868
  27 H :    0.032422
  28 C :   -0.038172
  29 H :    0.022735
  30 H :    0.017690
  31 H :    0.021808
  32 H :    0.033460
  33 H :    0.071785
Sum of atomic charges:    0.0000000

LOEWDIN ATOMIC CHARGES
----------------------
   0 S :    0.381277
   1 C :   -0.179389
   2 C :   -0.061460
   3 C :   -0.064083
   4 C :   -0.184361
   5 H :    0.034871
   6 C :   -0.032841
   7 H :    0.031469
   8 H :    0.033794
   9 C :   -0.044540
  10 H :    0.026806
  11 H :    0.028272
  12 C :   -0.079285
  13 H :    0.031027
  14 H :    0.029318
  15 H :    0.031483
  16 S :    0.400111
  17 C :   -0.181307
  18 C :   -0.082433
  19 C :   -0.057148
  20 C :   -0.211697
  21 H :    0.041885
  22 C :   -0.030853
  23 H :    0.036779
  24 H :    0.029389
  25 C :   -0.023386
  26 H :    0.008113
  27 H :    0.027987
  28 C :   -0.060277
  29 H :    0.015529
  30 H :    0.024149
  31 H :    0.023911
  32 H :    0.021202
  33 H :    0.035690

  Mayer bond orders larger than 0.100000
B(  0-S ,  1-C ) :   1.1136 B(  0-S ,  4-C ) :   1.1440 B(  1-C ,  2-C ) :   1.6521
B(  1-C , 32-H ) :   0.9656 B(  2-C ,  3-C ) :   1.2100 B(  2-C ,  6-C ) :   1.0101
B(  3-C ,  4-C ) :   1.6118 B(  3-C ,  5-H ) :   0.9923 B(  4-C , 20-C ) :   1.0002
B(  6-C ,  7-H ) :   0.9412 B(  6-C ,  8-H ) :   0.9411 B(  6-C ,  9-C ) :   1.0616
B(  9-C , 10-H ) :   0.9622 B(  9-C , 11-H ) :   0.9567 B(  9-C , 12-C ) :   1.0606
B( 12-C , 13-H ) :   0.9756 B( 12-C , 14-H ) :   0.9754 B( 12-C , 15-H ) :   0.9765
B( 16-S , 17-C ) :   1.1651 B( 16-S , 20-C ) :   1.1281 B( 17-C , 18-C ) :   1.6036
B( 17-C , 33-H ) :   0.9642 B( 18-C , 19-C ) :   1.2275 B( 18-C , 21-H ) :   0.9819
B( 19-C , 20-C ) :   1.6278 B( 19-C , 22-C ) :   1.0179 B( 22-C , 23-H ) :   0.9473
B( 22-C , 24-H ) :   0.9316 B( 22-C , 25-C ) :   1.0664 B( 25-C , 26-H ) :   0.9519
B( 25-C , 27-H ) :   0.9593 B( 25-C , 28-C ) :   1.0786 B( 28-C , 29-H ) :   0.9811
B( 28-C , 30-H ) :   0.9761 B( 28-C , 31-H ) :   0.9759

Dispersion correction           -0.014447887
FINAL SINGLE POINT ENERGY     -1339.864499759910

DIPOLE MOMENT
-------------
                                X             Y             Z
Electronic contribution:    -24.28855     -10.00417     -16.05191
Nuclear contribution   :     24.96394      10.34386      16.24449
                        -----------------------------------------
Total Dipole Moment    :      0.67539       0.33970       0.19258
                        -----------------------------------------
Magnitude (a.u.)       :      0.78015
Magnitude (Debye)      :      1.98299

Rotational constants in cm-1:     0.016463     0.009864     0.006957
Rotational constants in MHz :   493.555256   295.703743   208.551022

                             ****ORCA TERMINATED NORMALLY****
TOTAL RUN TIME: 0 days 0 hours 0 minutes 21 seconds 769 msec
