                         Program Version 4.2.1 -  RELEASE  -
|  1> ! wB97X-D3 SP def2-SVP
|  2> %pal
|  3> nprocs 24
|  4> end
|  5>
|  6> * xyz 0 1
|  7> S 	 -106.574 	 58.5503 	 -102.219
|  8> C 	 -107.358 	 59.3245 	 -103.524
|  9> C 	 -108.339 	 60.1963 	 -103.07
| 10> C 	 -108.398 	 60.2011 	 -101.661
| 11> C 	 -107.315 	 59.6041 	 -101.035
| 12> H 	 -109.153 	 60.6761 	 -101.055
| 13> C 	 -109.412 	 60.868 	 -103.928
| 14> H 	 -110.372 	 60.537 	 -103.531
| 15> H 	 -109.341 	 60.5013 	 -104.925
| 16> C 	 -109.331 	 62.394 	 -103.895
| 17> H 	 -110.274 	 62.7809 	 -104.321
| 18> H 	 -109.369 	 62.6608 	 -102.861
| 19> C 	 -108.056 	 63.0552 	 -104.437
| 20> H 	 -108.059 	 63.2573 	 -105.513
| 21> H 	 -108.107 	 64.0131 	 -104.026
| 22> H 	 -107.174 	 62.5585 	 -104.178
| 23> S 	 -107.165 	 57.6783 	 -99.1914
| 24> C 	 -107.289 	 58.0116 	 -97.5318
| 25> C 	 -107.257 	 59.4009 	 -97.2748
| 26> C 	 -107.301 	 60.1659 	 -98.5152
| 27> C 	 -107.35 	 59.3575 	 -99.606
| 28> H 	 -107.19 	 59.7677 	 -96.2029
| 29> C 	 -107.369 	 61.6608 	 -98.5411
| 30> H 	 -107.27 	 61.9602 	 -99.5813
| 31> H 	 -106.462 	 62.0742 	 -98.0785
| 32> C 	 -108.591 	 62.3562 	 -97.9696
| 33> H 	 -108.348 	 63.3368 	 -97.6141
| 34> H 	 -108.844 	 61.7663 	 -97.0699
| 35> C 	 -109.909 	 62.4783 	 -98.801
| 36> H 	 -110.584 	 63.2755 	 -98.3373
| 37> H 	 -110.513 	 61.4987 	 -98.7733
| 38> H 	 -109.564 	 62.8198 	 -99.7868
| 39> H 	 -107.348 	 58.9744 	 -104.528
| 40> H 	 -107.237 	 57.2906 	 -96.7229
| 41> *
| 42>
| 43>                          ****END OF INPUT****

CARTESIAN COORDINATES (ANGSTROEM)
---------------------------------
  S    -106.574000   58.550300  -102.219000
  C    -107.358000   59.324500  -103.524000
  C    -108.339000   60.196300  -103.070000
  C    -108.398000   60.201100  -101.661000
  C    -107.315000   59.604100  -101.035000
  H    -109.153000   60.676100  -101.055000
  C    -109.412000   60.868000  -103.928000
  H    -110.372000   60.537000  -103.531000
  H    -109.341000   60.501300  -104.925000
  C    -109.331000   62.394000  -103.895000
  H    -110.274000   62.780900  -104.321000
  H    -109.369000   62.660800  -102.861000
  C    -108.056000   63.055200  -104.437000
  H    -108.059000   63.257300  -105.513000
  H    -108.107000   64.013100  -104.026000
  H    -107.174000   62.558500  -104.178000
  S    -107.165000   57.678300  -99.191400
  C    -107.289000   58.011600  -97.531800
  C    -107.257000   59.400900  -97.274800
  C    -107.301000   60.165900  -98.515200
  C    -107.350000   59.357500  -99.606000
  H    -107.190000   59.767700  -96.202900
  C    -107.369000   61.660800  -98.541100
  H    -107.270000   61.960200  -99.581300
  H    -106.462000   62.074200  -98.078500
  C    -108.591000   62.356200  -97.969600
  H    -108.348000   63.336800  -97.614100
  H    -108.844000   61.766300  -97.069900
  C    -109.909000   62.478300  -98.801000
  H    -110.584000   63.275500  -98.337300
  H    -110.513000   61.498700  -98.773300
  H    -109.564000   62.819800  -99.786800
  H    -107.348000   58.974400  -104.528000
  H    -107.237000   57.290600  -96.722900

 Total Charge           Charge          ....    0
 Multiplicity           Mult            ....    1
 Number of Electrons    NEL             ....  134
 Basis Dimension        Dim             ....  322

ORBITAL ENERGIES
----------------

  NO   OCC          E(Eh)            E(eV)
   0   2.0000     -88.968102     -2420.9451
   1   2.0000     -88.963264     -2420.8135
   2   2.0000     -10.325326      -280.9664
   3   2.0000     -10.321836      -280.8714
   4   2.0000     -10.315210      -280.6911
   5   2.0000     -10.310703      -280.5685
   6   2.0000     -10.302128      -280.3352
   7   2.0000     -10.301795      -280.3261
   8   2.0000     -10.298082      -280.2251
   9   2.0000     -10.293829      -280.1093
  10   2.0000     -10.290431      -280.0169
  11   2.0000     -10.288317      -279.9593
  12   2.0000     -10.288077      -279.9528
  13   2.0000     -10.284817      -279.8641
  14   2.0000     -10.283576      -279.8303
  15   2.0000     -10.266118      -279.3553
  16   2.0000      -8.083318      -219.9583
  17   2.0000      -8.079359      -219.8505
  18   2.0000      -6.041845      -164.4070
  19   2.0000      -6.037859      -164.2985
  20   2.0000      -6.037813      -164.2973
  21   2.0000      -6.033924      -164.1914
  22   2.0000      -6.033706      -164.1855
  23   2.0000      -6.030055      -164.0861
  24   2.0000      -1.015625       -27.6366
  25   2.0000      -0.990313       -26.9478
  26   2.0000      -0.912448       -24.8290
  27   2.0000      -0.909963       -24.7613
  28   2.0000      -0.872099       -23.7310
  29   2.0000      -0.852051       -23.1855
  30   2.0000      -0.845361       -23.0035
  31   2.0000      -0.812757       -22.1162
  32   2.0000      -0.785266       -21.3682
  33   2.0000      -0.777683       -21.1618
  34   2.0000      -0.707380       -19.2488
  35   2.0000      -0.695058       -18.9135
  36   2.0000      -0.694270       -18.8921
  37   2.0000      -0.656828       -17.8732
  38   2.0000      -0.641246       -17.4492
  39   2.0000      -0.622256       -16.9324
  40   2.0000      -0.597188       -16.2503
  41   2.0000      -0.567119       -15.4321
  42   2.0000      -0.553585       -15.0638
  43   2.0000      -0.550256       -14.9732
  44   2.0000      -0.539326       -14.6758
  45   2.0000      -0.538222       -14.6458
  46   2.0000      -0.519162       -14.1271
  47   2.0000      -0.517047       -14.0696
  48   2.0000      -0.505289       -13.7496
  49   2.0000      -0.496871       -13.5206
  50   2.0000      -0.489969       -13.3327
  51   2.0000      -0.482745       -13.1362
  52   2.0000      -0.472315       -12.8523
  53   2.0000      -0.465756       -12.6739
  54   2.0000      -0.459524       -12.5043
  55   2.0000      -0.449416       -12.2292
  56   2.0000      -0.446447       -12.1484
  57   2.0000      -0.439104       -11.9486
  58   2.0000      -0.436211       -11.8699
  59   2.0000      -0.422560       -11.4984
  60   2.0000      -0.417552       -11.3622
  61   2.0000      -0.413748       -11.2586
  62   2.0000      -0.408135       -11.1059
  63   2.0000      -0.351558        -9.5664
  64   2.0000      -0.329227        -8.9587
  65   2.0000      -0.326737        -8.8910
  66   2.0000      -0.290665        -7.9094
  67   0.0000       0.028413         0.7732
  68   0.0000       0.069259         1.8846
  69   0.0000       0.106417         2.8957
  70   0.0000       0.121423         3.3041
  71   0.0000       0.130458         3.5499

MULLIKEN ATOMIC CHARGES
-----------------------
   0 S :    0.103124
   1 C :   -0.098007
   2 C :   -0.106856
   3 C :   -0.007631
   4 C :   -0.113598
   5 H :    0.011126
   6 C :    0.113352
   7 H :    0.029904
   8 H :    0.002555
   9 C :   -0.087475
  10 H :    0.027865
  11 H :    0.013609
  12 C :   -0.001429
  13 H :    0.025769
  14 H :    0.016005
  15 H :    0.034238
  16 S :    0.108412
  17 C :   -0.091631
  18 C :   -0.069451
  19 C :   -0.053297
  20 C :   -0.154913
  21 H :    0.045758
  22 C :    0.081301
  23 H :    0.009882
  24 H :    0.032314
  25 C :   -0.070260
  26 H :    0.021997
  27 H :    0.020616
  28 C :   -0.096314
  29 H :    0.050365
  30 H :    0.063268
  31 H :    0.040323
  32 H :    0.043223
  33 H :    0.055854
Sum of atomic charges:    0.0000000

LOEWDIN ATOMIC CHARGES
----------------------
   0 S :    0.423568
   1 C :   -0.205679
   2 C :   -0.066141
   3 C :   -0.052031
   4 C :   -0.204517
   5 H :    0.028126
   6 C :   -0.025084
   7 H :    0.034752
   8 H :    0.020228
   9 C :   -0.039079
  10 H :    0.026661
  11 H :    0.017684
  12 C :   -0.055519
  13 H :    0.026304
  14 H :    0.023215
  15 H :    0.020983
  16 S :    0.425336
  17 C :   -0.204853
  18 C :   -0.079557
  19 C :   -0.062656
  20 C :   -0.193339
  21 H :    0.042140
  22 C :   -0.036931
  23 H :    0.026050
  24 H :    0.039636
  25 C :   -0.045205
  26 H :    0.021322
  27 H :    0.023667
  28 C :   -0.078360
  29 H :    0.036838
  30 H :    0.036862
  31 H :    0.021152
  32 H :    0.025275
  33 H :    0.029151

  Mayer bond orders larger than 0.100000
B(  0-S ,  1-C ) :   1.1619 B(  0-S ,  4-C ) :   1.1529 B(  1-C ,  2-C ) :   1.5645
B(  1-C , 32-H ) :   0.9682 B(  2-C ,  3-C ) :   1.2800 B(  2-C ,  6-C ) :   1.0228
B(  3-C ,  4-C ) :   1.5208 B(  3-C ,  5-H ) :   0.9924 B(  4-C , 20-C ) :   1.0546
B(  6-C ,  7-H ) :   0.9398 B(  6-C ,  8-H ) :   0.9394 B(  6-C ,  9-C ) :   1.0724
B(  9-C , 10-H ) :   0.9530 B(  9-C , 11-H ) :   0.9617 B(  9-C , 12-C ) :   1.0728
B( 12-C , 13-H ) :   0.9745 B( 12-C , 14-H ) :   0.9721 B( 12-C , 15-H ) :   0.9744
B( 16-S , 17-C ) :   1.1698 B( 16-S , 20-C ) :   1.1330 B( 17-C , 18-C ) :   1.6106
B( 17-C , 33-H ) :   0.9677 B( 18-C , 19-C ) :   1.2152 B( 18-C , 21-H ) :   0.9807
B( 19-C , 20-C ) :   1.6311 B( 19-C , 22-C ) :   1.0564 B( 22-C , 23-H ) :   0.9296
B( 22-C , 24-H ) :   0.9240 B( 22-C , 25-C ) :   1.0693 B( 25-C , 26-H ) :   0.9546
B( 25-C , 27-H ) :   0.9563 B( 25-C , 28-C ) :   1.0746 B( 28-C , 29-H ) :   0.9715
B( 28-C , 30-H ) :   0.9707 B( 28-C , 31-H ) :   0.9693

Dispersion correction           -0.014997408
FINAL SINGLE POINT ENERGY     -1339.868530167161

DIPOLE MOMENT
-------------
                                X             Y             Z
Electronic contribution:     13.23871     -26.36233       3.99245
Nuclear contribution   :    -13.66449      26.80487      -3.90707
                        -----------------------------------------
Total Dipole Moment    :     -0.42578       0.44254       0.08538
                        -----------------------------------------
Magnitude (a.u.)       :      0.62002
Magnitude (Debye)      :      1.57596

Rotational constants in cm-1:     0.018597     0.010134     0.007143
Rotational constants in MHz :   557.526018   303.805581   214.127187

                             ****ORCA TERMINATED NORMALLY****
TOTAL RUN TIME: 0 days 0 hours 0 minutes 21 seconds 582 msec
