                         Program Version 4.2.1 -  RELEASE  -
|  1> ! wB97X-D3 SP def2-SVP
|  2> %pal
|  3> nprocs 24
|  4> end
|  5>
|  6> * xyz 0 1
|  7> S 	 -106.986 	 52.0087 	 -87.3357
|  8> C 	 -107.911 	 51.0897 	 -86.1957
|  9> C 	 -108.532 	 51.9212 	 -85.2788
| 10> C 	 -108.165 	 53.2894 	 -85.4375
| 11> C 	 -107.355 	 53.5157 	 -86.5349
| 12> H 	 -108.492 	 54.1386 	 -84.8709
| 13> C 	 -109.596 	 51.5169 	 -84.322
| 14> H 	 -109.107 	 51.5241 	 -83.3381
| 15> H 	 -109.748 	 50.465 	 -84.5252
| 16> C 	 -110.897 	 52.3473 	 -84.2178
| 17> H 	 -111.518 	 52.2582 	 -85.1645
| 18> H 	 -111.516 	 51.9637 	 -83.4313
| 19> C 	 -110.742 	 53.8073 	 -83.8207
| 20> H 	 -110.181 	 53.9871 	 -82.9613
| 21> H 	 -110.574 	 54.5321 	 -84.6298
| 22> H 	 -111.745 	 54.1425 	 -83.531
| 23> S 	 -104.975 	 54.7804 	 -86.5818
| 24> C 	 -104.777 	 56.3659 	 -87.3368
| 25> C 	 -105.991 	 56.8262 	 -87.8184
| 26> C 	 -107.041 	 55.8534 	 -87.6476
| 27> C 	 -106.674 	 54.6989 	 -86.995
| 28> H 	 -106.193 	 57.8988 	 -88.2693
| 29> C 	 -108.482 	 56.3264 	 -87.936
| 30> H 	 -109.201 	 55.488 	 -87.901
| 31> H 	 -108.617 	 56.6388 	 -88.9702
| 32> C 	 -108.953 	 57.4482 	 -87.0258
| 33> H 	 -108.184 	 58.2021 	 -87.1352
| 34> H 	 -108.913 	 57.1292 	 -85.9862
| 35> C 	 -110.33 	 58.0779 	 -87.4265
| 36> H 	 -110.243 	 58.3473 	 -88.436
| 37> H 	 -110.755 	 58.9226 	 -86.8208
| 38> H 	 -111.098 	 57.3016 	 -87.2511
| 39> H 	 -107.968 	 49.9372 	 -86.1258
| 40> H 	 -103.775 	 56.8384 	 -87.5186
| 41> *
| 42>
| 43>                          ****END OF INPUT****

CARTESIAN COORDINATES (ANGSTROEM)
---------------------------------
  S    -106.986000   52.008700  -87.335700
  C    -107.911000   51.089700  -86.195700
  C    -108.532000   51.921200  -85.278800
  C    -108.165000   53.289400  -85.437500
  C    -107.355000   53.515700  -86.534900
  H    -108.492000   54.138600  -84.870900
  C    -109.596000   51.516900  -84.322000
  H    -109.107000   51.524100  -83.338100
  H    -109.748000   50.465000  -84.525200
  C    -110.897000   52.347300  -84.217800
  H    -111.518000   52.258200  -85.164500
  H    -111.516000   51.963700  -83.431300
  C    -110.742000   53.807300  -83.820700
  H    -110.181000   53.987100  -82.961300
  H    -110.574000   54.532100  -84.629800
  H    -111.745000   54.142500  -83.531000
  S    -104.975000   54.780400  -86.581800
  C    -104.777000   56.365900  -87.336800
  C    -105.991000   56.826200  -87.818400
  C    -107.041000   55.853400  -87.647600
  C    -106.674000   54.698900  -86.995000
  H    -106.193000   57.898800  -88.269300
  C    -108.482000   56.326400  -87.936000
  H    -109.201000   55.488000  -87.901000
  H    -108.617000   56.638800  -88.970200
  C    -108.953000   57.448200  -87.025800
  H    -108.184000   58.202100  -87.135200
  H    -108.913000   57.129200  -85.986200
  C    -110.330000   58.077900  -87.426500
  H    -110.243000   58.347300  -88.436000
  H    -110.755000   58.922600  -86.820800
  H    -111.098000   57.301600  -87.251100
  H    -107.968000   49.937200  -86.125800
  H    -103.775000   56.838400  -87.518600

 Total Charge           Charge          ....    0
 Multiplicity           Mult            ....    1
 Number of Electrons    NEL             ....  134
 Basis Dimension        Dim             ....  322

ORBITAL ENERGIES
----------------

  NO   OCC          E(Eh)            E(eV)
   0   2.0000     -88.963008     -2420.8065
   1   2.0000     -88.962545     -2420.7939
   2   2.0000     -10.325315      -280.9661
   3   2.0000     -10.324938      -280.9558
   4   2.0000     -10.324884      -280.9544
   5   2.0000     -10.318247      -280.7738
   6   2.0000     -10.305640      -280.4307
   7   2.0000     -10.305262      -280.4204
   8   2.0000     -10.296889      -280.1926
   9   2.0000     -10.294648      -280.1316
  10   2.0000     -10.290841      -280.0280
  11   2.0000     -10.290190      -280.0103
  12   2.0000     -10.289728      -279.9977
  13   2.0000     -10.285646      -279.8867
  14   2.0000     -10.282611      -279.8041
  15   2.0000     -10.277080      -279.6536
  16   2.0000      -8.078158      -219.8178
  17   2.0000      -8.077329      -219.7953
  18   2.0000      -6.036588      -164.2639
  19   2.0000      -6.035910      -164.2455
  20   2.0000      -6.032498      -164.1526
  21   2.0000      -6.031764      -164.1326
  22   2.0000      -6.029067      -164.0593
  23   2.0000      -6.028034      -164.0312
  24   2.0000      -1.007759       -27.4225
  25   2.0000      -0.983634       -26.7661
  26   2.0000      -0.913870       -24.8677
  27   2.0000      -0.906376       -24.6637
  28   2.0000      -0.871960       -23.7272
  29   2.0000      -0.847775       -23.0691
  30   2.0000      -0.842745       -22.9323
  31   2.0000      -0.817650       -22.2494
  32   2.0000      -0.783691       -21.3253
  33   2.0000      -0.770754       -20.9733
  34   2.0000      -0.708584       -19.2816
  35   2.0000      -0.699164       -19.0252
  36   2.0000      -0.691911       -18.8279
  37   2.0000      -0.657774       -17.8990
  38   2.0000      -0.640595       -17.4315
  39   2.0000      -0.616053       -16.7637
  40   2.0000      -0.595428       -16.2024
  41   2.0000      -0.572995       -15.5920
  42   2.0000      -0.565321       -15.3832
  43   2.0000      -0.544966       -14.8293
  44   2.0000      -0.536966       -14.6116
  45   2.0000      -0.519370       -14.1328
  46   2.0000      -0.514666       -14.0048
  47   2.0000      -0.510848       -13.9009
  48   2.0000      -0.508388       -13.8340
  49   2.0000      -0.496085       -13.4992
  50   2.0000      -0.492921       -13.4131
  51   2.0000      -0.487139       -13.2557
  52   2.0000      -0.473257       -12.8780
  53   2.0000      -0.467105       -12.7106
  54   2.0000      -0.454898       -12.3784
  55   2.0000      -0.449523       -12.2321
  56   2.0000      -0.435668       -11.8551
  57   2.0000      -0.433731       -11.8024
  58   2.0000      -0.433611       -11.7992
  59   2.0000      -0.428215       -11.6523
  60   2.0000      -0.417924       -11.3723
  61   2.0000      -0.415189       -11.2979
  62   2.0000      -0.410675       -11.1750
  63   2.0000      -0.338189        -9.2026
  64   2.0000      -0.325650        -8.8614
  65   2.0000      -0.320655        -8.7255
  66   2.0000      -0.308250        -8.3879
  67   0.0000       0.040300         1.0966
  68   0.0000       0.060128         1.6362
  69   0.0000       0.114782         3.1234
  70   0.0000       0.121609         3.3091
  71   0.0000       0.124074         3.3762

MULLIKEN ATOMIC CHARGES
-----------------------
   0 S :    0.121846
   1 C :   -0.151868
   2 C :   -0.106914
   3 C :    0.062640
   4 C :   -0.183068
   5 H :    0.005438
   6 C :    0.092163
   7 H :    0.030993
   8 H :    0.006287
   9 C :   -0.062106
  10 H :    0.042481
  11 H :    0.027375
  12 C :   -0.050998
  13 H :    0.026386
  14 H :    0.041937
  15 H :    0.015302
  16 S :    0.108560
  17 C :   -0.115422
  18 C :   -0.074274
  19 C :   -0.007547
  20 C :   -0.175594
  21 H :    0.069807
  22 C :    0.050898
  23 H :    0.020097
  24 H :    0.014738
  25 C :   -0.070716
  26 H :    0.013520
  27 H :    0.029133
  28 C :   -0.045661
  29 H :    0.026433
  30 H :    0.045785
  31 H :    0.030901
  32 H :    0.078887
  33 H :    0.082563
Sum of atomic charges:   -0.0000000

LOEWDIN ATOMIC CHARGES
----------------------
   0 S :    0.420155
   1 C :   -0.220573
   2 C :   -0.071348
   3 C :   -0.053145
   4 C :   -0.203160
   5 H :    0.032031
   6 C :   -0.038407
   7 H :    0.035461
   8 H :    0.027950
   9 C :   -0.037202
  10 H :    0.034553
  11 H :    0.026745
  12 C :   -0.070739
  13 H :    0.017672
  14 H :    0.027674
  15 H :    0.030635
  16 S :    0.404547
  17 C :   -0.188110
  18 C :   -0.087719
  19 C :   -0.056065
  20 C :   -0.207248
  21 H :    0.052960
  22 C :   -0.034277
  23 H :    0.027086
  24 H :    0.026680
  25 C :   -0.038867
  26 H :    0.016964
  27 H :    0.021877
  28 C :   -0.065918
  29 H :    0.017377
  30 H :    0.034385
  31 H :    0.027141
  32 H :    0.048914
  33 H :    0.041971

  Mayer bond orders larger than 0.100000
B(  0-S ,  1-C ) :   1.1484 B(  0-S ,  4-C ) :   1.1638 B(  1-C ,  2-C ) :   1.6110
B(  1-C , 32-H ) :   0.9496 B(  2-C ,  3-C ) :   1.2360 B(  2-C ,  6-C ) :   1.0258
B(  3-C ,  4-C ) :   1.5793 B(  3-C ,  5-H ) :   0.9958 B(  4-C , 20-C ) :   1.0059
B(  6-C ,  7-H ) :   0.9266 B(  6-C ,  8-H ) :   0.9365 B(  6-C ,  9-C ) :   1.0745
B(  9-C , 10-H ) :   0.9541 B(  9-C , 11-H ) :   0.9543 B(  9-C , 12-C ) :   1.0869
B( 12-C , 13-H ) :   0.9711 B( 12-C , 14-H ) :   0.9663 B( 12-C , 15-H ) :   0.9617
B( 16-S , 17-C ) :   1.1557 B( 16-S , 20-C ) :   1.1436 B( 17-C , 18-C ) :   1.6084
B( 17-C , 20-C ) :   0.1008 B( 17-C , 33-H ) :   0.9610 B( 18-C , 19-C ) :   1.2360
B( 18-C , 21-H ) :   0.9644 B( 19-C , 20-C ) :   1.6260 B( 19-C , 22-C ) :   1.0496
B( 22-C , 23-H ) :   0.9370 B( 22-C , 24-H ) :   0.9320 B( 22-C , 25-C ) :   1.0551
B( 25-C , 26-H ) :   0.9547 B( 25-C , 27-H ) :   0.9554 B( 25-C , 28-C ) :   1.0699
B( 28-C , 29-H ) :   0.9753 B( 28-C , 30-H ) :   0.9759 B( 28-C , 31-H ) :   0.9772

Dispersion correction           -0.014497094
FINAL SINGLE POINT ENERGY     -1339.871059543028

DIPOLE MOMENT
-------------
                                X             Y             Z
Electronic contribution:     26.17889     -12.06377      -8.10225
Nuclear contribution   :    -26.77840      12.34554       8.39727
                        -----------------------------------------
Total Dipole Moment    :     -0.59950       0.28177       0.29502
                        -----------------------------------------
Magnitude (a.u.)       :      0.72514
Magnitude (Debye)      :      1.84317

Rotational constants in cm-1:     0.016119     0.010340     0.007138
Rotational constants in MHz :   483.248716   309.978595   214.004735

                             ****ORCA TERMINATED NORMALLY****
TOTAL RUN TIME: 0 days 0 hours 0 minutes 21 seconds 953 msec
