                         Program Version 4.2.1 -  RELEASE  -
|  1> ! wB97X-D3 SP def2-SVP
|  2> %pal
|  3> nprocs 24
|  4> end
|  5>
|  6> * xyz 0 1
|  7> S 	 -56.0143 	 20.2359 	 24.2076
|  8> C 	 -56.5853 	 18.7203 	 24.7902
|  9> C 	 -57.9478 	 18.556 	 24.5344
| 10> C 	 -58.4437 	 19.5888 	 23.6813
| 11> C 	 -57.5345 	 20.5723 	 23.4831
| 12> H 	 -59.4073 	 19.5941 	 23.2232
| 13> C 	 -58.823 	 17.3866 	 25.0142
| 14> H 	 -59.2106 	 17.794 	 25.8985
| 15> H 	 -58.3318 	 16.4029 	 25.3368
| 16> C 	 -59.8784 	 16.9924 	 24.0184
| 17> H 	 -60.6594 	 17.7696 	 24.0419
| 18> H 	 -59.4113 	 17.0886 	 23.0929
| 19> C 	 -60.4025 	 15.5383 	 24.1426
| 20> H 	 -60.9479 	 15.4221 	 25.0468
| 21> H 	 -61.0648 	 15.3141 	 23.3987
| 22> H 	 -59.5138 	 14.9368 	 24.1701
| 23> S 	 -57.1702 	 23.4296 	 23.1684
| 24> C 	 -57.7428 	 24.1289 	 21.641
| 25> C 	 -58.1909 	 23.12 	 20.8014
| 26> C 	 -58.1398 	 21.7829 	 21.308
| 27> C 	 -57.6526 	 21.7531 	 22.6358
| 28> H 	 -58.5052 	 23.3787 	 19.7609
| 29> C 	 -58.4489 	 20.6398 	 20.389
| 30> H 	 -59.529 	 20.6471 	 20.207
| 31> H 	 -58.2184 	 19.7644 	 21.0213
| 32> C 	 -57.6203 	 20.4472 	 19.0566
| 33> H 	 -56.6388 	 20.3113 	 19.2745
| 34> H 	 -57.6813 	 21.3668 	 18.4695
| 35> C 	 -58.3132 	 19.4199 	 18.1702
| 36> H 	 -59.3465 	 19.7228 	 17.7921
| 37> H 	 -58.197 	 18.454 	 18.5449
| 38> H 	 -57.661 	 19.4416 	 17.2334
| 39> H 	 -55.8882 	 18.1197 	 25.353
| 40> H 	 -57.5238 	 25.2005 	 21.4103
| 41> *
| 42>
| 43>                          ****END OF INPUT****

CARTESIAN COORDINATES (ANGSTROEM)
---------------------------------
  S    -56.014300   20.235900   24.207600
  C    -56.585300   18.720300   24.790200
  C    -57.947800   18.556000   24.534400
  C    -58.443700   19.588800   23.681300
  C    -57.534500   20.572300   23.483100
  H    -59.407300   19.594100   23.223200
  C    -58.823000   17.386600   25.014200
  H    -59.210600   17.794000   25.898500
  H    -58.331800   16.402900   25.336800
  C    -59.878400   16.992400   24.018400
  H    -60.659400   17.769600   24.041900
  H    -59.411300   17.088600   23.092900
  C    -60.402500   15.538300   24.142600
  H    -60.947900   15.422100   25.046800
  H    -61.064800   15.314100   23.398700
  H    -59.513800   14.936800   24.170100
  S    -57.170200   23.429600   23.168400
  C    -57.742800   24.128900   21.641000
  C    -58.190900   23.120000   20.801400
  C    -58.139800   21.782900   21.308000
  C    -57.652600   21.753100   22.635800
  H    -58.505200   23.378700   19.760900
  C    -58.448900   20.639800   20.389000
  H    -59.529000   20.647100   20.207000
  H    -58.218400   19.764400   21.021300
  C    -57.620300   20.447200   19.056600
  H    -56.638800   20.311300   19.274500
  H    -57.681300   21.366800   18.469500
  C    -58.313200   19.419900   18.170200
  H    -59.346500   19.722800   17.792100
  H    -58.197000   18.454000   18.544900
  H    -57.661000   19.441600   17.233400
  H    -55.888200   18.119700   25.353000
  H    -57.523800   25.200500   21.410300

 Total Charge           Charge          ....    0
 Multiplicity           Mult            ....    1
 Number of Electrons    NEL             ....  134
 Basis Dimension        Dim             ....  322

ORBITAL ENERGIES
----------------

  NO   OCC          E(Eh)            E(eV)
   0   2.0000     -88.964241     -2420.8401
   1   2.0000     -88.962284     -2420.7868
   2   2.0000     -10.332425      -281.1596
   3   2.0000     -10.323102      -280.9059
   4   2.0000     -10.323017      -280.9036
   5   2.0000     -10.311663      -280.5946
   6   2.0000     -10.305721      -280.4329
   7   2.0000     -10.303039      -280.3599
   8   2.0000     -10.295893      -280.1655
   9   2.0000     -10.291158      -280.0366
  10   2.0000     -10.291132      -280.0359
  11   2.0000     -10.290448      -280.0173
  12   2.0000     -10.285040      -279.8702
  13   2.0000     -10.283319      -279.8233
  14   2.0000     -10.279663      -279.7238
  15   2.0000     -10.271263      -279.4953
  16   2.0000      -8.078563      -219.8289
  17   2.0000      -8.077464      -219.7990
  18   2.0000      -6.036816      -164.2701
  19   2.0000      -6.036187      -164.2530
  20   2.0000      -6.032839      -164.1619
  21   2.0000      -6.032171      -164.1437
  22   2.0000      -6.029524      -164.0717
  23   2.0000      -6.028119      -164.0335
  24   2.0000      -1.008798       -27.4508
  25   2.0000      -0.975909       -26.5558
  26   2.0000      -0.917552       -24.9679
  27   2.0000      -0.905506       -24.6401
  28   2.0000      -0.868187       -23.6246
  29   2.0000      -0.855071       -23.2677
  30   2.0000      -0.846849       -23.0439
  31   2.0000      -0.811925       -22.0936
  32   2.0000      -0.784663       -21.3518
  33   2.0000      -0.768190       -20.9035
  34   2.0000      -0.712668       -19.3927
  35   2.0000      -0.703227       -19.1358
  36   2.0000      -0.689291       -18.7566
  37   2.0000      -0.653216       -17.7749
  38   2.0000      -0.644138       -17.5279
  39   2.0000      -0.625586       -17.0230
  40   2.0000      -0.592704       -16.1283
  41   2.0000      -0.577499       -15.7146
  42   2.0000      -0.572043       -15.5661
  43   2.0000      -0.557836       -15.1795
  44   2.0000      -0.529217       -14.4007
  45   2.0000      -0.524563       -14.2741
  46   2.0000      -0.516274       -14.0485
  47   2.0000      -0.513299       -13.9676
  48   2.0000      -0.506363       -13.7788
  49   2.0000      -0.494549       -13.4574
  50   2.0000      -0.489377       -13.3166
  51   2.0000      -0.484095       -13.1729
  52   2.0000      -0.470732       -12.8093
  53   2.0000      -0.464734       -12.6460
  54   2.0000      -0.463696       -12.6178
  55   2.0000      -0.452500       -12.3131
  56   2.0000      -0.446898       -12.1607
  57   2.0000      -0.437651       -11.9091
  58   2.0000      -0.434899       -11.8342
  59   2.0000      -0.426553       -11.6071
  60   2.0000      -0.415359       -11.3025
  61   2.0000      -0.412482       -11.2242
  62   2.0000      -0.411042       -11.1850
  63   2.0000      -0.345578        -9.4037
  64   2.0000      -0.332115        -9.0373
  65   2.0000      -0.327729        -8.9180
  66   2.0000      -0.288562        -7.8522
  67   0.0000       0.030381         0.8267
  68   0.0000       0.071289         1.9399
  69   0.0000       0.114736         3.1221
  70   0.0000       0.127263         3.4630
  71   0.0000       0.132509         3.6058

MULLIKEN ATOMIC CHARGES
-----------------------
   0 S :    0.112142
   1 C :   -0.139549
   2 C :   -0.084330
   3 C :    0.009009
   4 C :   -0.144242
   5 H :    0.009429
   6 C :    0.077897
   7 H :    0.028531
   8 H :    0.026650
   9 C :   -0.118752
  10 H :    0.032563
  11 H :    0.019797
  12 C :    0.030064
  13 H :    0.020760
  14 H :    0.017747
  15 H :    0.029934
  16 S :    0.086559
  17 C :   -0.120220
  18 C :   -0.041444
  19 C :   -0.033991
  20 C :   -0.143736
  21 H :    0.032779
  22 C :    0.036698
  23 H :    0.033993
  24 H :    0.029647
  25 C :   -0.027975
  26 H :    0.017540
  27 H :    0.019608
  28 C :   -0.064390
  29 H :    0.052899
  30 H :    0.029969
  31 H :    0.033681
  32 H :    0.047513
  33 H :    0.083218
Sum of atomic charges:    0.0000000

LOEWDIN ATOMIC CHARGES
----------------------
   0 S :    0.430204
   1 C :   -0.204080
   2 C :   -0.054869
   3 C :   -0.063332
   4 C :   -0.200638
   5 H :    0.030930
   6 C :   -0.032017
   7 H :    0.027114
   8 H :    0.035668
   9 C :   -0.041971
  10 H :    0.022802
  11 H :    0.015475
  12 C :   -0.044656
  13 H :    0.022922
  14 H :    0.016367
  15 H :    0.025913
  16 S :    0.359192
  17 C :   -0.186479
  18 C :   -0.076374
  19 C :   -0.059629
  20 C :   -0.182171
  21 H :    0.035574
  22 C :   -0.039731
  23 H :    0.032382
  24 H :    0.032867
  25 C :   -0.024365
  26 H :    0.013784
  27 H :    0.022774
  28 C :   -0.064580
  29 H :    0.037201
  30 H :    0.014458
  31 H :    0.035372
  32 H :    0.023195
  33 H :    0.040695

  Mayer bond orders larger than 0.100000
B(  0-S ,  1-C ) :   1.1537 B(  0-S ,  4-C ) :   1.1734 B(  1-C ,  2-C ) :   1.5922
B(  1-C , 32-H ) :   0.9797 B(  2-C ,  3-C ) :   1.2422 B(  2-C ,  6-C ) :   0.9966
B(  3-C ,  4-C ) :   1.5607 B(  3-C ,  5-H ) :   1.0048 B(  4-C , 20-C ) :   1.0298
B(  6-C ,  7-H ) :   0.9260 B(  6-C ,  8-H ) :   0.9536 B(  6-C ,  9-C ) :   1.0684
B(  9-C , 10-H ) :   0.9397 B(  9-C , 11-H ) :   0.9656 B(  9-C , 12-C ) :   1.0845
B( 12-C , 13-H ) :   0.9740 B( 12-C , 14-H ) :   0.9718 B( 12-C , 15-H ) :   0.9727
B( 16-S , 17-C ) :   1.1393 B( 16-S , 20-C ) :   1.1239 B( 17-C , 18-C ) :   1.6099
B( 17-C , 20-C ) :   0.1027 B( 17-C , 33-H ) :   0.9623 B( 18-C , 19-C ) :   1.2374
B( 18-C , 21-H ) :   0.9807 B( 19-C , 20-C ) :   1.5817 B( 19-C , 22-C ) :   1.0478
B( 22-C , 23-H ) :   0.9328 B( 22-C , 24-H ) :   0.9283 B( 22-C , 25-C ) :   1.0585
B( 25-C , 26-H ) :   0.9572 B( 25-C , 27-H ) :   0.9567 B( 25-C , 28-C ) :   1.0811
B( 28-C , 29-H ) :   0.9727 B( 28-C , 30-H ) :   0.9781 B( 28-C , 31-H ) :   0.9723

Dispersion correction           -0.013654417
FINAL SINGLE POINT ENERGY     -1339.860840427001

DIPOLE MOMENT
-------------
                                X             Y             Z
Electronic contribution:     14.79233      23.17084      13.88918
Nuclear contribution   :    -15.09835     -23.68525     -14.31658
                        -----------------------------------------
Total Dipole Moment    :     -0.30602      -0.51441      -0.42740
                        -----------------------------------------
Magnitude (a.u.)       :      0.73548
Magnitude (Debye)      :      1.86945

Rotational constants in cm-1:     0.016409     0.008846     0.006601
Rotational constants in MHz :   491.937308   265.197016   197.895150

                             ****ORCA TERMINATED NORMALLY****
TOTAL RUN TIME: 0 days 0 hours 0 minutes 20 seconds 267 msec
