                         Program Version 4.2.1 -  RELEASE  -
|  1> ! wB97X-D3 SP def2-SVP
|  2> %pal
|  3> nprocs 24
|  4> end
|  5>
|  6> * xyz 0 1
|  7> S 	 -112.874 	 56.6144 	 -37.7838
|  8> C 	 -112.349 	 55.0247 	 -38.539
|  9> C 	 -113.146 	 54.6376 	 -39.5736
| 10> C 	 -114.353 	 55.4026 	 -39.6348
| 11> C 	 -114.34 	 56.5568 	 -38.801
| 12> H 	 -115.164 	 55.2705 	 -40.2215
| 13> C 	 -112.955 	 53.4037 	 -40.4432
| 14> H 	 -112.97 	 52.4794 	 -39.7671
| 15> H 	 -111.935 	 53.3109 	 -40.9177
| 16> C 	 -113.962 	 53.1887 	 -41.573
| 17> H 	 -113.802 	 52.2339 	 -41.9828
| 18> H 	 -114.901 	 53.1171 	 -41.105
| 19> C 	 -114.004 	 54.3579 	 -42.5761
| 20> H 	 -115.028 	 54.5407 	 -42.6118
| 21> H 	 -113.475 	 55.2259 	 -42.2693
| 22> H 	 -113.723 	 53.9904 	 -43.5319
| 23> S 	 -116.214 	 57.4878 	 -37.1697
| 24> C 	 -117.397 	 58.6183 	 -37.747
| 25> C 	 -117.198 	 58.9666 	 -39.0667
| 26> C 	 -116.076 	 58.3312 	 -39.6714
| 27> C 	 -115.458 	 57.5045 	 -38.6966
| 28> H 	 -117.832 	 59.7187 	 -39.5297
| 29> C 	 -115.665 	 58.4499 	 -41.1675
| 30> H 	 -114.689 	 57.9463 	 -41.2046
| 31> H 	 -115.529 	 59.5667 	 -41.3693
| 32> C 	 -116.686 	 57.8644 	 -42.2048
| 33> H 	 -117.544 	 58.4915 	 -42.2299
| 34> H 	 -116.928 	 56.8781 	 -41.794
| 35> C 	 -115.944 	 57.8702 	 -43.5189
| 36> H 	 -115.343 	 56.9546 	 -43.5133
| 37> H 	 -115.261 	 58.7437 	 -43.5717
| 38> H 	 -116.604 	 57.9802 	 -44.3811
| 39> H 	 -111.513 	 54.4217 	 -38.1942
| 40> H 	 -118.243 	 58.9478 	 -37.1851
| 41> *
| 42>
| 43>                          ****END OF INPUT****

CARTESIAN COORDINATES (ANGSTROEM)
---------------------------------
  S    -112.874000   56.614400  -37.783800
  C    -112.349000   55.024700  -38.539000
  C    -113.146000   54.637600  -39.573600
  C    -114.353000   55.402600  -39.634800
  C    -114.340000   56.556800  -38.801000
  H    -115.164000   55.270500  -40.221500
  C    -112.955000   53.403700  -40.443200
  H    -112.970000   52.479400  -39.767100
  H    -111.935000   53.310900  -40.917700
  C    -113.962000   53.188700  -41.573000
  H    -113.802000   52.233900  -41.982800
  H    -114.901000   53.117100  -41.105000
  C    -114.004000   54.357900  -42.576100
  H    -115.028000   54.540700  -42.611800
  H    -113.475000   55.225900  -42.269300
  H    -113.723000   53.990400  -43.531900
  S    -116.214000   57.487800  -37.169700
  C    -117.397000   58.618300  -37.747000
  C    -117.198000   58.966600  -39.066700
  C    -116.076000   58.331200  -39.671400
  C    -115.458000   57.504500  -38.696600
  H    -117.832000   59.718700  -39.529700
  C    -115.665000   58.449900  -41.167500
  H    -114.689000   57.946300  -41.204600
  H    -115.529000   59.566700  -41.369300
  C    -116.686000   57.864400  -42.204800
  H    -117.544000   58.491500  -42.229900
  H    -116.928000   56.878100  -41.794000
  C    -115.944000   57.870200  -43.518900
  H    -115.343000   56.954600  -43.513300
  H    -115.261000   58.743700  -43.571700
  H    -116.604000   57.980200  -44.381100
  H    -111.513000   54.421700  -38.194200
  H    -118.243000   58.947800  -37.185100

 Total Charge           Charge          ....    0
 Multiplicity           Mult            ....    1
 Number of Electrons    NEL             ....  134
 Basis Dimension        Dim             ....  322

ORBITAL ENERGIES
----------------

  NO   OCC          E(Eh)            E(eV)
   0   2.0000     -88.968977     -2420.9689
   1   2.0000     -88.966793     -2420.9095
   2   2.0000     -10.333487      -281.1885
   3   2.0000     -10.323490      -280.9164
   4   2.0000     -10.316614      -280.7293
   5   2.0000     -10.311498      -280.5901
   6   2.0000     -10.306351      -280.4501
   7   2.0000     -10.302861      -280.3551
   8   2.0000     -10.300498      -280.2908
   9   2.0000     -10.300007      -280.2774
  10   2.0000     -10.292279      -280.0672
  11   2.0000     -10.290590      -280.0212
  12   2.0000     -10.286723      -279.9160
  13   2.0000     -10.279570      -279.7213
  14   2.0000     -10.278710      -279.6979
  15   2.0000     -10.268591      -279.4226
  16   2.0000      -8.082605      -219.9389
  17   2.0000      -8.081603      -219.9116
  18   2.0000      -6.040830      -164.3793
  19   2.0000      -6.040232      -164.3631
  20   2.0000      -6.036996      -164.2750
  21   2.0000      -6.036563      -164.2632
  22   2.0000      -6.033552      -164.1813
  23   2.0000      -6.032205      -164.1447
  24   2.0000      -1.004372       -27.3304
  25   2.0000      -0.975932       -26.5565
  26   2.0000      -0.913929       -24.8693
  27   2.0000      -0.909241       -24.7417
  28   2.0000      -0.869344       -23.6560
  29   2.0000      -0.852499       -23.1977
  30   2.0000      -0.841028       -22.8855
  31   2.0000      -0.812209       -22.1013
  32   2.0000      -0.785206       -21.3665
  33   2.0000      -0.767433       -20.8829
  34   2.0000      -0.707112       -19.2415
  35   2.0000      -0.700095       -19.0506
  36   2.0000      -0.694319       -18.8934
  37   2.0000      -0.657809       -17.8999
  38   2.0000      -0.639845       -17.4111
  39   2.0000      -0.622931       -16.9508
  40   2.0000      -0.593012       -16.1367
  41   2.0000      -0.575586       -15.6625
  42   2.0000      -0.565935       -15.3999
  43   2.0000      -0.550715       -14.9857
  44   2.0000      -0.537454       -14.6249
  45   2.0000      -0.523276       -14.2391
  46   2.0000      -0.517399       -14.0791
  47   2.0000      -0.511750       -13.9254
  48   2.0000      -0.505961       -13.7679
  49   2.0000      -0.500231       -13.6120
  50   2.0000      -0.485791       -13.2190
  51   2.0000      -0.482239       -13.1224
  52   2.0000      -0.468455       -12.7473
  53   2.0000      -0.466277       -12.6880
  54   2.0000      -0.457920       -12.4606
  55   2.0000      -0.450772       -12.2661
  56   2.0000      -0.447540       -12.1782
  57   2.0000      -0.436593       -11.8803
  58   2.0000      -0.431851       -11.7513
  59   2.0000      -0.426919       -11.6170
  60   2.0000      -0.423421       -11.5219
  61   2.0000      -0.418693       -11.3932
  62   2.0000      -0.415607       -11.3092
  63   2.0000      -0.340255        -9.2588
  64   2.0000      -0.330813        -9.0019
  65   2.0000      -0.323864        -8.8128
  66   2.0000      -0.293626        -7.9900
  67   0.0000       0.031259         0.8506
  68   0.0000       0.064910         1.7663
  69   0.0000       0.104447         2.8422
  70   0.0000       0.118518         3.2250
  71   0.0000       0.124246         3.3809

MULLIKEN ATOMIC CHARGES
-----------------------
   0 S :    0.102846
   1 C :   -0.140022
   2 C :   -0.026121
   3 C :    0.069411
   4 C :   -0.163227
   5 H :   -0.045023
   6 C :   -0.008061
   7 H :    0.046245
   8 H :    0.041397
   9 C :   -0.046379
  10 H :    0.015961
  11 H :    0.014839
  12 C :   -0.022219
  13 H :    0.018398
  14 H :    0.053156
  15 H :    0.027927
  16 S :    0.133580
  17 C :   -0.085580
  18 C :   -0.044675
  19 C :   -0.013617
  20 C :   -0.201454
  21 H :    0.017692
  22 C :   -0.003309
  23 H :    0.037638
  24 H :    0.045003
  25 C :   -0.045663
  26 H :    0.023576
  27 H :    0.036162
  28 C :   -0.036336
  29 H :    0.038524
  30 H :    0.031891
  31 H :    0.034206
  32 H :    0.047212
  33 H :    0.046022
Sum of atomic charges:   -0.0000000

LOEWDIN ATOMIC CHARGES
----------------------
   0 S :    0.357393
   1 C :   -0.170396
   2 C :   -0.063468
   3 C :   -0.047647
   4 C :   -0.184739
   5 H :    0.008419
   6 C :   -0.040589
   7 H :    0.040357
   8 H :    0.034601
   9 C :   -0.034914
  10 H :    0.021376
  11 H :    0.014469
  12 C :   -0.055298
  13 H :    0.020822
  14 H :    0.025429
  15 H :    0.025510
  16 S :    0.443755
  17 C :   -0.191821
  18 C :   -0.071807
  19 C :   -0.056423
  20 C :   -0.221997
  21 H :    0.031528
  22 C :   -0.032826
  23 H :    0.030253
  24 H :    0.037454
  25 C :   -0.034011
  26 H :    0.017888
  27 H :    0.023843
  28 C :   -0.064377
  29 H :    0.030884
  30 H :    0.028925
  31 H :    0.024621
  32 H :    0.029340
  33 H :    0.023449

  Mayer bond orders larger than 0.100000
B(  0-S ,  1-C ) :   1.1114 B(  0-S ,  4-C ) :   1.1383 B(  1-C ,  2-C ) :   1.6519
B(  1-C , 32-H ) :   0.9693 B(  2-C ,  3-C ) :   1.2087 B(  2-C ,  6-C ) :   1.0032
B(  3-C ,  4-C ) :   1.5816 B(  3-C ,  5-H ) :   0.9994 B(  4-C , 20-C ) :   1.0220
B(  6-C ,  7-H ) :   0.9386 B(  6-C ,  8-H ) :   0.9443 B(  6-C ,  9-C ) :   1.0970
B(  9-C , 10-H ) :   0.9492 B(  9-C , 11-H ) :   0.9581 B(  9-C , 12-C ) :   1.0469
B( 12-C , 13-H ) :   0.9750 B( 12-C , 14-H ) :   0.9819 B( 12-C , 15-H ) :   0.9739
B( 16-S , 17-C ) :   1.1584 B( 16-S , 20-C ) :   1.1848 B( 17-C , 18-C ) :   1.6015
B( 17-C , 33-H ) :   0.9708 B( 18-C , 19-C ) :   1.2534 B( 18-C , 21-H ) :   0.9900
B( 19-C , 20-C ) :   1.5577 B( 19-C , 22-C ) :   1.0340 B( 22-C , 23-H ) :   0.9402
B( 22-C , 24-H ) :   0.9303 B( 22-C , 25-C ) :   1.0559 B( 25-C , 26-H ) :   0.9516
B( 25-C , 27-H ) :   0.9611 B( 25-C , 28-C ) :   1.0751 B( 28-C , 29-H ) :   0.9754
B( 28-C , 30-H ) :   0.9685 B( 28-C , 31-H ) :   0.9727

Dispersion correction           -0.015720033
FINAL SINGLE POINT ENERGY     -1339.859909654903

DIPOLE MOMENT
-------------
                                X             Y             Z
Electronic contribution:      2.50550       7.71120      29.88607
Nuclear contribution   :     -2.78963      -7.99382     -30.51681
                        -----------------------------------------
Total Dipole Moment    :     -0.28413      -0.28262      -0.63074
                        -----------------------------------------
Magnitude (a.u.)       :      0.74729
Magnitude (Debye)      :      1.89946

Rotational constants in cm-1:     0.015629     0.011469     0.007461
Rotational constants in MHz :   468.534024   343.824534   223.689398

                             ****ORCA TERMINATED NORMALLY****
TOTAL RUN TIME: 0 days 0 hours 0 minutes 23 seconds 120 msec
