                         Program Version 4.2.1 -  RELEASE  -
|  1> ! wB97X-D3 SP def2-SVP
|  2> %pal
|  3> nprocs 24
|  4> end
|  5>
|  6> * xyz 0 1
|  7> S 	 -34.1439 	 -34.6481 	 -90.9283
|  8> C 	 -35.5106 	 -33.8064 	 -90.2046
|  9> C 	 -35.1701 	 -33.0828 	 -89.0853
| 10> C 	 -33.7551 	 -33.0929 	 -88.8375
| 11> C 	 -33.0208 	 -33.7938 	 -89.8034
| 12> H 	 -33.2652 	 -32.7306 	 -87.9586
| 13> C 	 -36.0596 	 -32.3006 	 -88.2996
| 14> H 	 -35.6449 	 -32.2043 	 -87.3101
| 15> H 	 -36.9572 	 -32.9366 	 -88.0693
| 16> C 	 -36.4484 	 -30.9735 	 -89.0547
| 17> H 	 -36.8496 	 -31.2744 	 -90.0087
| 18> H 	 -37.3635 	 -30.5572 	 -88.5792
| 19> C 	 -35.2701 	 -30.0494 	 -89.1358
| 20> H 	 -34.2775 	 -30.5343 	 -89.2958
| 21> H 	 -35.6616 	 -29.2422 	 -89.8262
| 22> H 	 -35.1841 	 -29.7468 	 -88.1283
| 23> S 	 -31.0388 	 -35.7074 	 -89.4744
| 24> C 	 -29.4074 	 -35.1634 	 -89.3865
| 25> C 	 -29.2654 	 -33.8169 	 -89.5803
| 26> C 	 -30.525 	 -33.1596 	 -89.7957
| 27> C 	 -31.6257 	 -34.0419 	 -89.7559
| 28> H 	 -28.3588 	 -33.2665 	 -89.455
| 29> C 	 -30.4956 	 -31.6929 	 -90.0225
| 30> H 	 -31.2267 	 -31.4569 	 -90.7661
| 31> H 	 -29.4909 	 -31.4615 	 -90.4355
| 32> C 	 -30.7345 	 -30.8707 	 -88.7174
| 33> H 	 -30.2129 	 -31.2483 	 -87.8342
| 34> H 	 -31.7778 	 -30.8731 	 -88.4692
| 35> C 	 -30.3706 	 -29.395 	 -88.8622
| 36> H 	 -30.7273 	 -28.947 	 -89.7364
| 37> H 	 -29.2905 	 -29.1907 	 -88.8801
| 38> H 	 -30.884 	 -28.8074 	 -88.0868
| 39> H 	 -36.4555 	 -33.8174 	 -90.5881
| 40> H 	 -28.5088 	 -35.7331 	 -89.2432
| 41> *
| 42>
| 43>                          ****END OF INPUT****

CARTESIAN COORDINATES (ANGSTROEM)
---------------------------------
  S    -34.143900  -34.648100  -90.928300
  C    -35.510600  -33.806400  -90.204600
  C    -35.170100  -33.082800  -89.085300
  C    -33.755100  -33.092900  -88.837500
  C    -33.020800  -33.793800  -89.803400
  H    -33.265200  -32.730600  -87.958600
  C    -36.059600  -32.300600  -88.299600
  H    -35.644900  -32.204300  -87.310100
  H    -36.957200  -32.936600  -88.069300
  C    -36.448400  -30.973500  -89.054700
  H    -36.849600  -31.274400  -90.008700
  H    -37.363500  -30.557200  -88.579200
  C    -35.270100  -30.049400  -89.135800
  H    -34.277500  -30.534300  -89.295800
  H    -35.661600  -29.242200  -89.826200
  H    -35.184100  -29.746800  -88.128300
  S    -31.038800  -35.707400  -89.474400
  C    -29.407400  -35.163400  -89.386500
  C    -29.265400  -33.816900  -89.580300
  C    -30.525000  -33.159600  -89.795700
  C    -31.625700  -34.041900  -89.755900
  H    -28.358800  -33.266500  -89.455000
  C    -30.495600  -31.692900  -90.022500
  H    -31.226700  -31.456900  -90.766100
  H    -29.490900  -31.461500  -90.435500
  C    -30.734500  -30.870700  -88.717400
  H    -30.212900  -31.248300  -87.834200
  H    -31.777800  -30.873100  -88.469200
  C    -30.370600  -29.395000  -88.862200
  H    -30.727300  -28.947000  -89.736400
  H    -29.290500  -29.190700  -88.880100
  H    -30.884000  -28.807400  -88.086800
  H    -36.455500  -33.817400  -90.588100
  H    -28.508800  -35.733100  -89.243200

 Total Charge           Charge          ....    0
 Multiplicity           Mult            ....    1
 Number of Electrons    NEL             ....  134
 Basis Dimension        Dim             ....  322

ORBITAL ENERGIES
----------------

  NO   OCC          E(Eh)            E(eV)
   0   2.0000     -88.966405     -2420.8990
   1   2.0000     -88.965480     -2420.8738
   2   2.0000     -10.330925      -281.1188
   3   2.0000     -10.324914      -280.9552
   4   2.0000     -10.312617      -280.6206
   5   2.0000     -10.307125      -280.4711
   6   2.0000     -10.301132      -280.3080
   7   2.0000     -10.295756      -280.1618
   8   2.0000     -10.293226      -280.0929
   9   2.0000     -10.290246      -280.0118
  10   2.0000     -10.289854      -280.0012
  11   2.0000     -10.286598      -279.9126
  12   2.0000     -10.286543      -279.9111
  13   2.0000     -10.286533      -279.9108
  14   2.0000     -10.280199      -279.7384
  15   2.0000     -10.272829      -279.5379
  16   2.0000      -8.080113      -219.8711
  17   2.0000      -8.080036      -219.8690
  18   2.0000      -6.038718      -164.3219
  19   2.0000      -6.038650      -164.3200
  20   2.0000      -6.034818      -164.2158
  21   2.0000      -6.034568      -164.2089
  22   2.0000      -6.030789      -164.1061
  23   2.0000      -6.030699      -164.1037
  24   2.0000      -1.001865       -27.2621
  25   2.0000      -0.981552       -26.7094
  26   2.0000      -0.920060       -25.0361
  27   2.0000      -0.909403       -24.7461
  28   2.0000      -0.872311       -23.7368
  29   2.0000      -0.853962       -23.2375
  30   2.0000      -0.849907       -23.1271
  31   2.0000      -0.815743       -22.1975
  32   2.0000      -0.782663       -21.2973
  33   2.0000      -0.767175       -20.8759
  34   2.0000      -0.715157       -19.4604
  35   2.0000      -0.706849       -19.2343
  36   2.0000      -0.696536       -18.9537
  37   2.0000      -0.662759       -18.0346
  38   2.0000      -0.646083       -17.5808
  39   2.0000      -0.611868       -16.6498
  40   2.0000      -0.593890       -16.1606
  41   2.0000      -0.575257       -15.6535
  42   2.0000      -0.565213       -15.3802
  43   2.0000      -0.558197       -15.1893
  44   2.0000      -0.537571       -14.6281
  45   2.0000      -0.524577       -14.2745
  46   2.0000      -0.521892       -14.2014
  47   2.0000      -0.510266       -13.8850
  48   2.0000      -0.509620       -13.8675
  49   2.0000      -0.503531       -13.7018
  50   2.0000      -0.496471       -13.5097
  51   2.0000      -0.481963       -13.1149
  52   2.0000      -0.470572       -12.8049
  53   2.0000      -0.464906       -12.6507
  54   2.0000      -0.455806       -12.4031
  55   2.0000      -0.449496       -12.2314
  56   2.0000      -0.437449       -11.9036
  57   2.0000      -0.436496       -11.8777
  58   2.0000      -0.433290       -11.7904
  59   2.0000      -0.425956       -11.5909
  60   2.0000      -0.422152       -11.4873
  61   2.0000      -0.418930       -11.3997
  62   2.0000      -0.414753       -11.2860
  63   2.0000      -0.342382        -9.3167
  64   2.0000      -0.327800        -8.9199
  65   2.0000      -0.325356        -8.8534
  66   2.0000      -0.290109        -7.8943
  67   0.0000       0.027780         0.7559
  68   0.0000       0.059828         1.6280
  69   0.0000       0.110088         2.9957
  70   0.0000       0.123622         3.3639
  71   0.0000       0.124854         3.3975

MULLIKEN ATOMIC CHARGES
-----------------------
   0 S :    0.105159
   1 C :   -0.078278
   2 C :   -0.083398
   3 C :    0.025592
   4 C :   -0.171032
   5 H :    0.019710
   6 C :    0.032766
   7 H :    0.013041
   8 H :    0.029960
   9 C :   -0.051570
  10 H :    0.011228
  11 H :    0.029984
  12 C :   -0.030077
  13 H :    0.057675
  14 H :    0.056197
  15 H :    0.011648
  16 S :    0.115800
  17 C :   -0.063857
  18 C :   -0.037141
  19 C :   -0.047970
  20 C :   -0.168625
  21 H :    0.011175
  22 C :    0.088670
  23 H :    0.029679
  24 H :    0.021725
  25 C :   -0.066734
  26 H :    0.030771
  27 H :    0.014289
  28 C :   -0.031670
  29 H :    0.008024
  30 H :    0.033145
  31 H :    0.028770
  32 H :    0.007372
  33 H :    0.047972
Sum of atomic charges:   -0.0000000

LOEWDIN ATOMIC CHARGES
----------------------
   0 S :    0.380028
   1 C :   -0.171842
   2 C :   -0.066425
   3 C :   -0.050716
   4 C :   -0.183021
   5 H :    0.028277
   6 C :   -0.044471
   7 H :    0.026312
   8 H :    0.037659
   9 C :   -0.032508
  10 H :    0.014917
  11 H :    0.026056
  12 C :   -0.069628
  13 H :    0.034887
  14 H :    0.041855
  15 H :    0.020935
  16 S :    0.403938
  17 C :   -0.188367
  18 C :   -0.074436
  19 C :   -0.046289
  20 C :   -0.202734
  21 H :    0.027712
  22 C :   -0.027992
  23 H :    0.031563
  24 H :    0.033244
  25 C :   -0.035049
  26 H :    0.026147
  27 H :    0.018547
  28 C :   -0.066048
  29 H :    0.015235
  30 H :    0.024866
  31 H :    0.029774
  32 H :    0.007472
  33 H :    0.030101

  Mayer bond orders larger than 0.100000
B(  0-S ,  1-C ) :   1.1301 B(  0-S ,  4-C ) :   1.1305 B(  1-C ,  2-C ) :   1.6105
B(  1-C , 32-H ) :   0.9762 B(  2-C ,  3-C ) :   1.2236 B(  2-C ,  6-C ) :   1.0506
B(  3-C ,  4-C ) :   1.5696 B(  3-C ,  5-H ) :   0.9879 B(  4-C , 20-C ) :   1.0846
B(  6-C ,  7-H ) :   0.9404 B(  6-C ,  8-H ) :   0.9264 B(  6-C ,  9-C ) :   1.0562
B(  9-C , 10-H ) :   0.9580 B(  9-C , 11-H ) :   0.9554 B(  9-C , 12-C ) :   1.0541
B( 12-C , 13-H ) :   0.9710 B( 12-C , 14-H ) :   0.9684 B( 12-C , 15-H ) :   0.9716
B( 16-S , 17-C ) :   1.1588 B( 16-S , 20-C ) :   1.1168 B( 17-C , 18-C ) :   1.6151
B( 17-C , 33-H ) :   0.9618 B( 18-C , 19-C ) :   1.2531 B( 18-C , 21-H ) :   0.9874
B( 19-C , 20-C ) :   1.5840 B( 19-C , 22-C ) :   1.0578 B( 22-C , 23-H ) :   0.9205
B( 22-C , 24-H ) :   0.9404 B( 22-C , 25-C ) :   1.0562 B( 25-C , 26-H ) :   0.9593
B( 25-C , 27-H ) :   0.9480 B( 25-C , 28-C ) :   1.0889 B( 28-C , 29-H ) :   0.9692
B( 28-C , 30-H ) :   0.9764 B( 28-C , 31-H ) :   0.9730

Dispersion correction           -0.015456115
FINAL SINGLE POINT ENERGY     -1339.864947104309

DIPOLE MOMENT
-------------
                                X             Y             Z
Electronic contribution:      3.59311     -29.49719      -7.97050
Nuclear contribution   :     -3.66693      30.14196       8.32829
                        -----------------------------------------
Total Dipole Moment    :     -0.07382       0.64477       0.35779
                        -----------------------------------------
Magnitude (a.u.)       :      0.74108
Magnitude (Debye)      :      1.88367

Rotational constants in cm-1:     0.017270     0.010608     0.007145
Rotational constants in MHz :   517.751674   318.032518   214.214900

                             ****ORCA TERMINATED NORMALLY****
TOTAL RUN TIME: 0 days 0 hours 0 minutes 22 seconds 986 msec
