                         Program Version 4.2.1 -  RELEASE  -
|  1> ! wB97X-D3 SP def2-SVP
|  2> %pal
|  3> nprocs 24
|  4> end
|  5>
|  6> * xyz 0 1
|  7> S 	 -33.8011 	 -11.2862 	 13.4258
|  8> C 	 -34.6491 	 -10.3661 	 14.597
|  9> C 	 -35.746 	 -9.62026 	 14.0887
| 10> C 	 -35.8442 	 -9.82715 	 12.6622
| 11> C 	 -34.7854 	 -10.5641 	 12.1317
| 12> H 	 -36.633 	 -9.41115 	 12.0406
| 13> C 	 -36.784 	 -8.91807 	 14.9232
| 14> H 	 -37.2644 	 -9.78161 	 15.4249
| 15> H 	 -37.5414 	 -8.43116 	 14.287
| 16> C 	 -36.0918 	 -8.03391 	 15.9464
| 17> H 	 -36.8431 	 -7.72937 	 16.6914
| 18> H 	 -35.4372 	 -8.60065 	 16.5991
| 19> C 	 -35.2636 	 -6.79714 	 15.42
| 20> H 	 -34.2928 	 -7.0338 	 15.016
| 21> H 	 -35.7648 	 -6.18699 	 14.6165
| 22> H 	 -35.0464 	 -6.14235 	 16.2999
| 23> S 	 -34.0198 	 -12.5245 	 10.3948
| 24> C 	 -33.946 	 -12.1046 	 8.66939
| 25> C 	 -34.1734 	 -10.7603 	 8.43984
| 26> C 	 -34.5313 	 -10.0726 	 9.66359
| 27> C 	 -34.5469 	 -10.9109 	 10.7523
| 28> H 	 -34.055 	 -10.4297 	 7.41281
| 29> C 	 -34.8042 	 -8.61171 	 9.62125
| 30> H 	 -35.4661 	 -8.37826 	 10.4015
| 31> H 	 -35.2395 	 -8.18901 	 8.72285
| 32> C 	 -33.516 	 -7.75954 	 9.6247
| 33> H 	 -32.7603 	 -8.05299 	 8.90482
| 34> H 	 -33.0098 	 -8.01517 	 10.5443
| 35> C 	 -33.7465 	 -6.17198 	 9.71524
| 36> H 	 -33.0687 	 -5.58501 	 9.23105
| 37> H 	 -33.8766 	 -5.73355 	 10.7152
| 38> H 	 -34.7342 	 -5.93841 	 9.24616
| 39> H 	 -34.5311 	 -10.4918 	 15.673
| 40> H 	 -33.7707 	 -12.8147 	 7.88304
| 41> *
| 42>
| 43>                          ****END OF INPUT****

CARTESIAN COORDINATES (ANGSTROEM)
---------------------------------
  S    -33.801100  -11.286200   13.425800
  C    -34.649100  -10.366100   14.597000
  C    -35.746000   -9.620260   14.088700
  C    -35.844200   -9.827150   12.662200
  C    -34.785400  -10.564100   12.131700
  H    -36.633000   -9.411150   12.040600
  C    -36.784000   -8.918070   14.923200
  H    -37.264400   -9.781610   15.424900
  H    -37.541400   -8.431160   14.287000
  C    -36.091800   -8.033910   15.946400
  H    -36.843100   -7.729370   16.691400
  H    -35.437200   -8.600650   16.599100
  C    -35.263600   -6.797140   15.420000
  H    -34.292800   -7.033800   15.016000
  H    -35.764800   -6.186990   14.616500
  H    -35.046400   -6.142350   16.299900
  S    -34.019800  -12.524500   10.394800
  C    -33.946000  -12.104600    8.669390
  C    -34.173400  -10.760300    8.439840
  C    -34.531300  -10.072600    9.663590
  C    -34.546900  -10.910900   10.752300
  H    -34.055000  -10.429700    7.412810
  C    -34.804200   -8.611710    9.621250
  H    -35.466100   -8.378260   10.401500
  H    -35.239500   -8.189010    8.722850
  C    -33.516000   -7.759540    9.624700
  H    -32.760300   -8.052990    8.904820
  H    -33.009800   -8.015170   10.544300
  C    -33.746500   -6.171980    9.715240
  H    -33.068700   -5.585010    9.231050
  H    -33.876600   -5.733550   10.715200
  H    -34.734200   -5.938410    9.246160
  H    -34.531100  -10.491800   15.673000
  H    -33.770700  -12.814700    7.883040

 Total Charge           Charge          ....    0
 Multiplicity           Mult            ....    1
 Number of Electrons    NEL             ....  134
 Basis Dimension        Dim             ....  322

ORBITAL ENERGIES
----------------

  NO   OCC          E(Eh)            E(eV)
   0   2.0000     -88.968910     -2420.9671
   1   2.0000     -88.966271     -2420.8953
   2   2.0000     -10.329447      -281.0786
   3   2.0000     -10.323956      -280.9291
   4   2.0000     -10.317546      -280.7547
   5   2.0000     -10.311559      -280.5918
   6   2.0000     -10.303518      -280.3730
   7   2.0000     -10.303087      -280.3612
   8   2.0000     -10.297553      -280.2107
   9   2.0000     -10.296395      -280.1792
  10   2.0000     -10.296357      -280.1781
  11   2.0000     -10.292739      -280.0797
  12   2.0000     -10.285632      -279.8863
  13   2.0000     -10.284844      -279.8648
  14   2.0000     -10.284422      -279.8534
  15   2.0000     -10.276880      -279.6481
  16   2.0000      -8.083524      -219.9639
  17   2.0000      -8.081034      -219.8961
  18   2.0000      -6.042061      -164.4128
  19   2.0000      -6.039570      -164.3450
  20   2.0000      -6.038077      -164.3044
  21   2.0000      -6.035721      -164.2403
  22   2.0000      -6.034269      -164.2008
  23   2.0000      -6.031587      -164.1278
  24   2.0000      -1.006597       -27.3909
  25   2.0000      -0.980620       -26.6840
  26   2.0000      -0.912162       -24.8212
  27   2.0000      -0.905982       -24.6530
  28   2.0000      -0.866801       -23.5869
  29   2.0000      -0.848972       -23.1017
  30   2.0000      -0.840955       -22.8835
  31   2.0000      -0.811456       -22.0808
  32   2.0000      -0.783854       -21.3298
  33   2.0000      -0.770894       -20.9771
  34   2.0000      -0.708534       -19.2802
  35   2.0000      -0.708219       -19.2716
  36   2.0000      -0.694644       -18.9022
  37   2.0000      -0.665390       -18.1062
  38   2.0000      -0.634994       -17.2791
  39   2.0000      -0.613829       -16.7031
  40   2.0000      -0.597970       -16.2716
  41   2.0000      -0.571882       -15.5617
  42   2.0000      -0.559078       -15.2133
  43   2.0000      -0.552188       -15.0258
  44   2.0000      -0.534308       -14.5393
  45   2.0000      -0.521398       -14.1880
  46   2.0000      -0.512494       -13.9457
  47   2.0000      -0.508411       -13.8346
  48   2.0000      -0.504198       -13.7199
  49   2.0000      -0.494555       -13.4575
  50   2.0000      -0.486707       -13.2440
  51   2.0000      -0.474524       -12.9125
  52   2.0000      -0.473741       -12.8912
  53   2.0000      -0.462154       -12.5758
  54   2.0000      -0.460352       -12.5268
  55   2.0000      -0.450252       -12.2520
  56   2.0000      -0.448066       -12.1925
  57   2.0000      -0.440678       -11.9915
  58   2.0000      -0.433937       -11.8080
  59   2.0000      -0.429946       -11.6994
  60   2.0000      -0.425817       -11.5871
  61   2.0000      -0.414563       -11.2808
  62   2.0000      -0.402606       -10.9555
  63   2.0000      -0.352648        -9.5960
  64   2.0000      -0.332620        -9.0510
  65   2.0000      -0.325918        -8.8687
  66   2.0000      -0.281949        -7.6722
  67   0.0000       0.025863         0.7038
  68   0.0000       0.069061         1.8792
  69   0.0000       0.102719         2.7951
  70   0.0000       0.119440         3.2501
  71   0.0000       0.131797         3.5864

MULLIKEN ATOMIC CHARGES
-----------------------
   0 S :    0.119242
   1 C :   -0.124442
   2 C :   -0.121518
   3 C :    0.013895
   4 C :   -0.154107
   5 H :    0.025384
   6 C :    0.080952
   7 H :    0.050220
   8 H :    0.029818
   9 C :   -0.075042
  10 H :    0.024388
  11 H :    0.018216
  12 C :   -0.068519
  13 H :    0.040262
  14 H :    0.039793
  15 H :    0.039424
  16 S :    0.099781
  17 C :   -0.097177
  18 C :   -0.028293
  19 C :   -0.043909
  20 C :   -0.133055
  21 H :    0.025249
  22 C :    0.126764
  23 H :   -0.009681
  24 H :    0.017276
  25 C :   -0.089856
  26 H :    0.029980
  27 H :    0.024567
  28 C :   -0.028805
  29 H :    0.017643
  30 H :    0.036339
  31 H :    0.014726
  32 H :    0.049346
  33 H :    0.051140
Sum of atomic charges:   -0.0000000

LOEWDIN ATOMIC CHARGES
----------------------
   0 S :    0.411855
   1 C :   -0.220655
   2 C :   -0.059081
   3 C :   -0.065286
   4 C :   -0.183277
   5 H :    0.031135
   6 C :   -0.034694
   7 H :    0.045168
   8 H :    0.031942
   9 C :   -0.043669
  10 H :    0.024729
  11 H :    0.022851
  12 C :   -0.071670
  13 H :    0.023820
  14 H :    0.029059
  15 H :    0.032653
  16 S :    0.392407
  17 C :   -0.171798
  18 C :   -0.062985
  19 C :   -0.050814
  20 C :   -0.202635
  21 H :    0.036185
  22 C :   -0.029675
  23 H :    0.020188
  24 H :    0.030231
  25 C :   -0.036128
  26 H :    0.024539
  27 H :    0.023401
  28 C :   -0.064855
  29 H :    0.011420
  30 H :    0.030263
  31 H :    0.025439
  32 H :    0.024850
  33 H :    0.025089

  Mayer bond orders larger than 0.100000
B(  0-S ,  1-C ) :   1.1500 B(  0-S ,  4-C ) :   1.1437 B(  1-C ,  2-C ) :   1.5853
B(  1-C ,  4-C ) :   0.1019 B(  1-C , 32-H ) :   0.9623 B(  2-C ,  3-C ) :   1.2619
B(  2-C ,  6-C ) :   1.0077 B(  3-C ,  4-C ) :   1.5609 B(  3-C ,  5-H ) :   0.9833
B(  4-C , 20-C ) :   1.0688 B(  6-C ,  7-H ) :   0.9326 B(  6-C ,  8-H ) :   0.9479
B(  6-C ,  9-C ) :   1.0813 B(  9-C , 10-H ) :   0.9565 B(  9-C , 11-H ) :   0.9505
B(  9-C , 12-C ) :   1.0602 B( 12-C , 13-H ) :   0.9754 B( 12-C , 14-H ) :   0.9793
B( 12-C , 15-H ) :   0.9749 B( 16-S , 17-C ) :   1.1354 B( 16-S , 20-C ) :   1.1248
B( 17-C , 18-C ) :   1.6468 B( 17-C , 33-H ) :   0.9686 B( 18-C , 19-C ) :   1.1953
B( 18-C , 21-H ) :   0.9929 B( 19-C , 20-C ) :   1.6095 B( 19-C , 22-C ) :   1.0656
B( 22-C , 23-H ) :   0.9208 B( 22-C , 24-H ) :   0.9320 B( 22-C , 25-C ) :   1.0486
B( 25-C , 26-H ) :   0.9642 B( 25-C , 27-H ) :   0.9566 B( 25-C , 28-C ) :   1.0553
B( 28-C , 29-H ) :   0.9793 B( 28-C , 30-H ) :   0.9788 B( 28-C , 31-H ) :   0.9760

Dispersion correction           -0.014267020
FINAL SINGLE POINT ENERGY     -1339.868250202397

DIPOLE MOMENT
-------------
                                X             Y             Z
Electronic contribution:      5.16413     -28.98628      -5.04386
Nuclear contribution   :     -5.44798      29.43885       5.02929
                        -----------------------------------------
Total Dipole Moment    :     -0.28385       0.45257      -0.01457
                        -----------------------------------------
Magnitude (a.u.)       :      0.53442
Magnitude (Debye)      :      1.35839

Rotational constants in cm-1:     0.018501     0.009305     0.006818
Rotational constants in MHz :   554.639571   278.971865   204.402675

                             ****ORCA TERMINATED NORMALLY****
TOTAL RUN TIME: 0 days 0 hours 0 minutes 21 seconds 962 msec
