                         Program Version 4.2.1 -  RELEASE  -
|  1> ! wB97X-D3 SP def2-SVP
|  2> %pal
|  3> nprocs 24
|  4> end
|  5>
|  6> * xyz 0 1
|  7> S 	 -133.372 	 23.6764 	 -20.2734
|  8> C 	 -133.27 	 24.5954 	 -18.7801
|  9> C 	 -131.988 	 25.1171 	 -18.6245
| 10> C 	 -131.244 	 24.9512 	 -19.8688
| 11> C 	 -131.774 	 24.0018 	 -20.7271
| 12> H 	 -130.202 	 25.3671 	 -19.9489
| 13> C 	 -131.496 	 25.796 	 -17.3485
| 14> H 	 -132.232 	 25.9088 	 -16.6577
| 15> H 	 -131.006 	 26.7332 	 -17.5348
| 16> C 	 -130.422 	 24.8964 	 -16.5799
| 17> H 	 -130.906 	 24.0069 	 -16.1768
| 18> H 	 -129.575 	 24.6862 	 -17.2706
| 19> C 	 -129.755 	 25.4587 	 -15.2573
| 20> H 	 -128.982 	 26.226 	 -15.5808
| 21> H 	 -130.46 	 25.9664 	 -14.5167
| 22> H 	 -129.351 	 24.6076 	 -14.6588
| 23> S 	 -132.27 	 23.0531 	 -23.3243
| 24> C 	 -130.991 	 22.1497 	 -24.1238
| 25> C 	 -129.848 	 22.155 	 -23.3679
| 26> C 	 -129.951 	 22.8073 	 -22.1023
| 27> C 	 -131.2 	 23.3892 	 -21.9339
| 28> H 	 -128.978 	 21.6295 	 -23.724
| 29> C 	 -128.793 	 22.9143 	 -21.1096
| 30> H 	 -128.393 	 23.8881 	 -21.0917
| 31> H 	 -127.899 	 22.4765 	 -21.5543
| 32> C 	 -128.85 	 22.4611 	 -19.6566
| 33> H 	 -129.314 	 21.459 	 -19.554
| 34> H 	 -129.482 	 23.1984 	 -19.144
| 35> C 	 -127.473 	 22.4024 	 -19.1106
| 36> H 	 -127.391 	 22.2793 	 -18.0322
| 37> H 	 -126.872 	 23.2728 	 -19.301
| 38> H 	 -126.847 	 21.5088 	 -19.4443
| 39> H 	 -134.093 	 24.8666 	 -18.1194
| 40> H 	 -131.04 	 21.7779 	 -25.1716
| 41> *
| 42>
| 43>                          ****END OF INPUT****

CARTESIAN COORDINATES (ANGSTROEM)
---------------------------------
  S    -133.372000   23.676400  -20.273400
  C    -133.270000   24.595400  -18.780100
  C    -131.988000   25.117100  -18.624500
  C    -131.244000   24.951200  -19.868800
  C    -131.774000   24.001800  -20.727100
  H    -130.202000   25.367100  -19.948900
  C    -131.496000   25.796000  -17.348500
  H    -132.232000   25.908800  -16.657700
  H    -131.006000   26.733200  -17.534800
  C    -130.422000   24.896400  -16.579900
  H    -130.906000   24.006900  -16.176800
  H    -129.575000   24.686200  -17.270600
  C    -129.755000   25.458700  -15.257300
  H    -128.982000   26.226000  -15.580800
  H    -130.460000   25.966400  -14.516700
  H    -129.351000   24.607600  -14.658800
  S    -132.270000   23.053100  -23.324300
  C    -130.991000   22.149700  -24.123800
  C    -129.848000   22.155000  -23.367900
  C    -129.951000   22.807300  -22.102300
  C    -131.200000   23.389200  -21.933900
  H    -128.978000   21.629500  -23.724000
  C    -128.793000   22.914300  -21.109600
  H    -128.393000   23.888100  -21.091700
  H    -127.899000   22.476500  -21.554300
  C    -128.850000   22.461100  -19.656600
  H    -129.314000   21.459000  -19.554000
  H    -129.482000   23.198400  -19.144000
  C    -127.473000   22.402400  -19.110600
  H    -127.391000   22.279300  -18.032200
  H    -126.872000   23.272800  -19.301000
  H    -126.847000   21.508800  -19.444300
  H    -134.093000   24.866600  -18.119400
  H    -131.040000   21.777900  -25.171600

 Total Charge           Charge          ....    0
 Multiplicity           Mult            ....    1
 Number of Electrons    NEL             ....  134
 Basis Dimension        Dim             ....  322

ORBITAL ENERGIES
----------------

  NO   OCC          E(Eh)            E(eV)
   0   2.0000     -88.968193     -2420.9476
   1   2.0000     -88.964839     -2420.8563
   2   2.0000     -10.332057      -281.1496
   3   2.0000     -10.330349      -281.1031
   4   2.0000     -10.322264      -280.8831
   5   2.0000     -10.314481      -280.6713
   6   2.0000     -10.308553      -280.5100
   7   2.0000     -10.307471      -280.4805
   8   2.0000     -10.299917      -280.2750
   9   2.0000     -10.295925      -280.1664
  10   2.0000     -10.295165      -280.1457
  11   2.0000     -10.294491      -280.1273
  12   2.0000     -10.292644      -280.0771
  13   2.0000     -10.287034      -279.9244
  14   2.0000     -10.283527      -279.8290
  15   2.0000     -10.278271      -279.6860
  16   2.0000      -8.082227      -219.9286
  17   2.0000      -8.080488      -219.8813
  18   2.0000      -6.040819      -164.3791
  19   2.0000      -6.039007      -164.3297
  20   2.0000      -6.036814      -164.2701
  21   2.0000      -6.034749      -164.2139
  22   2.0000      -6.032959      -164.1652
  23   2.0000      -6.031282      -164.1195
  24   2.0000      -1.009080       -27.4585
  25   2.0000      -0.984321       -26.7847
  26   2.0000      -0.914888       -24.8954
  27   2.0000      -0.905673       -24.6446
  28   2.0000      -0.865801       -23.5597
  29   2.0000      -0.854595       -23.2547
  30   2.0000      -0.839390       -22.8410
  31   2.0000      -0.814212       -22.1558
  32   2.0000      -0.785192       -21.3662
  33   2.0000      -0.774478       -21.0746
  34   2.0000      -0.708429       -19.2773
  35   2.0000      -0.695966       -18.9382
  36   2.0000      -0.686867       -18.6906
  37   2.0000      -0.660815       -17.9817
  38   2.0000      -0.638753       -17.3813
  39   2.0000      -0.621474       -16.9112
  40   2.0000      -0.602355       -16.3909
  41   2.0000      -0.571071       -15.5396
  42   2.0000      -0.564628       -15.3643
  43   2.0000      -0.562275       -15.3003
  44   2.0000      -0.524652       -14.2765
  45   2.0000      -0.522067       -14.2062
  46   2.0000      -0.515733       -14.0338
  47   2.0000      -0.513373       -13.9696
  48   2.0000      -0.505725       -13.7615
  49   2.0000      -0.500040       -13.6068
  50   2.0000      -0.489393       -13.3171
  51   2.0000      -0.485746       -13.2178
  52   2.0000      -0.469864       -12.7857
  53   2.0000      -0.461848       -12.5675
  54   2.0000      -0.456920       -12.4334
  55   2.0000      -0.451413       -12.2836
  56   2.0000      -0.448253       -12.1976
  57   2.0000      -0.435299       -11.8451
  58   2.0000      -0.431629       -11.7452
  59   2.0000      -0.424372       -11.5478
  60   2.0000      -0.421516       -11.4700
  61   2.0000      -0.414621       -11.2824
  62   2.0000      -0.407079       -11.0772
  63   2.0000      -0.348812        -9.4916
  64   2.0000      -0.334666        -9.1067
  65   2.0000      -0.326371        -8.8810
  66   2.0000      -0.291404        -7.9295
  67   0.0000       0.023793         0.6475
  68   0.0000       0.077634         2.1125
  69   0.0000       0.104789         2.8515
  70   0.0000       0.116901         3.1810
  71   0.0000       0.123372         3.3571

MULLIKEN ATOMIC CHARGES
-----------------------
   0 S :    0.111694
   1 C :   -0.120498
   2 C :   -0.131615
   3 C :    0.012752
   4 C :   -0.138339
   5 H :    0.029981
   6 C :    0.152272
   7 H :   -0.011484
   8 H :    0.024946
   9 C :   -0.137934
  10 H :    0.037834
  11 H :    0.053540
  12 C :   -0.105133
  13 H :    0.046313
  14 H :    0.039403
  15 H :    0.051764
  16 S :    0.099334
  17 C :   -0.105471
  18 C :   -0.024498
  19 C :    0.003938
  20 C :   -0.143707
  21 H :    0.015138
  22 C :    0.038172
  23 H :    0.012977
  24 H :   -0.006077
  25 C :   -0.017885
  26 H :    0.037204
  27 H :    0.033135
  28 C :   -0.071992
  29 H :    0.025719
  30 H :    0.018684
  31 H :    0.037239
  32 H :    0.056026
  33 H :    0.076567
Sum of atomic charges:   -0.0000000

LOEWDIN ATOMIC CHARGES
----------------------
   0 S :    0.427889
   1 C :   -0.204331
   2 C :   -0.056811
   3 C :   -0.076875
   4 C :   -0.207238
   5 H :    0.034170
   6 C :   -0.016501
   7 H :    0.014680
   8 H :    0.029207
   9 C :   -0.041441
  10 H :    0.024513
  11 H :    0.025444
  12 C :   -0.083573
  13 H :    0.028859
  14 H :    0.027809
  15 H :    0.033055
  16 S :    0.385669
  17 C :   -0.185880
  18 C :   -0.070489
  19 C :   -0.047646
  20 C :   -0.184845
  21 H :    0.030855
  22 C :   -0.038473
  23 H :    0.026864
  24 H :    0.029372
  25 C :   -0.040815
  26 H :    0.032152
  27 H :    0.024343
  28 C :   -0.073836
  29 H :    0.025934
  30 H :    0.019228
  31 H :    0.033953
  32 H :    0.032814
  33 H :    0.041943

  Mayer bond orders larger than 0.100000
B(  0-S ,  1-C ) :   1.1369 B(  0-S ,  4-C ) :   1.1693 B(  1-C ,  2-C ) :   1.6054
B(  1-C , 32-H ) :   0.9668 B(  2-C ,  3-C ) :   1.2489 B(  2-C ,  6-C ) :   1.0481
B(  3-C ,  4-C ) :   1.5517 B(  3-C ,  5-H ) :   0.9780 B(  4-C , 20-C ) :   1.0502
B(  6-C ,  7-H ) :   0.9326 B(  6-C ,  8-H ) :   0.9406 B(  6-C ,  9-C ) :   1.0522
B(  9-C , 10-H ) :   0.9641 B(  9-C , 11-H ) :   0.9534 B(  9-C , 12-C ) :   1.0661
B( 12-C , 13-H ) :   0.9769 B( 12-C , 14-H ) :   0.9748 B( 12-C , 15-H ) :   0.9768
B( 16-S , 17-C ) :   1.1443 B( 16-S , 20-C ) :   1.1320 B( 17-C , 18-C ) :   1.6159
B( 17-C , 33-H ) :   0.9592 B( 18-C , 19-C ) :   1.2508 B( 18-C , 21-H ) :   0.9886
B( 19-C , 20-C ) :   1.5944 B( 19-C , 22-C ) :   1.0211 B( 22-C , 23-H ) :   0.9262
B( 22-C , 24-H ) :   0.9300 B( 22-C , 25-C ) :   1.0576 B( 25-C , 26-H ) :   0.9496
B( 25-C , 27-H ) :   0.9424 B( 25-C , 28-C ) :   1.0932 B( 28-C , 29-H ) :   0.9683
B( 28-C , 30-H ) :   0.9706 B( 28-C , 31-H ) :   0.9687

Dispersion correction           -0.015018735
FINAL SINGLE POINT ENERGY     -1339.867154961077

DIPOLE MOMENT
-------------
                                X             Y             Z
Electronic contribution:    -23.46686      -3.20368     -25.91924
Nuclear contribution   :     24.08728       3.25509      26.31906
                        -----------------------------------------
Total Dipole Moment    :      0.62042       0.05141       0.39982
                        -----------------------------------------
Magnitude (a.u.)       :      0.73988
Magnitude (Debye)      :      1.88062

Rotational constants in cm-1:     0.019882     0.009379     0.006696
Rotational constants in MHz :   596.059323   281.166920   200.755569

                             ****ORCA TERMINATED NORMALLY****
TOTAL RUN TIME: 0 days 0 hours 0 minutes 21 seconds 232 msec
