                         Program Version 4.2.1 -  RELEASE  -
|  1> ! wB97X-D3 SP def2-SVP
|  2> %pal
|  3> nprocs 24
|  4> end
|  5>
|  6> * xyz 0 1
|  7> S 	 -36.8712 	 17.7936 	 14.1492
|  8> C 	 -37.137 	 17.3335 	 15.8519
|  9> C 	 -37.2163 	 18.4446 	 16.5967
| 10> C 	 -37.0592 	 19.6867 	 15.8423
| 11> C 	 -36.923 	 19.5258 	 14.5101
| 12> H 	 -37.0787 	 20.6619 	 16.3412
| 13> C 	 -37.3535 	 18.4601 	 18.1574
| 14> H 	 -36.5586 	 19.034 	 18.5192
| 15> H 	 -37.1911 	 17.4792 	 18.4777
| 16> C 	 -38.764 	 18.992 	 18.6773
| 17> H 	 -39.0265 	 19.9903 	 18.3509
| 18> H 	 -39.5821 	 18.4233 	 18.1548
| 19> C 	 -38.9789 	 18.9012 	 20.1784
| 20> H 	 -39.2788 	 17.9014 	 20.4801
| 21> H 	 -38.0743 	 19.0825 	 20.8073
| 22> H 	 -39.7481 	 19.5762 	 20.5185
| 23> S 	 -35.8732 	 20.039 	 12.039
| 24> C 	 -35.4389 	 21.6509 	 11.6169
| 25> C 	 -35.9627 	 22.6275 	 12.4682
| 26> C 	 -36.717 	 22.0472 	 13.5464
| 27> C 	 -36.5825 	 20.6348 	 13.5804
| 28> H 	 -35.927 	 23.5965 	 12.0591
| 29> C 	 -37.3813 	 22.8937 	 14.5996
| 30> H 	 -36.6644 	 23.0299 	 15.4078
| 31> H 	 -38.2037 	 22.4048 	 15.077
| 32> C 	 -37.7354 	 24.3711 	 14.1084
| 33> H 	 -36.8077 	 24.8697 	 13.8258
| 34> H 	 -38.1165 	 24.98 	 15.0311
| 35> C 	 -38.8586 	 24.4227 	 13.0773
| 36> H 	 -38.6164 	 23.6344 	 12.2159
| 37> H 	 -38.9813 	 25.406 	 12.7029
| 38> H 	 -39.8454 	 24.1526 	 13.4671
| 39> H 	 -37.0846 	 16.2891 	 16.2067
| 40> H 	 -34.7731 	 21.9564 	 10.7852
| 41> *
| 42>
| 43>                          ****END OF INPUT****

CARTESIAN COORDINATES (ANGSTROEM)
---------------------------------
  S    -36.871200   17.793600   14.149200
  C    -37.137000   17.333500   15.851900
  C    -37.216300   18.444600   16.596700
  C    -37.059200   19.686700   15.842300
  C    -36.923000   19.525800   14.510100
  H    -37.078700   20.661900   16.341200
  C    -37.353500   18.460100   18.157400
  H    -36.558600   19.034000   18.519200
  H    -37.191100   17.479200   18.477700
  C    -38.764000   18.992000   18.677300
  H    -39.026500   19.990300   18.350900
  H    -39.582100   18.423300   18.154800
  C    -38.978900   18.901200   20.178400
  H    -39.278800   17.901400   20.480100
  H    -38.074300   19.082500   20.807300
  H    -39.748100   19.576200   20.518500
  S    -35.873200   20.039000   12.039000
  C    -35.438900   21.650900   11.616900
  C    -35.962700   22.627500   12.468200
  C    -36.717000   22.047200   13.546400
  C    -36.582500   20.634800   13.580400
  H    -35.927000   23.596500   12.059100
  C    -37.381300   22.893700   14.599600
  H    -36.664400   23.029900   15.407800
  H    -38.203700   22.404800   15.077000
  C    -37.735400   24.371100   14.108400
  H    -36.807700   24.869700   13.825800
  H    -38.116500   24.980000   15.031100
  C    -38.858600   24.422700   13.077300
  H    -38.616400   23.634400   12.215900
  H    -38.981300   25.406000   12.702900
  H    -39.845400   24.152600   13.467100
  H    -37.084600   16.289100   16.206700
  H    -34.773100   21.956400   10.785200

 Total Charge           Charge          ....    0
 Multiplicity           Mult            ....    1
 Number of Electrons    NEL             ....  134
 Basis Dimension        Dim             ....  322

ORBITAL ENERGIES
----------------

  NO   OCC          E(Eh)            E(eV)
   0   2.0000     -88.966401     -2420.8989
   1   2.0000     -88.962178     -2420.7839
   2   2.0000     -10.336946      -281.2826
   3   2.0000     -10.333784      -281.1966
   4   2.0000     -10.319829      -280.8168
   5   2.0000     -10.316318      -280.7213
   6   2.0000     -10.315181      -280.6903
   7   2.0000     -10.301629      -280.3216
   8   2.0000     -10.301331      -280.3135
   9   2.0000     -10.295991      -280.1682
  10   2.0000     -10.293543      -280.1016
  11   2.0000     -10.292809      -280.0816
  12   2.0000     -10.292102      -280.0623
  13   2.0000     -10.291581      -280.0481
  14   2.0000     -10.284710      -279.8612
  15   2.0000     -10.279000      -279.7058
  16   2.0000      -8.081065      -219.8970
  17   2.0000      -8.076380      -219.7695
  18   2.0000      -6.039496      -164.3430
  19   2.0000      -6.035692      -164.2395
  20   2.0000      -6.035370      -164.2308
  21   2.0000      -6.031811      -164.1339
  22   2.0000      -6.031082      -164.1141
  23   2.0000      -6.026521      -163.9900
  24   2.0000      -1.002595       -27.2820
  25   2.0000      -0.981186       -26.6994
  26   2.0000      -0.906495       -24.6670
  27   2.0000      -0.901774       -24.5385
  28   2.0000      -0.869540       -23.6614
  29   2.0000      -0.849649       -23.1201
  30   2.0000      -0.839358       -22.8401
  31   2.0000      -0.817809       -22.2537
  32   2.0000      -0.783962       -21.3327
  33   2.0000      -0.773652       -21.0521
  34   2.0000      -0.708081       -19.2679
  35   2.0000      -0.700203       -19.0535
  36   2.0000      -0.693216       -18.8634
  37   2.0000      -0.655351       -17.8330
  38   2.0000      -0.636202       -17.3119
  39   2.0000      -0.623823       -16.9751
  40   2.0000      -0.595402       -16.2017
  41   2.0000      -0.564090       -15.3497
  42   2.0000      -0.556755       -15.1501
  43   2.0000      -0.554111       -15.0781
  44   2.0000      -0.532571       -14.4920
  45   2.0000      -0.521466       -14.1898
  46   2.0000      -0.518761       -14.1162
  47   2.0000      -0.511045       -13.9062
  48   2.0000      -0.503949       -13.7131
  49   2.0000      -0.499495       -13.5919
  50   2.0000      -0.489872       -13.3301
  51   2.0000      -0.482367       -13.1259
  52   2.0000      -0.471135       -12.8202
  53   2.0000      -0.465977       -12.6799
  54   2.0000      -0.463222       -12.6049
  55   2.0000      -0.452151       -12.3036
  56   2.0000      -0.447095       -12.1661
  57   2.0000      -0.439354       -11.9554
  58   2.0000      -0.437165       -11.8959
  59   2.0000      -0.420228       -11.4350
  60   2.0000      -0.414362       -11.2754
  61   2.0000      -0.411778       -11.2050
  62   2.0000      -0.407668       -11.0932
  63   2.0000      -0.363297        -9.8858
  64   2.0000      -0.334016        -9.0890
  65   2.0000      -0.324197        -8.8219
  66   2.0000      -0.283575        -7.7165
  67   0.0000       0.020663         0.5623
  68   0.0000       0.079859         2.1731
  69   0.0000       0.096198         2.6177
  70   0.0000       0.123293         3.3550
  71   0.0000       0.135279         3.6811

MULLIKEN ATOMIC CHARGES
-----------------------
   0 S :    0.071214
   1 C :   -0.139930
   2 C :   -0.091616
   3 C :   -0.036492
   4 C :   -0.049277
   5 H :    0.014174
   6 C :    0.135764
   7 H :    0.020185
   8 H :   -0.002709
   9 C :   -0.091078
  10 H :    0.020724
  11 H :    0.034227
  12 C :   -0.043815
  13 H :    0.025917
  14 H :    0.030666
  15 H :    0.032929
  16 S :    0.097881
  17 C :   -0.095712
  18 C :   -0.040850
  19 C :   -0.042951
  20 C :   -0.153511
  21 H :    0.018245
  22 C :    0.049756
  23 H :    0.047760
  24 H :    0.028609
  25 C :   -0.116873
  26 H :    0.040993
  27 H :    0.039931
  28 C :   -0.056775
  29 H :    0.056084
  30 H :    0.031323
  31 H :    0.033731
  32 H :    0.064008
  33 H :    0.067469
Sum of atomic charges:    0.0000000

LOEWDIN ATOMIC CHARGES
----------------------
   0 S :    0.361056
   1 C :   -0.186178
   2 C :   -0.060889
   3 C :   -0.074983
   4 C :   -0.180547
   5 H :    0.031452
   6 C :   -0.011641
   7 H :    0.023320
   8 H :    0.019801
   9 C :   -0.045189
  10 H :    0.019440
  11 H :    0.032338
  12 C :   -0.071413
  13 H :    0.023332
  14 H :    0.028354
  15 H :    0.026614
  16 S :    0.397896
  17 C :   -0.189306
  18 C :   -0.078719
  19 C :   -0.050114
  20 C :   -0.171544
  21 H :    0.028075
  22 C :   -0.034391
  23 H :    0.036869
  24 H :    0.026354
  25 C :   -0.045620
  26 H :    0.021884
  27 H :    0.034717
  28 C :   -0.074714
  29 H :    0.040606
  30 H :    0.020118
  31 H :    0.026760
  32 H :    0.039458
  33 H :    0.036802

  Mayer bond orders larger than 0.100000
B(  0-S ,  1-C ) :   1.0954 B(  0-S ,  4-C ) :   1.1154 B(  1-C ,  2-C ) :   1.6765
B(  1-C , 32-H ) :   0.9647 B(  2-C ,  3-C ) :   1.1999 B(  2-C ,  6-C ) :   1.0192
B(  3-C ,  4-C ) :   1.6077 B(  3-C ,  5-H ) :   0.9928 B(  4-C , 20-C ) :   1.0734
B(  6-C ,  7-H ) :   0.9388 B(  6-C ,  8-H ) :   0.9430 B(  6-C ,  9-C ) :   1.0469
B(  9-C , 10-H ) :   0.9635 B(  9-C , 11-H ) :   0.9560 B(  9-C , 12-C ) :   1.0803
B( 12-C , 13-H ) :   0.9759 B( 12-C , 14-H ) :   0.9752 B( 12-C , 15-H ) :   0.9751
B( 16-S , 17-C ) :   1.1739 B( 16-S , 20-C ) :   1.1302 B( 17-C , 18-C ) :   1.6220
B( 17-C , 33-H ) :   0.9571 B( 18-C , 19-C ) :   1.2240 B( 18-C , 21-H ) :   0.9868
B( 19-C , 20-C ) :   1.5739 B( 19-C , 22-C ) :   1.0448 B( 22-C , 23-H ) :   0.9277
B( 22-C , 24-H ) :   0.9361 B( 22-C , 25-C ) :   1.0702 B( 25-C , 26-H ) :   0.9502
B( 25-C , 27-H ) :   0.9546 B( 25-C , 28-C ) :   1.0734 B( 28-C , 29-H ) :   0.9726
B( 28-C , 30-H ) :   0.9739 B( 28-C , 31-H ) :   0.9726

Dispersion correction           -0.013581163
FINAL SINGLE POINT ENERGY     -1339.863556194693

DIPOLE MOMENT
-------------
                                X             Y             Z
Electronic contribution:     12.88318     -15.67620     -21.52324
Nuclear contribution   :    -12.96791      16.22433      22.09454
                        -----------------------------------------
Total Dipole Moment    :     -0.08473       0.54813       0.57130
                        -----------------------------------------
Magnitude (a.u.)       :      0.79625
Magnitude (Debye)      :      2.02390

Rotational constants in cm-1:     0.018186     0.008117     0.005894
Rotational constants in MHz :   545.207447   243.336322   176.703755

                             ****ORCA TERMINATED NORMALLY****
TOTAL RUN TIME: 0 days 0 hours 0 minutes 20 seconds 956 msec
