                         Program Version 4.2.1 -  RELEASE  -
|  1> ! wB97X-D3 SP def2-SVP
|  2> %pal
|  3> nprocs 24
|  4> end
|  5>
|  6> * xyz 0 1
|  7> S 	 -116.367 	 44.1943 	 -112.495
|  8> C 	 -117.924 	 43.4813 	 -113.102
|  9> C 	 -117.959 	 43.2202 	 -114.485
| 10> C 	 -116.689 	 43.597 	 -115.064
| 11> C 	 -115.806 	 44.0914 	 -114.103
| 12> H 	 -116.194 	 43.3547 	 -116.006
| 13> C 	 -119.173 	 42.786 	 -115.193
| 14> H 	 -119.978 	 43.5095 	 -114.913
| 15> H 	 -119.569 	 41.8882 	 -114.849
| 16> C 	 -119.152 	 42.7623 	 -116.732
| 17> H 	 -119.025 	 43.8452 	 -117.008
| 18> H 	 -118.327 	 42.16 	 -117.116
| 19> C 	 -120.434 	 42.3218 	 -117.392
| 20> H 	 -120.521 	 42.4103 	 -118.506
| 21> H 	 -120.574 	 41.2624 	 -117.113
| 22> H 	 -121.252 	 42.8975 	 -116.98
| 23> S 	 -114.204 	 45.1352 	 -116.128
| 24> C 	 -112.507 	 45.4554 	 -115.794
| 25> C 	 -112.085 	 45.0395 	 -114.526
| 26> C 	 -113.196 	 44.4925 	 -113.737
| 27> C 	 -114.444 	 44.5217 	 -114.47
| 28> H 	 -111.077 	 45.1719 	 -114.274
| 29> C 	 -112.901 	 44.1067 	 -112.3
| 30> H 	 -113.765 	 44.2725 	 -111.56
| 31> H 	 -112.141 	 44.902 	 -112.075
| 32> C 	 -112.348 	 42.7098 	 -112.083
| 33> H 	 -112.016 	 42.5526 	 -111.071
| 34> H 	 -111.45 	 42.486 	 -112.626
| 35> C 	 -113.393 	 41.6895 	 -112.44
| 36> H 	 -113.276 	 41.6099 	 -113.46
| 37> H 	 -114.396 	 42.0198 	 -112.179
| 38> H 	 -113.211 	 40.6505 	 -111.995
| 39> H 	 -118.715 	 43.1644 	 -112.474
| 40> H 	 -111.809 	 46.011 	 -116.449
| 41> *
| 42>
| 43>                          ****END OF INPUT****

CARTESIAN COORDINATES (ANGSTROEM)
---------------------------------
  S    -116.367000   44.194300  -112.495000
  C    -117.924000   43.481300  -113.102000
  C    -117.959000   43.220200  -114.485000
  C    -116.689000   43.597000  -115.064000
  C    -115.806000   44.091400  -114.103000
  H    -116.194000   43.354700  -116.006000
  C    -119.173000   42.786000  -115.193000
  H    -119.978000   43.509500  -114.913000
  H    -119.569000   41.888200  -114.849000
  C    -119.152000   42.762300  -116.732000
  H    -119.025000   43.845200  -117.008000
  H    -118.327000   42.160000  -117.116000
  C    -120.434000   42.321800  -117.392000
  H    -120.521000   42.410300  -118.506000
  H    -120.574000   41.262400  -117.113000
  H    -121.252000   42.897500  -116.980000
  S    -114.204000   45.135200  -116.128000
  C    -112.507000   45.455400  -115.794000
  C    -112.085000   45.039500  -114.526000
  C    -113.196000   44.492500  -113.737000
  C    -114.444000   44.521700  -114.470000
  H    -111.077000   45.171900  -114.274000
  C    -112.901000   44.106700  -112.300000
  H    -113.765000   44.272500  -111.560000
  H    -112.141000   44.902000  -112.075000
  C    -112.348000   42.709800  -112.083000
  H    -112.016000   42.552600  -111.071000
  H    -111.450000   42.486000  -112.626000
  C    -113.393000   41.689500  -112.440000
  H    -113.276000   41.609900  -113.460000
  H    -114.396000   42.019800  -112.179000
  H    -113.211000   40.650500  -111.995000
  H    -118.715000   43.164400  -112.474000
  H    -111.809000   46.011000  -116.449000

 Total Charge           Charge          ....    0
 Multiplicity           Mult            ....    1
 Number of Electrons    NEL             ....  134
 Basis Dimension        Dim             ....  322

ORBITAL ENERGIES
----------------

  NO   OCC          E(Eh)            E(eV)
   0   2.0000     -88.975325     -2421.1417
   1   2.0000     -88.970082     -2420.9990
   2   2.0000     -10.335607      -281.2462
   3   2.0000     -10.329370      -281.0764
   4   2.0000     -10.321868      -280.8723
   5   2.0000     -10.315204      -280.6910
   6   2.0000     -10.313827      -280.6535
   7   2.0000     -10.309949      -280.5480
   8   2.0000     -10.300624      -280.2942
   9   2.0000     -10.297039      -280.1967
  10   2.0000     -10.295200      -280.1466
  11   2.0000     -10.290685      -280.0238
  12   2.0000     -10.289302      -279.9861
  13   2.0000     -10.282044      -279.7886
  14   2.0000     -10.276084      -279.6265
  15   2.0000     -10.263360      -279.2802
  16   2.0000      -8.088794      -220.1073
  17   2.0000      -8.083594      -219.9658
  18   2.0000      -6.047261      -164.5543
  19   2.0000      -6.043680      -164.4569
  20   2.0000      -6.042204      -164.4167
  21   2.0000      -6.039476      -164.3425
  22   2.0000      -6.038302      -164.3106
  23   2.0000      -6.034301      -164.2017
  24   2.0000      -1.000238       -27.2178
  25   2.0000      -0.973549       -26.4916
  26   2.0000      -0.919061       -25.0089
  27   2.0000      -0.912683       -24.8354
  28   2.0000      -0.867806       -23.6142
  29   2.0000      -0.855595       -23.2819
  30   2.0000      -0.842242       -22.9186
  31   2.0000      -0.810820       -22.0635
  32   2.0000      -0.784992       -21.3607
  33   2.0000      -0.766459       -20.8564
  34   2.0000      -0.709192       -19.2981
  35   2.0000      -0.695343       -18.9213
  36   2.0000      -0.680032       -18.5046
  37   2.0000      -0.667051       -18.1514
  38   2.0000      -0.632897       -17.2220
  39   2.0000      -0.618318       -16.8253
  40   2.0000      -0.593801       -16.1581
  41   2.0000      -0.578079       -15.7303
  42   2.0000      -0.565218       -15.3804
  43   2.0000      -0.551861       -15.0169
  44   2.0000      -0.543311       -14.7842
  45   2.0000      -0.521914       -14.2020
  46   2.0000      -0.515101       -14.0166
  47   2.0000      -0.507391       -13.8068
  48   2.0000      -0.504631       -13.7317
  49   2.0000      -0.491609       -13.3774
  50   2.0000      -0.484309       -13.1787
  51   2.0000      -0.475385       -12.9359
  52   2.0000      -0.468906       -12.7596
  53   2.0000      -0.465363       -12.6632
  54   2.0000      -0.459836       -12.5128
  55   2.0000      -0.455528       -12.3955
  56   2.0000      -0.446010       -12.1365
  57   2.0000      -0.440984       -11.9998
  58   2.0000      -0.431115       -11.7312
  59   2.0000      -0.426784       -11.6134
  60   2.0000      -0.416791       -11.3415
  61   2.0000      -0.413636       -11.2556
  62   2.0000      -0.408931       -11.1276
  63   2.0000      -0.348396        -9.4803
  64   2.0000      -0.334870        -9.1123
  65   2.0000      -0.329465        -8.9652
  66   2.0000      -0.277734        -7.5575
  67   0.0000       0.018491         0.5032
  68   0.0000       0.073792         2.0080
  69   0.0000       0.099904         2.7185
  70   0.0000       0.106356         2.8941
  71   0.0000       0.120436         3.2772

MULLIKEN ATOMIC CHARGES
-----------------------
   0 S :    0.112181
   1 C :   -0.115374
   2 C :   -0.034287
   3 C :   -0.048801
   4 C :   -0.101482
   5 H :    0.034089
   6 C :    0.059005
   7 H :    0.038734
   8 H :    0.010040
   9 C :   -0.100755
  10 H :    0.037229
  11 H :    0.039847
  12 C :   -0.045753
  13 H :    0.050039
  14 H :    0.028707
  15 H :    0.022380
  16 S :    0.099906
  17 C :   -0.101701
  18 C :   -0.024453
  19 C :   -0.048262
  20 C :   -0.142730
  21 H :    0.006963
  22 C :   -0.017905
  23 H :    0.052343
  24 H :    0.038133
  25 C :   -0.019525
  26 H :    0.018693
  27 H :    0.012037
  28 C :   -0.044310
  29 H :    0.025094
  30 H :    0.028237
  31 H :    0.036148
  32 H :    0.028171
  33 H :    0.067363
Sum of atomic charges:    0.0000000

LOEWDIN ATOMIC CHARGES
----------------------
   0 S :    0.417817
   1 C :   -0.182334
   2 C :   -0.042521
   3 C :   -0.084245
   4 C :   -0.195490
   5 H :    0.029282
   6 C :   -0.036172
   7 H :    0.045112
   8 H :    0.021505
   9 C :   -0.045028
  10 H :    0.030556
  11 H :    0.022838
  12 C :   -0.068220
  13 H :    0.034906
  14 H :    0.025330
  15 H :    0.021931
  16 S :    0.398331
  17 C :   -0.189258
  18 C :   -0.064014
  19 C :   -0.055808
  20 C :   -0.188436
  21 H :    0.024398
  22 C :   -0.044695
  23 H :    0.030908
  24 H :    0.038739
  25 C :   -0.041028
  26 H :    0.019946
  27 H :    0.019837
  28 C :   -0.061491
  29 H :    0.017019
  30 H :    0.016059
  31 H :    0.032555
  32 H :    0.015679
  33 H :    0.035994

  Mayer bond orders larger than 0.100000
B(  0-S ,  1-C ) :   1.1087 B(  0-S ,  4-C ) :   1.1580 B(  1-C ,  2-C ) :   1.6339
B(  1-C , 32-H ) :   0.9732 B(  2-C ,  3-C ) :   1.2208 B(  2-C ,  6-C ) :   1.0192
B(  3-C ,  4-C ) :   1.5690 B(  3-C ,  5-H ) :   0.9754 B(  4-C , 20-C ) :   1.0646
B(  6-C ,  7-H ) :   0.9344 B(  6-C ,  8-H ) :   0.9270 B(  6-C ,  9-C ) :   1.0794
B(  9-C , 10-H ) :   0.9513 B(  9-C , 11-H ) :   0.9529 B(  9-C , 12-C ) :   1.0883
B( 12-C , 13-H ) :   0.9733 B( 12-C , 14-H ) :   0.9729 B( 12-C , 15-H ) :   0.9722
B( 16-S , 17-C ) :   1.1436 B( 16-S , 20-C ) :   1.1353 B( 17-C , 18-C ) :   1.6342
B( 17-C , 33-H ) :   0.9603 B( 18-C , 19-C ) :   1.2264 B( 18-C , 21-H ) :   0.9927
B( 19-C , 20-C ) :   1.5496 B( 19-C , 22-C ) :   1.0153 B( 22-C , 23-H ) :   0.9472
B( 22-C , 24-H ) :   0.9347 B( 22-C , 25-C ) :   1.0776 B( 25-C , 26-H ) :   0.9538
B( 25-C , 27-H ) :   0.9559 B( 25-C , 28-C ) :   1.0593 B( 28-C , 29-H ) :   0.9777
B( 28-C , 30-H ) :   0.9743 B( 28-C , 31-H ) :   0.9722

Dispersion correction           -0.014575231
FINAL SINGLE POINT ENERGY     -1339.859601662192

DIPOLE MOMENT
-------------
                                X             Y             Z
Electronic contribution:      7.34113      13.58169       1.77442
Nuclear contribution   :     -7.34178     -13.80312      -1.79658
                        -----------------------------------------
Total Dipole Moment    :     -0.00065      -0.22143      -0.02216
                        -----------------------------------------
Magnitude (a.u.)       :      0.22254
Magnitude (Debye)      :      0.56565

Rotational constants in cm-1:     0.021426     0.008192     0.006704
Rotational constants in MHz :   642.321097   245.595727   200.973231

                             ****ORCA TERMINATED NORMALLY****
TOTAL RUN TIME: 0 days 0 hours 0 minutes 20 seconds 610 msec
