                         Program Version 4.2.1 -  RELEASE  -
|  1> ! wB97X-D3 SP def2-SVP
|  2> %pal
|  3> nprocs 24
|  4> end
|  5>
|  6> * xyz 0 1
|  7> S 	 -134.165 	 23.2668 	 -19.9782
|  8> C 	 -135.854 	 23.1162 	 -19.9073
|  9> C 	 -136.397 	 23.6695 	 -18.7584
| 10> C 	 -135.419 	 24.2268 	 -17.9763
| 11> C 	 -134.124 	 24.0029 	 -18.384
| 12> H 	 -135.571 	 24.6785 	 -17.0424
| 13> C 	 -137.901 	 23.8023 	 -18.378
| 14> H 	 -138.484 	 23.672 	 -19.2816
| 15> H 	 -138.092 	 24.8661 	 -18.1866
| 16> C 	 -138.378 	 22.9133 	 -17.1641
| 17> H 	 -137.533 	 22.8873 	 -16.4698
| 18> H 	 -139.23 	 23.344 	 -16.6308
| 19> C 	 -138.83 	 21.5542 	 -17.6992
| 20> H 	 -139.019 	 20.7067 	 -17.0054
| 21> H 	 -139.852 	 21.8165 	 -18.0276
| 22> H 	 -138.388 	 21.1794 	 -18.6226
| 23> S 	 -131.545 	 25.0587 	 -18.5939
| 24> C 	 -130.594 	 25.2338 	 -17.1406
| 25> C 	 -131.268 	 24.8171 	 -16.0463
| 26> C 	 -132.551 	 24.32 	 -16.3622
| 27> C 	 -132.881 	 24.4151 	 -17.6944
| 28> H 	 -130.734 	 24.9537 	 -15.1217
| 29> C 	 -133.398 	 23.7581 	 -15.287
| 30> H 	 -133.216 	 22.7281 	 -15.2833
| 31> H 	 -134.479 	 23.8678 	 -15.4111
| 32> C 	 -133.088 	 24.2438 	 -13.7953
| 33> H 	 -132.019 	 24.1024 	 -13.505
| 34> H 	 -133.556 	 23.5892 	 -13.0508
| 35> C 	 -133.579 	 25.6418 	 -13.4713
| 36> H 	 -133.082 	 26.3383 	 -14.157
| 37> H 	 -133.326 	 25.8488 	 -12.3707
| 38> H 	 -134.677 	 25.6592 	 -13.5393
| 39> H 	 -136.342 	 22.7699 	 -20.7749
| 40> H 	 -129.539 	 25.4747 	 -17.1194
| 41> *
| 42>
| 43>                          ****END OF INPUT****

CARTESIAN COORDINATES (ANGSTROEM)
---------------------------------
  S    -134.165000   23.266800  -19.978200
  C    -135.854000   23.116200  -19.907300
  C    -136.397000   23.669500  -18.758400
  C    -135.419000   24.226800  -17.976300
  C    -134.124000   24.002900  -18.384000
  H    -135.571000   24.678500  -17.042400
  C    -137.901000   23.802300  -18.378000
  H    -138.484000   23.672000  -19.281600
  H    -138.092000   24.866100  -18.186600
  C    -138.378000   22.913300  -17.164100
  H    -137.533000   22.887300  -16.469800
  H    -139.230000   23.344000  -16.630800
  C    -138.830000   21.554200  -17.699200
  H    -139.019000   20.706700  -17.005400
  H    -139.852000   21.816500  -18.027600
  H    -138.388000   21.179400  -18.622600
  S    -131.545000   25.058700  -18.593900
  C    -130.594000   25.233800  -17.140600
  C    -131.268000   24.817100  -16.046300
  C    -132.551000   24.320000  -16.362200
  C    -132.881000   24.415100  -17.694400
  H    -130.734000   24.953700  -15.121700
  C    -133.398000   23.758100  -15.287000
  H    -133.216000   22.728100  -15.283300
  H    -134.479000   23.867800  -15.411100
  C    -133.088000   24.243800  -13.795300
  H    -132.019000   24.102400  -13.505000
  H    -133.556000   23.589200  -13.050800
  C    -133.579000   25.641800  -13.471300
  H    -133.082000   26.338300  -14.157000
  H    -133.326000   25.848800  -12.370700
  H    -134.677000   25.659200  -13.539300
  H    -136.342000   22.769900  -20.774900
  H    -129.539000   25.474700  -17.119400

 Total Charge           Charge          ....    0
 Multiplicity           Mult            ....    1
 Number of Electrons    NEL             ....  134
 Basis Dimension        Dim             ....  322

ORBITAL ENERGIES
----------------

  NO   OCC          E(Eh)            E(eV)
   0   2.0000     -88.966357     -2420.8977
   1   2.0000     -88.963487     -2420.8195
   2   2.0000     -10.328163      -281.0436
   3   2.0000     -10.324787      -280.9517
   4   2.0000     -10.312143      -280.6077
   5   2.0000     -10.309236      -280.5286
   6   2.0000     -10.299591      -280.2661
   7   2.0000     -10.298648      -280.2405
   8   2.0000     -10.297878      -280.2195
   9   2.0000     -10.295079      -280.1433
  10   2.0000     -10.290555      -280.0202
  11   2.0000     -10.287737      -279.9436
  12   2.0000     -10.287621      -279.9404
  13   2.0000     -10.283711      -279.8340
  14   2.0000     -10.282792      -279.8090
  15   2.0000     -10.279628      -279.7229
  16   2.0000      -8.082101      -219.9251
  17   2.0000      -8.078778      -219.8347
  18   2.0000      -6.040357      -164.3665
  19   2.0000      -6.037249      -164.2819
  20   2.0000      -6.036419      -164.2593
  21   2.0000      -6.033226      -164.1724
  22   2.0000      -6.033125      -164.1697
  23   2.0000      -6.029537      -164.0720
  24   2.0000      -1.013916       -27.5901
  25   2.0000      -0.994882       -27.0721
  26   2.0000      -0.907745       -24.7010
  27   2.0000      -0.905586       -24.6422
  28   2.0000      -0.872251       -23.7351
  29   2.0000      -0.856989       -23.3199
  30   2.0000      -0.848879       -23.0992
  31   2.0000      -0.818559       -22.2741
  32   2.0000      -0.781715       -21.2716
  33   2.0000      -0.771459       -20.9925
  34   2.0000      -0.708273       -19.2731
  35   2.0000      -0.697055       -18.9678
  36   2.0000      -0.694973       -18.9112
  37   2.0000      -0.659374       -17.9425
  38   2.0000      -0.647608       -17.6223
  39   2.0000      -0.629464       -17.1286
  40   2.0000      -0.601773       -16.3751
  41   2.0000      -0.571905       -15.5623
  42   2.0000      -0.554464       -15.0877
  43   2.0000      -0.551545       -15.0083
  44   2.0000      -0.536908       -14.6100
  45   2.0000      -0.535983       -14.5848
  46   2.0000      -0.522728       -14.2242
  47   2.0000      -0.507872       -13.8199
  48   2.0000      -0.500856       -13.6290
  49   2.0000      -0.500028       -13.6065
  50   2.0000      -0.489485       -13.3196
  51   2.0000      -0.479697       -13.0532
  52   2.0000      -0.474583       -12.9141
  53   2.0000      -0.465594       -12.6695
  54   2.0000      -0.459257       -12.4970
  55   2.0000      -0.448591       -12.2068
  56   2.0000      -0.443247       -12.0614
  57   2.0000      -0.438232       -11.9249
  58   2.0000      -0.432667       -11.7735
  59   2.0000      -0.429907       -11.6984
  60   2.0000      -0.416512       -11.3339
  61   2.0000      -0.414783       -11.2868
  62   2.0000      -0.412449       -11.2233
  63   2.0000      -0.353589        -9.6217
  64   2.0000      -0.337562        -9.1855
  65   2.0000      -0.330211        -8.9855
  66   2.0000      -0.288238        -7.8434
  67   0.0000       0.028389         0.7725
  68   0.0000       0.080211         2.1827
  69   0.0000       0.112803         3.0695
  70   0.0000       0.126995         3.4557
  71   0.0000       0.133949         3.6449

MULLIKEN ATOMIC CHARGES
-----------------------
   0 S :    0.118529
   1 C :   -0.122670
   2 C :   -0.058299
   3 C :    0.035856
   4 C :   -0.156320
   5 H :   -0.012547
   6 C :    0.045936
   7 H :    0.010129
   8 H :    0.032305
   9 C :   -0.034920
  10 H :    0.030671
  11 H :    0.035948
  12 C :   -0.071649
  13 H :    0.042812
  14 H :    0.017336
  15 H :    0.037060
  16 S :    0.100971
  17 C :   -0.091083
  18 C :   -0.043484
  19 C :   -0.028962
  20 C :   -0.134867
  21 H :    0.019346
  22 C :    0.099080
  23 H :    0.029222
  24 H :    0.018389
  25 C :   -0.124161
  26 H :    0.028308
  27 H :    0.020703
  28 C :   -0.054276
  29 H :    0.044943
  30 H :    0.043411
  31 H :    0.033497
  32 H :    0.034635
  33 H :    0.054154
Sum of atomic charges:    0.0000000

LOEWDIN ATOMIC CHARGES
----------------------
   0 S :    0.429532
   1 C :   -0.201614
   2 C :   -0.066900
   3 C :   -0.057658
   4 C :   -0.188936
   5 H :    0.021138
   6 C :   -0.025641
   7 H :    0.024559
   8 H :    0.033417
   9 C :   -0.035385
  10 H :    0.019991
  11 H :    0.026882
  12 C :   -0.076933
  13 H :    0.028651
  14 H :    0.028604
  15 H :    0.024240
  16 S :    0.406665
  17 C :   -0.180437
  18 C :   -0.075039
  19 C :   -0.060161
  20 C :   -0.203665
  21 H :    0.035374
  22 C :   -0.027200
  23 H :    0.033358
  24 H :    0.028240
  25 C :   -0.049207
  26 H :    0.021460
  27 H :    0.023575
  28 C :   -0.070125
  29 H :    0.025517
  30 H :    0.035411
  31 H :    0.024605
  32 H :    0.016941
  33 H :    0.030740

  Mayer bond orders larger than 0.100000
B(  0-S ,  1-C ) :   1.1776 B(  0-S ,  4-C ) :   1.1635 B(  1-C ,  2-C ) :   1.5531
B(  1-C ,  4-C ) :   0.1071 B(  1-C , 32-H ) :   0.9768 B(  2-C ,  3-C ) :   1.2960
B(  2-C ,  6-C ) :   1.0153 B(  3-C ,  4-C ) :   1.5407 B(  3-C ,  5-H ) :   0.9997
B(  4-C , 20-C ) :   1.0448 B(  6-C ,  7-H ) :   0.9460 B(  6-C ,  8-H ) :   0.9455
B(  6-C ,  9-C ) :   1.0436 B(  9-C , 10-H ) :   0.9629 B(  9-C , 11-H ) :   0.9643
B(  9-C , 12-C ) :   1.0510 B( 12-C , 13-H ) :   0.9756 B( 12-C , 14-H ) :   0.9759
B( 12-C , 15-H ) :   0.9814 B( 16-S , 17-C ) :   1.1573 B( 16-S , 20-C ) :   1.1351
B( 17-C , 18-C ) :   1.6267 B( 17-C , 33-H ) :   0.9600 B( 18-C , 19-C ) :   1.2290
B( 18-C , 21-H ) :   0.9949 B( 19-C , 20-C ) :   1.6008 B( 19-C , 22-C ) :   1.0382
B( 22-C , 23-H ) :   0.9113 B( 22-C , 24-H ) :   0.9385 B( 22-C , 25-C ) :   1.0788
B( 25-C , 26-H ) :   0.9479 B( 25-C , 27-H ) :   0.9529 B( 25-C , 28-C ) :   1.0785
B( 28-C , 29-H ) :   0.9764 B( 28-C , 30-H ) :   0.9721 B( 28-C , 31-H ) :   0.9733

Dispersion correction           -0.014181044
FINAL SINGLE POINT ENERGY     -1339.876455239385

DIPOLE MOMENT
-------------
                                X             Y             Z
Electronic contribution:     19.86443       3.48142     -22.02843
Nuclear contribution   :    -20.21308      -3.54227      22.56957
                        -----------------------------------------
Total Dipole Moment    :     -0.34865      -0.06085       0.54113
                        -----------------------------------------
Magnitude (a.u.)       :      0.64660
Magnitude (Debye)      :      1.64351

Rotational constants in cm-1:     0.018376     0.009079     0.006468
Rotational constants in MHz :   550.913468   272.169683   193.897787

                             ****ORCA TERMINATED NORMALLY****
TOTAL RUN TIME: 0 days 0 hours 0 minutes 21 seconds 764 msec
