                         Program Version 4.2.1 -  RELEASE  -
|  1> ! wB97X-D3 SP def2-SVP
|  2> %pal
|  3> nprocs 24
|  4> end
|  5>
|  6> * xyz 0 1
|  7> S 	 -50.6357 	 -50.9846 	 -77.7702
|  8> C 	 -50.169 	 -51.5613 	 -79.3326
|  9> C 	 -50.7668 	 -50.7536 	 -80.3526
| 10> C 	 -51.7338 	 -49.7978 	 -79.8138
| 11> C 	 -51.7333 	 -49.7982 	 -78.4352
| 12> H 	 -52.4295 	 -49.1633 	 -80.4201
| 13> C 	 -50.6181 	 -50.9296 	 -81.8884
| 14> H 	 -51.3735 	 -51.6234 	 -82.2784
| 15> H 	 -49.6022 	 -51.3295 	 -82.1011
| 16> C 	 -50.8298 	 -49.7367 	 -82.8903
| 17> H 	 -50.9548 	 -50.0853 	 -83.9259
| 18> H 	 -51.6855 	 -49.296 	 -82.6059
| 19> C 	 -49.6177 	 -48.7775 	 -82.8599
| 20> H 	 -49.3129 	 -48.5549 	 -81.8309
| 21> H 	 -48.7269 	 -49.2603 	 -83.3333
| 22> H 	 -49.8554 	 -47.8307 	 -83.3889
| 23> S 	 -51.4546 	 -48.4898 	 -76.0297
| 24> C 	 -52.5691 	 -47.3514 	 -75.5642
| 25> C 	 -53.6267 	 -47.2183 	 -76.4528
| 26> C 	 -53.5361 	 -48.1316 	 -77.595
| 27> C 	 -52.3191 	 -48.8077 	 -77.5641
| 28> H 	 -54.4961 	 -46.6276 	 -76.2543
| 29> C 	 -54.6413 	 -48.4527 	 -78.5651
| 30> H 	 -55.4427 	 -48.7451 	 -77.855
| 31> H 	 -54.421 	 -49.3438 	 -79.0891
| 32> C 	 -55.1049 	 -47.3979 	 -79.5493
| 33> H 	 -54.2102 	 -46.9644 	 -80.0056
| 34> H 	 -55.5703 	 -46.5264 	 -79.1258
| 35> C 	 -56.0562 	 -47.9775 	 -80.6306
| 36> H 	 -55.6789 	 -48.8236 	 -81.2827
| 37> H 	 -56.3627 	 -47.1886 	 -81.3709
| 38> H 	 -56.9608 	 -48.4064 	 -80.2409
| 39> H 	 -49.4753 	 -52.4251 	 -79.4423
| 40> H 	 -52.59 	 -46.803 	 -74.6153
| 41> *
| 42>
| 43>                          ****END OF INPUT****

CARTESIAN COORDINATES (ANGSTROEM)
---------------------------------
  S    -50.635700  -50.984600  -77.770200
  C    -50.169000  -51.561300  -79.332600
  C    -50.766800  -50.753600  -80.352600
  C    -51.733800  -49.797800  -79.813800
  C    -51.733300  -49.798200  -78.435200
  H    -52.429500  -49.163300  -80.420100
  C    -50.618100  -50.929600  -81.888400
  H    -51.373500  -51.623400  -82.278400
  H    -49.602200  -51.329500  -82.101100
  C    -50.829800  -49.736700  -82.890300
  H    -50.954800  -50.085300  -83.925900
  H    -51.685500  -49.296000  -82.605900
  C    -49.617700  -48.777500  -82.859900
  H    -49.312900  -48.554900  -81.830900
  H    -48.726900  -49.260300  -83.333300
  H    -49.855400  -47.830700  -83.388900
  S    -51.454600  -48.489800  -76.029700
  C    -52.569100  -47.351400  -75.564200
  C    -53.626700  -47.218300  -76.452800
  C    -53.536100  -48.131600  -77.595000
  C    -52.319100  -48.807700  -77.564100
  H    -54.496100  -46.627600  -76.254300
  C    -54.641300  -48.452700  -78.565100
  H    -55.442700  -48.745100  -77.855000
  H    -54.421000  -49.343800  -79.089100
  C    -55.104900  -47.397900  -79.549300
  H    -54.210200  -46.964400  -80.005600
  H    -55.570300  -46.526400  -79.125800
  C    -56.056200  -47.977500  -80.630600
  H    -55.678900  -48.823600  -81.282700
  H    -56.362700  -47.188600  -81.370900
  H    -56.960800  -48.406400  -80.240900
  H    -49.475300  -52.425100  -79.442300
  H    -52.590000  -46.803000  -74.615300

 Total Charge           Charge          ....    0
 Multiplicity           Mult            ....    1
 Number of Electrons    NEL             ....  134
 Basis Dimension        Dim             ....  322

ORBITAL ENERGIES
----------------

  NO   OCC          E(Eh)            E(eV)
   0   2.0000     -88.967611     -2420.9318
   1   2.0000     -88.964585     -2420.8494
   2   2.0000     -10.329259      -281.0734
   3   2.0000     -10.325722      -280.9772
   4   2.0000     -10.323441      -280.9151
   5   2.0000     -10.315884      -280.7095
   6   2.0000     -10.314093      -280.6607
   7   2.0000     -10.306061      -280.4422
   8   2.0000     -10.301608      -280.3210
   9   2.0000     -10.296857      -280.1917
  10   2.0000     -10.293665      -280.1049
  11   2.0000     -10.291153      -280.0365
  12   2.0000     -10.290951      -280.0310
  13   2.0000     -10.287950      -279.9493
  14   2.0000     -10.282969      -279.8138
  15   2.0000     -10.279077      -279.7079
  16   2.0000      -8.082758      -219.9430
  17   2.0000      -8.080677      -219.8864
  18   2.0000      -6.041273      -164.3914
  19   2.0000      -6.039140      -164.3333
  20   2.0000      -6.037136      -164.2788
  21   2.0000      -6.035018      -164.2212
  22   2.0000      -6.033570      -164.1818
  23   2.0000      -6.031367      -164.1218
  24   2.0000      -1.008730       -27.4489
  25   2.0000      -0.983100       -26.7515
  26   2.0000      -0.914590       -24.8872
  27   2.0000      -0.904635       -24.6164
  28   2.0000      -0.869964       -23.6729
  29   2.0000      -0.853115       -23.2144
  30   2.0000      -0.842429       -22.9237
  31   2.0000      -0.808923       -22.0119
  32   2.0000      -0.783377       -21.3168
  33   2.0000      -0.767630       -20.8883
  34   2.0000      -0.713545       -19.4165
  35   2.0000      -0.703629       -19.1467
  36   2.0000      -0.691331       -18.8121
  37   2.0000      -0.658976       -17.9316
  38   2.0000      -0.636161       -17.3108
  39   2.0000      -0.622643       -16.9430
  40   2.0000      -0.600071       -16.3288
  41   2.0000      -0.564673       -15.3655
  42   2.0000      -0.556749       -15.1499
  43   2.0000      -0.544843       -14.8259
  44   2.0000      -0.538948       -14.6655
  45   2.0000      -0.528315       -14.3762
  46   2.0000      -0.519932       -14.1481
  47   2.0000      -0.511449       -13.9172
  48   2.0000      -0.502734       -13.6801
  49   2.0000      -0.495607       -13.4862
  50   2.0000      -0.493772       -13.4362
  51   2.0000      -0.484584       -13.1862
  52   2.0000      -0.468480       -12.7480
  53   2.0000      -0.464568       -12.6415
  54   2.0000      -0.456736       -12.4284
  55   2.0000      -0.450122       -12.2484
  56   2.0000      -0.446597       -12.1525
  57   2.0000      -0.442490       -12.0408
  58   2.0000      -0.435516       -11.8510
  59   2.0000      -0.430450       -11.7131
  60   2.0000      -0.421381       -11.4664
  61   2.0000      -0.413140       -11.2421
  62   2.0000      -0.409170       -11.1341
  63   2.0000      -0.360703        -9.8152
  64   2.0000      -0.329426        -8.9641
  65   2.0000      -0.326433        -8.8827
  66   2.0000      -0.280933        -7.6446
  67   0.0000       0.024328         0.6620
  68   0.0000       0.075341         2.0501
  69   0.0000       0.105712         2.8766
  70   0.0000       0.116462         3.1691
  71   0.0000       0.123822         3.3694

MULLIKEN ATOMIC CHARGES
-----------------------
   0 S :    0.103394
   1 C :   -0.134278
   2 C :   -0.072642
   3 C :   -0.015119
   4 C :   -0.125972
   5 H :    0.040153
   6 C :    0.004541
   7 H :    0.047809
   8 H :    0.026437
   9 C :   -0.028894
  10 H :    0.033678
  11 H :   -0.005081
  12 C :   -0.079906
  13 H :    0.040076
  14 H :    0.034570
  15 H :    0.040629
  16 S :    0.107957
  17 C :   -0.079435
  18 C :   -0.026471
  19 C :   -0.062573
  20 C :   -0.140402
  21 H :    0.006200
  22 C :    0.063480
  23 H :    0.038029
  24 H :    0.009834
  25 C :   -0.034935
  26 H :    0.027161
  27 H :    0.025579
  28 C :   -0.086240
  29 H :    0.034308
  30 H :    0.042399
  31 H :    0.027934
  32 H :    0.071627
  33 H :    0.066153
Sum of atomic charges:    0.0000000

LOEWDIN ATOMIC CHARGES
----------------------
   0 S :    0.414555
   1 C :   -0.214253
   2 C :   -0.057232
   3 C :   -0.073162
   4 C :   -0.192719
   5 H :    0.039841
   6 C :   -0.037429
   7 H :    0.036023
   8 H :    0.028961
   9 C :   -0.030586
  10 H :    0.030648
  11 H :    0.000768
  12 C :   -0.070354
  13 H :    0.026343
  14 H :    0.027916
  15 H :    0.027136
  16 S :    0.420645
  17 C :   -0.214206
  18 C :   -0.075361
  19 C :   -0.050841
  20 C :   -0.187626
  21 H :    0.024500
  22 C :   -0.033700
  23 H :    0.041999
  24 H :    0.024768
  25 C :   -0.039655
  26 H :    0.026124
  27 H :    0.024055
  28 C :   -0.075712
  29 H :    0.028866
  30 H :    0.032696
  31 H :    0.021009
  32 H :    0.038203
  33 H :    0.037783

  Mayer bond orders larger than 0.100000
B(  0-S ,  1-C ) :   1.1418 B(  0-S ,  4-C ) :   1.1525 B(  1-C ,  2-C ) :   1.5846
B(  1-C , 32-H ) :   0.9701 B(  2-C ,  3-C ) :   1.2454 B(  2-C ,  6-C ) :   1.0145
B(  3-C ,  4-C ) :   1.5573 B(  3-C ,  5-H ) :   0.9801 B(  4-C , 20-C ) :   1.0779
B(  6-C ,  7-H ) :   0.9428 B(  6-C ,  8-H ) :   0.9514 B(  6-C ,  9-C ) :   1.0715
B(  9-C , 10-H ) :   0.9559 B(  9-C , 11-H ) :   0.9516 B(  9-C , 12-C ) :   1.0762
B( 12-C , 13-H ) :   0.9794 B( 12-C , 14-H ) :   0.9749 B( 12-C , 15-H ) :   0.9759
B( 16-S , 17-C ) :   1.1741 B( 16-S , 20-C ) :   1.1226 B( 17-C , 18-C ) :   1.6000
B( 17-C , 33-H ) :   0.9628 B( 18-C , 19-C ) :   1.2371 B( 18-C , 21-H ) :   0.9930
B( 19-C , 20-C ) :   1.5863 B( 19-C , 22-C ) :   1.0492 B( 22-C , 23-H ) :   0.9225
B( 22-C , 24-H ) :   0.9355 B( 22-C , 25-C ) :   1.0579 B( 25-C , 26-H ) :   0.9545
B( 25-C , 27-H ) :   0.9514 B( 25-C , 28-C ) :   1.0776 B( 28-C , 29-H ) :   0.9752
B( 28-C , 30-H ) :   0.9751 B( 28-C , 31-H ) :   0.9755

Dispersion correction           -0.014013774
FINAL SINGLE POINT ENERGY     -1339.875591272161

DIPOLE MOMENT
-------------
                                X             Y             Z
Electronic contribution:     10.85983      -6.29378      27.95187
Nuclear contribution   :    -11.31915       6.39139     -28.38296
                        -----------------------------------------
Total Dipole Moment    :     -0.45932       0.09761      -0.43109
                        -----------------------------------------
Magnitude (a.u.)       :      0.63745
Magnitude (Debye)      :      1.62027

Rotational constants in cm-1:     0.015560     0.009989     0.006964
Rotational constants in MHz :   466.489099   299.458305   208.779065

                             ****ORCA TERMINATED NORMALLY****
TOTAL RUN TIME: 0 days 0 hours 0 minutes 21 seconds 330 msec
