                         Program Version 4.2.1 -  RELEASE  -
|  1> ! wB97X-D3 SP def2-SVP
|  2> %pal
|  3> nprocs 24
|  4> end
|  5>
|  6> * xyz 0 1
|  7> S 	 -112.672 	 17.6624 	 -119.204
|  8> C 	 -113.397 	 18.5931 	 -117.91
|  9> C 	 -112.826 	 19.8394 	 -117.673
| 10> C 	 -111.841 	 20.1087 	 -118.679
| 11> C 	 -111.638 	 19.0652 	 -119.612
| 12> H 	 -111.218 	 21.0494 	 -118.725
| 13> C 	 -113.395 	 20.8354 	 -116.704
| 14> H 	 -114.244 	 20.5153 	 -116.107
| 15> H 	 -113.643 	 21.6821 	 -117.246
| 16> C 	 -112.298 	 21.0602 	 -115.622
| 17> H 	 -111.384 	 21.3979 	 -116.142
| 18> H 	 -112.609 	 21.9139 	 -115.001
| 19> C 	 -112.164 	 19.8125 	 -114.732
| 20> H 	 -111.299 	 19.8999 	 -114.068
| 21> H 	 -113.07 	 19.7208 	 -114.085
| 22> H 	 -112.144 	 18.8391 	 -115.137
| 23> S 	 -111.27 	 18.5631 	 -122.204
| 24> C 	 -109.779 	 18.7669 	 -123.001
| 25> C 	 -108.798 	 18.8923 	 -122.071
| 26> C 	 -109.293 	 19.1124 	 -120.724
| 27> C 	 -110.612 	 18.8875 	 -120.605
| 28> H 	 -107.786 	 19.1094 	 -122.407
| 29> C 	 -108.22 	 19.3604 	 -119.653
| 30> H 	 -108.455 	 20.3255 	 -119.301
| 31> H 	 -107.266 	 19.4819 	 -120.149
| 32> C 	 -108.153 	 18.3492 	 -118.513
| 33> H 	 -108.288 	 17.3376 	 -119.026
| 34> H 	 -109.11 	 18.5121 	 -118.009
| 35> C 	 -106.963 	 18.5637 	 -117.599
| 36> H 	 -106.914 	 17.8516 	 -116.798
| 37> H 	 -107.002 	 19.5251 	 -117.049
| 38> H 	 -105.966 	 18.6586 	 -118.109
| 39> H 	 -114.362 	 18.4087 	 -117.493
| 40> H 	 -109.529 	 18.6019 	 -124.004
| 41> *
| 42>
| 43>                          ****END OF INPUT****

CARTESIAN COORDINATES (ANGSTROEM)
---------------------------------
  S    -112.672000   17.662400  -119.204000
  C    -113.397000   18.593100  -117.910000
  C    -112.826000   19.839400  -117.673000
  C    -111.841000   20.108700  -118.679000
  C    -111.638000   19.065200  -119.612000
  H    -111.218000   21.049400  -118.725000
  C    -113.395000   20.835400  -116.704000
  H    -114.244000   20.515300  -116.107000
  H    -113.643000   21.682100  -117.246000
  C    -112.298000   21.060200  -115.622000
  H    -111.384000   21.397900  -116.142000
  H    -112.609000   21.913900  -115.001000
  C    -112.164000   19.812500  -114.732000
  H    -111.299000   19.899900  -114.068000
  H    -113.070000   19.720800  -114.085000
  H    -112.144000   18.839100  -115.137000
  S    -111.270000   18.563100  -122.204000
  C    -109.779000   18.766900  -123.001000
  C    -108.798000   18.892300  -122.071000
  C    -109.293000   19.112400  -120.724000
  C    -110.612000   18.887500  -120.605000
  H    -107.786000   19.109400  -122.407000
  C    -108.220000   19.360400  -119.653000
  H    -108.455000   20.325500  -119.301000
  H    -107.266000   19.481900  -120.149000
  C    -108.153000   18.349200  -118.513000
  H    -108.288000   17.337600  -119.026000
  H    -109.110000   18.512100  -118.009000
  C    -106.963000   18.563700  -117.599000
  H    -106.914000   17.851600  -116.798000
  H    -107.002000   19.525100  -117.049000
  H    -105.966000   18.658600  -118.109000
  H    -114.362000   18.408700  -117.493000
  H    -109.529000   18.601900  -124.004000

 Total Charge           Charge          ....    0
 Multiplicity           Mult            ....    1
 Number of Electrons    NEL             ....  134
 Basis Dimension        Dim             ....  322

ORBITAL ENERGIES
----------------

  NO   OCC          E(Eh)            E(eV)
   0   2.0000     -88.967846     -2420.9382
   1   2.0000     -88.958412     -2420.6815
   2   2.0000     -10.335872      -281.2534
   3   2.0000     -10.322203      -280.8814
   4   2.0000     -10.310117      -280.5525
   5   2.0000     -10.309119      -280.5254
   6   2.0000     -10.306785      -280.4619
   7   2.0000     -10.302649      -280.3493
   8   2.0000     -10.302346      -280.3411
   9   2.0000     -10.293202      -280.0923
  10   2.0000     -10.289278      -279.9855
  11   2.0000     -10.288569      -279.9662
  12   2.0000     -10.287672      -279.9418
  13   2.0000     -10.283820      -279.8370
  14   2.0000     -10.281940      -279.7858
  15   2.0000     -10.277008      -279.6516
  16   2.0000      -8.081790      -219.9167
  17   2.0000      -8.074471      -219.7175
  18   2.0000      -6.040289      -164.3646
  19   2.0000      -6.036479      -164.2610
  20   2.0000      -6.033064      -164.1680
  21   2.0000      -6.032535      -164.1536
  22   2.0000      -6.028661      -164.0482
  23   2.0000      -6.025151      -163.9527
  24   2.0000      -1.011116       -27.5139
  25   2.0000      -0.983487       -26.7620
  26   2.0000      -0.916592       -24.9417
  27   2.0000      -0.909781       -24.7564
  28   2.0000      -0.871933       -23.7265
  29   2.0000      -0.849604       -23.1189
  30   2.0000      -0.842262       -22.9191
  31   2.0000      -0.813574       -22.1385
  32   2.0000      -0.784407       -21.3448
  33   2.0000      -0.777375       -21.1535
  34   2.0000      -0.715023       -19.4568
  35   2.0000      -0.700721       -19.0676
  36   2.0000      -0.691517       -18.8171
  37   2.0000      -0.665472       -18.1084
  38   2.0000      -0.640615       -17.4320
  39   2.0000      -0.619247       -16.8506
  40   2.0000      -0.592945       -16.1349
  41   2.0000      -0.571113       -15.5408
  42   2.0000      -0.563260       -15.3271
  43   2.0000      -0.560003       -15.2385
  44   2.0000      -0.537671       -14.6308
  45   2.0000      -0.520328       -14.1588
  46   2.0000      -0.519342       -14.1320
  47   2.0000      -0.510490       -13.8911
  48   2.0000      -0.507381       -13.8065
  49   2.0000      -0.496444       -13.5089
  50   2.0000      -0.492454       -13.4004
  51   2.0000      -0.485414       -13.2088
  52   2.0000      -0.472353       -12.8534
  53   2.0000      -0.462492       -12.5851
  54   2.0000      -0.458947       -12.4886
  55   2.0000      -0.449982       -12.2446
  56   2.0000      -0.441833       -12.0229
  57   2.0000      -0.440322       -11.9818
  58   2.0000      -0.428940       -11.6720
  59   2.0000      -0.425231       -11.5711
  60   2.0000      -0.415659       -11.3107
  61   2.0000      -0.413292       -11.2462
  62   2.0000      -0.407365       -11.0850
  63   2.0000      -0.344029        -9.3615
  64   2.0000      -0.334135        -9.0923
  65   2.0000      -0.327013        -8.8985
  66   2.0000      -0.297287        -8.0896
  67   0.0000       0.029248         0.7959
  68   0.0000       0.067373         1.8333
  69   0.0000       0.112100         3.0504
  70   0.0000       0.119633         3.2554
  71   0.0000       0.128654         3.5009

MULLIKEN ATOMIC CHARGES
-----------------------
   0 S :    0.109588
   1 C :   -0.091172
   2 C :   -0.122648
   3 C :    0.012768
   4 C :   -0.150903
   5 H :    0.036144
   6 C :    0.103453
   7 H :    0.017440
   8 H :    0.022780
   9 C :   -0.091117
  10 H :    0.031419
  11 H :    0.032087
  12 C :   -0.048505
  13 H :    0.037288
  14 H :    0.021933
  15 H :    0.033071
  16 S :    0.092290
  17 C :   -0.043413
  18 C :   -0.058290
  19 C :   -0.083512
  20 C :   -0.144340
  21 H :    0.023236
  22 C :    0.113833
  23 H :    0.004047
  24 H :   -0.000905
  25 C :   -0.076373
  26 H :    0.046022
  27 H :    0.038659
  28 C :   -0.035866
  29 H :    0.033757
  30 H :    0.023102
  31 H :    0.035142
  32 H :    0.039570
  33 H :    0.039416
Sum of atomic charges:   -0.0000000

LOEWDIN ATOMIC CHARGES
----------------------
   0 S :    0.391646
   1 C :   -0.196714
   2 C :   -0.058376
   3 C :   -0.064581
   4 C :   -0.186771
   5 H :    0.039097
   6 C :   -0.020155
   7 H :    0.029841
   8 H :    0.022396
   9 C :   -0.036577
  10 H :    0.020808
  11 H :    0.025113
  12 C :   -0.068662
  13 H :    0.028916
  14 H :    0.029686
  15 H :    0.020379
  16 S :    0.417588
  17 C :   -0.183539
  18 C :   -0.078849
  19 C :   -0.049410
  20 C :   -0.207288
  21 H :    0.029574
  22 C :   -0.025860
  23 H :    0.021614
  24 H :    0.022578
  25 C :   -0.046691
  26 H :    0.034184
  27 H :    0.029808
  28 C :   -0.071490
  29 H :    0.025038
  30 H :    0.030156
  31 H :    0.030446
  32 H :    0.021417
  33 H :    0.024681

  Mayer bond orders larger than 0.100000
B(  0-S ,  1-C ) :   1.1384 B(  0-S ,  4-C ) :   1.1430 B(  1-C ,  2-C ) :   1.6179
B(  1-C ,  4-C ) :   0.1054 B(  1-C , 32-H ) :   0.9606 B(  2-C ,  3-C ) :   1.2412
B(  2-C ,  6-C ) :   1.0251 B(  3-C ,  4-C ) :   1.5828 B(  3-C ,  5-H ) :   0.9813
B(  4-C , 20-C ) :   1.0149 B(  6-C ,  7-H ) :   0.9471 B(  6-C ,  8-H ) :   0.9413
B(  6-C ,  9-C ) :   1.0614 B(  9-C , 10-H ) :   0.9635 B(  9-C , 11-H ) :   0.9566
B(  9-C , 12-C ) :   1.0585 B( 12-C , 13-H ) :   0.9748 B( 12-C , 14-H ) :   0.9708
B( 12-C , 15-H ) :   0.9789 B( 16-S , 17-C ) :   1.1673 B( 16-S , 20-C ) :   1.1173
B( 17-C , 18-C ) :   1.6289 B( 17-C , 33-H ) :   0.9674 B( 18-C , 19-C ) :   1.2268
B( 18-C , 21-H ) :   0.9806 B( 19-C , 20-C ) :   1.6429 B( 19-C , 22-C ) :   1.0330
B( 22-C , 23-H ) :   0.9180 B( 22-C , 24-H ) :   0.9337 B( 22-C , 25-C ) :   1.0591
B( 25-C , 26-H ) :   0.9596 B( 25-C , 27-H ) :   0.9474 B( 25-C , 28-C ) :   1.0810
B( 28-C , 29-H ) :   0.9736 B( 28-C , 30-H ) :   0.9688 B( 28-C , 31-H ) :   0.9751

Dispersion correction           -0.014695088
FINAL SINGLE POINT ENERGY     -1339.865333835862

DIPOLE MOMENT
-------------
                                X             Y             Z
Electronic contribution:    -12.13491      -8.56919     -24.85450
Nuclear contribution   :     12.44327       9.06690      25.24432
                        -----------------------------------------
Total Dipole Moment    :      0.30836       0.49771       0.38982
                        -----------------------------------------
Magnitude (a.u.)       :      0.70339
Magnitude (Debye)      :      1.78788

Rotational constants in cm-1:     0.018464     0.009463     0.007141
Rotational constants in MHz :   553.522947   283.680364   214.072040

                             ****ORCA TERMINATED NORMALLY****
TOTAL RUN TIME: 0 days 0 hours 0 minutes 22 seconds 221 msec
