                         Program Version 4.2.1 -  RELEASE  -
|  1> ! wB97X-D3 SP def2-SVP
|  2> %pal
|  3> nprocs 24
|  4> end
|  5>
|  6> * xyz 0 1
|  7> S 	 -103.755 	 0.816388 	 -123.848
|  8> C 	 -105.468 	 1.06017 	 -123.913
|  9> C 	 -106.111 	 0.51952 	 -122.814
| 10> C 	 -105.224 	 0.0257551 	 -121.808
| 11> C 	 -103.952 	 0.304265 	 -122.187
| 12> H 	 -105.415 	 -0.248592 	 -120.758
| 13> C 	 -107.622 	 0.446245 	 -122.631
| 14> H 	 -108.007 	 1.38233 	 -122.234
| 15> H 	 -107.72 	 -0.221075 	 -121.765
| 16> C 	 -108.539 	 0.0682594 	 -123.792
| 17> H 	 -108.522 	 0.801689 	 -124.532
| 18> H 	 -108.167 	 -0.837077 	 -124.394
| 19> C 	 -109.996 	 0.0335499 	 -123.386
| 20> H 	 -110.419 	 0.980878 	 -123.082
| 21> H 	 -110.621 	 -0.322178 	 -124.214
| 22> H 	 -110.001 	 -0.680178 	 -122.539
| 23> S 	 -101.943 	 -1.64339 	 -121.652
| 24> C 	 -100.855 	 -1.34932 	 -120.343
| 25> C 	 -100.937 	 -0.0500407 	 -119.893
| 26> C 	 -102.05 	 0.664881 	 -120.45
| 27> C 	 -102.771 	 -0.0696384 	 -121.397
| 28> H 	 -100.283 	 0.226502 	 -119.065
| 29> C 	 -102.347 	 2.02374 	 -119.932
| 30> H 	 -102.652 	 2.53456 	 -120.809
| 31> H 	 -101.337 	 2.43097 	 -119.669
| 32> C 	 -103.122 	 2.02824 	 -118.628
| 33> H 	 -102.51 	 1.58806 	 -117.791
| 34> H 	 -104.058 	 1.43458 	 -118.678
| 35> C 	 -103.574 	 3.38222 	 -118.137
| 36> H 	 -102.756 	 4.04124 	 -117.918
| 37> H 	 -104.102 	 3.34035 	 -117.236
| 38> H 	 -104.318 	 3.8968 	 -118.873
| 39> H 	 -105.917 	 1.37805 	 -124.892
| 40> H 	 -100.395 	 -2.18537 	 -119.78
| 41> *
| 42>
| 43>                          ****END OF INPUT****

CARTESIAN COORDINATES (ANGSTROEM)
---------------------------------
  S    -103.755000    0.816388  -123.848000
  C    -105.468000    1.060170  -123.913000
  C    -106.111000    0.519520  -122.814000
  C    -105.224000    0.025755  -121.808000
  C    -103.952000    0.304265  -122.187000
  H    -105.415000   -0.248592  -120.758000
  C    -107.622000    0.446245  -122.631000
  H    -108.007000    1.382330  -122.234000
  H    -107.720000   -0.221075  -121.765000
  C    -108.539000    0.068259  -123.792000
  H    -108.522000    0.801689  -124.532000
  H    -108.167000   -0.837077  -124.394000
  C    -109.996000    0.033550  -123.386000
  H    -110.419000    0.980878  -123.082000
  H    -110.621000   -0.322178  -124.214000
  H    -110.001000   -0.680178  -122.539000
  S    -101.943000   -1.643390  -121.652000
  C    -100.855000   -1.349320  -120.343000
  C    -100.937000   -0.050041  -119.893000
  C    -102.050000    0.664881  -120.450000
  C    -102.771000   -0.069638  -121.397000
  H    -100.283000    0.226502  -119.065000
  C    -102.347000    2.023740  -119.932000
  H    -102.652000    2.534560  -120.809000
  H    -101.337000    2.430970  -119.669000
  C    -103.122000    2.028240  -118.628000
  H    -102.510000    1.588060  -117.791000
  H    -104.058000    1.434580  -118.678000
  C    -103.574000    3.382220  -118.137000
  H    -102.756000    4.041240  -117.918000
  H    -104.102000    3.340350  -117.236000
  H    -104.318000    3.896800  -118.873000
  H    -105.917000    1.378050  -124.892000
  H    -100.395000   -2.185370  -119.780000

 Total Charge           Charge          ....    0
 Multiplicity           Mult            ....    1
 Number of Electrons    NEL             ....  134
 Basis Dimension        Dim             ....  322

ORBITAL ENERGIES
----------------

  NO   OCC          E(Eh)            E(eV)
   0   2.0000     -88.966481     -2420.9010
   1   2.0000     -88.959109     -2420.7004
   2   2.0000     -10.325524      -280.9718
   3   2.0000     -10.324095      -280.9329
   4   2.0000     -10.315536      -280.7000
   5   2.0000     -10.314880      -280.6821
   6   2.0000     -10.303648      -280.3765
   7   2.0000     -10.300454      -280.2896
   8   2.0000     -10.296121      -280.1717
   9   2.0000     -10.291439      -280.0443
  10   2.0000     -10.291255      -280.0393
  11   2.0000     -10.290657      -280.0230
  12   2.0000     -10.286289      -279.9041
  13   2.0000     -10.285439      -279.8810
  14   2.0000     -10.280130      -279.7366
  15   2.0000     -10.275171      -279.6016
  16   2.0000      -8.081857      -219.9185
  17   2.0000      -8.073877      -219.7014
  18   2.0000      -6.040155      -164.3610
  19   2.0000      -6.036482      -164.2610
  20   2.0000      -6.032593      -164.1552
  21   2.0000      -6.032335      -164.1482
  22   2.0000      -6.028392      -164.0409
  23   2.0000      -6.024686      -163.9400
  24   2.0000      -1.007367       -27.4118
  25   2.0000      -0.983424       -26.7603
  26   2.0000      -0.912860       -24.8402
  27   2.0000      -0.912387       -24.8273
  28   2.0000      -0.867011       -23.5926
  29   2.0000      -0.857771       -23.3411
  30   2.0000      -0.851640       -23.1743
  31   2.0000      -0.812604       -22.1121
  32   2.0000      -0.782401       -21.2902
  33   2.0000      -0.766165       -20.8484
  34   2.0000      -0.707433       -19.2502
  35   2.0000      -0.699501       -19.0344
  36   2.0000      -0.686815       -18.6892
  37   2.0000      -0.654500       -17.8098
  38   2.0000      -0.647327       -17.6147
  39   2.0000      -0.613373       -16.6907
  40   2.0000      -0.590278       -16.0623
  41   2.0000      -0.569247       -15.4900
  42   2.0000      -0.566618       -15.4185
  43   2.0000      -0.557753       -15.1772
  44   2.0000      -0.530725       -14.4418
  45   2.0000      -0.524934       -14.2842
  46   2.0000      -0.517644       -14.0858
  47   2.0000      -0.510899       -13.9023
  48   2.0000      -0.507842       -13.8191
  49   2.0000      -0.503654       -13.7051
  50   2.0000      -0.487077       -13.2540
  51   2.0000      -0.478871       -13.0307
  52   2.0000      -0.472390       -12.8544
  53   2.0000      -0.465631       -12.6705
  54   2.0000      -0.459610       -12.5066
  55   2.0000      -0.444663       -12.0999
  56   2.0000      -0.437725       -11.9111
  57   2.0000      -0.435867       -11.8605
  58   2.0000      -0.432541       -11.7700
  59   2.0000      -0.430614       -11.7176
  60   2.0000      -0.417873       -11.3709
  61   2.0000      -0.410623       -11.1736
  62   2.0000      -0.408048       -11.1035
  63   2.0000      -0.341091        -9.2816
  64   2.0000      -0.325922        -8.8688
  65   2.0000      -0.319704        -8.6996
  66   2.0000      -0.305871        -8.3232
  67   0.0000       0.042815         1.1650
  68   0.0000       0.049988         1.3602
  69   0.0000       0.111496         3.0340
  70   0.0000       0.118218         3.2169
  71   0.0000       0.126906         3.4533

MULLIKEN ATOMIC CHARGES
-----------------------
   0 S :    0.119649
   1 C :   -0.146229
   2 C :   -0.069862
   3 C :    0.032748
   4 C :   -0.180489
   5 H :    0.039727
   6 C :    0.071388
   7 H :    0.029413
   8 H :    0.010818
   9 C :   -0.070797
  10 H :    0.006995
  11 H :    0.041653
  12 C :   -0.051488
  13 H :    0.032668
  14 H :    0.039472
  15 H :    0.029758
  16 S :    0.097985
  17 C :   -0.118585
  18 C :   -0.038055
  19 C :   -0.048135
  20 C :   -0.187774
  21 H :    0.025259
  22 C :    0.114355
  23 H :    0.025086
  24 H :    0.020452
  25 C :   -0.082425
  26 H :    0.032936
  27 H :    0.029809
  28 C :   -0.033849
  29 H :    0.021252
  30 H :    0.017421
  31 H :    0.040189
  32 H :    0.069348
  33 H :    0.079310
Sum of atomic charges:   -0.0000000

LOEWDIN ATOMIC CHARGES
----------------------
   0 S :    0.412902
   1 C :   -0.209300
   2 C :   -0.061764
   3 C :   -0.057421
   4 C :   -0.191954
   5 H :    0.044808
   6 C :   -0.035748
   7 H :    0.033736
   8 H :    0.028013
   9 C :   -0.048515
  10 H :    0.011846
  11 H :    0.033823
  12 C :   -0.061433
  13 H :    0.023517
  14 H :    0.030471
  15 H :    0.026286
  16 S :    0.386102
  17 C :   -0.194244
  18 C :   -0.079862
  19 C :   -0.050956
  20 C :   -0.199764
  21 H :    0.033185
  22 C :   -0.033725
  23 H :    0.029156
  24 H :    0.038531
  25 C :   -0.042553
  26 H :    0.031849
  27 H :    0.025425
  28 C :   -0.068112
  29 H :    0.019084
  30 H :    0.017411
  31 H :    0.035128
  32 H :    0.035095
  33 H :    0.038983

  Mayer bond orders larger than 0.100000
B(  0-S ,  1-C ) :   1.1334 B(  0-S ,  4-C ) :   1.1609 B(  1-C ,  2-C ) :   1.6215
B(  1-C , 32-H ) :   0.9632 B(  2-C ,  3-C ) :   1.2246 B(  2-C ,  6-C ) :   1.0144
B(  3-C ,  4-C ) :   1.6154 B(  3-C ,  5-H ) :   0.9817 B(  4-C , 20-C ) :   1.0206
B(  6-C ,  7-H ) :   0.9302 B(  6-C ,  8-H ) :   0.9420 B(  6-C ,  9-C ) :   1.0648
B(  9-C , 10-H ) :   0.9435 B(  9-C , 11-H ) :   0.9574 B(  9-C , 12-C ) :   1.0834
B( 12-C , 13-H ) :   0.9732 B( 12-C , 14-H ) :   0.9718 B( 12-C , 15-H ) :   0.9788
B( 16-S , 17-C ) :   1.1692 B( 16-S , 20-C ) :   1.1260 B( 17-C , 18-C ) :   1.6148
B( 17-C , 33-H ) :   0.9569 B( 18-C , 19-C ) :   1.2342 B( 18-C , 21-H ) :   0.9865
B( 19-C , 20-C ) :   1.6071 B( 19-C , 22-C ) :   1.0454 B( 22-C , 23-H ) :   0.9270
B( 22-C , 24-H ) :   0.9260 B( 22-C , 25-C ) :   1.0614 B( 25-C , 26-H ) :   0.9489
B( 25-C , 27-H ) :   0.9556 B( 25-C , 28-C ) :   1.0988 B( 28-C , 29-H ) :   0.9709
B( 28-C , 30-H ) :   0.9710 B( 28-C , 31-H ) :   0.9731

Dispersion correction           -0.013807811
FINAL SINGLE POINT ENERGY     -1339.863486428664

DIPOLE MOMENT
-------------
                                X             Y             Z
Electronic contribution:     21.23475     -11.24151     -11.29078
Nuclear contribution   :    -21.65977      11.47973      11.73006
                        -----------------------------------------
Total Dipole Moment    :     -0.42502       0.23822       0.43928
                        -----------------------------------------
Magnitude (a.u.)       :      0.65601
Magnitude (Debye)      :      1.66746

Rotational constants in cm-1:     0.019224     0.007566     0.006300
Rotational constants in MHz :   576.322465   226.837279   188.883912

                             ****ORCA TERMINATED NORMALLY****
TOTAL RUN TIME: 0 days 0 hours 0 minutes 20 seconds 885 msec
