                         Program Version 4.2.1 -  RELEASE  -
|  1> ! wB97X-D3 SP def2-SVP
|  2> %pal
|  3> nprocs 24
|  4> end
|  5>
|  6> * xyz 0 1
|  7> S 	 -64.9992 	 9.30245 	 20.4433
|  8> C 	 -63.7285 	 10.4266 	 20.372
|  9> C 	 -62.5473 	 9.87518 	 20.823
| 10> C 	 -62.746 	 8.54912 	 21.2626
| 11> C 	 -64.0146 	 8.02962 	 21.0419
| 12> H 	 -61.9548 	 7.98189 	 21.7733
| 13> C 	 -61.3149 	 10.7232 	 21.0686
| 14> H 	 -61.5859 	 11.738 	 20.875
| 15> H 	 -60.6591 	 10.4895 	 20.2074
| 16> C 	 -60.4683 	 10.5333 	 22.3825
| 17> H 	 -61.0267 	 10.9632 	 23.2246
| 18> H 	 -60.2206 	 9.53779 	 22.7079
| 19> C 	 -59.1382 	 11.2586 	 22.3331
| 20> H 	 -58.824 	 11.5091 	 23.4351
| 21> H 	 -58.3155 	 10.7905 	 21.8159
| 22> H 	 -59.2178 	 12.2975 	 21.9121
| 23> S 	 -65.9439 	 6.55976 	 22.3697
| 24> C 	 -66.0225 	 4.84503 	 22.0653
| 25> C 	 -64.915 	 4.37073 	 21.4297
| 26> C 	 -64.0882 	 5.43141 	 20.9457
| 27> C 	 -64.6366 	 6.68532 	 21.2256
| 28> H 	 -64.8326 	 3.28231 	 21.2846
| 29> C 	 -62.8318 	 5.12728 	 20.1398
| 30> H 	 -62.4361 	 4.14309 	 20.3115
| 31> H 	 -62.098 	 5.82282 	 20.4394
| 32> C 	 -63.0681 	 5.27565 	 18.6454
| 33> H 	 -63.5051 	 6.27552 	 18.5211
| 34> H 	 -63.8029 	 4.55895 	 18.3615
| 35> C 	 -61.7185 	 5.1247 	 17.9456
| 36> H 	 -61.3318 	 4.16655 	 17.996
| 37> H 	 -61.0137 	 5.84073 	 18.3542
| 38> H 	 -61.8479 	 5.25245 	 16.8543
| 39> H 	 -63.774 	 11.4645 	 20.0532
| 40> H 	 -66.7439 	 4.17892 	 22.533
| 41> *
| 42>
| 43>                          ****END OF INPUT****

CARTESIAN COORDINATES (ANGSTROEM)
---------------------------------
  S    -64.999200    9.302450   20.443300
  C    -63.728500   10.426600   20.372000
  C    -62.547300    9.875180   20.823000
  C    -62.746000    8.549120   21.262600
  C    -64.014600    8.029620   21.041900
  H    -61.954800    7.981890   21.773300
  C    -61.314900   10.723200   21.068600
  H    -61.585900   11.738000   20.875000
  H    -60.659100   10.489500   20.207400
  C    -60.468300   10.533300   22.382500
  H    -61.026700   10.963200   23.224600
  H    -60.220600    9.537790   22.707900
  C    -59.138200   11.258600   22.333100
  H    -58.824000   11.509100   23.435100
  H    -58.315500   10.790500   21.815900
  H    -59.217800   12.297500   21.912100
  S    -65.943900    6.559760   22.369700
  C    -66.022500    4.845030   22.065300
  C    -64.915000    4.370730   21.429700
  C    -64.088200    5.431410   20.945700
  C    -64.636600    6.685320   21.225600
  H    -64.832600    3.282310   21.284600
  C    -62.831800    5.127280   20.139800
  H    -62.436100    4.143090   20.311500
  H    -62.098000    5.822820   20.439400
  C    -63.068100    5.275650   18.645400
  H    -63.505100    6.275520   18.521100
  H    -63.802900    4.558950   18.361500
  C    -61.718500    5.124700   17.945600
  H    -61.331800    4.166550   17.996000
  H    -61.013700    5.840730   18.354200
  H    -61.847900    5.252450   16.854300
  H    -63.774000   11.464500   20.053200
  H    -66.743900    4.178920   22.533000

 Total Charge           Charge          ....    0
 Multiplicity           Mult            ....    1
 Number of Electrons    NEL             ....  134
 Basis Dimension        Dim             ....  322

ORBITAL ENERGIES
----------------

  NO   OCC          E(Eh)            E(eV)
   0   2.0000     -88.965519     -2420.8748
   1   2.0000     -88.963188     -2420.8114
   2   2.0000     -10.328072      -281.0411
   3   2.0000     -10.327415      -281.0233
   4   2.0000     -10.313337      -280.6402
   5   2.0000     -10.307373      -280.4779
   6   2.0000     -10.303971      -280.3853
   7   2.0000     -10.296280      -280.1760
   8   2.0000     -10.295759      -280.1618
   9   2.0000     -10.293316      -280.0954
  10   2.0000     -10.292878      -280.0835
  11   2.0000     -10.292581      -280.0754
  12   2.0000     -10.288064      -279.9524
  13   2.0000     -10.280705      -279.7522
  14   2.0000     -10.276981      -279.6509
  15   2.0000     -10.270388      -279.4715
  16   2.0000      -8.080574      -219.8836
  17   2.0000      -8.079320      -219.8495
  18   2.0000      -6.038981      -164.3290
  19   2.0000      -6.037605      -164.2916
  20   2.0000      -6.035260      -164.2278
  21   2.0000      -6.033396      -164.1770
  22   2.0000      -6.031203      -164.1174
  23   2.0000      -6.030473      -164.0975
  24   2.0000      -1.011876       -27.5346
  25   2.0000      -0.990960       -26.9654
  26   2.0000      -0.913797       -24.8657
  27   2.0000      -0.908919       -24.7329
  28   2.0000      -0.869728       -23.6665
  29   2.0000      -0.849788       -23.1239
  30   2.0000      -0.847459       -23.0605
  31   2.0000      -0.817387       -22.2422
  32   2.0000      -0.781810       -21.2741
  33   2.0000      -0.768639       -20.9157
  34   2.0000      -0.710440       -19.3321
  35   2.0000      -0.699695       -19.0397
  36   2.0000      -0.687801       -18.7160
  37   2.0000      -0.658016       -17.9055
  38   2.0000      -0.639699       -17.4071
  39   2.0000      -0.623766       -16.9735
  40   2.0000      -0.597151       -16.2493
  41   2.0000      -0.573834       -15.6148
  42   2.0000      -0.566759       -15.4223
  43   2.0000      -0.562654       -15.3106
  44   2.0000      -0.523878       -14.2554
  45   2.0000      -0.518613       -14.1122
  46   2.0000      -0.516079       -14.0432
  47   2.0000      -0.508983       -13.8501
  48   2.0000      -0.503163       -13.6918
  49   2.0000      -0.495776       -13.4908
  50   2.0000      -0.494262       -13.4496
  51   2.0000      -0.484596       -13.1865
  52   2.0000      -0.467626       -12.7248
  53   2.0000      -0.464994       -12.6531
  54   2.0000      -0.464358       -12.6358
  55   2.0000      -0.449139       -12.2217
  56   2.0000      -0.446349       -12.1458
  57   2.0000      -0.437392       -11.9020
  58   2.0000      -0.430419       -11.7123
  59   2.0000      -0.428848       -11.6695
  60   2.0000      -0.424187       -11.5427
  61   2.0000      -0.416347       -11.3294
  62   2.0000      -0.413662       -11.2563
  63   2.0000      -0.344917        -9.3857
  64   2.0000      -0.328986        -8.9522
  65   2.0000      -0.327992        -8.9251
  66   2.0000      -0.294003        -8.0002
  67   0.0000       0.032779         0.8920
  68   0.0000       0.072519         1.9733
  69   0.0000       0.107303         2.9199
  70   0.0000       0.132566         3.6073
  71   0.0000       0.135113         3.6766

MULLIKEN ATOMIC CHARGES
-----------------------
   0 S :    0.123458
   1 C :   -0.120931
   2 C :   -0.102675
   3 C :    0.016543
   4 C :   -0.181784
   5 H :    0.019316
   6 C :    0.080250
   7 H :    0.007111
   8 H :    0.034234
   9 C :   -0.043809
  10 H :    0.037455
  11 H :    0.031920
  12 C :   -0.109513
  13 H :    0.040951
  14 H :    0.043462
  15 H :    0.030294
  16 S :    0.113125
  17 C :   -0.087632
  18 C :   -0.047019
  19 C :   -0.041741
  20 C :   -0.131256
  21 H :    0.028751
  22 C :    0.098610
  23 H :    0.008580
  24 H :   -0.004759
  25 C :   -0.066263
  26 H :    0.037306
  27 H :    0.017926
  28 C :   -0.006357
  29 H :    0.010120
  30 H :    0.031771
  31 H :    0.031970
  32 H :    0.046872
  33 H :    0.053715
Sum of atomic charges:    0.0000000

LOEWDIN ATOMIC CHARGES
----------------------
   0 S :    0.448545
   1 C :   -0.218491
   2 C :   -0.072188
   3 C :   -0.072590
   4 C :   -0.211329
   5 H :    0.031396
   6 C :   -0.030540
   7 H :    0.026105
   8 H :    0.036648
   9 C :   -0.042127
  10 H :    0.030241
  11 H :    0.024360
  12 C :   -0.076064
  13 H :    0.038281
  14 H :    0.020700
  15 H :    0.026008
  16 S :    0.412521
  17 C :   -0.184261
  18 C :   -0.075272
  19 C :   -0.044900
  20 C :   -0.212755
  21 H :    0.038184
  22 C :   -0.025347
  23 H :    0.024964
  24 H :    0.019246
  25 C :   -0.030263
  26 H :    0.028389
  27 H :    0.018696
  28 C :   -0.058745
  29 H :    0.013887
  30 H :    0.027182
  31 H :    0.030435
  32 H :    0.030407
  33 H :    0.028678

  Mayer bond orders larger than 0.100000
B(  0-S ,  1-C ) :   1.1679 B(  0-S ,  4-C ) :   1.1886 B(  1-C ,  2-C ) :   1.5747
B(  1-C ,  4-C ) :   0.1043 B(  1-C , 32-H ) :   0.9652 B(  2-C ,  3-C ) :   1.2928
B(  2-C ,  6-C ) :   1.0175 B(  3-C ,  4-C ) :   1.5392 B(  3-C ,  5-H ) :   0.9917
B(  4-C , 20-C ) :   0.9913 B(  6-C ,  7-H ) :   0.9420 B(  6-C ,  8-H ) :   0.9304
B(  6-C ,  9-C ) :   1.0545 B(  9-C , 10-H ) :   0.9578 B(  9-C , 11-H ) :   0.9539
B(  9-C , 12-C ) :   1.0798 B( 12-C , 13-H ) :   0.9744 B( 12-C , 14-H ) :   0.9777
B( 12-C , 15-H ) :   0.9737 B( 16-S , 17-C ) :   1.1553 B( 16-S , 20-C ) :   1.1523
B( 17-C , 18-C ) :   1.6232 B( 17-C , 33-H ) :   0.9644 B( 18-C , 19-C ) :   1.2361
B( 18-C , 21-H ) :   0.9897 B( 19-C , 20-C ) :   1.5941 B( 19-C , 22-C ) :   1.0435
B( 22-C , 23-H ) :   0.9368 B( 22-C , 24-H ) :   0.9236 B( 22-C , 25-C ) :   1.0719
B( 25-C , 26-H ) :   0.9567 B( 25-C , 27-H ) :   0.9537 B( 25-C , 28-C ) :   1.0837
B( 28-C , 29-H ) :   0.9715 B( 28-C , 30-H ) :   0.9736 B( 28-C , 31-H ) :   0.9709

Dispersion correction           -0.013840443
FINAL SINGLE POINT ENERGY     -1339.878412167111

DIPOLE MOMENT
-------------
                                X             Y             Z
Electronic contribution:    -27.66087      -1.86408       6.32171
Nuclear contribution   :     28.29213       1.71119      -6.29206
                        -----------------------------------------
Total Dipole Moment    :      0.63126      -0.15289       0.02964
                        -----------------------------------------
Magnitude (a.u.)       :      0.65019
Magnitude (Debye)      :      1.65264

Rotational constants in cm-1:     0.017769     0.008238     0.006888
Rotational constants in MHz :   532.689648   246.974458   206.482199

                             ****ORCA TERMINATED NORMALLY****
TOTAL RUN TIME: 0 days 0 hours 0 minutes 22 seconds 584 msec
