                         Program Version 4.2.1 -  RELEASE  -
|  1> ! wB97X-D3 SP def2-SVP
|  2> %pal
|  3> nprocs 24
|  4> end
|  5>
|  6> * xyz 0 1
|  7> S 	 -53.808 	 14.9063 	 23.3616
|  8> C 	 -54.7191 	 13.6119 	 23.9411
|  9> C 	 -55.7828 	 14.0914 	 24.6797
| 10> C 	 -55.7028 	 15.4426 	 25.0473
| 11> C 	 -54.6983 	 16.0806 	 24.3612
| 12> H 	 -56.3268 	 16.065 	 25.6
| 13> C 	 -56.9658 	 13.2337 	 25.2098
| 14> H 	 -57.2105 	 13.4526 	 26.2775
| 15> H 	 -56.4959 	 12.2587 	 25.2241
| 16> C 	 -58.2455 	 13.2584 	 24.2834
| 17> H 	 -58.7773 	 14.1208 	 24.7635
| 18> H 	 -57.8201 	 13.6368 	 23.3867
| 19> C 	 -58.9715 	 11.9592 	 23.9025
| 20> H 	 -58.2776 	 11.3284 	 23.3575
| 21> H 	 -59.2569 	 11.2834 	 24.7546
| 22> H 	 -59.9189 	 12.1459 	 23.3267
| 23> S 	 -52.6064 	 17.8211 	 24.9069
| 24> C 	 -52.8908 	 19.5158 	 25.1279
| 25> C 	 -54.1884 	 19.8523 	 24.8
| 26> C 	 -54.9903 	 18.7577 	 24.5797
| 27> C 	 -54.2975 	 17.5318 	 24.5396
| 28> H 	 -54.5463 	 20.8832 	 24.8928
| 29> C 	 -56.4738 	 18.9401 	 24.1182
| 30> H 	 -56.8921 	 19.6491 	 24.8506
| 31> H 	 -57.0291 	 18.0036 	 24.1567
| 32> C 	 -56.6806 	 19.5056 	 22.6407
| 33> H 	 -56.2504 	 20.5205 	 22.6325
| 34> H 	 -57.7124 	 19.6981 	 22.4349
| 35> C 	 -55.8481 	 18.8271 	 21.5496
| 36> H 	 -56.298 	 17.7888 	 21.3675
| 37> H 	 -54.7862 	 18.77 	 21.5088
| 38> H 	 -56.0399 	 19.4031 	 20.6827
| 39> H 	 -54.6658 	 12.6263 	 23.5407
| 40> H 	 -52.0855 	 20.0682 	 25.4777
| 41> *
| 42>
| 43>                          ****END OF INPUT****

CARTESIAN COORDINATES (ANGSTROEM)
---------------------------------
  S    -53.808000   14.906300   23.361600
  C    -54.719100   13.611900   23.941100
  C    -55.782800   14.091400   24.679700
  C    -55.702800   15.442600   25.047300
  C    -54.698300   16.080600   24.361200
  H    -56.326800   16.065000   25.600000
  C    -56.965800   13.233700   25.209800
  H    -57.210500   13.452600   26.277500
  H    -56.495900   12.258700   25.224100
  C    -58.245500   13.258400   24.283400
  H    -58.777300   14.120800   24.763500
  H    -57.820100   13.636800   23.386700
  C    -58.971500   11.959200   23.902500
  H    -58.277600   11.328400   23.357500
  H    -59.256900   11.283400   24.754600
  H    -59.918900   12.145900   23.326700
  S    -52.606400   17.821100   24.906900
  C    -52.890800   19.515800   25.127900
  C    -54.188400   19.852300   24.800000
  C    -54.990300   18.757700   24.579700
  C    -54.297500   17.531800   24.539600
  H    -54.546300   20.883200   24.892800
  C    -56.473800   18.940100   24.118200
  H    -56.892100   19.649100   24.850600
  H    -57.029100   18.003600   24.156700
  C    -56.680600   19.505600   22.640700
  H    -56.250400   20.520500   22.632500
  H    -57.712400   19.698100   22.434900
  C    -55.848100   18.827100   21.549600
  H    -56.298000   17.788800   21.367500
  H    -54.786200   18.770000   21.508800
  H    -56.039900   19.403100   20.682700
  H    -54.665800   12.626300   23.540700
  H    -52.085500   20.068200   25.477700

 Total Charge           Charge          ....    0
 Multiplicity           Mult            ....    1
 Number of Electrons    NEL             ....  134
 Basis Dimension        Dim             ....  322

ORBITAL ENERGIES
----------------

  NO   OCC          E(Eh)            E(eV)
   0   2.0000     -88.966985     -2420.9147
   1   2.0000     -88.963942     -2420.8319
   2   2.0000     -10.333365      -281.1852
   3   2.0000     -10.332228      -281.1542
   4   2.0000     -10.313780      -280.6522
   5   2.0000     -10.308749      -280.5153
   6   2.0000     -10.304021      -280.3867
   7   2.0000     -10.299497      -280.2635
   8   2.0000     -10.297250      -280.2024
   9   2.0000     -10.293047      -280.0880
  10   2.0000     -10.292004      -280.0597
  11   2.0000     -10.289892      -280.0022
  12   2.0000     -10.289301      -279.9861
  13   2.0000     -10.288237      -279.9572
  14   2.0000     -10.285252      -279.8759
  15   2.0000     -10.272678      -279.5338
  16   2.0000      -8.082276      -219.9299
  17   2.0000      -8.079269      -219.8481
  18   2.0000      -6.040748      -164.3771
  19   2.0000      -6.037455      -164.2875
  20   2.0000      -6.036638      -164.2653
  21   2.0000      -6.033584      -164.1822
  22   2.0000      -6.033108      -164.1692
  23   2.0000      -6.030436      -164.0965
  24   2.0000      -1.009262       -27.4634
  25   2.0000      -0.992336       -27.0028
  26   2.0000      -0.900253       -24.4971
  27   2.0000      -0.898285       -24.4436
  28   2.0000      -0.868640       -23.6369
  29   2.0000      -0.853465       -23.2240
  30   2.0000      -0.846952       -23.0467
  31   2.0000      -0.814973       -22.1765
  32   2.0000      -0.781746       -21.2724
  33   2.0000      -0.770049       -20.9541
  34   2.0000      -0.703152       -19.1337
  35   2.0000      -0.696130       -18.9427
  36   2.0000      -0.694816       -18.9069
  37   2.0000      -0.662718       -18.0335
  38   2.0000      -0.651268       -17.7219
  39   2.0000      -0.615421       -16.7465
  40   2.0000      -0.597996       -16.2723
  41   2.0000      -0.571070       -15.5396
  42   2.0000      -0.551069       -14.9953
  43   2.0000      -0.545674       -14.8486
  44   2.0000      -0.539708       -14.6862
  45   2.0000      -0.520652       -14.1677
  46   2.0000      -0.516048       -14.0424
  47   2.0000      -0.511656       -13.9229
  48   2.0000      -0.502904       -13.6847
  49   2.0000      -0.499719       -13.5981
  50   2.0000      -0.490168       -13.3381
  51   2.0000      -0.480828       -13.0840
  52   2.0000      -0.478593       -13.0232
  53   2.0000      -0.469139       -12.7659
  54   2.0000      -0.468612       -12.7516
  55   2.0000      -0.451881       -12.2963
  56   2.0000      -0.439288       -11.9536
  57   2.0000      -0.424471       -11.5504
  58   2.0000      -0.422959       -11.5093
  59   2.0000      -0.419169       -11.4062
  60   2.0000      -0.417715       -11.3666
  61   2.0000      -0.411526       -11.1982
  62   2.0000      -0.402991       -10.9659
  63   2.0000      -0.352789        -9.5999
  64   2.0000      -0.335863        -9.1393
  65   2.0000      -0.327990        -8.9251
  66   2.0000      -0.290498        -7.9048
  67   0.0000       0.030558         0.8315
  68   0.0000       0.068838         1.8732
  69   0.0000       0.119131         3.2417
  70   0.0000       0.125807         3.4234
  71   0.0000       0.133315         3.6277

MULLIKEN ATOMIC CHARGES
-----------------------
   0 S :    0.115177
   1 C :   -0.098771
   2 C :   -0.122380
   3 C :    0.072532
   4 C :   -0.148831
   5 H :   -0.009649
   6 C :    0.030885
   7 H :    0.040575
   8 H :    0.005741
   9 C :   -0.051125
  10 H :    0.036299
  11 H :    0.026084
  12 C :   -0.062440
  13 H :    0.031126
  14 H :    0.035760
  15 H :    0.054263
  16 S :    0.102006
  17 C :   -0.086067
  18 C :   -0.025328
  19 C :   -0.040518
  20 C :   -0.165057
  21 H :    0.028223
  22 C :    0.057461
  23 H :    0.029960
  24 H :    0.024450
  25 C :   -0.066745
  26 H :    0.015350
  27 H :    0.033966
  28 C :   -0.043527
  29 H :    0.036767
  30 H :    0.043016
  31 H :    0.015463
  32 H :    0.046073
  33 H :    0.039259
Sum of atomic charges:   -0.0000000

LOEWDIN ATOMIC CHARGES
----------------------
   0 S :    0.420079
   1 C :   -0.218497
   2 C :   -0.063953
   3 C :   -0.058189
   4 C :   -0.179289
   5 H :    0.024005
   6 C :   -0.034699
   7 H :    0.030938
   8 H :    0.021712
   9 C :   -0.048729
  10 H :    0.030134
  11 H :    0.021710
  12 C :   -0.071888
  13 H :    0.025757
  14 H :    0.028092
  15 H :    0.037204
  16 S :    0.419901
  17 C :   -0.172570
  18 C :   -0.074867
  19 C :   -0.063486
  20 C :   -0.197049
  21 H :    0.037567
  22 C :   -0.028737
  23 H :    0.030536
  24 H :    0.023769
  25 C :   -0.038613
  26 H :    0.022615
  27 H :    0.024928
  28 C :   -0.069248
  29 H :    0.031070
  30 H :    0.027211
  31 H :    0.023024
  32 H :    0.026549
  33 H :    0.013011

  Mayer bond orders larger than 0.100000
B(  0-S ,  1-C ) :   1.1524 B(  0-S ,  4-C ) :   1.1653 B(  1-C ,  2-C ) :   1.5927
B(  1-C , 32-H ) :   0.9669 B(  2-C ,  3-C ) :   1.2395 B(  2-C ,  6-C ) :   1.0239
B(  3-C ,  4-C ) :   1.5703 B(  3-C ,  5-H ) :   1.0052 B(  4-C , 20-C ) :   1.0046
B(  6-C ,  7-H ) :   0.9539 B(  6-C ,  8-H ) :   0.9441 B(  6-C ,  9-C ) :   1.0267
B(  9-C , 10-H ) :   0.9590 B(  9-C , 11-H ) :   0.9629 B(  9-C , 12-C ) :   1.0716
B( 12-C , 13-H ) :   0.9718 B( 12-C , 14-H ) :   0.9784 B( 12-C , 15-H ) :   0.9740
B( 16-S , 17-C ) :   1.1901 B( 16-S , 20-C ) :   1.1696 B( 17-C , 18-C ) :   1.5317
B( 17-C , 20-C ) :   0.1145 B( 17-C , 33-H ) :   0.9838 B( 18-C , 19-C ) :   1.2937
B( 18-C , 21-H ) :   0.9908 B( 19-C , 20-C ) :   1.5526 B( 19-C , 22-C ) :   1.0358
B( 22-C , 23-H ) :   0.9366 B( 22-C , 24-H ) :   0.9441 B( 22-C , 25-C ) :   1.0621
B( 25-C , 26-H ) :   0.9541 B( 25-C , 27-H ) :   0.9589 B( 25-C , 28-C ) :   1.0710
B( 28-C , 29-H ) :   0.9767 B( 28-C , 30-H ) :   0.9743 B( 28-C , 31-H ) :   0.9701

Dispersion correction           -0.014645531
FINAL SINGLE POINT ENERGY     -1339.852889825112

DIPOLE MOMENT
-------------
                                X             Y             Z
Electronic contribution:     25.33470       3.90511       6.05911
Nuclear contribution   :    -25.84203      -3.69963      -6.10760
                        -----------------------------------------
Total Dipole Moment    :     -0.50733       0.20547      -0.04849
                        -----------------------------------------
Magnitude (a.u.)       :      0.54950
Magnitude (Debye)      :      1.39673

Rotational constants in cm-1:     0.020910     0.008053     0.006770
Rotational constants in MHz :   626.860336   241.422448   202.968154

                             ****ORCA TERMINATED NORMALLY****
TOTAL RUN TIME: 0 days 0 hours 0 minutes 22 seconds 700 msec
