                         Program Version 4.2.1 -  RELEASE  -
|  1> ! wB97X-D3 SP def2-SVP
|  2> %pal
|  3> nprocs 24
|  4> end
|  5>
|  6> * xyz 0 1
|  7> S 	 46.2454 	 -35.9979 	 -120.967
|  8> C 	 46.4273 	 -35.4474 	 -122.614
|  9> C 	 46.4915 	 -34.0523 	 -122.725
| 10> C 	 46.8739 	 -33.5621 	 -121.457
| 11> C 	 46.7906 	 -34.4309 	 -120.397
| 12> H 	 47.3819 	 -32.6242 	 -121.427
| 13> C 	 46.3115 	 -33.193 	 -124.035
| 14> H 	 46.329 	 -33.9596 	 -124.832
| 15> H 	 47.2117 	 -32.5518 	 -124.135
| 16> C 	 44.9619 	 -32.4061 	 -124.06
| 17> H 	 44.7143 	 -31.9603 	 -125.017
| 18> H 	 44.1217 	 -33.1802 	 -123.979
| 19> C 	 44.6574 	 -31.2798 	 -123.033
| 20> H 	 45.5267 	 -30.5654 	 -123.11
| 21> H 	 43.7233 	 -30.679 	 -123.276
| 22> H 	 44.6849 	 -31.7428 	 -122.041
| 23> S 	 48.126 	 -35.4594 	 -118.159
| 24> C 	 48.0098 	 -34.547 	 -116.715
| 25> C 	 47.4806 	 -33.3436 	 -116.846
| 26> C 	 46.9732 	 -33.0876 	 -118.193
| 27> C 	 47.1448 	 -34.2329 	 -118.991
| 28> H 	 47.4481 	 -32.6116 	 -116.04
| 29> C 	 46.3942 	 -31.7516 	 -118.597
| 30> H 	 45.6945 	 -31.4032 	 -117.913
| 31> H 	 45.8187 	 -31.9087 	 -119.465
| 32> C 	 47.4848 	 -30.6923 	 -118.973
| 33> H 	 48.2235 	 -31.0789 	 -119.676
| 34> H 	 47.9802 	 -30.4795 	 -118.071
| 35> C 	 46.8163 	 -29.4145 	 -119.56
| 36> H 	 46.4818 	 -29.5816 	 -120.574
| 37> H 	 47.6247 	 -28.7042 	 -119.471
| 38> H 	 46.0253 	 -28.9637 	 -118.964
| 39> H 	 45.9478 	 -36.0254 	 -123.469
| 40> H 	 48.4619 	 -34.8122 	 -115.849
| 41> *
| 42>
| 43>                          ****END OF INPUT****

CARTESIAN COORDINATES (ANGSTROEM)
---------------------------------
  S     46.245400  -35.997900  -120.967000
  C     46.427300  -35.447400  -122.614000
  C     46.491500  -34.052300  -122.725000
  C     46.873900  -33.562100  -121.457000
  C     46.790600  -34.430900  -120.397000
  H     47.381900  -32.624200  -121.427000
  C     46.311500  -33.193000  -124.035000
  H     46.329000  -33.959600  -124.832000
  H     47.211700  -32.551800  -124.135000
  C     44.961900  -32.406100  -124.060000
  H     44.714300  -31.960300  -125.017000
  H     44.121700  -33.180200  -123.979000
  C     44.657400  -31.279800  -123.033000
  H     45.526700  -30.565400  -123.110000
  H     43.723300  -30.679000  -123.276000
  H     44.684900  -31.742800  -122.041000
  S     48.126000  -35.459400  -118.159000
  C     48.009800  -34.547000  -116.715000
  C     47.480600  -33.343600  -116.846000
  C     46.973200  -33.087600  -118.193000
  C     47.144800  -34.232900  -118.991000
  H     47.448100  -32.611600  -116.040000
  C     46.394200  -31.751600  -118.597000
  H     45.694500  -31.403200  -117.913000
  H     45.818700  -31.908700  -119.465000
  C     47.484800  -30.692300  -118.973000
  H     48.223500  -31.078900  -119.676000
  H     47.980200  -30.479500  -118.071000
  C     46.816300  -29.414500  -119.560000
  H     46.481800  -29.581600  -120.574000
  H     47.624700  -28.704200  -119.471000
  H     46.025300  -28.963700  -118.964000
  H     45.947800  -36.025400  -123.469000
  H     48.461900  -34.812200  -115.849000

 Total Charge           Charge          ....    0
 Multiplicity           Mult            ....    1
 Number of Electrons    NEL             ....  134
 Basis Dimension        Dim             ....  322

ORBITAL ENERGIES
----------------

  NO   OCC          E(Eh)            E(eV)
   0   2.0000     -88.966351     -2420.8975
   1   2.0000     -88.963640     -2420.8237
   2   2.0000     -10.329232      -281.0727
   3   2.0000     -10.327872      -281.0357
   4   2.0000     -10.316485      -280.7258
   5   2.0000     -10.312062      -280.6055
   6   2.0000     -10.305269      -280.4206
   7   2.0000     -10.305259      -280.4204
   8   2.0000     -10.301034      -280.3054
   9   2.0000     -10.297527      -280.2099
  10   2.0000     -10.291214      -280.0382
  11   2.0000     -10.289324      -279.9868
  12   2.0000     -10.288185      -279.9557
  13   2.0000     -10.287645      -279.9411
  14   2.0000     -10.281487      -279.7735
  15   2.0000     -10.278734      -279.6986
  16   2.0000      -8.081086      -219.8975
  17   2.0000      -8.078899      -219.8380
  18   2.0000      -6.039548      -164.3445
  19   2.0000      -6.037415      -164.2864
  20   2.0000      -6.035749      -164.2411
  21   2.0000      -6.033563      -164.1816
  22   2.0000      -6.031737      -164.1319
  23   2.0000      -6.029384      -164.0679
  24   2.0000      -1.006859       -27.3980
  25   2.0000      -0.986441       -26.8424
  26   2.0000      -0.909213       -24.7409
  27   2.0000      -0.903225       -24.5780
  28   2.0000      -0.867661       -23.6103
  29   2.0000      -0.851639       -23.1743
  30   2.0000      -0.843972       -22.9656
  31   2.0000      -0.815965       -22.2035
  32   2.0000      -0.787160       -21.4197
  33   2.0000      -0.771966       -21.0063
  34   2.0000      -0.707712       -19.2578
  35   2.0000      -0.698801       -19.0153
  36   2.0000      -0.693874       -18.8813
  37   2.0000      -0.658615       -17.9218
  38   2.0000      -0.631390       -17.1810
  39   2.0000      -0.622828       -16.9480
  40   2.0000      -0.601773       -16.3751
  41   2.0000      -0.569895       -15.5076
  42   2.0000      -0.566977       -15.4282
  43   2.0000      -0.550639       -14.9836
  44   2.0000      -0.537844       -14.6355
  45   2.0000      -0.524729       -14.2786
  46   2.0000      -0.514021       -13.9872
  47   2.0000      -0.511810       -13.9271
  48   2.0000      -0.502601       -13.6765
  49   2.0000      -0.489271       -13.3137
  50   2.0000      -0.488320       -13.2879
  51   2.0000      -0.487404       -13.2629
  52   2.0000      -0.470861       -12.8128
  53   2.0000      -0.465656       -12.6711
  54   2.0000      -0.455077       -12.3833
  55   2.0000      -0.452061       -12.3012
  56   2.0000      -0.446430       -12.1480
  57   2.0000      -0.443250       -12.0614
  58   2.0000      -0.434585       -11.8257
  59   2.0000      -0.427154       -11.6235
  60   2.0000      -0.420306       -11.4371
  61   2.0000      -0.415442       -11.3048
  62   2.0000      -0.413279       -11.2459
  63   2.0000      -0.353201        -9.6111
  64   2.0000      -0.331620        -9.0238
  65   2.0000      -0.327301        -8.9063
  66   2.0000      -0.289360        -7.8739
  67   0.0000       0.025616         0.6970
  68   0.0000       0.075096         2.0435
  69   0.0000       0.106204         2.8900
  70   0.0000       0.116488         3.1698
  71   0.0000       0.123129         3.3505

MULLIKEN ATOMIC CHARGES
-----------------------
   0 S :    0.110835
   1 C :   -0.130896
   2 C :   -0.145511
   3 C :    0.012129
   4 C :   -0.132678
   5 H :   -0.000709
   6 C :    0.081174
   7 H :    0.030162
   8 H :    0.044793
   9 C :   -0.093299
  10 H :    0.028423
  11 H :    0.031356
  12 C :   -0.096757
  13 H :    0.034888
  14 H :    0.058422
  15 H :    0.059377
  16 S :    0.109417
  17 C :   -0.019727
  18 C :   -0.030352
  19 C :   -0.064886
  20 C :   -0.143534
  21 H :    0.015380
  22 C :    0.126054
  23 H :    0.007204
  24 H :   -0.006989
  25 C :   -0.078879
  26 H :    0.037684
  27 H :    0.013874
  28 C :   -0.030977
  29 H :    0.039621
  30 H :    0.028592
  31 H :    0.029767
  32 H :    0.067216
  33 H :    0.008828
Sum of atomic charges:    0.0000000

LOEWDIN ATOMIC CHARGES
----------------------
   0 S :    0.404611
   1 C :   -0.215591
   2 C :   -0.061350
   3 C :   -0.071057
   4 C :   -0.186769
   5 H :    0.025197
   6 C :   -0.023863
   7 H :    0.037311
   8 H :    0.033227
   9 C :   -0.052325
  10 H :    0.021680
  11 H :    0.030267
  12 C :   -0.076387
  13 H :    0.024969
  14 H :    0.039564
  15 H :    0.025057
  16 S :    0.402287
  17 C :   -0.174568
  18 C :   -0.070102
  19 C :   -0.039924
  20 C :   -0.196450
  21 H :    0.032215
  22 C :   -0.027279
  23 H :    0.022149
  24 H :    0.021780
  25 C :   -0.023877
  26 H :    0.025763
  27 H :    0.014354
  28 C :   -0.061567
  29 H :    0.024320
  30 H :    0.027654
  31 H :    0.025388
  32 H :    0.034128
  33 H :    0.009187

  Mayer bond orders larger than 0.100000
B(  0-S ,  1-C ) :   1.1449 B(  0-S ,  4-C ) :   1.1512 B(  1-C ,  2-C ) :   1.6293
B(  1-C , 32-H ) :   0.9456 B(  2-C ,  3-C ) :   1.2497 B(  2-C ,  6-C ) :   1.0071
B(  3-C ,  4-C ) :   1.5720 B(  3-C ,  5-H ) :   0.9902 B(  4-C , 20-C ) :   1.0490
B(  6-C ,  7-H ) :   0.9393 B(  6-C ,  8-H ) :   0.9484 B(  6-C ,  9-C ) :   1.0567
B(  9-C , 10-H ) :   0.9602 B(  9-C , 11-H ) :   0.9533 B(  9-C , 12-C ) :   1.0714
B( 12-C , 13-H ) :   0.9730 B( 12-C , 14-H ) :   0.9696 B( 12-C , 15-H ) :   0.9739
B( 16-S , 17-C ) :   1.1360 B( 16-S , 20-C ) :   1.1287 B( 17-C , 18-C ) :   1.6496
B( 17-C , 33-H ) :   0.9711 B( 18-C , 19-C ) :   1.2098 B( 18-C , 21-H ) :   0.9910
B( 19-C , 20-C ) :   1.6090 B( 19-C , 22-C ) :   1.0578 B( 22-C , 23-H ) :   0.9274
B( 22-C , 24-H ) :   0.9216 B( 22-C , 25-C ) :   1.0526 B( 25-C , 26-H ) :   0.9550
B( 25-C , 27-H ) :   0.9581 B( 25-C , 28-C ) :   1.0794 B( 28-C , 29-H ) :   0.9759
B( 28-C , 30-H ) :   0.9741 B( 28-C , 31-H ) :   0.9738

Dispersion correction           -0.015485755
FINAL SINGLE POINT ENERGY     -1339.863045142746

DIPOLE MOMENT
-------------
                                X             Y             Z
Electronic contribution:      7.50192     -29.06823      11.83538
Nuclear contribution   :     -7.59538      29.89014     -11.97336
                        -----------------------------------------
Total Dipole Moment    :     -0.09346       0.82191      -0.13799
                        -----------------------------------------
Magnitude (a.u.)       :      0.83864
Magnitude (Debye)      :      2.13164

Rotational constants in cm-1:     0.017065     0.010699     0.006968
Rotational constants in MHz :   511.610398   320.745676   208.895701

                             ****ORCA TERMINATED NORMALLY****
TOTAL RUN TIME: 0 days 0 hours 0 minutes 22 seconds 663 msec
