                         Program Version 4.2.1 -  RELEASE  -
|  1> ! wB97X-D3 SP def2-SVP
|  2> %pal
|  3> nprocs 24
|  4> end
|  5>
|  6> * xyz 0 1
|  7> S 	 -82.4424 	 -27.656 	 -55.2991
|  8> C 	 -80.7625 	 -27.653 	 -55.6898
|  9> C 	 -79.9918 	 -28.3916 	 -54.817
| 10> C 	 -80.7975 	 -28.799 	 -53.6921
| 11> C 	 -82.0983 	 -28.3972 	 -53.7386
| 12> H 	 -80.5121 	 -29.355 	 -52.8414
| 13> C 	 -78.5981 	 -28.6937 	 -54.9869
| 14> H 	 -78.4878 	 -29.557 	 -55.5768
| 15> H 	 -78.2671 	 -29.0223 	 -54.0105
| 16> C 	 -77.6046 	 -27.5528 	 -55.4038
| 17> H 	 -76.6149 	 -28.0226 	 -55.6729
| 18> H 	 -77.9161 	 -26.9979 	 -56.2434
| 19> C 	 -77.3567 	 -26.5352 	 -54.2583
| 20> H 	 -78.25 	 -26.0493 	 -53.8102
| 21> H 	 -76.8433 	 -27.0159 	 -53.4477
| 22> H 	 -76.6427 	 -25.8281 	 -54.6544
| 23> S 	 -83.9674 	 -27.0917 	 -52.1558
| 24> C 	 -85.0387 	 -28.0413 	 -51.0703
| 25> C 	 -84.4868 	 -29.3283 	 -50.9156
| 26> C 	 -83.529 	 -29.6821 	 -51.9529
| 27> C 	 -83.1376 	 -28.5882 	 -52.7629
| 28> H 	 -84.8852 	 -29.9894 	 -50.2034
| 29> C 	 -83.0975 	 -31.1125 	 -51.9928
| 30> H 	 -82.3939 	 -31.2151 	 -51.1621
| 31> H 	 -82.6474 	 -31.3351 	 -52.9423
| 32> C 	 -84.1095 	 -32.249 	 -51.7825
| 33> H 	 -84.4671 	 -32.2768 	 -50.7449
| 34> H 	 -83.6026 	 -33.1753 	 -51.9625
| 35> C 	 -85.268 	 -32.3512 	 -52.7307
| 36> H 	 -85.7476 	 -33.3106 	 -52.5996
| 37> H 	 -84.8171 	 -32.2815 	 -53.71
| 38> H 	 -85.8413 	 -31.5182 	 -52.6211
| 39> H 	 -80.3668 	 -27.3594 	 -56.6505
| 40> H 	 -85.8201 	 -27.5835 	 -50.4274
| 41> *
| 42>
| 43>                          ****END OF INPUT****

CARTESIAN COORDINATES (ANGSTROEM)
---------------------------------
  S    -82.442400  -27.656000  -55.299100
  C    -80.762500  -27.653000  -55.689800
  C    -79.991800  -28.391600  -54.817000
  C    -80.797500  -28.799000  -53.692100
  C    -82.098300  -28.397200  -53.738600
  H    -80.512100  -29.355000  -52.841400
  C    -78.598100  -28.693700  -54.986900
  H    -78.487800  -29.557000  -55.576800
  H    -78.267100  -29.022300  -54.010500
  C    -77.604600  -27.552800  -55.403800
  H    -76.614900  -28.022600  -55.672900
  H    -77.916100  -26.997900  -56.243400
  C    -77.356700  -26.535200  -54.258300
  H    -78.250000  -26.049300  -53.810200
  H    -76.843300  -27.015900  -53.447700
  H    -76.642700  -25.828100  -54.654400
  S    -83.967400  -27.091700  -52.155800
  C    -85.038700  -28.041300  -51.070300
  C    -84.486800  -29.328300  -50.915600
  C    -83.529000  -29.682100  -51.952900
  C    -83.137600  -28.588200  -52.762900
  H    -84.885200  -29.989400  -50.203400
  C    -83.097500  -31.112500  -51.992800
  H    -82.393900  -31.215100  -51.162100
  H    -82.647400  -31.335100  -52.942300
  C    -84.109500  -32.249000  -51.782500
  H    -84.467100  -32.276800  -50.744900
  H    -83.602600  -33.175300  -51.962500
  C    -85.268000  -32.351200  -52.730700
  H    -85.747600  -33.310600  -52.599600
  H    -84.817100  -32.281500  -53.710000
  H    -85.841300  -31.518200  -52.621100
  H    -80.366800  -27.359400  -56.650500
  H    -85.820100  -27.583500  -50.427400

 Total Charge           Charge          ....    0
 Multiplicity           Mult            ....    1
 Number of Electrons    NEL             ....  134
 Basis Dimension        Dim             ....  322

ORBITAL ENERGIES
----------------

  NO   OCC          E(Eh)            E(eV)
   0   2.0000     -88.963235     -2420.8127
   1   2.0000     -88.961926     -2420.7771
   2   2.0000     -10.333180      -281.1801
   3   2.0000     -10.328734      -281.0591
   4   2.0000     -10.325019      -280.9581
   5   2.0000     -10.311043      -280.5777
   6   2.0000     -10.308590      -280.5110
   7   2.0000     -10.297190      -280.2008
   8   2.0000     -10.296680      -280.1869
   9   2.0000     -10.292861      -280.0830
  10   2.0000     -10.291026      -280.0330
  11   2.0000     -10.290683      -280.0237
  12   2.0000     -10.283884      -279.8387
  13   2.0000     -10.280703      -279.7521
  14   2.0000     -10.275441      -279.6090
  15   2.0000     -10.262299      -279.2514
  16   2.0000      -8.078376      -219.8238
  17   2.0000      -8.075142      -219.7358
  18   2.0000      -6.036836      -164.2707
  19   2.0000      -6.033868      -164.1899
  20   2.0000      -6.032924      -164.1642
  21   2.0000      -6.029916      -164.0824
  22   2.0000      -6.029064      -164.0592
  23   2.0000      -6.025678      -163.9670
  24   2.0000      -1.004258       -27.3273
  25   2.0000      -0.975110       -26.5341
  26   2.0000      -0.916803       -24.9475
  27   2.0000      -0.912353       -24.8264
  28   2.0000      -0.867898       -23.6167
  29   2.0000      -0.853285       -23.2191
  30   2.0000      -0.847706       -23.0673
  31   2.0000      -0.814920       -22.1751
  32   2.0000      -0.785358       -21.3707
  33   2.0000      -0.772818       -21.0294
  34   2.0000      -0.710967       -19.3464
  35   2.0000      -0.706205       -19.2168
  36   2.0000      -0.688928       -18.7467
  37   2.0000      -0.660348       -17.9690
  38   2.0000      -0.643729       -17.5168
  39   2.0000      -0.611300       -16.6343
  40   2.0000      -0.595520       -16.2049
  41   2.0000      -0.576016       -15.6742
  42   2.0000      -0.559026       -15.2119
  43   2.0000      -0.557873       -15.1805
  44   2.0000      -0.554998       -15.1023
  45   2.0000      -0.537603       -14.6289
  46   2.0000      -0.520875       -14.1737
  47   2.0000      -0.513582       -13.9753
  48   2.0000      -0.503399       -13.6982
  49   2.0000      -0.500073       -13.6077
  50   2.0000      -0.493356       -13.4249
  51   2.0000      -0.475066       -12.9272
  52   2.0000      -0.467700       -12.7268
  53   2.0000      -0.464106       -12.6290
  54   2.0000      -0.460263       -12.5244
  55   2.0000      -0.443026       -12.0554
  56   2.0000      -0.439948       -11.9716
  57   2.0000      -0.435219       -11.8429
  58   2.0000      -0.433257       -11.7895
  59   2.0000      -0.430528       -11.7153
  60   2.0000      -0.422669       -11.5014
  61   2.0000      -0.418309       -11.3828
  62   2.0000      -0.409783       -11.1508
  63   2.0000      -0.344426        -9.3723
  64   2.0000      -0.326902        -8.8955
  65   2.0000      -0.322338        -8.7713
  66   2.0000      -0.292499        -7.9593
  67   0.0000       0.024182         0.6580
  68   0.0000       0.066631         1.8131
  69   0.0000       0.103961         2.8289
  70   0.0000       0.112201         3.0531
  71   0.0000       0.136469         3.7135

MULLIKEN ATOMIC CHARGES
-----------------------
   0 S :    0.119097
   1 C :   -0.108226
   2 C :   -0.106954
   3 C :    0.050818
   4 C :   -0.170887
   5 H :   -0.008909
   6 C :    0.111714
   7 H :    0.030215
   8 H :    0.000736
   9 C :   -0.079824
  10 H :    0.033860
  11 H :    0.024213
  12 C :   -0.058225
  13 H :    0.055983
  14 H :    0.018640
  15 H :    0.031921
  16 S :    0.080840
  17 C :   -0.107108
  18 C :   -0.021190
  19 C :   -0.040930
  20 C :   -0.140051
  21 H :    0.009909
  22 C :    0.070759
  23 H :    0.044212
  24 H :    0.021660
  25 C :   -0.110569
  26 H :    0.020165
  27 H :    0.019331
  28 C :    0.022034
  29 H :    0.038530
  30 H :    0.012809
  31 H :    0.012912
  32 H :    0.042469
  33 H :    0.080046
Sum of atomic charges:   -0.0000000

LOEWDIN ATOMIC CHARGES
----------------------
   0 S :    0.411026
   1 C :   -0.198051
   2 C :   -0.066214
   3 C :   -0.049880
   4 C :   -0.197924
   5 H :    0.025497
   6 C :   -0.035434
   7 H :    0.030455
   8 H :    0.030474
   9 C :   -0.029893
  10 H :    0.032406
  11 H :    0.013289
  12 C :   -0.065951
  13 H :    0.033208
  14 H :    0.019179
  15 H :    0.026023
  16 S :    0.359046
  17 C :   -0.170175
  18 C :   -0.064330
  19 C :   -0.051590
  20 C :   -0.185630
  21 H :    0.021566
  22 C :   -0.034572
  23 H :    0.041531
  24 H :    0.028075
  25 C :   -0.041796
  26 H :    0.016011
  27 H :    0.024318
  28 C :   -0.049513
  29 H :    0.029565
  30 H :    0.025751
  31 H :    0.010650
  32 H :    0.024577
  33 H :    0.038307

  Mayer bond orders larger than 0.100000
B(  0-S ,  1-C ) :   1.1440 B(  0-S ,  4-C ) :   1.1421 B(  1-C ,  2-C ) :   1.6087
B(  1-C , 32-H ) :   0.9666 B(  2-C ,  3-C ) :   1.2192 B(  2-C ,  6-C ) :   1.0334
B(  3-C ,  4-C ) :   1.5945 B(  3-C ,  5-H ) :   1.0039 B(  4-C , 20-C ) :   1.0520
B(  6-C ,  7-H ) :   0.9175 B(  6-C ,  8-H ) :   0.9345 B(  6-C ,  9-C ) :   1.0706
B(  9-C , 10-H ) :   0.9542 B(  9-C , 11-H ) :   0.9621 B(  9-C , 12-C ) :   1.0763
B( 12-C , 13-H ) :   0.9772 B( 12-C , 14-H ) :   0.9742 B( 12-C , 15-H ) :   0.9746
B( 16-S , 17-C ) :   1.1428 B( 16-S , 20-C ) :   1.1183 B( 17-C , 18-C ) :   1.6104
B( 17-C , 20-C ) :   0.1020 B( 17-C , 33-H ) :   0.9642 B( 18-C , 19-C ) :   1.2181
B( 18-C , 21-H ) :   0.9902 B( 19-C , 20-C ) :   1.5920 B( 19-C , 22-C ) :   1.0492
B( 22-C , 23-H ) :   0.9250 B( 22-C , 24-H ) :   0.9354 B( 22-C , 25-C ) :   1.0901
B( 25-C , 26-H ) :   0.9471 B( 25-C , 27-H ) :   0.9536 B( 25-C , 28-C ) :   1.0815
B( 28-C , 29-H ) :   0.9731 B( 28-C , 30-H ) :   0.9692 B( 28-C , 31-H ) :   0.9727

Dispersion correction           -0.014036778
FINAL SINGLE POINT ENERGY     -1339.861524061845

DIPOLE MOMENT
-------------
                                X             Y             Z
Electronic contribution:    -13.42375      13.97863      -1.44131
Nuclear contribution   :     13.88594     -14.60273       1.64264
                        -----------------------------------------
Total Dipole Moment    :      0.46219      -0.62410       0.20133
                        -----------------------------------------
Magnitude (a.u.)       :      0.80228
Magnitude (Debye)      :      2.03924

Rotational constants in cm-1:     0.022507     0.007231     0.006468
Rotational constants in MHz :   674.737370   216.780060   193.901654

                             ****ORCA TERMINATED NORMALLY****
TOTAL RUN TIME: 0 days 0 hours 0 minutes 21 seconds 340 msec
