                         Program Version 4.2.1 -  RELEASE  -
|  1> ! wB97X-D3 SP def2-SVP
|  2> %pal
|  3> nprocs 24
|  4> end
|  5>
|  6> * xyz 0 1
|  7> S 	 -71.425 	 3.39144 	 -69.1867
|  8> C 	 -70.8464 	 4.13371 	 -67.7356
|  9> C 	 -71.4787 	 3.7081 	 -66.556
| 10> C 	 -72.5492 	 2.80753 	 -66.8631
| 11> C 	 -72.7346 	 2.60676 	 -68.2085
| 12> H 	 -73.1447 	 2.22471 	 -66.2114
| 13> C 	 -71.0247 	 4.06568 	 -65.2031
| 14> H 	 -71.8633 	 3.97115 	 -64.4932
| 15> H 	 -70.8236 	 5.07797 	 -65.3367
| 16> C 	 -69.8646 	 3.24738 	 -64.5842
| 17> H 	 -70.2314 	 2.19547 	 -64.4246
| 18> H 	 -69.0486 	 3.21827 	 -65.3041
| 19> C 	 -69.3204 	 3.9609 	 -63.3459
| 20> H 	 -70.1179 	 4.28155 	 -62.6622
| 21> H 	 -68.6433 	 3.23526 	 -62.9086
| 22> H 	 -68.7553 	 4.81072 	 -63.6953
| 23> S 	 -73.1404 	 -0.0316087 	 -69.0763
| 24> C 	 -74.6881 	 -0.569984 	 -69.6626
| 25> C 	 -75.6744 	 0.346041 	 -69.295
| 26> C 	 -75.0768 	 1.57643 	 -68.7979
| 27> C 	 -73.6791 	 1.61297 	 -68.8118
| 28> H 	 -76.723 	 0.0997194 	 -69.4942
| 29> C 	 -75.9535 	 2.74666 	 -68.5069
| 30> H 	 -76.7762 	 2.63538 	 -69.0975
| 31> H 	 -75.4866 	 3.62566 	 -68.8812
| 32> C 	 -76.3851 	 2.91027 	 -67.0845
| 33> H 	 -75.454 	 2.93524 	 -66.5815
| 34> H 	 -76.858 	 2.0068 	 -66.7522
| 35> C 	 -77.278 	 4.14248 	 -66.8013
| 36> H 	 -78.3007 	 4.05162 	 -67.3207
| 37> H 	 -76.853 	 5.06345 	 -67.1923
| 38> H 	 -77.3976 	 4.15335 	 -65.6997
| 39> H 	 -70.0569 	 4.95199 	 -67.6938
| 40> H 	 -74.9173 	 -1.63928 	 -69.8311
| 41> *
| 42>
| 43>                          ****END OF INPUT****

CARTESIAN COORDINATES (ANGSTROEM)
---------------------------------
  S    -71.425000    3.391440  -69.186700
  C    -70.846400    4.133710  -67.735600
  C    -71.478700    3.708100  -66.556000
  C    -72.549200    2.807530  -66.863100
  C    -72.734600    2.606760  -68.208500
  H    -73.144700    2.224710  -66.211400
  C    -71.024700    4.065680  -65.203100
  H    -71.863300    3.971150  -64.493200
  H    -70.823600    5.077970  -65.336700
  C    -69.864600    3.247380  -64.584200
  H    -70.231400    2.195470  -64.424600
  H    -69.048600    3.218270  -65.304100
  C    -69.320400    3.960900  -63.345900
  H    -70.117900    4.281550  -62.662200
  H    -68.643300    3.235260  -62.908600
  H    -68.755300    4.810720  -63.695300
  S    -73.140400   -0.031609  -69.076300
  C    -74.688100   -0.569984  -69.662600
  C    -75.674400    0.346041  -69.295000
  C    -75.076800    1.576430  -68.797900
  C    -73.679100    1.612970  -68.811800
  H    -76.723000    0.099719  -69.494200
  C    -75.953500    2.746660  -68.506900
  H    -76.776200    2.635380  -69.097500
  H    -75.486600    3.625660  -68.881200
  C    -76.385100    2.910270  -67.084500
  H    -75.454000    2.935240  -66.581500
  H    -76.858000    2.006800  -66.752200
  C    -77.278000    4.142480  -66.801300
  H    -78.300700    4.051620  -67.320700
  H    -76.853000    5.063450  -67.192300
  H    -77.397600    4.153350  -65.699700
  H    -70.056900    4.951990  -67.693800
  H    -74.917300   -1.639280  -69.831100

 Total Charge           Charge          ....    0
 Multiplicity           Mult            ....    1
 Number of Electrons    NEL             ....  134
 Basis Dimension        Dim             ....  322

ORBITAL ENERGIES
----------------

  NO   OCC          E(Eh)            E(eV)
   0   2.0000     -88.970359     -2421.0065
   1   2.0000     -88.959944     -2420.7232
   2   2.0000     -10.334699      -281.2215
   3   2.0000     -10.327299      -281.0201
   4   2.0000     -10.321440      -280.8607
   5   2.0000     -10.318532      -280.7815
   6   2.0000     -10.303342      -280.3682
   7   2.0000     -10.301045      -280.3057
   8   2.0000     -10.298118      -280.2260
   9   2.0000     -10.295623      -280.1582
  10   2.0000     -10.291028      -280.0331
  11   2.0000     -10.285704      -279.8882
  12   2.0000     -10.285314      -279.8776
  13   2.0000     -10.279777      -279.7270
  14   2.0000     -10.274749      -279.5901
  15   2.0000     -10.267658      -279.3972
  16   2.0000      -8.084286      -219.9846
  17   2.0000      -8.075041      -219.7330
  18   2.0000      -6.042732      -164.4311
  19   2.0000      -6.039042      -164.3307
  20   2.0000      -6.035026      -164.2214
  21   2.0000      -6.033470      -164.1791
  22   2.0000      -6.029573      -164.0730
  23   2.0000      -6.025768      -163.9695
  24   2.0000      -1.001633       -27.2558
  25   2.0000      -0.982514       -26.7356
  26   2.0000      -0.914961       -24.8974
  27   2.0000      -0.913908       -24.8687
  28   2.0000      -0.866033       -23.5660
  29   2.0000      -0.855372       -23.2759
  30   2.0000      -0.843748       -22.9595
  31   2.0000      -0.817428       -22.2434
  32   2.0000      -0.779349       -21.2072
  33   2.0000      -0.765858       -20.8400
  34   2.0000      -0.704238       -19.1633
  35   2.0000      -0.700032       -19.0488
  36   2.0000      -0.690142       -18.7797
  37   2.0000      -0.657985       -17.9047
  38   2.0000      -0.643722       -17.5166
  39   2.0000      -0.618174       -16.8214
  40   2.0000      -0.592343       -16.1185
  41   2.0000      -0.579044       -15.7566
  42   2.0000      -0.567431       -15.4406
  43   2.0000      -0.556106       -15.1324
  44   2.0000      -0.530190       -14.4272
  45   2.0000      -0.527395       -14.3512
  46   2.0000      -0.513113       -13.9625
  47   2.0000      -0.508310       -13.8318
  48   2.0000      -0.505852       -13.7649
  49   2.0000      -0.500243       -13.6123
  50   2.0000      -0.487234       -13.2583
  51   2.0000      -0.477560       -12.9951
  52   2.0000      -0.471279       -12.8241
  53   2.0000      -0.464725       -12.6458
  54   2.0000      -0.458687       -12.4815
  55   2.0000      -0.446532       -12.1508
  56   2.0000      -0.442094       -12.0300
  57   2.0000      -0.439811       -11.9679
  58   2.0000      -0.436731       -11.8840
  59   2.0000      -0.427218       -11.6252
  60   2.0000      -0.423692       -11.5292
  61   2.0000      -0.413020       -11.2389
  62   2.0000      -0.412185       -11.2161
  63   2.0000      -0.343519        -9.3476
  64   2.0000      -0.324963        -8.8427
  65   2.0000      -0.320043        -8.7088
  66   2.0000      -0.303402        -8.2560
  67   0.0000       0.034403         0.9361
  68   0.0000       0.051123         1.3911
  69   0.0000       0.110706         3.0125
  70   0.0000       0.115539         3.1440
  71   0.0000       0.122394         3.3305

MULLIKEN ATOMIC CHARGES
-----------------------
   0 S :    0.119326
   1 C :   -0.132287
   2 C :   -0.101334
   3 C :    0.067374
   4 C :   -0.189273
   5 H :    0.013263
   6 C :    0.071470
   7 H :    0.019779
   8 H :    0.008551
   9 C :   -0.082536
  10 H :    0.039129
  11 H :    0.023205
  12 C :   -0.025749
  13 H :    0.037884
  14 H :    0.038686
  15 H :    0.031680
  16 S :    0.094614
  17 C :   -0.100867
  18 C :   -0.042443
  19 C :   -0.084918
  20 C :   -0.132123
  21 H :    0.033300
  22 C :    0.129397
  23 H :   -0.021982
  24 H :    0.012551
  25 C :   -0.048361
  26 H :   -0.001293
  27 H :    0.012228
  28 C :   -0.050376
  29 H :    0.039792
  30 H :    0.033746
  31 H :    0.046022
  32 H :    0.066749
  33 H :    0.074793
Sum of atomic charges:    0.0000000

LOEWDIN ATOMIC CHARGES
----------------------
   0 S :    0.395139
   1 C :   -0.208059
   2 C :   -0.065994
   3 C :   -0.045304
   4 C :   -0.181748
   5 H :    0.027912
   6 C :   -0.037489
   7 H :    0.031672
   8 H :    0.023926
   9 C :   -0.035760
  10 H :    0.028415
  11 H :    0.021404
  12 C :   -0.060321
  13 H :    0.026024
  14 H :    0.029069
  15 H :    0.025675
  16 S :    0.406317
  17 C :   -0.195044
  18 C :   -0.074904
  19 C :   -0.048807
  20 C :   -0.208890
  21 H :    0.036143
  22 C :   -0.028894
  23 H :    0.013262
  24 H :    0.028778
  25 C :   -0.037178
  26 H :    0.015843
  27 H :    0.020050
  28 C :   -0.065707
  29 H :    0.032905
  30 H :    0.023542
  31 H :    0.031879
  32 H :    0.039293
  33 H :    0.036849

  Mayer bond orders larger than 0.100000
B(  0-S ,  1-C ) :   1.1522 B(  0-S ,  4-C ) :   1.1312 B(  1-C ,  2-C ) :   1.6060
B(  1-C , 32-H ) :   0.9547 B(  2-C ,  3-C ) :   1.2274 B(  2-C ,  6-C ) :   1.0292
B(  3-C ,  4-C ) :   1.6030 B(  3-C ,  5-H ) :   0.9897 B(  4-C , 20-C ) :   1.0046
B(  6-C ,  7-H ) :   0.9348 B(  6-C ,  8-H ) :   0.9334 B(  6-C ,  9-C ) :   1.0605
B(  9-C , 10-H ) :   0.9559 B(  9-C , 11-H ) :   0.9574 B(  9-C , 12-C ) :   1.0728
B( 12-C , 13-H ) :   0.9752 B( 12-C , 14-H ) :   0.9736 B( 12-C , 15-H ) :   0.9761
B( 16-S , 17-C ) :   1.1737 B( 16-S , 20-C ) :   1.1412 B( 17-C , 18-C ) :   1.5937
B( 17-C , 33-H ) :   0.9589 B( 18-C , 19-C ) :   1.2518 B( 18-C , 21-H ) :   0.9882
B( 19-C , 20-C ) :   1.5841 B( 19-C , 22-C ) :   1.0523 B( 22-C , 23-H ) :   0.9239
B( 22-C , 24-H ) :   0.9295 B( 22-C , 25-C ) :   1.0626 B( 25-C , 26-H ) :   0.9481
B( 25-C , 27-H ) :   0.9503 B( 25-C , 28-C ) :   1.0831 B( 28-C , 29-H ) :   0.9734
B( 28-C , 30-H ) :   0.9742 B( 28-C , 31-H ) :   0.9745

Dispersion correction           -0.014074885
FINAL SINGLE POINT ENERGY     -1339.863571251474

DIPOLE MOMENT
-------------
                                X             Y             Z
Electronic contribution:      5.75675     -11.95350     -22.28728
Nuclear contribution   :     -5.94280      12.08623      22.90892
                        -----------------------------------------
Total Dipole Moment    :     -0.18605       0.13273       0.62165
                        -----------------------------------------
Magnitude (a.u.)       :      0.66233
Magnitude (Debye)      :      1.68350

Rotational constants in cm-1:     0.017971     0.007957     0.006677
Rotational constants in MHz :   538.758800   238.543512   200.163006

                             ****ORCA TERMINATED NORMALLY****
TOTAL RUN TIME: 0 days 0 hours 0 minutes 21 seconds 235 msec
