                         Program Version 4.2.1 -  RELEASE  -
|  1> ! wB97X-D3 SP def2-SVP
|  2> %pal
|  3> nprocs 24
|  4> end
|  5>
|  6> * xyz 0 1
|  7> S 	 -60.1911 	 -54.4742 	 -85.7992
|  8> C 	 -61.7734 	 -53.8407 	 -86.0134
|  9> C 	 -62.6728 	 -54.8623 	 -85.8262
| 10> C 	 -62.0865 	 -56.1847 	 -85.612
| 11> C 	 -60.715 	 -56.1334 	 -85.6014
| 12> H 	 -62.5272 	 -57.1582 	 -85.3466
| 13> C 	 -64.2282 	 -54.7052 	 -85.7615
| 14> H 	 -64.5451 	 -53.6805 	 -85.7176
| 15> H 	 -64.4596 	 -55.2328 	 -84.8536
| 16> C 	 -64.895 	 -55.3731 	 -86.9841
| 17> H 	 -64.524 	 -54.9571 	 -87.9544
| 18> H 	 -64.6346 	 -56.446 	 -86.96
| 19> C 	 -66.4129 	 -55.3006 	 -86.9634
| 20> H 	 -66.8643 	 -55.8816 	 -87.7767
| 21> H 	 -66.8872 	 -55.5691 	 -85.9953
| 22> H 	 -66.752 	 -54.2601 	 -87.0049
| 23> S 	 -58.674 	 -57.2226 	 -84.0477
| 24> C 	 -58.1671 	 -58.8293 	 -84.3455
| 25> C 	 -58.9521 	 -59.4733 	 -85.3479
| 26> C 	 -59.9857 	 -58.6318 	 -85.8921
| 27> C 	 -59.8524 	 -57.2918 	 -85.4093
| 28> H 	 -58.7944 	 -60.5152 	 -85.333
| 29> C 	 -61.0027 	 -59.1413 	 -86.825
| 30> H 	 -61.304 	 -58.301 	 -87.4458
| 31> H 	 -61.8564 	 -59.408 	 -86.2014
| 32> C 	 -60.3749 	 -60.2446 	 -87.7791
| 33> H 	 -61.1691 	 -60.7666 	 -88.2681
| 34> H 	 -59.8325 	 -61.048 	 -87.3121
| 35> C 	 -59.4727 	 -59.745 	 -88.8711
| 36> H 	 -59.9418 	 -58.9346 	 -89.4058
| 37> H 	 -59.2508 	 -60.4942 	 -89.5853
| 38> H 	 -58.5274 	 -59.3634 	 -88.6217
| 39> H 	 -61.9803 	 -52.7816 	 -85.8915
| 40> H 	 -57.5421 	 -59.3925 	 -83.6439
| 41> *
| 42>
| 43>                          ****END OF INPUT****

CARTESIAN COORDINATES (ANGSTROEM)
---------------------------------
  S    -60.191100  -54.474200  -85.799200
  C    -61.773400  -53.840700  -86.013400
  C    -62.672800  -54.862300  -85.826200
  C    -62.086500  -56.184700  -85.612000
  C    -60.715000  -56.133400  -85.601400
  H    -62.527200  -57.158200  -85.346600
  C    -64.228200  -54.705200  -85.761500
  H    -64.545100  -53.680500  -85.717600
  H    -64.459600  -55.232800  -84.853600
  C    -64.895000  -55.373100  -86.984100
  H    -64.524000  -54.957100  -87.954400
  H    -64.634600  -56.446000  -86.960000
  C    -66.412900  -55.300600  -86.963400
  H    -66.864300  -55.881600  -87.776700
  H    -66.887200  -55.569100  -85.995300
  H    -66.752000  -54.260100  -87.004900
  S    -58.674000  -57.222600  -84.047700
  C    -58.167100  -58.829300  -84.345500
  C    -58.952100  -59.473300  -85.347900
  C    -59.985700  -58.631800  -85.892100
  C    -59.852400  -57.291800  -85.409300
  H    -58.794400  -60.515200  -85.333000
  C    -61.002700  -59.141300  -86.825000
  H    -61.304000  -58.301000  -87.445800
  H    -61.856400  -59.408000  -86.201400
  C    -60.374900  -60.244600  -87.779100
  H    -61.169100  -60.766600  -88.268100
  H    -59.832500  -61.048000  -87.312100
  C    -59.472700  -59.745000  -88.871100
  H    -59.941800  -58.934600  -89.405800
  H    -59.250800  -60.494200  -89.585300
  H    -58.527400  -59.363400  -88.621700
  H    -61.980300  -52.781600  -85.891500
  H    -57.542100  -59.392500  -83.643900

 Total Charge           Charge          ....    0
 Multiplicity           Mult            ....    1
 Number of Electrons    NEL             ....  134
 Basis Dimension        Dim             ....  322

ORBITAL ENERGIES
----------------

  NO   OCC          E(Eh)            E(eV)
   0   2.0000     -88.967545     -2420.9300
   1   2.0000     -88.960149     -2420.7287
   2   2.0000     -10.331692      -281.1396
   3   2.0000     -10.328477      -281.0521
   4   2.0000     -10.320642      -280.8389
   5   2.0000     -10.312525      -280.6181
   6   2.0000     -10.311339      -280.5858
   7   2.0000     -10.306910      -280.4653
   8   2.0000     -10.296905      -280.1930
   9   2.0000     -10.296663      -280.1864
  10   2.0000     -10.294994      -280.1410
  11   2.0000     -10.291881      -280.0563
  12   2.0000     -10.289381      -279.9883
  13   2.0000     -10.286078      -279.8984
  14   2.0000     -10.279046      -279.7071
  15   2.0000     -10.264083      -279.2999
  16   2.0000      -8.082033      -219.9233
  17   2.0000      -8.075709      -219.7512
  18   2.0000      -6.040372      -164.3669
  19   2.0000      -6.036505      -164.2616
  20   2.0000      -6.034307      -164.2019
  21   2.0000      -6.033064      -164.1680
  22   2.0000      -6.030013      -164.0850
  23   2.0000      -6.026394      -163.9865
  24   2.0000      -1.004401       -27.3311
  25   2.0000      -0.981346       -26.7038
  26   2.0000      -0.913678       -24.8624
  27   2.0000      -0.906752       -24.6740
  28   2.0000      -0.872536       -23.7429
  29   2.0000      -0.854676       -23.2569
  30   2.0000      -0.842608       -22.9285
  31   2.0000      -0.812764       -22.1164
  32   2.0000      -0.784900       -21.3582
  33   2.0000      -0.769608       -20.9421
  34   2.0000      -0.714504       -19.4426
  35   2.0000      -0.697939       -18.9919
  36   2.0000      -0.692593       -18.8464
  37   2.0000      -0.654553       -17.8113
  38   2.0000      -0.643422       -17.5084
  39   2.0000      -0.618072       -16.8186
  40   2.0000      -0.595680       -16.2093
  41   2.0000      -0.565777       -15.3956
  42   2.0000      -0.562694       -15.3117
  43   2.0000      -0.559831       -15.2338
  44   2.0000      -0.532761       -14.4972
  45   2.0000      -0.526472       -14.3260
  46   2.0000      -0.524447       -14.2709
  47   2.0000      -0.514065       -13.9884
  48   2.0000      -0.504287       -13.7223
  49   2.0000      -0.496605       -13.5133
  50   2.0000      -0.489119       -13.3096
  51   2.0000      -0.481851       -13.1118
  52   2.0000      -0.471543       -12.8313
  53   2.0000      -0.464672       -12.6444
  54   2.0000      -0.460292       -12.5252
  55   2.0000      -0.450528       -12.2595
  56   2.0000      -0.444158       -12.0861
  57   2.0000      -0.439464       -11.9584
  58   2.0000      -0.436716       -11.8836
  59   2.0000      -0.425555       -11.5800
  60   2.0000      -0.417365       -11.3571
  61   2.0000      -0.413726       -11.2580
  62   2.0000      -0.407307       -11.0834
  63   2.0000      -0.349270        -9.5041
  64   2.0000      -0.330347        -8.9892
  65   2.0000      -0.323991        -8.8162
  66   2.0000      -0.290582        -7.9071
  67   0.0000       0.025728         0.7001
  68   0.0000       0.070935         1.9302
  69   0.0000       0.108892         2.9631
  70   0.0000       0.121883         3.3166
  71   0.0000       0.130911         3.5623

MULLIKEN ATOMIC CHARGES
-----------------------
   0 S :    0.096149
   1 C :   -0.108682
   2 C :   -0.107640
   3 C :   -0.003334
   4 C :   -0.146276
   5 H :    0.026051
   6 C :    0.091219
   7 H :    0.012405
   8 H :    0.028404
   9 C :   -0.097380
  10 H :    0.041102
  11 H :    0.027775
  12 C :   -0.043216
  13 H :    0.044464
  14 H :    0.021675
  15 H :    0.019492
  16 S :    0.111725
  17 C :   -0.102786
  18 C :   -0.046017
  19 C :   -0.052812
  20 C :   -0.151713
  21 H :    0.013127
  22 C :    0.072949
  23 H :    0.038367
  24 H :    0.051889
  25 C :   -0.051904
  26 H :    0.015303
  27 H :    0.023257
  28 C :   -0.016378
  29 H :    0.017418
  30 H :    0.021170
  31 H :    0.022123
  32 H :    0.064246
  33 H :    0.067827
Sum of atomic charges:   -0.0000000

LOEWDIN ATOMIC CHARGES
----------------------
   0 S :    0.408226
   1 C :   -0.216573
   2 C :   -0.055569
   3 C :   -0.075127
   4 C :   -0.196392
   5 H :    0.036711
   6 C :   -0.022772
   7 H :    0.022236
   8 H :    0.030015
   9 C :   -0.044566
  10 H :    0.030729
  11 H :    0.022859
  12 C :   -0.074895
  13 H :    0.029076
  14 H :    0.025703
  15 H :    0.022392
  16 S :    0.411399
  17 C :   -0.196790
  18 C :   -0.076496
  19 C :   -0.042495
  20 C :   -0.195692
  21 H :    0.025053
  22 C :   -0.031195
  23 H :    0.036984
  24 H :    0.038264
  25 C :   -0.033471
  26 H :    0.022406
  27 H :    0.021660
  28 C :   -0.057718
  29 H :    0.023894
  30 H :    0.025291
  31 H :    0.019492
  32 H :    0.035109
  33 H :    0.032251

  Mayer bond orders larger than 0.100000
B(  0-S ,  1-C ) :   1.1280 B(  0-S ,  4-C ) :   1.1544 B(  1-C ,  2-C ) :   1.6334
B(  1-C , 32-H ) :   0.9666 B(  2-C ,  3-C ) :   1.2112 B(  2-C ,  6-C ) :   1.0181
B(  3-C ,  4-C ) :   1.5805 B(  3-C ,  5-H ) :   0.9884 B(  4-C , 20-C ) :   1.0518
B(  6-C ,  7-H ) :   0.9494 B(  6-C ,  8-H ) :   0.9388 B(  6-C ,  9-C ) :   1.0631
B(  9-C , 10-H ) :   0.9555 B(  9-C , 11-H ) :   0.9561 B(  9-C , 12-C ) :   1.0861
B( 12-C , 13-H ) :   0.9742 B( 12-C , 14-H ) :   0.9711 B( 12-C , 15-H ) :   0.9714
B( 16-S , 17-C ) :   1.1896 B( 16-S , 20-C ) :   1.1440 B( 17-C , 18-C ) :   1.5792
B( 17-C , 20-C ) :   0.1068 B( 17-C , 33-H ) :   0.9602 B( 18-C , 19-C ) :   1.2522
B( 18-C , 21-H ) :   0.9933 B( 19-C , 20-C ) :   1.5434 B( 19-C , 22-C ) :   1.0407
B( 22-C , 23-H ) :   0.9346 B( 22-C , 24-H ) :   0.9242 B( 22-C , 25-C ) :   1.0630
B( 25-C , 26-H ) :   0.9521 B( 25-C , 27-H ) :   0.9534 B( 25-C , 28-C ) :   1.0870
B( 28-C , 29-H ) :   0.9709 B( 28-C , 30-H ) :   0.9701 B( 28-C , 31-H ) :   0.9723

Dispersion correction           -0.013971676
FINAL SINGLE POINT ENERGY     -1339.868595753813

DIPOLE MOMENT
-------------
                                X             Y             Z
Electronic contribution:     21.30411      10.21996      15.45859
Nuclear contribution   :    -21.88650     -10.74008     -15.42555
                        -----------------------------------------
Total Dipole Moment    :     -0.58239      -0.52011       0.03304
                        -----------------------------------------
Magnitude (a.u.)       :      0.78153
Magnitude (Debye)      :      1.98648

Rotational constants in cm-1:     0.018043     0.008389     0.006527
Rotational constants in MHz :   540.909211   251.510140   195.668352

                             ****ORCA TERMINATED NORMALLY****
TOTAL RUN TIME: 0 days 0 hours 0 minutes 21 seconds 410 msec
