                         Program Version 4.2.1 -  RELEASE  -
|  1> ! wB97X-D3 SP def2-SVP
|  2> %pal
|  3> nprocs 24
|  4> end
|  5>
|  6> * xyz 0 1
|  7> S 	 29.7364 	 -0.324254 	 -118.413
|  8> C 	 28.129 	 0.0743366 	 -118.096
|  9> C 	 27.6463 	 -0.588223 	 -116.941
| 10> C 	 28.5867 	 -1.46885 	 -116.412
| 11> C 	 29.7542 	 -1.55867 	 -117.14
| 12> H 	 28.3798 	 -2.13669 	 -115.606
| 13> C 	 26.2499 	 -0.497284 	 -116.312
| 14> H 	 25.8064 	 -1.49496 	 -116.283
| 15> H 	 25.6781 	 0.0315277 	 -117.077
| 16> C 	 26.2321 	 0.207466 	 -114.878
| 17> H 	 26.9663 	 -0.255938 	 -114.18
| 18> H 	 26.6607 	 1.22677 	 -114.851
| 19> C 	 24.9333 	 0.383806 	 -114.116
| 20> H 	 24.2106 	 0.799678 	 -114.779
| 21> H 	 24.4956 	 -0.586237 	 -113.752
| 22> H 	 25.07 	 1.03178 	 -113.194
| 23> S 	 31.8928 	 -3.21185 	 -117.989
| 24> C 	 33.0639 	 -3.61876 	 -116.81
| 25> C 	 32.6542 	 -3.32582 	 -115.544
| 26> C 	 31.4501 	 -2.59264 	 -115.516
| 27> C 	 30.9528 	 -2.29975 	 -116.78
| 28> H 	 33.2628 	 -3.49775 	 -114.673
| 29> C 	 30.8941 	 -1.99275 	 -114.244
| 30> H 	 30.2922 	 -1.18793 	 -114.566
| 31> H 	 31.62 	 -1.52164 	 -113.538
| 32> C 	 30.0021 	 -2.90861 	 -113.341
| 33> H 	 30.6184 	 -3.66882 	 -112.882
| 34> H 	 29.2583 	 -3.41158 	 -114.018
| 35> C 	 29.2147 	 -2.17263 	 -112.19
| 36> H 	 28.3455 	 -1.53897 	 -112.64
| 37> H 	 29.9268 	 -1.46484 	 -111.713
| 38> H 	 28.8235 	 -2.7811 	 -111.388
| 39> H 	 27.5346 	 0.748598 	 -118.645
| 40> H 	 34.0237 	 -4.12488 	 -116.997
| 41> *
| 42>
| 43>                          ****END OF INPUT****

CARTESIAN COORDINATES (ANGSTROEM)
---------------------------------
  S     29.736400   -0.324254  -118.413000
  C     28.129000    0.074337  -118.096000
  C     27.646300   -0.588223  -116.941000
  C     28.586700   -1.468850  -116.412000
  C     29.754200   -1.558670  -117.140000
  H     28.379800   -2.136690  -115.606000
  C     26.249900   -0.497284  -116.312000
  H     25.806400   -1.494960  -116.283000
  H     25.678100    0.031528  -117.077000
  C     26.232100    0.207466  -114.878000
  H     26.966300   -0.255938  -114.180000
  H     26.660700    1.226770  -114.851000
  C     24.933300    0.383806  -114.116000
  H     24.210600    0.799678  -114.779000
  H     24.495600   -0.586237  -113.752000
  H     25.070000    1.031780  -113.194000
  S     31.892800   -3.211850  -117.989000
  C     33.063900   -3.618760  -116.810000
  C     32.654200   -3.325820  -115.544000
  C     31.450100   -2.592640  -115.516000
  C     30.952800   -2.299750  -116.780000
  H     33.262800   -3.497750  -114.673000
  C     30.894100   -1.992750  -114.244000
  H     30.292200   -1.187930  -114.566000
  H     31.620000   -1.521640  -113.538000
  C     30.002100   -2.908610  -113.341000
  H     30.618400   -3.668820  -112.882000
  H     29.258300   -3.411580  -114.018000
  C     29.214700   -2.172630  -112.190000
  H     28.345500   -1.538970  -112.640000
  H     29.926800   -1.464840  -111.713000
  H     28.823500   -2.781100  -111.388000
  H     27.534600    0.748598  -118.645000
  H     34.023700   -4.124880  -116.997000

 Total Charge           Charge          ....    0
 Multiplicity           Mult            ....    1
 Number of Electrons    NEL             ....  134
 Basis Dimension        Dim             ....  322

ORBITAL ENERGIES
----------------

  NO   OCC          E(Eh)            E(eV)
   0   2.0000     -88.969512     -2420.9835
   1   2.0000     -88.966050     -2420.8893
   2   2.0000     -10.328916      -281.0641
   3   2.0000     -10.328125      -281.0426
   4   2.0000     -10.315159      -280.6897
   5   2.0000     -10.313159      -280.6353
   6   2.0000     -10.302404      -280.3427
   7   2.0000     -10.301864      -280.3280
   8   2.0000     -10.300665      -280.2953
   9   2.0000     -10.295163      -280.1456
  10   2.0000     -10.294467      -280.1267
  11   2.0000     -10.291941      -280.0579
  12   2.0000     -10.289200      -279.9834
  13   2.0000     -10.288798      -279.9724
  14   2.0000     -10.287867      -279.9471
  15   2.0000     -10.284286      -279.8497
  16   2.0000      -8.084788      -219.9983
  17   2.0000      -8.081105      -219.8980
  18   2.0000      -6.043114      -164.4415
  19   2.0000      -6.039548      -164.3445
  20   2.0000      -6.039095      -164.3321
  21   2.0000      -6.035848      -164.2438
  22   2.0000      -6.035643      -164.2382
  23   2.0000      -6.031836      -164.1346
  24   2.0000      -1.010958       -27.5096
  25   2.0000      -0.991175       -26.9712
  26   2.0000      -0.904035       -24.6000
  27   2.0000      -0.902836       -24.5674
  28   2.0000      -0.871494       -23.7146
  29   2.0000      -0.857087       -23.3225
  30   2.0000      -0.848162       -23.0797
  31   2.0000      -0.815674       -22.1956
  32   2.0000      -0.782030       -21.2801
  33   2.0000      -0.767837       -20.8939
  34   2.0000      -0.706710       -19.2306
  35   2.0000      -0.696878       -18.9630
  36   2.0000      -0.695089       -18.9143
  37   2.0000      -0.662128       -18.0174
  38   2.0000      -0.644363       -17.5340
  39   2.0000      -0.625615       -17.0238
  40   2.0000      -0.598199       -16.2778
  41   2.0000      -0.567447       -15.4410
  42   2.0000      -0.562282       -15.3005
  43   2.0000      -0.549945       -14.9648
  44   2.0000      -0.531648       -14.4669
  45   2.0000      -0.520735       -14.1699
  46   2.0000      -0.517523       -14.0825
  47   2.0000      -0.512872       -13.9560
  48   2.0000      -0.501678       -13.6514
  49   2.0000      -0.500748       -13.6260
  50   2.0000      -0.494412       -13.4536
  51   2.0000      -0.480354       -13.0711
  52   2.0000      -0.469559       -12.7773
  53   2.0000      -0.465469       -12.6661
  54   2.0000      -0.462999       -12.5988
  55   2.0000      -0.454659       -12.3719
  56   2.0000      -0.446789       -12.1578
  57   2.0000      -0.436376       -11.8744
  58   2.0000      -0.427576       -11.6349
  59   2.0000      -0.426793       -11.6136
  60   2.0000      -0.421267       -11.4632
  61   2.0000      -0.420818       -11.4510
  62   2.0000      -0.408590       -11.1183
  63   2.0000      -0.351957        -9.5772
  64   2.0000      -0.335043        -9.1170
  65   2.0000      -0.332717        -9.0537
  66   2.0000      -0.288202        -7.8424
  67   0.0000       0.023075         0.6279
  68   0.0000       0.076849         2.0912
  69   0.0000       0.113289         3.0828
  70   0.0000       0.121254         3.2995
  71   0.0000       0.124203         3.3797

MULLIKEN ATOMIC CHARGES
-----------------------
   0 S :    0.127969
   1 C :   -0.089364
   2 C :   -0.113912
   3 C :    0.021325
   4 C :   -0.133603
   5 H :   -0.009230
   6 C :    0.099559
   7 H :    0.039299
   8 H :    0.012563
   9 C :   -0.098561
  10 H :    0.020369
  11 H :    0.028446
  12 C :   -0.057809
  13 H :    0.028150
  14 H :    0.031253
  15 H :    0.047871
  16 S :    0.113336
  17 C :   -0.091520
  18 C :   -0.019780
  19 C :   -0.020535
  20 C :   -0.149352
  21 H :    0.012381
  22 C :    0.044573
  23 H :    0.013913
  24 H :    0.029696
  25 C :   -0.088366
  26 H :    0.028366
  27 H :    0.037570
  28 C :   -0.082022
  29 H :    0.048141
  30 H :    0.031221
  31 H :    0.044368
  32 H :    0.028653
  33 H :    0.065033
Sum of atomic charges:    0.0000000

LOEWDIN ATOMIC CHARGES
----------------------
   0 S :    0.435373
   1 C :   -0.209070
   2 C :   -0.065792
   3 C :   -0.056817
   4 C :   -0.191001
   5 H :    0.028047
   6 C :   -0.026462
   7 H :    0.033672
   8 H :    0.028181
   9 C :   -0.054531
  10 H :    0.022615
  11 H :    0.030890
  12 C :   -0.071163
  13 H :    0.018993
  14 H :    0.024641
  15 H :    0.037432
  16 S :    0.406872
  17 C :   -0.193839
  18 C :   -0.072676
  19 C :   -0.051786
  20 C :   -0.191791
  21 H :    0.031300
  22 C :   -0.034676
  23 H :    0.022995
  24 H :    0.032508
  25 C :   -0.040778
  26 H :    0.019722
  27 H :    0.021899
  28 C :   -0.075348
  29 H :    0.032445
  30 H :    0.025951
  31 H :    0.025489
  32 H :    0.019862
  33 H :    0.036843

  Mayer bond orders larger than 0.100000
B(  0-S ,  1-C ) :   1.1747 B(  0-S ,  4-C ) :   1.1577 B(  1-C ,  2-C ) :   1.5533
B(  1-C ,  4-C ) :   0.1055 B(  1-C , 32-H ) :   0.9722 B(  2-C ,  3-C ) :   1.2988
B(  2-C ,  6-C ) :   1.0271 B(  3-C ,  4-C ) :   1.5250 B(  3-C ,  5-H ) :   0.9983
B(  4-C , 20-C ) :   1.0552 B(  6-C ,  7-H ) :   0.9459 B(  6-C ,  8-H ) :   0.9370
B(  6-C ,  9-C ) :   1.0328 B(  9-C , 10-H ) :   0.9552 B(  9-C , 11-H ) :   0.9519
B(  9-C , 12-C ) :   1.0926 B( 12-C , 13-H ) :   0.9744 B( 12-C , 14-H ) :   0.9735
B( 12-C , 15-H ) :   0.9724 B( 16-S , 17-C ) :   1.1611 B( 16-S , 20-C ) :   1.1297
B( 17-C , 18-C ) :   1.5971 B( 17-C , 33-H ) :   0.9620 B( 18-C , 19-C ) :   1.2575
B( 18-C , 21-H ) :   0.9951 B( 19-C , 20-C ) :   1.5810 B( 19-C , 22-C ) :   1.0442
B( 22-C , 23-H ) :   0.9320 B( 22-C , 24-H ) :   0.9378 B( 22-C , 25-C ) :   1.0495
B( 25-C , 26-H ) :   0.9562 B( 25-C , 27-H ) :   0.9544 B( 25-C , 28-C ) :   1.0696
B( 28-C , 29-H ) :   0.9732 B( 28-C , 30-H ) :   0.9724 B( 28-C , 31-H ) :   0.9747

Dispersion correction           -0.014870245
FINAL SINGLE POINT ENERGY     -1339.882605092893

DIPOLE MOMENT
-------------
                                X             Y             Z
Electronic contribution:     20.32439      -4.95138     -28.11824
Nuclear contribution   :    -20.56030       5.02376      28.71851
                        -----------------------------------------
Total Dipole Moment    :     -0.23590       0.07238       0.60027
                        -----------------------------------------
Magnitude (a.u.)       :      0.64901
Magnitude (Debye)      :      1.64965

Rotational constants in cm-1:     0.018339     0.009521     0.006574
Rotational constants in MHz :   549.787831   285.434467   197.075398

                             ****ORCA TERMINATED NORMALLY****
TOTAL RUN TIME: 0 days 0 hours 0 minutes 21 seconds 60 msec
