                         Program Version 4.2.1 -  RELEASE  -
|  1> ! wB97X-D3 SP def2-SVP
|  2> %pal
|  3> nprocs 24
|  4> end
|  5>
|  6> * xyz 0 1
|  7> S 	 -121.049 	 52.3445 	 -31.0225
|  8> C 	 -120.412 	 52.0567 	 -32.6123
|  9> C 	 -119.159 	 52.6835 	 -32.8082
| 10> C 	 -118.835 	 53.4505 	 -31.6035
| 11> C 	 -119.716 	 53.3373 	 -30.5377
| 12> H 	 -118.001 	 54.1463 	 -31.3963
| 13> C 	 -118.462 	 52.7964 	 -34.1491
| 14> H 	 -117.584 	 53.426 	 -34.0354
| 15> H 	 -119.174 	 53.2449 	 -34.8148
| 16> C 	 -118.057 	 51.4477 	 -34.6882
| 17> H 	 -117.741 	 50.8365 	 -33.8639
| 18> H 	 -118.872 	 50.9271 	 -35.1607
| 19> C 	 -116.82 	 51.563 	 -35.7317
| 20> H 	 -116.432 	 50.5865 	 -36.1448
| 21> H 	 -117.079 	 52.1788 	 -36.5441
| 22> H 	 -115.914 	 51.9525 	 -35.1792
| 23> S 	 -118.304 	 53.7218 	 -28.1945
| 24> C 	 -118.932 	 54.9284 	 -27.063
| 25> C 	 -119.999 	 55.6264 	 -27.5757
| 26> C 	 -120.431 	 55.0746 	 -28.8071
| 27> C 	 -119.711 	 54.0381 	 -29.2789
| 28> H 	 -120.522 	 56.3535 	 -27.0338
| 29> C 	 -121.634 	 55.5984 	 -29.5721
| 30> H 	 -121.408 	 55.3872 	 -30.6205
| 31> H 	 -121.632 	 56.6938 	 -29.5155
| 32> C 	 -123.021 	 55.1479 	 -28.9957
| 33> H 	 -123.258 	 55.6472 	 -28.0536
| 34> H 	 -122.935 	 54.0769 	 -28.8114
| 35> C 	 -124.179 	 55.3464 	 -29.9594
| 36> H 	 -124.006 	 54.6537 	 -30.8522
| 37> H 	 -124.274 	 56.3852 	 -30.1159
| 38> H 	 -125.168 	 55.0998 	 -29.5902
| 39> H 	 -120.837 	 51.3653 	 -33.3916
| 40> H 	 -118.604 	 55.1258 	 -26.0841
| 41> *
| 42>
| 43>                          ****END OF INPUT****

CARTESIAN COORDINATES (ANGSTROEM)
---------------------------------
  S    -121.049000   52.344500  -31.022500
  C    -120.412000   52.056700  -32.612300
  C    -119.159000   52.683500  -32.808200
  C    -118.835000   53.450500  -31.603500
  C    -119.716000   53.337300  -30.537700
  H    -118.001000   54.146300  -31.396300
  C    -118.462000   52.796400  -34.149100
  H    -117.584000   53.426000  -34.035400
  H    -119.174000   53.244900  -34.814800
  C    -118.057000   51.447700  -34.688200
  H    -117.741000   50.836500  -33.863900
  H    -118.872000   50.927100  -35.160700
  C    -116.820000   51.563000  -35.731700
  H    -116.432000   50.586500  -36.144800
  H    -117.079000   52.178800  -36.544100
  H    -115.914000   51.952500  -35.179200
  S    -118.304000   53.721800  -28.194500
  C    -118.932000   54.928400  -27.063000
  C    -119.999000   55.626400  -27.575700
  C    -120.431000   55.074600  -28.807100
  C    -119.711000   54.038100  -29.278900
  H    -120.522000   56.353500  -27.033800
  C    -121.634000   55.598400  -29.572100
  H    -121.408000   55.387200  -30.620500
  H    -121.632000   56.693800  -29.515500
  C    -123.021000   55.147900  -28.995700
  H    -123.258000   55.647200  -28.053600
  H    -122.935000   54.076900  -28.811400
  C    -124.179000   55.346400  -29.959400
  H    -124.006000   54.653700  -30.852200
  H    -124.274000   56.385200  -30.115900
  H    -125.168000   55.099800  -29.590200
  H    -120.837000   51.365300  -33.391600
  H    -118.604000   55.125800  -26.084100

 Total Charge           Charge          ....    0
 Multiplicity           Mult            ....    1
 Number of Electrons    NEL             ....  134
 Basis Dimension        Dim             ....  322

ORBITAL ENERGIES
----------------

  NO   OCC          E(Eh)            E(eV)
   0   2.0000     -88.968517     -2420.9564
   1   2.0000     -88.964659     -2420.8514
   2   2.0000     -10.326305      -280.9930
   3   2.0000     -10.323566      -280.9185
   4   2.0000     -10.320576      -280.8372
   5   2.0000     -10.317705      -280.7590
   6   2.0000     -10.309270      -280.5295
   7   2.0000     -10.300157      -280.2815
   8   2.0000     -10.297989      -280.2225
   9   2.0000     -10.291401      -280.0433
  10   2.0000     -10.289586      -279.9939
  11   2.0000     -10.289176      -279.9827
  12   2.0000     -10.287869      -279.9472
  13   2.0000     -10.287415      -279.9348
  14   2.0000     -10.285164      -279.8735
  15   2.0000     -10.274416      -279.5811
  16   2.0000      -8.083114      -219.9527
  17   2.0000      -8.078436      -219.8254
  18   2.0000      -6.041566      -164.3994
  19   2.0000      -6.037438      -164.2870
  20   2.0000      -6.037048      -164.2764
  21   2.0000      -6.034150      -164.1976
  22   2.0000      -6.033205      -164.1719
  23   2.0000      -6.029016      -164.0579
  24   2.0000      -1.006695       -27.3936
  25   2.0000      -0.982772       -26.7426
  26   2.0000      -0.914143       -24.8751
  27   2.0000      -0.902938       -24.5702
  28   2.0000      -0.870020       -23.6744
  29   2.0000      -0.850820       -23.1520
  30   2.0000      -0.840949       -22.8834
  31   2.0000      -0.813403       -22.1338
  32   2.0000      -0.780896       -21.2493
  33   2.0000      -0.768695       -20.9173
  34   2.0000      -0.707581       -19.2542
  35   2.0000      -0.701460       -19.0877
  36   2.0000      -0.694389       -18.8953
  37   2.0000      -0.668776       -18.1983
  38   2.0000      -0.641574       -17.4581
  39   2.0000      -0.609112       -16.5748
  40   2.0000      -0.592209       -16.1148
  41   2.0000      -0.570763       -15.5312
  42   2.0000      -0.570546       -15.5254
  43   2.0000      -0.565865       -15.3980
  44   2.0000      -0.528229       -14.3738
  45   2.0000      -0.520884       -14.1740
  46   2.0000      -0.518765       -14.1163
  47   2.0000      -0.512034       -13.9331
  48   2.0000      -0.505135       -13.7454
  49   2.0000      -0.499582       -13.5943
  50   2.0000      -0.489968       -13.3327
  51   2.0000      -0.475112       -12.9284
  52   2.0000      -0.467385       -12.7182
  53   2.0000      -0.464036       -12.6271
  54   2.0000      -0.461954       -12.5704
  55   2.0000      -0.447555       -12.1786
  56   2.0000      -0.440971       -11.9994
  57   2.0000      -0.435112       -11.8400
  58   2.0000      -0.429928       -11.6989
  59   2.0000      -0.423292       -11.5184
  60   2.0000      -0.419759       -11.4222
  61   2.0000      -0.418251       -11.3812
  62   2.0000      -0.411534       -11.1984
  63   2.0000      -0.342189        -9.3114
  64   2.0000      -0.334171        -9.0933
  65   2.0000      -0.326593        -8.8870
  66   2.0000      -0.299626        -8.1532
  67   0.0000       0.036920         1.0046
  68   0.0000       0.059203         1.6110
  69   0.0000       0.100886         2.7452
  70   0.0000       0.121979         3.3192
  71   0.0000       0.131361         3.5745

MULLIKEN ATOMIC CHARGES
-----------------------
   0 S :    0.125137
   1 C :   -0.139587
   2 C :   -0.110365
   3 C :    0.031410
   4 C :   -0.207651
   5 H :    0.021459
   6 C :    0.104868
   7 H :    0.022010
   8 H :    0.041965
   9 C :   -0.090250
  10 H :    0.035278
  11 H :    0.030657
  12 C :   -0.085436
  13 H :    0.040483
  14 H :    0.032808
  15 H :    0.041242
  16 S :    0.096822
  17 C :   -0.058024
  18 C :   -0.003594
  19 C :   -0.021973
  20 C :   -0.163926
  21 H :   -0.001859
  22 C :    0.051326
  23 H :    0.038265
  24 H :    0.016695
  25 C :   -0.063753
  26 H :    0.027054
  27 H :    0.025204
  28 C :   -0.034982
  29 H :    0.046984
  30 H :    0.018556
  31 H :    0.023668
  32 H :    0.071949
  33 H :    0.037558
Sum of atomic charges:   -0.0000000

LOEWDIN ATOMIC CHARGES
----------------------
   0 S :    0.429381
   1 C :   -0.214523
   2 C :   -0.061072
   3 C :   -0.067593
   4 C :   -0.213802
   5 H :    0.034790
   6 C :   -0.028461
   7 H :    0.031786
   8 H :    0.035246
   9 C :   -0.035284
  10 H :    0.023409
  11 H :    0.019446
  12 C :   -0.070302
  13 H :    0.030549
  14 H :    0.015163
  15 H :    0.030489
  16 S :    0.373863
  17 C :   -0.156947
  18 C :   -0.062786
  19 C :   -0.050951
  20 C :   -0.188376
  21 H :    0.024134
  22 C :   -0.032809
  23 H :    0.031135
  24 H :    0.028527
  25 C :   -0.038423
  26 H :    0.022840
  27 H :    0.019137
  28 C :   -0.067283
  29 H :    0.036644
  30 H :    0.017466
  31 H :    0.023472
  32 H :    0.040099
  33 H :    0.021035

  Mayer bond orders larger than 0.100000
B(  0-S ,  1-C ) :   1.1626 B(  0-S ,  4-C ) :   1.1547 B(  1-C ,  2-C ) :   1.5791
B(  1-C ,  4-C ) :   0.1004 B(  1-C , 32-H ) :   0.9613 B(  2-C ,  3-C ) :   1.2419
B(  2-C ,  6-C ) :   1.0282 B(  3-C ,  4-C ) :   1.5919 B(  3-C ,  5-H ) :   0.9848
B(  4-C , 20-C ) :   1.0143 B(  6-C ,  7-H ) :   0.9450 B(  6-C ,  8-H ) :   0.9373
B(  6-C ,  9-C ) :   1.0501 B(  9-C , 10-H ) :   0.9669 B(  9-C , 11-H ) :   0.9564
B(  9-C , 12-C ) :   1.0723 B( 12-C , 13-H ) :   0.9784 B( 12-C , 14-H ) :   0.9784
B( 12-C , 15-H ) :   0.9781 B( 16-S , 17-C ) :   1.1478 B( 16-S , 20-C ) :   1.1006
B( 17-C , 18-C ) :   1.6280 B( 17-C , 33-H ) :   0.9690 B( 18-C , 19-C ) :   1.2208
B( 18-C , 21-H ) :   0.9980 B( 19-C , 20-C ) :   1.6469 B( 19-C , 22-C ) :   1.0474
B( 22-C , 23-H ) :   0.9369 B( 22-C , 24-H ) :   0.9300 B( 22-C , 25-C ) :   1.0433
B( 25-C , 26-H ) :   0.9542 B( 25-C , 27-H ) :   0.9591 B( 25-C , 28-C ) :   1.0929
B( 28-C , 29-H ) :   0.9734 B( 28-C , 30-H ) :   0.9726 B( 28-C , 31-H ) :   0.9724

Dispersion correction           -0.014319053
FINAL SINGLE POINT ENERGY     -1339.873825960203

DIPOLE MOMENT
-------------
                                X             Y             Z
Electronic contribution:      4.79662      -2.81722      17.79270
Nuclear contribution   :     -4.91806       3.16095     -18.07183
                        -----------------------------------------
Total Dipole Moment    :     -0.12143       0.34373      -0.27913
                        -----------------------------------------
Magnitude (a.u.)       :      0.45914
Magnitude (Debye)      :      1.16704

Rotational constants in cm-1:     0.021019     0.007580     0.006082
Rotational constants in MHz :   630.123552   227.231541   182.344403

                             ****ORCA TERMINATED NORMALLY****
TOTAL RUN TIME: 0 days 0 hours 0 minutes 21 seconds 156 msec
