                         Program Version 4.2.1 -  RELEASE  -
|  1> ! wB97X-D3 SP def2-SVP
|  2> %pal
|  3> nprocs 24
|  4> end
|  5>
|  6> * xyz 0 1
|  7> S 	 -2.44221 	 -24.5416 	 -117.382
|  8> C 	 -0.81983 	 -25.0799 	 -117.424
|  9> C 	 -0.0189358 	 -24.292 	 -116.596
| 10> C 	 -0.737793 	 -23.2889 	 -115.941
| 11> C 	 -2.08481 	 -23.3808 	 -116.078
| 12> H 	 -0.334852 	 -22.6291 	 -115.168
| 13> C 	 1.42845 	 -24.5477 	 -116.379
| 14> H 	 1.74454 	 -25.5774 	 -116.834
| 15> H 	 1.55889 	 -24.7372 	 -115.332
| 16> C 	 2.29787 	 -23.4665 	 -116.988
| 17> H 	 2.41212 	 -22.6422 	 -116.312
| 18> H 	 3.26686 	 -23.879 	 -117.208
| 19> C 	 1.93736 	 -22.8571 	 -118.396
| 20> H 	 2.73309 	 -22.2392 	 -118.789
| 21> H 	 1.89303 	 -23.6413 	 -119.102
| 22> H 	 1.04277 	 -22.3877 	 -118.454
| 23> S 	 -3.79172 	 -21.2814 	 -116.632
| 24> C 	 -4.49866 	 -20.3116 	 -115.339
| 25> C 	 -4.08717 	 -20.8647 	 -114.129
| 26> C 	 -3.23007 	 -21.9903 	 -114.195
| 27> C 	 -3.02521 	 -22.3651 	 -115.545
| 28> H 	 -4.7233 	 -20.5212 	 -113.33
| 29> C 	 -2.81099 	 -22.8766 	 -113.088
| 30> H 	 -2.96588 	 -22.383 	 -112.175
| 31> H 	 -1.7315 	 -22.9134 	 -112.965
| 32> C 	 -3.32553 	 -24.3897 	 -113.242
| 33> H 	 -3.31695 	 -24.8065 	 -114.218
| 34> H 	 -4.40012 	 -24.3412 	 -113.034
| 35> C 	 -2.60786 	 -25.3139 	 -112.269
| 36> H 	 -1.65503 	 -25.5829 	 -112.682
| 37> H 	 -3.15402 	 -26.33 	 -112.133
| 38> H 	 -2.47187 	 -24.9855 	 -111.233
| 39> H 	 -0.422805 	 -25.9615 	 -117.976
| 40> H 	 -5.15099 	 -19.4362 	 -115.459
| 41> *
| 42>
| 43>                          ****END OF INPUT****

CARTESIAN COORDINATES (ANGSTROEM)
---------------------------------
  S     -2.442210  -24.541600  -117.382000
  C     -0.819830  -25.079900  -117.424000
  C     -0.018936  -24.292000  -116.596000
  C     -0.737793  -23.288900  -115.941000
  C     -2.084810  -23.380800  -116.078000
  H     -0.334852  -22.629100  -115.168000
  C      1.428450  -24.547700  -116.379000
  H      1.744540  -25.577400  -116.834000
  H      1.558890  -24.737200  -115.332000
  C      2.297870  -23.466500  -116.988000
  H      2.412120  -22.642200  -116.312000
  H      3.266860  -23.879000  -117.208000
  C      1.937360  -22.857100  -118.396000
  H      2.733090  -22.239200  -118.789000
  H      1.893030  -23.641300  -119.102000
  H      1.042770  -22.387700  -118.454000
  S     -3.791720  -21.281400  -116.632000
  C     -4.498660  -20.311600  -115.339000
  C     -4.087170  -20.864700  -114.129000
  C     -3.230070  -21.990300  -114.195000
  C     -3.025210  -22.365100  -115.545000
  H     -4.723300  -20.521200  -113.330000
  C     -2.810990  -22.876600  -113.088000
  H     -2.965880  -22.383000  -112.175000
  H     -1.731500  -22.913400  -112.965000
  C     -3.325530  -24.389700  -113.242000
  H     -3.316950  -24.806500  -114.218000
  H     -4.400120  -24.341200  -113.034000
  C     -2.607860  -25.313900  -112.269000
  H     -1.655030  -25.582900  -112.682000
  H     -3.154020  -26.330000  -112.133000
  H     -2.471870  -24.985500  -111.233000
  H     -0.422805  -25.961500  -117.976000
  H     -5.150990  -19.436200  -115.459000

 Total Charge           Charge          ....    0
 Multiplicity           Mult            ....    1
 Number of Electrons    NEL             ....  134
 Basis Dimension        Dim             ....  322

ORBITAL ENERGIES
----------------

  NO   OCC          E(Eh)            E(eV)
   0   2.0000     -88.968475     -2420.9553
   1   2.0000     -88.965535     -2420.8753
   2   2.0000     -10.330375      -281.1038
   3   2.0000     -10.326199      -280.9902
   4   2.0000     -10.318337      -280.7762
   5   2.0000     -10.315440      -280.6974
   6   2.0000     -10.302206      -280.3373
   7   2.0000     -10.295616      -280.1580
   8   2.0000     -10.295207      -280.1468
   9   2.0000     -10.292279      -280.0671
  10   2.0000     -10.290557      -280.0203
  11   2.0000     -10.287825      -279.9459
  12   2.0000     -10.285281      -279.8767
  13   2.0000     -10.283610      -279.8312
  14   2.0000     -10.279432      -279.7176
  15   2.0000     -10.263530      -279.2849
  16   2.0000      -8.083061      -219.9513
  17   2.0000      -8.080320      -219.8767
  18   2.0000      -6.041473      -164.3968
  19   2.0000      -6.038659      -164.3203
  20   2.0000      -6.037573      -164.2907
  21   2.0000      -6.034578      -164.2092
  22   2.0000      -6.033935      -164.1917
  23   2.0000      -6.031499      -164.1254
  24   2.0000      -1.010024       -27.4841
  25   2.0000      -0.987888       -26.8818
  26   2.0000      -0.912319       -24.8254
  27   2.0000      -0.903554       -24.5870
  28   2.0000      -0.868512       -23.6334
  29   2.0000      -0.851501       -23.1705
  30   2.0000      -0.846772       -23.0418
  31   2.0000      -0.818055       -22.2604
  32   2.0000      -0.784645       -21.3513
  33   2.0000      -0.769135       -20.9292
  34   2.0000      -0.711951       -19.3732
  35   2.0000      -0.701993       -19.1022
  36   2.0000      -0.693781       -18.8787
  37   2.0000      -0.657891       -17.9021
  38   2.0000      -0.638864       -17.3844
  39   2.0000      -0.623658       -16.9706
  40   2.0000      -0.593910       -16.1611
  41   2.0000      -0.567371       -15.4389
  42   2.0000      -0.556470       -15.1423
  43   2.0000      -0.553882       -15.0719
  44   2.0000      -0.548474       -14.9247
  45   2.0000      -0.528084       -14.3699
  46   2.0000      -0.511847       -13.9281
  47   2.0000      -0.511246       -13.9117
  48   2.0000      -0.498052       -13.5527
  49   2.0000      -0.494356       -13.4521
  50   2.0000      -0.490637       -13.3509
  51   2.0000      -0.483170       -13.1477
  52   2.0000      -0.470109       -12.7923
  53   2.0000      -0.466596       -12.6967
  54   2.0000      -0.458510       -12.4767
  55   2.0000      -0.452612       -12.3162
  56   2.0000      -0.449625       -12.2349
  57   2.0000      -0.436072       -11.8661
  58   2.0000      -0.427420       -11.6307
  59   2.0000      -0.423460       -11.5229
  60   2.0000      -0.419450       -11.4138
  61   2.0000      -0.409738       -11.1495
  62   2.0000      -0.406640       -11.0652
  63   2.0000      -0.349922        -9.5219
  64   2.0000      -0.331069        -9.0089
  65   2.0000      -0.321742        -8.7550
  66   2.0000      -0.293978        -7.9996
  67   0.0000       0.031993         0.8706
  68   0.0000       0.063110         1.7173
  69   0.0000       0.120420         3.2768
  70   0.0000       0.123032         3.3479
  71   0.0000       0.128713         3.5024

MULLIKEN ATOMIC CHARGES
-----------------------
   0 S :    0.113139
   1 C :   -0.123931
   2 C :   -0.111216
   3 C :    0.051464
   4 C :   -0.181391
   5 H :    0.024908
   6 C :    0.071441
   7 H :    0.021031
   8 H :    0.033657
   9 C :   -0.083447
  10 H :    0.030536
  11 H :    0.024782
  12 C :    0.001520
  13 H :    0.029770
  14 H :    0.001420
  15 H :    0.022203
  16 S :    0.118010
  17 C :   -0.135931
  18 C :   -0.035084
  19 C :   -0.026683
  20 C :   -0.160451
  21 H :    0.023827
  22 C :    0.104025
  23 H :   -0.006077
  24 H :    0.007245
  25 C :   -0.039739
  26 H :    0.037448
  27 H :    0.028553
  28 C :   -0.076273
  29 H :    0.030688
  30 H :    0.036962
  31 H :    0.033693
  32 H :    0.063489
  33 H :    0.070413
Sum of atomic charges:   -0.0000000

LOEWDIN ATOMIC CHARGES
----------------------
   0 S :    0.407693
   1 C :   -0.213951
   2 C :   -0.070816
   3 C :   -0.056818
   4 C :   -0.187660
   5 H :    0.037190
   6 C :   -0.035732
   7 H :    0.036784
   8 H :    0.030768
   9 C :   -0.037134
  10 H :    0.019393
  11 H :    0.025423
  12 C :   -0.050804
  13 H :    0.029875
  14 H :    0.018871
  15 H :    0.010205
  16 S :    0.424406
  17 C :   -0.196086
  18 C :   -0.076945
  19 C :   -0.064135
  20 C :   -0.205996
  21 H :    0.032935
  22 C :   -0.034403
  23 H :    0.025106
  24 H :    0.029356
  25 C :   -0.029148
  26 H :    0.023212
  27 H :    0.025340
  28 C :   -0.073749
  29 H :    0.021381
  30 H :    0.035761
  31 H :    0.023452
  32 H :    0.039108
  33 H :    0.037119

  Mayer bond orders larger than 0.100000
B(  0-S ,  1-C ) :   1.1538 B(  0-S ,  4-C ) :   1.1417 B(  1-C ,  2-C ) :   1.5835
B(  1-C , 32-H ) :   0.9598 B(  2-C ,  3-C ) :   1.2608 B(  2-C ,  6-C ) :   1.0324
B(  3-C ,  4-C ) :   1.5787 B(  3-C ,  5-H ) :   0.9860 B(  4-C , 20-C ) :   1.0130
B(  6-C ,  7-H ) :   0.9404 B(  6-C ,  8-H ) :   0.9438 B(  6-C ,  9-C ) :   1.0579
B(  9-C , 10-H ) :   0.9581 B(  9-C , 11-H ) :   0.9593 B(  9-C , 12-C ) :   1.0830
B( 12-C , 13-H ) :   0.9741 B( 12-C , 14-H ) :   0.9714 B( 12-C , 15-H ) :   0.9712
B( 16-S , 17-C ) :   1.1619 B( 16-S , 20-C ) :   1.1852 B( 17-C , 18-C ) :   1.5860
B( 17-C , 20-C ) :   0.1095 B( 17-C , 33-H ) :   0.9665 B( 18-C , 19-C ) :   1.2738
B( 18-C , 21-H ) :   0.9849 B( 19-C , 20-C ) :   1.5313 B( 19-C , 22-C ) :   1.0676
B( 22-C , 23-H ) :   0.9215 B( 22-C , 24-H ) :   0.9195 B( 22-C , 25-C ) :   1.0298
B( 25-C , 26-H ) :   0.9570 B( 25-C , 27-H ) :   0.9575 B( 25-C , 28-C ) :   1.0795
B( 28-C , 29-H ) :   0.9747 B( 28-C , 30-H ) :   0.9723 B( 28-C , 31-H ) :   0.9769

Dispersion correction           -0.015431527
FINAL SINGLE POINT ENERGY     -1339.856394770249

DIPOLE MOMENT
-------------
                                X             Y             Z
Electronic contribution:    -16.98366       7.42081     -10.82663
Nuclear contribution   :     17.38891      -7.51487      11.19974
                        -----------------------------------------
Total Dipole Moment    :      0.40526      -0.09405       0.37311
                        -----------------------------------------
Magnitude (a.u.)       :      0.55883
Magnitude (Debye)      :      1.42043

Rotational constants in cm-1:     0.018271     0.009476     0.007909
Rotational constants in MHz :   547.748747   284.082397   237.119002

                             ****ORCA TERMINATED NORMALLY****
TOTAL RUN TIME: 0 days 0 hours 0 minutes 21 seconds 93 msec
