                         Program Version 4.2.1 -  RELEASE  -
|  1> ! wB97X-D3 SP def2-SVP
|  2> %pal
|  3> nprocs 24
|  4> end
|  5>
|  6> * xyz 0 1
|  7> S 	 -131.288 	 3.82278 	 8.02323
|  8> C 	 -130.054 	 4.38465 	 6.95962
|  9> C 	 -129.121 	 3.36353 	 6.7298
| 10> C 	 -129.243 	 2.30208 	 7.67263
| 11> C 	 -130.414 	 2.3961 	 8.39818
| 12> H 	 -128.691 	 1.37569 	 7.69208
| 13> C 	 -128.053 	 3.2637 	 5.61263
| 14> H 	 -127.774 	 2.25906 	 5.45899
| 15> H 	 -127.128 	 3.84542 	 5.73764
| 16> C 	 -128.407 	 3.79596 	 4.23028
| 17> H 	 -129.436 	 3.44408 	 4.08067
| 18> H 	 -128.478 	 4.86322 	 4.21165
| 19> C 	 -127.398 	 3.38949 	 3.15741
| 20> H 	 -127.808 	 3.68329 	 2.23319
| 21> H 	 -126.477 	 3.88764 	 3.13247
| 22> H 	 -127.251 	 2.29386 	 3.19166
| 23> S 	 -130.684 	 1.70854 	 11.0382
| 24> C 	 -131.489 	 0.221466 	 11.4385
| 25> C 	 -132.107 	 -0.35193 	 10.3322
| 26> C 	 -131.722 	 0.291388 	 9.14997
| 27> C 	 -130.965 	 1.41056 	 9.33915
| 28> H 	 -132.684 	 -1.18075 	 10.5346
| 29> C 	 -132.198 	 -0.162309 	 7.79116
| 30> H 	 -132.219 	 0.53314 	 7.00573
| 31> H 	 -133.18 	 -0.552865 	 7.96854
| 32> C 	 -131.37 	 -1.38689 	 7.27352
| 33> H 	 -131.757 	 -1.6576 	 6.31421
| 34> H 	 -131.577 	 -2.26118 	 7.918
| 35> C 	 -129.911 	 -1.16903 	 6.90842
| 36> H 	 -129.507 	 -1.93362 	 6.30502
| 37> H 	 -129.297 	 -1.02936 	 7.78736
| 38> H 	 -129.778 	 -0.223853 	 6.36663
| 39> H 	 -130.147 	 5.33443 	 6.40464
| 40> H 	 -131.779 	 -0.10315 	 12.4407
| 41> *
| 42>
| 43>                          ****END OF INPUT****

CARTESIAN COORDINATES (ANGSTROEM)
---------------------------------
  S    -131.288000    3.822780    8.023230
  C    -130.054000    4.384650    6.959620
  C    -129.121000    3.363530    6.729800
  C    -129.243000    2.302080    7.672630
  C    -130.414000    2.396100    8.398180
  H    -128.691000    1.375690    7.692080
  C    -128.053000    3.263700    5.612630
  H    -127.774000    2.259060    5.458990
  H    -127.128000    3.845420    5.737640
  C    -128.407000    3.795960    4.230280
  H    -129.436000    3.444080    4.080670
  H    -128.478000    4.863220    4.211650
  C    -127.398000    3.389490    3.157410
  H    -127.808000    3.683290    2.233190
  H    -126.477000    3.887640    3.132470
  H    -127.251000    2.293860    3.191660
  S    -130.684000    1.708540   11.038200
  C    -131.489000    0.221466   11.438500
  C    -132.107000   -0.351930   10.332200
  C    -131.722000    0.291388    9.149970
  C    -130.965000    1.410560    9.339150
  H    -132.684000   -1.180750   10.534600
  C    -132.198000   -0.162309    7.791160
  H    -132.219000    0.533140    7.005730
  H    -133.180000   -0.552865    7.968540
  C    -131.370000   -1.386890    7.273520
  H    -131.757000   -1.657600    6.314210
  H    -131.577000   -2.261180    7.918000
  C    -129.911000   -1.169030    6.908420
  H    -129.507000   -1.933620    6.305020
  H    -129.297000   -1.029360    7.787360
  H    -129.778000   -0.223853    6.366630
  H    -130.147000    5.334430    6.404640
  H    -131.779000   -0.103150   12.440700

 Total Charge           Charge          ....    0
 Multiplicity           Mult            ....    1
 Number of Electrons    NEL             ....  134
 Basis Dimension        Dim             ....  322

ORBITAL ENERGIES
----------------

  NO   OCC          E(Eh)            E(eV)
   0   2.0000     -88.967280     -2420.9228
   1   2.0000     -88.963676     -2420.8247
   2   2.0000     -10.324281      -280.9380
   3   2.0000     -10.319521      -280.8084
   4   2.0000     -10.316267      -280.7199
   5   2.0000     -10.315185      -280.6905
   6   2.0000     -10.306760      -280.4612
   7   2.0000     -10.298867      -280.2464
   8   2.0000     -10.291690      -280.0511
   9   2.0000     -10.287030      -279.9243
  10   2.0000     -10.286710      -279.9156
  11   2.0000     -10.284930      -279.8672
  12   2.0000     -10.282574      -279.8031
  13   2.0000     -10.281242      -279.7668
  14   2.0000     -10.273755      -279.5631
  15   2.0000     -10.270200      -279.4663
  16   2.0000      -8.082884      -219.9465
  17   2.0000      -8.078741      -219.8337
  18   2.0000      -6.041185      -164.3890
  19   2.0000      -6.037199      -164.2805
  20   2.0000      -6.037110      -164.2781
  21   2.0000      -6.033887      -164.1904
  22   2.0000      -6.033213      -164.1721
  23   2.0000      -6.029625      -164.0744
  24   2.0000      -1.011727       -27.5305
  25   2.0000      -0.989831       -26.9347
  26   2.0000      -0.913960       -24.8701
  27   2.0000      -0.908127       -24.7114
  28   2.0000      -0.868866       -23.6430
  29   2.0000      -0.853213       -23.2171
  30   2.0000      -0.850984       -23.1564
  31   2.0000      -0.815307       -22.1856
  32   2.0000      -0.788079       -21.4447
  33   2.0000      -0.776090       -21.1185
  34   2.0000      -0.705246       -19.1907
  35   2.0000      -0.699589       -19.0368
  36   2.0000      -0.688918       -18.7464
  37   2.0000      -0.662931       -18.0393
  38   2.0000      -0.649166       -17.6647
  39   2.0000      -0.617396       -16.8002
  40   2.0000      -0.597863       -16.2687
  41   2.0000      -0.576088       -15.6762
  42   2.0000      -0.571750       -15.5581
  43   2.0000      -0.551583       -15.0093
  44   2.0000      -0.548454       -14.9242
  45   2.0000      -0.519982       -14.1494
  46   2.0000      -0.516664       -14.0591
  47   2.0000      -0.513821       -13.9818
  48   2.0000      -0.501005       -13.6330
  49   2.0000      -0.498274       -13.5587
  50   2.0000      -0.493421       -13.4267
  51   2.0000      -0.484812       -13.1924
  52   2.0000      -0.471672       -12.8349
  53   2.0000      -0.469181       -12.7671
  54   2.0000      -0.463883       -12.6229
  55   2.0000      -0.450785       -12.2665
  56   2.0000      -0.445678       -12.1275
  57   2.0000      -0.438267       -11.9259
  58   2.0000      -0.435414       -11.8482
  59   2.0000      -0.426118       -11.5953
  60   2.0000      -0.423631       -11.5276
  61   2.0000      -0.409877       -11.1533
  62   2.0000      -0.406911       -11.0726
  63   2.0000      -0.337550        -9.1852
  64   2.0000      -0.328647        -8.9429
  65   2.0000      -0.316662        -8.6168
  66   2.0000      -0.313205        -8.5227
  67   0.0000       0.047317         1.2876
  68   0.0000       0.053480         1.4553
  69   0.0000       0.113295         3.0829
  70   0.0000       0.119456         3.2506
  71   0.0000       0.132439         3.6038

MULLIKEN ATOMIC CHARGES
-----------------------
   0 S :    0.134604
   1 C :   -0.138424
   2 C :   -0.074837
   3 C :    0.066671
   4 C :   -0.190508
   5 H :    0.008303
   6 C :    0.081487
   7 H :    0.004046
   8 H :    0.033182
   9 C :   -0.110125
  10 H :    0.023962
  11 H :    0.019803
  12 C :   -0.010178
  13 H :    0.017718
  14 H :    0.022550
  15 H :    0.033815
  16 S :    0.121038
  17 C :   -0.095396
  18 C :   -0.034150
  19 C :    0.013369
  20 C :   -0.201288
  21 H :   -0.009178
  22 C :    0.133062
  23 H :    0.015846
  24 H :    0.013283
  25 C :   -0.090674
  26 H :    0.014647
  27 H :    0.027332
  28 C :   -0.039022
  29 H :    0.028397
  30 H :    0.034756
  31 H :    0.024614
  32 H :    0.064187
  33 H :    0.057110
Sum of atomic charges:   -0.0000000

LOEWDIN ATOMIC CHARGES
----------------------
   0 S :    0.441871
   1 C :   -0.215084
   2 C :   -0.058755
   3 C :   -0.057641
   4 C :   -0.211994
   5 H :    0.032214
   6 C :   -0.033764
   7 H :    0.020036
   8 H :    0.035475
   9 C :   -0.041667
  10 H :    0.020611
  11 H :    0.016191
  12 C :   -0.056510
  13 H :    0.025167
  14 H :    0.020602
  15 H :    0.028889
  16 S :    0.417321
  17 C :   -0.185743
  18 C :   -0.064449
  19 C :   -0.053709
  20 C :   -0.210418
  21 H :    0.020931
  22 C :   -0.015580
  23 H :    0.021553
  24 H :    0.031598
  25 C :   -0.037080
  26 H :    0.019532
  27 H :    0.022307
  28 C :   -0.064167
  29 H :    0.022110
  30 H :    0.020222
  31 H :    0.025931
  32 H :    0.033696
  33 H :    0.030304

  Mayer bond orders larger than 0.100000
B(  0-S ,  1-C ) :   1.1569 B(  0-S ,  4-C ) :   1.1885 B(  1-C ,  2-C ) :   1.5736
B(  1-C ,  4-C ) :   0.1004 B(  1-C , 32-H ) :   0.9688 B(  2-C ,  3-C ) :   1.2620
B(  2-C ,  6-C ) :   1.0154 B(  3-C ,  4-C ) :   1.5694 B(  3-C ,  5-H ) :   0.9903
B(  4-C , 20-C ) :   0.9889 B(  6-C ,  7-H ) :   0.9493 B(  6-C ,  8-H ) :   0.9376
B(  6-C ,  9-C ) :   1.0595 B(  9-C , 10-H ) :   0.9596 B(  9-C , 11-H ) :   0.9505
B(  9-C , 12-C ) :   1.0907 B( 12-C , 13-H ) :   0.9683 B( 12-C , 14-H ) :   0.9713
B( 12-C , 15-H ) :   0.9750 B( 16-S , 17-C ) :   1.1722 B( 16-S , 20-C ) :   1.1507
B( 17-C , 18-C ) :   1.6113 B( 17-C , 20-C ) :   0.1028 B( 17-C , 33-H ) :   0.9608
B( 18-C , 19-C ) :   1.2260 B( 18-C , 21-H ) :   1.0063 B( 19-C , 20-C ) :   1.6112
B( 19-C , 22-C ) :   1.0480 B( 22-C , 23-H ) :   0.9358 B( 22-C , 24-H ) :   0.9250
B( 22-C , 25-C ) :   1.0831 B( 25-C , 26-H ) :   0.9558 B( 25-C , 27-H ) :   0.9581
B( 25-C , 28-C ) :   1.0732 B( 28-C , 29-H ) :   0.9706 B( 28-C , 30-H ) :   0.9718
B( 28-C , 31-H ) :   0.9671

Dispersion correction           -0.015272733
FINAL SINGLE POINT ENERGY     -1339.868494105635

DIPOLE MOMENT
-------------
                                X             Y             Z
Electronic contribution:    -10.69949       9.66725      25.89682
Nuclear contribution   :     10.66520      -9.98116     -26.45988
                        -----------------------------------------
Total Dipole Moment    :     -0.03429      -0.31391      -0.56306
                        -----------------------------------------
Magnitude (a.u.)       :      0.64556
Magnitude (Debye)      :      1.64089

Rotational constants in cm-1:     0.022248     0.008304     0.006839
Rotational constants in MHz :   666.975295   248.960643   205.013889

                             ****ORCA TERMINATED NORMALLY****
TOTAL RUN TIME: 0 days 0 hours 0 minutes 21 seconds 86 msec
