                         Program Version 4.2.1 -  RELEASE  -
|  1> ! wB97X-D3 SP def2-SVP
|  2> %pal
|  3> nprocs 24
|  4> end
|  5>
|  6> * xyz 0 1
|  7> S 	 -53.1741 	 -48.4899 	 -81.9475
|  8> C 	 -53.7672 	 -46.9232 	 -82.3189
|  9> C 	 -53.0541 	 -45.8892 	 -81.6891
| 10> C 	 -51.9578 	 -46.3525 	 -80.9054
| 11> C 	 -51.9243 	 -47.7728 	 -80.9455
| 12> H 	 -51.3793 	 -45.8333 	 -80.1533
| 13> C 	 -53.3584 	 -44.4495 	 -81.5115
| 14> H 	 -53.0102 	 -44.3035 	 -80.5027
| 15> H 	 -54.4877 	 -44.4193 	 -81.4594
| 16> C 	 -52.675 	 -43.4946 	 -82.5388
| 17> H 	 -51.613 	 -43.6703 	 -82.5895
| 18> H 	 -52.9733 	 -43.7294 	 -83.5971
| 19> C 	 -52.865 	 -41.9902 	 -82.3197
| 20> H 	 -52.3849 	 -41.7294 	 -81.2825
| 21> H 	 -52.3988 	 -41.4621 	 -83.121
| 22> H 	 -53.8947 	 -41.7562 	 -82.2541
| 23> S 	 -51.7428 	 -49.9898 	 -79.2158
| 24> C 	 -50.1141 	 -50.2564 	 -78.5321
| 25> C 	 -49.2046 	 -49.354 	 -78.9339
| 26> C 	 -49.726 	 -48.3227 	 -79.7748
| 27> C 	 -51.0674 	 -48.5576 	 -80.0752
| 28> H 	 -48.1613 	 -49.4076 	 -78.6318
| 29> C 	 -48.9399 	 -47.128 	 -80.3493
| 30> H 	 -49.4188 	 -46.2685 	 -79.9142
| 31> H 	 -49.1827 	 -46.9124 	 -81.4021
| 32> C 	 -47.4454 	 -46.971 	 -80.1148
| 33> H 	 -47.3113 	 -47.0907 	 -78.9654
| 34> H 	 -47.0947 	 -45.9215 	 -80.4804
| 35> C 	 -46.6702 	 -48.1157 	 -80.8126
| 36> H 	 -47.2244 	 -48.7244 	 -81.5319
| 37> H 	 -46.3024 	 -48.8002 	 -80.0783
| 38> H 	 -45.8013 	 -47.7592 	 -81.2518
| 39> H 	 -54.6189 	 -46.6452 	 -83.0062
| 40> H 	 -49.883 	 -51.0225 	 -77.8296
| 41> *
| 42>
| 43>                          ****END OF INPUT****

CARTESIAN COORDINATES (ANGSTROEM)
---------------------------------
  S    -53.174100  -48.489900  -81.947500
  C    -53.767200  -46.923200  -82.318900
  C    -53.054100  -45.889200  -81.689100
  C    -51.957800  -46.352500  -80.905400
  C    -51.924300  -47.772800  -80.945500
  H    -51.379300  -45.833300  -80.153300
  C    -53.358400  -44.449500  -81.511500
  H    -53.010200  -44.303500  -80.502700
  H    -54.487700  -44.419300  -81.459400
  C    -52.675000  -43.494600  -82.538800
  H    -51.613000  -43.670300  -82.589500
  H    -52.973300  -43.729400  -83.597100
  C    -52.865000  -41.990200  -82.319700
  H    -52.384900  -41.729400  -81.282500
  H    -52.398800  -41.462100  -83.121000
  H    -53.894700  -41.756200  -82.254100
  S    -51.742800  -49.989800  -79.215800
  C    -50.114100  -50.256400  -78.532100
  C    -49.204600  -49.354000  -78.933900
  C    -49.726000  -48.322700  -79.774800
  C    -51.067400  -48.557600  -80.075200
  H    -48.161300  -49.407600  -78.631800
  C    -48.939900  -47.128000  -80.349300
  H    -49.418800  -46.268500  -79.914200
  H    -49.182700  -46.912400  -81.402100
  C    -47.445400  -46.971000  -80.114800
  H    -47.311300  -47.090700  -78.965400
  H    -47.094700  -45.921500  -80.480400
  C    -46.670200  -48.115700  -80.812600
  H    -47.224400  -48.724400  -81.531900
  H    -46.302400  -48.800200  -80.078300
  H    -45.801300  -47.759200  -81.251800
  H    -54.618900  -46.645200  -83.006200
  H    -49.883000  -51.022500  -77.829600

 Total Charge           Charge          ....    0
 Multiplicity           Mult            ....    1
 Number of Electrons    NEL             ....  134
 Basis Dimension        Dim             ....  322

ORBITAL ENERGIES
----------------

  NO   OCC          E(Eh)            E(eV)
   0   2.0000     -88.974531     -2421.1201
   1   2.0000     -88.966629     -2420.9050
   2   2.0000     -10.330009      -281.0938
   3   2.0000     -10.327242      -281.0185
   4   2.0000     -10.315854      -280.7087
   5   2.0000     -10.313349      -280.6405
   6   2.0000     -10.305815      -280.4355
   7   2.0000     -10.304492      -280.3995
   8   2.0000     -10.298490      -280.2362
   9   2.0000     -10.294203      -280.1195
  10   2.0000     -10.294101      -280.1167
  11   2.0000     -10.292065      -280.0613
  12   2.0000     -10.291209      -280.0380
  13   2.0000     -10.290778      -280.0263
  14   2.0000     -10.281353      -279.7698
  15   2.0000     -10.269250      -279.4405
  16   2.0000      -8.089044      -220.1141
  17   2.0000      -8.080034      -219.8689
  18   2.0000      -6.047476      -164.5602
  19   2.0000      -6.043570      -164.4539
  20   2.0000      -6.039944      -164.3552
  21   2.0000      -6.038645      -164.3199
  22   2.0000      -6.034963      -164.2197
  23   2.0000      -6.030542      -164.0994
  24   2.0000      -1.003559       -27.3082
  25   2.0000      -0.980262       -26.6743
  26   2.0000      -0.911382       -24.8000
  27   2.0000      -0.906536       -24.6681
  28   2.0000      -0.868963       -23.6457
  29   2.0000      -0.858819       -23.3696
  30   2.0000      -0.843140       -22.9430
  31   2.0000      -0.810775       -22.0623
  32   2.0000      -0.787130       -21.4189
  33   2.0000      -0.770314       -20.9613
  34   2.0000      -0.703103       -19.1324
  35   2.0000      -0.701936       -19.1007
  36   2.0000      -0.693073       -18.8595
  37   2.0000      -0.654894       -17.8206
  38   2.0000      -0.636222       -17.3125
  39   2.0000      -0.614048       -16.7091
  40   2.0000      -0.598499       -16.2860
  41   2.0000      -0.563427       -15.3316
  42   2.0000      -0.554419       -15.0865
  43   2.0000      -0.548018       -14.9123
  44   2.0000      -0.540439       -14.7061
  45   2.0000      -0.533819       -14.5259
  46   2.0000      -0.518119       -14.0987
  47   2.0000      -0.506776       -13.7901
  48   2.0000      -0.502590       -13.6762
  49   2.0000      -0.495005       -13.4698
  50   2.0000      -0.485437       -13.2094
  51   2.0000      -0.477102       -12.9826
  52   2.0000      -0.476073       -12.9546
  53   2.0000      -0.469028       -12.7629
  54   2.0000      -0.462389       -12.5822
  55   2.0000      -0.448064       -12.1924
  56   2.0000      -0.443563       -12.0700
  57   2.0000      -0.440937       -11.9985
  58   2.0000      -0.427282       -11.6269
  59   2.0000      -0.424353       -11.5472
  60   2.0000      -0.422972       -11.5097
  61   2.0000      -0.415967       -11.3190
  62   2.0000      -0.411948       -11.2097
  63   2.0000      -0.352819        -9.6007
  64   2.0000      -0.333520        -9.0755
  65   2.0000      -0.330562        -8.9950
  66   2.0000      -0.279440        -7.6040
  67   0.0000       0.022708         0.6179
  68   0.0000       0.072990         1.9862
  69   0.0000       0.104925         2.8552
  70   0.0000       0.119250         3.2450
  71   0.0000       0.129713         3.5297

MULLIKEN ATOMIC CHARGES
-----------------------
   0 S :    0.138004
   1 C :   -0.133365
   2 C :   -0.090180
   3 C :   -0.021442
   4 C :   -0.155421
   5 H :    0.031444
   6 C :    0.062659
   7 H :    0.017915
   8 H :    0.033499
   9 C :   -0.078189
  10 H :    0.019672
  11 H :    0.027120
  12 C :   -0.031223
  13 H :    0.036837
  14 H :    0.038577
  15 H :    0.026108
  16 S :    0.094931
  17 C :   -0.069943
  18 C :   -0.032483
  19 C :   -0.033228
  20 C :   -0.154128
  21 H :    0.013012
  22 C :    0.053793
  23 H :    0.015942
  24 H :    0.039328
  25 C :   -0.118197
  26 H :    0.046432
  27 H :    0.053441
  28 C :   -0.012443
  29 H :    0.045181
  30 H :    0.016366
  31 H :    0.015859
  32 H :    0.062427
  33 H :    0.041693
Sum of atomic charges:   -0.0000000

LOEWDIN ATOMIC CHARGES
----------------------
   0 S :    0.429215
   1 C :   -0.232255
   2 C :   -0.063897
   3 C :   -0.061911
   4 C :   -0.188552
   5 H :    0.033160
   6 C :   -0.035205
   7 H :    0.030186
   8 H :    0.037113
   9 C :   -0.044266
  10 H :    0.021497
  11 H :    0.027410
  12 C :   -0.062416
  13 H :    0.034235
  14 H :    0.024660
  15 H :    0.017225
  16 S :    0.359825
  17 C :   -0.166548
  18 C :   -0.071887
  19 C :   -0.051221
  20 C :   -0.181188
  21 H :    0.033412
  22 C :   -0.044256
  23 H :    0.026859
  24 H :    0.035455
  25 C :   -0.048206
  26 H :    0.032306
  27 H :    0.039173
  28 C :   -0.067330
  29 H :    0.031012
  30 H :    0.022626
  31 H :    0.018028
  32 H :    0.041372
  33 H :    0.024368

  Mayer bond orders larger than 0.100000
B(  0-S ,  1-C ) :   1.1341 B(  0-S ,  4-C ) :   1.1684 B(  1-C ,  2-C ) :   1.6011
B(  1-C , 32-H ) :   0.9565 B(  2-C ,  3-C ) :   1.2626 B(  2-C ,  6-C ) :   1.0152
B(  3-C ,  4-C ) :   1.5236 B(  3-C ,  5-H ) :   0.9833 B(  4-C , 20-C ) :   1.0907
B(  6-C ,  7-H ) :   0.9428 B(  6-C ,  8-H ) :   0.9406 B(  6-C ,  9-C ) :   1.0483
B(  9-C , 10-H ) :   0.9556 B(  9-C , 11-H ) :   0.9552 B(  9-C , 12-C ) :   1.0855
B( 12-C , 13-H ) :   0.9740 B( 12-C , 14-H ) :   0.9737 B( 12-C , 15-H ) :   0.9764
B( 16-S , 17-C ) :   1.1204 B( 16-S , 20-C ) :   1.1165 B( 17-C , 18-C ) :   1.6531
B( 17-C , 33-H ) :   0.9648 B( 18-C , 19-C ) :   1.2294 B( 18-C , 21-H ) :   0.9820
B( 19-C , 20-C ) :   1.6159 B( 19-C , 22-C ) :   1.0208 B( 22-C , 23-H ) :   0.9208
B( 22-C , 24-H ) :   0.9241 B( 22-C , 25-C ) :   1.0817 B( 25-C , 26-H ) :   0.9578
B( 25-C , 27-H ) :   0.9553 B( 25-C , 28-C ) :   1.0499 B( 28-C , 29-H ) :   0.9817
B( 28-C , 30-H ) :   0.9727 B( 28-C , 31-H ) :   0.9737

Dispersion correction           -0.014034975
FINAL SINGLE POINT ENERGY     -1339.860469084648

DIPOLE MOMENT
-------------
                                X             Y             Z
Electronic contribution:    -14.47106     -25.15389       4.48078
Nuclear contribution   :     14.82812      25.70852      -4.43721
                        -----------------------------------------
Total Dipole Moment    :      0.35706       0.55463       0.04358
                        -----------------------------------------
Magnitude (a.u.)       :      0.66106
Magnitude (Debye)      :      1.68029

Rotational constants in cm-1:     0.018000     0.008460     0.006299
Rotational constants in MHz :   539.623313   253.617590   188.853735

                             ****ORCA TERMINATED NORMALLY****
TOTAL RUN TIME: 0 days 0 hours 0 minutes 20 seconds 334 msec
