                         Program Version 4.2.1 -  RELEASE  -
|  1> ! wB97X-D3 SP def2-SVP
|  2> %pal
|  3> nprocs 24
|  4> end
|  5>
|  6> * xyz 0 1
|  7> S 	 -90.5019 	 -48.7396 	 -76.8866
|  8> C 	 -89.4484 	 -47.647 	 -76.0435
|  9> C 	 -88.1607 	 -48.0884 	 -76.1099
| 10> C 	 -87.9891 	 -49.0988 	 -77.109
| 11> C 	 -89.171 	 -49.554 	 -77.6177
| 12> H 	 -87.0747 	 -49.4235 	 -77.5239
| 13> C 	 -86.9463 	 -47.4906 	 -75.5142
| 14> H 	 -86.4328 	 -48.0684 	 -74.7886
| 15> H 	 -87.3079 	 -46.6561 	 -75.0041
| 16> C 	 -85.8649 	 -47.0185 	 -76.4749
| 17> H 	 -85.0835 	 -46.6336 	 -75.82
| 18> H 	 -85.4567 	 -47.9169 	 -77.0404
| 19> C 	 -86.3104 	 -45.8825 	 -77.5325
| 20> H 	 -86.6026 	 -44.9749 	 -76.9571
| 21> H 	 -85.4643 	 -45.631 	 -78.1662
| 22> H 	 -87.1871 	 -46.255 	 -78.0158
| 23> S 	 -90.5829 	 -51.8463 	 -78.2571
| 24> C 	 -90.3103 	 -52.6148 	 -79.7604
| 25> C 	 -89.3634 	 -51.9534 	 -80.4748
| 26> C 	 -88.7225 	 -50.9316 	 -79.7263
| 27> C 	 -89.3596 	 -50.6555 	 -78.5269
| 28> H 	 -89.18 	 -52.2599 	 -81.4991
| 29> C 	 -87.4079 	 -50.2655 	 -80.0579
| 30> H 	 -86.6816 	 -50.8944 	 -79.5237
| 31> H 	 -87.418 	 -49.2998 	 -79.6003
| 32> C 	 -87.1053 	 -50.1753 	 -81.5477
| 33> H 	 -87.3705 	 -51.1668 	 -81.9882
| 34> H 	 -86.0696 	 -49.9914 	 -81.6522
| 35> C 	 -88.0825 	 -49.2504 	 -82.3285
| 36> H 	 -88.0098 	 -49.3944 	 -83.4119
| 37> H 	 -87.8318 	 -48.223 	 -82.0121
| 38> H 	 -89.1345 	 -49.4347 	 -82.085
| 39> H 	 -89.744 	 -46.8828 	 -75.3136
| 40> H 	 -90.8421 	 -53.4754 	 -80.0541
| 41> *
| 42>
| 43>                          ****END OF INPUT****

CARTESIAN COORDINATES (ANGSTROEM)
---------------------------------
  S    -90.501900  -48.739600  -76.886600
  C    -89.448400  -47.647000  -76.043500
  C    -88.160700  -48.088400  -76.109900
  C    -87.989100  -49.098800  -77.109000
  C    -89.171000  -49.554000  -77.617700
  H    -87.074700  -49.423500  -77.523900
  C    -86.946300  -47.490600  -75.514200
  H    -86.432800  -48.068400  -74.788600
  H    -87.307900  -46.656100  -75.004100
  C    -85.864900  -47.018500  -76.474900
  H    -85.083500  -46.633600  -75.820000
  H    -85.456700  -47.916900  -77.040400
  C    -86.310400  -45.882500  -77.532500
  H    -86.602600  -44.974900  -76.957100
  H    -85.464300  -45.631000  -78.166200
  H    -87.187100  -46.255000  -78.015800
  S    -90.582900  -51.846300  -78.257100
  C    -90.310300  -52.614800  -79.760400
  C    -89.363400  -51.953400  -80.474800
  C    -88.722500  -50.931600  -79.726300
  C    -89.359600  -50.655500  -78.526900
  H    -89.180000  -52.259900  -81.499100
  C    -87.407900  -50.265500  -80.057900
  H    -86.681600  -50.894400  -79.523700
  H    -87.418000  -49.299800  -79.600300
  C    -87.105300  -50.175300  -81.547700
  H    -87.370500  -51.166800  -81.988200
  H    -86.069600  -49.991400  -81.652200
  C    -88.082500  -49.250400  -82.328500
  H    -88.009800  -49.394400  -83.411900
  H    -87.831800  -48.223000  -82.012100
  H    -89.134500  -49.434700  -82.085000
  H    -89.744000  -46.882800  -75.313600
  H    -90.842100  -53.475400  -80.054100

 Total Charge           Charge          ....    0
 Multiplicity           Mult            ....    1
 Number of Electrons    NEL             ....  134
 Basis Dimension        Dim             ....  322

ORBITAL ENERGIES
----------------

  NO   OCC          E(Eh)            E(eV)
   0   2.0000     -88.965143     -2420.8646
   1   2.0000     -88.961742     -2420.7721
   2   2.0000     -10.325179      -280.9624
   3   2.0000     -10.319422      -280.8057
   4   2.0000     -10.312757      -280.6244
   5   2.0000     -10.309711      -280.5415
   6   2.0000     -10.299226      -280.2562
   7   2.0000     -10.295433      -280.1530
   8   2.0000     -10.294589      -280.1300
   9   2.0000     -10.291525      -280.0466
  10   2.0000     -10.288244      -279.9574
  11   2.0000     -10.285596      -279.8853
  12   2.0000     -10.285041      -279.8702
  13   2.0000     -10.281337      -279.7694
  14   2.0000     -10.279963      -279.7320
  15   2.0000     -10.279763      -279.7266
  16   2.0000      -8.080743      -219.8882
  17   2.0000      -8.077848      -219.8094
  18   2.0000      -6.039292      -164.3375
  19   2.0000      -6.036217      -164.2538
  20   2.0000      -6.035164      -164.2252
  21   2.0000      -6.032077      -164.1411
  22   2.0000      -6.031354      -164.1215
  23   2.0000      -6.028766      -164.0511
  24   2.0000      -1.017676       -27.6924
  25   2.0000      -0.995140       -27.0791
  26   2.0000      -0.916683       -24.9442
  27   2.0000      -0.913556       -24.8591
  28   2.0000      -0.874969       -23.8091
  29   2.0000      -0.848130       -23.0788
  30   2.0000      -0.839367       -22.8403
  31   2.0000      -0.819524       -22.3004
  32   2.0000      -0.788537       -21.4572
  33   2.0000      -0.777508       -21.1571
  34   2.0000      -0.713113       -19.4048
  35   2.0000      -0.703764       -19.1504
  36   2.0000      -0.693545       -18.8723
  37   2.0000      -0.652486       -17.7550
  38   2.0000      -0.640249       -17.4220
  39   2.0000      -0.631159       -17.1747
  40   2.0000      -0.605112       -16.4659
  41   2.0000      -0.573656       -15.6100
  42   2.0000      -0.558317       -15.1926
  43   2.0000      -0.553079       -15.0500
  44   2.0000      -0.538642       -14.6572
  45   2.0000      -0.536360       -14.5951
  46   2.0000      -0.527563       -14.3557
  47   2.0000      -0.513219       -13.9654
  48   2.0000      -0.505609       -13.7583
  49   2.0000      -0.503171       -13.6920
  50   2.0000      -0.496075       -13.4989
  51   2.0000      -0.482110       -13.1189
  52   2.0000      -0.477790       -13.0013
  53   2.0000      -0.469408       -12.7732
  54   2.0000      -0.456564       -12.4237
  55   2.0000      -0.451033       -12.2732
  56   2.0000      -0.447165       -12.1680
  57   2.0000      -0.438552       -11.9336
  58   2.0000      -0.435676       -11.8554
  59   2.0000      -0.420340       -11.4380
  60   2.0000      -0.416950       -11.3458
  61   2.0000      -0.414222       -11.2716
  62   2.0000      -0.410578       -11.1724
  63   2.0000      -0.355884        -9.6841
  64   2.0000      -0.329357        -8.9623
  65   2.0000      -0.328661        -8.9433
  66   2.0000      -0.289389        -7.8747
  67   0.0000       0.033780         0.9192
  68   0.0000       0.075963         2.0671
  69   0.0000       0.121957         3.3186
  70   0.0000       0.122071         3.3217
  71   0.0000       0.128552         3.4981

MULLIKEN ATOMIC CHARGES
-----------------------
   0 S :    0.114014
   1 C :   -0.116351
   2 C :   -0.095887
   3 C :    0.008614
   4 C :   -0.133108
   5 H :   -0.011363
   6 C :    0.143436
   7 H :    0.028876
   8 H :   -0.017162
   9 C :   -0.142028
  10 H :    0.031903
  11 H :    0.039137
  12 C :   -0.050645
  13 H :    0.031487
  14 H :    0.046531
  15 H :    0.046029
  16 S :    0.107823
  17 C :   -0.076768
  18 C :   -0.043582
  19 C :   -0.077570
  20 C :   -0.145226
  21 H :    0.021511
  22 C :    0.061174
  23 H :    0.054594
  24 H :    0.026412
  25 C :   -0.043927
  26 H :    0.018501
  27 H :    0.024314
  28 C :   -0.067531
  29 H :    0.041462
  30 H :    0.034374
  31 H :    0.043882
  32 H :    0.054557
  33 H :    0.042519
Sum of atomic charges:    0.0000000

LOEWDIN ATOMIC CHARGES
----------------------
   0 S :    0.419672
   1 C :   -0.206251
   2 C :   -0.062501
   3 C :   -0.063310
   4 C :   -0.190608
   5 H :    0.019741
   6 C :   -0.032359
   7 H :    0.032487
   8 H :    0.020191
   9 C :   -0.037898
  10 H :    0.023436
  11 H :    0.023603
  12 C :   -0.063342
  13 H :    0.027957
  14 H :    0.027357
  15 H :    0.022769
  16 S :    0.425101
  17 C :   -0.185718
  18 C :   -0.078729
  19 C :   -0.055064
  20 C :   -0.210486
  21 H :    0.032515
  22 C :   -0.031271
  23 H :    0.039299
  24 H :    0.026104
  25 C :   -0.038847
  26 H :    0.023658
  27 H :    0.019363
  28 C :   -0.065551
  29 H :    0.027521
  30 H :    0.025533
  31 H :    0.028825
  32 H :    0.034705
  33 H :    0.022101

  Mayer bond orders larger than 0.100000
B(  0-S ,  1-C ) :   1.1275 B(  0-S ,  4-C ) :   1.1501 B(  1-C ,  2-C ) :   1.6315
B(  1-C , 32-H ) :   0.9576 B(  2-C ,  3-C ) :   1.2065 B(  2-C ,  6-C ) :   1.0394
B(  3-C ,  4-C ) :   1.5713 B(  3-C ,  5-H ) :   1.0018 B(  4-C , 20-C ) :   1.0627
B(  6-C ,  7-H ) :   0.9265 B(  6-C ,  8-H ) :   0.9256 B(  6-C ,  9-C ) :   1.0786
B(  9-C , 10-H ) :   0.9555 B(  9-C , 11-H ) :   0.9530 B(  9-C , 12-C ) :   1.0604
B( 12-C , 13-H ) :   0.9761 B( 12-C , 14-H ) :   0.9775 B( 12-C , 15-H ) :   0.9777
B( 16-S , 17-C ) :   1.1719 B( 16-S , 20-C ) :   1.1449 B( 17-C , 18-C ) :   1.5876
B( 17-C , 33-H ) :   0.9732 B( 18-C , 19-C ) :   1.2496 B( 18-C , 21-H ) :   0.9942
B( 19-C , 20-C ) :   1.5682 B( 19-C , 22-C ) :   1.0348 B( 22-C , 23-H ) :   0.9296
B( 22-C , 24-H ) :   0.9178 B( 22-C , 25-C ) :   1.0775 B( 25-C , 26-H ) :   0.9525
B( 25-C , 27-H ) :   0.9555 B( 25-C , 28-C ) :   1.0653 B( 28-C , 29-H ) :   0.9772
B( 28-C , 30-H ) :   0.9767 B( 28-C , 31-H ) :   0.9736

Dispersion correction           -0.015006428
FINAL SINGLE POINT ENERGY     -1339.878715329990

DIPOLE MOMENT
-------------
                                X             Y             Z
Electronic contribution:    -21.98013     -13.99453      10.54306
Nuclear contribution   :     22.58202      14.09674     -10.68542
                        -----------------------------------------
Total Dipole Moment    :      0.60189       0.10221      -0.14236
                        -----------------------------------------
Magnitude (a.u.)       :      0.62688
Magnitude (Debye)      :      1.59341

Rotational constants in cm-1:     0.018634     0.010015     0.007302
Rotational constants in MHz :   558.645008   300.229834   218.920103

                             ****ORCA TERMINATED NORMALLY****
TOTAL RUN TIME: 0 days 0 hours 0 minutes 22 seconds 723 msec
