                         Program Version 4.2.1 -  RELEASE  -
|  1> ! wB97X-D3 SP def2-SVP
|  2> %pal
|  3> nprocs 24
|  4> end
|  5>
|  6> * xyz 0 1
|  7> S 	 -126.158 	 61.0325 	 -52.2058
|  8> C 	 -125.066 	 62.2265 	 -51.5814
|  9> C 	 -125.723 	 63.4501 	 -51.5033
| 10> C 	 -127.156 	 63.3017 	 -51.8443
| 11> C 	 -127.555 	 62.0956 	 -52.3338
| 12> H 	 -127.988 	 63.9585 	 -51.7148
| 13> C 	 -125.056 	 64.7554 	 -51.111
| 14> H 	 -124.142 	 64.4505 	 -50.559
| 15> H 	 -125.732 	 65.1335 	 -50.4265
| 16> C 	 -124.935 	 65.7743 	 -52.2254
| 17> H 	 -125.901 	 65.6429 	 -52.7778
| 18> H 	 -125.082 	 66.7204 	 -51.8428
| 19> C 	 -123.701 	 65.8613 	 -53.1533
| 20> H 	 -123.822 	 66.6387 	 -53.9336
| 21> H 	 -122.751 	 65.9374 	 -52.6106
| 22> H 	 -123.757 	 64.9986 	 -53.7379
| 23> S 	 -130.118 	 62.4592 	 -53.4178
| 24> C 	 -131.531 	 61.6801 	 -52.6383
| 25> C 	 -131.083 	 60.8679 	 -51.5914
| 26> C 	 -129.668 	 60.9075 	 -51.3746
| 27> C 	 -128.958 	 61.6246 	 -52.3173
| 28> H 	 -131.808 	 60.3427 	 -50.9861
| 29> C 	 -129.094 	 60.2809 	 -50.1196
| 30> H 	 -128.131 	 59.9553 	 -50.4023
| 31> H 	 -129.576 	 59.4057 	 -49.9456
| 32> C 	 -128.985 	 61.181 	 -48.8649
| 33> H 	 -129.939 	 61.5901 	 -48.4921
| 34> H 	 -128.402 	 62.1079 	 -48.9468
| 35> C 	 -128.153 	 60.4944 	 -47.6848
| 36> H 	 -127.152 	 60.2121 	 -48.0322
| 37> H 	 -128.527 	 59.5416 	 -47.334
| 38> H 	 -128.042 	 61.1623 	 -46.8763
| 39> H 	 -124.061 	 62.0238 	 -51.3865
| 40> H 	 -132.633 	 61.7571 	 -52.8561
| 41> *
| 42>
| 43>                          ****END OF INPUT****

CARTESIAN COORDINATES (ANGSTROEM)
---------------------------------
  S    -126.158000   61.032500  -52.205800
  C    -125.066000   62.226500  -51.581400
  C    -125.723000   63.450100  -51.503300
  C    -127.156000   63.301700  -51.844300
  C    -127.555000   62.095600  -52.333800
  H    -127.988000   63.958500  -51.714800
  C    -125.056000   64.755400  -51.111000
  H    -124.142000   64.450500  -50.559000
  H    -125.732000   65.133500  -50.426500
  C    -124.935000   65.774300  -52.225400
  H    -125.901000   65.642900  -52.777800
  H    -125.082000   66.720400  -51.842800
  C    -123.701000   65.861300  -53.153300
  H    -123.822000   66.638700  -53.933600
  H    -122.751000   65.937400  -52.610600
  H    -123.757000   64.998600  -53.737900
  S    -130.118000   62.459200  -53.417800
  C    -131.531000   61.680100  -52.638300
  C    -131.083000   60.867900  -51.591400
  C    -129.668000   60.907500  -51.374600
  C    -128.958000   61.624600  -52.317300
  H    -131.808000   60.342700  -50.986100
  C    -129.094000   60.280900  -50.119600
  H    -128.131000   59.955300  -50.402300
  H    -129.576000   59.405700  -49.945600
  C    -128.985000   61.181000  -48.864900
  H    -129.939000   61.590100  -48.492100
  H    -128.402000   62.107900  -48.946800
  C    -128.153000   60.494400  -47.684800
  H    -127.152000   60.212100  -48.032200
  H    -128.527000   59.541600  -47.334000
  H    -128.042000   61.162300  -46.876300
  H    -124.061000   62.023800  -51.386500
  H    -132.633000   61.757100  -52.856100

 Total Charge           Charge          ....    0
 Multiplicity           Mult            ....    1
 Number of Electrons    NEL             ....  134
 Basis Dimension        Dim             ....  322

ORBITAL ENERGIES
----------------

  NO   OCC          E(Eh)            E(eV)
   0   2.0000     -88.967807     -2420.9371
   1   2.0000     -88.962677     -2420.7975
   2   2.0000     -10.334289      -281.2103
   3   2.0000     -10.330419      -281.1050
   4   2.0000     -10.328555      -281.0543
   5   2.0000     -10.316919      -280.7377
   6   2.0000     -10.309843      -280.5451
   7   2.0000     -10.304418      -280.3975
   8   2.0000     -10.297668      -280.2138
   9   2.0000     -10.295733      -280.1611
  10   2.0000     -10.291996      -280.0594
  11   2.0000     -10.290252      -280.0120
  12   2.0000     -10.282459      -279.7999
  13   2.0000     -10.279868      -279.7294
  14   2.0000     -10.276905      -279.6488
  15   2.0000     -10.274704      -279.5889
  16   2.0000      -8.080740      -219.8881
  17   2.0000      -8.077371      -219.7964
  18   2.0000      -6.039543      -164.3443
  19   2.0000      -6.036003      -164.2480
  20   2.0000      -6.035406      -164.2318
  21   2.0000      -6.031654      -164.1296
  22   2.0000      -6.031374      -164.1220
  23   2.0000      -6.028193      -164.0355
  24   2.0000      -1.003713       -27.3124
  25   2.0000      -0.979113       -26.6430
  26   2.0000      -0.914408       -24.8823
  27   2.0000      -0.900417       -24.5016
  28   2.0000      -0.872573       -23.7439
  29   2.0000      -0.845614       -23.0103
  30   2.0000      -0.842131       -22.9156
  31   2.0000      -0.817635       -22.2490
  32   2.0000      -0.786580       -21.4039
  33   2.0000      -0.775293       -21.0968
  34   2.0000      -0.710910       -19.3448
  35   2.0000      -0.705277       -19.1916
  36   2.0000      -0.694145       -18.8886
  37   2.0000      -0.665900       -18.1201
  38   2.0000      -0.647168       -17.6103
  39   2.0000      -0.613424       -16.6921
  40   2.0000      -0.589012       -16.0278
  41   2.0000      -0.572057       -15.5665
  42   2.0000      -0.554945       -15.1008
  43   2.0000      -0.552625       -15.0377
  44   2.0000      -0.541599       -14.7377
  45   2.0000      -0.530628       -14.4391
  46   2.0000      -0.525211       -14.2917
  47   2.0000      -0.516524       -14.0553
  48   2.0000      -0.508479       -13.8364
  49   2.0000      -0.498674       -13.5696
  50   2.0000      -0.485856       -13.2208
  51   2.0000      -0.479781       -13.0555
  52   2.0000      -0.471012       -12.8169
  53   2.0000      -0.464429       -12.6378
  54   2.0000      -0.457874       -12.4594
  55   2.0000      -0.449061       -12.2196
  56   2.0000      -0.447792       -12.1850
  57   2.0000      -0.435433       -11.8487
  58   2.0000      -0.429927       -11.6989
  59   2.0000      -0.426552       -11.6071
  60   2.0000      -0.417994       -11.3742
  61   2.0000      -0.410238       -11.1631
  62   2.0000      -0.401643       -10.9293
  63   2.0000      -0.347940        -9.4679
  64   2.0000      -0.331635        -9.0243
  65   2.0000      -0.321199        -8.7403
  66   2.0000      -0.304136        -8.2760
  67   0.0000       0.031831         0.8662
  68   0.0000       0.062910         1.7119
  69   0.0000       0.108748         2.9592
  70   0.0000       0.120585         3.2813
  71   0.0000       0.127619         3.4727

MULLIKEN ATOMIC CHARGES
-----------------------
   0 S :    0.080098
   1 C :   -0.093790
   2 C :   -0.121603
   3 C :    0.035895
   4 C :   -0.131581
   5 H :    0.009843
   6 C :    0.127618
   7 H :    0.021197
   8 H :    0.006685
   9 C :   -0.067890
  10 H :    0.022874
  11 H :    0.003530
  12 C :   -0.009626
  13 H :    0.034278
  14 H :    0.042493
  15 H :    0.016416
  16 S :    0.083240
  17 C :   -0.111459
  18 C :   -0.029239
  19 C :   -0.063661
  20 C :   -0.166616
  21 H :    0.019650
  22 C :    0.189561
  23 H :   -0.012694
  24 H :   -0.009493
  25 C :   -0.075709
  26 H :    0.026104
  27 H :    0.032261
  28 C :   -0.047373
  29 H :    0.026149
  30 H :    0.020568
  31 H :    0.027307
  32 H :    0.034793
  33 H :    0.080172
Sum of atomic charges:   -0.0000000

LOEWDIN ATOMIC CHARGES
----------------------
   0 S :    0.405713
   1 C :   -0.184815
   2 C :   -0.061279
   3 C :   -0.056411
   4 C :   -0.200990
   5 H :    0.025866
   6 C :   -0.027555
   7 H :    0.032515
   8 H :    0.027778
   9 C :   -0.041617
  10 H :    0.034334
  11 H :    0.011480
  12 C :   -0.060905
  13 H :    0.034295
  14 H :    0.028451
  15 H :    0.018701
  16 S :    0.370437
  17 C :   -0.183190
  18 C :   -0.072782
  19 C :   -0.050194
  20 C :   -0.181867
  21 H :    0.030784
  22 C :   -0.020846
  23 H :    0.018840
  24 H :    0.017855
  25 C :   -0.034360
  26 H :    0.022132
  27 H :    0.029431
  28 C :   -0.061650
  29 H :    0.025967
  30 H :    0.017863
  31 H :    0.019048
  32 H :    0.019644
  33 H :    0.047325

  Mayer bond orders larger than 0.100000
B(  0-S ,  1-C ) :   1.1508 B(  0-S ,  4-C ) :   1.1328 B(  1-C ,  2-C ) :   1.6002
B(  1-C , 32-H ) :   0.9827 B(  2-C ,  3-C ) :   1.2046 B(  2-C ,  6-C ) :   1.0282
B(  3-C ,  4-C ) :   1.6197 B(  3-C ,  5-H ) :   0.9859 B(  4-C , 20-C ) :   0.9976
B(  6-C ,  7-H ) :   0.9434 B(  6-C ,  8-H ) :   0.9197 B(  6-C ,  9-C ) :   1.0697
B(  9-C , 10-H ) :   0.9493 B(  9-C , 11-H ) :   0.9541 B(  9-C , 12-C ) :   1.0731
B( 12-C , 13-H ) :   0.9702 B( 12-C , 14-H ) :   0.9759 B( 12-C , 15-H ) :   0.9752
B( 16-S , 17-C ) :   1.1443 B( 16-S , 20-C ) :   1.1128 B( 17-C , 18-C ) :   1.6200
B( 17-C , 33-H ) :   0.9582 B( 18-C , 19-C ) :   1.2404 B( 18-C , 21-H ) :   0.9877
B( 19-C , 20-C ) :   1.6166 B( 19-C , 22-C ) :   1.0410 B( 22-C , 23-H ) :   0.9164
B( 22-C , 24-H ) :   0.9222 B( 22-C , 25-C ) :   1.0500 B( 25-C , 26-H ) :   0.9596
B( 25-C , 27-H ) :   0.9580 B( 25-C , 28-C ) :   1.0704 B( 28-C , 29-H ) :   0.9763
B( 28-C , 30-H ) :   0.9783 B( 28-C , 31-H ) :   0.9782

Dispersion correction           -0.014809075
FINAL SINGLE POINT ENERGY     -1339.846927315964

DIPOLE MOMENT
-------------
                                X             Y             Z
Electronic contribution:    -10.65866      -9.11035     -15.24622
Nuclear contribution   :     10.70462       9.42264      15.89139
                        -----------------------------------------
Total Dipole Moment    :      0.04596       0.31229       0.64516
                        -----------------------------------------
Magnitude (a.u.)       :      0.71825
Magnitude (Debye)      :      1.82564

Rotational constants in cm-1:     0.018682     0.008589     0.006975
Rotational constants in MHz :   560.075103   257.491123   209.110682

                             ****ORCA TERMINATED NORMALLY****
TOTAL RUN TIME: 0 days 0 hours 0 minutes 21 seconds 561 msec
