                         Program Version 4.2.1 -  RELEASE  -
|  1> ! wB97X-D3 SP def2-SVP
|  2> %pal
|  3> nprocs 24
|  4> end
|  5>
|  6> * xyz 0 1
|  7> S 	 -117.55 	 41.8965 	 -111.819
|  8> C 	 -118.788 	 42.1966 	 -112.962
|  9> C 	 -118.301 	 42.7227 	 -114.135
| 10> C 	 -116.904 	 42.9795 	 -114.021
| 11> C 	 -116.359 	 42.7491 	 -112.81
| 12> H 	 -116.263 	 43.4019 	 -114.779
| 13> C 	 -119.081 	 43.008 	 -115.427
| 14> H 	 -118.698 	 43.9446 	 -115.76
| 15> H 	 -120.09 	 43.0216 	 -115.071
| 16> C 	 -118.859 	 42.0017 	 -116.603
| 17> H 	 -117.786 	 41.6545 	 -116.609
| 18> H 	 -119.463 	 41.1585 	 -116.37
| 19> C 	 -119.165 	 42.4936 	 -118.02
| 20> H 	 -118.97 	 41.6546 	 -118.657
| 21> H 	 -120.187 	 42.9188 	 -118.229
| 22> H 	 -118.458 	 43.2181 	 -118.395
| 23> S 	 -114.278 	 44.5041 	 -112.46
| 24> C 	 -112.668 	 43.9501 	 -112.074
| 25> C 	 -112.664 	 42.624 	 -111.821
| 26> C 	 -113.92 	 41.9569 	 -112.031
| 27> C 	 -114.928 	 42.8436 	 -112.463
| 28> H 	 -111.662 	 42.2965 	 -111.458
| 29> C 	 -114.113 	 40.5281 	 -111.821
| 30> H 	 -115.102 	 40.2959 	 -111.397
| 31> H 	 -113.37 	 40.2193 	 -111.071
| 32> C 	 -113.951 	 39.5813 	 -113.008
| 33> H 	 -113.949 	 38.5352 	 -112.695
| 34> H 	 -113.084 	 39.7116 	 -113.686
| 35> C 	 -115.197 	 39.6742 	 -113.908
| 36> H 	 -115.155 	 38.9946 	 -114.712
| 37> H 	 -115.327 	 40.6689 	 -114.309
| 38> H 	 -116.061 	 39.547 	 -113.283
| 39> H 	 -119.803 	 41.7438 	 -112.904
| 40> H 	 -111.818 	 44.5748 	 -111.953
| 41> *
| 42>
| 43>                          ****END OF INPUT****

CARTESIAN COORDINATES (ANGSTROEM)
---------------------------------
  S    -117.550000   41.896500  -111.819000
  C    -118.788000   42.196600  -112.962000
  C    -118.301000   42.722700  -114.135000
  C    -116.904000   42.979500  -114.021000
  C    -116.359000   42.749100  -112.810000
  H    -116.263000   43.401900  -114.779000
  C    -119.081000   43.008000  -115.427000
  H    -118.698000   43.944600  -115.760000
  H    -120.090000   43.021600  -115.071000
  C    -118.859000   42.001700  -116.603000
  H    -117.786000   41.654500  -116.609000
  H    -119.463000   41.158500  -116.370000
  C    -119.165000   42.493600  -118.020000
  H    -118.970000   41.654600  -118.657000
  H    -120.187000   42.918800  -118.229000
  H    -118.458000   43.218100  -118.395000
  S    -114.278000   44.504100  -112.460000
  C    -112.668000   43.950100  -112.074000
  C    -112.664000   42.624000  -111.821000
  C    -113.920000   41.956900  -112.031000
  C    -114.928000   42.843600  -112.463000
  H    -111.662000   42.296500  -111.458000
  C    -114.113000   40.528100  -111.821000
  H    -115.102000   40.295900  -111.397000
  H    -113.370000   40.219300  -111.071000
  C    -113.951000   39.581300  -113.008000
  H    -113.949000   38.535200  -112.695000
  H    -113.084000   39.711600  -113.686000
  C    -115.197000   39.674200  -113.908000
  H    -115.155000   38.994600  -114.712000
  H    -115.327000   40.668900  -114.309000
  H    -116.061000   39.547000  -113.283000
  H    -119.803000   41.743800  -112.904000
  H    -111.818000   44.574800  -111.953000

 Total Charge           Charge          ....    0
 Multiplicity           Mult            ....    1
 Number of Electrons    NEL             ....  134
 Basis Dimension        Dim             ....  322

ORBITAL ENERGIES
----------------

  NO   OCC          E(Eh)            E(eV)
   0   2.0000     -88.966246     -2420.8946
   1   2.0000     -88.961756     -2420.7724
   2   2.0000     -10.332987      -281.1749
   3   2.0000     -10.329076      -281.0685
   4   2.0000     -10.316012      -280.7130
   5   2.0000     -10.311605      -280.5930
   6   2.0000     -10.307913      -280.4926
   7   2.0000     -10.300436      -280.2891
   8   2.0000     -10.294736      -280.1340
   9   2.0000     -10.291675      -280.0507
  10   2.0000     -10.291384      -280.0428
  11   2.0000     -10.290708      -280.0244
  12   2.0000     -10.287221      -279.9295
  13   2.0000     -10.282299      -279.7956
  14   2.0000     -10.280878      -279.7569
  15   2.0000     -10.258529      -279.1488
  16   2.0000      -8.081156      -219.8994
  17   2.0000      -8.076246      -219.7658
  18   2.0000      -6.039722      -164.3492
  19   2.0000      -6.035645      -164.2382
  20   2.0000      -6.034757      -164.2141
  21   2.0000      -6.031835      -164.1346
  22   2.0000      -6.030757      -164.1052
  23   2.0000      -6.027050      -164.0044
  24   2.0000      -1.009493       -27.4697
  25   2.0000      -0.987600       -26.8740
  26   2.0000      -0.912325       -24.8256
  27   2.0000      -0.907919       -24.7057
  28   2.0000      -0.873607       -23.7720
  29   2.0000      -0.852452       -23.1964
  30   2.0000      -0.845796       -23.0153
  31   2.0000      -0.820502       -22.3270
  32   2.0000      -0.784347       -21.3432
  33   2.0000      -0.770429       -20.9644
  34   2.0000      -0.707749       -19.2588
  35   2.0000      -0.699884       -19.0448
  36   2.0000      -0.690831       -18.7985
  37   2.0000      -0.659288       -17.9401
  38   2.0000      -0.641064       -17.4442
  39   2.0000      -0.621825       -16.9207
  40   2.0000      -0.598046       -16.2736
  41   2.0000      -0.572048       -15.5662
  42   2.0000      -0.562460       -15.3053
  43   2.0000      -0.552706       -15.0399
  44   2.0000      -0.538058       -14.6413
  45   2.0000      -0.526916       -14.3381
  46   2.0000      -0.520755       -14.1705
  47   2.0000      -0.515543       -14.0286
  48   2.0000      -0.501911       -13.6577
  49   2.0000      -0.495629       -13.4867
  50   2.0000      -0.493003       -13.4153
  51   2.0000      -0.479928       -13.0595
  52   2.0000      -0.470541       -12.8041
  53   2.0000      -0.465587       -12.6693
  54   2.0000      -0.460511       -12.5312
  55   2.0000      -0.451821       -12.2947
  56   2.0000      -0.441879       -12.0241
  57   2.0000      -0.432978       -11.7819
  58   2.0000      -0.429933       -11.6991
  59   2.0000      -0.428320       -11.6552
  60   2.0000      -0.418849       -11.3975
  61   2.0000      -0.416746       -11.3402
  62   2.0000      -0.407005       -11.0752
  63   2.0000      -0.346883        -9.4392
  64   2.0000      -0.331676        -9.0254
  65   2.0000      -0.325639        -8.8611
  66   2.0000      -0.299785        -8.1576
  67   0.0000       0.032055         0.8723
  68   0.0000       0.068088         1.8528
  69   0.0000       0.112035         3.0486
  70   0.0000       0.112723         3.0674
  71   0.0000       0.129445         3.5224

MULLIKEN ATOMIC CHARGES
-----------------------
   0 S :    0.104543
   1 C :   -0.127771
   2 C :   -0.111753
   3 C :    0.036160
   4 C :   -0.143880
   5 H :    0.011479
   6 C :    0.127518
   7 H :    0.015840
   8 H :    0.018792
   9 C :   -0.084769
  10 H :    0.039495
  11 H :    0.022129
  12 C :   -0.047683
  13 H :    0.028674
  14 H :    0.044299
  15 H :    0.026152
  16 S :    0.092064
  17 C :   -0.080729
  18 C :   -0.059134
  19 C :    0.006584
  20 C :   -0.180164
  21 H :    0.032035
  22 C :    0.051147
  23 H :    0.023956
  24 H :    0.022259
  25 C :   -0.058435
  26 H :    0.027361
  27 H :    0.029803
  28 C :   -0.024620
  29 H :    0.020498
  30 H :    0.022813
  31 H :    0.007895
  32 H :    0.062791
  33 H :    0.044651
Sum of atomic charges:    0.0000000

LOEWDIN ATOMIC CHARGES
----------------------
   0 S :    0.413741
   1 C :   -0.211204
   2 C :   -0.066288
   3 C :   -0.057130
   4 C :   -0.195435
   5 H :    0.030385
   6 C :   -0.021426
   7 H :    0.026646
   8 H :    0.028051
   9 C :   -0.038973
  10 H :    0.033482
  11 H :    0.019167
  12 C :   -0.071274
  13 H :    0.028019
  14 H :    0.031067
  15 H :    0.022827
  16 S :    0.392775
  17 C :   -0.180168
  18 C :   -0.078743
  19 C :   -0.056469
  20 C :   -0.183706
  21 H :    0.042811
  22 C :   -0.040642
  23 H :    0.029029
  24 H :    0.035338
  25 C :   -0.035443
  26 H :    0.024262
  27 H :    0.024932
  28 C :   -0.061498
  29 H :    0.015788
  30 H :    0.021689
  31 H :    0.015119
  32 H :    0.037813
  33 H :    0.025460

  Mayer bond orders larger than 0.100000
B(  0-S ,  1-C ) :   1.1503 B(  0-S ,  4-C ) :   1.1291 B(  1-C ,  2-C ) :   1.6224
B(  1-C , 32-H ) :   0.9558 B(  2-C ,  3-C ) :   1.2381 B(  2-C ,  6-C ) :   1.0173
B(  3-C ,  4-C ) :   1.6043 B(  3-C ,  5-H ) :   0.9892 B(  4-C , 20-C ) :   1.0223
B(  6-C ,  7-H ) :   0.9394 B(  6-C ,  8-H ) :   0.9380 B(  6-C ,  9-C ) :   1.0564
B(  9-C , 10-H ) :   0.9576 B(  9-C , 11-H ) :   0.9567 B(  9-C , 12-C ) :   1.0852
B( 12-C , 13-H ) :   0.9706 B( 12-C , 14-H ) :   0.9750 B( 12-C , 15-H ) :   0.9727
B( 16-S , 17-C ) :   1.1448 B( 16-S , 20-C ) :   1.1456 B( 17-C , 18-C ) :   1.6483
B( 17-C , 33-H ) :   0.9671 B( 18-C , 19-C ) :   1.2067 B( 18-C , 21-H ) :   0.9862
B( 19-C , 20-C ) :   1.5780 B( 19-C , 22-C ) :   1.0628 B( 22-C , 23-H ) :   0.9344
B( 22-C , 24-H ) :   0.9205 B( 22-C , 25-C ) :   1.0759 B( 25-C , 26-H ) :   0.9543
B( 25-C , 27-H ) :   0.9554 B( 25-C , 28-C ) :   1.0821 B( 28-C , 29-H ) :   0.9718
B( 28-C , 30-H ) :   0.9719 B( 28-C , 31-H ) :   0.9705

Dispersion correction           -0.015597026
FINAL SINGLE POINT ENERGY     -1339.880394987975

DIPOLE MOMENT
-------------
                                X             Y             Z
Electronic contribution:      6.01650      13.32260      19.77442
Nuclear contribution   :     -5.95787     -13.64502     -20.20507
                        -----------------------------------------
Total Dipole Moment    :      0.05863      -0.32243      -0.43065
                        -----------------------------------------
Magnitude (a.u.)       :      0.54116
Magnitude (Debye)      :      1.37552

Rotational constants in cm-1:     0.020309     0.008225     0.007664
Rotational constants in MHz :   608.863161   246.571473   229.755061

                             ****ORCA TERMINATED NORMALLY****
TOTAL RUN TIME: 0 days 0 hours 0 minutes 22 seconds 501 msec
