                         Program Version 4.2.1 -  RELEASE  -
|  1> ! wB97X-D3 SP def2-SVP
|  2> %pal
|  3> nprocs 24
|  4> end
|  5>
|  6> * xyz 0 1
|  7> S 	 -46.0678 	 11.6736 	 27.4673
|  8> C 	 -45.1702 	 13.0875 	 27.9358
|  9> C 	 -45.2018 	 14.1191 	 27.0428
| 10> C 	 -46.0786 	 13.7029 	 25.9225
| 11> C 	 -46.4521 	 12.3519 	 25.8948
| 12> H 	 -46.3017 	 14.3227 	 25.1063
| 13> C 	 -44.6824 	 15.5843 	 27.141
| 14> H 	 -44.6557 	 15.9805 	 26.1645
| 15> H 	 -43.7126 	 15.5561 	 27.5351
| 16> C 	 -45.5934 	 16.5133 	 27.9102
| 17> H 	 -45.2464 	 16.4281 	 28.9531
| 18> H 	 -45.5949 	 17.5498 	 27.6416
| 19> C 	 -47.1443 	 16.1861 	 28.0236
| 20> H 	 -47.3475 	 15.3251 	 28.5956
| 21> H 	 -47.6347 	 17.0583 	 28.4825
| 22> H 	 -47.5719 	 16.0526 	 27.0472
| 23> S 	 -48.0136 	 10.0819 	 25.5229
| 24> C 	 -49.0696 	 10.0018 	 24.0976
| 25> C 	 -48.7005 	 10.9645 	 23.2091
| 26> C 	 -47.71 	 11.8727 	 23.6853
| 27> C 	 -47.3556 	 11.659 	 25.0174
| 28> H 	 -49.1251 	 10.9976 	 22.193
| 29> C 	 -47.2449 	 12.9308 	 22.7312
| 30> H 	 -47.1778 	 12.556 	 21.7213
| 31> H 	 -46.2477 	 13.15 	 22.9842
| 32> C 	 -47.97 	 14.3185 	 22.7631
| 33> H 	 -48.0292 	 14.6754 	 23.82
| 34> H 	 -48.9982 	 14.2274 	 22.4163
| 35> C 	 -47.3908 	 15.3615 	 21.8796
| 36> H 	 -47.877 	 16.338 	 22.0912
| 37> H 	 -47.2793 	 15.1606 	 20.8072
| 38> H 	 -46.3735 	 15.521 	 22.1983
| 39> H 	 -44.5688 	 13.2008 	 28.812
| 40> H 	 -49.8114 	 9.30394 	 23.8183
| 41> *
| 42>
| 43>                          ****END OF INPUT****

CARTESIAN COORDINATES (ANGSTROEM)
---------------------------------
  S    -46.067800   11.673600   27.467300
  C    -45.170200   13.087500   27.935800
  C    -45.201800   14.119100   27.042800
  C    -46.078600   13.702900   25.922500
  C    -46.452100   12.351900   25.894800
  H    -46.301700   14.322700   25.106300
  C    -44.682400   15.584300   27.141000
  H    -44.655700   15.980500   26.164500
  H    -43.712600   15.556100   27.535100
  C    -45.593400   16.513300   27.910200
  H    -45.246400   16.428100   28.953100
  H    -45.594900   17.549800   27.641600
  C    -47.144300   16.186100   28.023600
  H    -47.347500   15.325100   28.595600
  H    -47.634700   17.058300   28.482500
  H    -47.571900   16.052600   27.047200
  S    -48.013600   10.081900   25.522900
  C    -49.069600   10.001800   24.097600
  C    -48.700500   10.964500   23.209100
  C    -47.710000   11.872700   23.685300
  C    -47.355600   11.659000   25.017400
  H    -49.125100   10.997600   22.193000
  C    -47.244900   12.930800   22.731200
  H    -47.177800   12.556000   21.721300
  H    -46.247700   13.150000   22.984200
  C    -47.970000   14.318500   22.763100
  H    -48.029200   14.675400   23.820000
  H    -48.998200   14.227400   22.416300
  C    -47.390800   15.361500   21.879600
  H    -47.877000   16.338000   22.091200
  H    -47.279300   15.160600   20.807200
  H    -46.373500   15.521000   22.198300
  H    -44.568800   13.200800   28.812000
  H    -49.811400    9.303940   23.818300

 Total Charge           Charge          ....    0
 Multiplicity           Mult            ....    1
 Number of Electrons    NEL             ....  134
 Basis Dimension        Dim             ....  322

ORBITAL ENERGIES
----------------

  NO   OCC          E(Eh)            E(eV)
   0   2.0000     -88.967148     -2420.9192
   1   2.0000     -88.966639     -2420.9053
   2   2.0000     -10.334097      -281.2051
   3   2.0000     -10.333607      -281.1917
   4   2.0000     -10.316116      -280.7158
   5   2.0000     -10.313177      -280.6358
   6   2.0000     -10.307528      -280.4821
   7   2.0000     -10.303033      -280.3598
   8   2.0000     -10.297006      -280.1958
   9   2.0000     -10.292266      -280.0668
  10   2.0000     -10.291990      -280.0593
  11   2.0000     -10.289771      -279.9989
  12   2.0000     -10.288229      -279.9569
  13   2.0000     -10.286447      -279.9085
  14   2.0000     -10.278878      -279.7025
  15   2.0000     -10.272383      -279.5257
  16   2.0000      -8.082001      -219.9224
  17   2.0000      -8.080504      -219.8817
  18   2.0000      -6.040730      -164.3766
  19   2.0000      -6.039337      -164.3387
  20   2.0000      -6.036598      -164.2642
  21   2.0000      -6.035278      -164.2283
  22   2.0000      -6.032426      -164.1507
  23   2.0000      -6.030824      -164.1071
  24   2.0000      -1.006766       -27.3955
  25   2.0000      -0.982725       -26.7413
  26   2.0000      -0.913559       -24.8592
  27   2.0000      -0.911368       -24.7996
  28   2.0000      -0.873063       -23.7572
  29   2.0000      -0.856813       -23.3151
  30   2.0000      -0.838624       -22.8201
  31   2.0000      -0.816642       -22.2220
  32   2.0000      -0.791473       -21.5371
  33   2.0000      -0.777450       -21.1555
  34   2.0000      -0.711402       -19.3582
  35   2.0000      -0.700602       -19.0644
  36   2.0000      -0.697322       -18.9751
  37   2.0000      -0.666728       -18.1426
  38   2.0000      -0.637550       -17.3486
  39   2.0000      -0.618203       -16.8221
  40   2.0000      -0.597436       -16.2571
  41   2.0000      -0.576715       -15.6932
  42   2.0000      -0.566805       -15.4235
  43   2.0000      -0.556087       -15.1319
  44   2.0000      -0.547033       -14.8855
  45   2.0000      -0.530182       -14.4270
  46   2.0000      -0.514884       -14.0107
  47   2.0000      -0.514194       -13.9919
  48   2.0000      -0.508219       -13.8294
  49   2.0000      -0.503384       -13.6978
  50   2.0000      -0.496832       -13.5195
  51   2.0000      -0.481645       -13.1062
  52   2.0000      -0.466542       -12.6952
  53   2.0000      -0.465339       -12.6625
  54   2.0000      -0.458915       -12.4877
  55   2.0000      -0.454292       -12.3619
  56   2.0000      -0.450519       -12.2592
  57   2.0000      -0.438176       -11.9234
  58   2.0000      -0.432752       -11.7758
  59   2.0000      -0.424407       -11.5487
  60   2.0000      -0.414433       -11.2773
  61   2.0000      -0.413875       -11.2621
  62   2.0000      -0.409177       -11.1343
  63   2.0000      -0.368155       -10.0180
  64   2.0000      -0.334350        -9.0981
  65   2.0000      -0.324929        -8.8418
  66   2.0000      -0.282326        -7.6825
  67   0.0000       0.014529         0.3953
  68   0.0000       0.081284         2.2119
  69   0.0000       0.092454         2.5158
  70   0.0000       0.115951         3.1552
  71   0.0000       0.125542         3.4162

MULLIKEN ATOMIC CHARGES
-----------------------
   0 S :    0.090679
   1 C :   -0.093974
   2 C :   -0.135010
   3 C :   -0.005150
   4 C :   -0.091881
   5 H :   -0.026026
   6 C :    0.175780
   7 H :    0.009526
   8 H :    0.022001
   9 C :   -0.120480
  10 H :    0.026174
  11 H :    0.032121
  12 C :   -0.030403
  13 H :    0.034344
  14 H :    0.034910
  15 H :    0.020663
  16 S :    0.082495
  17 C :   -0.051863
  18 C :   -0.043899
  19 C :   -0.048930
  20 C :   -0.110292
  21 H :    0.027045
  22 C :    0.075644
  23 H :    0.018569
  24 H :    0.000084
  25 C :   -0.078988
  26 H :    0.037306
  27 H :    0.022281
  28 C :   -0.033896
  29 H :    0.041305
  30 H :    0.038925
  31 H :    0.005577
  32 H :    0.034614
  33 H :    0.040749
Sum of atomic charges:   -0.0000000

LOEWDIN ATOMIC CHARGES
----------------------
   0 S :    0.400147
   1 C :   -0.194111
   2 C :   -0.053734
   3 C :   -0.057566
   4 C :   -0.183796
   5 H :    0.011827
   6 C :   -0.018777
   7 H :    0.026631
   8 H :    0.027498
   9 C :   -0.041518
  10 H :    0.025256
  11 H :    0.022452
  12 C :   -0.057830
  13 H :    0.019663
  14 H :    0.029464
  15 H :    0.017972
  16 S :    0.374327
  17 C :   -0.169258
  18 C :   -0.069873
  19 C :   -0.055688
  20 C :   -0.180856
  21 H :    0.036384
  22 C :   -0.030776
  23 H :    0.031012
  24 H :    0.020611
  25 C :   -0.042085
  26 H :    0.028250
  27 H :    0.021823
  28 C :   -0.071250
  29 H :    0.035193
  30 H :    0.028040
  31 H :    0.017958
  32 H :    0.025225
  33 H :    0.027388

  Mayer bond orders larger than 0.100000
B(  0-S ,  1-C ) :   1.1388 B(  0-S ,  4-C ) :   1.1174 B(  1-C ,  2-C ) :   1.6489
B(  1-C , 32-H ) :   0.9615 B(  2-C ,  3-C ) :   1.2175 B(  2-C ,  6-C ) :   1.0282
B(  3-C ,  4-C ) :   1.5768 B(  3-C ,  5-H ) :   0.9868 B(  4-C , 20-C ) :   1.1145
B(  6-C ,  7-H ) :   0.9292 B(  6-C ,  8-H ) :   0.9410 B(  6-C ,  9-C ) :   1.0568
B(  9-C , 10-H ) :   0.9579 B(  9-C , 11-H ) :   0.9645 B(  9-C , 12-C ) :   1.0898
B( 12-C , 13-H ) :   0.9706 B( 12-C , 14-H ) :   0.9754 B( 12-C , 15-H ) :   0.9751
B( 16-S , 17-C ) :   1.1267 B( 16-S , 20-C ) :   1.1110 B( 17-C , 18-C ) :   1.6336
B( 17-C , 33-H ) :   0.9703 B( 18-C , 19-C ) :   1.2393 B( 18-C , 21-H ) :   0.9838
B( 19-C , 20-C ) :   1.5798 B( 19-C , 22-C ) :   1.0632 B( 22-C , 23-H ) :   0.9329
B( 22-C , 24-H ) :   0.9193 B( 22-C , 25-C ) :   1.0614 B( 25-C , 26-H ) :   0.9489
B( 25-C , 27-H ) :   0.9509 B( 25-C , 28-C ) :   1.0903 B( 28-C , 29-H ) :   0.9686
B( 28-C , 30-H ) :   0.9725 B( 28-C , 31-H ) :   0.9679

Dispersion correction           -0.014837160
FINAL SINGLE POINT ENERGY     -1339.863055937709

DIPOLE MOMENT
-------------
                                X             Y             Z
Electronic contribution:     -0.47414     -28.81746       8.39985
Nuclear contribution   :      0.50261      29.49119      -8.81835
                        -----------------------------------------
Total Dipole Moment    :      0.02847       0.67374      -0.41850
                        -----------------------------------------
Magnitude (a.u.)       :      0.79365
Magnitude (Debye)      :      2.01730

Rotational constants in cm-1:     0.017199     0.010100     0.007009
Rotational constants in MHz :   515.604715   302.794649   210.115568

                             ****ORCA TERMINATED NORMALLY****
TOTAL RUN TIME: 0 days 0 hours 0 minutes 22 seconds 249 msec
