                         Program Version 4.2.1 -  RELEASE  -
|  1> ! wB97X-D3 SP def2-SVP
|  2> %pal
|  3> nprocs 24
|  4> end
|  5>
|  6> * xyz 0 1
|  7> S 	 18.6634 	 -25.6929 	 -118.33
|  8> C 	 19.6021 	 -26.9852 	 -118.893
|  9> C 	 20.9732 	 -26.6692 	 -118.913
| 10> C 	 21.1995 	 -25.3718 	 -118.4
| 11> C 	 20.0523 	 -24.6684 	 -118.164
| 12> H 	 22.1859 	 -24.78 	 -118.243
| 13> C 	 22.0965 	 -27.4974 	 -119.533
| 14> H 	 22.6087 	 -26.7791 	 -120.205
| 15> H 	 21.7223 	 -28.3269 	 -120.078
| 16> C 	 23.1107 	 -27.9885 	 -118.459
| 17> H 	 23.6113 	 -27.1855 	 -117.92
| 18> H 	 22.5941 	 -28.5019 	 -117.661
| 19> C 	 24.1997 	 -28.9598 	 -119.036
| 20> H 	 23.7858 	 -29.709 	 -119.716
| 21> H 	 25.0435 	 -28.3975 	 -119.52
| 22> H 	 24.6996 	 -29.5194 	 -118.244
| 23> S 	 21.4454 	 -22.27 	 -118.284
| 24> C 	 20.8953 	 -20.866 	 -117.463
| 25> C 	 19.6292 	 -21.1299 	 -116.851
| 26> C 	 19.1261 	 -22.4224 	 -117.136
| 27> C 	 20.011 	 -23.2227 	 -117.873
| 28> H 	 19.1324 	 -20.3272 	 -116.273
| 29> C 	 17.7885 	 -22.7755 	 -116.605
| 30> H 	 17.7825 	 -23.8458 	 -116.642
| 31> H 	 17.0817 	 -22.2838 	 -117.271
| 32> C 	 17.5675 	 -22.2714 	 -115.146
| 33> H 	 17.446 	 -21.1908 	 -115.143
| 34> H 	 18.4439 	 -22.4996 	 -114.511
| 35> C 	 16.221 	 -22.7693 	 -114.636
| 36> H 	 15.3678 	 -22.4778 	 -115.303
| 37> H 	 16.0768 	 -22.402 	 -113.637
| 38> H 	 16.1884 	 -23.8406 	 -114.626
| 39> H 	 19.2381 	 -27.8823 	 -119.292
| 40> H 	 21.4803 	 -19.9424 	 -117.278
| 41> *
| 42>
| 43>                          ****END OF INPUT****

CARTESIAN COORDINATES (ANGSTROEM)
---------------------------------
  S     18.663400  -25.692900  -118.330000
  C     19.602100  -26.985200  -118.893000
  C     20.973200  -26.669200  -118.913000
  C     21.199500  -25.371800  -118.400000
  C     20.052300  -24.668400  -118.164000
  H     22.185900  -24.780000  -118.243000
  C     22.096500  -27.497400  -119.533000
  H     22.608700  -26.779100  -120.205000
  H     21.722300  -28.326900  -120.078000
  C     23.110700  -27.988500  -118.459000
  H     23.611300  -27.185500  -117.920000
  H     22.594100  -28.501900  -117.661000
  C     24.199700  -28.959800  -119.036000
  H     23.785800  -29.709000  -119.716000
  H     25.043500  -28.397500  -119.520000
  H     24.699600  -29.519400  -118.244000
  S     21.445400  -22.270000  -118.284000
  C     20.895300  -20.866000  -117.463000
  C     19.629200  -21.129900  -116.851000
  C     19.126100  -22.422400  -117.136000
  C     20.011000  -23.222700  -117.873000
  H     19.132400  -20.327200  -116.273000
  C     17.788500  -22.775500  -116.605000
  H     17.782500  -23.845800  -116.642000
  H     17.081700  -22.283800  -117.271000
  C     17.567500  -22.271400  -115.146000
  H     17.446000  -21.190800  -115.143000
  H     18.443900  -22.499600  -114.511000
  C     16.221000  -22.769300  -114.636000
  H     15.367800  -22.477800  -115.303000
  H     16.076800  -22.402000  -113.637000
  H     16.188400  -23.840600  -114.626000
  H     19.238100  -27.882300  -119.292000
  H     21.480300  -19.942400  -117.278000

 Total Charge           Charge          ....    0
 Multiplicity           Mult            ....    1
 Number of Electrons    NEL             ....  134
 Basis Dimension        Dim             ....  322

ORBITAL ENERGIES
----------------

  NO   OCC          E(Eh)            E(eV)
   0   2.0000     -88.968930     -2420.9677
   1   2.0000     -88.968009     -2420.9426
   2   2.0000     -10.330043      -281.0948
   3   2.0000     -10.328293      -281.0471
   4   2.0000     -10.321974      -280.8752
   5   2.0000     -10.307228      -280.4739
   6   2.0000     -10.302260      -280.3388
   7   2.0000     -10.299653      -280.2678
   8   2.0000     -10.295874      -280.1650
   9   2.0000     -10.294356      -280.1237
  10   2.0000     -10.294318      -280.1226
  11   2.0000     -10.288791      -279.9722
  12   2.0000     -10.287693      -279.9424
  13   2.0000     -10.287266      -279.9307
  14   2.0000     -10.282178      -279.7923
  15   2.0000     -10.276083      -279.6264
  16   2.0000      -8.084273      -219.9842
  17   2.0000      -8.082476      -219.9353
  18   2.0000      -6.042721      -164.4308
  19   2.0000      -6.040979      -164.3834
  20   2.0000      -6.038660      -164.3203
  21   2.0000      -6.036862      -164.2714
  22   2.0000      -6.035111      -164.2237
  23   2.0000      -6.033437      -164.1782
  24   2.0000      -1.011080       -27.5129
  25   2.0000      -0.987146       -26.8616
  26   2.0000      -0.914571       -24.8867
  27   2.0000      -0.905327       -24.6352
  28   2.0000      -0.867439       -23.6042
  29   2.0000      -0.856034       -23.2939
  30   2.0000      -0.846344       -23.0302
  31   2.0000      -0.807609       -21.9761
  32   2.0000      -0.780518       -21.2390
  33   2.0000      -0.768935       -20.9238
  34   2.0000      -0.706939       -19.2368
  35   2.0000      -0.703090       -19.1320
  36   2.0000      -0.691448       -18.8153
  37   2.0000      -0.665545       -18.1104
  38   2.0000      -0.630034       -17.1441
  39   2.0000      -0.616472       -16.7751
  40   2.0000      -0.593418       -16.1477
  41   2.0000      -0.575141       -15.6504
  42   2.0000      -0.565415       -15.3857
  43   2.0000      -0.558441       -15.1960
  44   2.0000      -0.532084       -14.4787
  45   2.0000      -0.522299       -14.2125
  46   2.0000      -0.516554       -14.0562
  47   2.0000      -0.511622       -13.9220
  48   2.0000      -0.502092       -13.6626
  49   2.0000      -0.497388       -13.5346
  50   2.0000      -0.486809       -13.2467
  51   2.0000      -0.478194       -13.0123
  52   2.0000      -0.475839       -12.9483
  53   2.0000      -0.469014       -12.7625
  54   2.0000      -0.461005       -12.5446
  55   2.0000      -0.452491       -12.3129
  56   2.0000      -0.441625       -12.0172
  57   2.0000      -0.438738       -11.9387
  58   2.0000      -0.434076       -11.8118
  59   2.0000      -0.428341       -11.6558
  60   2.0000      -0.421191       -11.4612
  61   2.0000      -0.414550       -11.2805
  62   2.0000      -0.412578       -11.2268
  63   2.0000      -0.358619        -9.7585
  64   2.0000      -0.330143        -8.9836
  65   2.0000      -0.329378        -8.9628
  66   2.0000      -0.279096        -7.5946
  67   0.0000       0.023644         0.6434
  68   0.0000       0.080867         2.2005
  69   0.0000       0.118160         3.2153
  70   0.0000       0.118723         3.2306
  71   0.0000       0.128285         3.4908

MULLIKEN ATOMIC CHARGES
-----------------------
   0 S :    0.116290
   1 C :   -0.089075
   2 C :   -0.096786
   3 C :   -0.057099
   4 C :   -0.124494
   5 H :    0.055591
   6 C :    0.102001
   7 H :    0.042961
   8 H :    0.008738
   9 C :   -0.091504
  10 H :    0.030069
  11 H :    0.026625
  12 C :   -0.063772
  13 H :    0.033372
  14 H :    0.039098
  15 H :    0.030996
  16 S :    0.093478
  17 C :   -0.106869
  18 C :   -0.064945
  19 C :   -0.079057
  20 C :   -0.119104
  21 H :    0.033111
  22 C :    0.102257
  23 H :    0.011816
  24 H :    0.046770
  25 C :   -0.130008
  26 H :    0.030855
  27 H :    0.047918
  28 C :   -0.013318
  29 H :    0.032259
  30 H :    0.031323
  31 H :    0.021949
  32 H :    0.023191
  33 H :    0.075365
Sum of atomic charges:    0.0000000

LOEWDIN ATOMIC CHARGES
----------------------
   0 S :    0.440578
   1 C :   -0.215631
   2 C :   -0.057890
   3 C :   -0.088801
   4 C :   -0.195475
   5 H :    0.040433
   6 C :   -0.021879
   7 H :    0.038567
   8 H :    0.022529
   9 C :   -0.040065
  10 H :    0.024072
  11 H :    0.022320
  12 C :   -0.072778
  13 H :    0.023201
  14 H :    0.029474
  15 H :    0.026044
  16 S :    0.424780
  17 C :   -0.207450
  18 C :   -0.077768
  19 C :   -0.062827
  20 C :   -0.193836
  21 H :    0.035357
  22 C :   -0.029228
  23 H :    0.013876
  24 H :    0.040395
  25 C :   -0.039589
  26 H :    0.021278
  27 H :    0.030604
  28 C :   -0.062198
  29 H :    0.031888
  30 H :    0.023626
  31 H :    0.019518
  32 H :    0.017377
  33 H :    0.039498

  Mayer bond orders larger than 0.100000
B(  0-S ,  1-C ) :   1.1479 B(  0-S ,  4-C ) :   1.1508 B(  1-C ,  2-C ) :   1.5892
B(  1-C , 32-H ) :   0.9744 B(  2-C ,  3-C ) :   1.2542 B(  2-C ,  6-C ) :   1.0286
B(  3-C ,  4-C ) :   1.5775 B(  3-C ,  5-H ) :   0.9616 B(  4-C , 20-C ) :   1.0643
B(  6-C ,  7-H ) :   0.9418 B(  6-C ,  8-H ) :   0.9418 B(  6-C ,  9-C ) :   1.0526
B(  9-C , 10-H ) :   0.9577 B(  9-C , 11-H ) :   0.9601 B(  9-C , 12-C ) :   1.0794
B( 12-C , 13-H ) :   0.9762 B( 12-C , 14-H ) :   0.9770 B( 12-C , 15-H ) :   0.9761
B( 16-S , 17-C ) :   1.1830 B( 16-S , 20-C ) :   1.1377 B( 17-C , 18-C ) :   1.5540
B( 17-C , 33-H ) :   0.9631 B( 18-C , 19-C ) :   1.2867 B( 18-C , 21-H ) :   0.9857
B( 19-C , 20-C ) :   1.5330 B( 19-C , 22-C ) :   1.0392 B( 22-C , 23-H ) :   0.9298
B( 22-C , 24-H ) :   0.9209 B( 22-C , 25-C ) :   1.0793 B( 25-C , 26-H ) :   0.9434
B( 25-C , 27-H ) :   0.9606 B( 25-C , 28-C ) :   1.0887 B( 28-C , 29-H ) :   0.9695
B( 28-C , 30-H ) :   0.9723 B( 28-C , 31-H ) :   0.9750

Dispersion correction           -0.013282819
FINAL SINGLE POINT ENERGY     -1339.883990655611

DIPOLE MOMENT
-------------
                                X             Y             Z
Electronic contribution:     -1.63338       9.52235      -7.99820
Nuclear contribution   :      1.67402      -9.52179       8.21747
                        -----------------------------------------
Total Dipole Moment    :      0.04064       0.00056       0.21927
                        -----------------------------------------
Magnitude (a.u.)       :      0.22301
Magnitude (Debye)      :      0.56684

Rotational constants in cm-1:     0.022399     0.007168     0.005903
Rotational constants in MHz :   671.510305   214.893305   176.980576

                             ****ORCA TERMINATED NORMALLY****
TOTAL RUN TIME: 0 days 0 hours 0 minutes 21 seconds 733 msec
