                         Program Version 4.2.1 -  RELEASE  -
|  1> ! wB97X-D3 SP def2-SVP
|  2> %pal
|  3> nprocs 24
|  4> end
|  5>
|  6> * xyz 0 1
|  7> S 	 -100.968 	 16.1312 	 -118.88
|  8> C 	 -99.699 	 16.4305 	 -117.702
|  9> C 	 -98.9572 	 15.2871 	 -117.415
| 10> C 	 -99.6283 	 14.1376 	 -118.007
| 11> C 	 -100.726 	 14.4017 	 -118.728
| 12> H 	 -99.2645 	 13.0966 	 -117.93
| 13> C 	 -97.6595 	 15.1805 	 -116.652
| 14> H 	 -97.5862 	 14.3211 	 -116.008
| 15> H 	 -97.5407 	 16.0852 	 -116.056
| 16> C 	 -96.4651 	 15.1301 	 -117.59
| 17> H 	 -96.5964 	 14.3954 	 -118.405
| 18> H 	 -96.4803 	 16.1485 	 -118.035
| 19> C 	 -95.1183 	 15.0851 	 -116.897
| 20> H 	 -94.3892 	 15.2136 	 -117.627
| 21> H 	 -94.8771 	 15.8894 	 -116.187
| 22> H 	 -94.9666 	 14.1005 	 -116.451
| 23> S 	 -103.412 	 14.0876 	 -119.506
| 24> C 	 -104.081 	 12.5009 	 -119.595
| 25> C 	 -103.104 	 11.5422 	 -119.733
| 26> C 	 -101.787 	 12.0454 	 -119.557
| 27> C 	 -101.799 	 13.4162 	 -119.206
| 28> H 	 -103.485 	 10.5518 	 -119.886
| 29> C 	 -100.592 	 11.14 	 -119.636
| 30> H 	 -100.959 	 10.2666 	 -120.135
| 31> H 	 -100.422 	 10.8367 	 -118.564
| 32> C 	 -99.2084 	 11.5883 	 -120.266
| 33> H 	 -98.5278 	 10.7891 	 -119.887
| 34> H 	 -98.7182 	 12.5227 	 -119.903
| 35> C 	 -99.2939 	 11.5333 	 -121.797
| 36> H 	 -99.701 	 10.598 	 -122.186
| 37> H 	 -98.3498 	 11.7315 	 -122.297
| 38> H 	 -99.9262 	 12.4185 	 -122.078
| 39> H 	 -99.4137 	 17.4698 	 -117.377
| 40> H 	 -105.126 	 12.2917 	 -119.638
| 41> *
| 42>
| 43>                          ****END OF INPUT****

CARTESIAN COORDINATES (ANGSTROEM)
---------------------------------
  S    -100.968000   16.131200  -118.880000
  C    -99.699000   16.430500  -117.702000
  C    -98.957200   15.287100  -117.415000
  C    -99.628300   14.137600  -118.007000
  C    -100.726000   14.401700  -118.728000
  H    -99.264500   13.096600  -117.930000
  C    -97.659500   15.180500  -116.652000
  H    -97.586200   14.321100  -116.008000
  H    -97.540700   16.085200  -116.056000
  C    -96.465100   15.130100  -117.590000
  H    -96.596400   14.395400  -118.405000
  H    -96.480300   16.148500  -118.035000
  C    -95.118300   15.085100  -116.897000
  H    -94.389200   15.213600  -117.627000
  H    -94.877100   15.889400  -116.187000
  H    -94.966600   14.100500  -116.451000
  S    -103.412000   14.087600  -119.506000
  C    -104.081000   12.500900  -119.595000
  C    -103.104000   11.542200  -119.733000
  C    -101.787000   12.045400  -119.557000
  C    -101.799000   13.416200  -119.206000
  H    -103.485000   10.551800  -119.886000
  C    -100.592000   11.140000  -119.636000
  H    -100.959000   10.266600  -120.135000
  H    -100.422000   10.836700  -118.564000
  C    -99.208400   11.588300  -120.266000
  H    -98.527800   10.789100  -119.887000
  H    -98.718200   12.522700  -119.903000
  C    -99.293900   11.533300  -121.797000
  H    -99.701000   10.598000  -122.186000
  H    -98.349800   11.731500  -122.297000
  H    -99.926200   12.418500  -122.078000
  H    -99.413700   17.469800  -117.377000
  H    -105.126000   12.291700  -119.638000

 Total Charge           Charge          ....    0
 Multiplicity           Mult            ....    1
 Number of Electrons    NEL             ....  134
 Basis Dimension        Dim             ....  322

ORBITAL ENERGIES
----------------

  NO   OCC          E(Eh)            E(eV)
   0   2.0000     -88.963901     -2420.8308
   1   2.0000     -88.963471     -2420.8191
   2   2.0000     -10.334582      -281.2183
   3   2.0000     -10.331820      -281.1431
   4   2.0000     -10.320367      -280.8315
   5   2.0000     -10.311849      -280.5997
   6   2.0000     -10.307696      -280.4867
   7   2.0000     -10.306139      -280.4443
   8   2.0000     -10.298657      -280.2407
   9   2.0000     -10.296404      -280.1794
  10   2.0000     -10.292011      -280.0598
  11   2.0000     -10.290981      -280.0318
  12   2.0000     -10.290904      -280.0297
  13   2.0000     -10.287892      -279.9478
  14   2.0000     -10.278693      -279.6974
  15   2.0000     -10.275058      -279.5985
  16   2.0000      -8.078775      -219.8346
  17   2.0000      -8.078414      -219.8248
  18   2.0000      -6.037458      -164.2876
  19   2.0000      -6.036881      -164.2719
  20   2.0000      -6.033483      -164.1794
  21   2.0000      -6.033047      -164.1676
  22   2.0000      -6.029128      -164.0609
  23   2.0000      -6.029066      -164.0592
  24   2.0000      -1.003838       -27.3158
  25   2.0000      -0.984966       -26.8023
  26   2.0000      -0.917421       -24.9643
  27   2.0000      -0.904876       -24.6229
  28   2.0000      -0.863695       -23.5023
  29   2.0000      -0.851023       -23.1575
  30   2.0000      -0.845771       -23.0146
  31   2.0000      -0.817826       -22.2542
  32   2.0000      -0.783557       -21.3217
  33   2.0000      -0.772396       -21.0180
  34   2.0000      -0.706840       -19.2341
  35   2.0000      -0.696160       -18.9435
  36   2.0000      -0.684326       -18.6215
  37   2.0000      -0.661069       -17.9886
  38   2.0000      -0.638930       -17.3862
  39   2.0000      -0.619992       -16.8708
  40   2.0000      -0.589777       -16.0486
  41   2.0000      -0.576448       -15.6860
  42   2.0000      -0.563638       -15.3374
  43   2.0000      -0.551156       -14.9977
  44   2.0000      -0.540503       -14.7078
  45   2.0000      -0.524781       -14.2800
  46   2.0000      -0.519676       -14.1411
  47   2.0000      -0.509345       -13.8600
  48   2.0000      -0.499860       -13.6019
  49   2.0000      -0.498377       -13.5615
  50   2.0000      -0.492162       -13.3924
  51   2.0000      -0.478916       -13.0320
  52   2.0000      -0.470431       -12.8011
  53   2.0000      -0.464587       -12.6420
  54   2.0000      -0.461867       -12.5680
  55   2.0000      -0.450256       -12.2521
  56   2.0000      -0.445129       -12.1126
  57   2.0000      -0.436427       -11.8758
  58   2.0000      -0.432671       -11.7736
  59   2.0000      -0.429280       -11.6813
  60   2.0000      -0.420150       -11.4329
  61   2.0000      -0.413816       -11.2605
  62   2.0000      -0.409900       -11.1539
  63   2.0000      -0.355362        -9.6699
  64   2.0000      -0.332234        -9.0406
  65   2.0000      -0.322741        -8.7822
  66   2.0000      -0.283570        -7.7163
  67   0.0000       0.023418         0.6372
  68   0.0000       0.078727         2.1423
  69   0.0000       0.094185         2.5629
  70   0.0000       0.128405         3.4941
  71   0.0000       0.132199         3.5973

MULLIKEN ATOMIC CHARGES
-----------------------
   0 S :    0.092069
   1 C :   -0.142233
   2 C :   -0.087026
   3 C :   -0.019738
   4 C :   -0.091617
   5 H :    0.018075
   6 C :    0.099883
   7 H :    0.020315
   8 H :    0.015521
   9 C :   -0.123718
  10 H :    0.040858
  11 H :    0.022169
  12 C :   -0.002507
  13 H :    0.016239
  14 H :    0.032793
  15 H :    0.028160
  16 S :    0.095938
  17 C :   -0.081680
  18 C :   -0.040684
  19 C :   -0.031498
  20 C :   -0.135351
  21 H :    0.012603
  22 C :    0.027033
  23 H :    0.014701
  24 H :    0.052977
  25 C :   -0.082349
  26 H :    0.027092
  27 H :    0.049088
  28 C :   -0.050383
  29 H :    0.033029
  30 H :    0.031075
  31 H :    0.046752
  32 H :    0.065075
  33 H :    0.047339
Sum of atomic charges:    0.0000000

LOEWDIN ATOMIC CHARGES
----------------------
   0 S :    0.384337
   1 C :   -0.198801
   2 C :   -0.056350
   3 C :   -0.074922
   4 C :   -0.182669
   5 H :    0.033212
   6 C :   -0.030348
   7 H :    0.024655
   8 H :    0.031525
   9 C :   -0.043335
  10 H :    0.025711
  11 H :    0.027531
  12 C :   -0.062849
  13 H :    0.020374
  14 H :    0.030207
  15 H :    0.023744
  16 S :    0.401070
  17 C :   -0.182790
  18 C :   -0.075287
  19 C :   -0.060035
  20 C :   -0.185674
  21 H :    0.031309
  22 C :   -0.036037
  23 H :    0.029925
  24 H :    0.041876
  25 C :   -0.047757
  26 H :    0.025985
  27 H :    0.029768
  28 C :   -0.068895
  29 H :    0.023492
  30 H :    0.023695
  31 H :    0.035874
  32 H :    0.036641
  33 H :    0.024817

  Mayer bond orders larger than 0.100000
B(  0-S ,  1-C ) :   1.1261 B(  0-S ,  4-C ) :   1.1265 B(  1-C ,  2-C ) :   1.6380
B(  1-C , 32-H ) :   0.9592 B(  2-C ,  3-C ) :   1.2080 B(  2-C ,  6-C ) :   1.0398
B(  3-C ,  4-C ) :   1.6304 B(  3-C ,  5-H ) :   0.9834 B(  4-C , 20-C ) :   1.0275
B(  6-C ,  7-H ) :   0.9403 B(  6-C ,  8-H ) :   0.9357 B(  6-C ,  9-C ) :   1.0596
B(  9-C , 10-H ) :   0.9582 B(  9-C , 11-H ) :   0.9541 B(  9-C , 12-C ) :   1.0892
B( 12-C , 13-H ) :   0.9697 B( 12-C , 14-H ) :   0.9707 B( 12-C , 15-H ) :   0.9711
B( 16-S , 17-C ) :   1.1648 B( 16-S , 20-C ) :   1.1435 B( 17-C , 18-C ) :   1.6108
B( 17-C , 33-H ) :   0.9698 B( 18-C , 19-C ) :   1.2349 B( 18-C , 21-H ) :   0.9981
B( 19-C , 20-C ) :   1.5569 B( 19-C , 22-C ) :   1.0357 B( 22-C , 23-H ) :   0.9333
B( 22-C , 24-H ) :   0.9313 B( 22-C , 25-C ) :   1.0548 B( 25-C , 26-H ) :   0.9521
B( 25-C , 27-H ) :   0.9529 B( 25-C , 28-C ) :   1.0762 B( 28-C , 29-H ) :   0.9756
B( 28-C , 30-H ) :   0.9740 B( 28-C , 31-H ) :   0.9768

Dispersion correction           -0.014365217
FINAL SINGLE POINT ENERGY     -1339.869701331953

DIPOLE MOMENT
-------------
                                X             Y             Z
Electronic contribution:    -28.09188      10.61740      -1.06423
Nuclear contribution   :     28.64873     -11.08612       1.16043
                        -----------------------------------------
Total Dipole Moment    :      0.55685      -0.46872       0.09620
                        -----------------------------------------
Magnitude (a.u.)       :      0.73419
Magnitude (Debye)      :      1.86616

Rotational constants in cm-1:     0.020087     0.008651     0.006650
Rotational constants in MHz :   602.199000   259.353766   199.347556

                             ****ORCA TERMINATED NORMALLY****
TOTAL RUN TIME: 0 days 0 hours 0 minutes 21 seconds 777 msec
