                         Program Version 4.2.1 -  RELEASE  -
|  1> ! wB97X-D3 SP def2-SVP
|  2> %pal
|  3> nprocs 24
|  4> end
|  5>
|  6> * xyz 0 1
|  7> S 	 19.5054 	 -6.19463 	 -111.927
|  8> C 	 20.3908 	 -7.30889 	 -110.967
|  9> C 	 20.4029 	 -8.56077 	 -111.589
| 10> C 	 19.7674 	 -8.5666 	 -112.847
| 11> C 	 19.192 	 -7.3584 	 -113.154
| 12> H 	 19.6014 	 -9.34789 	 -113.523
| 13> C 	 21.0265 	 -9.80416 	 -110.917
| 14> H 	 20.1958 	 -10.577 	 -111.082
| 15> H 	 21.0256 	 -9.69936 	 -109.836
| 16> C 	 22.4416 	 -10.301 	 -111.279
| 17> H 	 23.1832 	 -9.58576 	 -111.066
| 18> H 	 22.6446 	 -11.1781 	 -110.626
| 19> C 	 22.5888 	 -10.8849 	 -112.694
| 20> H 	 21.7644 	 -11.6064 	 -112.862
| 21> H 	 22.7147 	 -10.1624 	 -113.474
| 22> H 	 23.4993 	 -11.5496 	 -112.882
| 23> S 	 19.5046 	 -7.09858 	 -115.856
| 24> C 	 18.0992 	 -6.57956 	 -116.772
| 25> C 	 16.9361 	 -6.63414 	 -116.046
| 26> C 	 17.1752 	 -6.66963 	 -114.644
| 27> C 	 18.4866 	 -7.03686 	 -114.382
| 28> H 	 16.0724 	 -6.31505 	 -116.611
| 29> C 	 16.14 	 -6.34411 	 -113.599
| 30> H 	 16.5909 	 -5.69144 	 -112.884
| 31> H 	 15.9859 	 -7.31752 	 -113.184
| 32> C 	 14.823 	 -5.78252 	 -114.032
| 33> H 	 14.2512 	 -6.29788 	 -114.767
| 34> H 	 15.0266 	 -4.75545 	 -114.461
| 35> C 	 13.9104 	 -5.56774 	 -112.758
| 36> H 	 14.499 	 -5.18216 	 -111.933
| 37> H 	 13.3718 	 -6.47126 	 -112.34
| 38> H 	 13.0636 	 -4.92074 	 -113.064
| 39> H 	 20.8211 	 -7.20206 	 -109.948
| 40> H 	 18.0383 	 -6.38875 	 -117.809
| 41> *
| 42>
| 43>                          ****END OF INPUT****

CARTESIAN COORDINATES (ANGSTROEM)
---------------------------------
  S     19.505400   -6.194630  -111.927000
  C     20.390800   -7.308890  -110.967000
  C     20.402900   -8.560770  -111.589000
  C     19.767400   -8.566600  -112.847000
  C     19.192000   -7.358400  -113.154000
  H     19.601400   -9.347890  -113.523000
  C     21.026500   -9.804160  -110.917000
  H     20.195800  -10.577000  -111.082000
  H     21.025600   -9.699360  -109.836000
  C     22.441600  -10.301000  -111.279000
  H     23.183200   -9.585760  -111.066000
  H     22.644600  -11.178100  -110.626000
  C     22.588800  -10.884900  -112.694000
  H     21.764400  -11.606400  -112.862000
  H     22.714700  -10.162400  -113.474000
  H     23.499300  -11.549600  -112.882000
  S     19.504600   -7.098580  -115.856000
  C     18.099200   -6.579560  -116.772000
  C     16.936100   -6.634140  -116.046000
  C     17.175200   -6.669630  -114.644000
  C     18.486600   -7.036860  -114.382000
  H     16.072400   -6.315050  -116.611000
  C     16.140000   -6.344110  -113.599000
  H     16.590900   -5.691440  -112.884000
  H     15.985900   -7.317520  -113.184000
  C     14.823000   -5.782520  -114.032000
  H     14.251200   -6.297880  -114.767000
  H     15.026600   -4.755450  -114.461000
  C     13.910400   -5.567740  -112.758000
  H     14.499000   -5.182160  -111.933000
  H     13.371800   -6.471260  -112.340000
  H     13.063600   -4.920740  -113.064000
  H     20.821100   -7.202060  -109.948000
  H     18.038300   -6.388750  -117.809000

 Total Charge           Charge          ....    0
 Multiplicity           Mult            ....    1
 Number of Electrons    NEL             ....  134
 Basis Dimension        Dim             ....  322

ORBITAL ENERGIES
----------------

  NO   OCC          E(Eh)            E(eV)
   0   2.0000     -88.965748     -2420.8811
   1   2.0000     -88.965437     -2420.8726
   2   2.0000     -10.322616      -280.8926
   3   2.0000     -10.321408      -280.8598
   4   2.0000     -10.312368      -280.6138
   5   2.0000     -10.311738      -280.5967
   6   2.0000     -10.305156      -280.4175
   7   2.0000     -10.299331      -280.2590
   8   2.0000     -10.297682      -280.2142
   9   2.0000     -10.291777      -280.0535
  10   2.0000     -10.289802      -279.9997
  11   2.0000     -10.287316      -279.9321
  12   2.0000     -10.285741      -279.8893
  13   2.0000     -10.285712      -279.8884
  14   2.0000     -10.284788      -279.8633
  15   2.0000     -10.279096      -279.7084
  16   2.0000      -8.081092      -219.8977
  17   2.0000      -8.079339      -219.8500
  18   2.0000      -6.039451      -164.3418
  19   2.0000      -6.037865      -164.2987
  20   2.0000      -6.035349      -164.2302
  21   2.0000      -6.034128      -164.1970
  22   2.0000      -6.032154      -164.1433
  23   2.0000      -6.029969      -164.0838
  24   2.0000      -1.009112       -27.4593
  25   2.0000      -0.985056       -26.8047
  26   2.0000      -0.913712       -24.8634
  27   2.0000      -0.903989       -24.5988
  28   2.0000      -0.869401       -23.6576
  29   2.0000      -0.850170       -23.1343
  30   2.0000      -0.845778       -23.0148
  31   2.0000      -0.814969       -22.1764
  32   2.0000      -0.782165       -21.2838
  33   2.0000      -0.768726       -20.9181
  34   2.0000      -0.707344       -19.2478
  35   2.0000      -0.702794       -19.1240
  36   2.0000      -0.695936       -18.9374
  37   2.0000      -0.653855       -17.7923
  38   2.0000      -0.640500       -17.4289
  39   2.0000      -0.612509       -16.6672
  40   2.0000      -0.598766       -16.2933
  41   2.0000      -0.575158       -15.6508
  42   2.0000      -0.570189       -15.5156
  43   2.0000      -0.547553       -14.8997
  44   2.0000      -0.535571       -14.5736
  45   2.0000      -0.529034       -14.3957
  46   2.0000      -0.515533       -14.0284
  47   2.0000      -0.507125       -13.7996
  48   2.0000      -0.504757       -13.7351
  49   2.0000      -0.491599       -13.3771
  50   2.0000      -0.485642       -13.2150
  51   2.0000      -0.474770       -12.9191
  52   2.0000      -0.472025       -12.8445
  53   2.0000      -0.466601       -12.6969
  54   2.0000      -0.459663       -12.5081
  55   2.0000      -0.451691       -12.2911
  56   2.0000      -0.446108       -12.1392
  57   2.0000      -0.439724       -11.9655
  58   2.0000      -0.432800       -11.7771
  59   2.0000      -0.421272       -11.4634
  60   2.0000      -0.419769       -11.4225
  61   2.0000      -0.415950       -11.3186
  62   2.0000      -0.406318       -11.0565
  63   2.0000      -0.337481        -9.1833
  64   2.0000      -0.334792        -9.1102
  65   2.0000      -0.325503        -8.8574
  66   2.0000      -0.293594        -7.9891
  67   0.0000       0.039132         1.0648
  68   0.0000       0.062155         1.6913
  69   0.0000       0.108576         2.9545
  70   0.0000       0.125101         3.4042
  71   0.0000       0.129164         3.5147

MULLIKEN ATOMIC CHARGES
-----------------------
   0 S :    0.126675
   1 C :   -0.129357
   2 C :   -0.075505
   3 C :    0.046450
   4 C :   -0.173392
   5 H :   -0.011347
   6 C :    0.020407
   7 H :    0.037980
   8 H :    0.017322
   9 C :   -0.019623
  10 H :    0.023913
  11 H :    0.032270
  12 C :   -0.088274
  13 H :    0.030876
  14 H :    0.039346
  15 H :    0.032036
  16 S :    0.116396
  17 C :   -0.075597
  18 C :   -0.045801
  19 C :   -0.038929
  20 C :   -0.177382
  21 H :    0.022414
  22 C :    0.116381
  23 H :    0.025166
  24 H :    0.035151
  25 C :   -0.097485
  26 H :    0.032369
  27 H :    0.037396
  28 C :   -0.069610
  29 H :    0.034916
  30 H :    0.039803
  31 H :    0.038068
  32 H :    0.058400
  33 H :    0.038565
Sum of atomic charges:    0.0000000

LOEWDIN ATOMIC CHARGES
----------------------
   0 S :    0.436164
   1 C :   -0.223295
   2 C :   -0.066323
   3 C :   -0.062694
   4 C :   -0.208666
   5 H :    0.024288
   6 C :   -0.037906
   7 H :    0.039271
   8 H :    0.027938
   9 C :   -0.037342
  10 H :    0.018813
  11 H :    0.032773
  12 C :   -0.077724
  13 H :    0.026768
  14 H :    0.020175
  15 H :    0.032424
  16 S :    0.389739
  17 C :   -0.169936
  18 C :   -0.077584
  19 C :   -0.042253
  20 C :   -0.195746
  21 H :    0.032258
  22 C :   -0.033152
  23 H :    0.029310
  24 H :    0.038943
  25 C :   -0.040149
  26 H :    0.019146
  27 H :    0.031285
  28 C :   -0.068920
  29 H :    0.023335
  30 H :    0.029943
  31 H :    0.029118
  32 H :    0.039361
  33 H :    0.020639

  Mayer bond orders larger than 0.100000
B(  0-S ,  1-C ) :   1.1512 B(  0-S ,  4-C ) :   1.1705 B(  1-C ,  2-C ) :   1.5911
B(  1-C , 32-H ) :   0.9628 B(  2-C ,  3-C ) :   1.2500 B(  2-C ,  6-C ) :   1.0069
B(  3-C ,  4-C ) :   1.5562 B(  3-C ,  5-H ) :   1.0115 B(  4-C , 20-C ) :   1.0301
B(  6-C ,  7-H ) :   0.9452 B(  6-C ,  8-H ) :   0.9419 B(  6-C ,  9-C ) :   1.0757
B(  9-C , 10-H ) :   0.9553 B(  9-C , 11-H ) :   0.9513 B(  9-C , 12-C ) :   1.0756
B( 12-C , 13-H ) :   0.9742 B( 12-C , 14-H ) :   0.9773 B( 12-C , 15-H ) :   0.9740
B( 16-S , 17-C ) :   1.1502 B( 16-S , 20-C ) :   1.1233 B( 17-C , 18-C ) :   1.6566
B( 17-C , 20-C ) :   0.1008 B( 17-C , 33-H ) :   0.9639 B( 18-C , 19-C ) :   1.2194
B( 18-C , 21-H ) :   0.9749 B( 19-C , 20-C ) :   1.6208 B( 19-C , 22-C ) :   1.0195
B( 22-C , 23-H ) :   0.9291 B( 22-C , 24-H ) :   0.9166 B( 22-C , 25-C ) :   1.0956
B( 25-C , 26-H ) :   0.9492 B( 25-C , 27-H ) :   0.9530 B( 25-C , 28-C ) :   1.0761
B( 28-C , 29-H ) :   0.9748 B( 28-C , 30-H ) :   0.9762 B( 28-C , 31-H ) :   0.9747

Dispersion correction           -0.013885295
FINAL SINGLE POINT ENERGY     -1339.866662835098

DIPOLE MOMENT
-------------
                                X             Y             Z
Electronic contribution:      6.54172       9.64326      -8.18511
Nuclear contribution   :     -6.87639      -9.84063       8.29820
                        -----------------------------------------
Total Dipole Moment    :     -0.33466      -0.19737       0.11309
                        -----------------------------------------
Magnitude (a.u.)       :      0.40465
Magnitude (Debye)      :      1.02854

Rotational constants in cm-1:     0.021147     0.007660     0.006302
Rotational constants in MHz :   633.981235   229.648844   188.937104

                             ****ORCA TERMINATED NORMALLY****
TOTAL RUN TIME: 0 days 0 hours 0 minutes 19 seconds 630 msec
