                         Program Version 4.2.1 -  RELEASE  -
|  1> ! wB97X-D3 SP def2-SVP
|  2> %pal
|  3> nprocs 24
|  4> end
|  5>
|  6> * xyz 0 1
|  7> S 	 -44.5744 	 16.3996 	 24.8198
|  8> C 	 -45.8357 	 17.5993 	 24.7331
|  9> C 	 -46.3484 	 17.9254 	 25.9818
| 10> C 	 -45.6334 	 17.254 	 27.0365
| 11> C 	 -44.6361 	 16.4074 	 26.6176
| 12> H 	 -45.7276 	 17.5008 	 28.0618
| 13> C 	 -47.4288 	 18.8733 	 26.293
| 14> H 	 -47.2584 	 19.8585 	 25.8949
| 15> H 	 -47.485 	 19.0593 	 27.3253
| 16> C 	 -48.8055 	 18.4074 	 26.0026
| 17> H 	 -48.9351 	 17.4162 	 26.3725
| 18> H 	 -49.4145 	 19.0902 	 26.666
| 19> C 	 -49.3633 	 18.6095 	 24.5856
| 20> H 	 -48.7861 	 18.022 	 23.8993
| 21> H 	 -50.307 	 18.1431 	 24.4114
| 22> H 	 -49.4368 	 19.6429 	 24.2814
| 23> S 	 -43.3908 	 13.91 	 27.0958
| 24> C 	 -42.1592 	 13.8053 	 28.2955
| 25> C 	 -42.1815 	 14.9108 	 29.1318
| 26> C 	 -42.9405 	 15.9535 	 28.603
| 27> C 	 -43.6878 	 15.6099 	 27.4555
| 28> H 	 -41.4684 	 14.9301 	 29.9647
| 29> C 	 -42.9555 	 17.252 	 29.2937
| 30> H 	 -43.4088 	 18.0577 	 28.7882
| 31> H 	 -41.8862 	 17.4813 	 29.2974
| 32> C 	 -43.5077 	 17.1615 	 30.7792
| 33> H 	 -43.0434 	 16.413 	 31.4556
| 34> H 	 -44.5873 	 16.8848 	 30.754
| 35> C 	 -43.5171 	 18.5764 	 31.4323
| 36> H 	 -44.1654 	 18.4409 	 32.2706
| 37> H 	 -43.9793 	 19.3192 	 30.8005
| 38> H 	 -42.5564 	 18.9703 	 31.8724
| 39> H 	 -46.2861 	 17.8933 	 23.8225
| 40> H 	 -41.5827 	 13.0071 	 28.4551
| 41> *
| 42>
| 43>                          ****END OF INPUT****

CARTESIAN COORDINATES (ANGSTROEM)
---------------------------------
  S    -44.574400   16.399600   24.819800
  C    -45.835700   17.599300   24.733100
  C    -46.348400   17.925400   25.981800
  C    -45.633400   17.254000   27.036500
  C    -44.636100   16.407400   26.617600
  H    -45.727600   17.500800   28.061800
  C    -47.428800   18.873300   26.293000
  H    -47.258400   19.858500   25.894900
  H    -47.485000   19.059300   27.325300
  C    -48.805500   18.407400   26.002600
  H    -48.935100   17.416200   26.372500
  H    -49.414500   19.090200   26.666000
  C    -49.363300   18.609500   24.585600
  H    -48.786100   18.022000   23.899300
  H    -50.307000   18.143100   24.411400
  H    -49.436800   19.642900   24.281400
  S    -43.390800   13.910000   27.095800
  C    -42.159200   13.805300   28.295500
  C    -42.181500   14.910800   29.131800
  C    -42.940500   15.953500   28.603000
  C    -43.687800   15.609900   27.455500
  H    -41.468400   14.930100   29.964700
  C    -42.955500   17.252000   29.293700
  H    -43.408800   18.057700   28.788200
  H    -41.886200   17.481300   29.297400
  C    -43.507700   17.161500   30.779200
  H    -43.043400   16.413000   31.455600
  H    -44.587300   16.884800   30.754000
  C    -43.517100   18.576400   31.432300
  H    -44.165400   18.440900   32.270600
  H    -43.979300   19.319200   30.800500
  H    -42.556400   18.970300   31.872400
  H    -46.286100   17.893300   23.822500
  H    -41.582700   13.007100   28.455100

 Total Charge           Charge          ....    0
 Multiplicity           Mult            ....    1
 Number of Electrons    NEL             ....  134
 Basis Dimension        Dim             ....  322

ORBITAL ENERGIES
----------------

  NO   OCC          E(Eh)            E(eV)
   0   2.0000     -88.965140     -2420.8645
   1   2.0000     -88.964041     -2420.8346
   2   2.0000     -10.334909      -281.2272
   3   2.0000     -10.328930      -281.0645
   4   2.0000     -10.312032      -280.6047
   5   2.0000     -10.308228      -280.5011
   6   2.0000     -10.299941      -280.2757
   7   2.0000     -10.298881      -280.2468
   8   2.0000     -10.298315      -280.2314
   9   2.0000     -10.291598      -280.0486
  10   2.0000     -10.290838      -280.0279
  11   2.0000     -10.286794      -279.9179
  12   2.0000     -10.283625      -279.8317
  13   2.0000     -10.280317      -279.7416
  14   2.0000     -10.279253      -279.7127
  15   2.0000     -10.272088      -279.5177
  16   2.0000      -8.079244      -219.8474
  17   2.0000      -8.079018      -219.8413
  18   2.0000      -6.037830      -164.2977
  19   2.0000      -6.037374      -164.2853
  20   2.0000      -6.033803      -164.1881
  21   2.0000      -6.033464      -164.1789
  22   2.0000      -6.030011      -164.0849
  23   2.0000      -6.029977      -164.0840
  24   2.0000      -1.003337       -27.3022
  25   2.0000      -0.984838       -26.7988
  26   2.0000      -0.921172       -25.0664
  27   2.0000      -0.908109       -24.7109
  28   2.0000      -0.865132       -23.5414
  29   2.0000      -0.853718       -23.2308
  30   2.0000      -0.848058       -23.0768
  31   2.0000      -0.816365       -22.2144
  32   2.0000      -0.789443       -21.4818
  33   2.0000      -0.774076       -21.0637
  34   2.0000      -0.704540       -19.1715
  35   2.0000      -0.701987       -19.1020
  36   2.0000      -0.699821       -19.0431
  37   2.0000      -0.660893       -17.9838
  38   2.0000      -0.645282       -17.5590
  39   2.0000      -0.623691       -16.9715
  40   2.0000      -0.605021       -16.4634
  41   2.0000      -0.581339       -15.8190
  42   2.0000      -0.557107       -15.1596
  43   2.0000      -0.550834       -14.9889
  44   2.0000      -0.538908       -14.6644
  45   2.0000      -0.529847       -14.4179
  46   2.0000      -0.521012       -14.1774
  47   2.0000      -0.513602       -13.9758
  48   2.0000      -0.502975       -13.6866
  49   2.0000      -0.498780       -13.5725
  50   2.0000      -0.491329       -13.3697
  51   2.0000      -0.487342       -13.2613
  52   2.0000      -0.473101       -12.8737
  53   2.0000      -0.465801       -12.6751
  54   2.0000      -0.461363       -12.5543
  55   2.0000      -0.450270       -12.2525
  56   2.0000      -0.444713       -12.1012
  57   2.0000      -0.440769       -11.9939
  58   2.0000      -0.435600       -11.8533
  59   2.0000      -0.427943       -11.6449
  60   2.0000      -0.423432       -11.5222
  61   2.0000      -0.412449       -11.2233
  62   2.0000      -0.405732       -11.0405
  63   2.0000      -0.346791        -9.4367
  64   2.0000      -0.329324        -8.9614
  65   2.0000      -0.327301        -8.9063
  66   2.0000      -0.289496        -7.8776
  67   0.0000       0.027440         0.7467
  68   0.0000       0.071498         1.9456
  69   0.0000       0.110357         3.0030
  70   0.0000       0.120018         3.2658
  71   0.0000       0.130681         3.5560

MULLIKEN ATOMIC CHARGES
-----------------------
   0 S :    0.105166
   1 C :   -0.101483
   2 C :   -0.095031
   3 C :    0.040872
   4 C :   -0.143043
   5 H :   -0.003372
   6 C :    0.119045
   7 H :    0.021536
   8 H :   -0.006402
   9 C :   -0.086068
  10 H :    0.023094
  11 H :    0.024108
  12 C :   -0.011597
  13 H :    0.009114
  14 H :    0.020599
  15 H :    0.032244
  16 S :    0.106249
  17 C :   -0.041239
  18 C :   -0.053719
  19 C :   -0.016256
  20 C :   -0.147579
  21 H :    0.027572
  22 C :    0.084633
  23 H :    0.005420
  24 H :    0.030861
  25 C :   -0.118173
  26 H :    0.043696
  27 H :    0.036068
  28 C :   -0.043714
  29 H :    0.021410
  30 H :    0.028899
  31 H :    0.044121
  32 H :    0.036570
  33 H :    0.006400
Sum of atomic charges:   -0.0000000

LOEWDIN ATOMIC CHARGES
----------------------
   0 S :    0.388977
   1 C :   -0.188525
   2 C :   -0.060867
   3 C :   -0.057132
   4 C :   -0.175637
   5 H :    0.024471
   6 C :   -0.035858
   7 H :    0.032429
   8 H :    0.027806
   9 C :   -0.034277
  10 H :    0.022326
  11 H :    0.028186
  12 C :   -0.066006
  13 H :    0.019185
  14 H :    0.026051
  15 H :    0.024913
  16 S :    0.413125
  17 C :   -0.164598
  18 C :   -0.072058
  19 C :   -0.055724
  20 C :   -0.205374
  21 H :    0.035972
  22 C :   -0.031232
  23 H :    0.020875
  24 H :    0.037706
  25 C :   -0.035731
  26 H :    0.027836
  27 H :    0.027945
  28 C :   -0.069835
  29 H :    0.022716
  30 H :    0.022065
  31 H :    0.029744
  32 H :    0.018653
  33 H :    0.001872

  Mayer bond orders larger than 0.100000
B(  0-S ,  1-C ) :   1.1392 B(  0-S ,  4-C ) :   1.1395 B(  1-C ,  2-C ) :   1.6059
B(  1-C , 32-H ) :   0.9700 B(  2-C ,  3-C ) :   1.2381 B(  2-C ,  6-C ) :   1.0380
B(  3-C ,  4-C ) :   1.5860 B(  3-C ,  5-H ) :   0.9964 B(  4-C , 20-C ) :   1.0338
B(  6-C ,  7-H ) :   0.9277 B(  6-C ,  8-H ) :   0.9270 B(  6-C ,  9-C ) :   1.0770
B(  9-C , 10-H ) :   0.9520 B(  9-C , 11-H ) :   0.9585 B(  9-C , 12-C ) :   1.0863
B( 12-C , 13-H ) :   0.9698 B( 12-C , 14-H ) :   0.9677 B( 12-C , 15-H ) :   0.9747
B( 16-S , 17-C ) :   1.1815 B( 16-S , 20-C ) :   1.1388 B( 17-C , 18-C ) :   1.5748
B( 17-C , 20-C ) :   0.1024 B( 17-C , 33-H ) :   0.9818 B( 18-C , 19-C ) :   1.2660
B( 18-C , 21-H ) :   0.9881 B( 19-C , 20-C ) :   1.5557 B( 19-C , 22-C ) :   1.0526
B( 22-C , 23-H ) :   0.9366 B( 22-C , 24-H ) :   0.9270 B( 22-C , 25-C ) :   1.0499
B( 25-C , 26-H ) :   0.9560 B( 25-C , 27-H ) :   0.9593 B( 25-C , 28-C ) :   1.0784
B( 28-C , 29-H ) :   0.9753 B( 28-C , 30-H ) :   0.9737 B( 28-C , 31-H ) :   0.9765

Dispersion correction           -0.013942647
FINAL SINGLE POINT ENERGY     -1339.865076868354

DIPOLE MOMENT
-------------
                                X             Y             Z
Electronic contribution:     14.04291     -19.63442     -13.35088
Nuclear contribution   :    -14.22794      20.07891      13.90951
                        -----------------------------------------
Total Dipole Moment    :     -0.18503       0.44448       0.55863
                        -----------------------------------------
Magnitude (a.u.)       :      0.73747
Magnitude (Debye)      :      1.87451

Rotational constants in cm-1:     0.018913     0.008153     0.006156
Rotational constants in MHz :   566.994115   244.410942   184.562162

                             ****ORCA TERMINATED NORMALLY****
TOTAL RUN TIME: 0 days 0 hours 0 minutes 21 seconds 340 msec
