                         Program Version 4.2.1 -  RELEASE  -
|  1> ! wB97X-D3 SP def2-SVP
|  2> %pal
|  3> nprocs 24
|  4> end
|  5>
|  6> * xyz 0 1
|  7> S 	 -114.687 	 14.3881 	 -117.667
|  8> C 	 -113.344 	 15.4481 	 -117.733
|  9> C 	 -113.7 	 16.8018 	 -117.694
| 10> C 	 -115.053 	 16.9427 	 -117.362
| 11> C 	 -115.713 	 15.7332 	 -117.217
| 12> H 	 -115.632 	 17.8631 	 -117.319
| 13> C 	 -112.738 	 17.9912 	 -117.987
| 14> H 	 -112.072 	 18.0302 	 -117.095
| 15> H 	 -113.264 	 18.9584 	 -117.945
| 16> C 	 -112.055 	 17.8858 	 -119.345
| 17> H 	 -111.855 	 16.8726 	 -119.515
| 18> H 	 -112.795 	 18.185 	 -120.186
| 19> C 	 -110.782 	 18.6176 	 -119.546
| 20> H 	 -110.931 	 19.6196 	 -119.894
| 21> H 	 -110.291 	 18.5841 	 -118.571
| 22> H 	 -110.099 	 18.1108 	 -120.295
| 23> S 	 -118.081 	 14.6289 	 -118.169
| 24> C 	 -119.586 	 15.1048 	 -117.377
| 25> C 	 -119.353 	 15.5337 	 -116.076
| 26> C 	 -117.97 	 15.9465 	 -115.937
| 27> C 	 -117.163 	 15.5898 	 -117.042
| 28> H 	 -120.192 	 15.575 	 -115.42
| 29> C 	 -117.454 	 16.6393 	 -114.776
| 30> H 	 -116.391 	 17.0133 	 -114.981
| 31> H 	 -117.195 	 15.8431 	 -113.991
| 32> C 	 -118.268 	 17.7525 	 -114.139
| 33> H 	 -117.788 	 18.2088 	 -113.169
| 34> H 	 -119.246 	 17.4599 	 -113.758
| 35> C 	 -118.455 	 18.9685 	 -114.969
| 36> H 	 -119.22 	 19.5713 	 -114.429
| 37> H 	 -118.773 	 18.6952 	 -115.965
| 38> H 	 -117.556 	 19.5003 	 -115.008
| 39> H 	 -112.303 	 15.1806 	 -117.914
| 40> H 	 -120.606 	 14.7872 	 -117.652
| 41> *
| 42>
| 43>                          ****END OF INPUT****

CARTESIAN COORDINATES (ANGSTROEM)
---------------------------------
  S    -114.687000   14.388100  -117.667000
  C    -113.344000   15.448100  -117.733000
  C    -113.700000   16.801800  -117.694000
  C    -115.053000   16.942700  -117.362000
  C    -115.713000   15.733200  -117.217000
  H    -115.632000   17.863100  -117.319000
  C    -112.738000   17.991200  -117.987000
  H    -112.072000   18.030200  -117.095000
  H    -113.264000   18.958400  -117.945000
  C    -112.055000   17.885800  -119.345000
  H    -111.855000   16.872600  -119.515000
  H    -112.795000   18.185000  -120.186000
  C    -110.782000   18.617600  -119.546000
  H    -110.931000   19.619600  -119.894000
  H    -110.291000   18.584100  -118.571000
  H    -110.099000   18.110800  -120.295000
  S    -118.081000   14.628900  -118.169000
  C    -119.586000   15.104800  -117.377000
  C    -119.353000   15.533700  -116.076000
  C    -117.970000   15.946500  -115.937000
  C    -117.163000   15.589800  -117.042000
  H    -120.192000   15.575000  -115.420000
  C    -117.454000   16.639300  -114.776000
  H    -116.391000   17.013300  -114.981000
  H    -117.195000   15.843100  -113.991000
  C    -118.268000   17.752500  -114.139000
  H    -117.788000   18.208800  -113.169000
  H    -119.246000   17.459900  -113.758000
  C    -118.455000   18.968500  -114.969000
  H    -119.220000   19.571300  -114.429000
  H    -118.773000   18.695200  -115.965000
  H    -117.556000   19.500300  -115.008000
  H    -112.303000   15.180600  -117.914000
  H    -120.606000   14.787200  -117.652000

 Total Charge           Charge          ....    0
 Multiplicity           Mult            ....    1
 Number of Electrons    NEL             ....  134
 Basis Dimension        Dim             ....  322

ORBITAL ENERGIES
----------------

  NO   OCC          E(Eh)            E(eV)
   0   2.0000     -88.973052     -2421.0798
   1   2.0000     -88.965418     -2420.8721
   2   2.0000     -10.328247      -281.0459
   3   2.0000     -10.326421      -280.9962
   4   2.0000     -10.319863      -280.8177
   5   2.0000     -10.312764      -280.6246
   6   2.0000     -10.305556      -280.4284
   7   2.0000     -10.302414      -280.3429
   8   2.0000     -10.299480      -280.2631
   9   2.0000     -10.297312      -280.2041
  10   2.0000     -10.292478      -280.0726
  11   2.0000     -10.292144      -280.0635
  12   2.0000     -10.287126      -279.9269
  13   2.0000     -10.283097      -279.8173
  14   2.0000     -10.277400      -279.6623
  15   2.0000     -10.266639      -279.3694
  16   2.0000      -8.087987      -220.0853
  17   2.0000      -8.080006      -219.8682
  18   2.0000      -6.046372      -164.5302
  19   2.0000      -6.042579      -164.4269
  20   2.0000      -6.038776      -164.3234
  21   2.0000      -6.038579      -164.3181
  22   2.0000      -6.034743      -164.2137
  23   2.0000      -6.030503      -164.0983
  24   2.0000      -1.009103       -27.4591
  25   2.0000      -0.985731       -26.8231
  26   2.0000      -0.914698       -24.8902
  27   2.0000      -0.913160       -24.8484
  28   2.0000      -0.869481       -23.6598
  29   2.0000      -0.858447       -23.3595
  30   2.0000      -0.851619       -23.1737
  31   2.0000      -0.816876       -22.2283
  32   2.0000      -0.782579       -21.2950
  33   2.0000      -0.766211       -20.8497
  34   2.0000      -0.703044       -19.1308
  35   2.0000      -0.695386       -18.9224
  36   2.0000      -0.688079       -18.7236
  37   2.0000      -0.653938       -17.7945
  38   2.0000      -0.639901       -17.4126
  39   2.0000      -0.617749       -16.8098
  40   2.0000      -0.593803       -16.1582
  41   2.0000      -0.577270       -15.7083
  42   2.0000      -0.562415       -15.3041
  43   2.0000      -0.556879       -15.1534
  44   2.0000      -0.539562       -14.6822
  45   2.0000      -0.527105       -14.3433
  46   2.0000      -0.519248       -14.1295
  47   2.0000      -0.516068       -14.0429
  48   2.0000      -0.501628       -13.6500
  49   2.0000      -0.497964       -13.5503
  50   2.0000      -0.494328       -13.4514
  51   2.0000      -0.477367       -12.9898
  52   2.0000      -0.470625       -12.8064
  53   2.0000      -0.465861       -12.6767
  54   2.0000      -0.460889       -12.5414
  55   2.0000      -0.450825       -12.2676
  56   2.0000      -0.441730       -12.0201
  57   2.0000      -0.436374       -11.8743
  58   2.0000      -0.433143       -11.7864
  59   2.0000      -0.426596       -11.6083
  60   2.0000      -0.413116       -11.2415
  61   2.0000      -0.411029       -11.1847
  62   2.0000      -0.405896       -11.0450
  63   2.0000      -0.348351        -9.4791
  64   2.0000      -0.335619        -9.1327
  65   2.0000      -0.322891        -8.7863
  66   2.0000      -0.284234        -7.7344
  67   0.0000       0.029766         0.8100
  68   0.0000       0.055824         1.5190
  69   0.0000       0.103239         2.8093
  70   0.0000       0.113909         3.0996
  71   0.0000       0.131254         3.5716

MULLIKEN ATOMIC CHARGES
-----------------------
   0 S :    0.135482
   1 C :   -0.122672
   2 C :   -0.094879
   3 C :    0.024694
   4 C :   -0.168177
   5 H :    0.019284
   6 C :    0.064440
   7 H :    0.043053
   8 H :    0.023462
   9 C :   -0.082244
  10 H :    0.009293
  11 H :    0.040924
  12 C :   -0.041868
  13 H :    0.033987
  14 H :    0.024797
  15 H :    0.041009
  16 S :    0.100241
  17 C :   -0.102288
  18 C :   -0.024273
  19 C :   -0.039083
  20 C :   -0.141512
  21 H :    0.019910
  22 C :    0.031298
  23 H :    0.031583
  24 H :    0.050780
  25 C :   -0.100919
  26 H :    0.028209
  27 H :    0.020386
  28 C :   -0.017185
  29 H :    0.033862
  30 H :    0.033169
  31 H :    0.014768
  32 H :    0.048668
  33 H :    0.061801
Sum of atomic charges:   -0.0000000

LOEWDIN ATOMIC CHARGES
----------------------
   0 S :    0.431301
   1 C :   -0.214925
   2 C :   -0.061045
   3 C :   -0.061983
   4 C :   -0.197177
   5 H :    0.035065
   6 C :   -0.032147
   7 H :    0.035713
   8 H :    0.030434
   9 C :   -0.051051
  10 H :    0.013388
  11 H :    0.036688
  12 C :   -0.067109
  13 H :    0.021214
  14 H :    0.025455
  15 H :    0.035352
  16 S :    0.395340
  17 C :   -0.182136
  18 C :   -0.061470
  19 C :   -0.057711
  20 C :   -0.204498
  21 H :    0.030261
  22 C :   -0.055657
  23 H :    0.040528
  24 H :    0.048395
  25 C :   -0.052763
  26 H :    0.035101
  27 H :    0.016302
  28 C :   -0.059784
  29 H :    0.033165
  30 H :    0.021229
  31 H :    0.014348
  32 H :    0.027753
  33 H :    0.032424

  Mayer bond orders larger than 0.100000
B(  0-S ,  1-C ) :   1.1593 B(  0-S ,  4-C ) :   1.1601 B(  1-C ,  2-C ) :   1.5792
B(  1-C ,  4-C ) :   0.1023 B(  1-C , 32-H ) :   0.9622 B(  2-C ,  3-C ) :   1.2925
B(  2-C ,  6-C ) :   1.0052 B(  3-C ,  4-C ) :   1.5391 B(  3-C ,  5-H ) :   0.9925
B(  4-C , 20-C ) :   1.0513 B(  6-C ,  7-H ) :   0.9397 B(  6-C ,  8-H ) :   0.9473
B(  6-C ,  9-C ) :   1.0576 B(  9-C , 10-H ) :   0.9635 B(  9-C , 11-H ) :   0.9494
B(  9-C , 12-C ) :   1.0821 B( 12-C , 13-H ) :   0.9757 B( 12-C , 14-H ) :   0.9733
B( 12-C , 15-H ) :   0.9741 B( 16-S , 17-C ) :   1.1506 B( 16-S , 20-C ) :   1.1302
B( 17-C , 18-C ) :   1.6253 B( 17-C , 33-H ) :   0.9624 B( 18-C , 19-C ) :   1.2071
B( 18-C , 21-H ) :   0.9961 B( 19-C , 20-C ) :   1.5709 B( 19-C , 22-C ) :   1.0787
B( 22-C , 23-H ) :   0.9290 B( 22-C , 24-H ) :   0.9120 B( 22-C , 25-C ) :   1.0675
B( 25-C , 26-H ) :   0.9526 B( 25-C , 27-H ) :   0.9563 B( 25-C , 28-C ) :   1.0807
B( 28-C , 29-H ) :   0.9725 B( 28-C , 30-H ) :   0.9745 B( 28-C , 31-H ) :   0.9737

Dispersion correction           -0.014069831
FINAL SINGLE POINT ENERGY     -1339.855547077376

DIPOLE MOMENT
-------------
                                X             Y             Z
Electronic contribution:     -9.94048     -23.43986      -5.65593
Nuclear contribution   :     10.03042      23.83418       5.88138
                        -----------------------------------------
Total Dipole Moment    :      0.08994       0.39432       0.22545
                        -----------------------------------------
Magnitude (a.u.)       :      0.46304
Magnitude (Debye)      :      1.17695

Rotational constants in cm-1:     0.021215     0.007590     0.006236
Rotational constants in MHz :   636.002753   227.545436   186.944055

                             ****ORCA TERMINATED NORMALLY****
TOTAL RUN TIME: 0 days 0 hours 0 minutes 21 seconds 394 msec
