                         Program Version 4.2.1 -  RELEASE  -
|  1> ! wB97X-D3 SP def2-SVP
|  2> %pal
|  3> nprocs 24
|  4> end
|  5>
|  6> * xyz 0 1
|  7> S 	 24.2933 	 3.21372 	 -115.144
|  8> C 	 22.8538 	 4.20876 	 -115
|  9> C 	 22.477 	 4.21042 	 -113.637
| 10> C 	 23.3267 	 3.48054 	 -112.8
| 11> C 	 24.3176 	 2.7972 	 -113.463
| 12> H 	 23.1408 	 3.47971 	 -111.757
| 13> C 	 21.1383 	 4.71419 	 -113.101
| 14> H 	 20.9214 	 5.6036 	 -113.654
| 15> H 	 21.1856 	 5.05437 	 -112.019
| 16> C 	 19.9348 	 3.75145 	 -113.203
| 17> H 	 19.8365 	 3.57437 	 -114.243
| 18> H 	 20.1861 	 2.75637 	 -112.733
| 19> C 	 18.6026 	 4.23076 	 -112.699
| 20> H 	 18.5363 	 4.43015 	 -111.656
| 21> H 	 18.321 	 5.14937 	 -113.238
| 22> H 	 17.7264 	 3.60608 	 -112.98
| 23> S 	 26.5602 	 1.25839 	 -114.006
| 24> C 	 27.237 	 0.387058 	 -112.633
| 25> C 	 26.3297 	 0.11799 	 -111.646
| 26> C 	 25.1689 	 0.969757 	 -111.84
| 27> C 	 25.1795 	 1.70412 	 -113.057
| 28> H 	 26.5065 	 -0.51327 	 -110.821
| 29> C 	 24.3171 	 1.26686 	 -110.724
| 30> H 	 23.3801 	 1.60788 	 -111.065
| 31> H 	 24.8905 	 1.94593 	 -110.037
| 32> C 	 23.7908 	 0.0525158 	 -109.856
| 33> H 	 24.6016 	 -0.640513 	 -109.58
| 34> H 	 23.034 	 -0.53527 	 -110.436
| 35> C 	 23.1633 	 0.574346 	 -108.605
| 36> H 	 22.5102 	 -0.0391345 	 -108.02
| 37> H 	 22.4889 	 1.39844 	 -108.797
| 38> H 	 23.8607 	 0.847322 	 -107.824
| 39> H 	 22.1759 	 4.63741 	 -115.758
| 40> H 	 28.2028 	 -0.123627 	 -112.832
| 41> *
| 42>
| 43>                          ****END OF INPUT****

CARTESIAN COORDINATES (ANGSTROEM)
---------------------------------
  S     24.293300    3.213720  -115.144000
  C     22.853800    4.208760  -115.000000
  C     22.477000    4.210420  -113.637000
  C     23.326700    3.480540  -112.800000
  C     24.317600    2.797200  -113.463000
  H     23.140800    3.479710  -111.757000
  C     21.138300    4.714190  -113.101000
  H     20.921400    5.603600  -113.654000
  H     21.185600    5.054370  -112.019000
  C     19.934800    3.751450  -113.203000
  H     19.836500    3.574370  -114.243000
  H     20.186100    2.756370  -112.733000
  C     18.602600    4.230760  -112.699000
  H     18.536300    4.430150  -111.656000
  H     18.321000    5.149370  -113.238000
  H     17.726400    3.606080  -112.980000
  S     26.560200    1.258390  -114.006000
  C     27.237000    0.387058  -112.633000
  C     26.329700    0.117990  -111.646000
  C     25.168900    0.969757  -111.840000
  C     25.179500    1.704120  -113.057000
  H     26.506500   -0.513270  -110.821000
  C     24.317100    1.266860  -110.724000
  H     23.380100    1.607880  -111.065000
  H     24.890500    1.945930  -110.037000
  C     23.790800    0.052516  -109.856000
  H     24.601600   -0.640513  -109.580000
  H     23.034000   -0.535270  -110.436000
  C     23.163300    0.574346  -108.605000
  H     22.510200   -0.039135  -108.020000
  H     22.488900    1.398440  -108.797000
  H     23.860700    0.847322  -107.824000
  H     22.175900    4.637410  -115.758000
  H     28.202800   -0.123627  -112.832000

 Total Charge           Charge          ....    0
 Multiplicity           Mult            ....    1
 Number of Electrons    NEL             ....  134
 Basis Dimension        Dim             ....  322

ORBITAL ENERGIES
----------------

  NO   OCC          E(Eh)            E(eV)
   0   2.0000     -88.967864     -2420.9387
   1   2.0000     -88.964925     -2420.8587
   2   2.0000     -10.331046      -281.1221
   3   2.0000     -10.328482      -281.0523
   4   2.0000     -10.323053      -280.9046
   5   2.0000     -10.318703      -280.7862
   6   2.0000     -10.303283      -280.3666
   7   2.0000     -10.300019      -280.2778
   8   2.0000     -10.297377      -280.2059
   9   2.0000     -10.294516      -280.1280
  10   2.0000     -10.294033      -280.1149
  11   2.0000     -10.288868      -279.9743
  12   2.0000     -10.286445      -279.9084
  13   2.0000     -10.286427      -279.9079
  14   2.0000     -10.278915      -279.7035
  15   2.0000     -10.273197      -279.5479
  16   2.0000      -8.082681      -219.9409
  17   2.0000      -8.080229      -219.8742
  18   2.0000      -6.041255      -164.3909
  19   2.0000      -6.038801      -164.3241
  20   2.0000      -6.037096      -164.2777
  21   2.0000      -6.034846      -164.2165
  22   2.0000      -6.033441      -164.1783
  23   2.0000      -6.030709      -164.1039
  24   2.0000      -1.011545       -27.5255
  25   2.0000      -0.986609       -26.8470
  26   2.0000      -0.917737       -24.9729
  27   2.0000      -0.911065       -24.7913
  28   2.0000      -0.872453       -23.7407
  29   2.0000      -0.860796       -23.4235
  30   2.0000      -0.849361       -23.1123
  31   2.0000      -0.818882       -22.2829
  32   2.0000      -0.784483       -21.3469
  33   2.0000      -0.768170       -20.9030
  34   2.0000      -0.710672       -19.3384
  35   2.0000      -0.699830       -19.0433
  36   2.0000      -0.697603       -18.9827
  37   2.0000      -0.661934       -18.0121
  38   2.0000      -0.634501       -17.2656
  39   2.0000      -0.631679       -17.1889
  40   2.0000      -0.604249       -16.4424
  41   2.0000      -0.578201       -15.7336
  42   2.0000      -0.571703       -15.5568
  43   2.0000      -0.561510       -15.2795
  44   2.0000      -0.528929       -14.3929
  45   2.0000      -0.523755       -14.2521
  46   2.0000      -0.521257       -14.1841
  47   2.0000      -0.512734       -13.9522
  48   2.0000      -0.505316       -13.7504
  49   2.0000      -0.502914       -13.6850
  50   2.0000      -0.490886       -13.3577
  51   2.0000      -0.484626       -13.1873
  52   2.0000      -0.473533       -12.8855
  53   2.0000      -0.470119       -12.7926
  54   2.0000      -0.461397       -12.5552
  55   2.0000      -0.456551       -12.4234
  56   2.0000      -0.452003       -12.2996
  57   2.0000      -0.434378       -11.8200
  58   2.0000      -0.427274       -11.6267
  59   2.0000      -0.423324       -11.5192
  60   2.0000      -0.419375       -11.4118
  61   2.0000      -0.415055       -11.2942
  62   2.0000      -0.407122       -11.0784
  63   2.0000      -0.362598        -9.8668
  64   2.0000      -0.336308        -9.1514
  65   2.0000      -0.325283        -8.8514
  66   2.0000      -0.277638        -7.5549
  67   0.0000       0.015550         0.4231
  68   0.0000       0.077931         2.1206
  69   0.0000       0.090681         2.4676
  70   0.0000       0.110389         3.0038
  71   0.0000       0.131859         3.5881

MULLIKEN ATOMIC CHARGES
-----------------------
   0 S :    0.097152
   1 C :   -0.112629
   2 C :   -0.102599
   3 C :   -0.010867
   4 C :   -0.085938
   5 H :    0.003102
   6 C :    0.028194
   7 H :    0.012940
   8 H :    0.028074
   9 C :   -0.042991
  10 H :    0.010131
  11 H :    0.031222
  12 C :   -0.042619
  13 H :    0.029534
  14 H :    0.017890
  15 H :    0.037671
  16 S :    0.091574
  17 C :   -0.107270
  18 C :    0.016127
  19 C :   -0.068361
  20 C :   -0.079586
  21 H :    0.012138
  22 C :    0.008464
  23 H :    0.028249
  24 H :    0.060745
  25 C :   -0.088412
  26 H :    0.027085
  27 H :    0.042370
  28 C :   -0.027495
  29 H :    0.014440
  30 H :    0.014487
  31 H :    0.026141
  32 H :    0.059395
  33 H :    0.071644
Sum of atomic charges:    0.0000000

LOEWDIN ATOMIC CHARGES
----------------------
   0 S :    0.415371
   1 C :   -0.211827
   2 C :   -0.060358
   3 C :   -0.073202
   4 C :   -0.181726
   5 H :    0.025995
   6 C :   -0.034924
   7 H :    0.023288
   8 H :    0.032092
   9 C :   -0.043189
  10 H :    0.018781
  11 H :    0.027568
  12 C :   -0.070239
  13 H :    0.018845
  14 H :    0.026657
  15 H :    0.034988
  16 S :    0.394564
  17 C :   -0.169832
  18 C :   -0.058363
  19 C :   -0.055116
  20 C :   -0.204939
  21 H :    0.027504
  22 C :   -0.036864
  23 H :    0.027086
  24 H :    0.045930
  25 C :   -0.037268
  26 H :    0.019019
  27 H :    0.031070
  28 C :   -0.073356
  29 H :    0.023791
  30 H :    0.023162
  31 H :    0.026008
  32 H :    0.039104
  33 H :    0.030379

  Mayer bond orders larger than 0.100000
B(  0-S ,  1-C ) :   1.1364 B(  0-S ,  4-C ) :   1.1568 B(  1-C ,  2-C ) :   1.5797
B(  1-C ,  4-C ) :   0.1029 B(  1-C , 32-H ) :   0.9653 B(  2-C ,  3-C ) :   1.2868
B(  2-C ,  6-C ) :   1.0377 B(  3-C ,  4-C ) :   1.5138 B(  3-C ,  5-H ) :   0.9999
B(  4-C , 20-C ) :   1.0845 B(  6-C ,  7-H ) :   0.9342 B(  6-C ,  8-H ) :   0.9448
B(  6-C ,  9-C ) :   1.0594 B(  9-C , 10-H ) :   0.9492 B(  9-C , 11-H ) :   0.9538
B(  9-C , 12-C ) :   1.0916 B( 12-C , 13-H ) :   0.9759 B( 12-C , 14-H ) :   0.9687
B( 12-C , 15-H ) :   0.9707 B( 16-S , 17-C ) :   1.1575 B( 16-S , 20-C ) :   1.1145
B( 17-C , 18-C ) :   1.6119 B( 17-C , 33-H ) :   0.9595 B( 18-C , 19-C ) :   1.2117
B( 18-C , 21-H ) :   1.0017 B( 19-C , 20-C ) :   1.5762 B( 19-C , 22-C ) :   1.0833
B( 22-C , 23-H ) :   0.9154 B( 22-C , 24-H ) :   0.9361 B( 22-C , 25-C ) :   1.0448
B( 25-C , 26-H ) :   0.9556 B( 25-C , 27-H ) :   0.9587 B( 25-C , 28-C ) :   1.0858
B( 28-C , 29-H ) :   0.9690 B( 28-C , 30-H ) :   0.9686 B( 28-C , 31-H ) :   0.9722

Dispersion correction           -0.013569483
FINAL SINGLE POINT ENERGY     -1339.858623240823

DIPOLE MOMENT
-------------
                                X             Y             Z
Electronic contribution:     25.70455      -0.95635     -21.49574
Nuclear contribution   :    -26.18528       0.79502      22.12929
                        -----------------------------------------
Total Dipole Moment    :     -0.48073      -0.16133       0.63355
                        -----------------------------------------
Magnitude (a.u.)       :      0.81149
Magnitude (Debye)      :      2.06264

Rotational constants in cm-1:     0.016673     0.009398     0.006230
Rotational constants in MHz :   499.835121   281.756986   186.779715

                             ****ORCA TERMINATED NORMALLY****
TOTAL RUN TIME: 0 days 0 hours 0 minutes 21 seconds 432 msec
