                         Program Version 4.2.1 -  RELEASE  -
|  1> ! wB97X-D3 SP def2-SVP
|  2> %pal
|  3> nprocs 24
|  4> end
|  5>
|  6> * xyz 0 1
|  7> S 	 -109.051 	 68.2093 	 -7.68991
|  8> C 	 -108.17 	 69.6513 	 -7.80119
|  9> C 	 -106.857 	 69.3846 	 -8.29192
| 10> C 	 -106.716 	 68.0365 	 -8.75338
| 11> C 	 -107.887 	 67.3262 	 -8.631
| 12> H 	 -105.819 	 67.6033 	 -9.12301
| 13> C 	 -105.776 	 70.4128 	 -8.40395
| 14> H 	 -104.819 	 69.9587 	 -8.04358
| 15> H 	 -106.158 	 71.0997 	 -7.71387
| 16> C 	 -105.515 	 71.0499 	 -9.77538
| 17> H 	 -105.101 	 70.285 	 -10.4171
| 18> H 	 -106.485 	 71.3881 	 -10.2001
| 19> C 	 -104.538 	 72.2554 	 -9.74288
| 20> H 	 -104.375 	 72.6854 	 -10.7048
| 21> H 	 -104.904 	 72.9488 	 -9.07623
| 22> H 	 -103.458 	 72.0454 	 -9.43092
| 23> S 	 -108.397 	 64.758 	 -7.65782
| 24> C 	 -108.305 	 63.415 	 -8.71821
| 25> C 	 -108.035 	 63.791 	 -9.97403
| 26> C 	 -107.654 	 65.1745 	 -10.082
| 27> C 	 -108.041 	 65.8765 	 -8.92445
| 28> H 	 -107.866 	 63.1147 	 -10.7712
| 29> C 	 -107.161 	 65.7164 	 -11.4232
| 30> H 	 -106.473 	 65.0266 	 -11.8845
| 31> H 	 -106.518 	 66.5304 	 -11.2089
| 32> C 	 -108.169 	 66.3642 	 -12.4308
| 33> H 	 -108.705 	 65.5578 	 -12.8675
| 34> H 	 -107.596 	 66.8958 	 -13.1307
| 35> C 	 -109.187 	 67.382 	 -11.7935
| 36> H 	 -109.809 	 67.9527 	 -12.5088
| 37> H 	 -108.654 	 68.2106 	 -11.2765
| 38> H 	 -109.837 	 66.8095 	 -11.1183
| 39> H 	 -108.486 	 70.7142 	 -7.51878
| 40> H 	 -108.601 	 62.3693 	 -8.45334
| 41> *
| 42>
| 43>                          ****END OF INPUT****

CARTESIAN COORDINATES (ANGSTROEM)
---------------------------------
  S    -109.051000   68.209300   -7.689910
  C    -108.170000   69.651300   -7.801190
  C    -106.857000   69.384600   -8.291920
  C    -106.716000   68.036500   -8.753380
  C    -107.887000   67.326200   -8.631000
  H    -105.819000   67.603300   -9.123010
  C    -105.776000   70.412800   -8.403950
  H    -104.819000   69.958700   -8.043580
  H    -106.158000   71.099700   -7.713870
  C    -105.515000   71.049900   -9.775380
  H    -105.101000   70.285000  -10.417100
  H    -106.485000   71.388100  -10.200100
  C    -104.538000   72.255400   -9.742880
  H    -104.375000   72.685400  -10.704800
  H    -104.904000   72.948800   -9.076230
  H    -103.458000   72.045400   -9.430920
  S    -108.397000   64.758000   -7.657820
  C    -108.305000   63.415000   -8.718210
  C    -108.035000   63.791000   -9.974030
  C    -107.654000   65.174500  -10.082000
  C    -108.041000   65.876500   -8.924450
  H    -107.866000   63.114700  -10.771200
  C    -107.161000   65.716400  -11.423200
  H    -106.473000   65.026600  -11.884500
  H    -106.518000   66.530400  -11.208900
  C    -108.169000   66.364200  -12.430800
  H    -108.705000   65.557800  -12.867500
  H    -107.596000   66.895800  -13.130700
  C    -109.187000   67.382000  -11.793500
  H    -109.809000   67.952700  -12.508800
  H    -108.654000   68.210600  -11.276500
  H    -109.837000   66.809500  -11.118300
  H    -108.486000   70.714200   -7.518780
  H    -108.601000   62.369300   -8.453340

 Total Charge           Charge          ....    0
 Multiplicity           Mult            ....    1
 Number of Electrons    NEL             ....  134
 Basis Dimension        Dim             ....  322

ORBITAL ENERGIES
----------------

  NO   OCC          E(Eh)            E(eV)
   0   2.0000     -88.969603     -2420.9860
   1   2.0000     -88.964290     -2420.8414
   2   2.0000     -10.328801      -281.0610
   3   2.0000     -10.327531      -281.0264
   4   2.0000     -10.319788      -280.8157
   5   2.0000     -10.311507      -280.5904
   6   2.0000     -10.302676      -280.3501
   7   2.0000     -10.301742      -280.3247
   8   2.0000     -10.290898      -280.0296
   9   2.0000     -10.290699      -280.0242
  10   2.0000     -10.287623      -279.9404
  11   2.0000     -10.286711      -279.9156
  12   2.0000     -10.283947      -279.8404
  13   2.0000     -10.281384      -279.7707
  14   2.0000     -10.277134      -279.6550
  15   2.0000     -10.275410      -279.6081
  16   2.0000      -8.085084      -220.0063
  17   2.0000      -8.080148      -219.8720
  18   2.0000      -6.043481      -164.4515
  19   2.0000      -6.039467      -164.3423
  20   2.0000      -6.038678      -164.3208
  21   2.0000      -6.035942      -164.2463
  22   2.0000      -6.034458      -164.2060
  23   2.0000      -6.030865      -164.1082
  24   2.0000      -1.011758       -27.5313
  25   2.0000      -0.991749       -26.9869
  26   2.0000      -0.912304       -24.8251
  27   2.0000      -0.901707       -24.5367
  28   2.0000      -0.868545       -23.6343
  29   2.0000      -0.853232       -23.2176
  30   2.0000      -0.842545       -22.9268
  31   2.0000      -0.816450       -22.2167
  32   2.0000      -0.782787       -21.3007
  33   2.0000      -0.769119       -20.9288
  34   2.0000      -0.708893       -19.2900
  35   2.0000      -0.698169       -18.9981
  36   2.0000      -0.688022       -18.7220
  37   2.0000      -0.658447       -17.9173
  38   2.0000      -0.638359       -17.3706
  39   2.0000      -0.621907       -16.9229
  40   2.0000      -0.596776       -16.2391
  41   2.0000      -0.573252       -15.5990
  42   2.0000      -0.561310       -15.2740
  43   2.0000      -0.552227       -15.0269
  44   2.0000      -0.538961       -14.6659
  45   2.0000      -0.529012       -14.3951
  46   2.0000      -0.512730       -13.9521
  47   2.0000      -0.504130       -13.7181
  48   2.0000      -0.500250       -13.6125
  49   2.0000      -0.496615       -13.5136
  50   2.0000      -0.487039       -13.2530
  51   2.0000      -0.478838       -13.0298
  52   2.0000      -0.470410       -12.8005
  53   2.0000      -0.468250       -12.7417
  54   2.0000      -0.461246       -12.5511
  55   2.0000      -0.450024       -12.2458
  56   2.0000      -0.442471       -12.0402
  57   2.0000      -0.436557       -11.8793
  58   2.0000      -0.435848       -11.8600
  59   2.0000      -0.422994       -11.5103
  60   2.0000      -0.420091       -11.4313
  61   2.0000      -0.417822       -11.3695
  62   2.0000      -0.411227       -11.1901
  63   2.0000      -0.351490        -9.5645
  64   2.0000      -0.330686        -8.9984
  65   2.0000      -0.324844        -8.8395
  66   2.0000      -0.290016        -7.8917
  67   0.0000       0.033490         0.9113
  68   0.0000       0.068495         1.8639
  69   0.0000       0.113919         3.0999
  70   0.0000       0.121101         3.2953
  71   0.0000       0.134181         3.6513

MULLIKEN ATOMIC CHARGES
-----------------------
   0 S :    0.131181
   1 C :   -0.136673
   2 C :   -0.138028
   3 C :    0.049124
   4 C :   -0.160066
   5 H :    0.009302
   6 C :    0.082205
   7 H :    0.034947
   8 H :   -0.001979
   9 C :   -0.060399
  10 H :    0.023768
  11 H :    0.032066
  12 C :   -0.032151
  13 H :    0.029821
  14 H :    0.016859
  15 H :    0.030307
  16 S :    0.115148
  17 C :   -0.096811
  18 C :   -0.000882
  19 C :   -0.102535
  20 C :   -0.133171
  21 H :    0.004088
  22 C :    0.085691
  23 H :    0.019591
  24 H :   -0.009953
  25 C :   -0.019256
  26 H :    0.022175
  27 H :    0.019197
  28 C :   -0.085735
  29 H :    0.034237
  30 H :    0.042748
  31 H :    0.047440
  32 H :    0.076629
  33 H :    0.071116
Sum of atomic charges:   -0.0000000

LOEWDIN ATOMIC CHARGES
----------------------
   0 S :    0.441397
   1 C :   -0.238349
   2 C :   -0.062069
   3 C :   -0.057273
   4 C :   -0.195463
   5 H :    0.027424
   6 C :   -0.035954
   7 H :    0.038104
   8 H :    0.020430
   9 C :   -0.035369
  10 H :    0.020492
  11 H :    0.027899
  12 C :   -0.063203
  13 H :    0.023931
  14 H :    0.012697
  15 H :    0.032396
  16 S :    0.426992
  17 C :   -0.204337
  18 C :   -0.071283
  19 C :   -0.055699
  20 C :   -0.207561
  21 H :    0.025464
  22 C :   -0.035333
  23 H :    0.030345
  24 H :    0.022139
  25 C :   -0.021651
  26 H :    0.016138
  27 H :    0.017245
  28 C :   -0.070803
  29 H :    0.027156
  30 H :    0.029082
  31 H :    0.027133
  32 H :    0.047156
  33 H :    0.040727

  Mayer bond orders larger than 0.100000
B(  0-S ,  1-C ) :   1.1622 B(  0-S ,  4-C ) :   1.1695 B(  1-C ,  2-C ) :   1.5648
B(  1-C , 32-H ) :   0.9563 B(  2-C ,  3-C ) :   1.2650 B(  2-C ,  6-C ) :   1.0360
B(  3-C ,  4-C ) :   1.5421 B(  3-C ,  5-H ) :   0.9986 B(  4-C , 20-C ) :   1.0162
B(  6-C ,  7-H ) :   0.9354 B(  6-C ,  8-H ) :   0.9309 B(  6-C ,  9-C ) :   1.0675
B(  9-C , 10-H ) :   0.9551 B(  9-C , 11-H ) :   0.9539 B(  9-C , 12-C ) :   1.0802
B( 12-C , 13-H ) :   0.9745 B( 12-C , 14-H ) :   0.9771 B( 12-C , 15-H ) :   0.9739
B( 16-S , 17-C ) :   1.1535 B( 16-S , 20-C ) :   1.1617 B( 17-C , 18-C ) :   1.6170
B( 17-C , 33-H ) :   0.9577 B( 18-C , 19-C ) :   1.2484 B( 18-C , 21-H ) :   0.9902
B( 19-C , 20-C ) :   1.5788 B( 19-C , 22-C ) :   1.0594 B( 22-C , 23-H ) :   0.9333
B( 22-C , 24-H ) :   0.9224 B( 22-C , 25-C ) :   1.0617 B( 25-C , 26-H ) :   0.9609
B( 25-C , 27-H ) :   0.9559 B( 25-C , 28-C ) :   1.0784 B( 28-C , 29-H ) :   0.9750
B( 28-C , 30-H ) :   0.9722 B( 28-C , 31-H ) :   0.9737

Dispersion correction           -0.015396651
FINAL SINGLE POINT ENERGY     -1339.868300072619

DIPOLE MOMENT
-------------
                                X             Y             Z
Electronic contribution:    -12.35106     -17.63584      18.71741
Nuclear contribution   :     12.79982      17.86096     -19.14172
                        -----------------------------------------
Total Dipole Moment    :      0.44876       0.22512      -0.42431
                        -----------------------------------------
Magnitude (a.u.)       :      0.65735
Magnitude (Debye)      :      1.67085

Rotational constants in cm-1:     0.021090     0.008436     0.007138
Rotational constants in MHz :   632.271674   252.890158   213.994896

                             ****ORCA TERMINATED NORMALLY****
TOTAL RUN TIME: 0 days 0 hours 0 minutes 21 seconds 220 msec
