                         Program Version 4.2.1 -  RELEASE  -
|  1> ! wB97X-D3 SP def2-SVP
|  2> %pal
|  3> nprocs 24
|  4> end
|  5>
|  6> * xyz 0 1
|  7> S 	 -53.8548 	 5.12827 	 -31.4622
|  8> C 	 -55.287 	 4.71534 	 -30.4877
|  9> C 	 -56.4941 	 4.94907 	 -31.1287
| 10> C 	 -56.1903 	 5.40553 	 -32.4659
| 11> C 	 -54.8507 	 5.73428 	 -32.7631
| 12> H 	 -56.9252 	 5.71598 	 -33.1274
| 13> C 	 -57.8875 	 4.74762 	 -30.5917
| 14> H 	 -58.6337 	 5.40038 	 -31.1099
| 15> H 	 -57.6625 	 5.0573 	 -29.598
| 16> C 	 -58.3874 	 3.28904 	 -30.4683
| 17> H 	 -58.2025 	 2.8246 	 -31.3657
| 18> H 	 -57.7096 	 2.79809 	 -29.7484
| 19> C 	 -59.8627 	 3.18881 	 -30.0874
| 20> H 	 -60.0683 	 3.77824 	 -29.1838
| 21> H 	 -60.4385 	 3.70803 	 -30.8265
| 22> H 	 -60.2265 	 2.14312 	 -30.0195
| 23> S 	 -53.1937 	 7.72426 	 -33.4938
| 24> C 	 -52.9359 	 8.02745 	 -35.2132
| 25> C 	 -53.7083 	 7.12574 	 -35.9536
| 26> C 	 -54.5647 	 6.29247 	 -35.278
| 27> C 	 -54.4016 	 6.52314 	 -33.902
| 28> H 	 -53.603 	 7.25444 	 -37.0444
| 29> C 	 -55.2023 	 5.0419 	 -35.9243
| 30> H 	 -55.6718 	 5.16601 	 -36.9205
| 31> H 	 -56.0652 	 4.79087 	 -35.2756
| 32> C 	 -54.134 	 3.88594 	 -35.9301
| 33> H 	 -54.6641 	 3.00902 	 -36.2284
| 34> H 	 -53.7569 	 3.79385 	 -34.9014
| 35> C 	 -53.0142 	 4.05134 	 -36.9478
| 36> H 	 -52.4891 	 4.95915 	 -36.9856
| 37> H 	 -53.3706 	 3.87814 	 -37.9373
| 38> H 	 -52.2171 	 3.28056 	 -36.8567
| 39> H 	 -55.1129 	 4.25604 	 -29.524
| 40> H 	 -52.1915 	 8.65847 	 -35.7496
| 41> *
| 42>
| 43>                          ****END OF INPUT****

CARTESIAN COORDINATES (ANGSTROEM)
---------------------------------
  S    -53.854800    5.128270  -31.462200
  C    -55.287000    4.715340  -30.487700
  C    -56.494100    4.949070  -31.128700
  C    -56.190300    5.405530  -32.465900
  C    -54.850700    5.734280  -32.763100
  H    -56.925200    5.715980  -33.127400
  C    -57.887500    4.747620  -30.591700
  H    -58.633700    5.400380  -31.109900
  H    -57.662500    5.057300  -29.598000
  C    -58.387400    3.289040  -30.468300
  H    -58.202500    2.824600  -31.365700
  H    -57.709600    2.798090  -29.748400
  C    -59.862700    3.188810  -30.087400
  H    -60.068300    3.778240  -29.183800
  H    -60.438500    3.708030  -30.826500
  H    -60.226500    2.143120  -30.019500
  S    -53.193700    7.724260  -33.493800
  C    -52.935900    8.027450  -35.213200
  C    -53.708300    7.125740  -35.953600
  C    -54.564700    6.292470  -35.278000
  C    -54.401600    6.523140  -33.902000
  H    -53.603000    7.254440  -37.044400
  C    -55.202300    5.041900  -35.924300
  H    -55.671800    5.166010  -36.920500
  H    -56.065200    4.790870  -35.275600
  C    -54.134000    3.885940  -35.930100
  H    -54.664100    3.009020  -36.228400
  H    -53.756900    3.793850  -34.901400
  C    -53.014200    4.051340  -36.947800
  H    -52.489100    4.959150  -36.985600
  H    -53.370600    3.878140  -37.937300
  H    -52.217100    3.280560  -36.856700
  H    -55.112900    4.256040  -29.524000
  H    -52.191500    8.658470  -35.749600

 Total Charge           Charge          ....    0
 Multiplicity           Mult            ....    1
 Number of Electrons    NEL             ....  134
 Basis Dimension        Dim             ....  322

ORBITAL ENERGIES
----------------

  NO   OCC          E(Eh)            E(eV)
   0   2.0000     -88.971470     -2421.0368
   1   2.0000     -88.967675     -2420.9335
   2   2.0000     -10.329917      -281.0913
   3   2.0000     -10.329432      -281.0781
   4   2.0000     -10.318261      -280.7742
   5   2.0000     -10.316498      -280.7262
   6   2.0000     -10.306157      -280.4448
   7   2.0000     -10.302912      -280.3565
   8   2.0000     -10.300242      -280.2838
   9   2.0000     -10.294964      -280.1402
  10   2.0000     -10.289839      -280.0008
  11   2.0000     -10.288269      -279.9580
  12   2.0000     -10.285720      -279.8887
  13   2.0000     -10.283081      -279.8169
  14   2.0000     -10.281511      -279.7741
  15   2.0000     -10.268417      -279.4178
  16   2.0000      -8.085465      -220.0167
  17   2.0000      -8.081754      -219.9157
  18   2.0000      -6.043833      -164.4611
  19   2.0000      -6.040307      -164.3651
  20   2.0000      -6.040111      -164.3598
  21   2.0000      -6.036356      -164.2576
  22   2.0000      -6.036313      -164.2564
  23   2.0000      -6.032553      -164.1541
  24   2.0000      -1.005536       -27.3620
  25   2.0000      -0.980777       -26.6883
  26   2.0000      -0.915374       -24.9086
  27   2.0000      -0.904165       -24.6036
  28   2.0000      -0.868371       -23.6296
  29   2.0000      -0.850540       -23.1444
  30   2.0000      -0.846037       -23.0218
  31   2.0000      -0.809941       -22.0396
  32   2.0000      -0.785387       -21.3715
  33   2.0000      -0.772675       -21.0256
  34   2.0000      -0.708438       -19.2776
  35   2.0000      -0.705957       -19.2101
  36   2.0000      -0.691379       -18.8134
  37   2.0000      -0.658716       -17.9246
  38   2.0000      -0.640588       -17.4313
  39   2.0000      -0.618541       -16.8313
  40   2.0000      -0.594257       -16.1706
  41   2.0000      -0.574923       -15.6444
  42   2.0000      -0.559960       -15.2373
  43   2.0000      -0.549890       -14.9633
  44   2.0000      -0.539093       -14.6695
  45   2.0000      -0.525170       -14.2906
  46   2.0000      -0.513214       -13.9653
  47   2.0000      -0.507521       -13.8103
  48   2.0000      -0.500580       -13.6215
  49   2.0000      -0.494598       -13.4587
  50   2.0000      -0.482108       -13.1188
  51   2.0000      -0.481703       -13.1078
  52   2.0000      -0.476993       -12.9796
  53   2.0000      -0.465468       -12.6660
  54   2.0000      -0.459009       -12.4903
  55   2.0000      -0.447542       -12.1782
  56   2.0000      -0.441348       -12.0097
  57   2.0000      -0.434693       -11.8286
  58   2.0000      -0.433737       -11.8026
  59   2.0000      -0.426963       -11.6183
  60   2.0000      -0.424644       -11.5551
  61   2.0000      -0.420191       -11.4340
  62   2.0000      -0.417180       -11.3520
  63   2.0000      -0.343331        -9.3425
  64   2.0000      -0.338393        -9.2081
  65   2.0000      -0.328639        -8.9427
  66   2.0000      -0.283156        -7.7051
  67   0.0000       0.022477         0.6116
  68   0.0000       0.066698         1.8149
  69   0.0000       0.111670         3.0387
  70   0.0000       0.120929         3.2906
  71   0.0000       0.130229         3.5437

MULLIKEN ATOMIC CHARGES
-----------------------
   0 S :    0.110643
   1 C :   -0.153191
   2 C :   -0.072657
   3 C :    0.046833
   4 C :   -0.158815
   5 H :   -0.016136
   6 C :    0.057840
   7 H :    0.036859
   8 H :    0.025288
   9 C :   -0.038969
  10 H :    0.010744
  11 H :    0.022903
  12 C :   -0.032586
  13 H :    0.027910
  14 H :    0.018738
  15 H :    0.049972
  16 S :    0.121224
  17 C :   -0.109185
  18 C :   -0.078265
  19 C :    0.005120
  20 C :   -0.180826
  21 H :    0.027696
  22 C :    0.050805
  23 H :    0.031487
  24 H :    0.021228
  25 C :   -0.032510
  26 H :    0.025404
  27 H :    0.039968
  28 C :   -0.034317
  29 H :    0.023140
  30 H :    0.009366
  31 H :    0.029483
  32 H :    0.048763
  33 H :    0.066044
Sum of atomic charges:    0.0000000

LOEWDIN ATOMIC CHARGES
----------------------
   0 S :    0.394022
   1 C :   -0.189642
   2 C :   -0.055756
   3 C :   -0.060103
   4 C :   -0.202495
   5 H :    0.012391
   6 C :   -0.031218
   7 H :    0.035486
   8 H :    0.033700
   9 C :   -0.032714
  10 H :    0.011221
  11 H :    0.025455
  12 C :   -0.064429
  13 H :    0.027502
  14 H :    0.021444
  15 H :    0.033615
  16 S :    0.415334
  17 C :   -0.204915
  18 C :   -0.074426
  19 C :   -0.060908
  20 C :   -0.191514
  21 H :    0.033135
  22 C :   -0.028356
  23 H :    0.031438
  24 H :    0.031738
  25 C :   -0.027269
  26 H :    0.022961
  27 H :    0.029281
  28 C :   -0.066037
  29 H :    0.015954
  30 H :    0.019563
  31 H :    0.032754
  32 H :    0.022029
  33 H :    0.040760

  Mayer bond orders larger than 0.100000
B(  0-S ,  1-C ) :   1.1382 B(  0-S ,  4-C ) :   1.1412 B(  1-C ,  2-C ) :   1.5886
B(  1-C , 32-H ) :   0.9695 B(  2-C ,  3-C ) :   1.2601 B(  2-C ,  6-C ) :   1.0116
B(  3-C ,  4-C ) :   1.5564 B(  3-C ,  5-H ) :   0.9910 B(  4-C , 20-C ) :   1.0639
B(  6-C ,  7-H ) :   0.9450 B(  6-C ,  8-H ) :   0.9301 B(  6-C ,  9-C ) :   1.0616
B(  9-C , 10-H ) :   0.9583 B(  9-C , 11-H ) :   0.9525 B(  9-C , 12-C ) :   1.0833
B( 12-C , 13-H ) :   0.9735 B( 12-C , 14-H ) :   0.9723 B( 12-C , 15-H ) :   0.9735
B( 16-S , 17-C ) :   1.1410 B( 16-S , 20-C ) :   1.1698 B( 17-C , 18-C ) :   1.6018
B( 17-C , 20-C ) :   0.1122 B( 17-C , 33-H ) :   0.9618 B( 18-C , 19-C ) :   1.2864
B( 18-C , 21-H ) :   0.9726 B( 19-C , 20-C ) :   1.5234 B( 19-C , 22-C ) :   1.0502
B( 22-C , 23-H ) :   0.9420 B( 22-C , 24-H ) :   0.9285 B( 22-C , 25-C ) :   1.0608
B( 25-C , 26-H ) :   0.9548 B( 25-C , 27-H ) :   0.9560 B( 25-C , 28-C ) :   1.0812
B( 28-C , 29-H ) :   0.9712 B( 28-C , 30-H ) :   0.9727 B( 28-C , 31-H ) :   0.9705

Dispersion correction           -0.014405172
FINAL SINGLE POINT ENERGY     -1339.864093846179

DIPOLE MOMENT
-------------
                                X             Y             Z
Electronic contribution:     17.01355      16.57592       5.19600
Nuclear contribution   :    -17.40442     -16.92540      -5.44316
                        -----------------------------------------
Total Dipole Moment    :     -0.39087      -0.34948      -0.24717
                        -----------------------------------------
Magnitude (a.u.)       :      0.57966
Magnitude (Debye)      :      1.47337

Rotational constants in cm-1:     0.022501     0.007394     0.006450
Rotational constants in MHz :   674.562535   221.664953   193.369718

                             ****ORCA TERMINATED NORMALLY****
TOTAL RUN TIME: 0 days 0 hours 0 minutes 20 seconds 276 msec
