                         Program Version 4.2.1 -  RELEASE  -
|  1> ! wB97X-D3 SP def2-SVP
|  2> %pal
|  3> nprocs 24
|  4> end
|  5>
|  6> * xyz 0 1
|  7> S 	 3.63804 	 -22.7412 	 -115.971
|  8> C 	 3.88569 	 -21.0503 	 -116.291
|  9> C 	 2.99841 	 -20.3782 	 -115.538
| 10> C 	 1.96577 	 -21.1661 	 -114.884
| 11> C 	 2.22995 	 -22.5023 	 -114.958
| 12> H 	 1.10837 	 -20.7673 	 -114.252
| 13> C 	 2.95842 	 -18.8749 	 -115.337
| 14> H 	 3.84462 	 -18.5301 	 -115.759
| 15> H 	 3.00688 	 -18.6645 	 -114.256
| 16> C 	 1.65599 	 -18.1612 	 -115.912
| 17> H 	 0.752547 	 -18.3893 	 -115.371
| 18> H 	 1.97832 	 -17.057 	 -115.775
| 19> C 	 1.26563 	 -18.4561 	 -117.394
| 20> H 	 1.09224 	 -19.5306 	 -117.475
| 21> H 	 0.330113 	 -17.9356 	 -117.505
| 22> H 	 1.99365 	 -18.1595 	 -118.061
| 23> S 	 2.12419 	 -25.0009 	 -113.793
| 24> C 	 0.546514 	 -25.6168 	 -113.2
| 25> C 	 -0.471672 	 -24.7556 	 -113.632
| 26> C 	 -0.0227398 	 -23.5347 	 -114.253
| 27> C 	 1.35244 	 -23.5318 	 -114.434
| 28> H 	 -1.43764 	 -24.9616 	 -113.167
| 29> C 	 -0.983182 	 -22.3886 	 -114.548
| 30> H 	 -0.523026 	 -21.6624 	 -115.225
| 31> H 	 -0.978879 	 -21.8036 	 -113.625
| 32> C 	 -2.39137 	 -22.7957 	 -115.015
| 33> H 	 -2.91211 	 -21.8627 	 -115.152
| 34> H 	 -3.0373 	 -23.5486 	 -114.429
| 35> C 	 -2.4099 	 -23.6126 	 -116.327
| 36> H 	 -2.05938 	 -24.6069 	 -116.211
| 37> H 	 -1.78715 	 -23.1386 	 -117.06
| 38> H 	 -3.44464 	 -23.62 	 -116.894
| 39> H 	 4.71994 	 -20.6575 	 -116.887
| 40> H 	 0.436461 	 -26.4335 	 -112.598
| 41> *
| 42>
| 43>                          ****END OF INPUT****

CARTESIAN COORDINATES (ANGSTROEM)
---------------------------------
  S      3.638040  -22.741200  -115.971000
  C      3.885690  -21.050300  -116.291000
  C      2.998410  -20.378200  -115.538000
  C      1.965770  -21.166100  -114.884000
  C      2.229950  -22.502300  -114.958000
  H      1.108370  -20.767300  -114.252000
  C      2.958420  -18.874900  -115.337000
  H      3.844620  -18.530100  -115.759000
  H      3.006880  -18.664500  -114.256000
  C      1.655990  -18.161200  -115.912000
  H      0.752547  -18.389300  -115.371000
  H      1.978320  -17.057000  -115.775000
  C      1.265630  -18.456100  -117.394000
  H      1.092240  -19.530600  -117.475000
  H      0.330113  -17.935600  -117.505000
  H      1.993650  -18.159500  -118.061000
  S      2.124190  -25.000900  -113.793000
  C      0.546514  -25.616800  -113.200000
  C     -0.471672  -24.755600  -113.632000
  C     -0.022740  -23.534700  -114.253000
  C      1.352440  -23.531800  -114.434000
  H     -1.437640  -24.961600  -113.167000
  C     -0.983182  -22.388600  -114.548000
  H     -0.523026  -21.662400  -115.225000
  H     -0.978879  -21.803600  -113.625000
  C     -2.391370  -22.795700  -115.015000
  H     -2.912110  -21.862700  -115.152000
  H     -3.037300  -23.548600  -114.429000
  C     -2.409900  -23.612600  -116.327000
  H     -2.059380  -24.606900  -116.211000
  H     -1.787150  -23.138600  -117.060000
  H     -3.444640  -23.620000  -116.894000
  H      4.719940  -20.657500  -116.887000
  H      0.436461  -26.433500  -112.598000

 Total Charge           Charge          ....    0
 Multiplicity           Mult            ....    1
 Number of Electrons    NEL             ....  134
 Basis Dimension        Dim             ....  322

ORBITAL ENERGIES
----------------

  NO   OCC          E(Eh)            E(eV)
   0   2.0000     -88.965566     -2420.8761
   1   2.0000     -88.961499     -2420.7655
   2   2.0000     -10.331500      -281.1344
   3   2.0000     -10.330079      -281.0957
   4   2.0000     -10.320748      -280.8418
   5   2.0000     -10.313936      -280.6565
   6   2.0000     -10.311073      -280.5786
   7   2.0000     -10.301810      -280.3265
   8   2.0000     -10.300791      -280.2988
   9   2.0000     -10.297802      -280.2174
  10   2.0000     -10.296998      -280.1956
  11   2.0000     -10.296928      -280.1937
  12   2.0000     -10.296757      -280.1890
  13   2.0000     -10.288722      -279.9704
  14   2.0000     -10.278114      -279.6817
  15   2.0000     -10.271129      -279.4916
  16   2.0000      -8.079285      -219.8485
  17   2.0000      -8.076779      -219.7803
  18   2.0000      -6.037868      -164.2987
  19   2.0000      -6.035476      -164.2336
  20   2.0000      -6.033977      -164.1929
  21   2.0000      -6.031225      -164.1180
  22   2.0000      -6.029987      -164.0843
  23   2.0000      -6.027248      -164.0097
  24   2.0000      -1.008669       -27.4473
  25   2.0000      -0.982311       -26.7300
  26   2.0000      -0.909249       -24.7419
  27   2.0000      -0.903986       -24.5987
  28   2.0000      -0.874213       -23.7885
  29   2.0000      -0.848101       -23.0780
  30   2.0000      -0.839698       -22.8493
  31   2.0000      -0.818324       -22.2677
  32   2.0000      -0.785806       -21.3829
  33   2.0000      -0.776953       -21.1420
  34   2.0000      -0.710615       -19.3368
  35   2.0000      -0.700694       -19.0669
  36   2.0000      -0.693049       -18.8588
  37   2.0000      -0.658035       -17.9060
  38   2.0000      -0.639689       -17.4068
  39   2.0000      -0.622725       -16.9452
  40   2.0000      -0.602676       -16.3996
  41   2.0000      -0.566109       -15.4046
  42   2.0000      -0.551029       -14.9943
  43   2.0000      -0.549537       -14.9537
  44   2.0000      -0.539623       -14.6839
  45   2.0000      -0.536017       -14.5858
  46   2.0000      -0.531228       -14.4554
  47   2.0000      -0.515983       -14.0406
  48   2.0000      -0.511696       -13.9240
  49   2.0000      -0.497319       -13.5327
  50   2.0000      -0.493973       -13.4417
  51   2.0000      -0.484232       -13.1766
  52   2.0000      -0.469365       -12.7721
  53   2.0000      -0.466281       -12.6882
  54   2.0000      -0.456771       -12.4294
  55   2.0000      -0.444689       -12.1006
  56   2.0000      -0.439776       -11.9669
  57   2.0000      -0.437524       -11.9056
  58   2.0000      -0.434086       -11.8121
  59   2.0000      -0.425636       -11.5821
  60   2.0000      -0.415194       -11.2980
  61   2.0000      -0.410520       -11.1708
  62   2.0000      -0.402299       -10.9471
  63   2.0000      -0.360799        -9.8178
  64   2.0000      -0.330988        -9.0067
  65   2.0000      -0.324155        -8.8207
  66   2.0000      -0.291444        -7.9306
  67   0.0000       0.026311         0.7160
  68   0.0000       0.074103         2.0165
  69   0.0000       0.106146         2.8884
  70   0.0000       0.121814         3.3147
  71   0.0000       0.124710         3.3935

MULLIKEN ATOMIC CHARGES
-----------------------
   0 S :    0.092464
   1 C :   -0.134204
   2 C :   -0.102035
   3 C :   -0.058827
   4 C :   -0.080160
   5 H :    0.041269
   6 C :    0.118313
   7 H :   -0.009759
   8 H :    0.040086
   9 C :   -0.144668
  10 H :    0.031847
  11 H :    0.046375
  12 C :   -0.013706
  13 H :    0.043042
  14 H :    0.033236
  15 H :    0.022435
  16 S :    0.088593
  17 C :   -0.068425
  18 C :   -0.038843
  19 C :   -0.060566
  20 C :   -0.145826
  21 H :    0.033425
  22 C :    0.052523
  23 H :    0.032298
  24 H :    0.048502
  25 C :   -0.067312
  26 H :    0.031616
  27 H :    0.050501
  28 C :   -0.081016
  29 H :    0.041745
  30 H :    0.018755
  31 H :    0.045432
  32 H :    0.062943
  33 H :    0.029947
Sum of atomic charges:   -0.0000000

LOEWDIN ATOMIC CHARGES
----------------------
   0 S :    0.396893
   1 C :   -0.204075
   2 C :   -0.069112
   3 C :   -0.081922
   4 C :   -0.186916
   5 H :    0.042726
   6 C :   -0.028906
   7 H :    0.015357
   8 H :    0.037245
   9 C :   -0.041100
  10 H :    0.017904
  11 H :    0.033392
  12 C :   -0.055376
  13 H :    0.029010
  14 H :    0.027967
  15 H :    0.012642
  16 S :    0.372226
  17 C :   -0.149579
  18 C :   -0.071860
  19 C :   -0.052780
  20 C :   -0.183302
  21 H :    0.034864
  22 C :   -0.036128
  23 H :    0.033580
  24 H :    0.037849
  25 C :   -0.048115
  26 H :    0.025526
  27 H :    0.037799
  28 C :   -0.072072
  29 H :    0.019979
  30 H :    0.016406
  31 H :    0.039305
  32 H :    0.039636
  33 H :    0.010937

  Mayer bond orders larger than 0.100000
B(  0-S ,  1-C ) :   1.1076 B(  0-S ,  4-C ) :   1.1406 B(  1-C ,  2-C ) :   1.6375
B(  1-C , 32-H ) :   0.9688 B(  2-C ,  3-C ) :   1.1962 B(  2-C ,  6-C ) :   1.0298
B(  3-C ,  4-C ) :   1.5888 B(  3-C ,  5-H ) :   0.9820 B(  4-C , 20-C ) :   1.0614
B(  6-C ,  7-H ) :   0.9367 B(  6-C ,  8-H ) :   0.9413 B(  6-C ,  9-C ) :   1.0487
B(  9-C , 10-H ) :   0.9614 B(  9-C , 11-H ) :   0.9600 B(  9-C , 12-C ) :   1.0721
B( 12-C , 13-H ) :   0.9703 B( 12-C , 14-H ) :   0.9753 B( 12-C , 15-H ) :   0.9798
B( 16-S , 17-C ) :   1.1428 B( 16-S , 20-C ) :   1.1202 B( 17-C , 18-C ) :   1.6289
B( 17-C , 20-C ) :   0.1021 B( 17-C , 33-H ) :   0.9802 B( 18-C , 19-C ) :   1.2210
B( 18-C , 21-H ) :   0.9791 B( 19-C , 20-C ) :   1.6149 B( 19-C , 22-C ) :   1.0328
B( 22-C , 23-H ) :   0.9266 B( 22-C , 24-H ) :   0.9251 B( 22-C , 25-C ) :   1.0636
B( 25-C , 26-H ) :   0.9522 B( 25-C , 27-H ) :   0.9589 B( 25-C , 28-C ) :   1.0651
B( 28-C , 29-H ) :   0.9754 B( 28-C , 30-H ) :   0.9743 B( 28-C , 31-H ) :   0.9748

Dispersion correction           -0.014833644
FINAL SINGLE POINT ENERGY     -1339.857251322078

DIPOLE MOMENT
-------------
                                X             Y             Z
Electronic contribution:     19.56036     -19.40896       7.73436
Nuclear contribution   :    -20.05295      19.99234      -7.56947
                        -----------------------------------------
Total Dipole Moment    :     -0.49259       0.58338       0.16489
                        -----------------------------------------
Magnitude (a.u.)       :      0.78113
Magnitude (Debye)      :      1.98547

Rotational constants in cm-1:     0.018161     0.009696     0.007076
Rotational constants in MHz :   544.446305   290.691175   212.135871

                             ****ORCA TERMINATED NORMALLY****
TOTAL RUN TIME: 0 days 0 hours 0 minutes 21 seconds 135 msec
