                         Program Version 4.2.1 -  RELEASE  -
|  1> ! wB97X-D3 SP def2-SVP
|  2> %pal
|  3> nprocs 24
|  4> end
|  5>
|  6> * xyz 0 1
|  7> S 	 -95.5341 	 49.2967 	 -88.9045
|  8> C 	 -94.9207 	 48.0234 	 -87.8836
|  9> C 	 -95.0978 	 46.7639 	 -88.4125
| 10> C 	 -95.6024 	 46.8604 	 -89.7801
| 11> C 	 -95.8774 	 48.1886 	 -90.1947
| 12> H 	 -95.8974 	 46.0334 	 -90.3827
| 13> C 	 -94.7506 	 45.4384 	 -87.7364
| 14> H 	 -94.5967 	 44.6154 	 -88.42
| 15> H 	 -95.5094 	 45.0232 	 -87.0136
| 16> C 	 -93.357 	 45.4568 	 -86.9844
| 17> H 	 -93.4486 	 46.2089 	 -86.303
| 18> H 	 -93.4428 	 44.6023 	 -86.3922
| 19> C 	 -92.2115 	 45.5532 	 -87.9766
| 20> H 	 -92.1837 	 44.7579 	 -88.7954
| 21> H 	 -92.3019 	 46.561 	 -88.4288
| 22> H 	 -91.2092 	 45.3266 	 -87.5076
| 23> S 	 -97.8624 	 49.7212 	 -91.1424
| 24> C 	 -98.2377 	 49.8642 	 -92.8789
| 25> C 	 -97.492 	 48.8874 	 -93.5868
| 26> C 	 -96.5626 	 48.1852 	 -92.746
| 27> C 	 -96.5398 	 48.5785 	 -91.4316
| 28> H 	 -97.5474 	 48.5667 	 -94.6569
| 29> C 	 -95.7149 	 47.0259 	 -93.3208
| 30> H 	 -94.8468 	 46.9105 	 -92.6984
| 31> H 	 -95.2989 	 47.3585 	 -94.2843
| 32> C 	 -96.5098 	 45.7314 	 -93.4409
| 33> H 	 -97.2854 	 45.9751 	 -94.1949
| 34> H 	 -97.0322 	 45.5587 	 -92.4563
| 35> C 	 -95.7436 	 44.5193 	 -93.915
| 36> H 	 -95.3305 	 44.7372 	 -94.8948
| 37> H 	 -96.2805 	 43.6566 	 -93.7589
| 38> H 	 -94.9471 	 44.2962 	 -93.2012
| 39> H 	 -94.5553 	 48.1813 	 -86.8639
| 40> H 	 -99.0448 	 50.4485 	 -93.2227
| 41> *
| 42>
| 43>                          ****END OF INPUT****

CARTESIAN COORDINATES (ANGSTROEM)
---------------------------------
  S    -95.534100   49.296700  -88.904500
  C    -94.920700   48.023400  -87.883600
  C    -95.097800   46.763900  -88.412500
  C    -95.602400   46.860400  -89.780100
  C    -95.877400   48.188600  -90.194700
  H    -95.897400   46.033400  -90.382700
  C    -94.750600   45.438400  -87.736400
  H    -94.596700   44.615400  -88.420000
  H    -95.509400   45.023200  -87.013600
  C    -93.357000   45.456800  -86.984400
  H    -93.448600   46.208900  -86.303000
  H    -93.442800   44.602300  -86.392200
  C    -92.211500   45.553200  -87.976600
  H    -92.183700   44.757900  -88.795400
  H    -92.301900   46.561000  -88.428800
  H    -91.209200   45.326600  -87.507600
  S    -97.862400   49.721200  -91.142400
  C    -98.237700   49.864200  -92.878900
  C    -97.492000   48.887400  -93.586800
  C    -96.562600   48.185200  -92.746000
  C    -96.539800   48.578500  -91.431600
  H    -97.547400   48.566700  -94.656900
  C    -95.714900   47.025900  -93.320800
  H    -94.846800   46.910500  -92.698400
  H    -95.298900   47.358500  -94.284300
  C    -96.509800   45.731400  -93.440900
  H    -97.285400   45.975100  -94.194900
  H    -97.032200   45.558700  -92.456300
  C    -95.743600   44.519300  -93.915000
  H    -95.330500   44.737200  -94.894800
  H    -96.280500   43.656600  -93.758900
  H    -94.947100   44.296200  -93.201200
  H    -94.555300   48.181300  -86.863900
  H    -99.044800   50.448500  -93.222700

 Total Charge           Charge          ....    0
 Multiplicity           Mult            ....    1
 Number of Electrons    NEL             ....  134
 Basis Dimension        Dim             ....  322

ORBITAL ENERGIES
----------------

  NO   OCC          E(Eh)            E(eV)
   0   2.0000     -88.971926     -2421.0492
   1   2.0000     -88.963062     -2420.8080
   2   2.0000     -10.335116      -281.2328
   3   2.0000     -10.329255      -281.0733
   4   2.0000     -10.324705      -280.9495
   5   2.0000     -10.316890      -280.7368
   6   2.0000     -10.307987      -280.4946
   7   2.0000     -10.305275      -280.4208
   8   2.0000     -10.303283      -280.3666
   9   2.0000     -10.299100      -280.2528
  10   2.0000     -10.297593      -280.2118
  11   2.0000     -10.290329      -280.0141
  12   2.0000     -10.289972      -280.0044
  13   2.0000     -10.288490      -279.9641
  14   2.0000     -10.278008      -279.6788
  15   2.0000     -10.273524      -279.5568
  16   2.0000      -8.086655      -220.0491
  17   2.0000      -8.077261      -219.7934
  18   2.0000      -6.045248      -164.4995
  19   2.0000      -6.041081      -164.3862
  20   2.0000      -6.037386      -164.2856
  21   2.0000      -6.035855      -164.2440
  22   2.0000      -6.031844      -164.1348
  23   2.0000      -6.027938      -164.0285
  24   2.0000      -1.005357       -27.3572
  25   2.0000      -0.979862       -26.6634
  26   2.0000      -0.913506       -24.8578
  27   2.0000      -0.909832       -24.7578
  28   2.0000      -0.867627       -23.6093
  29   2.0000      -0.852914       -23.2090
  30   2.0000      -0.843781       -22.9605
  31   2.0000      -0.807706       -21.9788
  32   2.0000      -0.781937       -21.2776
  33   2.0000      -0.775553       -21.1039
  34   2.0000      -0.711392       -19.3579
  35   2.0000      -0.700442       -19.0600
  36   2.0000      -0.694205       -18.8903
  37   2.0000      -0.671580       -18.2746
  38   2.0000      -0.640498       -17.4288
  39   2.0000      -0.610161       -16.6033
  40   2.0000      -0.597086       -16.2475
  41   2.0000      -0.577788       -15.7224
  42   2.0000      -0.572762       -15.5857
  43   2.0000      -0.550952       -14.9922
  44   2.0000      -0.537286       -14.6203
  45   2.0000      -0.526165       -14.3177
  46   2.0000      -0.516905       -14.0657
  47   2.0000      -0.511063       -13.9067
  48   2.0000      -0.501987       -13.6598
  49   2.0000      -0.497602       -13.5404
  50   2.0000      -0.492840       -13.4108
  51   2.0000      -0.484888       -13.1945
  52   2.0000      -0.472385       -12.8542
  53   2.0000      -0.464563       -12.6414
  54   2.0000      -0.460440       -12.5292
  55   2.0000      -0.449270       -12.2253
  56   2.0000      -0.445927       -12.1343
  57   2.0000      -0.436220       -11.8702
  58   2.0000      -0.434905       -11.8344
  59   2.0000      -0.426600       -11.6084
  60   2.0000      -0.418547       -11.3892
  61   2.0000      -0.413002       -11.2383
  62   2.0000      -0.406477       -11.0608
  63   2.0000      -0.352075        -9.5805
  64   2.0000      -0.331862        -9.0304
  65   2.0000      -0.328935        -8.9508
  66   2.0000      -0.289635        -7.8814
  67   0.0000       0.022868         0.6223
  68   0.0000       0.068617         1.8672
  69   0.0000       0.099747         2.7142
  70   0.0000       0.122160         3.3241
  71   0.0000       0.128294         3.4910

MULLIKEN ATOMIC CHARGES
-----------------------
   0 S :    0.129843
   1 C :   -0.134479
   2 C :   -0.066060
   3 C :    0.033680
   4 C :   -0.135276
   5 H :   -0.007473
   6 C :    0.007558
   7 H :    0.014628
   8 H :    0.050467
   9 C :   -0.007148
  10 H :   -0.001627
  11 H :    0.002528
  12 C :   -0.080456
  13 H :    0.035141
  14 H :    0.060997
  15 H :    0.044089
  16 S :    0.072568
  17 C :   -0.076662
  18 C :   -0.024140
  19 C :   -0.086755
  20 C :   -0.125952
  21 H :    0.037345
  22 C :    0.063206
  23 H :    0.014908
  24 H :    0.018880
  25 C :   -0.117569
  26 H :    0.024225
  27 H :    0.039594
  28 C :    0.036069
  29 H :    0.038221
  30 H :    0.016007
  31 H :    0.011993
  32 H :    0.056907
  33 H :    0.054742
Sum of atomic charges:   -0.0000000

LOEWDIN ATOMIC CHARGES
----------------------
   0 S :    0.424990
   1 C :   -0.204318
   2 C :   -0.063017
   3 C :   -0.056138
   4 C :   -0.203634
   5 H :    0.022735
   6 C :   -0.031881
   7 H :    0.023910
   8 H :    0.038459
   9 C :   -0.030130
  10 H :    0.007171
  11 H :    0.016147
  12 C :   -0.075276
  13 H :    0.031165
  14 H :    0.035968
  15 H :    0.032119
  16 S :    0.382345
  17 C :   -0.167972
  18 C :   -0.070095
  19 C :   -0.062001
  20 C :   -0.184249
  21 H :    0.039754
  22 C :   -0.031226
  23 H :    0.022718
  24 H :    0.027429
  25 C :   -0.045649
  26 H :    0.024202
  27 H :    0.027371
  28 C :   -0.058874
  29 H :    0.029745
  30 H :    0.019698
  31 H :    0.027071
  32 H :    0.030805
  33 H :    0.020660

  Mayer bond orders larger than 0.100000
B(  0-S ,  1-C ) :   1.1395 B(  0-S ,  4-C ) :   1.1600 B(  1-C ,  2-C ) :   1.6052
B(  1-C , 32-H ) :   0.9629 B(  2-C ,  3-C ) :   1.2518 B(  2-C ,  6-C ) :   1.0154
B(  3-C ,  4-C ) :   1.5389 B(  3-C ,  5-H ) :   0.9966 B(  4-C , 20-C ) :   1.0471
B(  6-C ,  7-H ) :   0.9520 B(  6-C ,  8-H ) :   0.9415 B(  6-C ,  9-C ) :   1.0719
B(  9-C , 10-H ) :   0.9559 B(  9-C , 11-H ) :   0.9519 B(  9-C , 12-C ) :   1.0641
B( 12-C , 13-H ) :   0.9744 B( 12-C , 14-H ) :   0.9722 B( 12-C , 15-H ) :   0.9744
B( 16-S , 17-C ) :   1.1528 B( 16-S , 20-C ) :   1.1293 B( 17-C , 18-C ) :   1.5663
B( 17-C , 20-C ) :   0.1063 B( 17-C , 33-H ) :   0.9790 B( 18-C , 19-C ) :   1.2613
B( 18-C , 21-H ) :   0.9762 B( 19-C , 20-C ) :   1.6221 B( 19-C , 22-C ) :   1.0420
B( 22-C , 23-H ) :   0.9362 B( 22-C , 24-H ) :   0.9332 B( 22-C , 25-C ) :   1.0564
B( 25-C , 26-H ) :   0.9519 B( 25-C , 27-H ) :   0.9510 B( 25-C , 28-C ) :   1.0921
B( 28-C , 29-H ) :   0.9706 B( 28-C , 30-H ) :   0.9669 B( 28-C , 31-H ) :   0.9666

Dispersion correction           -0.014317083
FINAL SINGLE POINT ENERGY     -1339.864812896047

DIPOLE MOMENT
-------------
                                X             Y             Z
Electronic contribution:    -13.62434      26.03864       3.25876
Nuclear contribution   :     13.71231     -26.78158      -3.32254
                        -----------------------------------------
Total Dipole Moment    :      0.08798      -0.74294      -0.06378
                        -----------------------------------------
Magnitude (a.u.)       :      0.75085
Magnitude (Debye)      :      1.90850

Rotational constants in cm-1:     0.018477     0.009013     0.006454
Rotational constants in MHz :   553.930225   270.211787   193.486385

                             ****ORCA TERMINATED NORMALLY****
TOTAL RUN TIME: 0 days 0 hours 0 minutes 21 seconds 791 msec
