                         Program Version 4.2.1 -  RELEASE  -
|  1> ! wB97X-D3 SP def2-SVP
|  2> %pal
|  3> nprocs 24
|  4> end
|  5>
|  6> * xyz 0 1
|  7> S 	 -126.398 	 67.0774 	 -39.3801
|  8> C 	 -127.103 	 68.707 	 -39.4758
|  9> C 	 -126.554 	 69.4322 	 -40.4704
| 10> C 	 -125.482 	 68.6959 	 -41.0837
| 11> C 	 -125.3 	 67.3739 	 -40.6558
| 12> H 	 -124.806 	 68.9625 	 -41.9122
| 13> C 	 -126.911 	 70.8736 	 -40.9129
| 14> H 	 -126.75 	 71.4631 	 -40.0012
| 15> H 	 -127.947 	 70.896 	 -41.1162
| 16> C 	 -126.073 	 71.5014 	 -42.0784
| 17> H 	 -125.09 	 71.6117 	 -41.7205
| 18> H 	 -125.896 	 70.7405 	 -42.8478
| 19> C 	 -126.509 	 72.728 	 -42.732
| 20> H 	 -126.695 	 73.5687 	 -42.0447
| 21> H 	 -125.865 	 73.0448 	 -43.5958
| 22> H 	 -127.542 	 72.6364 	 -43.096
| 23> S 	 -123.294 	 65.613 	 -39.9083
| 24> C 	 -122.483 	 64.7694 	 -41.2815
| 25> C 	 -123.011 	 65.0036 	 -42.4792
| 26> C 	 -123.995 	 66.0728 	 -42.4217
| 27> C 	 -124.363 	 66.3706 	 -41.1009
| 28> H 	 -122.646 	 64.4804 	 -43.337
| 29> C 	 -124.569 	 66.6125 	 -43.7327
| 30> H 	 -125.404 	 67.304 	 -43.5154
| 31> H 	 -125.135 	 65.7939 	 -44.2639
| 32> C 	 -123.638 	 67.3413 	 -44.5959
| 33> H 	 -122.873 	 66.5556 	 -44.8165
| 34> H 	 -123.233 	 68.1975 	 -44.1121
| 35> C 	 -124.259 	 67.8893 	 -45.868
| 36> H 	 -124.71 	 67.105 	 -46.4817
| 37> H 	 -123.483 	 68.3191 	 -46.5084
| 38> H 	 -124.97 	 68.6449 	 -45.6374
| 39> H 	 -127.857 	 69.1011 	 -38.8479
| 40> H 	 -121.588 	 64.1891 	 -41.1628
| 41> *
| 42>
| 43>                          ****END OF INPUT****

CARTESIAN COORDINATES (ANGSTROEM)
---------------------------------
  S    -126.398000   67.077400  -39.380100
  C    -127.103000   68.707000  -39.475800
  C    -126.554000   69.432200  -40.470400
  C    -125.482000   68.695900  -41.083700
  C    -125.300000   67.373900  -40.655800
  H    -124.806000   68.962500  -41.912200
  C    -126.911000   70.873600  -40.912900
  H    -126.750000   71.463100  -40.001200
  H    -127.947000   70.896000  -41.116200
  C    -126.073000   71.501400  -42.078400
  H    -125.090000   71.611700  -41.720500
  H    -125.896000   70.740500  -42.847800
  C    -126.509000   72.728000  -42.732000
  H    -126.695000   73.568700  -42.044700
  H    -125.865000   73.044800  -43.595800
  H    -127.542000   72.636400  -43.096000
  S    -123.294000   65.613000  -39.908300
  C    -122.483000   64.769400  -41.281500
  C    -123.011000   65.003600  -42.479200
  C    -123.995000   66.072800  -42.421700
  C    -124.363000   66.370600  -41.100900
  H    -122.646000   64.480400  -43.337000
  C    -124.569000   66.612500  -43.732700
  H    -125.404000   67.304000  -43.515400
  H    -125.135000   65.793900  -44.263900
  C    -123.638000   67.341300  -44.595900
  H    -122.873000   66.555600  -44.816500
  H    -123.233000   68.197500  -44.112100
  C    -124.259000   67.889300  -45.868000
  H    -124.710000   67.105000  -46.481700
  H    -123.483000   68.319100  -46.508400
  H    -124.970000   68.644900  -45.637400
  H    -127.857000   69.101100  -38.847900
  H    -121.588000   64.189100  -41.162800

 Total Charge           Charge          ....    0
 Multiplicity           Mult            ....    1
 Number of Electrons    NEL             ....  134
 Basis Dimension        Dim             ....  322

ORBITAL ENERGIES
----------------

  NO   OCC          E(Eh)            E(eV)
   0   2.0000     -88.967520     -2420.9293
   1   2.0000     -88.962598     -2420.7954
   2   2.0000     -10.331045      -281.1220
   3   2.0000     -10.324528      -280.9447
   4   2.0000     -10.317099      -280.7425
   5   2.0000     -10.310420      -280.5608
   6   2.0000     -10.308167      -280.4995
   7   2.0000     -10.302969      -280.3580
   8   2.0000     -10.297486      -280.2088
   9   2.0000     -10.292861      -280.0830
  10   2.0000     -10.292415      -280.0708
  11   2.0000     -10.291252      -280.0392
  12   2.0000     -10.283391      -279.8253
  13   2.0000     -10.283114      -279.8178
  14   2.0000     -10.282332      -279.7965
  15   2.0000     -10.277195      -279.6567
  16   2.0000      -8.081335      -219.9043
  17   2.0000      -8.077694      -219.8052
  18   2.0000      -6.039983      -164.3563
  19   2.0000      -6.036266      -164.2551
  20   2.0000      -6.036177      -164.2527
  21   2.0000      -6.032119      -164.1423
  22   2.0000      -6.031695      -164.1308
  23   2.0000      -6.028480      -164.0433
  24   2.0000      -1.005997       -27.3746
  25   2.0000      -0.982527       -26.7359
  26   2.0000      -0.920215       -25.0403
  27   2.0000      -0.914195       -24.8765
  28   2.0000      -0.879696       -23.9377
  29   2.0000      -0.850189       -23.1348
  30   2.0000      -0.846769       -23.0418
  31   2.0000      -0.815397       -22.1881
  32   2.0000      -0.787914       -21.4402
  33   2.0000      -0.776490       -21.1294
  34   2.0000      -0.715735       -19.4761
  35   2.0000      -0.698221       -18.9996
  36   2.0000      -0.692413       -18.8415
  37   2.0000      -0.659998       -17.9595
  38   2.0000      -0.642318       -17.4784
  39   2.0000      -0.613421       -16.6920
  40   2.0000      -0.599938       -16.3251
  41   2.0000      -0.578839       -15.7510
  42   2.0000      -0.570026       -15.5112
  43   2.0000      -0.567608       -15.4454
  44   2.0000      -0.534351       -14.5404
  45   2.0000      -0.527550       -14.3554
  46   2.0000      -0.518955       -14.1215
  47   2.0000      -0.509245       -13.8573
  48   2.0000      -0.504875       -13.7383
  49   2.0000      -0.497607       -13.5406
  50   2.0000      -0.496752       -13.5173
  51   2.0000      -0.485526       -13.2118
  52   2.0000      -0.477616       -12.9966
  53   2.0000      -0.470106       -12.7922
  54   2.0000      -0.460791       -12.5387
  55   2.0000      -0.455842       -12.4041
  56   2.0000      -0.446122       -12.1396
  57   2.0000      -0.437493       -11.9048
  58   2.0000      -0.428287       -11.6543
  59   2.0000      -0.424138       -11.5414
  60   2.0000      -0.421490       -11.4693
  61   2.0000      -0.409200       -11.1349
  62   2.0000      -0.408500       -11.1159
  63   2.0000      -0.352216        -9.5843
  64   2.0000      -0.332756        -9.0547
  65   2.0000      -0.327489        -8.9114
  66   2.0000      -0.291245        -7.9252
  67   0.0000       0.031272         0.8510
  68   0.0000       0.071787         1.9534
  69   0.0000       0.106124         2.8878
  70   0.0000       0.118575         3.2266
  71   0.0000       0.120509         3.2792

MULLIKEN ATOMIC CHARGES
-----------------------
   0 S :    0.104289
   1 C :   -0.121430
   2 C :   -0.081373
   3 C :    0.001024
   4 C :   -0.170052
   5 H :    0.007501
   6 C :    0.094349
   7 H :    0.039412
   8 H :    0.024750
   9 C :   -0.070289
  10 H :    0.016990
  11 H :    0.022877
  12 C :   -0.029472
  13 H :    0.022941
  14 H :    0.050330
  15 H :    0.018301
  16 S :    0.099597
  17 C :   -0.080177
  18 C :   -0.005239
  19 C :   -0.038204
  20 C :   -0.122885
  21 H :    0.020344
  22 C :    0.028226
  23 H :    0.007365
  24 H :    0.038805
  25 C :   -0.067925
  26 H :    0.025742
  27 H :    0.025829
  28 C :   -0.023515
  29 H :    0.025469
  30 H :    0.034561
  31 H :    0.027080
  32 H :    0.025304
  33 H :    0.049475
Sum of atomic charges:   -0.0000000

LOEWDIN ATOMIC CHARGES
----------------------
   0 S :    0.410597
   1 C :   -0.187665
   2 C :   -0.059970
   3 C :   -0.078325
   4 C :   -0.206648
   5 H :    0.028988
   6 C :   -0.020526
   7 H :    0.038034
   8 H :    0.024803
   9 C :   -0.049559
  10 H :    0.020391
  11 H :    0.024509
  12 C :   -0.070882
  13 H :    0.025657
  14 H :    0.038537
  15 H :    0.025347
  16 S :    0.368976
  17 C :   -0.153649
  18 C :   -0.064855
  19 C :   -0.040916
  20 C :   -0.194539
  21 H :    0.033380
  22 C :   -0.045117
  23 H :    0.025114
  24 H :    0.037880
  25 C :   -0.043492
  26 H :    0.026222
  27 H :    0.022441
  28 C :   -0.058006
  29 H :    0.024696
  30 H :    0.029836
  31 H :    0.020614
  32 H :    0.021773
  33 H :    0.026354

  Mayer bond orders larger than 0.100000
B(  0-S ,  1-C ) :   1.1273 B(  0-S ,  4-C ) :   1.1608 B(  1-C ,  2-C ) :   1.6416
B(  1-C , 32-H ) :   0.9788 B(  2-C ,  3-C ) :   1.2346 B(  2-C ,  6-C ) :   0.9864
B(  3-C ,  4-C ) :   1.5712 B(  3-C ,  5-H ) :   0.9854 B(  4-C , 20-C ) :   1.0411
B(  6-C ,  7-H ) :   0.9357 B(  6-C ,  8-H ) :   0.9417 B(  6-C ,  9-C ) :   1.0778
B(  9-C , 10-H ) :   0.9429 B(  9-C , 11-H ) :   0.9466 B(  9-C , 12-C ) :   1.1007
B( 12-C , 13-H ) :   0.9683 B( 12-C , 14-H ) :   0.9679 B( 12-C , 15-H ) :   0.9666
B( 16-S , 17-C ) :   1.1174 B( 16-S , 20-C ) :   1.1172 B( 17-C , 18-C ) :   1.6867
B( 17-C , 33-H ) :   0.9633 B( 18-C , 19-C ) :   1.1735 B( 18-C , 21-H ) :   0.9884
B( 19-C , 20-C ) :   1.6385 B( 19-C , 22-C ) :   1.0442 B( 22-C , 23-H ) :   0.9273
B( 22-C , 24-H ) :   0.9358 B( 22-C , 25-C ) :   1.0691 B( 25-C , 26-H ) :   0.9516
B( 25-C , 27-H ) :   0.9479 B( 25-C , 28-C ) :   1.0963 B( 28-C , 29-H ) :   0.9714
B( 28-C , 30-H ) :   0.9725 B( 28-C , 31-H ) :   0.9721

Dispersion correction           -0.013975313
FINAL SINGLE POINT ENERGY     -1339.869249862137

DIPOLE MOMENT
-------------
                                X             Y             Z
Electronic contribution:      2.74382     -21.90882      25.42636
Nuclear contribution   :     -2.63811      22.32207     -26.12390
                        -----------------------------------------
Total Dipole Moment    :      0.10571       0.41326      -0.69753
                        -----------------------------------------
Magnitude (a.u.)       :      0.81762
Magnitude (Debye)      :      2.07823

Rotational constants in cm-1:     0.015911     0.009811     0.006570
Rotational constants in MHz :   476.992331   294.141076   196.960856

                             ****ORCA TERMINATED NORMALLY****
TOTAL RUN TIME: 0 days 0 hours 0 minutes 21 seconds 836 msec
