                         Program Version 4.2.1 -  RELEASE  -
|  1> ! wB97X-D3 SP def2-SVP
|  2> %pal
|  3> nprocs 24
|  4> end
|  5>
|  6> * xyz 0 1
|  7> S 	 -66.0673 	 -47.2998 	 -91.3132
|  8> C 	 -64.995 	 -45.9312 	 -91.406
|  9> C 	 -63.7076 	 -46.1644 	 -90.8685
| 10> C 	 -63.7015 	 -47.5361 	 -90.4119
| 11> C 	 -64.7941 	 -48.2609 	 -90.7869
| 12> H 	 -62.8834 	 -48.0874 	 -89.9985
| 13> C 	 -62.4195 	 -45.3195 	 -90.8499
| 14> H 	 -62.3933 	 -44.8443 	 -89.884
| 15> H 	 -62.5321 	 -44.4467 	 -91.5533
| 16> C 	 -61.0734 	 -46.0654 	 -91.1539
| 17> H 	 -60.7828 	 -46.7393 	 -90.3884
| 18> H 	 -61.2698 	 -46.7958 	 -91.9438
| 19> C 	 -59.9275 	 -45.1666 	 -91.4768
| 20> H 	 -59.966 	 -44.5714 	 -90.5753
| 21> H 	 -58.9941 	 -45.7034 	 -91.6138
| 22> H 	 -60.026 	 -44.5336 	 -92.3358
| 23> S 	 -66.0335 	 -50.1481 	 -89.1528
| 24> C 	 -65.511 	 -51.7924 	 -89.2486
| 25> C 	 -64.4146 	 -51.9056 	 -90.0402
| 26> C 	 -64.1575 	 -50.7192 	 -90.8236
| 27> C 	 -65.0033 	 -49.664 	 -90.4769
| 28> H 	 -63.8985 	 -52.8408 	 -90.1352
| 29> C 	 -63.159 	 -50.6464 	 -91.9261
| 30> H 	 -62.2645 	 -51.2108 	 -91.6005
| 31> H 	 -62.6847 	 -49.6461 	 -91.9464
| 32> C 	 -63.5422 	 -51.0853 	 -93.2668
| 33> H 	 -64.4875 	 -50.6803 	 -93.5918
| 34> H 	 -63.787 	 -52.1654 	 -93.189
| 35> C 	 -62.4605 	 -50.7843 	 -94.2871
| 36> H 	 -62.1804 	 -49.7282 	 -94.3008
| 37> H 	 -62.7053 	 -51.0309 	 -95.2414
| 38> H 	 -61.5002 	 -51.2624 	 -94.1093
| 39> H 	 -65.2158 	 -44.9083 	 -91.7132
| 40> H 	 -65.9977 	 -52.671 	 -88.732
| 41> *
| 42>
| 43>                          ****END OF INPUT****

CARTESIAN COORDINATES (ANGSTROEM)
---------------------------------
  S    -66.067300  -47.299800  -91.313200
  C    -64.995000  -45.931200  -91.406000
  C    -63.707600  -46.164400  -90.868500
  C    -63.701500  -47.536100  -90.411900
  C    -64.794100  -48.260900  -90.786900
  H    -62.883400  -48.087400  -89.998500
  C    -62.419500  -45.319500  -90.849900
  H    -62.393300  -44.844300  -89.884000
  H    -62.532100  -44.446700  -91.553300
  C    -61.073400  -46.065400  -91.153900
  H    -60.782800  -46.739300  -90.388400
  H    -61.269800  -46.795800  -91.943800
  C    -59.927500  -45.166600  -91.476800
  H    -59.966000  -44.571400  -90.575300
  H    -58.994100  -45.703400  -91.613800
  H    -60.026000  -44.533600  -92.335800
  S    -66.033500  -50.148100  -89.152800
  C    -65.511000  -51.792400  -89.248600
  C    -64.414600  -51.905600  -90.040200
  C    -64.157500  -50.719200  -90.823600
  C    -65.003300  -49.664000  -90.476900
  H    -63.898500  -52.840800  -90.135200
  C    -63.159000  -50.646400  -91.926100
  H    -62.264500  -51.210800  -91.600500
  H    -62.684700  -49.646100  -91.946400
  C    -63.542200  -51.085300  -93.266800
  H    -64.487500  -50.680300  -93.591800
  H    -63.787000  -52.165400  -93.189000
  C    -62.460500  -50.784300  -94.287100
  H    -62.180400  -49.728200  -94.300800
  H    -62.705300  -51.030900  -95.241400
  H    -61.500200  -51.262400  -94.109300
  H    -65.215800  -44.908300  -91.713200
  H    -65.997700  -52.671000  -88.732000

 Total Charge           Charge          ....    0
 Multiplicity           Mult            ....    1
 Number of Electrons    NEL             ....  134
 Basis Dimension        Dim             ....  322

ORBITAL ENERGIES
----------------

  NO   OCC          E(Eh)            E(eV)
   0   2.0000     -88.968487     -2420.9556
   1   2.0000     -88.961971     -2420.7783
   2   2.0000     -10.320157      -280.8257
   3   2.0000     -10.317156      -280.7441
   4   2.0000     -10.316695      -280.7315
   5   2.0000     -10.315438      -280.6973
   6   2.0000     -10.308216      -280.5008
   7   2.0000     -10.303756      -280.3794
   8   2.0000     -10.300103      -280.2801
   9   2.0000     -10.290239      -280.0116
  10   2.0000     -10.287511      -279.9374
  11   2.0000     -10.286546      -279.9111
  12   2.0000     -10.282418      -279.7988
  13   2.0000     -10.278874      -279.7024
  14   2.0000     -10.276422      -279.6357
  15   2.0000     -10.267003      -279.3793
  16   2.0000      -8.084420      -219.9883
  17   2.0000      -8.077346      -219.7958
  18   2.0000      -6.042769      -164.4321
  19   2.0000      -6.038834      -164.3250
  20   2.0000      -6.035872      -164.2444
  21   2.0000      -6.035208      -164.2264
  22   2.0000      -6.031749      -164.1322
  23   2.0000      -6.028062      -164.0319
  24   2.0000      -1.013205       -27.5707
  25   2.0000      -0.987674       -26.8760
  26   2.0000      -0.918031       -24.9809
  27   2.0000      -0.914297       -24.8793
  28   2.0000      -0.872603       -23.7447
  29   2.0000      -0.855733       -23.2857
  30   2.0000      -0.848194       -23.0805
  31   2.0000      -0.813112       -22.1259
  32   2.0000      -0.786311       -21.3966
  33   2.0000      -0.773379       -21.0447
  34   2.0000      -0.712586       -19.3905
  35   2.0000      -0.703038       -19.1306
  36   2.0000      -0.688749       -18.7418
  37   2.0000      -0.656730       -17.8705
  38   2.0000      -0.642821       -17.4921
  39   2.0000      -0.619281       -16.8515
  40   2.0000      -0.600911       -16.3516
  41   2.0000      -0.573099       -15.5948
  42   2.0000      -0.565648       -15.3921
  43   2.0000      -0.556000       -15.1295
  44   2.0000      -0.537365       -14.6224
  45   2.0000      -0.528123       -14.3710
  46   2.0000      -0.518763       -14.1163
  47   2.0000      -0.510990       -13.9047
  48   2.0000      -0.507520       -13.8103
  49   2.0000      -0.496144       -13.5008
  50   2.0000      -0.488802       -13.3010
  51   2.0000      -0.482852       -13.1391
  52   2.0000      -0.471213       -12.8224
  53   2.0000      -0.461587       -12.5604
  54   2.0000      -0.458730       -12.4827
  55   2.0000      -0.450408       -12.2562
  56   2.0000      -0.447647       -12.1811
  57   2.0000      -0.443591       -12.0707
  58   2.0000      -0.438116       -11.9217
  59   2.0000      -0.432438       -11.7672
  60   2.0000      -0.423326       -11.5193
  61   2.0000      -0.414175       -11.2703
  62   2.0000      -0.400695       -10.9035
  63   2.0000      -0.339029        -9.2254
  64   2.0000      -0.328040        -8.9264
  65   2.0000      -0.325494        -8.8572
  66   2.0000      -0.299992        -8.1632
  67   0.0000       0.037727         1.0266
  68   0.0000       0.067895         1.8475
  69   0.0000       0.116308         3.1649
  70   0.0000       0.120196         3.2707
  71   0.0000       0.127212         3.4616

MULLIKEN ATOMIC CHARGES
-----------------------
   0 S :    0.135943
   1 C :   -0.107450
   2 C :   -0.108307
   3 C :    0.042818
   4 C :   -0.198654
   5 H :    0.006482
   6 C :    0.060702
   7 H :    0.038442
   8 H :    0.028352
   9 C :   -0.078008
  10 H :    0.023775
  11 H :    0.024219
  12 C :   -0.022530
  13 H :    0.026445
  14 H :    0.036863
  15 H :    0.030730
  16 S :    0.109219
  17 C :   -0.114290
  18 C :   -0.014328
  19 C :   -0.072035
  20 C :   -0.113191
  21 H :    0.011434
  22 C :    0.046191
  23 H :    0.009886
  24 H :    0.009639
  25 C :   -0.016265
  26 H :    0.019651
  27 H :    0.017713
  28 C :    0.003023
  29 H :    0.023112
  30 H :    0.006856
  31 H :    0.014952
  32 H :    0.038959
  33 H :    0.079650
Sum of atomic charges:   -0.0000000

LOEWDIN ATOMIC CHARGES
----------------------
   0 S :    0.446710
   1 C :   -0.208611
   2 C :   -0.055936
   3 C :   -0.055382
   4 C :   -0.224392
   5 H :    0.025611
   6 C :   -0.032037
   7 H :    0.032363
   8 H :    0.035732
   9 C :   -0.043507
  10 H :    0.020497
  11 H :    0.020505
  12 C :   -0.059021
  13 H :    0.029054
  14 H :    0.030054
  15 H :    0.022081
  16 S :    0.410696
  17 C :   -0.198171
  18 C :   -0.072920
  19 C :   -0.053770
  20 C :   -0.208390
  21 H :    0.028606
  22 C :   -0.046213
  23 H :    0.031740
  24 H :    0.028809
  25 C :   -0.037771
  26 H :    0.024218
  27 H :    0.027096
  28 C :   -0.055508
  29 H :    0.028630
  30 H :    0.012222
  31 H :    0.024882
  32 H :    0.026728
  33 H :    0.045397

  Mayer bond orders larger than 0.100000
B(  0-S ,  1-C ) :   1.1520 B(  0-S ,  4-C ) :   1.1597 B(  1-C ,  2-C ) :   1.6193
B(  1-C , 32-H ) :   0.9624 B(  2-C ,  3-C ) :   1.2369 B(  2-C ,  6-C ) :   1.0160
B(  3-C ,  4-C ) :   1.5946 B(  3-C ,  5-H ) :   0.9862 B(  4-C , 20-C ) :   1.0056
B(  6-C ,  7-H ) :   0.9270 B(  6-C ,  8-H ) :   0.9492 B(  6-C ,  9-C ) :   1.0550
B(  9-C , 10-H ) :   0.9455 B(  9-C , 11-H ) :   0.9579 B(  9-C , 12-C ) :   1.0844
B( 12-C , 13-H ) :   0.9753 B( 12-C , 14-H ) :   0.9710 B( 12-C , 15-H ) :   0.9764
B( 16-S , 17-C ) :   1.1603 B( 16-S , 20-C ) :   1.1434 B( 17-C , 18-C ) :   1.6049
B( 17-C , 33-H ) :   0.9581 B( 18-C , 19-C ) :   1.2488 B( 18-C , 21-H ) :   0.9958
B( 19-C , 20-C ) :   1.5914 B( 19-C , 22-C ) :   1.0534 B( 22-C , 23-H ) :   0.9210
B( 22-C , 24-H ) :   0.9217 B( 22-C , 25-C ) :   1.0776 B( 25-C , 26-H ) :   0.9496
B( 25-C , 27-H ) :   0.9440 B( 25-C , 28-C ) :   1.0847 B( 28-C , 29-H ) :   0.9714
B( 28-C , 30-H ) :   0.9707 B( 28-C , 31-H ) :   0.9714

Dispersion correction           -0.014335685
FINAL SINGLE POINT ENERGY     -1339.866021365986

DIPOLE MOMENT
-------------
                                X             Y             Z
Electronic contribution:    -27.22043      -3.63721      13.69742
Nuclear contribution   :     27.94348       3.61272     -13.83735
                        -----------------------------------------
Total Dipole Moment    :      0.72305      -0.02449      -0.13993
                        -----------------------------------------
Magnitude (a.u.)       :      0.73687
Magnitude (Debye)      :      1.87298

Rotational constants in cm-1:     0.016598     0.009251     0.007331
Rotational constants in MHz :   497.590799   277.329772   219.777574

                             ****ORCA TERMINATED NORMALLY****
TOTAL RUN TIME: 0 days 0 hours 0 minutes 21 seconds 997 msec
