                         Program Version 4.2.1 -  RELEASE  -
|  1> ! wB97X-D3 SP def2-SVP
|  2> %pal
|  3> nprocs 24
|  4> end
|  5>
|  6> * xyz 0 1
|  7> S 	 -53.3648 	 -57.5353 	 -82.1196
|  8> C 	 -54.9315 	 -56.8616 	 -82.0588
|  9> C 	 -55.913 	 -57.8207 	 -82.0676
| 10> C 	 -55.364 	 -59.1626 	 -82.128
| 11> C 	 -54.0088 	 -59.1302 	 -82.357
| 12> H 	 -55.8464 	 -60.1402 	 -82.0168
| 13> C 	 -57.4018 	 -57.5524 	 -81.9533
| 14> H 	 -57.7359 	 -58.6134 	 -81.8681
| 15> H 	 -57.6922 	 -57.0338 	 -82.869
| 16> C 	 -57.8353 	 -56.7299 	 -80.6533
| 17> H 	 -57.409 	 -56.9825 	 -79.6672
| 18> H 	 -57.381 	 -55.7162 	 -80.8535
| 19> C 	 -59.3825 	 -56.6147 	 -80.5531
| 20> H 	 -59.7961 	 -56.2423 	 -81.4658
| 21> H 	 -59.7418 	 -57.6375 	 -80.4625
| 22> H 	 -59.77 	 -55.9485 	 -79.7527
| 23> S 	 -51.7267 	 -60.1523 	 -81.3315
| 24> C 	 -51.0903 	 -61.6113 	 -81.9244
| 25> C 	 -51.944 	 -62.271 	 -82.7969
| 26> C 	 -53.1254 	 -61.5087 	 -82.9733
| 27> C 	 -53.1015 	 -60.248 	 -82.3857
| 28> H 	 -51.7172 	 -63.1915 	 -83.2393
| 29> C 	 -54.1827 	 -62.0487 	 -83.8303
| 30> H 	 -55.1503 	 -61.5983 	 -83.5373
| 31> H 	 -54.4577 	 -63.058 	 -83.631
| 32> C 	 -53.922 	 -61.8024 	 -85.312
| 33> H 	 -54.5796 	 -62.5213 	 -85.8338
| 34> H 	 -52.9058 	 -62.1333 	 -85.5351
| 35> C 	 -54.1852 	 -60.378 	 -85.7307
| 36> H 	 -53.452 	 -59.6664 	 -85.3928
| 37> H 	 -55.1746 	 -60.0932 	 -85.3749
| 38> H 	 -54.169 	 -60.2416 	 -86.8727
| 39> H 	 -55.0896 	 -55.8426 	 -82.0854
| 40> H 	 -50.1592 	 -62.0477 	 -81.633
| 41> *
| 42>
| 43>                          ****END OF INPUT****

CARTESIAN COORDINATES (ANGSTROEM)
---------------------------------
  S    -53.364800  -57.535300  -82.119600
  C    -54.931500  -56.861600  -82.058800
  C    -55.913000  -57.820700  -82.067600
  C    -55.364000  -59.162600  -82.128000
  C    -54.008800  -59.130200  -82.357000
  H    -55.846400  -60.140200  -82.016800
  C    -57.401800  -57.552400  -81.953300
  H    -57.735900  -58.613400  -81.868100
  H    -57.692200  -57.033800  -82.869000
  C    -57.835300  -56.729900  -80.653300
  H    -57.409000  -56.982500  -79.667200
  H    -57.381000  -55.716200  -80.853500
  C    -59.382500  -56.614700  -80.553100
  H    -59.796100  -56.242300  -81.465800
  H    -59.741800  -57.637500  -80.462500
  H    -59.770000  -55.948500  -79.752700
  S    -51.726700  -60.152300  -81.331500
  C    -51.090300  -61.611300  -81.924400
  C    -51.944000  -62.271000  -82.796900
  C    -53.125400  -61.508700  -82.973300
  C    -53.101500  -60.248000  -82.385700
  H    -51.717200  -63.191500  -83.239300
  C    -54.182700  -62.048700  -83.830300
  H    -55.150300  -61.598300  -83.537300
  H    -54.457700  -63.058000  -83.631000
  C    -53.922000  -61.802400  -85.312000
  H    -54.579600  -62.521300  -85.833800
  H    -52.905800  -62.133300  -85.535100
  C    -54.185200  -60.378000  -85.730700
  H    -53.452000  -59.666400  -85.392800
  H    -55.174600  -60.093200  -85.374900
  H    -54.169000  -60.241600  -86.872700
  H    -55.089600  -55.842600  -82.085400
  H    -50.159200  -62.047700  -81.633000

 Total Charge           Charge          ....    0
 Multiplicity           Mult            ....    1
 Number of Electrons    NEL             ....  134
 Basis Dimension        Dim             ....  322

ORBITAL ENERGIES
----------------

  NO   OCC          E(Eh)            E(eV)
   0   2.0000     -88.964436     -2420.8454
   1   2.0000     -88.963401     -2420.8172
   2   2.0000     -10.324984      -280.9571
   3   2.0000     -10.320324      -280.8303
   4   2.0000     -10.310320      -280.5581
   5   2.0000     -10.303441      -280.3709
   6   2.0000     -10.300872      -280.3010
   7   2.0000     -10.300621      -280.2942
   8   2.0000     -10.298117      -280.2260
   9   2.0000     -10.295967      -280.1675
  10   2.0000     -10.295355      -280.1509
  11   2.0000     -10.286467      -279.9090
  12   2.0000     -10.282244      -279.7941
  13   2.0000     -10.280427      -279.7446
  14   2.0000     -10.279625      -279.7228
  15   2.0000     -10.273771      -279.5635
  16   2.0000      -8.080382      -219.8784
  17   2.0000      -8.079401      -219.8517
  18   2.0000      -6.038801      -164.3241
  19   2.0000      -6.037777      -164.2963
  20   2.0000      -6.034780      -164.2147
  21   2.0000      -6.033653      -164.1840
  22   2.0000      -6.031103      -164.1147
  23   2.0000      -6.030311      -164.0931
  24   2.0000      -1.015842       -27.6425
  25   2.0000      -0.991382       -26.9769
  26   2.0000      -0.916368       -24.9356
  27   2.0000      -0.905036       -24.6273
  28   2.0000      -0.871711       -23.7205
  29   2.0000      -0.852998       -23.2112
  30   2.0000      -0.846333       -23.0299
  31   2.0000      -0.815236       -22.1837
  32   2.0000      -0.781212       -21.2579
  33   2.0000      -0.769282       -20.9332
  34   2.0000      -0.706797       -19.2329
  35   2.0000      -0.702644       -19.1199
  36   2.0000      -0.692917       -18.8552
  37   2.0000      -0.666436       -18.1346
  38   2.0000      -0.647315       -17.6143
  39   2.0000      -0.618243       -16.8232
  40   2.0000      -0.603849       -16.4316
  41   2.0000      -0.566824       -15.4241
  42   2.0000      -0.559353       -15.2208
  43   2.0000      -0.547825       -14.9071
  44   2.0000      -0.538025       -14.6404
  45   2.0000      -0.525501       -14.2996
  46   2.0000      -0.519100       -14.1254
  47   2.0000      -0.511796       -13.9267
  48   2.0000      -0.504916       -13.7395
  49   2.0000      -0.503525       -13.7016
  50   2.0000      -0.496893       -13.5211
  51   2.0000      -0.478476       -13.0200
  52   2.0000      -0.470096       -12.7920
  53   2.0000      -0.462393       -12.5824
  54   2.0000      -0.459976       -12.5166
  55   2.0000      -0.451746       -12.2926
  56   2.0000      -0.442366       -12.0374
  57   2.0000      -0.441464       -12.0128
  58   2.0000      -0.431919       -11.7531
  59   2.0000      -0.422668       -11.5014
  60   2.0000      -0.415687       -11.3114
  61   2.0000      -0.412488       -11.2244
  62   2.0000      -0.410133       -11.1603
  63   2.0000      -0.354552        -9.6479
  64   2.0000      -0.329197        -8.9579
  65   2.0000      -0.327471        -8.9109
  66   2.0000      -0.285059        -7.7569
  67   0.0000       0.028907         0.7866
  68   0.0000       0.075716         2.0603
  69   0.0000       0.108625         2.9558
  70   0.0000       0.120334         3.2745
  71   0.0000       0.139150         3.7865

MULLIKEN ATOMIC CHARGES
-----------------------
   0 S :    0.105947
   1 C :   -0.091035
   2 C :   -0.091663
   3 C :    0.003266
   4 C :   -0.138587
   5 H :    0.036346
   6 C :    0.057667
   7 H :    0.029502
   8 H :    0.051427
   9 C :   -0.112334
  10 H :    0.044075
  11 H :    0.026547
  12 C :   -0.028733
  13 H :    0.016579
  14 H :    0.029091
  15 H :    0.046308
  16 S :    0.113417
  17 C :   -0.071009
  18 C :   -0.016893
  19 C :   -0.045382
  20 C :   -0.146018
  21 H :   -0.002971
  22 C :    0.061162
  23 H :   -0.010297
  24 H :    0.011462
  25 C :   -0.042676
  26 H :    0.023418
  27 H :    0.018943
  28 C :   -0.047485
  29 H :    0.042697
  30 H :    0.025973
  31 H :    0.037281
  32 H :    0.020442
  33 H :    0.043534
Sum of atomic charges:    0.0000000

LOEWDIN ATOMIC CHARGES
----------------------
   0 S :    0.425742
   1 C :   -0.198834
   2 C :   -0.062483
   3 C :   -0.067241
   4 C :   -0.194959
   5 H :    0.035467
   6 C :   -0.030957
   7 H :    0.033115
   8 H :    0.038176
   9 C :   -0.043801
  10 H :    0.028144
  11 H :    0.022237
  12 C :   -0.068175
  13 H :    0.019155
  14 H :    0.024984
  15 H :    0.031547
  16 S :    0.432161
  17 C :   -0.193848
  18 C :   -0.061748
  19 C :   -0.058336
  20 C :   -0.208170
  21 H :    0.023768
  22 C :   -0.040390
  23 H :    0.025690
  24 H :    0.027352
  25 C :   -0.036058
  26 H :    0.024644
  27 H :    0.021253
  28 C :   -0.066208
  29 H :    0.025523
  30 H :    0.023664
  31 H :    0.033557
  32 H :    0.011505
  33 H :    0.023527

  Mayer bond orders larger than 0.100000
B(  0-S ,  1-C ) :   1.1413 B(  0-S ,  4-C ) :   1.1583 B(  1-C ,  2-C ) :   1.5994
B(  1-C , 32-H ) :   0.9838 B(  2-C ,  3-C ) :   1.2396 B(  2-C ,  6-C ) :   1.0084
B(  3-C ,  4-C ) :   1.5773 B(  3-C ,  5-H ) :   0.9786 B(  4-C , 20-C ) :   1.0471
B(  6-C ,  7-H ) :   0.9484 B(  6-C ,  8-H ) :   0.9365 B(  6-C ,  9-C ) :   1.0493
B(  9-C , 10-H ) :   0.9654 B(  9-C , 11-H ) :   0.9547 B(  9-C , 12-C ) :   1.0735
B( 12-C , 13-H ) :   0.9732 B( 12-C , 14-H ) :   0.9767 B( 12-C , 15-H ) :   0.9753
B( 16-S , 17-C ) :   1.1778 B( 16-S , 20-C ) :   1.1465 B( 17-C , 18-C ) :   1.5729
B( 17-C , 33-H ) :   0.9694 B( 18-C , 19-C ) :   1.2586 B( 18-C , 21-H ) :   1.0043
B( 19-C , 20-C ) :   1.5741 B( 19-C , 22-C ) :   1.0652 B( 22-C , 23-H ) :   0.9243
B( 22-C , 24-H ) :   0.9242 B( 22-C , 25-C ) :   1.0766 B( 25-C , 26-H ) :   0.9511
B( 25-C , 27-H ) :   0.9537 B( 25-C , 28-C ) :   1.0813 B( 28-C , 29-H ) :   0.9723
B( 28-C , 30-H ) :   0.9727 B( 28-C , 31-H ) :   0.9721

Dispersion correction           -0.014861768
FINAL SINGLE POINT ENERGY     -1339.876647128140

DIPOLE MOMENT
-------------
                                X             Y             Z
Electronic contribution:     23.81164       0.05136       8.06224
Nuclear contribution   :    -24.27661      -0.27341      -8.16231
                        -----------------------------------------
Total Dipole Moment    :     -0.46497      -0.22205      -0.10006
                        -----------------------------------------
Magnitude (a.u.)       :      0.52490
Magnitude (Debye)      :      1.33418

Rotational constants in cm-1:     0.022843     0.007808     0.006734
Rotational constants in MHz :   684.805872   234.071025   201.885582

                             ****ORCA TERMINATED NORMALLY****
TOTAL RUN TIME: 0 days 0 hours 0 minutes 22 seconds 95 msec
