                         Program Version 4.2.1 -  RELEASE  -
|  1> ! wB97X-D3 SP def2-SVP
|  2> %pal
|  3> nprocs 24
|  4> end
|  5>
|  6> * xyz 0 1
|  7> S 	 -121.759 	 26.4512 	 -16.0479
|  8> C 	 -120.577 	 26.8081 	 -17.2786
|  9> C 	 -119.28 	 26.9307 	 -16.7649
| 10> C 	 -119.272 	 26.7723 	 -15.3458
| 11> C 	 -120.514 	 26.432 	 -14.8453
| 12> H 	 -118.398 	 26.7802 	 -14.7376
| 13> C 	 -118.125 	 27.2203 	 -17.6385
| 14> H 	 -118.272 	 28.1152 	 -18.196
| 15> H 	 -118.043 	 26.4348 	 -18.3764
| 16> C 	 -116.78 	 27.2643 	 -16.7871
| 17> H 	 -116.873 	 28.021 	 -15.999
| 18> H 	 -116.59 	 26.3439 	 -16.2146
| 19> C 	 -115.592 	 27.7887 	 -17.6391
| 20> H 	 -115.436 	 27.2693 	 -18.5614
| 21> H 	 -115.899 	 28.7839 	 -17.7759
| 22> H 	 -114.664 	 27.8498 	 -17.0131
| 23> S 	 -120.236 	 24.6523 	 -12.7969
| 24> C 	 -121 	 24.9248 	 -11.2993
| 25> C 	 -121.695 	 26.1216 	 -11.3128
| 26> C 	 -121.597 	 26.8206 	 -12.5484
| 27> C 	 -120.861 	 26.1491 	 -13.4785
| 28> H 	 -122.26 	 26.3548 	 -10.4597
| 29> C 	 -122.211 	 28.197 	 -12.6815
| 30> H 	 -121.562 	 28.8116 	 -13.353
| 31> H 	 -122.276 	 28.7652 	 -11.7584
| 32> C 	 -123.648 	 28.2223 	 -13.2738
| 33> H 	 -123.542 	 27.6114 	 -14.1112
| 34> H 	 -123.911 	 29.2137 	 -13.5761
| 35> C 	 -124.771 	 27.6275 	 -12.4466
| 36> H 	 -125.064 	 28.2069 	 -11.5392
| 37> H 	 -124.396 	 26.658 	 -12.045
| 38> H 	 -125.622 	 27.44 	 -13.0565
| 39> H 	 -120.76 	 26.8125 	 -18.3703
| 40> H 	 -121.079 	 24.197 	 -10.5142
| 41> *
| 42>
| 43>                          ****END OF INPUT****

CARTESIAN COORDINATES (ANGSTROEM)
---------------------------------
  S    -121.759000   26.451200  -16.047900
  C    -120.577000   26.808100  -17.278600
  C    -119.280000   26.930700  -16.764900
  C    -119.272000   26.772300  -15.345800
  C    -120.514000   26.432000  -14.845300
  H    -118.398000   26.780200  -14.737600
  C    -118.125000   27.220300  -17.638500
  H    -118.272000   28.115200  -18.196000
  H    -118.043000   26.434800  -18.376400
  C    -116.780000   27.264300  -16.787100
  H    -116.873000   28.021000  -15.999000
  H    -116.590000   26.343900  -16.214600
  C    -115.592000   27.788700  -17.639100
  H    -115.436000   27.269300  -18.561400
  H    -115.899000   28.783900  -17.775900
  H    -114.664000   27.849800  -17.013100
  S    -120.236000   24.652300  -12.796900
  C    -121.000000   24.924800  -11.299300
  C    -121.695000   26.121600  -11.312800
  C    -121.597000   26.820600  -12.548400
  C    -120.861000   26.149100  -13.478500
  H    -122.260000   26.354800  -10.459700
  C    -122.211000   28.197000  -12.681500
  H    -121.562000   28.811600  -13.353000
  H    -122.276000   28.765200  -11.758400
  C    -123.648000   28.222300  -13.273800
  H    -123.542000   27.611400  -14.111200
  H    -123.911000   29.213700  -13.576100
  C    -124.771000   27.627500  -12.446600
  H    -125.064000   28.206900  -11.539200
  H    -124.396000   26.658000  -12.045000
  H    -125.622000   27.440000  -13.056500
  H    -120.760000   26.812500  -18.370300
  H    -121.079000   24.197000  -10.514200

 Total Charge           Charge          ....    0
 Multiplicity           Mult            ....    1
 Number of Electrons    NEL             ....  134
 Basis Dimension        Dim             ....  322

ORBITAL ENERGIES
----------------

  NO   OCC          E(Eh)            E(eV)
   0   2.0000     -88.969813     -2420.9917
   1   2.0000     -88.962263     -2420.7862
   2   2.0000     -10.324754      -280.9508
   3   2.0000     -10.320736      -280.8415
   4   2.0000     -10.312619      -280.6206
   5   2.0000     -10.310989      -280.5763
   6   2.0000     -10.299756      -280.2706
   7   2.0000     -10.299240      -280.2566
   8   2.0000     -10.292902      -280.0841
   9   2.0000     -10.292564      -280.0749
  10   2.0000     -10.291774      -280.0534
  11   2.0000     -10.289080      -279.9801
  12   2.0000     -10.286279      -279.9039
  13   2.0000     -10.277457      -279.6638
  14   2.0000     -10.272624      -279.5323
  15   2.0000     -10.271764      -279.5089
  16   2.0000      -8.084259      -219.9839
  17   2.0000      -8.077884      -219.8104
  18   2.0000      -6.042678      -164.4296
  19   2.0000      -6.038705      -164.3215
  20   2.0000      -6.036289      -164.2558
  21   2.0000      -6.035253      -164.2276
  22   2.0000      -6.032135      -164.1427
  23   2.0000      -6.028835      -164.0529
  24   2.0000      -1.011371       -27.5208
  25   2.0000      -0.987614       -26.8744
  26   2.0000      -0.913003       -24.8441
  27   2.0000      -0.906706       -24.6727
  28   2.0000      -0.870498       -23.6874
  29   2.0000      -0.850663       -23.1477
  30   2.0000      -0.848391       -23.0859
  31   2.0000      -0.816504       -22.2182
  32   2.0000      -0.784110       -21.3367
  33   2.0000      -0.770112       -20.9558
  34   2.0000      -0.716577       -19.4990
  35   2.0000      -0.693665       -18.8756
  36   2.0000      -0.683264       -18.5926
  37   2.0000      -0.666747       -18.1431
  38   2.0000      -0.639853       -17.4113
  39   2.0000      -0.621025       -16.8990
  40   2.0000      -0.598528       -16.2868
  41   2.0000      -0.571508       -15.5515
  42   2.0000      -0.568120       -15.4593
  43   2.0000      -0.548740       -14.9320
  44   2.0000      -0.544893       -14.8273
  45   2.0000      -0.524446       -14.2709
  46   2.0000      -0.519649       -14.1404
  47   2.0000      -0.513135       -13.9631
  48   2.0000      -0.504621       -13.7314
  49   2.0000      -0.499066       -13.5803
  50   2.0000      -0.486566       -13.2401
  51   2.0000      -0.483124       -13.1465
  52   2.0000      -0.474259       -12.9052
  53   2.0000      -0.467782       -12.7290
  54   2.0000      -0.460418       -12.5286
  55   2.0000      -0.454333       -12.3630
  56   2.0000      -0.440749       -11.9934
  57   2.0000      -0.436454       -11.8765
  58   2.0000      -0.428942       -11.6721
  59   2.0000      -0.428769       -11.6674
  60   2.0000      -0.418080       -11.3765
  61   2.0000      -0.413691       -11.2571
  62   2.0000      -0.409604       -11.1459
  63   2.0000      -0.339727        -9.2444
  64   2.0000      -0.331174        -9.0117
  65   2.0000      -0.327822        -8.9205
  66   2.0000      -0.298432        -8.1207
  67   0.0000       0.040333         1.0975
  68   0.0000       0.060504         1.6464
  69   0.0000       0.110238         2.9997
  70   0.0000       0.120535         3.2799
  71   0.0000       0.137905         3.7526

MULLIKEN ATOMIC CHARGES
-----------------------
   0 S :    0.134700
   1 C :   -0.134509
   2 C :   -0.099100
   3 C :    0.043829
   4 C :   -0.162720
   5 H :    0.002731
   6 C :    0.094585
   7 H :    0.028785
   8 H :    0.032965
   9 C :   -0.149302
  10 H :    0.032199
  11 H :    0.041594
  12 C :   -0.007776
  13 H :    0.035885
  14 H :    0.017795
  15 H :    0.039234
  16 S :    0.117923
  17 C :   -0.089168
  18 C :   -0.034652
  19 C :    0.005696
  20 C :   -0.191725
  21 H :    0.000903
  22 C :    0.049699
  23 H :    0.036372
  24 H :    0.020238
  25 C :   -0.022005
  26 H :   -0.003164
  27 H :    0.021644
  28 C :   -0.056526
  29 H :    0.029960
  30 H :    0.024778
  31 H :    0.034293
  32 H :    0.052277
  33 H :    0.052563
Sum of atomic charges:    0.0000000

LOEWDIN ATOMIC CHARGES
----------------------
   0 S :    0.436624
   1 C :   -0.210949
   2 C :   -0.061631
   3 C :   -0.057057
   4 C :   -0.204003
   5 H :    0.028606
   6 C :   -0.027712
   7 H :    0.030182
   8 H :    0.034425
   9 C :   -0.041187
  10 H :    0.023136
  11 H :    0.021824
  12 C :   -0.059554
  13 H :    0.020106
  14 H :    0.020261
  15 H :    0.033170
  16 S :    0.424260
  17 C :   -0.195903
  18 C :   -0.068923
  19 C :   -0.057337
  20 C :   -0.203101
  21 H :    0.022513
  22 C :   -0.029695
  23 H :    0.037428
  24 H :    0.026783
  25 C :   -0.034242
  26 H :    0.004644
  27 H :    0.019602
  28 C :   -0.067602
  29 H :    0.024321
  30 H :    0.027444
  31 H :    0.023601
  32 H :    0.032595
  33 H :    0.027371

  Mayer bond orders larger than 0.100000
B(  0-S ,  1-C ) :   1.1500 B(  0-S ,  4-C ) :   1.1705 B(  1-C ,  2-C ) :   1.6003
B(  1-C ,  4-C ) :   0.1027 B(  1-C , 32-H ) :   0.9668 B(  2-C ,  3-C ) :   1.2637
B(  2-C ,  6-C ) :   1.0141 B(  3-C ,  4-C ) :   1.5487 B(  3-C ,  5-H ) :   0.9978
B(  4-C , 20-C ) :   1.0116 B(  6-C ,  7-H ) :   0.9383 B(  6-C ,  8-H ) :   0.9277
B(  6-C ,  9-C ) :   1.0783 B(  9-C , 10-H ) :   0.9556 B(  9-C , 11-H ) :   0.9567
B(  9-C , 12-C ) :   1.0675 B( 12-C , 13-H ) :   0.9778 B( 12-C , 14-H ) :   0.9779
B( 12-C , 15-H ) :   0.9732 B( 16-S , 17-C ) :   1.1718 B( 16-S , 20-C ) :   1.1469
B( 17-C , 18-C ) :   1.5969 B( 17-C , 33-H ) :   0.9678 B( 18-C , 19-C ) :   1.2281
B( 18-C , 21-H ) :   1.0009 B( 19-C , 20-C ) :   1.6055 B( 19-C , 22-C ) :   1.0460
B( 22-C , 23-H ) :   0.9302 B( 22-C , 24-H ) :   0.9431 B( 22-C , 25-C ) :   1.0710
B( 25-C , 26-H ) :   0.9471 B( 25-C , 27-H ) :   0.9538 B( 25-C , 28-C ) :   1.0874
B( 28-C , 29-H ) :   0.9744 B( 28-C , 30-H ) :   0.9702 B( 28-C , 31-H ) :   0.9728

Dispersion correction           -0.014520961
FINAL SINGLE POINT ENERGY     -1339.886659056915

DIPOLE MOMENT
-------------
                                X             Y             Z
Electronic contribution:     -4.90329     -13.31326       3.99711
Nuclear contribution   :      5.09226      13.58188      -4.11841
                        -----------------------------------------
Total Dipole Moment    :      0.18897       0.26862      -0.12130
                        -----------------------------------------
Magnitude (a.u.)       :      0.35012
Magnitude (Debye)      :      0.88994

Rotational constants in cm-1:     0.022566     0.007758     0.006634
Rotational constants in MHz :   676.501351   232.592021   198.895309

                             ****ORCA TERMINATED NORMALLY****
TOTAL RUN TIME: 0 days 0 hours 0 minutes 20 seconds 489 msec
