                         Program Version 4.2.1 -  RELEASE  -
|  1> ! wB97X-D3 SP def2-SVP
|  2> %pal
|  3> nprocs 24
|  4> end
|  5>
|  6> * xyz 0 1
|  7> S 	 -36.4225 	 3.37169 	 5.49786
|  8> C 	 -35.5918 	 4.64942 	 6.33947
|  9> C 	 -35.7631 	 5.85073 	 5.64032
| 10> C 	 -36.4182 	 5.65231 	 4.3879
| 11> C 	 -36.9651 	 4.40252 	 4.23242
| 12> H 	 -36.6571 	 6.29892 	 3.5812
| 13> C 	 -35.2695 	 7.19037 	 6.11576
| 14> H 	 -35.6755 	 7.51915 	 7.08202
| 15> H 	 -35.5573 	 7.9053 	 5.37981
| 16> C 	 -33.8436 	 7.4308 	 6.34386
| 17> H 	 -33.2521 	 7.20264 	 5.44412
| 18> H 	 -33.663 	 8.49939 	 6.55471
| 19> C 	 -33.1672 	 6.64878 	 7.44429
| 20> H 	 -32.1176 	 6.91357 	 7.38658
| 21> H 	 -33.6371 	 6.66502 	 8.45678
| 22> H 	 -33.207 	 5.6059 	 7.10105
| 23> S 	 -39.147 	 2.89593 	 3.87579
| 24> C 	 -39.9758 	 2.95582 	 2.35148
| 25> C 	 -39.2095 	 3.61667 	 1.39303
| 26> C 	 -37.9363 	 4.12916 	 1.82538
| 27> C 	 -37.9049 	 3.93829 	 3.22599
| 28> H 	 -39.5258 	 3.69297 	 0.374442
| 29> C 	 -36.883 	 4.88109 	 0.970869
| 30> H 	 -36.3779 	 5.75288 	 1.45999
| 31> H 	 -37.3947 	 5.31406 	 0.0703952
| 32> C 	 -35.7265 	 3.94723 	 0.545972
| 33> H 	 -35.0321 	 4.55729 	 -0.067614
| 34> H 	 -36.1089 	 3.16065 	 -0.0462394
| 35> C 	 -34.8689 	 3.41113 	 1.71408
| 36> H 	 -34.44 	 4.28837 	 2.23031
| 37> H 	 -33.9708 	 2.78151 	 1.53173
| 38> H 	 -35.6025 	 2.98587 	 2.43032
| 39> H 	 -34.9814 	 4.4841 	 7.17993
| 40> H 	 -40.909 	 2.46839 	 2.07691
| 41> *
| 42>
| 43>                          ****END OF INPUT****

CARTESIAN COORDINATES (ANGSTROEM)
---------------------------------
  S    -36.422500    3.371690    5.497860
  C    -35.591800    4.649420    6.339470
  C    -35.763100    5.850730    5.640320
  C    -36.418200    5.652310    4.387900
  C    -36.965100    4.402520    4.232420
  H    -36.657100    6.298920    3.581200
  C    -35.269500    7.190370    6.115760
  H    -35.675500    7.519150    7.082020
  H    -35.557300    7.905300    5.379810
  C    -33.843600    7.430800    6.343860
  H    -33.252100    7.202640    5.444120
  H    -33.663000    8.499390    6.554710
  C    -33.167200    6.648780    7.444290
  H    -32.117600    6.913570    7.386580
  H    -33.637100    6.665020    8.456780
  H    -33.207000    5.605900    7.101050
  S    -39.147000    2.895930    3.875790
  C    -39.975800    2.955820    2.351480
  C    -39.209500    3.616670    1.393030
  C    -37.936300    4.129160    1.825380
  C    -37.904900    3.938290    3.225990
  H    -39.525800    3.692970    0.374442
  C    -36.883000    4.881090    0.970869
  H    -36.377900    5.752880    1.459990
  H    -37.394700    5.314060    0.070395
  C    -35.726500    3.947230    0.545972
  H    -35.032100    4.557290   -0.067614
  H    -36.108900    3.160650   -0.046239
  C    -34.868900    3.411130    1.714080
  H    -34.440000    4.288370    2.230310
  H    -33.970800    2.781510    1.531730
  H    -35.602500    2.985870    2.430320
  H    -34.981400    4.484100    7.179930
  H    -40.909000    2.468390    2.076910

 Total Charge           Charge          ....    0
 Multiplicity           Mult            ....    1
 Number of Electrons    NEL             ....  134
 Basis Dimension        Dim             ....  322

ORBITAL ENERGIES
----------------

  NO   OCC          E(Eh)            E(eV)
   0   2.0000     -88.971595     -2421.0402
   1   2.0000     -88.964663     -2420.8516
   2   2.0000     -10.331225      -281.1269
   3   2.0000     -10.324016      -280.9308
   4   2.0000     -10.317705      -280.7590
   5   2.0000     -10.313032      -280.6319
   6   2.0000     -10.311718      -280.5961
   7   2.0000     -10.309130      -280.5257
   8   2.0000     -10.306096      -280.4431
   9   2.0000     -10.297033      -280.1965
  10   2.0000     -10.289967      -280.0042
  11   2.0000     -10.285385      -279.8795
  12   2.0000     -10.283353      -279.8242
  13   2.0000     -10.280468      -279.7458
  14   2.0000     -10.277420      -279.6628
  15   2.0000     -10.274524      -279.5840
  16   2.0000      -8.086421      -220.0427
  17   2.0000      -8.079988      -219.8676
  18   2.0000      -6.044852      -164.4888
  19   2.0000      -6.040999      -164.3839
  20   2.0000      -6.038395      -164.3131
  21   2.0000      -6.037153      -164.2793
  22   2.0000      -6.034257      -164.2005
  23   2.0000      -6.030972      -164.1111
  24   2.0000      -1.012521       -27.5521
  25   2.0000      -0.986154       -26.8346
  26   2.0000      -0.923971       -25.1425
  27   2.0000      -0.907564       -24.6961
  28   2.0000      -0.870152       -23.6780
  29   2.0000      -0.853213       -23.2171
  30   2.0000      -0.845299       -23.0018
  31   2.0000      -0.812129       -22.0992
  32   2.0000      -0.788888       -21.4667
  33   2.0000      -0.776805       -21.1379
  34   2.0000      -0.703636       -19.1469
  35   2.0000      -0.693962       -18.8837
  36   2.0000      -0.689331       -18.7577
  37   2.0000      -0.661766       -18.0076
  38   2.0000      -0.648925       -17.6581
  39   2.0000      -0.619633       -16.8611
  40   2.0000      -0.601510       -16.3679
  41   2.0000      -0.576223       -15.6798
  42   2.0000      -0.555403       -15.1133
  43   2.0000      -0.550511       -14.9802
  44   2.0000      -0.547373       -14.8948
  45   2.0000      -0.536580       -14.6011
  46   2.0000      -0.526114       -14.3163
  47   2.0000      -0.507555       -13.8113
  48   2.0000      -0.502763       -13.6809
  49   2.0000      -0.494749       -13.4628
  50   2.0000      -0.490987       -13.3604
  51   2.0000      -0.482440       -13.1279
  52   2.0000      -0.475526       -12.9397
  53   2.0000      -0.467263       -12.7149
  54   2.0000      -0.458777       -12.4840
  55   2.0000      -0.449413       -12.2291
  56   2.0000      -0.444306       -12.0902
  57   2.0000      -0.438237       -11.9250
  58   2.0000      -0.432216       -11.7612
  59   2.0000      -0.422020       -11.4837
  60   2.0000      -0.419946       -11.4273
  61   2.0000      -0.408806       -11.1242
  62   2.0000      -0.405468       -11.0333
  63   2.0000      -0.350681        -9.5425
  64   2.0000      -0.336546        -9.1579
  65   2.0000      -0.329844        -8.9755
  66   2.0000      -0.285088        -7.7576
  67   0.0000       0.023464         0.6385
  68   0.0000       0.069296         1.8856
  69   0.0000       0.108266         2.9461
  70   0.0000       0.113219         3.0808
  71   0.0000       0.132429         3.6036

MULLIKEN ATOMIC CHARGES
-----------------------
   0 S :    0.107898
   1 C :   -0.112988
   2 C :   -0.081829
   3 C :    0.040813
   4 C :   -0.162590
   5 H :   -0.008226
   6 C :    0.126401
   7 H :    0.028414
   8 H :    0.009852
   9 C :   -0.099970
  10 H :    0.018445
  11 H :    0.028915
  12 C :   -0.065555
  13 H :    0.036154
  14 H :    0.041328
  15 H :    0.024396
  16 S :    0.126447
  17 C :   -0.078072
  18 C :   -0.037809
  19 C :   -0.025639
  20 C :   -0.177292
  21 H :    0.005616
  22 C :    0.036928
  23 H :    0.036986
  24 H :    0.037837
  25 C :   -0.058275
  26 H :    0.029321
  27 H :    0.024696
  28 C :   -0.067540
  29 H :    0.019541
  30 H :    0.049717
  31 H :    0.048112
  32 H :    0.040351
  33 H :    0.057615
Sum of atomic charges:    0.0000000

LOEWDIN ATOMIC CHARGES
----------------------
   0 S :    0.419811
   1 C :   -0.196059
   2 C :   -0.054261
   3 C :   -0.066923
   4 C :   -0.202996
   5 H :    0.024742
   6 C :   -0.036978
   7 H :    0.037350
   8 H :    0.030213
   9 C :   -0.046599
  10 H :    0.023428
  11 H :    0.025340
  12 C :   -0.072888
  13 H :    0.030015
  14 H :    0.026423
  15 H :    0.023252
  16 S :    0.423357
  17 C :   -0.201354
  18 C :   -0.063498
  19 C :   -0.058260
  20 C :   -0.192293
  21 H :    0.024595
  22 C :   -0.031195
  23 H :    0.034166
  24 H :    0.038380
  25 C :   -0.036274
  26 H :    0.024558
  27 H :    0.015206
  28 C :   -0.076823
  29 H :    0.024554
  30 H :    0.031800
  31 H :    0.028200
  32 H :    0.017671
  33 H :    0.033340

  Mayer bond orders larger than 0.100000
B(  0-S ,  1-C ) :   1.1417 B(  0-S ,  4-C ) :   1.1622 B(  1-C ,  2-C ) :   1.5674
B(  1-C ,  4-C ) :   0.1002 B(  1-C , 32-H ) :   0.9780 B(  2-C ,  3-C ) :   1.2467
B(  2-C ,  6-C ) :   1.0255 B(  3-C ,  4-C ) :   1.5726 B(  3-C ,  5-H ) :   0.9970
B(  4-C , 20-C ) :   1.0481 B(  6-C ,  7-H ) :   0.9316 B(  6-C ,  8-H ) :   0.9295
B(  6-C ,  9-C ) :   1.0916 B(  9-C , 10-H ) :   0.9467 B(  9-C , 11-H ) :   0.9525
B(  9-C , 12-C ) :   1.0864 B( 12-C , 13-H ) :   0.9678 B( 12-C , 14-H ) :   0.9738
B( 12-C , 15-H ) :   0.9653 B( 16-S , 17-C ) :   1.1364 B( 16-S , 20-C ) :   1.1672
B( 17-C , 18-C ) :   1.6102 B( 17-C , 20-C ) :   0.1025 B( 17-C , 33-H ) :   0.9682
B( 18-C , 19-C ) :   1.2541 B( 18-C , 21-H ) :   0.9850 B( 19-C , 20-C ) :   1.5476
B( 19-C , 22-C ) :   1.0224 B( 22-C , 23-H ) :   0.9448 B( 22-C , 24-H ) :   0.9357
B( 22-C , 25-C ) :   1.0689 B( 25-C , 26-H ) :   0.9567 B( 25-C , 27-H ) :   0.9575
B( 25-C , 28-C ) :   1.0688 B( 28-C , 29-H ) :   0.9707 B( 28-C , 30-H ) :   0.9745
B( 28-C , 31-H ) :   0.9695

Dispersion correction           -0.015451760
FINAL SINGLE POINT ENERGY     -1339.872133812274

DIPOLE MOMENT
-------------
                                X             Y             Z
Electronic contribution:    -20.62402     -14.07067       3.14552
Nuclear contribution   :     20.86136      14.50179      -3.48373
                        -----------------------------------------
Total Dipole Moment    :      0.23734       0.43112      -0.33821
                        -----------------------------------------
Magnitude (a.u.)       :      0.59715
Magnitude (Debye)      :      1.51783

Rotational constants in cm-1:     0.023619     0.008411     0.007205
Rotational constants in MHz :   708.072268   252.159944   216.014791

                             ****ORCA TERMINATED NORMALLY****
TOTAL RUN TIME: 0 days 0 hours 0 minutes 21 seconds 461 msec
