                         Program Version 4.2.1 -  RELEASE  -
|  1> ! wB97X-D3 SP def2-SVP
|  2> %pal
|  3> nprocs 24
|  4> end
|  5>
|  6> * xyz 0 1
|  7> S 	 -134.898 	 32.1743 	 -16.2002
|  8> C 	 -133.266 	 32.6418 	 -15.715
|  9> C 	 -132.536 	 33.0264 	 -16.8675
| 10> C 	 -133.341 	 33.1809 	 -18.0358
| 11> C 	 -134.583 	 32.7653 	 -17.8318
| 12> H 	 -133.05 	 33.5431 	 -19.0129
| 13> C 	 -131.064 	 33.5252 	 -16.8078
| 14> H 	 -131.035 	 34.2256 	 -15.9419
| 15> H 	 -130.895 	 34.121 	 -17.6925
| 16> C 	 -129.98 	 32.4107 	 -16.5802
| 17> H 	 -129.012 	 32.9735 	 -16.471
| 18> H 	 -130.05 	 32.0042 	 -15.5244
| 19> C 	 -130.003 	 31.3159 	 -17.6319
| 20> H 	 -129.077 	 30.7718 	 -17.4836
| 21> H 	 -130.874 	 30.6936 	 -17.6314
| 22> H 	 -130.063 	 31.6694 	 -18.6108
| 23> S 	 -137.302 	 32.7162 	 -18.3633
| 24> C 	 -137.838 	 32.6306 	 -20.0039
| 25> C 	 -136.813 	 32.3526 	 -20.8734
| 26> C 	 -135.509 	 32.4797 	 -20.2959
| 27> C 	 -135.577 	 32.6677 	 -18.8794
| 28> H 	 -137.014 	 32.1631 	 -21.8953
| 29> C 	 -134.36 	 32.2421 	 -21.218
| 30> H 	 -133.696 	 33.0595 	 -20.939
| 31> H 	 -134.556 	 32.3871 	 -22.296
| 32> C 	 -133.58 	 30.9244 	 -21.0232
| 33> H 	 -134.296 	 30.1603 	 -20.6774
| 34> H 	 -132.976 	 31.1268 	 -20.1221
| 35> C 	 -132.737 	 30.6432 	 -22.3306
| 36> H 	 -133.218 	 30.3429 	 -23.1963
| 37> H 	 -132.016 	 29.853 	 -22.0455
| 38> H 	 -132.281 	 31.5967 	 -22.515
| 39> H 	 -132.908 	 32.6441 	 -14.6644
| 40> H 	 -138.859 	 32.54 	 -20.2097
| 41> *
| 42>
| 43>                          ****END OF INPUT****

CARTESIAN COORDINATES (ANGSTROEM)
---------------------------------
  S    -134.898000   32.174300  -16.200200
  C    -133.266000   32.641800  -15.715000
  C    -132.536000   33.026400  -16.867500
  C    -133.341000   33.180900  -18.035800
  C    -134.583000   32.765300  -17.831800
  H    -133.050000   33.543100  -19.012900
  C    -131.064000   33.525200  -16.807800
  H    -131.035000   34.225600  -15.941900
  H    -130.895000   34.121000  -17.692500
  C    -129.980000   32.410700  -16.580200
  H    -129.012000   32.973500  -16.471000
  H    -130.050000   32.004200  -15.524400
  C    -130.003000   31.315900  -17.631900
  H    -129.077000   30.771800  -17.483600
  H    -130.874000   30.693600  -17.631400
  H    -130.063000   31.669400  -18.610800
  S    -137.302000   32.716200  -18.363300
  C    -137.838000   32.630600  -20.003900
  C    -136.813000   32.352600  -20.873400
  C    -135.509000   32.479700  -20.295900
  C    -135.577000   32.667700  -18.879400
  H    -137.014000   32.163100  -21.895300
  C    -134.360000   32.242100  -21.218000
  H    -133.696000   33.059500  -20.939000
  H    -134.556000   32.387100  -22.296000
  C    -133.580000   30.924400  -21.023200
  H    -134.296000   30.160300  -20.677400
  H    -132.976000   31.126800  -20.122100
  C    -132.737000   30.643200  -22.330600
  H    -133.218000   30.342900  -23.196300
  H    -132.016000   29.853000  -22.045500
  H    -132.281000   31.596700  -22.515000
  H    -132.908000   32.644100  -14.664400
  H    -138.859000   32.540000  -20.209700

 Total Charge           Charge          ....    0
 Multiplicity           Mult            ....    1
 Number of Electrons    NEL             ....  134
 Basis Dimension        Dim             ....  322

ORBITAL ENERGIES
----------------

  NO   OCC          E(Eh)            E(eV)
   0   2.0000     -88.967237     -2420.9216
   1   2.0000     -88.964477     -2420.8465
   2   2.0000     -10.333826      -281.1977
   3   2.0000     -10.325024      -280.9582
   4   2.0000     -10.320039      -280.8225
   5   2.0000     -10.311113      -280.5796
   6   2.0000     -10.309238      -280.5286
   7   2.0000     -10.306476      -280.4535
   8   2.0000     -10.295801      -280.1630
   9   2.0000     -10.294883      -280.1380
  10   2.0000     -10.291957      -280.0584
  11   2.0000     -10.290950      -280.0310
  12   2.0000     -10.289294      -279.9859
  13   2.0000     -10.288633      -279.9679
  14   2.0000     -10.280494      -279.7465
  15   2.0000     -10.269359      -279.4435
  16   2.0000      -8.081456      -219.9076
  17   2.0000      -8.079005      -219.8409
  18   2.0000      -6.040104      -164.3596
  19   2.0000      -6.037511      -164.2890
  20   2.0000      -6.036128      -164.2514
  21   2.0000      -6.033580      -164.1821
  22   2.0000      -6.032025      -164.1397
  23   2.0000      -6.029771      -164.0784
  24   2.0000      -1.005982       -27.3742
  25   2.0000      -0.980858       -26.6905
  26   2.0000      -0.911355       -24.7992
  27   2.0000      -0.902983       -24.5714
  28   2.0000      -0.868740       -23.6396
  29   2.0000      -0.854320       -23.2472
  30   2.0000      -0.846052       -23.0223
  31   2.0000      -0.814348       -22.1595
  32   2.0000      -0.784130       -21.3373
  33   2.0000      -0.769459       -20.9381
  34   2.0000      -0.710658       -19.3380
  35   2.0000      -0.703570       -19.1451
  36   2.0000      -0.691575       -18.8187
  37   2.0000      -0.666027       -18.1235
  38   2.0000      -0.639712       -17.4075
  39   2.0000      -0.616382       -16.7726
  40   2.0000      -0.599440       -16.3116
  41   2.0000      -0.561851       -15.2887
  42   2.0000      -0.561571       -15.2811
  43   2.0000      -0.547779       -14.9058
  44   2.0000      -0.536717       -14.6048
  45   2.0000      -0.532854       -14.4997
  46   2.0000      -0.519612       -14.1394
  47   2.0000      -0.513171       -13.9641
  48   2.0000      -0.508612       -13.8400
  49   2.0000      -0.498347       -13.5607
  50   2.0000      -0.493277       -13.4227
  51   2.0000      -0.480891       -13.0857
  52   2.0000      -0.476496       -12.9661
  53   2.0000      -0.466474       -12.6934
  54   2.0000      -0.459162       -12.4944
  55   2.0000      -0.449036       -12.2189
  56   2.0000      -0.444537       -12.0965
  57   2.0000      -0.438470       -11.9314
  58   2.0000      -0.432523       -11.7696
  59   2.0000      -0.428309       -11.6549
  60   2.0000      -0.422151       -11.4873
  61   2.0000      -0.407546       -11.0899
  62   2.0000      -0.405331       -11.0296
  63   2.0000      -0.357053        -9.7159
  64   2.0000      -0.334378        -9.0989
  65   2.0000      -0.327381        -8.9085
  66   2.0000      -0.280088        -7.6216
  67   0.0000       0.017721         0.4822
  68   0.0000       0.075159         2.0452
  69   0.0000       0.098264         2.6739
  70   0.0000       0.120989         3.2923
  71   0.0000       0.126584         3.4445

MULLIKEN ATOMIC CHARGES
-----------------------
   0 S :    0.103166
   1 C :   -0.137114
   2 C :   -0.084844
   3 C :   -0.025327
   4 C :   -0.064513
   5 H :    0.002500
   6 C :    0.032621
   7 H :    0.037824
   8 H :    0.021375
   9 C :   -0.095342
  10 H :    0.032165
  11 H :    0.030471
  12 C :   -0.000962
  13 H :    0.037782
  14 H :    0.040315
  15 H :    0.006289
  16 S :    0.086631
  17 C :   -0.057281
  18 C :   -0.026620
  19 C :   -0.043776
  20 C :   -0.157257
  21 H :    0.006524
  22 C :    0.023448
  23 H :    0.021563
  24 H :    0.026884
  25 C :   -0.077188
  26 H :    0.040213
  27 H :    0.033102
  28 C :   -0.026040
  29 H :    0.030552
  30 H :    0.044327
  31 H :    0.028475
  32 H :    0.068501
  33 H :    0.041535
Sum of atomic charges:   -0.0000000

LOEWDIN ATOMIC CHARGES
----------------------
   0 S :    0.386618
   1 C :   -0.202922
   2 C :   -0.056329
   3 C :   -0.075330
   4 C :   -0.181028
   5 H :    0.032814
   6 C :   -0.035057
   7 H :    0.035862
   8 H :    0.023671
   9 C :   -0.046205
  10 H :    0.027699
  11 H :    0.027506
  12 C :   -0.062866
  13 H :    0.031742
  14 H :    0.028947
  15 H :    0.016500
  16 S :    0.392193
  17 C :   -0.176841
  18 C :   -0.065784
  19 C :   -0.048839
  20 C :   -0.182470
  21 H :    0.026023
  22 C :   -0.042858
  23 H :    0.027375
  24 H :    0.031478
  25 C :   -0.037819
  26 H :    0.024881
  27 H :    0.026802
  28 C :   -0.055614
  29 H :    0.016264
  30 H :    0.034263
  31 H :    0.025373
  32 H :    0.037140
  33 H :    0.016813

  Mayer bond orders larger than 0.100000
B(  0-S ,  1-C ) :   1.1215 B(  0-S ,  4-C ) :   1.1317 B(  1-C ,  2-C ) :   1.6029
B(  1-C , 32-H ) :   0.9689 B(  2-C ,  3-C ) :   1.2161 B(  2-C ,  6-C ) :   1.0083
B(  3-C ,  4-C ) :   1.6012 B(  3-C ,  5-H ) :   0.9976 B(  4-C , 20-C ) :   1.0806
B(  6-C ,  7-H ) :   0.9474 B(  6-C ,  8-H ) :   0.9509 B(  6-C ,  9-C ) :   1.0693
B(  9-C , 10-H ) :   0.9579 B(  9-C , 11-H ) :   0.9549 B(  9-C , 12-C ) :   1.0653
B( 12-C , 13-H ) :   0.9722 B( 12-C , 14-H ) :   0.9697 B( 12-C , 15-H ) :   0.9750
B( 16-S , 17-C ) :   1.1648 B( 16-S , 20-C ) :   1.1312 B( 17-C , 18-C ) :   1.5919
B( 17-C , 20-C ) :   0.1028 B( 17-C , 33-H ) :   0.9725 B( 18-C , 19-C ) :   1.2576
B( 18-C , 21-H ) :   0.9967 B( 19-C , 20-C ) :   1.5421 B( 19-C , 22-C ) :   1.0481
B( 22-C , 23-H ) :   0.9203 B( 22-C , 24-H ) :   0.9414 B( 22-C , 25-C ) :   1.0455
B( 25-C , 26-H ) :   0.9626 B( 25-C , 27-H ) :   0.9522 B( 25-C , 28-C ) :   1.0615
B( 28-C , 29-H ) :   0.9805 B( 28-C , 30-H ) :   0.9755 B( 28-C , 31-H ) :   0.9733

Dispersion correction           -0.014860745
FINAL SINGLE POINT ENERGY     -1339.862005407268

DIPOLE MOMENT
-------------
                                X             Y             Z
Electronic contribution:    -27.50983       5.87284      12.86116
Nuclear contribution   :     28.02502      -5.93242     -13.33245
                        -----------------------------------------
Total Dipole Moment    :      0.51519      -0.05958      -0.47128
                        -----------------------------------------
Magnitude (a.u.)       :      0.70077
Magnitude (Debye)      :      1.78123

Rotational constants in cm-1:     0.017749     0.009995     0.006864
Rotational constants in MHz :   532.096325   299.653540   205.763081

                             ****ORCA TERMINATED NORMALLY****
TOTAL RUN TIME: 0 days 0 hours 0 minutes 21 seconds 73 msec
