                         Program Version 4.2.1 -  RELEASE  -
|  1> ! wB97X-D3 SP def2-SVP
|  2> %pal
|  3> nprocs 24
|  4> end
|  5>
|  6> * xyz 0 1
|  7> S 	 -129.19 	 25.5668 	 -16.9518
|  8> C 	 -128.805 	 23.9037 	 -16.5588
|  9> C 	 -129.834 	 23.2792 	 -15.9448
| 10> C 	 -130.955 	 24.1161 	 -15.6894
| 11> C 	 -130.758 	 25.4057 	 -16.1301
| 12> H 	 -131.813 	 23.8349 	 -15.1136
| 13> C 	 -129.958 	 21.8135 	 -15.6968
| 14> H 	 -128.947 	 21.4022 	 -15.8887
| 15> H 	 -130.566 	 21.5258 	 -16.5196
| 16> C 	 -130.335 	 21.3564 	 -14.2581
| 17> H 	 -131.377 	 21.565 	 -14.0472
| 18> H 	 -130.108 	 20.2915 	 -14.2218
| 19> C 	 -129.489 	 21.952 	 -13.1947
| 20> H 	 -129.819 	 22.8383 	 -12.6835
| 21> H 	 -129.259 	 21.161 	 -12.4897
| 22> H 	 -128.474 	 22.0885 	 -13.6093
| 23> S 	 -130.989 	 27.953 	 -15.1753
| 24> C 	 -132.547 	 28.6667 	 -14.9227
| 25> C 	 -133.533 	 27.876 	 -15.3462
| 26> C 	 -133.09 	 26.6102 	 -15.8875
| 27> C 	 -131.681 	 26.5802 	 -15.9641
| 28> H 	 -134.505 	 28.3373 	 -15.0935
| 29> C 	 -134.045 	 25.5502 	 -16.2661
| 30> H 	 -133.445 	 24.8572 	 -16.8375
| 31> H 	 -134.818 	 25.9643 	 -16.9887
| 32> C 	 -134.753 	 24.7655 	 -15.1554
| 33> H 	 -135.543 	 25.3154 	 -14.6453
| 34> H 	 -134.044 	 24.536 	 -14.3004
| 35> C 	 -135.323 	 23.3986 	 -15.5273
| 36> H 	 -135.859 	 23.0195 	 -14.671
| 37> H 	 -134.467 	 22.6962 	 -15.7399
| 38> H 	 -136.008 	 23.5066 	 -16.4162
| 39> H 	 -128.125 	 23.3241 	 -17.1882
| 40> H 	 -132.756 	 29.5731 	 -14.4032
| 41> *
| 42>
| 43>                          ****END OF INPUT****

CARTESIAN COORDINATES (ANGSTROEM)
---------------------------------
  S    -129.190000   25.566800  -16.951800
  C    -128.805000   23.903700  -16.558800
  C    -129.834000   23.279200  -15.944800
  C    -130.955000   24.116100  -15.689400
  C    -130.758000   25.405700  -16.130100
  H    -131.813000   23.834900  -15.113600
  C    -129.958000   21.813500  -15.696800
  H    -128.947000   21.402200  -15.888700
  H    -130.566000   21.525800  -16.519600
  C    -130.335000   21.356400  -14.258100
  H    -131.377000   21.565000  -14.047200
  H    -130.108000   20.291500  -14.221800
  C    -129.489000   21.952000  -13.194700
  H    -129.819000   22.838300  -12.683500
  H    -129.259000   21.161000  -12.489700
  H    -128.474000   22.088500  -13.609300
  S    -130.989000   27.953000  -15.175300
  C    -132.547000   28.666700  -14.922700
  C    -133.533000   27.876000  -15.346200
  C    -133.090000   26.610200  -15.887500
  C    -131.681000   26.580200  -15.964100
  H    -134.505000   28.337300  -15.093500
  C    -134.045000   25.550200  -16.266100
  H    -133.445000   24.857200  -16.837500
  H    -134.818000   25.964300  -16.988700
  C    -134.753000   24.765500  -15.155400
  H    -135.543000   25.315400  -14.645300
  H    -134.044000   24.536000  -14.300400
  C    -135.323000   23.398600  -15.527300
  H    -135.859000   23.019500  -14.671000
  H    -134.467000   22.696200  -15.739900
  H    -136.008000   23.506600  -16.416200
  H    -128.125000   23.324100  -17.188200
  H    -132.756000   29.573100  -14.403200

 Total Charge           Charge          ....    0
 Multiplicity           Mult            ....    1
 Number of Electrons    NEL             ....  134
 Basis Dimension        Dim             ....  322

ORBITAL ENERGIES
----------------

  NO   OCC          E(Eh)            E(eV)
   0   2.0000     -88.963783     -2420.8276
   1   2.0000     -88.963009     -2420.8065
   2   2.0000     -10.336970      -281.2832
   3   2.0000     -10.330606      -281.1101
   4   2.0000     -10.309071      -280.5241
   5   2.0000     -10.307572      -280.4833
   6   2.0000     -10.306831      -280.4631
   7   2.0000     -10.294309      -280.1224
   8   2.0000     -10.293953      -280.1127
   9   2.0000     -10.292204      -280.0651
  10   2.0000     -10.291027      -280.0331
  11   2.0000     -10.290184      -280.0101
  12   2.0000     -10.289110      -279.9809
  13   2.0000     -10.287821      -279.9458
  14   2.0000     -10.287450      -279.9357
  15   2.0000     -10.271236      -279.4946
  16   2.0000      -8.078687      -219.8322
  17   2.0000      -8.078284      -219.8213
  18   2.0000      -6.037156      -164.2794
  19   2.0000      -6.036854      -164.2712
  20   2.0000      -6.033063      -164.1680
  21   2.0000      -6.032908      -164.1638
  22   2.0000      -6.029406      -164.0685
  23   2.0000      -6.028906      -164.0549
  24   2.0000      -1.008871       -27.4528
  25   2.0000      -0.989091       -26.9145
  26   2.0000      -0.917125       -24.9562
  27   2.0000      -0.912167       -24.8213
  28   2.0000      -0.873371       -23.7656
  29   2.0000      -0.855078       -23.2678
  30   2.0000      -0.849763       -23.1232
  31   2.0000      -0.823792       -22.4165
  32   2.0000      -0.782877       -21.3032
  33   2.0000      -0.771558       -20.9952
  34   2.0000      -0.708648       -19.2833
  35   2.0000      -0.695625       -18.9289
  36   2.0000      -0.693012       -18.8578
  37   2.0000      -0.654371       -17.8063
  38   2.0000      -0.633782       -17.2461
  39   2.0000      -0.628694       -17.1076
  40   2.0000      -0.597635       -16.2625
  41   2.0000      -0.572868       -15.5885
  42   2.0000      -0.563986       -15.3468
  43   2.0000      -0.561972       -15.2920
  44   2.0000      -0.548994       -14.9389
  45   2.0000      -0.530839       -14.4449
  46   2.0000      -0.516373       -14.0512
  47   2.0000      -0.513624       -13.9764
  48   2.0000      -0.508486       -13.8366
  49   2.0000      -0.493857       -13.4385
  50   2.0000      -0.487450       -13.2642
  51   2.0000      -0.477078       -12.9819
  52   2.0000      -0.467994       -12.7348
  53   2.0000      -0.465999       -12.6805
  54   2.0000      -0.463039       -12.5999
  55   2.0000      -0.449402       -12.2289
  56   2.0000      -0.444505       -12.0956
  57   2.0000      -0.437207       -11.8970
  58   2.0000      -0.430377       -11.7112
  59   2.0000      -0.426346       -11.6015
  60   2.0000      -0.420195       -11.4341
  61   2.0000      -0.414018       -11.2660
  62   2.0000      -0.411322       -11.1927
  63   2.0000      -0.356581        -9.7031
  64   2.0000      -0.330600        -8.9961
  65   2.0000      -0.327006        -8.8983
  66   2.0000      -0.295025        -8.0280
  67   0.0000       0.030832         0.8390
  68   0.0000       0.072982         1.9860
  69   0.0000       0.111474         3.0334
  70   0.0000       0.119202         3.2437
  71   0.0000       0.121085         3.2949

MULLIKEN ATOMIC CHARGES
-----------------------
   0 S :    0.090670
   1 C :   -0.105889
   2 C :   -0.124083
   3 C :    0.029463
   4 C :   -0.140834
   5 H :   -0.008245
   6 C :    0.059843
   7 H :    0.010933
   8 H :    0.040678
   9 C :   -0.064454
  10 H :    0.032202
  11 H :    0.034814
  12 C :   -0.034208
  13 H :    0.046648
  14 H :    0.021417
  15 H :    0.018573
  16 S :    0.103022
  17 C :   -0.087526
  18 C :   -0.033443
  19 C :   -0.060055
  20 C :   -0.099988
  21 H :    0.024613
  22 C :    0.075516
  23 H :    0.013402
  24 H :    0.044444
  25 C :   -0.103216
  26 H :    0.025964
  27 H :    0.030814
  28 C :   -0.063729
  29 H :    0.038372
  30 H :    0.038895
  31 H :    0.043309
  32 H :    0.058728
  33 H :    0.043351
Sum of atomic charges:    0.0000000

LOEWDIN ATOMIC CHARGES
----------------------
   0 S :    0.385124
   1 C :   -0.210859
   2 C :   -0.062691
   3 C :   -0.067239
   4 C :   -0.169414
   5 H :    0.026791
   6 C :   -0.033099
   7 H :    0.028621
   8 H :    0.032488
   9 C :   -0.039997
  10 H :    0.020726
  11 H :    0.031729
  12 C :   -0.067916
  13 H :    0.026182
  14 H :    0.028776
  15 H :    0.030677
  16 S :    0.419532
  17 C :   -0.185881
  18 C :   -0.078527
  19 C :   -0.052989
  20 C :   -0.206201
  21 H :    0.040985
  22 C :   -0.042546
  23 H :    0.028913
  24 H :    0.042470
  25 C :   -0.049899
  26 H :    0.021402
  27 H :    0.026371
  28 C :   -0.066803
  29 H :    0.026435
  30 H :    0.027781
  31 H :    0.029316
  32 H :    0.032784
  33 H :    0.026958

  Mayer bond orders larger than 0.100000
B(  0-S ,  1-C ) :   1.1100 B(  0-S ,  4-C ) :   1.1588 B(  1-C ,  2-C ) :   1.6668
B(  1-C , 32-H ) :   0.9504 B(  2-C ,  3-C ) :   1.2242 B(  2-C ,  6-C ) :   1.0135
B(  3-C ,  4-C ) :   1.5897 B(  3-C ,  5-H ) :   0.9952 B(  4-C , 20-C ) :   0.9905
B(  6-C ,  7-H ) :   0.9366 B(  6-C ,  8-H ) :   0.9410 B(  6-C ,  9-C ) :   1.0722
B(  9-C , 10-H ) :   0.9548 B(  9-C , 11-H ) :   0.9593 B(  9-C , 12-C ) :   1.0860
B( 12-C , 13-H ) :   0.9731 B( 12-C , 14-H ) :   0.9724 B( 12-C , 15-H ) :   0.9681
B( 16-S , 17-C ) :   1.1469 B( 16-S , 20-C ) :   1.1535 B( 17-C , 18-C ) :   1.6613
B( 17-C , 33-H ) :   0.9655 B( 18-C , 19-C ) :   1.1957 B( 18-C , 21-H ) :   0.9897
B( 19-C , 20-C ) :   1.5941 B( 19-C , 22-C ) :   1.0719 B( 22-C , 23-H ) :   0.9290
B( 22-C , 24-H ) :   0.9260 B( 22-C , 25-C ) :   1.0502 B( 25-C , 26-H ) :   0.9508
B( 25-C , 27-H ) :   0.9526 B( 25-C , 28-C ) :   1.0912 B( 28-C , 29-H ) :   0.9730
B( 28-C , 30-H ) :   0.9741 B( 28-C , 31-H ) :   0.9734

Dispersion correction           -0.014825149
FINAL SINGLE POINT ENERGY     -1339.870928860533

DIPOLE MOMENT
-------------
                                X             Y             Z
Electronic contribution:     13.49078      24.36173      -8.88487
Nuclear contribution   :    -14.10272     -24.90318       9.17905
                        -----------------------------------------
Total Dipole Moment    :     -0.61194      -0.54145       0.29418
                        -----------------------------------------
Magnitude (a.u.)       :      0.86844
Magnitude (Debye)      :      2.20739

Rotational constants in cm-1:     0.016366     0.010249     0.007430
Rotational constants in MHz :   490.634932   307.269828   222.746594

                             ****ORCA TERMINATED NORMALLY****
TOTAL RUN TIME: 0 days 0 hours 0 minutes 22 seconds 458 msec
