                         Program Version 4.2.1 -  RELEASE  -
|  1> ! wB97X-D3 SP def2-SVP
|  2> %pal
|  3> nprocs 24
|  4> end
|  5>
|  6> * xyz 0 1
|  7> S 	 -118.352 	 61.1091 	 -40.7405
|  8> C 	 -118.372 	 60.174 	 -42.2203
|  9> C 	 -117.397 	 59.1415 	 -42.1071
| 10> C 	 -116.775 	 59.1572 	 -40.79
| 11> C 	 -117.343 	 60.0194 	 -39.8515
| 12> H 	 -116.045 	 58.4955 	 -40.4273
| 13> C 	 -117.115 	 58.073 	 -43.1833
| 14> H 	 -116.069 	 57.7928 	 -43.1808
| 15> H 	 -117.331 	 58.5762 	 -44.0628
| 16> C 	 -117.984 	 56.8021 	 -43.1069
| 17> H 	 -117.532 	 56.1297 	 -43.8889
| 18> H 	 -117.794 	 56.2709 	 -42.1966
| 19> C 	 -119.5 	 56.9478 	 -43.1836
| 20> H 	 -119.932 	 56.9795 	 -44.1814
| 21> H 	 -119.809 	 56.0373 	 -42.7211
| 22> H 	 -119.712 	 57.9013 	 -42.6025
| 23> S 	 -116.877 	 61.708 	 -37.7055
| 24> C 	 -116.158 	 60.9815 	 -36.2615
| 25> C 	 -116.166 	 59.6013 	 -36.4178
| 26> C 	 -116.712 	 59.0881 	 -37.64
| 27> C 	 -117.006 	 60.119 	 -38.484
| 28> H 	 -115.921 	 59.0323 	 -35.5688
| 29> C 	 -116.825 	 57.6103 	 -37.8759
| 30> H 	 -116.628 	 57.0653 	 -37.0094
| 31> H 	 -116.192 	 57.2248 	 -38.6154
| 32> C 	 -118.283 	 57.1174 	 -38.2223
| 33> H 	 -118.692 	 57.4886 	 -39.1649
| 34> H 	 -118.988 	 57.4958 	 -37.4639
| 35> C 	 -118.393 	 55.5983 	 -38.3254
| 36> H 	 -118.297 	 55.1472 	 -37.3698
| 37> H 	 -117.628 	 55.3006 	 -39.0486
| 38> H 	 -119.384 	 55.3055 	 -38.638
| 39> H 	 -119.006 	 60.375 	 -43.1067
| 40> H 	 -115.757 	 61.5639 	 -35.3898
| 41> *
| 42>
| 43>                          ****END OF INPUT****

CARTESIAN COORDINATES (ANGSTROEM)
---------------------------------
  S    -118.352000   61.109100  -40.740500
  C    -118.372000   60.174000  -42.220300
  C    -117.397000   59.141500  -42.107100
  C    -116.775000   59.157200  -40.790000
  C    -117.343000   60.019400  -39.851500
  H    -116.045000   58.495500  -40.427300
  C    -117.115000   58.073000  -43.183300
  H    -116.069000   57.792800  -43.180800
  H    -117.331000   58.576200  -44.062800
  C    -117.984000   56.802100  -43.106900
  H    -117.532000   56.129700  -43.888900
  H    -117.794000   56.270900  -42.196600
  C    -119.500000   56.947800  -43.183600
  H    -119.932000   56.979500  -44.181400
  H    -119.809000   56.037300  -42.721100
  H    -119.712000   57.901300  -42.602500
  S    -116.877000   61.708000  -37.705500
  C    -116.158000   60.981500  -36.261500
  C    -116.166000   59.601300  -36.417800
  C    -116.712000   59.088100  -37.640000
  C    -117.006000   60.119000  -38.484000
  H    -115.921000   59.032300  -35.568800
  C    -116.825000   57.610300  -37.875900
  H    -116.628000   57.065300  -37.009400
  H    -116.192000   57.224800  -38.615400
  C    -118.283000   57.117400  -38.222300
  H    -118.692000   57.488600  -39.164900
  H    -118.988000   57.495800  -37.463900
  C    -118.393000   55.598300  -38.325400
  H    -118.297000   55.147200  -37.369800
  H    -117.628000   55.300600  -39.048600
  H    -119.384000   55.305500  -38.638000
  H    -119.006000   60.375000  -43.106700
  H    -115.757000   61.563900  -35.389800

 Total Charge           Charge          ....    0
 Multiplicity           Mult            ....    1
 Number of Electrons    NEL             ....  134
 Basis Dimension        Dim             ....  322

ORBITAL ENERGIES
----------------

  NO   OCC          E(Eh)            E(eV)
   0   2.0000     -88.966611     -2420.9046
   1   2.0000     -88.963918     -2420.8313
   2   2.0000     -10.327086      -281.0143
   3   2.0000     -10.326755      -281.0053
   4   2.0000     -10.326460      -280.9973
   5   2.0000     -10.323223      -280.9092
   6   2.0000     -10.310330      -280.5583
   7   2.0000     -10.304397      -280.3969
   8   2.0000     -10.293510      -280.1006
   9   2.0000     -10.292271      -280.0669
  10   2.0000     -10.288939      -279.9763
  11   2.0000     -10.288536      -279.9653
  12   2.0000     -10.286525      -279.9106
  13   2.0000     -10.283584      -279.8305
  14   2.0000     -10.277316      -279.6600
  15   2.0000     -10.273872      -279.5663
  16   2.0000      -8.080961      -219.8941
  17   2.0000      -8.078932      -219.8389
  18   2.0000      -6.039586      -164.3455
  19   2.0000      -6.037468      -164.2879
  20   2.0000      -6.035605      -164.2372
  21   2.0000      -6.033318      -164.1749
  22   2.0000      -6.031522      -164.1260
  23   2.0000      -6.029717      -164.0769
  24   2.0000      -1.009233       -27.4626
  25   2.0000      -0.981553       -26.7094
  26   2.0000      -0.911525       -24.8039
  27   2.0000      -0.910278       -24.7699
  28   2.0000      -0.872878       -23.7522
  29   2.0000      -0.855602       -23.2821
  30   2.0000      -0.841898       -22.9092
  31   2.0000      -0.813213       -22.1287
  32   2.0000      -0.788165       -21.4470
  33   2.0000      -0.778405       -21.1815
  34   2.0000      -0.709795       -19.3145
  35   2.0000      -0.696215       -18.9450
  36   2.0000      -0.689924       -18.7738
  37   2.0000      -0.665481       -18.1087
  38   2.0000      -0.640772       -17.4363
  39   2.0000      -0.618980       -16.8433
  40   2.0000      -0.601564       -16.3694
  41   2.0000      -0.571460       -15.5502
  42   2.0000      -0.568172       -15.4607
  43   2.0000      -0.551439       -15.0054
  44   2.0000      -0.538352       -14.6493
  45   2.0000      -0.528783       -14.3889
  46   2.0000      -0.526998       -14.3403
  47   2.0000      -0.522938       -14.2299
  48   2.0000      -0.509597       -13.8668
  49   2.0000      -0.501442       -13.6449
  50   2.0000      -0.493447       -13.4274
  51   2.0000      -0.483588       -13.1591
  52   2.0000      -0.474378       -12.9085
  53   2.0000      -0.466593       -12.6966
  54   2.0000      -0.456218       -12.4143
  55   2.0000      -0.443683       -12.0732
  56   2.0000      -0.436614       -11.8809
  57   2.0000      -0.435912       -11.8618
  58   2.0000      -0.431257       -11.7351
  59   2.0000      -0.428847       -11.6695
  60   2.0000      -0.422088       -11.4856
  61   2.0000      -0.417331       -11.3562
  62   2.0000      -0.405090       -11.0231
  63   2.0000      -0.356278        -9.6948
  64   2.0000      -0.333741        -9.0816
  65   2.0000      -0.324241        -8.8230
  66   2.0000      -0.285121        -7.7585
  67   0.0000       0.017666         0.4807
  68   0.0000       0.072357         1.9689
  69   0.0000       0.102569         2.7910
  70   0.0000       0.117460         3.1962
  71   0.0000       0.120329         3.2743

MULLIKEN ATOMIC CHARGES
-----------------------
   0 S :    0.102636
   1 C :   -0.134962
   2 C :   -0.127566
   3 C :    0.040048
   4 C :   -0.157933
   5 H :   -0.016251
   6 C :    0.117217
   7 H :    0.027606
   8 H :    0.003681
   9 C :   -0.095325
  10 H :    0.031554
  11 H :    0.015767
  12 C :   -0.047444
  13 H :    0.035796
  14 H :    0.031133
  15 H :    0.054787
  16 S :    0.103239
  17 C :   -0.117830
  18 C :   -0.017861
  19 C :   -0.028227
  20 C :   -0.122669
  21 H :    0.002833
  22 C :    0.127557
  23 H :   -0.004786
  24 H :    0.015975
  25 C :   -0.124417
  26 H :    0.040129
  27 H :    0.029559
  28 C :   -0.021240
  29 H :    0.021533
  30 H :    0.031629
  31 H :    0.028231
  32 H :    0.071771
  33 H :    0.083831
Sum of atomic charges:    0.0000000

LOEWDIN ATOMIC CHARGES
----------------------
   0 S :    0.410223
   1 C :   -0.212379
   2 C :   -0.058034
   3 C :   -0.060639
   4 C :   -0.196026
   5 H :    0.018267
   6 C :   -0.026532
   7 H :    0.033591
   8 H :    0.019754
   9 C :   -0.043691
  10 H :    0.028376
  11 H :    0.017462
  12 C :   -0.069739
  13 H :    0.023006
  14 H :    0.026989
  15 H :    0.038400
  16 S :    0.384191
  17 C :   -0.184472
  18 C :   -0.064459
  19 C :   -0.051382
  20 C :   -0.184043
  21 H :    0.022434
  22 C :   -0.020125
  23 H :    0.025089
  24 H :    0.021322
  25 C :   -0.037135
  26 H :    0.022156
  27 H :    0.023703
  28 C :   -0.060398
  29 H :    0.017751
  30 H :    0.025521
  31 H :    0.026916
  32 H :    0.038735
  33 H :    0.045168

  Mayer bond orders larger than 0.100000
B(  0-S ,  1-C ) :   1.1483 B(  0-S ,  4-C ) :   1.1440 B(  1-C ,  2-C ) :   1.5616
B(  1-C ,  4-C ) :   0.1035 B(  1-C , 32-H ) :   0.9672 B(  2-C ,  3-C ) :   1.2496
B(  2-C ,  6-C ) :   1.0261 B(  3-C ,  4-C ) :   1.5357 B(  3-C ,  5-H ) :   1.0014
B(  4-C , 20-C ) :   1.1115 B(  6-C ,  7-H ) :   0.9411 B(  6-C ,  8-H ) :   0.9345
B(  6-C ,  9-C ) :   1.0726 B(  9-C , 10-H ) :   0.9516 B(  9-C , 11-H ) :   0.9631
B(  9-C , 12-C ) :   1.0631 B( 12-C , 13-H ) :   0.9766 B( 12-C , 14-H ) :   0.9761
B( 12-C , 15-H ) :   0.9686 B( 16-S , 17-C ) :   1.1364 B( 16-S , 20-C ) :   1.1208
B( 17-C , 18-C ) :   1.6171 B( 17-C , 33-H ) :   0.9630 B( 18-C , 19-C ) :   1.2325
B( 18-C , 21-H ) :   0.9924 B( 19-C , 20-C ) :   1.5838 B( 19-C , 22-C ) :   1.0583
B( 22-C , 23-H ) :   0.9246 B( 22-C , 24-H ) :   0.9274 B( 22-C , 25-C ) :   1.0475
B( 25-C , 26-H ) :   0.9566 B( 25-C , 27-H ) :   0.9569 B( 25-C , 28-C ) :   1.0929
B( 28-C , 29-H ) :   0.9741 B( 28-C , 30-H ) :   0.9725 B( 28-C , 31-H ) :   0.9719

Dispersion correction           -0.015436560
FINAL SINGLE POINT ENERGY     -1339.865914463841

DIPOLE MOMENT
-------------
                                X             Y             Z
Electronic contribution:      5.40250      29.47535       9.33364
Nuclear contribution   :     -5.26003     -30.23650      -9.31024
                        -----------------------------------------
Total Dipole Moment    :      0.14247      -0.76115       0.02339
                        -----------------------------------------
Magnitude (a.u.)       :      0.77472
Magnitude (Debye)      :      1.96919

Rotational constants in cm-1:     0.019824     0.009834     0.007270
Rotational constants in MHz :   594.297714   294.802387   217.955097

                             ****ORCA TERMINATED NORMALLY****
TOTAL RUN TIME: 0 days 0 hours 0 minutes 23 seconds 60 msec
