                         Program Version 4.2.1 -  RELEASE  -
|  1> ! wB97X-D3 SP def2-SVP
|  2> %pal
|  3> nprocs 24
|  4> end
|  5>
|  6> * xyz 0 1
|  7> S 	 -67.9947 	 16.8982 	 -76.4631
|  8> C 	 -66.7733 	 18.1215 	 -76.7318
|  9> C 	 -65.8928 	 18.2433 	 -75.5996
| 10> C 	 -66.1959 	 17.2923 	 -74.607
| 11> C 	 -67.2918 	 16.4645 	 -74.8679
| 12> H 	 -65.797 	 17.3537 	 -73.583
| 13> C 	 -64.8381 	 19.3001 	 -75.58
| 14> H 	 -64.3142 	 19.2724 	 -76.5279
| 15> H 	 -64.0565 	 19.0153 	 -74.8723
| 16> C 	 -65.4031 	 20.6846 	 -75.3645
| 17> H 	 -64.7413 	 21.2372 	 -75.9889
| 18> H 	 -66.4454 	 20.867 	 -75.6837
| 19> C 	 -65.244 	 21.3641 	 -73.9672
| 20> H 	 -65.6386 	 20.5935 	 -73.3014
| 21> H 	 -64.2098 	 21.5896 	 -73.6236
| 22> H 	 -65.8474 	 22.2508 	 -73.8288
| 23> S 	 -68.4548 	 14.0249 	 -74.9196
| 24> C 	 -69.0954 	 13.4232 	 -73.4352
| 25> C 	 -69.0059 	 14.2712 	 -72.3325
| 26> C 	 -68.4526 	 15.5028 	 -72.7995
| 27> C 	 -68.0548 	 15.5134 	 -74.1102
| 28> H 	 -69.3859 	 13.9039 	 -71.3539
| 29> C 	 -68.5697 	 16.7477 	 -72.0317
| 30> H 	 -69.641 	 16.7836 	 -71.9546
| 31> H 	 -68.3257 	 17.5692 	 -72.7594
| 32> C 	 -67.7797 	 16.8004 	 -70.646
| 33> H 	 -66.7282 	 16.8907 	 -70.9801
| 34> H 	 -67.9704 	 15.8557 	 -70.0995
| 35> C 	 -68.2034 	 17.937 	 -69.766
| 36> H 	 -69.2425 	 17.9467 	 -69.4613
| 37> H 	 -67.997 	 18.817 	 -70.398
| 38> H 	 -67.5222 	 18.1006 	 -68.986
| 39> H 	 -66.7448 	 18.8811 	 -77.5187
| 40> H 	 -69.5036 	 12.4512 	 -73.303
| 41> *
| 42>
| 43>                          ****END OF INPUT****

CARTESIAN COORDINATES (ANGSTROEM)
---------------------------------
  S    -67.994700   16.898200  -76.463100
  C    -66.773300   18.121500  -76.731800
  C    -65.892800   18.243300  -75.599600
  C    -66.195900   17.292300  -74.607000
  C    -67.291800   16.464500  -74.867900
  H    -65.797000   17.353700  -73.583000
  C    -64.838100   19.300100  -75.580000
  H    -64.314200   19.272400  -76.527900
  H    -64.056500   19.015300  -74.872300
  C    -65.403100   20.684600  -75.364500
  H    -64.741300   21.237200  -75.988900
  H    -66.445400   20.867000  -75.683700
  C    -65.244000   21.364100  -73.967200
  H    -65.638600   20.593500  -73.301400
  H    -64.209800   21.589600  -73.623600
  H    -65.847400   22.250800  -73.828800
  S    -68.454800   14.024900  -74.919600
  C    -69.095400   13.423200  -73.435200
  C    -69.005900   14.271200  -72.332500
  C    -68.452600   15.502800  -72.799500
  C    -68.054800   15.513400  -74.110200
  H    -69.385900   13.903900  -71.353900
  C    -68.569700   16.747700  -72.031700
  H    -69.641000   16.783600  -71.954600
  H    -68.325700   17.569200  -72.759400
  C    -67.779700   16.800400  -70.646000
  H    -66.728200   16.890700  -70.980100
  H    -67.970400   15.855700  -70.099500
  C    -68.203400   17.937000  -69.766000
  H    -69.242500   17.946700  -69.461300
  H    -67.997000   18.817000  -70.398000
  H    -67.522200   18.100600  -68.986000
  H    -66.744800   18.881100  -77.518700
  H    -69.503600   12.451200  -73.303000

 Total Charge           Charge          ....    0
 Multiplicity           Mult            ....    1
 Number of Electrons    NEL             ....  134
 Basis Dimension        Dim             ....  322

ORBITAL ENERGIES
----------------

  NO   OCC          E(Eh)            E(eV)
   0   2.0000     -88.967063     -2420.9168
   1   2.0000     -88.964956     -2420.8595
   2   2.0000     -10.332088      -281.1504
   3   2.0000     -10.317500      -280.7534
   4   2.0000     -10.316818      -280.7349
   5   2.0000     -10.314194      -280.6635
   6   2.0000     -10.301893      -280.3288
   7   2.0000     -10.298222      -280.2289
   8   2.0000     -10.297865      -280.2192
   9   2.0000     -10.297584      -280.2115
  10   2.0000     -10.293669      -280.1050
  11   2.0000     -10.291496      -280.0459
  12   2.0000     -10.286424      -279.9078
  13   2.0000     -10.285442      -279.8811
  14   2.0000     -10.280979      -279.7597
  15   2.0000     -10.272614      -279.5320
  16   2.0000      -8.080817      -219.8902
  17   2.0000      -8.080528      -219.8824
  18   2.0000      -6.039194      -164.3348
  19   2.0000      -6.038851      -164.3255
  20   2.0000      -6.035373      -164.2309
  21   2.0000      -6.035065      -164.2225
  22   2.0000      -6.031858      -164.1352
  23   2.0000      -6.031284      -164.1196
  24   2.0000      -1.009177       -27.4611
  25   2.0000      -0.980031       -26.6680
  26   2.0000      -0.915508       -24.9122
  27   2.0000      -0.909540       -24.7498
  28   2.0000      -0.867726       -23.6120
  29   2.0000      -0.861259       -23.4361
  30   2.0000      -0.845553       -23.0087
  31   2.0000      -0.816907       -22.2292
  32   2.0000      -0.784627       -21.3508
  33   2.0000      -0.765522       -20.8309
  34   2.0000      -0.705211       -19.1898
  35   2.0000      -0.702674       -19.1207
  36   2.0000      -0.696110       -18.9421
  37   2.0000      -0.662397       -18.0247
  38   2.0000      -0.637085       -17.3360
  39   2.0000      -0.616488       -16.7755
  40   2.0000      -0.589290       -16.0354
  41   2.0000      -0.575178       -15.6514
  42   2.0000      -0.567516       -15.4429
  43   2.0000      -0.551356       -15.0032
  44   2.0000      -0.538183       -14.6447
  45   2.0000      -0.530172       -14.4267
  46   2.0000      -0.523817       -14.2538
  47   2.0000      -0.509224       -13.8567
  48   2.0000      -0.508515       -13.8374
  49   2.0000      -0.497831       -13.5467
  50   2.0000      -0.488312       -13.2876
  51   2.0000      -0.481708       -13.1080
  52   2.0000      -0.470180       -12.7942
  53   2.0000      -0.463224       -12.6050
  54   2.0000      -0.460623       -12.5342
  55   2.0000      -0.449855       -12.2412
  56   2.0000      -0.446327       -12.1452
  57   2.0000      -0.440535       -11.9876
  58   2.0000      -0.431786       -11.7495
  59   2.0000      -0.423775       -11.5315
  60   2.0000      -0.420715       -11.4482
  61   2.0000      -0.415238       -11.2992
  62   2.0000      -0.402109       -10.9419
  63   2.0000      -0.345287        -9.3957
  64   2.0000      -0.333736        -9.0814
  65   2.0000      -0.328225        -8.9315
  66   2.0000      -0.281252        -7.6532
  67   0.0000       0.026100         0.7102
  68   0.0000       0.065120         1.7720
  69   0.0000       0.106763         2.9052
  70   0.0000       0.116549         3.1715
  71   0.0000       0.121484         3.3057

MULLIKEN ATOMIC CHARGES
-----------------------
   0 S :    0.101317
   1 C :   -0.104006
   2 C :   -0.147234
   3 C :    0.046623
   4 C :   -0.167546
   5 H :    0.017512
   6 C :    0.075312
   7 H :    0.032889
   8 H :    0.023914
   9 C :   -0.063643
  10 H :    0.016697
  11 H :    0.044603
  12 C :   -0.062944
  13 H :    0.019927
  14 H :    0.037447
  15 H :    0.037377
  16 S :    0.121264
  17 C :   -0.078041
  18 C :   -0.052927
  19 C :   -0.021015
  20 C :   -0.142942
  21 H :    0.038311
  22 C :    0.006583
  23 H :    0.030821
  24 H :    0.037476
  25 C :   -0.090533
  26 H :    0.036814
  27 H :    0.034744
  28 C :    0.001655
  29 H :    0.041287
  30 H :    0.014275
  31 H :    0.021262
  32 H :    0.052751
  33 H :    0.039973
Sum of atomic charges:    0.0000000

LOEWDIN ATOMIC CHARGES
----------------------
   0 S :    0.396398
   1 C :   -0.207302
   2 C :   -0.061615
   3 C :   -0.072030
   4 C :   -0.178139
   5 H :    0.034985
   6 C :   -0.034042
   7 H :    0.036994
   8 H :    0.034048
   9 C :   -0.042534
  10 H :    0.020479
  11 H :    0.031866
  12 C :   -0.068241
  13 H :    0.021496
  14 H :    0.026131
  15 H :    0.025679
  16 S :    0.418045
  17 C :   -0.178250
  18 C :   -0.074886
  19 C :   -0.056366
  20 C :   -0.220294
  21 H :    0.043188
  22 C :   -0.039131
  23 H :    0.032469
  24 H :    0.035450
  25 C :   -0.036964
  26 H :    0.028805
  27 H :    0.023057
  28 C :   -0.064914
  29 H :    0.027391
  30 H :    0.029405
  31 H :    0.020212
  32 H :    0.029023
  33 H :    0.019587

  Mayer bond orders larger than 0.100000
B(  0-S ,  1-C ) :   1.1558 B(  0-S ,  4-C ) :   1.1565 B(  1-C ,  2-C ) :   1.5645
B(  1-C ,  4-C ) :   0.1203 B(  1-C , 32-H ) :   0.9651 B(  2-C ,  3-C ) :   1.2913
B(  2-C ,  6-C ) :   1.0287 B(  3-C ,  4-C ) :   1.5448 B(  3-C ,  5-H ) :   0.9865
B(  4-C , 20-C ) :   1.0301 B(  6-C ,  7-H ) :   0.9450 B(  6-C ,  8-H ) :   0.9407
B(  6-C ,  9-C ) :   1.0383 B(  9-C , 10-H ) :   0.9574 B(  9-C , 11-H ) :   0.9630
B(  9-C , 12-C ) :   1.0791 B( 12-C , 13-H ) :   0.9769 B( 12-C , 14-H ) :   0.9781
B( 12-C , 15-H ) :   0.9762 B( 16-S , 17-C ) :   1.1694 B( 16-S , 20-C ) :   1.1186
B( 17-C , 18-C ) :   1.6261 B( 17-C , 33-H ) :   0.9656 B( 18-C , 19-C ) :   1.2051
B( 18-C , 21-H ) :   0.9898 B( 19-C , 20-C ) :   1.6120 B( 19-C , 22-C ) :   1.0331
B( 22-C , 23-H ) :   0.9378 B( 22-C , 24-H ) :   0.9377 B( 22-C , 25-C ) :   1.0354
B( 25-C , 26-H ) :   0.9536 B( 25-C , 27-H ) :   0.9613 B( 25-C , 28-C ) :   1.0920
B( 28-C , 29-H ) :   0.9750 B( 28-C , 30-H ) :   0.9665 B( 28-C , 31-H ) :   0.9696

Dispersion correction           -0.014227825
FINAL SINGLE POINT ENERGY     -1339.857503309471

DIPOLE MOMENT
-------------
                                X             Y             Z
Electronic contribution:     -9.14984     -23.64532     -18.96321
Nuclear contribution   :      9.25293      24.10930      19.50032
                        -----------------------------------------
Total Dipole Moment    :      0.10309       0.46398       0.53712
                        -----------------------------------------
Magnitude (a.u.)       :      0.71722
Magnitude (Debye)      :      1.82302

Rotational constants in cm-1:     0.017178     0.009593     0.006527
Rotational constants in MHz :   514.997306   287.599640   195.685725

                             ****ORCA TERMINATED NORMALLY****
TOTAL RUN TIME: 0 days 0 hours 0 minutes 21 seconds 708 msec
