                         Program Version 4.2.1 -  RELEASE  -
|  1> ! wB97X-D3 SP def2-SVP
|  2> %pal
|  3> nprocs 24
|  4> end
|  5>
|  6> * xyz 0 1
|  7> S 	 -114.64 	 21.7893 	 -113.769
|  8> C 	 -116.233 	 21.52 	 -114.549
|  9> C 	 -116.639 	 20.2085 	 -114.345
| 10> C 	 -115.682 	 19.4838 	 -113.581
| 11> C 	 -114.6 	 20.2169 	 -113.116
| 12> H 	 -115.851 	 18.5144 	 -113.128
| 13> C 	 -118.039 	 19.6774 	 -114.583
| 14> H 	 -118.11 	 18.6067 	 -114.321
| 15> H 	 -118.248 	 19.6017 	 -115.655
| 16> C 	 -119.132 	 20.4931 	 -113.839
| 17> H 	 -119.011 	 20.2992 	 -112.749
| 18> H 	 -119.064 	 21.5242 	 -114.184
| 19> C 	 -120.544 	 20.0765 	 -114.347
| 20> H 	 -120.671 	 20.3106 	 -115.412
| 21> H 	 -120.691 	 19.0274 	 -114.139
| 22> H 	 -121.333 	 20.5696 	 -113.799
| 23> S 	 -112.849 	 21.0147 	 -111.141
| 24> C 	 -111.931 	 19.8457 	 -110.2
| 25> C 	 -112.413 	 18.5822 	 -110.48
| 26> C 	 -113.206 	 18.5201 	 -111.642
| 27> C 	 -113.59 	 19.774 	 -112.094
| 28> H 	 -112.084 	 17.689 	 -110.086
| 29> C 	 -113.635 	 17.1764 	 -112.19
| 30> H 	 -113.842 	 17.3363 	 -113.206
| 31> H 	 -114.587 	 17.0125 	 -111.73
| 32> C 	 -112.8 	 15.9517 	 -111.935
| 33> H 	 -113.374 	 15.2262 	 -112.488
| 34> H 	 -112.992 	 15.5376 	 -110.945
| 35> C 	 -111.414 	 15.8763 	 -112.519
| 36> H 	 -111.066 	 14.8208 	 -112.56
| 37> H 	 -110.672 	 16.4846 	 -111.941
| 38> H 	 -111.537 	 16.324 	 -113.53
| 39> H 	 -116.819 	 22.2534 	 -115.138
| 40> H 	 -111.326 	 20.1816 	 -109.457
| 41> *
| 42>
| 43>                          ****END OF INPUT****

CARTESIAN COORDINATES (ANGSTROEM)
---------------------------------
  S    -114.640000   21.789300  -113.769000
  C    -116.233000   21.520000  -114.549000
  C    -116.639000   20.208500  -114.345000
  C    -115.682000   19.483800  -113.581000
  C    -114.600000   20.216900  -113.116000
  H    -115.851000   18.514400  -113.128000
  C    -118.039000   19.677400  -114.583000
  H    -118.110000   18.606700  -114.321000
  H    -118.248000   19.601700  -115.655000
  C    -119.132000   20.493100  -113.839000
  H    -119.011000   20.299200  -112.749000
  H    -119.064000   21.524200  -114.184000
  C    -120.544000   20.076500  -114.347000
  H    -120.671000   20.310600  -115.412000
  H    -120.691000   19.027400  -114.139000
  H    -121.333000   20.569600  -113.799000
  S    -112.849000   21.014700  -111.141000
  C    -111.931000   19.845700  -110.200000
  C    -112.413000   18.582200  -110.480000
  C    -113.206000   18.520100  -111.642000
  C    -113.590000   19.774000  -112.094000
  H    -112.084000   17.689000  -110.086000
  C    -113.635000   17.176400  -112.190000
  H    -113.842000   17.336300  -113.206000
  H    -114.587000   17.012500  -111.730000
  C    -112.800000   15.951700  -111.935000
  H    -113.374000   15.226200  -112.488000
  H    -112.992000   15.537600  -110.945000
  C    -111.414000   15.876300  -112.519000
  H    -111.066000   14.820800  -112.560000
  H    -110.672000   16.484600  -111.941000
  H    -111.537000   16.324000  -113.530000
  H    -116.819000   22.253400  -115.138000
  H    -111.326000   20.181600  -109.457000

 Total Charge           Charge          ....    0
 Multiplicity           Mult            ....    1
 Number of Electrons    NEL             ....  134
 Basis Dimension        Dim             ....  322

ORBITAL ENERGIES
----------------

  NO   OCC          E(Eh)            E(eV)
   0   2.0000     -88.967478     -2420.9282
   1   2.0000     -88.962374     -2420.7893
   2   2.0000     -10.331097      -281.1235
   3   2.0000     -10.327888      -281.0361
   4   2.0000     -10.318602      -280.7834
   5   2.0000     -10.313722      -280.6506
   6   2.0000     -10.301924      -280.3296
   7   2.0000     -10.296500      -280.1820
   8   2.0000     -10.294628      -280.1311
   9   2.0000     -10.293382      -280.0972
  10   2.0000     -10.289648      -279.9956
  11   2.0000     -10.286884      -279.9203
  12   2.0000     -10.286392      -279.9070
  13   2.0000     -10.285428      -279.8807
  14   2.0000     -10.284656      -279.8597
  15   2.0000     -10.278105      -279.6815
  16   2.0000      -8.082111      -219.9254
  17   2.0000      -8.077610      -219.8029
  18   2.0000      -6.040640      -164.3742
  19   2.0000      -6.036582      -164.2637
  20   2.0000      -6.035990      -164.2476
  21   2.0000      -6.032895      -164.1634
  22   2.0000      -6.032037      -164.1401
  23   2.0000      -6.028494      -164.0437
  24   2.0000      -1.008612       -27.4457
  25   2.0000      -0.986609       -26.8470
  26   2.0000      -0.920709       -25.0538
  27   2.0000      -0.910255       -24.7693
  28   2.0000      -0.865961       -23.5640
  29   2.0000      -0.855408       -23.2768
  30   2.0000      -0.843658       -22.9571
  31   2.0000      -0.813503       -22.1366
  32   2.0000      -0.787741       -21.4355
  33   2.0000      -0.775552       -21.1038
  34   2.0000      -0.707463       -19.2510
  35   2.0000      -0.703750       -19.1500
  36   2.0000      -0.694112       -18.8877
  37   2.0000      -0.666394       -18.1335
  38   2.0000      -0.637565       -17.3490
  39   2.0000      -0.616296       -16.7703
  40   2.0000      -0.605038       -16.4639
  41   2.0000      -0.575006       -15.6467
  42   2.0000      -0.566804       -15.4235
  43   2.0000      -0.562676       -15.3112
  44   2.0000      -0.539489       -14.6802
  45   2.0000      -0.525417       -14.2973
  46   2.0000      -0.517516       -14.0823
  47   2.0000      -0.513308       -13.9678
  48   2.0000      -0.502512       -13.6740
  49   2.0000      -0.501825       -13.6554
  50   2.0000      -0.490700       -13.3526
  51   2.0000      -0.482872       -13.1396
  52   2.0000      -0.471940       -12.8421
  53   2.0000      -0.467288       -12.7156
  54   2.0000      -0.462181       -12.5766
  55   2.0000      -0.449732       -12.2378
  56   2.0000      -0.440428       -11.9847
  57   2.0000      -0.438357       -11.9283
  58   2.0000      -0.436428       -11.8758
  59   2.0000      -0.428649       -11.6641
  60   2.0000      -0.424887       -11.5618
  61   2.0000      -0.417425       -11.3587
  62   2.0000      -0.403304       -10.9745
  63   2.0000      -0.354908        -9.6575
  64   2.0000      -0.332358        -9.0439
  65   2.0000      -0.328533        -8.9398
  66   2.0000      -0.284055        -7.7295
  67   0.0000       0.022760         0.6193
  68   0.0000       0.082980         2.2580
  69   0.0000       0.102696         2.7945
  70   0.0000       0.123342         3.3563
  71   0.0000       0.134932         3.6717

MULLIKEN ATOMIC CHARGES
-----------------------
   0 S :    0.107618
   1 C :   -0.150455
   2 C :   -0.043779
   3 C :   -0.008999
   4 C :   -0.121258
   5 H :   -0.000650
   6 C :    0.032809
   7 H :    0.017570
   8 H :    0.026760
   9 C :   -0.078936
  10 H :    0.053259
  11 H :    0.033760
  12 C :   -0.048512
  13 H :    0.036934
  14 H :    0.023429
  15 H :    0.031107
  16 S :    0.084291
  17 C :   -0.049759
  18 C :    0.025501
  19 C :   -0.120292
  20 C :   -0.112003
  21 H :   -0.009246
  22 C :    0.065073
  23 H :    0.016664
  24 H :    0.039166
  25 C :   -0.059814
  26 H :    0.012778
  27 H :    0.020724
  28 C :   -0.042899
  29 H :    0.047026
  30 H :    0.043370
  31 H :    0.041111
  32 H :    0.061294
  33 H :    0.026358
Sum of atomic charges:   -0.0000000

LOEWDIN ATOMIC CHARGES
----------------------
   0 S :    0.409796
   1 C :   -0.193988
   2 C :   -0.061725
   3 C :   -0.080543
   4 C :   -0.200117
   5 H :    0.026560
   6 C :   -0.038283
   7 H :    0.029196
   8 H :    0.030201
   9 C :   -0.033267
  10 H :    0.034022
  11 H :    0.024189
  12 C :   -0.065949
  13 H :    0.026878
  14 H :    0.020107
  15 H :    0.024074
  16 S :    0.406828
  17 C :   -0.157837
  18 C :   -0.056011
  19 C :   -0.061548
  20 C :   -0.199931
  21 H :    0.016987
  22 C :   -0.030506
  23 H :    0.023846
  24 H :    0.036716
  25 C :   -0.056606
  26 H :    0.031818
  27 H :    0.022812
  28 C :   -0.065443
  29 H :    0.032915
  30 H :    0.027181
  31 H :    0.035402
  32 H :    0.035417
  33 H :    0.006810

  Mayer bond orders larger than 0.100000
B(  0-S ,  1-C ) :   1.1256 B(  0-S ,  4-C ) :   1.1688 B(  1-C ,  2-C ) :   1.5963
B(  1-C , 32-H ) :   0.9666 B(  2-C ,  3-C ) :   1.2665 B(  2-C ,  6-C ) :   1.0242
B(  3-C ,  4-C ) :   1.5567 B(  3-C ,  5-H ) :   0.9837 B(  4-C , 20-C ) :   1.0331
B(  6-C ,  7-H ) :   0.9446 B(  6-C ,  8-H ) :   0.9359 B(  6-C ,  9-C ) :   1.0587
B(  9-C , 10-H ) :   0.9579 B(  9-C , 11-H ) :   0.9568 B(  9-C , 12-C ) :   1.0802
B( 12-C , 13-H ) :   0.9762 B( 12-C , 14-H ) :   0.9755 B( 12-C , 15-H ) :   0.9742
B( 16-S , 17-C ) :   1.1623 B( 16-S , 20-C ) :   1.1517 B( 17-C , 18-C ) :   1.5500
B( 17-C , 20-C ) :   0.1041 B( 17-C , 33-H ) :   0.9880 B( 18-C , 19-C ) :   1.2968
B( 18-C , 21-H ) :   0.9865 B( 19-C , 20-C ) :   1.5790 B( 19-C , 22-C ) :   1.0281
B( 22-C , 23-H ) :   0.9280 B( 22-C , 24-H ) :   0.9145 B( 22-C , 25-C ) :   1.1035
B( 25-C , 26-H ) :   0.9356 B( 25-C , 27-H ) :   0.9366 B( 25-C , 28-C ) :   1.0701
B( 28-C , 29-H ) :   0.9736 B( 28-C , 30-H ) :   0.9747 B( 28-C , 31-H ) :   0.9689

Dispersion correction           -0.013620135
FINAL SINGLE POINT ENERGY     -1339.869627530815

DIPOLE MOMENT
-------------
                                X             Y             Z
Electronic contribution:     14.93782      20.23131       4.95080
Nuclear contribution   :    -15.41423     -20.91828      -4.86998
                        -----------------------------------------
Total Dipole Moment    :     -0.47641      -0.68697       0.08082
                        -----------------------------------------
Magnitude (a.u.)       :      0.83989
Magnitude (Debye)      :      2.13484

Rotational constants in cm-1:     0.020748     0.007402     0.006080
Rotational constants in MHz :   622.007915   221.920356   182.263453

                             ****ORCA TERMINATED NORMALLY****
TOTAL RUN TIME: 0 days 0 hours 0 minutes 21 seconds 242 msec
