                         Program Version 4.2.1 -  RELEASE  -
|  1> ! wB97X-D3 SP def2-SVP
|  2> %pal
|  3> nprocs 24
|  4> end
|  5>
|  6> * xyz 0 1
|  7> S 	 -97.2832 	 -3.89015 	 -120.898
|  8> C 	 -97.7126 	 -5.2735 	 -119.86
|  9> C 	 -98.9365 	 -5.02152 	 -119.213
| 10> C 	 -99.5021 	 -3.80878 	 -119.668
| 11> C 	 -98.7142 	 -2.99096 	 -120.483
| 12> H 	 -100.486 	 -3.40121 	 -119.525
| 13> C 	 -99.6636 	 -5.90991 	 -118.239
| 14> H 	 -99.0381 	 -6.7494 	 -117.817
| 15> H 	 -100.456 	 -6.36531 	 -118.9
| 16> C 	 -100.118 	 -5.09362 	 -117.013
| 17> H 	 -100.774 	 -4.27831 	 -117.403
| 18> H 	 -100.666 	 -5.75296 	 -116.335
| 19> C 	 -98.9978 	 -4.52701 	 -116.232
| 20> H 	 -98.4207 	 -5.36009 	 -115.807
| 21> H 	 -98.3338 	 -3.92003 	 -116.738
| 22> H 	 -99.2647 	 -3.83621 	 -115.41
| 23> S 	 -100.293 	 -0.743618 	 -120.396
| 24> C 	 -100.377 	 0.40135 	 -121.731
| 25> C 	 -99.6745 	 -0.0483518 	 -122.769
| 26> C 	 -98.962 	 -1.27371 	 -122.511
| 27> C 	 -99.1607 	 -1.80101 	 -121.217
| 28> H 	 -99.528 	 0.587146 	 -123.657
| 29> C 	 -98.0159 	 -1.77703 	 -123.57
| 30> H 	 -98.73 	 -2.18082 	 -124.239
| 31> H 	 -97.3317 	 -2.56535 	 -123.185
| 32> C 	 -97.1535 	 -0.737256 	 -124.259
| 33> H 	 -96.4525 	 -0.134065 	 -123.626
| 34> H 	 -97.8489 	 -0.0800653 	 -124.832
| 35> C 	 -96.1471 	 -1.36094 	 -125.266
| 36> H 	 -95.6036 	 -0.610108 	 -125.841
| 37> H 	 -96.6771 	 -2.0703 	 -125.9
| 38> H 	 -95.3824 	 -1.92099 	 -124.647
| 39> H 	 -97.0584 	 -6.07777 	 -119.619
| 40> H 	 -101.1 	 1.12911 	 -121.935
| 41> *
| 42>
| 43>                          ****END OF INPUT****

CARTESIAN COORDINATES (ANGSTROEM)
---------------------------------
  S    -97.283200   -3.890150  -120.898000
  C    -97.712600   -5.273500  -119.860000
  C    -98.936500   -5.021520  -119.213000
  C    -99.502100   -3.808780  -119.668000
  C    -98.714200   -2.990960  -120.483000
  H    -100.486000   -3.401210  -119.525000
  C    -99.663600   -5.909910  -118.239000
  H    -99.038100   -6.749400  -117.817000
  H    -100.456000   -6.365310  -118.900000
  C    -100.118000   -5.093620  -117.013000
  H    -100.774000   -4.278310  -117.403000
  H    -100.666000   -5.752960  -116.335000
  C    -98.997800   -4.527010  -116.232000
  H    -98.420700   -5.360090  -115.807000
  H    -98.333800   -3.920030  -116.738000
  H    -99.264700   -3.836210  -115.410000
  S    -100.293000   -0.743618  -120.396000
  C    -100.377000    0.401350  -121.731000
  C    -99.674500   -0.048352  -122.769000
  C    -98.962000   -1.273710  -122.511000
  C    -99.160700   -1.801010  -121.217000
  H    -99.528000    0.587146  -123.657000
  C    -98.015900   -1.777030  -123.570000
  H    -98.730000   -2.180820  -124.239000
  H    -97.331700   -2.565350  -123.185000
  C    -97.153500   -0.737256  -124.259000
  H    -96.452500   -0.134065  -123.626000
  H    -97.848900   -0.080065  -124.832000
  C    -96.147100   -1.360940  -125.266000
  H    -95.603600   -0.610108  -125.841000
  H    -96.677100   -2.070300  -125.900000
  H    -95.382400   -1.920990  -124.647000
  H    -97.058400   -6.077770  -119.619000
  H    -101.100000    1.129110  -121.935000

 Total Charge           Charge          ....    0
 Multiplicity           Mult            ....    1
 Number of Electrons    NEL             ....  134
 Basis Dimension        Dim             ....  322

ORBITAL ENERGIES
----------------

  NO   OCC          E(Eh)            E(eV)
   0   2.0000     -88.968440     -2420.9543
   1   2.0000     -88.963273     -2420.8137
   2   2.0000     -10.335184      -281.2347
   3   2.0000     -10.334687      -281.2211
   4   2.0000     -10.318884      -280.7911
   5   2.0000     -10.309914      -280.5470
   6   2.0000     -10.306760      -280.4612
   7   2.0000     -10.306104      -280.4433
   8   2.0000     -10.301824      -280.3269
   9   2.0000     -10.293994      -280.1138
  10   2.0000     -10.291854      -280.0556
  11   2.0000     -10.290909      -280.0299
  12   2.0000     -10.287741      -279.9437
  13   2.0000     -10.287636      -279.9408
  14   2.0000     -10.282112      -279.7905
  15   2.0000     -10.267626      -279.3963
  16   2.0000      -8.082203      -219.9279
  17   2.0000      -8.077798      -219.8081
  18   2.0000      -6.040817      -164.3790
  19   2.0000      -6.036711      -164.2673
  20   2.0000      -6.036562      -164.2632
  21   2.0000      -6.033051      -164.1677
  22   2.0000      -6.032223      -164.1451
  23   2.0000      -6.028421      -164.0417
  24   2.0000      -1.006812       -27.3967
  25   2.0000      -0.985684       -26.8218
  26   2.0000      -0.918859       -25.0034
  27   2.0000      -0.911435       -24.8014
  28   2.0000      -0.875299       -23.8181
  29   2.0000      -0.851046       -23.1581
  30   2.0000      -0.842856       -22.9353
  31   2.0000      -0.818605       -22.2754
  32   2.0000      -0.784151       -21.3378
  33   2.0000      -0.769693       -20.9444
  34   2.0000      -0.710482       -19.3332
  35   2.0000      -0.698736       -19.0136
  36   2.0000      -0.691028       -18.8038
  37   2.0000      -0.663090       -18.0436
  38   2.0000      -0.633199       -17.2302
  39   2.0000      -0.622066       -16.9273
  40   2.0000      -0.597001       -16.2452
  41   2.0000      -0.575955       -15.6725
  42   2.0000      -0.571418       -15.5491
  43   2.0000      -0.556072       -15.1315
  44   2.0000      -0.545667       -14.8484
  45   2.0000      -0.528886       -14.3917
  46   2.0000      -0.518194       -14.1008
  47   2.0000      -0.516616       -14.0578
  48   2.0000      -0.506960       -13.7951
  49   2.0000      -0.501772       -13.6539
  50   2.0000      -0.486114       -13.2278
  51   2.0000      -0.476265       -12.9598
  52   2.0000      -0.468428       -12.7466
  53   2.0000      -0.465614       -12.6700
  54   2.0000      -0.461468       -12.5572
  55   2.0000      -0.455568       -12.3966
  56   2.0000      -0.445964       -12.1353
  57   2.0000      -0.440219       -11.9790
  58   2.0000      -0.429742       -11.6939
  59   2.0000      -0.422504       -11.4969
  60   2.0000      -0.414451       -11.2778
  61   2.0000      -0.405823       -11.0430
  62   2.0000      -0.403418       -10.9776
  63   2.0000      -0.359870        -9.7926
  64   2.0000      -0.330143        -8.9836
  65   2.0000      -0.327906        -8.9228
  66   2.0000      -0.287600        -7.8260
  67   0.0000       0.020017         0.5447
  68   0.0000       0.080791         2.1984
  69   0.0000       0.114710         3.1214
  70   0.0000       0.123593         3.3631
  71   0.0000       0.129807         3.5322

MULLIKEN ATOMIC CHARGES
-----------------------
   0 S :    0.086497
   1 C :   -0.109896
   2 C :   -0.082117
   3 C :   -0.022205
   4 C :   -0.101498
   5 H :    0.017646
   6 C :    0.046602
   7 H :    0.026221
   8 H :    0.062540
   9 C :   -0.077538
  10 H :    0.039347
  11 H :    0.033736
  12 C :   -0.028938
  13 H :    0.020492
  14 H :    0.020289
  15 H :    0.034527
  16 S :    0.071206
  17 C :   -0.035549
  18 C :   -0.070693
  19 C :   -0.062340
  20 C :   -0.135224
  21 H :    0.035993
  22 C :    0.076845
  23 H :    0.031012
  24 H :    0.029406
  25 C :   -0.118694
  26 H :    0.046310
  27 H :    0.032665
  28 C :   -0.059739
  29 H :    0.041325
  30 H :    0.028665
  31 H :    0.037931
  32 H :    0.043553
  33 H :    0.041622
Sum of atomic charges:   -0.0000000

LOEWDIN ATOMIC CHARGES
----------------------
   0 S :    0.410006
   1 C :   -0.187507
   2 C :   -0.061601
   3 C :   -0.069348
   4 C :   -0.193579
   5 H :    0.022336
   6 C :   -0.035763
   7 H :    0.032253
   8 H :    0.045865
   9 C :   -0.043768
  10 H :    0.026832
  11 H :    0.026405
  12 C :   -0.064643
  13 H :    0.026478
  14 H :    0.015847
  15 H :    0.034134
  16 S :    0.394996
  17 C :   -0.175357
  18 C :   -0.074505
  19 C :   -0.057303
  20 C :   -0.193247
  21 H :    0.038013
  22 C :   -0.039719
  23 H :    0.035500
  24 H :    0.020512
  25 C :   -0.046102
  26 H :    0.031847
  27 H :    0.020497
  28 C :   -0.065730
  29 H :    0.026211
  30 H :    0.020460
  31 H :    0.029744
  32 H :    0.023853
  33 H :    0.026384

  Mayer bond orders larger than 0.100000
B(  0-S ,  1-C ) :   1.1433 B(  0-S ,  4-C ) :   1.1550 B(  1-C ,  2-C ) :   1.5796
B(  1-C ,  4-C ) :   0.1021 B(  1-C , 32-H ) :   0.9723 B(  2-C ,  3-C ) :   1.2518
B(  2-C ,  6-C ) :   1.0128 B(  3-C ,  4-C ) :   1.5614 B(  3-C ,  5-H ) :   0.9814
B(  4-C , 20-C ) :   1.0492 B(  6-C ,  7-H ) :   0.9455 B(  6-C ,  8-H ) :   0.9402
B(  6-C ,  9-C ) :   1.0634 B(  9-C , 10-H ) :   0.9516 B(  9-C , 11-H ) :   0.9569
B(  9-C , 12-C ) :   1.0817 B( 12-C , 13-H ) :   0.9703 B( 12-C , 14-H ) :   0.9706
B( 12-C , 15-H ) :   0.9686 B( 16-S , 17-C ) :   1.1360 B( 16-S , 20-C ) :   1.1264
B( 17-C , 18-C ) :   1.6587 B( 17-C , 33-H ) :   0.9578 B( 18-C , 19-C ) :   1.2397
B( 18-C , 21-H ) :   0.9758 B( 19-C , 20-C ) :   1.5844 B( 19-C , 22-C ) :   1.0242
B( 22-C , 23-H ) :   0.9124 B( 22-C , 24-H ) :   0.9449 B( 22-C , 25-C ) :   1.0714
B( 25-C , 26-H ) :   0.9622 B( 25-C , 27-H ) :   0.9445 B( 25-C , 28-C ) :   1.0828
B( 28-C , 29-H ) :   0.9752 B( 28-C , 30-H ) :   0.9748 B( 28-C , 31-H ) :   0.9758

Dispersion correction           -0.013938360
FINAL SINGLE POINT ENERGY     -1339.866421657941

DIPOLE MOMENT
-------------
                                X             Y             Z
Electronic contribution:     -4.57210       4.71036       0.68515
Nuclear contribution   :      4.46409      -4.86568      -0.88174
                        -----------------------------------------
Total Dipole Moment    :     -0.10801      -0.15532      -0.19659
                        -----------------------------------------
Magnitude (a.u.)       :      0.27284
Magnitude (Debye)      :      0.69349

Rotational constants in cm-1:     0.023085     0.007990     0.006235
Rotational constants in MHz :   692.075856   239.533368   186.907522

                             ****ORCA TERMINATED NORMALLY****
TOTAL RUN TIME: 0 days 0 hours 0 minutes 21 seconds 244 msec
