                         Program Version 4.2.1 -  RELEASE  -
|  1> ! wB97X-D3 SP def2-SVP
|  2> %pal
|  3> nprocs 24
|  4> end
|  5>
|  6> * xyz 0 1
|  7> S 	 35.4168 	 -31.4833 	 -111.266
|  8> C 	 34.6908 	 -33.0652 	 -111.22
|  9> C 	 35.2807 	 -33.961 	 -112.111
| 10> C 	 36.366 	 -33.352 	 -112.765
| 11> C 	 36.5677 	 -32.062 	 -112.407
| 12> H 	 37.0019 	 -33.8282 	 -113.493
| 13> C 	 34.9146 	 -35.4497 	 -112.372
| 14> H 	 34.5302 	 -35.8105 	 -111.403
| 15> H 	 35.8913 	 -35.9914 	 -112.699
| 16> C 	 33.8489 	 -35.6726 	 -113.447
| 17> H 	 32.9784 	 -35.0663 	 -113.171
| 18> H 	 34.3323 	 -35.3453 	 -114.365
| 19> C 	 33.3035 	 -37.0748 	 -113.646
| 20> H 	 32.4813 	 -37.227 	 -112.978
| 21> H 	 32.8791 	 -37.1746 	 -114.548
| 22> H 	 34.1013 	 -37.8057 	 -113.451
| 23> S 	 37.5109 	 -29.7073 	 -113.473
| 24> C 	 39.2038 	 -29.4101 	 -113.51
| 25> C 	 39.9375 	 -30.4281 	 -113.029
| 26> C 	 39.1207 	 -31.4681 	 -112.412
| 27> C 	 37.7524 	 -31.2349 	 -112.671
| 28> H 	 40.9916 	 -30.4236 	 -113.101
| 29> C 	 39.7973 	 -32.5638 	 -111.64
| 30> H 	 39.1622 	 -33.483 	 -111.612
| 31> H 	 40.0006 	 -32.1906 	 -110.664
| 32> C 	 41.1923 	 -33.0087 	 -112.215
| 33> H 	 41.6025 	 -33.8421 	 -111.618
| 34> H 	 42.0513 	 -32.3025 	 -112.339
| 35> C 	 40.8965 	 -33.6395 	 -113.586
| 36> H 	 40.5873 	 -32.9112 	 -114.365
| 37> H 	 40.1652 	 -34.4618 	 -113.449
| 38> H 	 41.8685 	 -34.1217 	 -113.888
| 39> H 	 33.7537 	 -33.2907 	 -110.616
| 40> H 	 39.6924 	 -28.5356 	 -113.952
| 41> *
| 42>
| 43>                          ****END OF INPUT****

CARTESIAN COORDINATES (ANGSTROEM)
---------------------------------
  S     35.416800  -31.483300  -111.266000
  C     34.690800  -33.065200  -111.220000
  C     35.280700  -33.961000  -112.111000
  C     36.366000  -33.352000  -112.765000
  C     36.567700  -32.062000  -112.407000
  H     37.001900  -33.828200  -113.493000
  C     34.914600  -35.449700  -112.372000
  H     34.530200  -35.810500  -111.403000
  H     35.891300  -35.991400  -112.699000
  C     33.848900  -35.672600  -113.447000
  H     32.978400  -35.066300  -113.171000
  H     34.332300  -35.345300  -114.365000
  C     33.303500  -37.074800  -113.646000
  H     32.481300  -37.227000  -112.978000
  H     32.879100  -37.174600  -114.548000
  H     34.101300  -37.805700  -113.451000
  S     37.510900  -29.707300  -113.473000
  C     39.203800  -29.410100  -113.510000
  C     39.937500  -30.428100  -113.029000
  C     39.120700  -31.468100  -112.412000
  C     37.752400  -31.234900  -112.671000
  H     40.991600  -30.423600  -113.101000
  C     39.797300  -32.563800  -111.640000
  H     39.162200  -33.483000  -111.612000
  H     40.000600  -32.190600  -110.664000
  C     41.192300  -33.008700  -112.215000
  H     41.602500  -33.842100  -111.618000
  H     42.051300  -32.302500  -112.339000
  C     40.896500  -33.639500  -113.586000
  H     40.587300  -32.911200  -114.365000
  H     40.165200  -34.461800  -113.449000
  H     41.868500  -34.121700  -113.888000
  H     33.753700  -33.290700  -110.616000
  H     39.692400  -28.535600  -113.952000

 Total Charge           Charge          ....    0
 Multiplicity           Mult            ....    1
 Number of Electrons    NEL             ....  134
 Basis Dimension        Dim             ....  322

ORBITAL ENERGIES
----------------

  NO   OCC          E(Eh)            E(eV)
   0   2.0000     -88.966828     -2420.9105
   1   2.0000     -88.962366     -2420.7890
   2   2.0000     -10.324828      -280.9529
   3   2.0000     -10.320804      -280.8434
   4   2.0000     -10.318959      -280.7932
   5   2.0000     -10.309880      -280.5461
   6   2.0000     -10.306163      -280.4449
   7   2.0000     -10.303780      -280.3801
   8   2.0000     -10.301940      -280.3300
   9   2.0000     -10.294155      -280.1182
  10   2.0000     -10.293823      -280.1092
  11   2.0000     -10.287601      -279.9399
  12   2.0000     -10.285933      -279.8945
  13   2.0000     -10.283221      -279.8207
  14   2.0000     -10.281155      -279.7645
  15   2.0000     -10.267525      -279.3936
  16   2.0000      -8.082348      -219.9319
  17   2.0000      -8.077985      -219.8131
  18   2.0000      -6.040647      -164.3743
  19   2.0000      -6.036835      -164.2706
  20   2.0000      -6.036461      -164.2605
  21   2.0000      -6.033187      -164.1714
  22   2.0000      -6.032397      -164.1499
  23   2.0000      -6.028716      -164.0497
  24   2.0000      -1.010503       -27.4972
  25   2.0000      -0.987624       -26.8746
  26   2.0000      -0.911237       -24.7960
  27   2.0000      -0.909031       -24.7360
  28   2.0000      -0.869550       -23.6617
  29   2.0000      -0.854538       -23.2532
  30   2.0000      -0.843493       -22.9526
  31   2.0000      -0.816003       -22.2046
  32   2.0000      -0.785332       -21.3700
  33   2.0000      -0.767629       -20.8882
  34   2.0000      -0.700822       -19.0703
  35   2.0000      -0.692599       -18.8466
  36   2.0000      -0.687580       -18.7100
  37   2.0000      -0.654522       -17.8105
  38   2.0000      -0.640099       -17.4180
  39   2.0000      -0.622324       -16.9343
  40   2.0000      -0.597941       -16.2708
  41   2.0000      -0.576176       -15.6786
  42   2.0000      -0.560553       -15.2534
  43   2.0000      -0.555727       -15.1221
  44   2.0000      -0.536384       -14.5958
  45   2.0000      -0.529731       -14.4147
  46   2.0000      -0.515339       -14.0231
  47   2.0000      -0.509480       -13.8637
  48   2.0000      -0.504363       -13.7244
  49   2.0000      -0.495312       -13.4781
  50   2.0000      -0.491637       -13.3781
  51   2.0000      -0.477970       -13.0062
  52   2.0000      -0.473241       -12.8775
  53   2.0000      -0.459967       -12.5163
  54   2.0000      -0.457081       -12.4378
  55   2.0000      -0.451313       -12.2809
  56   2.0000      -0.446972       -12.1627
  57   2.0000      -0.438717       -11.9381
  58   2.0000      -0.434645       -11.8273
  59   2.0000      -0.422199       -11.4886
  60   2.0000      -0.418691       -11.3931
  61   2.0000      -0.414534       -11.2801
  62   2.0000      -0.413637       -11.2556
  63   2.0000      -0.339339        -9.2339
  64   2.0000      -0.335695        -9.1347
  65   2.0000      -0.325542        -8.8584
  66   2.0000      -0.296724        -8.0743
  67   0.0000       0.041132         1.1193
  68   0.0000       0.068966         1.8767
  69   0.0000       0.113583         3.0907
  70   0.0000       0.121085         3.2949
  71   0.0000       0.129140         3.5141

MULLIKEN ATOMIC CHARGES
-----------------------
   0 S :    0.128556
   1 C :   -0.156552
   2 C :   -0.077984
   3 C :    0.025916
   4 C :   -0.140941
   5 H :    0.004674
   6 C :    0.033448
   7 H :    0.024532
   8 H :    0.040369
   9 C :   -0.091560
  10 H :    0.028672
  11 H :    0.025296
  12 C :    0.032924
  13 H :    0.016412
  14 H :    0.007660
  15 H :    0.028821
  16 S :    0.110164
  17 C :   -0.075520
  18 C :   -0.028016
  19 C :   -0.046298
  20 C :   -0.182695
  21 H :    0.001280
  22 C :    0.107870
  23 H :    0.036072
  24 H :    0.039406
  25 C :   -0.128209
  26 H :    0.035006
  27 H :    0.044325
  28 C :   -0.088063
  29 H :    0.057796
  30 H :    0.031388
  31 H :    0.032255
  32 H :    0.067497
  33 H :    0.055500
Sum of atomic charges:   -0.0000000

LOEWDIN ATOMIC CHARGES
----------------------
   0 S :    0.428360
   1 C :   -0.211111
   2 C :   -0.065371
   3 C :   -0.062775
   4 C :   -0.207164
   5 H :    0.031513
   6 C :   -0.032606
   7 H :    0.028046
   8 H :    0.037756
   9 C :   -0.043473
  10 H :    0.026130
  11 H :    0.022232
  12 C :   -0.052055
  13 H :    0.024230
  14 H :    0.012229
  15 H :    0.028091
  16 S :    0.414338
  17 C :   -0.193973
  18 C :   -0.070815
  19 C :   -0.049241
  20 C :   -0.211276
  21 H :    0.024183
  22 C :   -0.027754
  23 H :    0.037079
  24 H :    0.031655
  25 C :   -0.049958
  26 H :    0.028634
  27 H :    0.025932
  28 C :   -0.073367
  29 H :    0.028239
  30 H :    0.023315
  31 H :    0.026791
  32 H :    0.038229
  33 H :    0.033957

  Mayer bond orders larger than 0.100000
B(  0-S ,  1-C ) :   1.1547 B(  0-S ,  4-C ) :   1.1708 B(  1-C ,  2-C ) :   1.6042
B(  1-C , 32-H ) :   0.9588 B(  2-C ,  3-C ) :   1.2507 B(  2-C ,  6-C ) :   1.0083
B(  3-C ,  4-C ) :   1.5897 B(  3-C ,  5-H ) :   1.0059 B(  4-C , 20-C ) :   0.9872
B(  6-C ,  7-H ) :   0.9413 B(  6-C ,  8-H ) :   0.9410 B(  6-C ,  9-C ) :   1.0731
B(  9-C , 10-H ) :   0.9578 B(  9-C , 11-H ) :   0.9568 B(  9-C , 12-C ) :   1.0864
B( 12-C , 13-H ) :   0.9729 B( 12-C , 14-H ) :   0.9694 B( 12-C , 15-H ) :   0.9726
B( 16-S , 17-C ) :   1.1487 B( 16-S , 20-C ) :   1.1468 B( 17-C , 18-C ) :   1.6425
B( 17-C , 33-H ) :   0.9588 B( 18-C , 19-C ) :   1.2169 B( 18-C , 21-H ) :   0.9926
B( 19-C , 20-C ) :   1.6077 B( 19-C , 22-C ) :   1.0392 B( 22-C , 23-H ) :   0.9390
B( 22-C , 24-H ) :   0.9252 B( 22-C , 25-C ) :   1.0669 B( 25-C , 26-H ) :   0.9559
B( 25-C , 27-H ) :   0.9525 B( 25-C , 28-C ) :   1.0704 B( 28-C , 29-H ) :   0.9733
B( 28-C , 30-H ) :   0.9754 B( 28-C , 31-H ) :   0.9749

Dispersion correction           -0.014188070
FINAL SINGLE POINT ENERGY     -1339.875098627845

DIPOLE MOMENT
-------------
                                X             Y             Z
Electronic contribution:     -5.15158      26.87737       4.74841
Nuclear contribution   :      5.43354     -27.43114      -4.77284
                        -----------------------------------------
Total Dipole Moment    :      0.28196      -0.55377      -0.02443
                        -----------------------------------------
Magnitude (a.u.)       :      0.62190
Magnitude (Debye)      :      1.58075

Rotational constants in cm-1:     0.019915     0.007839     0.006417
Rotational constants in MHz :   597.048214   235.009240   192.385570

                             ****ORCA TERMINATED NORMALLY****
TOTAL RUN TIME: 0 days 0 hours 0 minutes 21 seconds 381 msec
