                         Program Version 4.2.1 -  RELEASE  -
|  1> ! wB97X-D3 SP def2-SVP
|  2> %pal
|  3> nprocs 24
|  4> end
|  5>
|  6> * xyz 0 1
|  7> S 	 -58.8436 	 -2.93081 	 -18.5679
|  8> C 	 -59.94 	 -2.72739 	 -17.294
|  9> C 	 -59.6065 	 -3.49226 	 -16.174
| 10> C 	 -58.5353 	 -4.38985 	 -16.436
| 11> C 	 -57.8917 	 -4.12772 	 -17.5907
| 12> H 	 -58.2034 	 -5.16257 	 -15.7205
| 13> C 	 -60.4376 	 -3.56999 	 -14.8399
| 14> H 	 -60.0769 	 -4.41478 	 -14.1863
| 15> H 	 -61.4181 	 -3.73489 	 -15.1229
| 16> C 	 -60.2981 	 -2.32302 	 -13.9654
| 17> H 	 -59.2365 	 -2.14253 	 -13.7863
| 18> H 	 -60.6857 	 -1.42929 	 -14.4562
| 19> C 	 -60.8624 	 -2.5831 	 -12.5781
| 20> H 	 -60.9188 	 -1.65406 	 -12.004
| 21> H 	 -61.7955 	 -3.06074 	 -12.6125
| 22> H 	 -60.2855 	 -3.26509 	 -11.9293
| 23> S 	 -55.6188 	 -5.39736 	 -16.9485
| 24> C 	 -54.616 	 -6.06605 	 -18.2776
| 25> C 	 -55.09 	 -5.80779 	 -19.5524
| 26> C 	 -56.3813 	 -5.14196 	 -19.4555
| 27> C 	 -56.7467 	 -4.7718 	 -18.1718
| 28> H 	 -54.4726 	 -6.04976 	 -20.3897
| 29> C 	 -57.2006 	 -4.92436 	 -20.6876
| 30> H 	 -58.1782 	 -4.63693 	 -20.2629
| 31> H 	 -57.4134 	 -5.94707 	 -21.1866
| 32> C 	 -56.6812 	 -3.91447 	 -21.7649
| 33> H 	 -57.5417 	 -3.45197 	 -22.3123
| 34> H 	 -56.0914 	 -4.4696 	 -22.4402
| 35> C 	 -55.8753 	 -2.76292 	 -21.2163
| 36> H 	 -56.3919 	 -2.20907 	 -20.5104
| 37> H 	 -55.4277 	 -2.09864 	 -21.9918
| 38> H 	 -55.1195 	 -3.22236 	 -20.5594
| 39> H 	 -60.6818 	 -1.98727 	 -17.2735
| 40> H 	 -53.6911 	 -6.60579 	 -18.1152
| 41> *
| 42>
| 43>                          ****END OF INPUT****

CARTESIAN COORDINATES (ANGSTROEM)
---------------------------------
  S    -58.843600   -2.930810  -18.567900
  C    -59.940000   -2.727390  -17.294000
  C    -59.606500   -3.492260  -16.174000
  C    -58.535300   -4.389850  -16.436000
  C    -57.891700   -4.127720  -17.590700
  H    -58.203400   -5.162570  -15.720500
  C    -60.437600   -3.569990  -14.839900
  H    -60.076900   -4.414780  -14.186300
  H    -61.418100   -3.734890  -15.122900
  C    -60.298100   -2.323020  -13.965400
  H    -59.236500   -2.142530  -13.786300
  H    -60.685700   -1.429290  -14.456200
  C    -60.862400   -2.583100  -12.578100
  H    -60.918800   -1.654060  -12.004000
  H    -61.795500   -3.060740  -12.612500
  H    -60.285500   -3.265090  -11.929300
  S    -55.618800   -5.397360  -16.948500
  C    -54.616000   -6.066050  -18.277600
  C    -55.090000   -5.807790  -19.552400
  C    -56.381300   -5.141960  -19.455500
  C    -56.746700   -4.771800  -18.171800
  H    -54.472600   -6.049760  -20.389700
  C    -57.200600   -4.924360  -20.687600
  H    -58.178200   -4.636930  -20.262900
  H    -57.413400   -5.947070  -21.186600
  C    -56.681200   -3.914470  -21.764900
  H    -57.541700   -3.451970  -22.312300
  H    -56.091400   -4.469600  -22.440200
  C    -55.875300   -2.762920  -21.216300
  H    -56.391900   -2.209070  -20.510400
  H    -55.427700   -2.098640  -21.991800
  H    -55.119500   -3.222360  -20.559400
  H    -60.681800   -1.987270  -17.273500
  H    -53.691100   -6.605790  -18.115200

 Total Charge           Charge          ....    0
 Multiplicity           Mult            ....    1
 Number of Electrons    NEL             ....  134
 Basis Dimension        Dim             ....  322

ORBITAL ENERGIES
----------------

  NO   OCC          E(Eh)            E(eV)
   0   2.0000     -88.968561     -2420.9576
   1   2.0000     -88.966916     -2420.9129
   2   2.0000     -10.331332      -281.1298
   3   2.0000     -10.328877      -281.0630
   4   2.0000     -10.321875      -280.8725
   5   2.0000     -10.309632      -280.5393
   6   2.0000     -10.306422      -280.4520
   7   2.0000     -10.303337      -280.3680
   8   2.0000     -10.297785      -280.2170
   9   2.0000     -10.294872      -280.1377
  10   2.0000     -10.293209      -280.0924
  11   2.0000     -10.293102      -280.0895
  12   2.0000     -10.284679      -279.8604
  13   2.0000     -10.282892      -279.8117
  14   2.0000     -10.274075      -279.5718
  15   2.0000     -10.265147      -279.3289
  16   2.0000      -8.082809      -219.9444
  17   2.0000      -8.080631      -219.8851
  18   2.0000      -6.041302      -164.3922
  19   2.0000      -6.039276      -164.3371
  20   2.0000      -6.037355      -164.2848
  21   2.0000      -6.035507      -164.2345
  22   2.0000      -6.033637      -164.1836
  23   2.0000      -6.031095      -164.1144
  24   2.0000      -1.007822       -27.4242
  25   2.0000      -0.980906       -26.6918
  26   2.0000      -0.910594       -24.7785
  27   2.0000      -0.905032       -24.6272
  28   2.0000      -0.876583       -23.8530
  29   2.0000      -0.854262       -23.2456
  30   2.0000      -0.843988       -22.9661
  31   2.0000      -0.816708       -22.2238
  32   2.0000      -0.780874       -21.2487
  33   2.0000      -0.766839       -20.8667
  34   2.0000      -0.709448       -19.3051
  35   2.0000      -0.702504       -19.1161
  36   2.0000      -0.688818       -18.7437
  37   2.0000      -0.670354       -18.2413
  38   2.0000      -0.640031       -17.4161
  39   2.0000      -0.620821       -16.8934
  40   2.0000      -0.584848       -15.9145
  41   2.0000      -0.571539       -15.5524
  42   2.0000      -0.563197       -15.3254
  43   2.0000      -0.551752       -15.0139
  44   2.0000      -0.545729       -14.8500
  45   2.0000      -0.526848       -14.3363
  46   2.0000      -0.520412       -14.1611
  47   2.0000      -0.512699       -13.9513
  48   2.0000      -0.508985       -13.8502
  49   2.0000      -0.496637       -13.5142
  50   2.0000      -0.490033       -13.3345
  51   2.0000      -0.476023       -12.9532
  52   2.0000      -0.471643       -12.8341
  53   2.0000      -0.465145       -12.6572
  54   2.0000      -0.453899       -12.3512
  55   2.0000      -0.449057       -12.2194
  56   2.0000      -0.441438       -12.0121
  57   2.0000      -0.436623       -11.8811
  58   2.0000      -0.435229       -11.8432
  59   2.0000      -0.431941       -11.7537
  60   2.0000      -0.414826       -11.2880
  61   2.0000      -0.410817       -11.1789
  62   2.0000      -0.401308       -10.9202
  63   2.0000      -0.363702        -9.8968
  64   2.0000      -0.332946        -9.0599
  65   2.0000      -0.329968        -8.9789
  66   2.0000      -0.283137        -7.7046
  67   0.0000       0.021289         0.5793
  68   0.0000       0.076246         2.0748
  69   0.0000       0.099454         2.7063
  70   0.0000       0.104608         2.8465
  71   0.0000       0.131391         3.5753

MULLIKEN ATOMIC CHARGES
-----------------------
   0 S :    0.102405
   1 C :   -0.084615
   2 C :   -0.095383
   3 C :   -0.007372
   4 C :   -0.125299
   5 H :    0.034440
   6 C :    0.061225
   7 H :    0.027565
   8 H :    0.023010
   9 C :   -0.071698
  10 H :    0.030639
  11 H :    0.031192
  12 C :   -0.039936
  13 H :    0.035378
  14 H :    0.014740
  15 H :    0.027614
  16 S :    0.082142
  17 C :   -0.092270
  18 C :   -0.007122
  19 C :   -0.103891
  20 C :   -0.102290
  21 H :    0.023602
  22 C :    0.023160
  23 H :    0.020837
  24 H :    0.052048
  25 C :   -0.056107
  26 H :    0.039303
  27 H :    0.019672
  28 C :   -0.023790
  29 H :    0.003548
  30 H :    0.046503
  31 H :    0.027455
  32 H :    0.028787
  33 H :    0.054507
Sum of atomic charges:    0.0000000

LOEWDIN ATOMIC CHARGES
----------------------
   0 S :    0.419843
   1 C :   -0.206179
   2 C :   -0.057117
   3 C :   -0.071218
   4 C :   -0.170500
   5 H :    0.036685
   6 C :   -0.022276
   7 H :    0.035545
   8 H :    0.018827
   9 C :   -0.041612
  10 H :    0.028204
  11 H :    0.022307
  12 C :   -0.066966
  13 H :    0.029313
  14 H :    0.014946
  15 H :    0.027593
  16 S :    0.374996
  17 C :   -0.161562
  18 C :   -0.063439
  19 C :   -0.061009
  20 C :   -0.184094
  21 H :    0.033880
  22 C :   -0.048262
  23 H :    0.013078
  24 H :    0.044788
  25 C :   -0.038440
  26 H :    0.032184
  27 H :    0.015085
  28 C :   -0.068675
  29 H :    0.009792
  30 H :    0.032719
  31 H :    0.028872
  32 H :    0.016625
  33 H :    0.026066

  Mayer bond orders larger than 0.100000
B(  0-S ,  1-C ) :   1.1536 B(  0-S ,  4-C ) :   1.1241 B(  1-C ,  2-C ) :   1.6040
B(  1-C , 32-H ) :   0.9718 B(  2-C ,  3-C ) :   1.2576 B(  2-C ,  6-C ) :   1.0061
B(  3-C ,  4-C ) :   1.5827 B(  3-C ,  5-H ) :   0.9737 B(  4-C , 20-C ) :   1.0763
B(  6-C ,  7-H ) :   0.9518 B(  6-C ,  8-H ) :   0.9416 B(  6-C ,  9-C ) :   1.0633
B(  9-C , 10-H ) :   0.9563 B(  9-C , 11-H ) :   0.9578 B(  9-C , 12-C ) :   1.0845
B( 12-C , 13-H ) :   0.9726 B( 12-C , 14-H ) :   0.9731 B( 12-C , 15-H ) :   0.9723
B( 16-S , 17-C ) :   1.1327 B( 16-S , 20-C ) :   1.1093 B( 17-C , 18-C ) :   1.6647
B( 17-C , 33-H ) :   0.9640 B( 18-C , 19-C ) :   1.1703 B( 18-C , 21-H ) :   0.9935
B( 19-C , 20-C ) :   1.6154 B( 19-C , 22-C ) :   1.0525 B( 22-C , 23-H ) :   0.9222
B( 22-C , 24-H ) :   0.9387 B( 22-C , 25-C ) :   1.0392 B( 25-C , 26-H ) :   0.9577
B( 25-C , 27-H ) :   0.9558 B( 25-C , 28-C ) :   1.0985 B( 28-C , 29-H ) :   0.9704
B( 28-C , 30-H ) :   0.9724 B( 28-C , 31-H ) :   0.9559

Dispersion correction           -0.014603411
FINAL SINGLE POINT ENERGY     -1339.870680958734

DIPOLE MOMENT
-------------
                                X             Y             Z
Electronic contribution:      7.85948      -6.90786      -3.58215
Nuclear contribution   :     -7.99988       6.82396       3.67442
                        -----------------------------------------
Total Dipole Moment    :     -0.14040      -0.08391       0.09227
                        -----------------------------------------
Magnitude (a.u.)       :      0.18779
Magnitude (Debye)      :      0.47733

Rotational constants in cm-1:     0.025198     0.007570     0.006164
Rotational constants in MHz :   755.430145   226.953796   184.779091

                             ****ORCA TERMINATED NORMALLY****
TOTAL RUN TIME: 0 days 0 hours 0 minutes 20 seconds 374 msec
