                         Program Version 4.2.1 -  RELEASE  -
|  1> ! wB97X-D3 SP def2-SVP
|  2> %pal
|  3> nprocs 24
|  4> end
|  5>
|  6> * xyz 0 1
|  7> S 	 -60.1471 	 -0.402426 	 -29.1305
|  8> C 	 -61.4058 	 0.731666 	 -29.4807
|  9> C 	 -60.925 	 2.02989 	 -29.4554
| 10> C 	 -59.5095 	 2.07152 	 -29.5348
| 11> C 	 -58.9002 	 0.854482 	 -29.2058
| 12> H 	 -58.814 	 2.90122 	 -29.7428
| 13> C 	 -61.7873 	 3.28321 	 -29.6034
| 14> H 	 -61.2646 	 4.03956 	 -29.0219
| 15> H 	 -62.7376 	 3.08549 	 -29.0879
| 16> C 	 -62.0876 	 3.78999 	 -31.0817
| 17> H 	 -61.0931 	 3.9728 	 -31.6019
| 18> H 	 -62.6499 	 3.07261 	 -31.7021
| 19> C 	 -62.8662 	 5.09416 	 -30.9934
| 20> H 	 -62.7839 	 5.68057 	 -32.0038
| 21> H 	 -63.9641 	 4.82706 	 -30.9005
| 22> H 	 -62.4946 	 5.81489 	 -30.2749
| 23> S 	 -56.6969 	 -0.0266135 	 -27.6045
| 24> C 	 -55.1808 	 -0.240985 	 -28.4209
| 25> C 	 -55.1739 	 0.221827 	 -29.7055
| 26> C 	 -56.4717 	 0.77044 	 -30.0879
| 27> C 	 -57.4681 	 0.557163 	 -29.1863
| 28> H 	 -54.2802 	 0.176213 	 -30.2546
| 29> C 	 -56.6567 	 1.43042 	 -31.4958
| 30> H 	 -57.3724 	 2.15732 	 -31.4183
| 31> H 	 -57.0758 	 0.653474 	 -32.1577
| 32> C 	 -55.3692 	 2.16978 	 -32.0579
| 33> H 	 -54.7548 	 1.30601 	 -32.6299
| 34> H 	 -54.7342 	 2.67506 	 -31.3284
| 35> C 	 -55.6924 	 3.36898 	 -33.0389
| 36> H 	 -56.1697 	 4.2236 	 -32.5533
| 37> H 	 -56.3917 	 3.09491 	 -33.8085
| 38> H 	 -54.7906 	 3.60155 	 -33.6139
| 39> H 	 -62.4238 	 0.520382 	 -29.4974
| 40> H 	 -54.4064 	 -0.803178 	 -28.0307
| 41> *
| 42>
| 43>                          ****END OF INPUT****

CARTESIAN COORDINATES (ANGSTROEM)
---------------------------------
  S    -60.147100   -0.402426  -29.130500
  C    -61.405800    0.731666  -29.480700
  C    -60.925000    2.029890  -29.455400
  C    -59.509500    2.071520  -29.534800
  C    -58.900200    0.854482  -29.205800
  H    -58.814000    2.901220  -29.742800
  C    -61.787300    3.283210  -29.603400
  H    -61.264600    4.039560  -29.021900
  H    -62.737600    3.085490  -29.087900
  C    -62.087600    3.789990  -31.081700
  H    -61.093100    3.972800  -31.601900
  H    -62.649900    3.072610  -31.702100
  C    -62.866200    5.094160  -30.993400
  H    -62.783900    5.680570  -32.003800
  H    -63.964100    4.827060  -30.900500
  H    -62.494600    5.814890  -30.274900
  S    -56.696900   -0.026613  -27.604500
  C    -55.180800   -0.240985  -28.420900
  C    -55.173900    0.221827  -29.705500
  C    -56.471700    0.770440  -30.087900
  C    -57.468100    0.557163  -29.186300
  H    -54.280200    0.176213  -30.254600
  C    -56.656700    1.430420  -31.495800
  H    -57.372400    2.157320  -31.418300
  H    -57.075800    0.653474  -32.157700
  C    -55.369200    2.169780  -32.057900
  H    -54.754800    1.306010  -32.629900
  H    -54.734200    2.675060  -31.328400
  C    -55.692400    3.368980  -33.038900
  H    -56.169700    4.223600  -32.553300
  H    -56.391700    3.094910  -33.808500
  H    -54.790600    3.601550  -33.613900
  H    -62.423800    0.520382  -29.497400
  H    -54.406400   -0.803178  -28.030700

 Total Charge           Charge          ....    0
 Multiplicity           Mult            ....    1
 Number of Electrons    NEL             ....  134
 Basis Dimension        Dim             ....  322

ORBITAL ENERGIES
----------------

  NO   OCC          E(Eh)            E(eV)
   0   2.0000     -88.966461     -2420.9005
   1   2.0000     -88.958136     -2420.6740
   2   2.0000     -10.330584      -281.1095
   3   2.0000     -10.329007      -281.0666
   4   2.0000     -10.310888      -280.5735
   5   2.0000     -10.309198      -280.5275
   6   2.0000     -10.308407      -280.5060
   7   2.0000     -10.307240      -280.4743
   8   2.0000     -10.301735      -280.3245
   9   2.0000     -10.299362      -280.2599
  10   2.0000     -10.298948      -280.2486
  11   2.0000     -10.297948      -280.2214
  12   2.0000     -10.293611      -280.1034
  13   2.0000     -10.291022      -280.0329
  14   2.0000     -10.289260      -279.9850
  15   2.0000     -10.282740      -279.8076
  16   2.0000      -8.081070      -219.8971
  17   2.0000      -8.072223      -219.6564
  18   2.0000      -6.039610      -164.3461
  19   2.0000      -6.035465      -164.2333
  20   2.0000      -6.031921      -164.1369
  21   2.0000      -6.030916      -164.1096
  22   2.0000      -6.027020      -164.0036
  23   2.0000      -6.022635      -163.8842
  24   2.0000      -1.000797       -27.2331
  25   2.0000      -0.979224       -26.6460
  26   2.0000      -0.904779       -24.6203
  27   2.0000      -0.896209       -24.3871
  28   2.0000      -0.869523       -23.6609
  29   2.0000      -0.849817       -23.1247
  30   2.0000      -0.840292       -22.8655
  31   2.0000      -0.813782       -22.1441
  32   2.0000      -0.782066       -21.2811
  33   2.0000      -0.768631       -20.9155
  34   2.0000      -0.704254       -19.1637
  35   2.0000      -0.700006       -19.0481
  36   2.0000      -0.696213       -18.9449
  37   2.0000      -0.653862       -17.7925
  38   2.0000      -0.646536       -17.5931
  39   2.0000      -0.613902       -16.7051
  40   2.0000      -0.593514       -16.1503
  41   2.0000      -0.569853       -15.5065
  42   2.0000      -0.564475       -15.3602
  43   2.0000      -0.560152       -15.2425
  44   2.0000      -0.526541       -14.3279
  45   2.0000      -0.519152       -14.1268
  46   2.0000      -0.518630       -14.1126
  47   2.0000      -0.511032       -13.9059
  48   2.0000      -0.503166       -13.6918
  49   2.0000      -0.500158       -13.6100
  50   2.0000      -0.490579       -13.3493
  51   2.0000      -0.477684       -12.9985
  52   2.0000      -0.468860       -12.7583
  53   2.0000      -0.466583       -12.6964
  54   2.0000      -0.455330       -12.3902
  55   2.0000      -0.450562       -12.2604
  56   2.0000      -0.445796       -12.1307
  57   2.0000      -0.435540       -11.8516
  58   2.0000      -0.431781       -11.7493
  59   2.0000      -0.423188       -11.5155
  60   2.0000      -0.419532       -11.4161
  61   2.0000      -0.415521       -11.3069
  62   2.0000      -0.407450       -11.0873
  63   2.0000      -0.338801        -9.2192
  64   2.0000      -0.331255        -9.0139
  65   2.0000      -0.325452        -8.8560
  66   2.0000      -0.297416        -8.0931
  67   0.0000       0.032217         0.8767
  68   0.0000       0.063154         1.7185
  69   0.0000       0.106492         2.8978
  70   0.0000       0.117834         3.2064
  71   0.0000       0.125845         3.4244

MULLIKEN ATOMIC CHARGES
-----------------------
   0 S :    0.120152
   1 C :   -0.086853
   2 C :   -0.083363
   3 C :    0.012017
   4 C :   -0.170554
   5 H :    0.031474
   6 C :    0.046361
   7 H :    0.029013
   8 H :    0.025351
   9 C :   -0.074358
  10 H :    0.036208
  11 H :    0.038847
  12 C :   -0.089426
  13 H :    0.040970
  14 H :    0.049959
  15 H :    0.040513
  16 S :    0.077475
  17 C :   -0.047805
  18 C :   -0.021680
  19 C :   -0.052360
  20 C :   -0.159392
  21 H :    0.004932
  22 C :    0.141341
  23 H :   -0.023212
  24 H :    0.055161
  25 C :   -0.156648
  26 H :    0.054027
  27 H :    0.051603
  28 C :   -0.051854
  29 H :    0.042810
  30 H :    0.020353
  31 H :    0.039789
  32 H :    0.026803
  33 H :    0.032346
Sum of atomic charges:   -0.0000000

LOEWDIN ATOMIC CHARGES
----------------------
   0 S :    0.413848
   1 C :   -0.187942
   2 C :   -0.068235
   3 C :   -0.057328
   4 C :   -0.196814
   5 H :    0.036057
   6 C :   -0.032837
   7 H :    0.031055
   8 H :    0.030043
   9 C :   -0.043142
  10 H :    0.027550
  11 H :    0.027368
  12 C :   -0.080246
  13 H :    0.035288
  14 H :    0.033492
  15 H :    0.022805
  16 S :    0.354003
  17 C :   -0.164807
  18 C :   -0.068996
  19 C :   -0.043431
  20 C :   -0.176832
  21 H :    0.025291
  22 C :   -0.023401
  23 H :    0.009289
  24 H :    0.043540
  25 C :   -0.047558
  26 H :    0.036629
  27 H :    0.026992
  28 C :   -0.071401
  29 H :    0.026798
  30 H :    0.019793
  31 H :    0.031389
  32 H :    0.016381
  33 H :    0.015358

  Mayer bond orders larger than 0.100000
B(  0-S ,  1-C ) :   1.1569 B(  0-S ,  4-C ) :   1.1472 B(  1-C ,  2-C ) :   1.5915
B(  1-C ,  4-C ) :   0.1056 B(  1-C , 32-H ) :   0.9750 B(  2-C ,  3-C ) :   1.2366
B(  2-C ,  6-C ) :   1.0326 B(  3-C ,  4-C ) :   1.5826 B(  3-C ,  5-H ) :   0.9830
B(  4-C , 20-C ) :   1.0428 B(  6-C ,  7-H ) :   0.9418 B(  6-C ,  8-H ) :   0.9417
B(  6-C ,  9-C ) :   1.0508 B(  9-C , 10-H ) :   0.9587 B(  9-C , 11-H ) :   0.9588
B(  9-C , 12-C ) :   1.0734 B( 12-C , 13-H ) :   0.9731 B( 12-C , 14-H ) :   0.9759
B( 12-C , 15-H ) :   0.9748 B( 16-S , 17-C ) :   1.1461 B( 16-S , 20-C ) :   1.0909
B( 17-C , 18-C ) :   1.6564 B( 17-C , 33-H ) :   0.9668 B( 18-C , 19-C ) :   1.1789
B( 18-C , 21-H ) :   0.9989 B( 19-C , 20-C ) :   1.6774 B( 19-C , 22-C ) :   1.0230
B( 22-C , 23-H ) :   0.9367 B( 22-C , 24-H ) :   0.9295 B( 22-C , 25-C ) :   1.0466
B( 25-C , 26-H ) :   0.9535 B( 25-C , 27-H ) :   0.9649 B( 25-C , 28-C ) :   1.0752
B( 28-C , 29-H ) :   0.9743 B( 28-C , 30-H ) :   0.9756 B( 28-C , 31-H ) :   0.9743

Dispersion correction           -0.013587525
FINAL SINGLE POINT ENERGY     -1339.854318217162

DIPOLE MOMENT
-------------
                                X             Y             Z
Electronic contribution:      4.42051     -23.69678      20.90356
Nuclear contribution   :     -4.46903      24.23447     -21.51174
                        -----------------------------------------
Total Dipole Moment    :     -0.04852       0.53769      -0.60818
                        -----------------------------------------
Magnitude (a.u.)       :      0.81323
Magnitude (Debye)      :      2.06707

Rotational constants in cm-1:     0.016587     0.008355     0.006059
Rotational constants in MHz :   497.271610   250.490807   181.646004

                             ****ORCA TERMINATED NORMALLY****
TOTAL RUN TIME: 0 days 0 hours 0 minutes 20 seconds 832 msec
