                         Program Version 4.2.1 -  RELEASE  -
|  1> ! wB97X-D3 SP def2-SVP
|  2> %pal
|  3> nprocs 24
|  4> end
|  5>
|  6> * xyz 0 1
|  7> S 	 -102.145 	 -3.21819 	 -107.226
|  8> C 	 -102.187 	 -4.36932 	 -108.526
|  9> C 	 -102.377 	 -5.66479 	 -108.043
| 10> C 	 -102.573 	 -5.66096 	 -106.647
| 11> C 	 -102.262 	 -4.45852 	 -106.026
| 12> H 	 -102.859 	 -6.53722 	 -106.151
| 13> C 	 -102.641 	 -6.84916 	 -108.923
| 14> H 	 -102.23 	 -6.62461 	 -109.914
| 15> H 	 -103.713 	 -6.90398 	 -109.052
| 16> C 	 -102.041 	 -8.21858 	 -108.614
| 17> H 	 -102.336 	 -8.58249 	 -107.643
| 18> H 	 -102.542 	 -8.87455 	 -109.33
| 19> C 	 -100.5 	 -8.27421 	 -108.634
| 20> H 	 -100.103 	 -9.31339 	 -108.563
| 21> H 	 -100.235 	 -7.74994 	 -109.521
| 22> H 	 -99.9351 	 -7.75237 	 -107.87
| 23> S 	 -102.777 	 -2.67888 	 -104.096
| 24> C 	 -102.354 	 -3.01286 	 -102.464
| 25> C 	 -101.988 	 -4.33308 	 -102.262
| 26> C 	 -101.797 	 -5.00859 	 -103.502
| 27> C 	 -102.123 	 -4.24479 	 -104.617
| 28> H 	 -101.913 	 -4.70198 	 -101.263
| 29> C 	 -101.238 	 -6.42569 	 -103.601
| 30> H 	 -100.451 	 -6.46292 	 -102.856
| 31> H 	 -100.743 	 -6.52053 	 -104.584
| 32> C 	 -102.178 	 -7.56994 	 -103.375
| 33> H 	 -102.86 	 -7.64073 	 -104.216
| 34> H 	 -102.753 	 -7.46401 	 -102.539
| 35> C 	 -101.389 	 -8.91863 	 -103.222
| 36> H 	 -100.787 	 -8.80737 	 -102.272
| 37> H 	 -100.728 	 -9.11038 	 -104.053
| 38> H 	 -101.983 	 -9.80524 	 -103.078
| 39> H 	 -102 	 -4.01035 	 -109.504
| 40> H 	 -102.384 	 -2.3728 	 -101.582
| 41> *
| 42>
| 43>                          ****END OF INPUT****

CARTESIAN COORDINATES (ANGSTROEM)
---------------------------------
  S    -102.145000   -3.218190  -107.226000
  C    -102.187000   -4.369320  -108.526000
  C    -102.377000   -5.664790  -108.043000
  C    -102.573000   -5.660960  -106.647000
  C    -102.262000   -4.458520  -106.026000
  H    -102.859000   -6.537220  -106.151000
  C    -102.641000   -6.849160  -108.923000
  H    -102.230000   -6.624610  -109.914000
  H    -103.713000   -6.903980  -109.052000
  C    -102.041000   -8.218580  -108.614000
  H    -102.336000   -8.582490  -107.643000
  H    -102.542000   -8.874550  -109.330000
  C    -100.500000   -8.274210  -108.634000
  H    -100.103000   -9.313390  -108.563000
  H    -100.235000   -7.749940  -109.521000
  H    -99.935100   -7.752370  -107.870000
  S    -102.777000   -2.678880  -104.096000
  C    -102.354000   -3.012860  -102.464000
  C    -101.988000   -4.333080  -102.262000
  C    -101.797000   -5.008590  -103.502000
  C    -102.123000   -4.244790  -104.617000
  H    -101.913000   -4.701980  -101.263000
  C    -101.238000   -6.425690  -103.601000
  H    -100.451000   -6.462920  -102.856000
  H    -100.743000   -6.520530  -104.584000
  C    -102.178000   -7.569940  -103.375000
  H    -102.860000   -7.640730  -104.216000
  H    -102.753000   -7.464010  -102.539000
  C    -101.389000   -8.918630  -103.222000
  H    -100.787000   -8.807370  -102.272000
  H    -100.728000   -9.110380  -104.053000
  H    -101.983000   -9.805240  -103.078000
  H    -102.000000   -4.010350  -109.504000
  H    -102.384000   -2.372800  -101.582000

 Total Charge           Charge          ....    0
 Multiplicity           Mult            ....    1
 Number of Electrons    NEL             ....  134
 Basis Dimension        Dim             ....  322

ORBITAL ENERGIES
----------------

  NO   OCC          E(Eh)            E(eV)
   0   2.0000     -88.965295     -2420.8688
   1   2.0000     -88.963286     -2420.8141
   2   2.0000     -10.327655      -281.0298
   3   2.0000     -10.325428      -280.9692
   4   2.0000     -10.315461      -280.6980
   5   2.0000     -10.312020      -280.6043
   6   2.0000     -10.305361      -280.4231
   7   2.0000     -10.299438      -280.2619
   8   2.0000     -10.291806      -280.0543
   9   2.0000     -10.291076      -280.0344
  10   2.0000     -10.288938      -279.9762
  11   2.0000     -10.288494      -279.9642
  12   2.0000     -10.287175      -279.9283
  13   2.0000     -10.282170      -279.7921
  14   2.0000     -10.280836      -279.7558
  15   2.0000     -10.277758      -279.6720
  16   2.0000      -8.080736      -219.8880
  17   2.0000      -8.078485      -219.8268
  18   2.0000      -6.039184      -164.3345
  19   2.0000      -6.036970      -164.2743
  20   2.0000      -6.035057      -164.2222
  21   2.0000      -6.033006      -164.1664
  22   2.0000      -6.031637      -164.1292
  23   2.0000      -6.029167      -164.0620
  24   2.0000      -1.011367       -27.5207
  25   2.0000      -0.987019       -26.8581
  26   2.0000      -0.915921       -24.9235
  27   2.0000      -0.912549       -24.8317
  28   2.0000      -0.872836       -23.7511
  29   2.0000      -0.853940       -23.2369
  30   2.0000      -0.846216       -23.0267
  31   2.0000      -0.815381       -22.1876
  32   2.0000      -0.784821       -21.3561
  33   2.0000      -0.772615       -21.0239
  34   2.0000      -0.715279       -19.4637
  35   2.0000      -0.704675       -19.1752
  36   2.0000      -0.696216       -18.9450
  37   2.0000      -0.663483       -18.0543
  38   2.0000      -0.642587       -17.4857
  39   2.0000      -0.631244       -17.1770
  40   2.0000      -0.594110       -16.1665
  41   2.0000      -0.573323       -15.6009
  42   2.0000      -0.565457       -15.3869
  43   2.0000      -0.561852       -15.2888
  44   2.0000      -0.537554       -14.6276
  45   2.0000      -0.524001       -14.2588
  46   2.0000      -0.519765       -14.1435
  47   2.0000      -0.511475       -13.9179
  48   2.0000      -0.506629       -13.7861
  49   2.0000      -0.501567       -13.6483
  50   2.0000      -0.491351       -13.3703
  51   2.0000      -0.487506       -13.2657
  52   2.0000      -0.469583       -12.7780
  53   2.0000      -0.466536       -12.6951
  54   2.0000      -0.458870       -12.4865
  55   2.0000      -0.456002       -12.4084
  56   2.0000      -0.448260       -12.1978
  57   2.0000      -0.443088       -12.0570
  58   2.0000      -0.434535       -11.8243
  59   2.0000      -0.427212       -11.6250
  60   2.0000      -0.421421       -11.4674
  61   2.0000      -0.413787       -11.2597
  62   2.0000      -0.411422       -11.1954
  63   2.0000      -0.352448        -9.5906
  64   2.0000      -0.332215        -9.0400
  65   2.0000      -0.329908        -8.9772
  66   2.0000      -0.282154        -7.6778
  67   0.0000       0.019738         0.5371
  68   0.0000       0.080031         2.1778
  69   0.0000       0.099659         2.7118
  70   0.0000       0.119958         3.2642
  71   0.0000       0.126989         3.4555

MULLIKEN ATOMIC CHARGES
-----------------------
   0 S :    0.111627
   1 C :   -0.119857
   2 C :   -0.070276
   3 C :    0.038965
   4 C :   -0.117792
   5 H :   -0.034078
   6 C :    0.034491
   7 H :    0.013810
   8 H :    0.046735
   9 C :   -0.050204
  10 H :    0.014901
  11 H :    0.032266
  12 C :   -0.048958
  13 H :    0.043068
  14 H :    0.014859
  15 H :    0.035867
  16 S :    0.091165
  17 C :   -0.073123
  18 C :   -0.046323
  19 C :   -0.039276
  20 C :   -0.117904
  21 H :    0.011783
  22 C :    0.033532
  23 H :    0.013108
  24 H :    0.034193
  25 C :   -0.002725
  26 H :    0.020919
  27 H :    0.003284
  28 C :   -0.067488
  29 H :    0.033005
  30 H :    0.031448
  31 H :    0.033412
  32 H :    0.040235
  33 H :    0.055330
Sum of atomic charges:    0.0000000

LOEWDIN ATOMIC CHARGES
----------------------
   0 S :    0.419597
   1 C :   -0.192410
   2 C :   -0.063799
   3 C :   -0.056849
   4 C :   -0.202478
   5 H :    0.017645
   6 C :   -0.034826
   7 H :    0.030165
   8 H :    0.037579
   9 C :   -0.039748
  10 H :    0.014652
  11 H :    0.030350
  12 C :   -0.067242
  13 H :    0.033316
  14 H :    0.018972
  15 H :    0.027495
  16 S :    0.402200
  17 C :   -0.190435
  18 C :   -0.072277
  19 C :   -0.052364
  20 C :   -0.183960
  21 H :    0.029716
  22 C :   -0.031436
  23 H :    0.026885
  24 H :    0.034452
  25 C :   -0.029107
  26 H :    0.019167
  27 H :    0.011685
  28 C :   -0.062872
  29 H :    0.030286
  30 H :    0.021529
  31 H :    0.022554
  32 H :    0.018415
  33 H :    0.033144

  Mayer bond orders larger than 0.100000
B(  0-S ,  1-C ) :   1.1518 B(  0-S ,  4-C ) :   1.1655 B(  1-C ,  2-C ) :   1.5544
B(  1-C ,  4-C ) :   0.1031 B(  1-C , 32-H ) :   0.9788 B(  2-C ,  3-C ) :   1.2789
B(  2-C ,  6-C ) :   1.0277 B(  3-C ,  4-C ) :   1.5057 B(  3-C ,  5-H ) :   1.0058
B(  4-C , 20-C ) :   1.0794 B(  6-C ,  7-H ) :   0.9385 B(  6-C ,  8-H ) :   0.9379
B(  6-C ,  9-C ) :   1.0808 B(  9-C , 10-H ) :   0.9537 B(  9-C , 11-H ) :   0.9533
B(  9-C , 12-C ) :   1.0642 B( 12-C , 13-H ) :   0.9750 B( 12-C , 14-H ) :   0.9763
B( 12-C , 15-H ) :   0.9744 B( 16-S , 17-C ) :   1.1613 B( 16-S , 20-C ) :   1.1204
B( 17-C , 18-C ) :   1.6141 B( 17-C , 33-H ) :   0.9630 B( 18-C , 19-C ) :   1.2333
B( 18-C , 21-H ) :   0.9976 B( 19-C , 20-C ) :   1.5992 B( 19-C , 22-C ) :   1.0327
B( 22-C , 23-H ) :   0.9360 B( 22-C , 24-H ) :   0.9338 B( 22-C , 25-C ) :   1.0747
B( 25-C , 26-H ) :   0.9473 B( 25-C , 27-H ) :   0.9492 B( 25-C , 28-C ) :   1.0758
B( 28-C , 29-H ) :   0.9764 B( 28-C , 30-H ) :   0.9773 B( 28-C , 31-H ) :   0.9763

Dispersion correction           -0.014559262
FINAL SINGLE POINT ENERGY     -1339.876916674980

DIPOLE MOMENT
-------------
                                X             Y             Z
Electronic contribution:     -6.47135      31.91476       2.54117
Nuclear contribution   :      6.46851     -32.60933      -2.46596
                        -----------------------------------------
Total Dipole Moment    :     -0.00284      -0.69457       0.07520
                        -----------------------------------------
Magnitude (a.u.)       :      0.69863
Magnitude (Debye)      :      1.77578

Rotational constants in cm-1:     0.016633     0.010700     0.006845
Rotational constants in MHz :   498.659682   320.774347   205.197223

                             ****ORCA TERMINATED NORMALLY****
TOTAL RUN TIME: 0 days 0 hours 0 minutes 22 seconds 530 msec
