                         Program Version 4.2.1 -  RELEASE  -
|  1> ! wB97X-D3 SP def2-SVP
|  2> %pal
|  3> nprocs 24
|  4> end
|  5>
|  6> * xyz 0 1
|  7> S 	 -20.1678 	 -30.4457 	 -99.4264
|  8> C 	 -19.3789 	 -29.5281 	 -100.706
|  9> C 	 -19.8625 	 -29.9561 	 -101.92
| 10> C 	 -20.9852 	 -30.831 	 -101.853
| 11> C 	 -21.4002 	 -31.056 	 -100.573
| 12> H 	 -21.5416 	 -31.3925 	 -102.676
| 13> C 	 -19.1684 	 -29.714 	 -103.208
| 14> H 	 -18.8492 	 -30.6644 	 -103.539
| 15> H 	 -18.2496 	 -29.1077 	 -102.984
| 16> C 	 -19.8707 	 -28.8315 	 -104.27
| 17> H 	 -19.5185 	 -29.016 	 -105.236
| 18> H 	 -20.8501 	 -29.2142 	 -104.485
| 19> C 	 -19.9088 	 -27.3811 	 -103.922
| 20> H 	 -20.674 	 -26.9022 	 -104.551
| 21> H 	 -20.3068 	 -27.2418 	 -102.928
| 22> H 	 -18.9426 	 -26.9145 	 -103.934
| 23> S 	 -22.3443 	 -33.2347 	 -98.9702
| 24> C 	 -23.9488 	 -33.7823 	 -99.2707
| 25> C 	 -24.6488 	 -32.9292 	 -100.108
| 26> C 	 -23.8415 	 -31.8752 	 -100.653
| 27> C 	 -22.4969 	 -31.9418 	 -100.198
| 28> H 	 -25.6805 	 -33.1201 	 -100.305
| 29> C 	 -24.4415 	 -31.0443 	 -101.711
| 30> H 	 -24.4508 	 -31.7352 	 -102.479
| 31> H 	 -23.6697 	 -30.3874 	 -101.932
| 32> C 	 -25.811 	 -30.3409 	 -101.442
| 33> H 	 -26.5866 	 -31.0592 	 -101.543
| 34> H 	 -25.9197 	 -29.581 	 -102.252
| 35> C 	 -25.8017 	 -29.6446 	 -100.04
| 36> H 	 -24.8863 	 -29.1002 	 -100.089
| 37> H 	 -25.8367 	 -30.3104 	 -99.1622
| 38> H 	 -26.6798 	 -28.9868 	 -99.975
| 39> H 	 -18.5348 	 -28.9561 	 -100.483
| 40> H 	 -24.3781 	 -34.7038 	 -98.8872
| 41> *
| 42>
| 43>                          ****END OF INPUT****

CARTESIAN COORDINATES (ANGSTROEM)
---------------------------------
  S    -20.167800  -30.445700  -99.426400
  C    -19.378900  -29.528100  -100.706000
  C    -19.862500  -29.956100  -101.920000
  C    -20.985200  -30.831000  -101.853000
  C    -21.400200  -31.056000  -100.573000
  H    -21.541600  -31.392500  -102.676000
  C    -19.168400  -29.714000  -103.208000
  H    -18.849200  -30.664400  -103.539000
  H    -18.249600  -29.107700  -102.984000
  C    -19.870700  -28.831500  -104.270000
  H    -19.518500  -29.016000  -105.236000
  H    -20.850100  -29.214200  -104.485000
  C    -19.908800  -27.381100  -103.922000
  H    -20.674000  -26.902200  -104.551000
  H    -20.306800  -27.241800  -102.928000
  H    -18.942600  -26.914500  -103.934000
  S    -22.344300  -33.234700  -98.970200
  C    -23.948800  -33.782300  -99.270700
  C    -24.648800  -32.929200  -100.108000
  C    -23.841500  -31.875200  -100.653000
  C    -22.496900  -31.941800  -100.198000
  H    -25.680500  -33.120100  -100.305000
  C    -24.441500  -31.044300  -101.711000
  H    -24.450800  -31.735200  -102.479000
  H    -23.669700  -30.387400  -101.932000
  C    -25.811000  -30.340900  -101.442000
  H    -26.586600  -31.059200  -101.543000
  H    -25.919700  -29.581000  -102.252000
  C    -25.801700  -29.644600  -100.040000
  H    -24.886300  -29.100200  -100.089000
  H    -25.836700  -30.310400  -99.162200
  H    -26.679800  -28.986800  -99.975000
  H    -18.534800  -28.956100  -100.483000
  H    -24.378100  -34.703800  -98.887200

 Total Charge           Charge          ....    0
 Multiplicity           Mult            ....    1
 Number of Electrons    NEL             ....  134
 Basis Dimension        Dim             ....  322

ORBITAL ENERGIES
----------------

  NO   OCC          E(Eh)            E(eV)
   0   2.0000     -88.966744     -2420.9082
   1   2.0000     -88.960973     -2420.7511
   2   2.0000     -10.331281      -281.1284
   3   2.0000     -10.330407      -281.1047
   4   2.0000     -10.317534      -280.7544
   5   2.0000     -10.311858      -280.5999
   6   2.0000     -10.304214      -280.3919
   7   2.0000     -10.299979      -280.2767
   8   2.0000     -10.297284      -280.2033
   9   2.0000     -10.292890      -280.0838
  10   2.0000     -10.289500      -279.9915
  11   2.0000     -10.287574      -279.9391
  12   2.0000     -10.277020      -279.6519
  13   2.0000     -10.276609      -279.6408
  14   2.0000     -10.276015      -279.6246
  15   2.0000     -10.272053      -279.5168
  16   2.0000      -8.081218      -219.9011
  17   2.0000      -8.075446      -219.7441
  18   2.0000      -6.039825      -164.3520
  19   2.0000      -6.035732      -164.2406
  20   2.0000      -6.034047      -164.1948
  21   2.0000      -6.031938      -164.1374
  22   2.0000      -6.030215      -164.0905
  23   2.0000      -6.025900      -163.9731
  24   2.0000      -1.003426       -27.3046
  25   2.0000      -0.983528       -26.7632
  26   2.0000      -0.914219       -24.8772
  27   2.0000      -0.913502       -24.8577
  28   2.0000      -0.871657       -23.7190
  29   2.0000      -0.850820       -23.1520
  30   2.0000      -0.844609       -22.9830
  31   2.0000      -0.816245       -22.2112
  32   2.0000      -0.784983       -21.3605
  33   2.0000      -0.770733       -20.9727
  34   2.0000      -0.714809       -19.4509
  35   2.0000      -0.705273       -19.1915
  36   2.0000      -0.699236       -19.0272
  37   2.0000      -0.653643       -17.7865
  38   2.0000      -0.644697       -17.5431
  39   2.0000      -0.618079       -16.8188
  40   2.0000      -0.592893       -16.1334
  41   2.0000      -0.566315       -15.4102
  42   2.0000      -0.565648       -15.3921
  43   2.0000      -0.561609       -15.2821
  44   2.0000      -0.538759       -14.6604
  45   2.0000      -0.533752       -14.5241
  46   2.0000      -0.524639       -14.2762
  47   2.0000      -0.519807       -14.1447
  48   2.0000      -0.504513       -13.7285
  49   2.0000      -0.491740       -13.3809
  50   2.0000      -0.486686       -13.2434
  51   2.0000      -0.480979       -13.0881
  52   2.0000      -0.474633       -12.9154
  53   2.0000      -0.463515       -12.6129
  54   2.0000      -0.457174       -12.4403
  55   2.0000      -0.447066       -12.1653
  56   2.0000      -0.446919       -12.1613
  57   2.0000      -0.435747       -11.8573
  58   2.0000      -0.430467       -11.7136
  59   2.0000      -0.424706       -11.5569
  60   2.0000      -0.422425       -11.4948
  61   2.0000      -0.417975       -11.3737
  62   2.0000      -0.408906       -11.1269
  63   2.0000      -0.352418        -9.5898
  64   2.0000      -0.328312        -8.9338
  65   2.0000      -0.325610        -8.8603
  66   2.0000      -0.286461        -7.7950
  67   0.0000       0.027682         0.7533
  68   0.0000       0.067122         1.8265
  69   0.0000       0.106238         2.8909
  70   0.0000       0.121948         3.3184
  71   0.0000       0.129923         3.5354

MULLIKEN ATOMIC CHARGES
-----------------------
   0 S :    0.079387
   1 C :   -0.094346
   2 C :   -0.077400
   3 C :   -0.009948
   4 C :   -0.143205
   5 H :    0.051559
   6 C :    0.061060
   7 H :    0.028031
   8 H :    0.011192
   9 C :   -0.022766
  10 H :    0.001506
  11 H :   -0.002310
  12 C :   -0.029815
  13 H :    0.032877
  14 H :    0.024905
  15 H :    0.031931
  16 S :    0.112253
  17 C :   -0.090784
  18 C :   -0.031963
  19 C :   -0.084945
  20 C :   -0.157514
  21 H :    0.010532
  22 C :    0.115239
  23 H :    0.024021
  24 H :   -0.003679
  25 C :   -0.067359
  26 H :    0.022325
  27 H :    0.041557
  28 C :   -0.046793
  29 H :    0.035864
  30 H :    0.049356
  31 H :    0.037462
  32 H :    0.033044
  33 H :    0.058727
Sum of atomic charges:   -0.0000000

LOEWDIN ATOMIC CHARGES
----------------------
   0 S :    0.370504
   1 C :   -0.178504
   2 C :   -0.065048
   3 C :   -0.073869
   4 C :   -0.172826
   5 H :    0.048444
   6 C :   -0.027492
   7 H :    0.028777
   8 H :    0.032123
   9 C :   -0.044407
  10 H :    0.017478
  11 H :    0.018492
  12 C :   -0.061278
  13 H :    0.032836
  14 H :    0.025555
  15 H :    0.022649
  16 S :    0.398669
  17 C :   -0.187446
  18 C :   -0.073914
  19 C :   -0.041970
  20 C :   -0.200463
  21 H :    0.027069
  22 C :   -0.033168
  23 H :    0.029290
  24 H :    0.018811
  25 C :   -0.028470
  26 H :    0.012661
  27 H :    0.033392
  28 C :   -0.061340
  29 H :    0.026490
  30 H :    0.030728
  31 H :    0.027065
  32 H :    0.017197
  33 H :    0.031965

  Mayer bond orders larger than 0.100000
B(  0-S ,  1-C ) :   1.1191 B(  0-S ,  4-C ) :   1.1334 B(  1-C ,  2-C ) :   1.6069
B(  1-C , 32-H ) :   0.9820 B(  2-C ,  3-C ) :   1.2117 B(  2-C ,  6-C ) :   1.0343
B(  3-C ,  4-C ) :   1.5851 B(  3-C ,  5-H ) :   0.9812 B(  4-C , 20-C ) :   1.0740
B(  6-C ,  7-H ) :   0.9373 B(  6-C ,  8-H ) :   0.9427 B(  6-C ,  9-C ) :   1.0655
B(  9-C , 10-H ) :   0.9472 B(  9-C , 11-H ) :   0.9497 B(  9-C , 12-C ) :   1.0819
B( 12-C , 13-H ) :   0.9691 B( 12-C , 14-H ) :   0.9743 B( 12-C , 15-H ) :   0.9733
B( 16-S , 17-C ) :   1.1648 B( 16-S , 20-C ) :   1.1176 B( 17-C , 18-C ) :   1.6064
B( 17-C , 33-H ) :   0.9650 B( 18-C , 19-C ) :   1.2343 B( 18-C , 21-H ) :   0.9954
B( 19-C , 20-C ) :   1.5663 B( 19-C , 22-C ) :   1.0313 B( 22-C , 23-H ) :   0.9302
B( 22-C , 24-H ) :   0.9119 B( 22-C , 25-C ) :   1.0616 B( 25-C , 26-H ) :   0.9540
B( 25-C , 27-H ) :   0.9580 B( 25-C , 28-C ) :   1.0747 B( 28-C , 29-H ) :   0.9794
B( 28-C , 30-H ) :   0.9705 B( 28-C , 31-H ) :   0.9760

Dispersion correction           -0.014616742
FINAL SINGLE POINT ENERGY     -1339.859852171612

DIPOLE MOMENT
-------------
                                X             Y             Z
Electronic contribution:      8.37460     -16.58301      19.36783
Nuclear contribution   :     -8.68865      16.58324     -20.04769
                        -----------------------------------------
Total Dipole Moment    :     -0.31405       0.00023      -0.67987
                        -----------------------------------------
Magnitude (a.u.)       :      0.74889
Magnitude (Debye)      :      1.90354

Rotational constants in cm-1:     0.019250     0.008719     0.006896
Rotational constants in MHz :   577.108846   261.386861   206.727113

                             ****ORCA TERMINATED NORMALLY****
TOTAL RUN TIME: 0 days 0 hours 0 minutes 22 seconds 146 msec
