                         Program Version 4.2.1 -  RELEASE  -
|  1> ! wB97X-D3 SP def2-SVP
|  2> %pal
|  3> nprocs 24
|  4> end
|  5>
|  6> * xyz 0 1
|  7> S 	 46.6816 	 -20.9341 	 -115.744
|  8> C 	 47.3919 	 -22.3749 	 -116.481
|  9> C 	 47.6624 	 -23.4032 	 -115.544
| 10> C 	 47.322 	 -23.0106 	 -114.214
| 11> C 	 46.7171 	 -21.7885 	 -114.166
| 12> H 	 47.5073 	 -23.6127 	 -113.242
| 13> C 	 48.2324 	 -24.7841 	 -115.844
| 14> H 	 49.2357 	 -24.9254 	 -115.37
| 15> H 	 48.4009 	 -25.0025 	 -116.916
| 16> C 	 47.3767 	 -25.9744 	 -115.447
| 17> H 	 46.6965 	 -25.6495 	 -114.669
| 18> H 	 46.646 	 -26.233 	 -116.279
| 19> C 	 48.3194 	 -27.1493 	 -115.1
| 20> H 	 48.907 	 -27.4811 	 -115.926
| 21> H 	 48.9357 	 -26.8582 	 -114.151
| 22> H 	 47.7123 	 -27.9694 	 -114.776
| 23> S 	 46.548 	 -19.3809 	 -112.62
| 24> C 	 46.271 	 -19.6154 	 -110.895
| 25> C 	 45.8116 	 -20.9171 	 -110.595
| 26> C 	 45.7163 	 -21.7114 	 -111.803
| 27> C 	 46.3114 	 -21.1187 	 -112.906
| 28> H 	 45.6484 	 -21.1703 	 -109.582
| 29> C 	 45.4042 	 -23.1918 	 -111.58
| 30> H 	 45.2079 	 -23.669 	 -112.537
| 31> H 	 44.5135 	 -23.2415 	 -111.025
| 32> C 	 46.4266 	 -24.0064 	 -110.796
| 33> H 	 46.4068 	 -23.6884 	 -109.764
| 34> H 	 47.3624 	 -23.5002 	 -111.173
| 35> C 	 46.3479 	 -25.4994 	 -111.061
| 36> H 	 45.3101 	 -25.9199 	 -110.798
| 37> H 	 47.0583 	 -26.0521 	 -110.443
| 38> H 	 46.5789 	 -25.7812 	 -112.055
| 39> H 	 47.698 	 -22.3777 	 -117.531
| 40> H 	 46.1813 	 -18.8283 	 -110.164
| 41> *
| 42>
| 43>                          ****END OF INPUT****

CARTESIAN COORDINATES (ANGSTROEM)
---------------------------------
  S     46.681600  -20.934100  -115.744000
  C     47.391900  -22.374900  -116.481000
  C     47.662400  -23.403200  -115.544000
  C     47.322000  -23.010600  -114.214000
  C     46.717100  -21.788500  -114.166000
  H     47.507300  -23.612700  -113.242000
  C     48.232400  -24.784100  -115.844000
  H     49.235700  -24.925400  -115.370000
  H     48.400900  -25.002500  -116.916000
  C     47.376700  -25.974400  -115.447000
  H     46.696500  -25.649500  -114.669000
  H     46.646000  -26.233000  -116.279000
  C     48.319400  -27.149300  -115.100000
  H     48.907000  -27.481100  -115.926000
  H     48.935700  -26.858200  -114.151000
  H     47.712300  -27.969400  -114.776000
  S     46.548000  -19.380900  -112.620000
  C     46.271000  -19.615400  -110.895000
  C     45.811600  -20.917100  -110.595000
  C     45.716300  -21.711400  -111.803000
  C     46.311400  -21.118700  -112.906000
  H     45.648400  -21.170300  -109.582000
  C     45.404200  -23.191800  -111.580000
  H     45.207900  -23.669000  -112.537000
  H     44.513500  -23.241500  -111.025000
  C     46.426600  -24.006400  -110.796000
  H     46.406800  -23.688400  -109.764000
  H     47.362400  -23.500200  -111.173000
  C     46.347900  -25.499400  -111.061000
  H     45.310100  -25.919900  -110.798000
  H     47.058300  -26.052100  -110.443000
  H     46.578900  -25.781200  -112.055000
  H     47.698000  -22.377700  -117.531000
  H     46.181300  -18.828300  -110.164000

 Total Charge           Charge          ....    0
 Multiplicity           Mult            ....    1
 Number of Electrons    NEL             ....  134
 Basis Dimension        Dim             ....  322

ORBITAL ENERGIES
----------------

  NO   OCC          E(Eh)            E(eV)
   0   2.0000     -88.970417     -2421.0081
   1   2.0000     -88.968009     -2420.9426
   2   2.0000     -10.334786      -281.2238
   3   2.0000     -10.332194      -281.1533
   4   2.0000     -10.322309      -280.8843
   5   2.0000     -10.320609      -280.8381
   6   2.0000     -10.309360      -280.5319
   7   2.0000     -10.304711      -280.4054
   8   2.0000     -10.302936      -280.3571
   9   2.0000     -10.296929      -280.1937
  10   2.0000     -10.294055      -280.1155
  11   2.0000     -10.290830      -280.0277
  12   2.0000     -10.290122      -280.0085
  13   2.0000     -10.288184      -279.9557
  14   2.0000     -10.287157      -279.9278
  15   2.0000     -10.283111      -279.8177
  16   2.0000      -8.084199      -219.9822
  17   2.0000      -8.082046      -219.9237
  18   2.0000      -6.042779      -164.4324
  19   2.0000      -6.040682      -164.3753
  20   2.0000      -6.039042      -164.3307
  21   2.0000      -6.036779      -164.2691
  22   2.0000      -6.034752      -164.2139
  23   2.0000      -6.032587      -164.1550
  24   2.0000      -1.000359       -27.2211
  25   2.0000      -0.977838       -26.6083
  26   2.0000      -0.914432       -24.8829
  27   2.0000      -0.912026       -24.8175
  28   2.0000      -0.864230       -23.5169
  29   2.0000      -0.852767       -23.2050
  30   2.0000      -0.845909       -23.0184
  31   2.0000      -0.811616       -22.0852
  32   2.0000      -0.783044       -21.3077
  33   2.0000      -0.770140       -20.9566
  34   2.0000      -0.706651       -19.2290
  35   2.0000      -0.697318       -18.9750
  36   2.0000      -0.692697       -18.8492
  37   2.0000      -0.661963       -18.0129
  38   2.0000      -0.641720       -17.4621
  39   2.0000      -0.622676       -16.9439
  40   2.0000      -0.594947       -16.1893
  41   2.0000      -0.571110       -15.5407
  42   2.0000      -0.566330       -15.4106
  43   2.0000      -0.558631       -15.2011
  44   2.0000      -0.530363       -14.4319
  45   2.0000      -0.517678       -14.0867
  46   2.0000      -0.514418       -13.9980
  47   2.0000      -0.507245       -13.8028
  48   2.0000      -0.503620       -13.7042
  49   2.0000      -0.497649       -13.5417
  50   2.0000      -0.487483       -13.2651
  51   2.0000      -0.485373       -13.2077
  52   2.0000      -0.477368       -12.9899
  53   2.0000      -0.470084       -12.7916
  54   2.0000      -0.458085       -12.4651
  55   2.0000      -0.456899       -12.4329
  56   2.0000      -0.442300       -12.0356
  57   2.0000      -0.440370       -11.9831
  58   2.0000      -0.432905       -11.7799
  59   2.0000      -0.427282       -11.6269
  60   2.0000      -0.424786       -11.5590
  61   2.0000      -0.409873       -11.1532
  62   2.0000      -0.405772       -11.0416
  63   2.0000      -0.351451        -9.5635
  64   2.0000      -0.333235        -9.0678
  65   2.0000      -0.329888        -8.9767
  66   2.0000      -0.287165        -7.8142
  67   0.0000       0.022018         0.5991
  68   0.0000       0.070804         1.9267
  69   0.0000       0.094953         2.5838
  70   0.0000       0.113502         3.0886
  71   0.0000       0.122927         3.3450

MULLIKEN ATOMIC CHARGES
-----------------------
   0 S :    0.101283
   1 C :   -0.126510
   2 C :   -0.058160
   3 C :   -0.024074
   4 C :   -0.123989
   5 H :    0.040378
   6 C :    0.038516
   7 H :    0.043221
   8 H :    0.023947
   9 C :   -0.108604
  10 H :    0.027960
  11 H :    0.038150
  12 C :   -0.058420
  13 H :    0.042756
  14 H :    0.048715
  15 H :    0.027585
  16 S :    0.105485
  17 C :   -0.089098
  18 C :   -0.043546
  19 C :   -0.045938
  20 C :   -0.129331
  21 H :    0.016566
  22 C :    0.060013
  23 H :    0.023777
  24 H :    0.011409
  25 C :   -0.092361
  26 H :    0.023101
  27 H :    0.036657
  28 C :   -0.021251
  29 H :    0.042500
  30 H :    0.034485
  31 H :    0.019717
  32 H :    0.057948
  33 H :    0.057111
Sum of atomic charges:   -0.0000000

LOEWDIN ATOMIC CHARGES
----------------------
   0 S :    0.376340
   1 C :   -0.190230
   2 C :   -0.061578
   3 C :   -0.068269
   4 C :   -0.171669
   5 H :    0.052413
   6 C :   -0.042631
   7 H :    0.035464
   8 H :    0.033135
   9 C :   -0.048658
  10 H :    0.015955
  11 H :    0.030736
  12 C :   -0.064281
  13 H :    0.024022
  14 H :    0.037935
  15 H :    0.022159
  16 S :    0.384832
  17 C :   -0.178197
  18 C :   -0.062632
  19 C :   -0.055246
  20 C :   -0.187251
  21 H :    0.026154
  22 C :   -0.034711
  23 H :    0.025299
  24 H :    0.022307
  25 C :   -0.047786
  26 H :    0.021815
  27 H :    0.026248
  28 C :   -0.063208
  29 H :    0.037076
  30 H :    0.029468
  31 H :    0.017868
  32 H :    0.030198
  33 H :    0.026922

  Mayer bond orders larger than 0.100000
B(  0-S ,  1-C ) :   1.1309 B(  0-S ,  4-C ) :   1.1283 B(  1-C ,  2-C ) :   1.6197
B(  1-C , 32-H ) :   0.9647 B(  2-C ,  3-C ) :   1.2202 B(  2-C ,  6-C ) :   1.0313
B(  3-C ,  4-C ) :   1.6036 B(  3-C ,  5-H ) :   0.9656 B(  4-C , 20-C ) :   1.0581
B(  6-C ,  7-H ) :   0.9486 B(  6-C ,  8-H ) :   0.9435 B(  6-C ,  9-C ) :   1.0346
B(  9-C , 10-H ) :   0.9651 B(  9-C , 11-H ) :   0.9517 B(  9-C , 12-C ) :   1.0737
B( 12-C , 13-H ) :   0.9744 B( 12-C , 14-H ) :   0.9735 B( 12-C , 15-H ) :   0.9724
B( 16-S , 17-C ) :   1.1476 B( 16-S , 20-C ) :   1.1183 B( 17-C , 18-C ) :   1.6268
B( 17-C , 33-H ) :   0.9655 B( 18-C , 19-C ) :   1.2002 B( 18-C , 21-H ) :   0.9985
B( 19-C , 20-C ) :   1.5951 B( 19-C , 22-C ) :   1.0745 B( 22-C , 23-H ) :   0.9386
B( 22-C , 24-H ) :   0.9196 B( 22-C , 25-C ) :   1.0439 B( 25-C , 26-H ) :   0.9453
B( 25-C , 27-H ) :   0.9555 B( 25-C , 28-C ) :   1.0784 B( 28-C , 29-H ) :   0.9705
B( 28-C , 30-H ) :   0.9695 B( 28-C , 31-H ) :   0.9726

Dispersion correction           -0.015298785
FINAL SINGLE POINT ENERGY     -1339.863855548149

DIPOLE MOMENT
-------------
                                X             Y             Z
Electronic contribution:     -3.75788      33.94321      -6.34084
Nuclear contribution   :      3.85892     -34.69659       6.64945
                        -----------------------------------------
Total Dipole Moment    :      0.10103      -0.75339       0.30862
                        -----------------------------------------
Magnitude (a.u.)       :      0.82039
Magnitude (Debye)      :      2.08527

Rotational constants in cm-1:     0.017689     0.010172     0.006741
Rotational constants in MHz :   530.305606   304.936502   202.099438

                             ****ORCA TERMINATED NORMALLY****
TOTAL RUN TIME: 0 days 0 hours 0 minutes 21 seconds 636 msec
