                         Program Version 4.2.1 -  RELEASE  -
|  1> ! wB97X-D3 SP def2-SVP
|  2> %pal
|  3> nprocs 24
|  4> end
|  5>
|  6> * xyz 0 1
|  7> S 	 -124.44 	 51.8342 	 -37.6676
|  8> C 	 -123.435 	 50.9934 	 -38.7938
|  9> C 	 -122.766 	 49.9624 	 -38.1747
| 10> C 	 -123.007 	 49.9667 	 -36.775
| 11> C 	 -123.835 	 50.9318 	 -36.2849
| 12> H 	 -122.667 	 49.1706 	 -36.0587
| 13> C 	 -122.055 	 48.8435 	 -38.9094
| 14> H 	 -121.471 	 49.1844 	 -39.7887
| 15> H 	 -122.852 	 48.2241 	 -39.2826
| 16> C 	 -121.143 	 47.9427 	 -38.0947
| 17> H 	 -121.756 	 47.4648 	 -37.3491
| 18> H 	 -120.809 	 47.1619 	 -38.6522
| 19> C 	 -119.9 	 48.5874 	 -37.4414
| 20> H 	 -120.242 	 49.3884 	 -36.803
| 21> H 	 -119.457 	 47.9605 	 -36.715
| 22> H 	 -119.151 	 48.9046 	 -38.1373
| 23> S 	 -125.779 	 52.0147 	 -34.7806
| 24> C 	 -125.739 	 51.7962 	 -33.0663
| 25> C 	 -124.527 	 51.2834 	 -32.6194
| 26> C 	 -123.693 	 50.8079 	 -33.6849
| 27> C 	 -124.232 	 51.1991 	 -34.9002
| 28> H 	 -124.394 	 51.167 	 -31.524
| 29> C 	 -122.27 	 50.2816 	 -33.3925
| 30> H 	 -121.651 	 50.9401 	 -32.7595
| 31> H 	 -121.757 	 50.4441 	 -34.3344
| 32> C 	 -122.23 	 48.7756 	 -32.9892
| 33> H 	 -122.765 	 48.6373 	 -32.0015
| 34> H 	 -121.148 	 48.5377 	 -32.9021
| 35> C 	 -122.73 	 47.6747 	 -33.9748
| 36> H 	 -122.774 	 46.6948 	 -33.365
| 37> H 	 -121.993 	 47.634 	 -34.7863
| 38> H 	 -123.781 	 47.9198 	 -34.3477
| 39> H 	 -123.479 	 51.2143 	 -39.8582
| 40> H 	 -126.54 	 51.9939 	 -32.4271
| 41> *
| 42>
| 43>                          ****END OF INPUT****

CARTESIAN COORDINATES (ANGSTROEM)
---------------------------------
  S    -124.440000   51.834200  -37.667600
  C    -123.435000   50.993400  -38.793800
  C    -122.766000   49.962400  -38.174700
  C    -123.007000   49.966700  -36.775000
  C    -123.835000   50.931800  -36.284900
  H    -122.667000   49.170600  -36.058700
  C    -122.055000   48.843500  -38.909400
  H    -121.471000   49.184400  -39.788700
  H    -122.852000   48.224100  -39.282600
  C    -121.143000   47.942700  -38.094700
  H    -121.756000   47.464800  -37.349100
  H    -120.809000   47.161900  -38.652200
  C    -119.900000   48.587400  -37.441400
  H    -120.242000   49.388400  -36.803000
  H    -119.457000   47.960500  -36.715000
  H    -119.151000   48.904600  -38.137300
  S    -125.779000   52.014700  -34.780600
  C    -125.739000   51.796200  -33.066300
  C    -124.527000   51.283400  -32.619400
  C    -123.693000   50.807900  -33.684900
  C    -124.232000   51.199100  -34.900200
  H    -124.394000   51.167000  -31.524000
  C    -122.270000   50.281600  -33.392500
  H    -121.651000   50.940100  -32.759500
  H    -121.757000   50.444100  -34.334400
  C    -122.230000   48.775600  -32.989200
  H    -122.765000   48.637300  -32.001500
  H    -121.148000   48.537700  -32.902100
  C    -122.730000   47.674700  -33.974800
  H    -122.774000   46.694800  -33.365000
  H    -121.993000   47.634000  -34.786300
  H    -123.781000   47.919800  -34.347700
  H    -123.479000   51.214300  -39.858200
  H    -126.540000   51.993900  -32.427100

 Total Charge           Charge          ....    0
 Multiplicity           Mult            ....    1
 Number of Electrons    NEL             ....  134
 Basis Dimension        Dim             ....  322

ORBITAL ENERGIES
----------------

  NO   OCC          E(Eh)            E(eV)
   0   2.0000     -88.968005     -2420.9425
   1   2.0000     -88.961689     -2420.7706
   2   2.0000     -10.331539      -281.1355
   3   2.0000     -10.327454      -281.0243
   4   2.0000     -10.312239      -280.6103
   5   2.0000     -10.310566      -280.5648
   6   2.0000     -10.308196      -280.5003
   7   2.0000     -10.299531      -280.2645
   8   2.0000     -10.299339      -280.2593
   9   2.0000     -10.298455      -280.2352
  10   2.0000     -10.296988      -280.1953
  11   2.0000     -10.296255      -280.1754
  12   2.0000     -10.291490      -280.0457
  13   2.0000     -10.289944      -280.0036
  14   2.0000     -10.276552      -279.6392
  15   2.0000     -10.270055      -279.4624
  16   2.0000      -8.083347      -219.9591
  17   2.0000      -8.076877      -219.7830
  18   2.0000      -6.041766      -164.4048
  19   2.0000      -6.037918      -164.3001
  20   2.0000      -6.035522      -164.2349
  21   2.0000      -6.034018      -164.1940
  22   2.0000      -6.031264      -164.1190
  23   2.0000      -6.027547      -164.0179
  24   2.0000      -1.010599       -27.4998
  25   2.0000      -0.987530       -26.8721
  26   2.0000      -0.913996       -24.8711
  27   2.0000      -0.903888       -24.5960
  28   2.0000      -0.871037       -23.7021
  29   2.0000      -0.851535       -23.1714
  30   2.0000      -0.841409       -22.8959
  31   2.0000      -0.817130       -22.2352
  32   2.0000      -0.786858       -21.4115
  33   2.0000      -0.778056       -21.1720
  34   2.0000      -0.711924       -19.3724
  35   2.0000      -0.695541       -18.9266
  36   2.0000      -0.690379       -18.7862
  37   2.0000      -0.658426       -17.9167
  38   2.0000      -0.638089       -17.3633
  39   2.0000      -0.625315       -17.0157
  40   2.0000      -0.599169       -16.3042
  41   2.0000      -0.566430       -15.4133
  42   2.0000      -0.555044       -15.1035
  43   2.0000      -0.548726       -14.9316
  44   2.0000      -0.544496       -14.8165
  45   2.0000      -0.536638       -14.6027
  46   2.0000      -0.521817       -14.1994
  47   2.0000      -0.511192       -13.9102
  48   2.0000      -0.502619       -13.6770
  49   2.0000      -0.501571       -13.6484
  50   2.0000      -0.488706       -13.2984
  51   2.0000      -0.482884       -13.1399
  52   2.0000      -0.471309       -12.8250
  53   2.0000      -0.464815       -12.6483
  54   2.0000      -0.460813       -12.5394
  55   2.0000      -0.449213       -12.2237
  56   2.0000      -0.445705       -12.1282
  57   2.0000      -0.441160       -12.0046
  58   2.0000      -0.433129       -11.7861
  59   2.0000      -0.422024       -11.4839
  60   2.0000      -0.417537       -11.3618
  61   2.0000      -0.416144       -11.3239
  62   2.0000      -0.407275       -11.0825
  63   2.0000      -0.360409        -9.8072
  64   2.0000      -0.337679        -9.1887
  65   2.0000      -0.326287        -8.8787
  66   2.0000      -0.281417        -7.6577
  67   0.0000       0.022870         0.6223
  68   0.0000       0.078324         2.1313
  69   0.0000       0.103038         2.8038
  70   0.0000       0.115196         3.1346
  71   0.0000       0.125288         3.4092

MULLIKEN ATOMIC CHARGES
-----------------------
   0 S :    0.088084
   1 C :   -0.134409
   2 C :   -0.062161
   3 C :   -0.028092
   4 C :   -0.092079
   5 H :   -0.029369
   6 C :    0.066754
   7 H :    0.030900
   8 H :    0.041713
   9 C :   -0.044891
  10 H :    0.012239
  11 H :    0.000112
  12 C :   -0.022356
  13 H :    0.020646
  14 H :    0.015976
  15 H :    0.034671
  16 S :    0.105641
  17 C :   -0.073658
  18 C :   -0.037812
  19 C :   -0.072455
  20 C :   -0.112103
  21 H :    0.032457
  22 C :    0.055269
  23 H :    0.044741
  24 H :    0.014352
  25 C :   -0.107008
  26 H :    0.044474
  27 H :    0.034946
  28 C :   -0.091331
  29 H :    0.057095
  30 H :    0.055161
  31 H :    0.064195
  32 H :    0.053207
  33 H :    0.035091
Sum of atomic charges:    0.0000000

LOEWDIN ATOMIC CHARGES
----------------------
   0 S :    0.397837
   1 C :   -0.199775
   2 C :   -0.066203
   3 C :   -0.085143
   4 C :   -0.189657
   5 H :    0.034935
   6 C :   -0.028396
   7 H :    0.033477
   8 H :    0.037851
   9 C :   -0.036650
  10 H :    0.020232
  11 H :    0.013261
  12 C :   -0.060424
  13 H :    0.023465
  14 H :    0.021705
  15 H :    0.024286
  16 S :    0.413224
  17 C :   -0.182831
  18 C :   -0.069520
  19 C :   -0.061573
  20 C :   -0.183155
  21 H :    0.037528
  22 C :   -0.036750
  23 H :    0.039834
  24 H :    0.028579
  25 C :   -0.048008
  26 H :    0.027264
  27 H :    0.027826
  28 C :   -0.078609
  29 H :    0.042174
  30 H :    0.021281
  31 H :    0.034464
  32 H :    0.030759
  33 H :    0.016710

  Mayer bond orders larger than 0.100000
B(  0-S ,  1-C ) :   1.1451 B(  0-S ,  4-C ) :   1.1391 B(  1-C ,  2-C ) :   1.5958
B(  1-C , 32-H ) :   0.9740 B(  2-C ,  3-C ) :   1.2612 B(  2-C ,  6-C ) :   1.0062
B(  3-C ,  4-C ) :   1.5861 B(  3-C ,  5-H ) :   0.9655 B(  4-C , 20-C ) :   1.0540
B(  6-C ,  7-H ) :   0.9421 B(  6-C ,  8-H ) :   0.9322 B(  6-C ,  9-C ) :   1.1004
B(  9-C , 10-H ) :   0.9401 B(  9-C , 11-H ) :   0.9452 B(  9-C , 12-C ) :   1.0844
B( 12-C , 13-H ) :   0.9728 B( 12-C , 14-H ) :   0.9699 B( 12-C , 15-H ) :   0.9745
B( 16-S , 17-C ) :   1.1545 B( 16-S , 20-C ) :   1.1398 B( 17-C , 18-C ) :   1.6222
B( 17-C , 33-H ) :   0.9749 B( 18-C , 19-C ) :   1.2206 B( 18-C , 21-H ) :   0.9830
B( 19-C , 20-C ) :   1.6033 B( 19-C , 22-C ) :   1.0180 B( 22-C , 23-H ) :   0.9480
B( 22-C , 24-H ) :   0.9350 B( 22-C , 25-C ) :   1.0551 B( 25-C , 26-H ) :   0.9626
B( 25-C , 27-H ) :   0.9553 B( 25-C , 28-C ) :   1.0804 B( 28-C , 29-H ) :   0.9661
B( 28-C , 30-H ) :   0.9548 B( 28-C , 31-H ) :   0.9653

Dispersion correction           -0.016012510
FINAL SINGLE POINT ENERGY     -1339.875000869870

DIPOLE MOMENT
-------------
                                X             Y             Z
Electronic contribution:    -21.81644      22.15832      -2.82982
Nuclear contribution   :     22.18773     -22.74319       3.03698
                        -----------------------------------------
Total Dipole Moment    :      0.37129      -0.58487       0.20716
                        -----------------------------------------
Magnitude (a.u.)       :      0.72308
Magnitude (Debye)      :      1.83793

Rotational constants in cm-1:     0.018225     0.011074     0.007367
Rotational constants in MHz :   546.380188   331.985863   220.847763

                             ****ORCA TERMINATED NORMALLY****
TOTAL RUN TIME: 0 days 0 hours 0 minutes 22 seconds 279 msec
