                         Program Version 4.2.1 -  RELEASE  -
|  1> ! wB97X-D3 SP def2-SVP
|  2> %pal
|  3> nprocs 24
|  4> end
|  5>
|  6> * xyz 0 1
|  7> S 	 -63.6312 	 13.7585 	 -121.298
|  8> C 	 -62.7523 	 12.2537 	 -120.857
|  9> C 	 -63.5909 	 11.37 	 -120.207
| 10> C 	 -64.7805 	 12.0351 	 -119.734
| 11> C 	 -64.8577 	 13.3236 	 -120.073
| 12> H 	 -65.6003 	 11.5542 	 -119.125
| 13> C 	 -63.1784 	 9.93715 	 -119.694
| 14> H 	 -62.8055 	 9.50003 	 -120.601
| 15> H 	 -64.1042 	 9.40356 	 -119.394
| 16> C 	 -62.0357 	 9.90924 	 -118.593
| 17> H 	 -61.0893 	 10.1889 	 -119.089
| 18> H 	 -62.3229 	 10.7573 	 -117.92
| 19> C 	 -62.0784 	 8.54286 	 -117.843
| 20> H 	 -62.1152 	 7.69723 	 -118.517
| 21> H 	 -61.1984 	 8.42619 	 -117.226
| 22> H 	 -62.9743 	 8.36853 	 -117.24
| 23> S 	 -67.0995 	 14.417 	 -121.109
| 24> C 	 -68.1368 	 15.2475 	 -120.03
| 25> C 	 -67.659 	 15.2959 	 -118.706
| 26> C 	 -66.4677 	 14.6008 	 -118.52
| 27> C 	 -65.9786 	 14.1006 	 -119.742
| 28> H 	 -68.1991 	 15.8345 	 -117.93
| 29> C 	 -65.7105 	 14.5457 	 -117.191
| 30> H 	 -64.9402 	 15.3115 	 -117.203
| 31> H 	 -65.1248 	 13.5701 	 -117.104
| 32> C 	 -66.508 	 14.6027 	 -115.806
| 33> H 	 -67.2778 	 13.9072 	 -115.913
| 34> H 	 -67.0638 	 15.5766 	 -115.649
| 35> C 	 -65.6134 	 14.3284 	 -114.621
| 36> H 	 -64.7382 	 14.9733 	 -114.412
| 37> H 	 -65.0967 	 13.3991 	 -114.84
| 38> H 	 -66.2387 	 14.0475 	 -113.702
| 39> H 	 -61.7577 	 11.959 	 -121.164
| 40> H 	 -69.0676 	 15.7545 	 -120.255
| 41> *
| 42>
| 43>                          ****END OF INPUT****

CARTESIAN COORDINATES (ANGSTROEM)
---------------------------------
  S    -63.631200   13.758500  -121.298000
  C    -62.752300   12.253700  -120.857000
  C    -63.590900   11.370000  -120.207000
  C    -64.780500   12.035100  -119.734000
  C    -64.857700   13.323600  -120.073000
  H    -65.600300   11.554200  -119.125000
  C    -63.178400    9.937150  -119.694000
  H    -62.805500    9.500030  -120.601000
  H    -64.104200    9.403560  -119.394000
  C    -62.035700    9.909240  -118.593000
  H    -61.089300   10.188900  -119.089000
  H    -62.322900   10.757300  -117.920000
  C    -62.078400    8.542860  -117.843000
  H    -62.115200    7.697230  -118.517000
  H    -61.198400    8.426190  -117.226000
  H    -62.974300    8.368530  -117.240000
  S    -67.099500   14.417000  -121.109000
  C    -68.136800   15.247500  -120.030000
  C    -67.659000   15.295900  -118.706000
  C    -66.467700   14.600800  -118.520000
  C    -65.978600   14.100600  -119.742000
  H    -68.199100   15.834500  -117.930000
  C    -65.710500   14.545700  -117.191000
  H    -64.940200   15.311500  -117.203000
  H    -65.124800   13.570100  -117.104000
  C    -66.508000   14.602700  -115.806000
  H    -67.277800   13.907200  -115.913000
  H    -67.063800   15.576600  -115.649000
  C    -65.613400   14.328400  -114.621000
  H    -64.738200   14.973300  -114.412000
  H    -65.096700   13.399100  -114.840000
  H    -66.238700   14.047500  -113.702000
  H    -61.757700   11.959000  -121.164000
  H    -69.067600   15.754500  -120.255000

 Total Charge           Charge          ....    0
 Multiplicity           Mult            ....    1
 Number of Electrons    NEL             ....  134
 Basis Dimension        Dim             ....  322

ORBITAL ENERGIES
----------------

  NO   OCC          E(Eh)            E(eV)
   0   2.0000     -88.968227     -2420.9485
   1   2.0000     -88.964442     -2420.8455
   2   2.0000     -10.321543      -280.8635
   3   2.0000     -10.318875      -280.7909
   4   2.0000     -10.316952      -280.7385
   5   2.0000     -10.314305      -280.6665
   6   2.0000     -10.304873      -280.4099
   7   2.0000     -10.302850      -280.3548
   8   2.0000     -10.300555      -280.2923
   9   2.0000     -10.300076      -280.2793
  10   2.0000     -10.297898      -280.2200
  11   2.0000     -10.292593      -280.0757
  12   2.0000     -10.292093      -280.0621
  13   2.0000     -10.290080      -280.0073
  14   2.0000     -10.286076      -279.8984
  15   2.0000     -10.283117      -279.8178
  16   2.0000      -8.082786      -219.9438
  17   2.0000      -8.078140      -219.8174
  18   2.0000      -6.041071      -164.3859
  19   2.0000      -6.037356      -164.2848
  20   2.0000      -6.036869      -164.2715
  21   2.0000      -6.033762      -164.1870
  22   2.0000      -6.033209      -164.1720
  23   2.0000      -6.028298      -164.0383
  24   2.0000      -1.005522       -27.3616
  25   2.0000      -0.978421       -26.6242
  26   2.0000      -0.903714       -24.5913
  27   2.0000      -0.900963       -24.5165
  28   2.0000      -0.869917       -23.6716
  29   2.0000      -0.856469       -23.3057
  30   2.0000      -0.841316       -22.8934
  31   2.0000      -0.807545       -21.9744
  32   2.0000      -0.779918       -21.2226
  33   2.0000      -0.766287       -20.8517
  34   2.0000      -0.707825       -19.2609
  35   2.0000      -0.705709       -19.2033
  36   2.0000      -0.698893       -19.0178
  37   2.0000      -0.653504       -17.7827
  38   2.0000      -0.636334       -17.3155
  39   2.0000      -0.611196       -16.6315
  40   2.0000      -0.594240       -16.1701
  41   2.0000      -0.562222       -15.2988
  42   2.0000      -0.560667       -15.2565
  43   2.0000      -0.552685       -15.0393
  44   2.0000      -0.522686       -14.2230
  45   2.0000      -0.519495       -14.1362
  46   2.0000      -0.516500       -14.0547
  47   2.0000      -0.511264       -13.9122
  48   2.0000      -0.501372       -13.6430
  49   2.0000      -0.496255       -13.5038
  50   2.0000      -0.485449       -13.2097
  51   2.0000      -0.483828       -13.1656
  52   2.0000      -0.467545       -12.7225
  53   2.0000      -0.463899       -12.6233
  54   2.0000      -0.457598       -12.4519
  55   2.0000      -0.452885       -12.3236
  56   2.0000      -0.447251       -12.1703
  57   2.0000      -0.440960       -11.9991
  58   2.0000      -0.431341       -11.7374
  59   2.0000      -0.426380       -11.6024
  60   2.0000      -0.421116       -11.4592
  61   2.0000      -0.414531       -11.2800
  62   2.0000      -0.413360       -11.2481
  63   2.0000      -0.338900        -9.2219
  64   2.0000      -0.335291        -9.1237
  65   2.0000      -0.324417        -8.8278
  66   2.0000      -0.289539        -7.8788
  67   0.0000       0.032816         0.8930
  68   0.0000       0.051790         1.4093
  69   0.0000       0.104671         2.8482
  70   0.0000       0.121213         3.2984
  71   0.0000       0.131074         3.5667

MULLIKEN ATOMIC CHARGES
-----------------------
   0 S :    0.098306
   1 C :   -0.119967
   2 C :   -0.083010
   3 C :    0.010861
   4 C :   -0.151427
   5 H :    0.040522
   6 C :    0.032169
   7 H :    0.029243
   8 H :    0.031880
   9 C :   -0.072770
  10 H :    0.038492
  11 H :    0.045700
  12 C :   -0.042708
  13 H :    0.025241
  14 H :    0.037571
  15 H :    0.035015
  16 S :    0.124952
  17 C :   -0.078382
  18 C :   -0.066414
  19 C :    0.019923
  20 C :   -0.197337
  21 H :    0.017266
  22 C :    0.019016
  23 H :    0.045460
  24 H :    0.030017
  25 C :   -0.063819
  26 H :    0.017950
  27 H :    0.037175
  28 C :   -0.058893
  29 H :    0.045960
  30 H :    0.010401
  31 H :    0.049441
  32 H :    0.041241
  33 H :    0.050925
Sum of atomic charges:    0.0000000

LOEWDIN ATOMIC CHARGES
----------------------
   0 S :    0.358240
   1 C :   -0.177283
   2 C :   -0.062123
   3 C :   -0.060834
   4 C :   -0.193612
   5 H :    0.043667
   6 C :   -0.032177
   7 H :    0.025986
   8 H :    0.030248
   9 C :   -0.037561
  10 H :    0.026739
  11 H :    0.030398
  12 C :   -0.067684
  13 H :    0.023854
  14 H :    0.026123
  15 H :    0.029219
  16 S :    0.415007
  17 C :   -0.200169
  18 C :   -0.076894
  19 C :   -0.053435
  20 C :   -0.186463
  21 H :    0.031620
  22 C :   -0.033355
  23 H :    0.033092
  24 H :    0.036080
  25 C :   -0.041761
  26 H :    0.016622
  27 H :    0.025876
  28 C :   -0.077693
  29 H :    0.032261
  30 H :    0.021913
  31 H :    0.039942
  32 H :    0.025534
  33 H :    0.028623

  Mayer bond orders larger than 0.100000
B(  0-S ,  1-C ) :   1.1090 B(  0-S ,  4-C ) :   1.0960 B(  1-C ,  2-C ) :   1.6536
B(  1-C , 32-H ) :   0.9721 B(  2-C ,  3-C ) :   1.1871 B(  2-C ,  6-C ) :   1.0172
B(  3-C ,  4-C ) :   1.6376 B(  3-C ,  5-H ) :   0.9837 B(  4-C , 20-C ) :   1.0717
B(  6-C ,  7-H ) :   0.9351 B(  6-C ,  8-H ) :   0.9553 B(  6-C ,  9-C ) :   1.0445
B(  9-C , 10-H ) :   0.9565 B(  9-C , 11-H ) :   0.9645 B(  9-C , 12-C ) :   1.0675
B( 12-C , 13-H ) :   0.9760 B( 12-C , 14-H ) :   0.9761 B( 12-C , 15-H ) :   0.9761
B( 16-S , 17-C ) :   1.1713 B( 16-S , 20-C ) :   1.1469 B( 17-C , 18-C ) :   1.5824
B( 17-C , 20-C ) :   0.1161 B( 17-C , 33-H ) :   0.9631 B( 18-C , 19-C ) :   1.2756
B( 18-C , 21-H ) :   0.9863 B( 19-C , 20-C ) :   1.5720 B( 19-C , 22-C ) :   1.0330
B( 22-C , 23-H ) :   0.9375 B( 22-C , 24-H ) :   0.9361 B( 22-C , 25-C ) :   1.0530
B( 25-C , 26-H ) :   0.9569 B( 25-C , 27-H ) :   0.9488 B( 25-C , 28-C ) :   1.0885
B( 28-C , 29-H ) :   0.9745 B( 28-C , 30-H ) :   0.9670 B( 28-C , 31-H ) :   0.9702

Dispersion correction           -0.013589654
FINAL SINGLE POINT ENERGY     -1339.856022228690

DIPOLE MOMENT
-------------
                                X             Y             Z
Electronic contribution:     -8.22579      14.73148     -26.99042
Nuclear contribution   :      8.28094     -15.19769      27.59854
                        -----------------------------------------
Total Dipole Moment    :      0.05515      -0.46622       0.60812
                        -----------------------------------------
Magnitude (a.u.)       :      0.76825
Magnitude (Debye)      :      1.95275

Rotational constants in cm-1:     0.015644     0.008815     0.006283
Rotational constants in MHz :   468.988525   264.270687   188.353150

                             ****ORCA TERMINATED NORMALLY****
TOTAL RUN TIME: 0 days 0 hours 0 minutes 20 seconds 851 msec
