                         Program Version 4.2.1 -  RELEASE  -
|  1> ! wB97X-D3 SP def2-SVP
|  2> %pal
|  3> nprocs 24
|  4> end
|  5>
|  6> * xyz 0 1
|  7> S 	 -137.838 	 70.1335 	 -57.2651
|  8> C 	 -136.521 	 69.2071 	 -57.9242
|  9> C 	 -135.652 	 68.7547 	 -56.9341
| 10> C 	 -136.138 	 69.0578 	 -55.6121
| 11> C 	 -137.282 	 69.8875 	 -55.6137
| 12> H 	 -135.595 	 69.0079 	 -54.6809
| 13> C 	 -134.317 	 68.1429 	 -57.2149
| 14> H 	 -133.494 	 68.4993 	 -56.6014
| 15> H 	 -134.059 	 68.4425 	 -58.2463
| 16> C 	 -134.384 	 66.542 	 -57.1475
| 17> H 	 -135.107 	 66.0233 	 -57.7981
| 18> H 	 -133.365 	 66.1604 	 -57.4287
| 19> C 	 -134.32 	 65.9292 	 -55.797
| 20> H 	 -135.336 	 66.0002 	 -55.2981
| 21> H 	 -134.05 	 64.8714 	 -55.8646
| 22> H 	 -133.63 	 66.5174 	 -55.2614
| 23> S 	 -137.856 	 72.4866 	 -54.5901
| 24> C 	 -138.168 	 72.6274 	 -52.8355
| 25> C 	 -138.248 	 71.3653 	 -52.2335
| 26> C 	 -138.043 	 70.3246 	 -53.1618
| 27> C 	 -137.729 	 70.7383 	 -54.4469
| 28> H 	 -138.489 	 71.2465 	 -51.2205
| 29> C 	 -138.16 	 68.8127 	 -52.7703
| 30> H 	 -138.482 	 68.7529 	 -51.7286
| 31> H 	 -137.16 	 68.4237 	 -52.9088
| 32> C 	 -139.143 	 67.9756 	 -53.5934
| 33> H 	 -138.889 	 67.9588 	 -54.6424
| 34> H 	 -140.069 	 68.5643 	 -53.5354
| 35> C 	 -139.58 	 66.6288 	 -53.0373
| 36> H 	 -138.909 	 65.9315 	 -53.424
| 37> H 	 -140.531 	 66.2548 	 -53.2822
| 38> H 	 -139.463 	 66.5837 	 -51.9204
| 39> H 	 -136.392 	 69.0389 	 -58.9315
| 40> H 	 -138.253 	 73.5148 	 -52.2859
| 41> *
| 42>
| 43>                          ****END OF INPUT****

CARTESIAN COORDINATES (ANGSTROEM)
---------------------------------
  S    -137.838000   70.133500  -57.265100
  C    -136.521000   69.207100  -57.924200
  C    -135.652000   68.754700  -56.934100
  C    -136.138000   69.057800  -55.612100
  C    -137.282000   69.887500  -55.613700
  H    -135.595000   69.007900  -54.680900
  C    -134.317000   68.142900  -57.214900
  H    -133.494000   68.499300  -56.601400
  H    -134.059000   68.442500  -58.246300
  C    -134.384000   66.542000  -57.147500
  H    -135.107000   66.023300  -57.798100
  H    -133.365000   66.160400  -57.428700
  C    -134.320000   65.929200  -55.797000
  H    -135.336000   66.000200  -55.298100
  H    -134.050000   64.871400  -55.864600
  H    -133.630000   66.517400  -55.261400
  S    -137.856000   72.486600  -54.590100
  C    -138.168000   72.627400  -52.835500
  C    -138.248000   71.365300  -52.233500
  C    -138.043000   70.324600  -53.161800
  C    -137.729000   70.738300  -54.446900
  H    -138.489000   71.246500  -51.220500
  C    -138.160000   68.812700  -52.770300
  H    -138.482000   68.752900  -51.728600
  H    -137.160000   68.423700  -52.908800
  C    -139.143000   67.975600  -53.593400
  H    -138.889000   67.958800  -54.642400
  H    -140.069000   68.564300  -53.535400
  C    -139.580000   66.628800  -53.037300
  H    -138.909000   65.931500  -53.424000
  H    -140.531000   66.254800  -53.282200
  H    -139.463000   66.583700  -51.920400
  H    -136.392000   69.038900  -58.931500
  H    -138.253000   73.514800  -52.285900

 Total Charge           Charge          ....    0
 Multiplicity           Mult            ....    1
 Number of Electrons    NEL             ....  134
 Basis Dimension        Dim             ....  322

ORBITAL ENERGIES
----------------

  NO   OCC          E(Eh)            E(eV)
   0   2.0000     -88.970502     -2421.0105
   1   2.0000     -88.970302     -2421.0050
   2   2.0000     -10.338731      -281.3312
   3   2.0000     -10.331166      -281.1253
   4   2.0000     -10.319990      -280.8212
   5   2.0000     -10.311581      -280.5924
   6   2.0000     -10.306049      -280.4419
   7   2.0000     -10.302002      -280.3317
   8   2.0000     -10.301057      -280.3060
   9   2.0000     -10.299187      -280.2551
  10   2.0000     -10.293441      -280.0988
  11   2.0000     -10.291746      -280.0526
  12   2.0000     -10.289951      -280.0038
  13   2.0000     -10.275310      -279.6054
  14   2.0000     -10.275250      -279.6038
  15   2.0000     -10.267632      -279.3965
  16   2.0000      -8.084852      -220.0000
  17   2.0000      -8.083931      -219.9750
  18   2.0000      -6.043335      -164.4475
  19   2.0000      -6.042493      -164.4246
  20   2.0000      -6.039272      -164.3370
  21   2.0000      -6.038623      -164.3193
  22   2.0000      -6.035824      -164.2431
  23   2.0000      -6.034669      -164.2117
  24   2.0000      -1.001320       -27.2473
  25   2.0000      -0.981720       -26.7139
  26   2.0000      -0.911391       -24.8002
  27   2.0000      -0.902979       -24.5713
  28   2.0000      -0.867785       -23.6136
  29   2.0000      -0.852395       -23.1949
  30   2.0000      -0.848947       -23.1010
  31   2.0000      -0.817438       -22.2436
  32   2.0000      -0.782438       -21.2912
  33   2.0000      -0.771526       -20.9943
  34   2.0000      -0.705786       -19.2054
  35   2.0000      -0.690875       -18.7997
  36   2.0000      -0.686545       -18.6818
  37   2.0000      -0.666242       -18.1294
  38   2.0000      -0.648520       -17.6471
  39   2.0000      -0.613863       -16.7041
  40   2.0000      -0.590279       -16.0623
  41   2.0000      -0.580032       -15.7835
  42   2.0000      -0.568764       -15.4768
  43   2.0000      -0.552232       -15.0270
  44   2.0000      -0.541582       -14.7372
  45   2.0000      -0.521548       -14.1921
  46   2.0000      -0.519204       -14.1283
  47   2.0000      -0.517404       -14.0793
  48   2.0000      -0.504502       -13.7282
  49   2.0000      -0.497272       -13.5314
  50   2.0000      -0.487050       -13.2533
  51   2.0000      -0.480486       -13.0747
  52   2.0000      -0.475318       -12.9341
  53   2.0000      -0.466731       -12.7004
  54   2.0000      -0.458039       -12.4639
  55   2.0000      -0.453313       -12.3353
  56   2.0000      -0.443948       -12.0804
  57   2.0000      -0.439682       -11.9644
  58   2.0000      -0.433638       -11.7999
  59   2.0000      -0.427533       -11.6338
  60   2.0000      -0.423394       -11.5211
  61   2.0000      -0.398271       -10.8375
  62   2.0000      -0.396315       -10.7843
  63   2.0000      -0.348216        -9.4755
  64   2.0000      -0.334575        -9.1043
  65   2.0000      -0.328758        -8.9459
  66   2.0000      -0.289600        -7.8804
  67   0.0000       0.025239         0.6868
  68   0.0000       0.063847         1.7374
  69   0.0000       0.107020         2.9122
  70   0.0000       0.117611         3.2003
  71   0.0000       0.131017         3.5652

MULLIKEN ATOMIC CHARGES
-----------------------
   0 S :    0.113920
   1 C :   -0.087777
   2 C :   -0.083557
   3 C :    0.043659
   4 C :   -0.179116
   5 H :    0.025297
   6 C :    0.067343
   7 H :    0.034866
   8 H :    0.024892
   9 C :   -0.109139
  10 H :    0.038918
  11 H :    0.021301
  12 C :   -0.036190
  13 H :    0.032828
  14 H :    0.042783
  15 H :    0.013533
  16 S :    0.113651
  17 C :   -0.082244
  18 C :   -0.011524
  19 C :   -0.062477
  20 C :   -0.145720
  21 H :    0.002397
  22 C :    0.104470
  23 H :    0.010540
  24 H :    0.026147
  25 C :   -0.099926
  26 H :    0.044299
  27 H :    0.022659
  28 C :   -0.005071
  29 H :    0.011165
  30 H :    0.025250
  31 H :    0.023578
  32 H :    0.019068
  33 H :    0.040178
Sum of atomic charges:   -0.0000000

LOEWDIN ATOMIC CHARGES
----------------------
   0 S :    0.410412
   1 C :   -0.188995
   2 C :   -0.060112
   3 C :   -0.063531
   4 C :   -0.188399
   5 H :    0.031296
   6 C :   -0.026610
   7 H :    0.032842
   8 H :    0.034736
   9 C :   -0.046429
  10 H :    0.024844
  11 H :    0.027911
  12 C :   -0.064762
  13 H :    0.023158
  14 H :    0.029344
  15 H :    0.015894
  16 S :    0.395634
  17 C :   -0.164545
  18 C :   -0.061615
  19 C :   -0.057688
  20 C :   -0.200031
  21 H :    0.025251
  22 C :   -0.022800
  23 H :    0.027024
  24 H :    0.025461
  25 C :   -0.046741
  26 H :    0.023210
  27 H :    0.025867
  28 C :   -0.059578
  29 H :    0.017029
  30 H :    0.020941
  31 H :    0.029860
  32 H :    0.011769
  33 H :    0.019351

  Mayer bond orders larger than 0.100000
B(  0-S ,  1-C ) :   1.1437 B(  0-S ,  4-C ) :   1.1603 B(  1-C ,  2-C ) :   1.5971
B(  1-C , 32-H ) :   0.9769 B(  2-C ,  3-C ) :   1.2551 B(  2-C ,  6-C ) :   1.0276
B(  3-C ,  4-C ) :   1.5567 B(  3-C ,  5-H ) :   0.9806 B(  4-C , 20-C ) :   1.0279
B(  6-C ,  7-H ) :   0.9455 B(  6-C ,  8-H ) :   0.9416 B(  6-C ,  9-C ) :   1.0652
B(  9-C , 10-H ) :   0.9599 B(  9-C , 11-H ) :   0.9598 B(  9-C , 12-C ) :   1.0691
B( 12-C , 13-H ) :   0.9695 B( 12-C , 14-H ) :   0.9756 B( 12-C , 15-H ) :   0.9729
B( 16-S , 17-C ) :   1.1567 B( 16-S , 20-C ) :   1.1353 B( 17-C , 18-C ) :   1.5849
B( 17-C , 20-C ) :   0.1010 B( 17-C , 33-H ) :   0.9735 B( 18-C , 19-C ) :   1.2788
B( 18-C , 21-H ) :   0.9962 B( 19-C , 20-C ) :   1.5870 B( 19-C , 22-C ) :   1.0273
B( 22-C , 23-H ) :   0.9354 B( 22-C , 24-H ) :   0.9286 B( 22-C , 25-C ) :   1.0660
B( 25-C , 26-H ) :   0.9532 B( 25-C , 27-H ) :   0.9589 B( 25-C , 28-C ) :   1.0807
B( 28-C , 29-H ) :   0.9732 B( 28-C , 30-H ) :   0.9765 B( 28-C , 31-H ) :   0.9716

Dispersion correction           -0.014678081
FINAL SINGLE POINT ENERGY     -1339.858943047310

DIPOLE MOMENT
-------------
                                X             Y             Z
Electronic contribution:     -7.16578      27.31580      -6.79187
Nuclear contribution   :      7.55918     -27.67269       6.99722
                        -----------------------------------------
Total Dipole Moment    :      0.39340      -0.35689       0.20535
                        -----------------------------------------
Magnitude (a.u.)       :      0.56947
Magnitude (Debye)      :      1.44748

Rotational constants in cm-1:     0.017401     0.009332     0.007337
Rotational constants in MHz :   521.675998   279.759643   219.946903

                             ****ORCA TERMINATED NORMALLY****
TOTAL RUN TIME: 0 days 0 hours 0 minutes 22 seconds 122 msec
