                         Program Version 4.2.1 -  RELEASE  -
|  1> ! wB97X-D3 SP def2-SVP
|  2> %pal
|  3> nprocs 24
|  4> end
|  5>
|  6> * xyz 0 1
|  7> S 	 -140.175 	 7.8034 	 10.9612
|  8> C 	 -141.051 	 8.02029 	 9.46245
|  9> C 	 -142.205 	 8.74103 	 9.79544
| 10> C 	 -142.404 	 9.06466 	 11.1523
| 11> C 	 -141.325 	 8.75381 	 11.9542
| 12> H 	 -143.184 	 9.52344 	 11.5096
| 13> C 	 -143.363 	 8.95867 	 8.83045
| 14> H 	 -144.255 	 8.47245 	 9.35971
| 15> H 	 -143.202 	 8.45744 	 7.84454
| 16> C 	 -143.748 	 10.4107 	 8.59166
| 17> H 	 -143.953 	 10.858 	 9.54883
| 18> H 	 -142.954 	 10.9662 	 8.21581
| 19> C 	 -144.959 	 10.7577 	 7.64436
| 20> H 	 -145.694 	 9.93889 	 7.53581
| 21> H 	 -145.555 	 11.5919 	 8.04322
| 22> H 	 -144.649 	 11.0395 	 6.61822
| 23> S 	 -140.84 	 7.51537 	 14.4291
| 24> C 	 -140.457 	 8.53422 	 15.8282
| 25> C 	 -140.762 	 9.8409 	 15.5713
| 26> C 	 -141.213 	 10.0436 	 14.2071
| 27> C 	 -141.208 	 8.92374 	 13.4416
| 28> H 	 -140.714 	 10.5683 	 16.3796
| 29> C 	 -141.568 	 11.4121 	 13.7313
| 30> H 	 -141.668 	 11.997 	 14.5921
| 31> H 	 -142.557 	 11.4117 	 13.2112
| 32> C 	 -140.434 	 12.0727 	 12.9402
| 33> H 	 -140.188 	 11.5604 	 12.0263
| 34> H 	 -139.542 	 12.1788 	 13.5471
| 35> C 	 -140.771 	 13.568 	 12.5994
| 36> H 	 -140.014 	 13.9332 	 11.847
| 37> H 	 -140.524 	 14.1166 	 13.5286
| 38> H 	 -141.781 	 13.9174 	 12.3555
| 39> H 	 -140.766 	 7.7085 	 8.51567
| 40> H 	 -139.95 	 8.41051 	 16.7904
| 41> *
| 42>
| 43>                          ****END OF INPUT****

CARTESIAN COORDINATES (ANGSTROEM)
---------------------------------
  S    -140.175000    7.803400   10.961200
  C    -141.051000    8.020290    9.462450
  C    -142.205000    8.741030    9.795440
  C    -142.404000    9.064660   11.152300
  C    -141.325000    8.753810   11.954200
  H    -143.184000    9.523440   11.509600
  C    -143.363000    8.958670    8.830450
  H    -144.255000    8.472450    9.359710
  H    -143.202000    8.457440    7.844540
  C    -143.748000   10.410700    8.591660
  H    -143.953000   10.858000    9.548830
  H    -142.954000   10.966200    8.215810
  C    -144.959000   10.757700    7.644360
  H    -145.694000    9.938890    7.535810
  H    -145.555000   11.591900    8.043220
  H    -144.649000   11.039500    6.618220
  S    -140.840000    7.515370   14.429100
  C    -140.457000    8.534220   15.828200
  C    -140.762000    9.840900   15.571300
  C    -141.213000   10.043600   14.207100
  C    -141.208000    8.923740   13.441600
  H    -140.714000   10.568300   16.379600
  C    -141.568000   11.412100   13.731300
  H    -141.668000   11.997000   14.592100
  H    -142.557000   11.411700   13.211200
  C    -140.434000   12.072700   12.940200
  H    -140.188000   11.560400   12.026300
  H    -139.542000   12.178800   13.547100
  C    -140.771000   13.568000   12.599400
  H    -140.014000   13.933200   11.847000
  H    -140.524000   14.116600   13.528600
  H    -141.781000   13.917400   12.355500
  H    -140.766000    7.708500    8.515670
  H    -139.950000    8.410510   16.790400

 Total Charge           Charge          ....    0
 Multiplicity           Mult            ....    1
 Number of Electrons    NEL             ....  134
 Basis Dimension        Dim             ....  322

ORBITAL ENERGIES
----------------

  NO   OCC          E(Eh)            E(eV)
   0   2.0000     -88.967034     -2420.9161
   1   2.0000     -88.966994     -2420.9150
   2   2.0000     -10.339691      -281.3573
   3   2.0000     -10.328293      -281.0471
   4   2.0000     -10.318720      -280.7867
   5   2.0000     -10.316994      -280.7397
   6   2.0000     -10.302374      -280.3418
   7   2.0000     -10.300220      -280.2832
   8   2.0000     -10.298547      -280.2377
   9   2.0000     -10.294298      -280.1221
  10   2.0000     -10.287141      -279.9273
  11   2.0000     -10.285251      -279.8759
  12   2.0000     -10.284785      -279.8632
  13   2.0000     -10.284738      -279.8619
  14   2.0000     -10.281647      -279.7778
  15   2.0000     -10.280796      -279.7547
  16   2.0000      -8.081059      -219.8968
  17   2.0000      -8.080848      -219.8911
  18   2.0000      -6.039915      -164.3544
  19   2.0000      -6.039469      -164.3423
  20   2.0000      -6.035661      -164.2387
  21   2.0000      -6.035288      -164.2285
  22   2.0000      -6.031692      -164.1307
  23   2.0000      -6.031461      -164.1244
  24   2.0000      -1.005192       -27.3527
  25   2.0000      -0.985866       -26.8268
  26   2.0000      -0.909285       -24.7429
  27   2.0000      -0.906171       -24.6582
  28   2.0000      -0.870075       -23.6760
  29   2.0000      -0.849717       -23.1220
  30   2.0000      -0.843881       -22.9632
  31   2.0000      -0.822929       -22.3930
  32   2.0000      -0.777249       -21.1500
  33   2.0000      -0.768820       -20.9207
  34   2.0000      -0.710885       -19.3442
  35   2.0000      -0.699560       -19.0360
  36   2.0000      -0.693219       -18.8634
  37   2.0000      -0.663105       -18.0440
  38   2.0000      -0.654756       -17.8168
  39   2.0000      -0.627304       -17.0698
  40   2.0000      -0.589070       -16.0294
  41   2.0000      -0.572573       -15.5805
  42   2.0000      -0.566000       -15.4017
  43   2.0000      -0.560628       -15.2555
  44   2.0000      -0.529363       -14.4047
  45   2.0000      -0.523079       -14.2337
  46   2.0000      -0.516600       -14.0574
  47   2.0000      -0.514518       -14.0007
  48   2.0000      -0.504990       -13.7415
  49   2.0000      -0.497107       -13.5270
  50   2.0000      -0.490313       -13.3421
  51   2.0000      -0.485258       -13.2046
  52   2.0000      -0.472230       -12.8500
  53   2.0000      -0.464480       -12.6392
  54   2.0000      -0.463296       -12.6069
  55   2.0000      -0.447721       -12.1831
  56   2.0000      -0.443819       -12.0769
  57   2.0000      -0.434128       -11.8132
  58   2.0000      -0.432130       -11.7588
  59   2.0000      -0.421394       -11.4667
  60   2.0000      -0.417808       -11.3691
  61   2.0000      -0.414033       -11.2664
  62   2.0000      -0.407981       -11.1017
  63   2.0000      -0.348046        -9.4708
  64   2.0000      -0.330572        -8.9953
  65   2.0000      -0.328068        -8.9272
  66   2.0000      -0.298668        -8.1272
  67   0.0000       0.026054         0.7090
  68   0.0000       0.066928         1.8212
  69   0.0000       0.109066         2.9678
  70   0.0000       0.121056         3.2941
  71   0.0000       0.132629         3.6090

MULLIKEN ATOMIC CHARGES
-----------------------
   0 S :    0.102340
   1 C :   -0.087582
   2 C :   -0.065627
   3 C :    0.100029
   4 C :   -0.129276
   5 H :   -0.060258
   6 C :    0.029598
   7 H :    0.045026
   8 H :    0.027060
   9 C :   -0.051667
  10 H :    0.014266
  11 H :    0.014479
  12 C :   -0.074937
  13 H :    0.028621
  14 H :    0.035941
  15 H :    0.040424
  16 S :    0.110076
  17 C :   -0.078475
  18 C :   -0.056954
  19 C :   -0.050296
  20 C :   -0.162046
  21 H :    0.025030
  22 C :    0.107616
  23 H :   -0.011539
  24 H :    0.037815
  25 C :   -0.069458
  26 H :    0.045032
  27 H :    0.028982
  28 C :   -0.079460
  29 H :    0.042266
  30 H :    0.021479
  31 H :    0.036918
  32 H :    0.026370
  33 H :    0.058208
Sum of atomic charges:   -0.0000000

LOEWDIN ATOMIC CHARGES
----------------------
   0 S :    0.395966
   1 C :   -0.183709
   2 C :   -0.061544
   3 C :   -0.041553
   4 C :   -0.169168
   5 H :    0.001527
   6 C :   -0.036017
   7 H :    0.040883
   8 H :    0.029021
   9 C :   -0.043342
  10 H :    0.019183
  11 H :    0.017116
  12 C :   -0.072750
  13 H :    0.024617
  14 H :    0.029705
  15 H :    0.027387
  16 S :    0.392517
  17 C :   -0.184737
  18 C :   -0.073855
  19 C :   -0.056318
  20 C :   -0.197013
  21 H :    0.033214
  22 C :   -0.030081
  23 H :    0.020989
  24 H :    0.035156
  25 C :   -0.028711
  26 H :    0.021613
  27 H :    0.027976
  28 C :   -0.077547
  29 H :    0.032659
  30 H :    0.023384
  31 H :    0.021785
  32 H :    0.019119
  33 H :    0.042528

  Mayer bond orders larger than 0.100000
B(  0-S ,  1-C ) :   1.1391 B(  0-S ,  4-C ) :   1.1507 B(  1-C ,  2-C ) :   1.5709
B(  1-C ,  4-C ) :   0.1029 B(  1-C , 32-H ) :   0.9863 B(  2-C ,  3-C ) :   1.2506
B(  2-C ,  6-C ) :   1.0299 B(  3-C ,  4-C ) :   1.5482 B(  3-C ,  5-H ) :   1.0187
B(  4-C , 20-C ) :   1.0250 B(  6-C ,  7-H ) :   0.9400 B(  6-C ,  8-H ) :   0.9492
B(  6-C ,  9-C ) :   1.0611 B(  9-C , 10-H ) :   0.9605 B(  9-C , 11-H ) :   0.9567
B(  9-C , 12-C ) :   1.0657 B( 12-C , 13-H ) :   0.9783 B( 12-C , 14-H ) :   0.9784
B( 12-C , 15-H ) :   0.9808 B( 16-S , 17-C ) :   1.1329 B( 16-S , 20-C ) :   1.1146
B( 17-C , 18-C ) :   1.6627 B( 17-C , 33-H ) :   0.9562 B( 18-C , 19-C ) :   1.2219
B( 18-C , 21-H ) :   0.9828 B( 19-C , 20-C ) :   1.6416 B( 19-C , 22-C ) :   1.0512
B( 22-C , 23-H ) :   0.9195 B( 22-C , 24-H ) :   0.9343 B( 22-C , 25-C ) :   1.0664
B( 25-C , 26-H ) :   0.9641 B( 25-C , 27-H ) :   0.9555 B( 25-C , 28-C ) :   1.0647
B( 28-C , 29-H ) :   0.9758 B( 28-C , 30-H ) :   0.9792 B( 28-C , 31-H ) :   0.9785

Dispersion correction           -0.014034117
FINAL SINGLE POINT ENERGY     -1339.852520685665

DIPOLE MOMENT
-------------
                                X             Y             Z
Electronic contribution:     12.78099     -24.82373      13.81596
Nuclear contribution   :    -13.04440      25.43931     -13.86764
                        -----------------------------------------
Total Dipole Moment    :     -0.26341       0.61558      -0.05168
                        -----------------------------------------
Magnitude (a.u.)       :      0.67157
Magnitude (Debye)      :      1.70698

Rotational constants in cm-1:     0.017953     0.008683     0.006748
Rotational constants in MHz :   538.207262   260.302639   202.307093

                             ****ORCA TERMINATED NORMALLY****
TOTAL RUN TIME: 0 days 0 hours 0 minutes 21 seconds 768 msec
