                         Program Version 4.2.1 -  RELEASE  -
|  1> ! wB97X-D3 SP def2-SVP
|  2> %pal
|  3> nprocs 24
|  4> end
|  5>
|  6> * xyz 0 1
|  7> S 	 -34.514 	 0.195219 	 10.3681
|  8> C 	 -33.2501 	 -0.687374 	 11.2078
|  9> C 	 -33.6531 	 -0.854337 	 12.5823
| 10> C 	 -34.8632 	 -0.120981 	 12.9275
| 11> C 	 -35.4724 	 0.511642 	 11.8676
| 12> H 	 -35.2807 	 -0.00950174 	 13.892
| 13> C 	 -32.7411 	 -1.58094 	 13.5795
| 14> H 	 -32.3503 	 -2.53372 	 13.078
| 15> H 	 -33.4391 	 -1.76847 	 14.3663
| 16> C 	 -31.633 	 -0.779677 	 14.288
| 17> H 	 -31.2882 	 -1.27196 	 15.164
| 18> H 	 -30.8157 	 -0.697455 	 13.5325
| 19> C 	 -32.0634 	 0.60021 	 14.7227
| 20> H 	 -32.3688 	 1.12501 	 13.8239
| 21> H 	 -32.8718 	 0.574023 	 15.4816
| 22> H 	 -31.3044 	 1.2257 	 15.1521
| 23> S 	 -37.8755 	 1.54746 	 10.8698
| 24> C 	 -38.6357 	 2.90727 	 11.7362
| 25> C 	 -37.7851 	 3.40448 	 12.6662
| 26> C 	 -36.6132 	 2.55815 	 12.8679
| 27> C 	 -36.5254 	 1.4826 	 12.029
| 28> H 	 -38.0342 	 4.33921 	 13.0825
| 29> C 	 -35.5806 	 2.92998 	 13.9132
| 30> H 	 -35.307 	 3.92607 	 13.7227
| 31> H 	 -34.6478 	 2.39276 	 13.7662
| 32> C 	 -36.0264 	 2.7689 	 15.3502
| 33> H 	 -36.417 	 1.81346 	 15.5327
| 34> H 	 -36.8588 	 3.47788 	 15.5943
| 35> C 	 -34.9748 	 3.30624 	 16.3069
| 36> H 	 -35.2824 	 3.12741 	 17.3396
| 37> H 	 -34.7573 	 4.396 	 16.2014
| 38> H 	 -34.1074 	 2.74665 	 16.1808
| 39> H 	 -32.3409 	 -1.13594 	 10.8518
| 40> H 	 -39.5751 	 3.33394 	 11.4947
| 41> *
| 42>
| 43>                          ****END OF INPUT****

CARTESIAN COORDINATES (ANGSTROEM)
---------------------------------
  S    -34.514000    0.195219   10.368100
  C    -33.250100   -0.687374   11.207800
  C    -33.653100   -0.854337   12.582300
  C    -34.863200   -0.120981   12.927500
  C    -35.472400    0.511642   11.867600
  H    -35.280700   -0.009502   13.892000
  C    -32.741100   -1.580940   13.579500
  H    -32.350300   -2.533720   13.078000
  H    -33.439100   -1.768470   14.366300
  C    -31.633000   -0.779677   14.288000
  H    -31.288200   -1.271960   15.164000
  H    -30.815700   -0.697455   13.532500
  C    -32.063400    0.600210   14.722700
  H    -32.368800    1.125010   13.823900
  H    -32.871800    0.574023   15.481600
  H    -31.304400    1.225700   15.152100
  S    -37.875500    1.547460   10.869800
  C    -38.635700    2.907270   11.736200
  C    -37.785100    3.404480   12.666200
  C    -36.613200    2.558150   12.867900
  C    -36.525400    1.482600   12.029000
  H    -38.034200    4.339210   13.082500
  C    -35.580600    2.929980   13.913200
  H    -35.307000    3.926070   13.722700
  H    -34.647800    2.392760   13.766200
  C    -36.026400    2.768900   15.350200
  H    -36.417000    1.813460   15.532700
  H    -36.858800    3.477880   15.594300
  C    -34.974800    3.306240   16.306900
  H    -35.282400    3.127410   17.339600
  H    -34.757300    4.396000   16.201400
  H    -34.107400    2.746650   16.180800
  H    -32.340900   -1.135940   10.851800
  H    -39.575100    3.333940   11.494700

 Total Charge           Charge          ....    0
 Multiplicity           Mult            ....    1
 Number of Electrons    NEL             ....  134
 Basis Dimension        Dim             ....  322

ORBITAL ENERGIES
----------------

  NO   OCC          E(Eh)            E(eV)
   0   2.0000     -88.970275     -2421.0043
   1   2.0000     -88.960552     -2420.7397
   2   2.0000     -10.334364      -281.2123
   3   2.0000     -10.328740      -281.0593
   4   2.0000     -10.322356      -280.8856
   5   2.0000     -10.318085      -280.7694
   6   2.0000     -10.310677      -280.5678
   7   2.0000     -10.306609      -280.4571
   8   2.0000     -10.297703      -280.2148
   9   2.0000     -10.296483      -280.1815
  10   2.0000     -10.293428      -280.0984
  11   2.0000     -10.287375      -279.9337
  12   2.0000     -10.282731      -279.8073
  13   2.0000     -10.282353      -279.7971
  14   2.0000     -10.276019      -279.6247
  15   2.0000     -10.275558      -279.6121
  16   2.0000      -8.083471      -219.9624
  17   2.0000      -8.074793      -219.7263
  18   2.0000      -6.042231      -164.4175
  19   2.0000      -6.038050      -164.3037
  20   2.0000      -6.034165      -164.1980
  21   2.0000      -6.033511      -164.1802
  22   2.0000      -6.029465      -164.0701
  23   2.0000      -6.025265      -163.9558
  24   2.0000      -1.001796       -27.2603
  25   2.0000      -0.976484       -26.5715
  26   2.0000      -0.914755       -24.8917
  27   2.0000      -0.912877       -24.8406
  28   2.0000      -0.875921       -23.8350
  29   2.0000      -0.849501       -23.1161
  30   2.0000      -0.842270       -22.9193
  31   2.0000      -0.821158       -22.3448
  32   2.0000      -0.781994       -21.2791
  33   2.0000      -0.771046       -20.9812
  34   2.0000      -0.709272       -19.3003
  35   2.0000      -0.701616       -19.0919
  36   2.0000      -0.700248       -19.0547
  37   2.0000      -0.664896       -18.0927
  38   2.0000      -0.640366       -17.4253
  39   2.0000      -0.614519       -16.7219
  40   2.0000      -0.596780       -16.2392
  41   2.0000      -0.577411       -15.7122
  42   2.0000      -0.573076       -15.5942
  43   2.0000      -0.554870       -15.0988
  44   2.0000      -0.549613       -14.9557
  45   2.0000      -0.530053       -14.4235
  46   2.0000      -0.520403       -14.1609
  47   2.0000      -0.514445       -13.9988
  48   2.0000      -0.508870       -13.8471
  49   2.0000      -0.503914       -13.7122
  50   2.0000      -0.495153       -13.4738
  51   2.0000      -0.473992       -12.8980
  52   2.0000      -0.469677       -12.7806
  53   2.0000      -0.463159       -12.6032
  54   2.0000      -0.457195       -12.4409
  55   2.0000      -0.451894       -12.2967
  56   2.0000      -0.448111       -12.1937
  57   2.0000      -0.442841       -12.0503
  58   2.0000      -0.436282       -11.8718
  59   2.0000      -0.422702       -11.5023
  60   2.0000      -0.416941       -11.3455
  61   2.0000      -0.408725       -11.1220
  62   2.0000      -0.404173       -10.9981
  63   2.0000      -0.354047        -9.6341
  64   2.0000      -0.330512        -8.9937
  65   2.0000      -0.326295        -8.8789
  66   2.0000      -0.291544        -7.9333
  67   0.0000       0.027132         0.7383
  68   0.0000       0.061602         1.6763
  69   0.0000       0.109003         2.9661
  70   0.0000       0.115931         3.1546
  71   0.0000       0.120771         3.2863

MULLIKEN ATOMIC CHARGES
-----------------------
   0 S :    0.114835
   1 C :   -0.102714
   2 C :   -0.143128
   3 C :    0.023421
   4 C :   -0.103930
   5 H :   -0.000363
   6 C :    0.055700
   7 H :    0.053441
   8 H :    0.011000
   9 C :   -0.031727
  10 H :    0.028389
  11 H :    0.025126
  12 C :   -0.091441
  13 H :    0.057293
  14 H :    0.032562
  15 H :    0.030980
  16 S :    0.076978
  17 C :   -0.075588
  18 C :   -0.002211
  19 C :   -0.037836
  20 C :   -0.155722
  21 H :    0.006778
  22 C :    0.088602
  23 H :    0.003723
  24 H :    0.014018
  25 C :   -0.072268
  26 H :    0.019153
  27 H :    0.025053
  28 C :   -0.020898
  29 H :    0.029381
  30 H :    0.041383
  31 H :    0.003855
  32 H :    0.049167
  33 H :    0.046985
Sum of atomic charges:   -0.0000000

LOEWDIN ATOMIC CHARGES
----------------------
   0 S :    0.388585
   1 C :   -0.199717
   2 C :   -0.062033
   3 C :   -0.055386
   4 C :   -0.176424
   5 H :    0.025890
   6 C :   -0.038896
   7 H :    0.042359
   8 H :    0.025088
   9 C :   -0.036570
  10 H :    0.020706
  11 H :    0.024656
  12 C :   -0.069060
  13 H :    0.027556
  14 H :    0.023008
  15 H :    0.024904
  16 S :    0.363814
  17 C :   -0.154913
  18 C :   -0.063623
  19 C :   -0.044161
  20 C :   -0.188957
  21 H :    0.027416
  22 C :   -0.030864
  23 H :    0.025503
  24 H :    0.028660
  25 C :   -0.037312
  26 H :    0.014671
  27 H :    0.028531
  28 C :   -0.059567
  29 H :    0.027736
  30 H :    0.032832
  31 H :    0.010134
  32 H :    0.030624
  33 H :    0.024806

  Mayer bond orders larger than 0.100000
B(  0-S ,  1-C ) :   1.1421 B(  0-S ,  4-C ) :   1.1230 B(  1-C ,  2-C ) :   1.5760
B(  1-C , 32-H ) :   0.9727 B(  2-C ,  3-C ) :   1.2254 B(  2-C ,  6-C ) :   1.0298
B(  3-C ,  4-C ) :   1.5691 B(  3-C ,  5-H ) :   1.0047 B(  4-C , 20-C ) :   1.0704
B(  6-C ,  7-H ) :   0.9463 B(  6-C ,  8-H ) :   0.9321 B(  6-C ,  9-C ) :   1.0614
B(  9-C , 10-H ) :   0.9565 B(  9-C , 11-H ) :   0.9530 B(  9-C , 12-C ) :   1.0905
B( 12-C , 13-H ) :   0.9628 B( 12-C , 14-H ) :   0.9711 B( 12-C , 15-H ) :   0.9697
B( 16-S , 17-C ) :   1.1365 B( 16-S , 20-C ) :   1.0934 B( 17-C , 18-C ) :   1.6515
B( 17-C , 33-H ) :   0.9711 B( 18-C , 19-C ) :   1.1854 B( 18-C , 21-H ) :   1.0004
B( 19-C , 20-C ) :   1.6334 B( 19-C , 22-C ) :   1.0465 B( 22-C , 23-H ) :   0.9212
B( 22-C , 24-H ) :   0.9294 B( 22-C , 25-C ) :   1.0658 B( 25-C , 26-H ) :   0.9559
B( 25-C , 27-H ) :   0.9528 B( 25-C , 28-C ) :   1.0791 B( 28-C , 29-H ) :   0.9713
B( 28-C , 30-H ) :   0.9722 B( 28-C , 31-H ) :   0.9737

Dispersion correction           -0.016076095
FINAL SINGLE POINT ENERGY     -1339.866241739795

DIPOLE MOMENT
-------------
                                X             Y             Z
Electronic contribution:    -15.99531      -4.40045     -27.50556
Nuclear contribution   :     16.34506       4.73353      28.24730
                        -----------------------------------------
Total Dipole Moment    :      0.34975       0.33307       0.74174
                        -----------------------------------------
Magnitude (a.u.)       :      0.88512
Magnitude (Debye)      :      2.24980

Rotational constants in cm-1:     0.017399     0.010795     0.007078
Rotational constants in MHz :   521.600111   323.634753   212.195848

                             ****ORCA TERMINATED NORMALLY****
TOTAL RUN TIME: 0 days 0 hours 0 minutes 22 seconds 10 msec
