                         Program Version 4.2.1 -  RELEASE  -
|  1> ! wB97X-D3 SP def2-SVP
|  2> %pal
|  3> nprocs 24
|  4> end
|  5>
|  6> * xyz 0 1
|  7> S 	 -59.6029 	 10.548 	 -84.1454
|  8> C 	 -60.3055 	 11.3702 	 -85.5415
|  9> C 	 -60.8519 	 12.6281 	 -85.2037
| 10> C 	 -60.5822 	 12.9523 	 -83.8216
| 11> C 	 -59.8756 	 11.9809 	 -83.1711
| 12> H 	 -60.9071 	 13.8735 	 -83.3118
| 13> C 	 -61.4189 	 13.6243 	 -86.1404
| 14> H 	 -61.992 	 14.2858 	 -85.5341
| 15> H 	 -62.2136 	 13.1004 	 -86.7444
| 16> C 	 -60.5383 	 14.2517 	 -87.2469
| 17> H 	 -60.1288 	 13.3523 	 -87.6279
| 18> H 	 -61.0703 	 14.7624 	 -88.0506
| 19> C 	 -59.4063 	 15.1637 	 -86.7375
| 20> H 	 -59.1128 	 15.7995 	 -87.5402
| 21> H 	 -59.6982 	 15.7521 	 -85.8893
| 22> H 	 -58.615 	 14.6424 	 -86.2604
| 23> S 	 -58.8736 	 13.8503 	 -81.3551
| 24> C 	 -58.4362 	 13.2367 	 -79.7289
| 25> C 	 -58.7101 	 11.8924 	 -79.5654
| 26> C 	 -59.1122 	 11.2415 	 -80.7852
| 27> C 	 -59.3415 	 12.1682 	 -81.8128
| 28> H 	 -58.578 	 11.4474 	 -78.5933
| 29> C 	 -59.3661 	 9.81461 	 -80.83
| 30> H 	 -58.6926 	 9.40854 	 -80.0361
| 31> H 	 -58.8896 	 9.45858 	 -81.7001
| 32> C 	 -60.7692 	 9.34511 	 -80.733
| 33> H 	 -60.6977 	 8.27065 	 -80.8787
| 34> H 	 -61.2943 	 9.70319 	 -81.5384
| 35> C 	 -61.4342 	 9.88098 	 -79.3888
| 36> H 	 -62.4716 	 9.614 	 -79.2343
| 37> H 	 -61.4438 	 10.9502 	 -79.3219
| 38> H 	 -60.8025 	 9.54335 	 -78.5738
| 39> H 	 -60.3874 	 11.0453 	 -86.6185
| 40> H 	 -58.0977 	 13.971 	 -78.9458
| 41> *
| 42>
| 43>                          ****END OF INPUT****

CARTESIAN COORDINATES (ANGSTROEM)
---------------------------------
  S    -59.602900   10.548000  -84.145400
  C    -60.305500   11.370200  -85.541500
  C    -60.851900   12.628100  -85.203700
  C    -60.582200   12.952300  -83.821600
  C    -59.875600   11.980900  -83.171100
  H    -60.907100   13.873500  -83.311800
  C    -61.418900   13.624300  -86.140400
  H    -61.992000   14.285800  -85.534100
  H    -62.213600   13.100400  -86.744400
  C    -60.538300   14.251700  -87.246900
  H    -60.128800   13.352300  -87.627900
  H    -61.070300   14.762400  -88.050600
  C    -59.406300   15.163700  -86.737500
  H    -59.112800   15.799500  -87.540200
  H    -59.698200   15.752100  -85.889300
  H    -58.615000   14.642400  -86.260400
  S    -58.873600   13.850300  -81.355100
  C    -58.436200   13.236700  -79.728900
  C    -58.710100   11.892400  -79.565400
  C    -59.112200   11.241500  -80.785200
  C    -59.341500   12.168200  -81.812800
  H    -58.578000   11.447400  -78.593300
  C    -59.366100    9.814610  -80.830000
  H    -58.692600    9.408540  -80.036100
  H    -58.889600    9.458580  -81.700100
  C    -60.769200    9.345110  -80.733000
  H    -60.697700    8.270650  -80.878700
  H    -61.294300    9.703190  -81.538400
  C    -61.434200    9.880980  -79.388800
  H    -62.471600    9.614000  -79.234300
  H    -61.443800   10.950200  -79.321900
  H    -60.802500    9.543350  -78.573800
  H    -60.387400   11.045300  -86.618500
  H    -58.097700   13.971000  -78.945800

 Total Charge           Charge          ....    0
 Multiplicity           Mult            ....    1
 Number of Electrons    NEL             ....  134
 Basis Dimension        Dim             ....  322

ORBITAL ENERGIES
----------------

  NO   OCC          E(Eh)            E(eV)
   0   2.0000     -88.975105     -2421.1357
   1   2.0000     -88.967239     -2420.9216
   2   2.0000     -10.331604      -281.1372
   3   2.0000     -10.330716      -281.1131
   4   2.0000     -10.324663      -280.9484
   5   2.0000     -10.321314      -280.8572
   6   2.0000     -10.303496      -280.3724
   7   2.0000     -10.300785      -280.2986
   8   2.0000     -10.296724      -280.1881
   9   2.0000     -10.294272      -280.1214
  10   2.0000     -10.289945      -280.0036
  11   2.0000     -10.286219      -279.9023
  12   2.0000     -10.281748      -279.7806
  13   2.0000     -10.279559      -279.7210
  14   2.0000     -10.275128      -279.6005
  15   2.0000     -10.265562      -279.3402
  16   2.0000      -8.088507      -220.0995
  17   2.0000      -8.080361      -219.8778
  18   2.0000      -6.047204      -164.5528
  19   2.0000      -6.043306      -164.4467
  20   2.0000      -6.039065      -164.3313
  21   2.0000      -6.038965      -164.3286
  22   2.0000      -6.035291      -164.2286
  23   2.0000      -6.030938      -164.1102
  24   2.0000      -1.002208       -27.2715
  25   2.0000      -0.977718       -26.6050
  26   2.0000      -0.918264       -24.9872
  27   2.0000      -0.912642       -24.8343
  28   2.0000      -0.864734       -23.5306
  29   2.0000      -0.852469       -23.1969
  30   2.0000      -0.841573       -22.9004
  31   2.0000      -0.811386       -22.0789
  32   2.0000      -0.787117       -21.4185
  33   2.0000      -0.772799       -21.0289
  34   2.0000      -0.718136       -19.5415
  35   2.0000      -0.712189       -19.3797
  36   2.0000      -0.686877       -18.6909
  37   2.0000      -0.664374       -18.0785
  38   2.0000      -0.630227       -17.1494
  39   2.0000      -0.609419       -16.5831
  40   2.0000      -0.594233       -16.1699
  41   2.0000      -0.574180       -15.6242
  42   2.0000      -0.561595       -15.2818
  43   2.0000      -0.553765       -15.0687
  44   2.0000      -0.543592       -14.7919
  45   2.0000      -0.533998       -14.5308
  46   2.0000      -0.519312       -14.1312
  47   2.0000      -0.506213       -13.7747
  48   2.0000      -0.497098       -13.5267
  49   2.0000      -0.492315       -13.3966
  50   2.0000      -0.486677       -13.2432
  51   2.0000      -0.475557       -12.9406
  52   2.0000      -0.469139       -12.7659
  53   2.0000      -0.468768       -12.7558
  54   2.0000      -0.461586       -12.5604
  55   2.0000      -0.449118       -12.2211
  56   2.0000      -0.446227       -12.1425
  57   2.0000      -0.442038       -12.0285
  58   2.0000      -0.436380       -11.8745
  59   2.0000      -0.426932       -11.6174
  60   2.0000      -0.419858       -11.4249
  61   2.0000      -0.416791       -11.3415
  62   2.0000      -0.408956       -11.1283
  63   2.0000      -0.353714        -9.6250
  64   2.0000      -0.332298        -9.0423
  65   2.0000      -0.331036        -9.0079
  66   2.0000      -0.281561        -7.6617
  67   0.0000       0.020824         0.5666
  68   0.0000       0.071493         1.9454
  69   0.0000       0.095398         2.5959
  70   0.0000       0.107085         2.9139
  71   0.0000       0.121838         3.3154

MULLIKEN ATOMIC CHARGES
-----------------------
   0 S :    0.112687
   1 C :   -0.136289
   2 C :   -0.091308
   3 C :   -0.035324
   4 C :   -0.108366
   5 H :    0.030091
   6 C :    0.041317
   7 H :    0.008975
   8 H :    0.030632
   9 C :   -0.030918
  10 H :    0.006277
  11 H :    0.035893
  12 C :   -0.021330
  13 H :    0.033510
  14 H :    0.012347
  15 H :    0.029116
  16 S :    0.084278
  17 C :   -0.120955
  18 C :   -0.020021
  19 C :   -0.083760
  20 C :   -0.124157
  21 H :    0.019285
  22 C :    0.042898
  23 H :    0.020781
  24 H :    0.013175
  25 C :    0.027898
  26 H :    0.031274
  27 H :    0.007881
  28 C :   -0.057470
  29 H :    0.034912
  30 H :    0.040493
  31 H :    0.021332
  32 H :    0.066641
  33 H :    0.078201
Sum of atomic charges:    0.0000000

LOEWDIN ATOMIC CHARGES
----------------------
   0 S :    0.406792
   1 C :   -0.210642
   2 C :   -0.060481
   3 C :   -0.076454
   4 C :   -0.186821
   5 H :    0.032866
   6 C :   -0.039063
   7 H :    0.020761
   8 H :    0.040591
   9 C :   -0.030385
  10 H :    0.018587
  11 H :    0.027502
  12 C :   -0.064453
  13 H :    0.024795
  14 H :    0.022633
  15 H :    0.026089
  16 S :    0.366193
  17 C :   -0.178112
  18 C :   -0.067251
  19 C :   -0.057798
  20 C :   -0.170617
  21 H :    0.032149
  22 C :   -0.044739
  23 H :    0.036887
  24 H :    0.020017
  25 C :   -0.021817
  26 H :    0.029534
  27 H :    0.011236
  28 C :   -0.060160
  29 H :    0.025132
  30 H :    0.026211
  31 H :    0.021767
  32 H :    0.041020
  33 H :    0.038030

  Mayer bond orders larger than 0.100000
B(  0-S ,  1-C ) :   1.1195 B(  0-S ,  4-C ) :   1.1336 B(  1-C ,  2-C ) :   1.6172
B(  1-C , 32-H ) :   0.9559 B(  2-C ,  3-C ) :   1.2248 B(  2-C ,  6-C ) :   1.0439
B(  3-C ,  4-C ) :   1.5708 B(  3-C ,  5-H ) :   0.9852 B(  4-C , 20-C ) :   1.0730
B(  6-C ,  7-H ) :   0.9400 B(  6-C ,  8-H ) :   0.9304 B(  6-C ,  9-C ) :   1.0605
B(  9-C , 10-H ) :   0.9515 B(  9-C , 11-H ) :   0.9608 B(  9-C , 12-C ) :   1.0737
B( 12-C , 13-H ) :   0.9771 B( 12-C , 14-H ) :   0.9756 B( 12-C , 15-H ) :   0.9722
B( 16-S , 17-C ) :   1.1330 B( 16-S , 20-C ) :   1.1228 B( 17-C , 18-C ) :   1.6311
B( 17-C , 33-H ) :   0.9595 B( 18-C , 19-C ) :   1.2142 B( 18-C , 21-H ) :   0.9899
B( 19-C , 20-C ) :   1.5803 B( 19-C , 22-C ) :   1.0521 B( 22-C , 23-H ) :   0.9215
B( 22-C , 24-H ) :   0.9152 B( 22-C , 25-C ) :   1.0763 B( 25-C , 26-H ) :   0.9533
B( 25-C , 27-H ) :   0.9482 B( 25-C , 28-C ) :   1.0602 B( 28-C , 29-H ) :   0.9768
B( 28-C , 30-H ) :   0.9732 B( 28-C , 31-H ) :   0.9783

Dispersion correction           -0.015266443
FINAL SINGLE POINT ENERGY     -1339.864172608121

DIPOLE MOMENT
-------------
                                X             Y             Z
Electronic contribution:      7.45304      -0.46101       4.24074
Nuclear contribution   :     -7.64011       0.47300      -4.22323
                        -----------------------------------------
Total Dipole Moment    :     -0.18707       0.01200       0.01751
                        -----------------------------------------
Magnitude (a.u.)       :      0.18827
Magnitude (Debye)      :      0.47854

Rotational constants in cm-1:     0.023253     0.008524     0.006925
Rotational constants in MHz :   697.120205   255.543387   207.616471

                             ****ORCA TERMINATED NORMALLY****
TOTAL RUN TIME: 0 days 0 hours 0 minutes 22 seconds 111 msec
