                         Program Version 4.2.1 -  RELEASE  -
|  1> ! wB97X-D3 SP def2-SVP
|  2> %pal
|  3> nprocs 24
|  4> end
|  5>
|  6> * xyz 0 1
|  7> S 	 -107.165 	 52.0229 	 -88.1798
|  8> C 	 -108.471 	 51.3109 	 -87.2874
|  9> C 	 -109.053 	 52.1555 	 -86.3127
| 10> C 	 -108.453 	 53.4281 	 -86.3916
| 11> C 	 -107.426 	 53.5424 	 -87.302
| 12> H 	 -108.61 	 54.2071 	 -85.7101
| 13> C 	 -110.353 	 51.9382 	 -85.5271
| 14> H 	 -110.143 	 52.1683 	 -84.5327
| 15> H 	 -110.457 	 50.8723 	 -85.5387
| 16> C 	 -111.614 	 52.5489 	 -86.0832
| 17> H 	 -111.651 	 52.2217 	 -87.0862
| 18> H 	 -112.403 	 51.9866 	 -85.7077
| 19> C 	 -111.784 	 54.0329 	 -85.9244
| 20> H 	 -111.856 	 54.3358 	 -84.867
| 21> H 	 -110.943 	 54.6872 	 -86.3427
| 22> H 	 -112.643 	 54.3819 	 -86.486
| 23> S 	 -105.021 	 54.8236 	 -87.0666
| 24> C 	 -104.805 	 56.3786 	 -87.8409
| 25> C 	 -106.028 	 56.9616 	 -88.026
| 26> C 	 -107.112 	 56.0175 	 -87.9741
| 27> C 	 -106.693 	 54.7203 	 -87.6212
| 28> H 	 -106.051 	 58.008 	 -88.4038
| 29> C 	 -108.529 	 56.426 	 -88.2471
| 30> H 	 -109.347 	 55.6862 	 -88.1467
| 31> H 	 -108.41 	 56.9074 	 -89.2587
| 32> C 	 -109.017 	 57.6302 	 -87.4032
| 33> H 	 -108.392 	 58.5037 	 -87.6523
| 34> H 	 -108.865 	 57.4605 	 -86.2962
| 35> C 	 -110.457 	 58.0105 	 -87.5788
| 36> H 	 -110.743 	 57.7252 	 -88.5946
| 37> H 	 -110.767 	 59.0679 	 -87.6366
| 38> H 	 -111.091 	 57.5614 	 -86.8874
| 39> H 	 -108.987 	 50.304 	 -87.3617
| 40> H 	 -103.89 	 56.8501 	 -87.8611
| 41> *
| 42>
| 43>                          ****END OF INPUT****

CARTESIAN COORDINATES (ANGSTROEM)
---------------------------------
  S    -107.165000   52.022900  -88.179800
  C    -108.471000   51.310900  -87.287400
  C    -109.053000   52.155500  -86.312700
  C    -108.453000   53.428100  -86.391600
  C    -107.426000   53.542400  -87.302000
  H    -108.610000   54.207100  -85.710100
  C    -110.353000   51.938200  -85.527100
  H    -110.143000   52.168300  -84.532700
  H    -110.457000   50.872300  -85.538700
  C    -111.614000   52.548900  -86.083200
  H    -111.651000   52.221700  -87.086200
  H    -112.403000   51.986600  -85.707700
  C    -111.784000   54.032900  -85.924400
  H    -111.856000   54.335800  -84.867000
  H    -110.943000   54.687200  -86.342700
  H    -112.643000   54.381900  -86.486000
  S    -105.021000   54.823600  -87.066600
  C    -104.805000   56.378600  -87.840900
  C    -106.028000   56.961600  -88.026000
  C    -107.112000   56.017500  -87.974100
  C    -106.693000   54.720300  -87.621200
  H    -106.051000   58.008000  -88.403800
  C    -108.529000   56.426000  -88.247100
  H    -109.347000   55.686200  -88.146700
  H    -108.410000   56.907400  -89.258700
  C    -109.017000   57.630200  -87.403200
  H    -108.392000   58.503700  -87.652300
  H    -108.865000   57.460500  -86.296200
  C    -110.457000   58.010500  -87.578800
  H    -110.743000   57.725200  -88.594600
  H    -110.767000   59.067900  -87.636600
  H    -111.091000   57.561400  -86.887400
  H    -108.987000   50.304000  -87.361700
  H    -103.890000   56.850100  -87.861100

 Total Charge           Charge          ....    0
 Multiplicity           Mult            ....    1
 Number of Electrons    NEL             ....  134
 Basis Dimension        Dim             ....  322

ORBITAL ENERGIES
----------------

  NO   OCC          E(Eh)            E(eV)
   0   2.0000     -88.971668     -2421.0422
   1   2.0000     -88.956785     -2420.6372
   2   2.0000     -10.323116      -280.9063
   3   2.0000     -10.322001      -280.8759
   4   2.0000     -10.319966      -280.8206
   5   2.0000     -10.311694      -280.5954
   6   2.0000     -10.308162      -280.4994
   7   2.0000     -10.297638      -280.2130
   8   2.0000     -10.297399      -280.2065
   9   2.0000     -10.297357      -280.2053
  10   2.0000     -10.289296      -279.9860
  11   2.0000     -10.286679      -279.9148
  12   2.0000     -10.285965      -279.8953
  13   2.0000     -10.285429      -279.8807
  14   2.0000     -10.278587      -279.6946
  15   2.0000     -10.272546      -279.5302
  16   2.0000      -8.085766      -220.0249
  17   2.0000      -8.071969      -219.6494
  18   2.0000      -6.044206      -164.4712
  19   2.0000      -6.040375      -164.3670
  20   2.0000      -6.036610      -164.2645
  21   2.0000      -6.030438      -164.0966
  22   2.0000      -6.026692      -163.9946
  23   2.0000      -6.022452      -163.8792
  24   2.0000      -1.005187       -27.3525
  25   2.0000      -0.982568       -26.7370
  26   2.0000      -0.919705       -25.0264
  27   2.0000      -0.911239       -24.7961
  28   2.0000      -0.872005       -23.7285
  29   2.0000      -0.853412       -23.2225
  30   2.0000      -0.848806       -23.0972
  31   2.0000      -0.815356       -22.1870
  32   2.0000      -0.787005       -21.4155
  33   2.0000      -0.771278       -20.9875
  34   2.0000      -0.713340       -19.4110
  35   2.0000      -0.703633       -19.1468
  36   2.0000      -0.695175       -18.9167
  37   2.0000      -0.656322       -17.8594
  38   2.0000      -0.638054       -17.3623
  39   2.0000      -0.619153       -16.8480
  40   2.0000      -0.602268       -16.3885
  41   2.0000      -0.575027       -15.6473
  42   2.0000      -0.570375       -15.5207
  43   2.0000      -0.551674       -15.0118
  44   2.0000      -0.544554       -14.8181
  45   2.0000      -0.521171       -14.1818
  46   2.0000      -0.519445       -14.1348
  47   2.0000      -0.516199       -14.0465
  48   2.0000      -0.510674       -13.8962
  49   2.0000      -0.495846       -13.4927
  50   2.0000      -0.486476       -13.2377
  51   2.0000      -0.481422       -13.1002
  52   2.0000      -0.470490       -12.8027
  53   2.0000      -0.465843       -12.6762
  54   2.0000      -0.458701       -12.4819
  55   2.0000      -0.455715       -12.4006
  56   2.0000      -0.443518       -12.0687
  57   2.0000      -0.440244       -11.9796
  58   2.0000      -0.433600       -11.7988
  59   2.0000      -0.422859       -11.5066
  60   2.0000      -0.416572       -11.3355
  61   2.0000      -0.415472       -11.3056
  62   2.0000      -0.410862       -11.1801
  63   2.0000      -0.341182        -9.2840
  64   2.0000      -0.329477        -8.9655
  65   2.0000      -0.318920        -8.6783
  66   2.0000      -0.295977        -8.0539
  67   0.0000       0.029473         0.8020
  68   0.0000       0.060860         1.6561
  69   0.0000       0.104184         2.8350
  70   0.0000       0.118356         3.2206
  71   0.0000       0.123008         3.3472

MULLIKEN ATOMIC CHARGES
-----------------------
   0 S :    0.142894
   1 C :   -0.123595
   2 C :   -0.135883
   3 C :    0.051654
   4 C :   -0.183934
   5 H :   -0.002257
   6 C :    0.091283
   7 H :    0.010410
   8 H :    0.000599
   9 C :    0.028868
  10 H :    0.002682
  11 H :    0.008529
  12 C :   -0.066482
  13 H :    0.034418
  14 H :    0.034879
  15 H :    0.034800
  16 S :    0.085023
  17 C :   -0.057157
  18 C :   -0.052937
  19 C :   -0.008740
  20 C :   -0.152526
  21 H :    0.039701
  22 C :    0.054801
  23 H :    0.046331
  24 H :    0.038106
  25 C :   -0.120851
  26 H :    0.027161
  27 H :    0.034613
  28 C :   -0.022095
  29 H :    0.011962
  30 H :    0.031579
  31 H :    0.025753
  32 H :    0.058533
  33 H :    0.031879
Sum of atomic charges:    0.0000000

LOEWDIN ATOMIC CHARGES
----------------------
   0 S :    0.418642
   1 C :   -0.214604
   2 C :   -0.067192
   3 C :   -0.048264
   4 C :   -0.200163
   5 H :    0.022938
   6 C :   -0.021659
   7 H :    0.021133
   8 H :    0.027812
   9 C :   -0.035439
  10 H :    0.024705
  11 H :    0.022252
  12 C :   -0.070181
  13 H :    0.027283
  14 H :    0.031462
  15 H :    0.028022
  16 S :    0.389346
  17 C :   -0.160870
  18 C :   -0.076485
  19 C :   -0.049908
  20 C :   -0.204156
  21 H :    0.038825
  22 C :   -0.036310
  23 H :    0.032887
  24 H :    0.043359
  25 C :   -0.049221
  26 H :    0.021937
  27 H :    0.025364
  28 C :   -0.070608
  29 H :    0.025948
  30 H :    0.033214
  31 H :    0.016290
  32 H :    0.041104
  33 H :    0.012537

  Mayer bond orders larger than 0.100000
B(  0-S ,  1-C ) :   1.1595 B(  0-S ,  4-C ) :   1.1320 B(  1-C ,  2-C ) :   1.6064
B(  1-C ,  4-C ) :   0.1035 B(  1-C , 32-H ) :   0.9499 B(  2-C ,  3-C ) :   1.2547
B(  2-C ,  6-C ) :   1.0326 B(  3-C ,  4-C ) :   1.5763 B(  3-C ,  5-H ) :   0.9971
B(  4-C , 20-C ) :   1.0527 B(  6-C ,  7-H ) :   0.9340 B(  6-C ,  8-H ) :   0.9274
B(  6-C ,  9-C ) :   1.0744 B(  9-C , 10-H ) :   0.9398 B(  9-C , 11-H ) :   0.9442
B(  9-C , 12-C ) :   1.0840 B( 12-C , 13-H ) :   0.9728 B( 12-C , 14-H ) :   0.9672
B( 12-C , 15-H ) :   0.9701 B( 16-S , 17-C ) :   1.1553 B( 16-S , 20-C ) :   1.1360
B( 17-C , 18-C ) :   1.6147 B( 17-C , 20-C ) :   0.1014 B( 17-C , 33-H ) :   0.9797
B( 18-C , 19-C ) :   1.2166 B( 18-C , 21-H ) :   0.9807 B( 19-C , 20-C ) :   1.5847
B( 19-C , 22-C ) :   1.0557 B( 22-C , 23-H ) :   0.9475 B( 22-C , 24-H ) :   0.9166
B( 22-C , 25-C ) :   1.0607 B( 25-C , 26-H ) :   0.9505 B( 25-C , 27-H ) :   0.9609
B( 25-C , 28-C ) :   1.0803 B( 28-C , 29-H ) :   0.9673 B( 28-C , 30-H ) :   0.9721
B( 28-C , 31-H ) :   0.9766

Dispersion correction           -0.015414495
FINAL SINGLE POINT ENERGY     -1339.849331380957

DIPOLE MOMENT
-------------
                                X             Y             Z
Electronic contribution:     28.50974     -13.01437      -5.22381
Nuclear contribution   :    -29.23610      13.39473       5.36689
                        -----------------------------------------
Total Dipole Moment    :     -0.72635       0.38036       0.14307
                        -----------------------------------------
Magnitude (a.u.)       :      0.83230
Magnitude (Debye)      :      2.11555

Rotational constants in cm-1:     0.016072     0.011039     0.007149
Rotational constants in MHz :   481.833228   330.944231   214.325951

                             ****ORCA TERMINATED NORMALLY****
TOTAL RUN TIME: 0 days 0 hours 0 minutes 23 seconds 823 msec
