                         Program Version 4.2.1 -  RELEASE  -
|  1> ! wB97X-D3 SP def2-SVP
|  2> %pal
|  3> nprocs 24
|  4> end
|  5>
|  6> * xyz 0 1
|  7> S 	 -49.0127 	 24.2565 	 30.7739
|  8> C 	 -47.8256 	 25.5015 	 30.5382
|  9> C 	 -46.5355 	 25.1247 	 30.915
| 10> C 	 -46.5022 	 23.6834 	 31.2006
| 11> C 	 -47.7428 	 23.049 	 31.0779
| 12> H 	 -45.7254 	 23.064 	 31.5336
| 13> C 	 -45.3082 	 25.9356 	 31.0601
| 14> H 	 -45.1369 	 26.5956 	 30.1947
| 15> H 	 -44.4311 	 25.3658 	 31.209
| 16> C 	 -45.2569 	 26.8303 	 32.2956
| 17> H 	 -46.2554 	 27.2539 	 32.4676
| 18> H 	 -45.0761 	 26.1015 	 33.0817
| 19> C 	 -44.2544 	 27.9782 	 32.3558
| 20> H 	 -44.752 	 28.7833 	 31.7566
| 21> H 	 -44.2128 	 28.1886 	 33.3501
| 22> H 	 -43.2484 	 27.8371 	 31.9866
| 23> S 	 -48.8931 	 20.8962 	 29.8044
| 24> C 	 -48.8779 	 19.3423 	 30.5898
| 25> C 	 -48.1928 	 19.4008 	 31.7997
| 26> C 	 -47.5665 	 20.6487 	 32.0187
| 27> C 	 -48.0328 	 21.6424 	 31.1255
| 28> H 	 -48.0806 	 18.519 	 32.3243
| 29> C 	 -46.6 	 20.8348 	 33.1418
| 30> H 	 -46.3981 	 21.9136 	 33.3227
| 31> H 	 -45.6469 	 20.5153 	 32.7176
| 32> C 	 -46.9135 	 20.1945 	 34.524
| 33> H 	 -46.9655 	 19.0712 	 34.4098
| 34> H 	 -47.834 	 20.5547 	 34.8426
| 35> C 	 -45.8764 	 20.6383 	 35.5751
| 36> H 	 -46.1508 	 21.5736 	 36.0988
| 37> H 	 -44.8577 	 20.6567 	 35.2756
| 38> H 	 -45.9774 	 19.9659 	 36.4454
| 39> H 	 -47.9553 	 26.5329 	 30.2997
| 40> H 	 -49.2949 	 18.4199 	 30.1966
| 41> *
| 42>
| 43>                          ****END OF INPUT****

CARTESIAN COORDINATES (ANGSTROEM)
---------------------------------
  S    -49.012700   24.256500   30.773900
  C    -47.825600   25.501500   30.538200
  C    -46.535500   25.124700   30.915000
  C    -46.502200   23.683400   31.200600
  C    -47.742800   23.049000   31.077900
  H    -45.725400   23.064000   31.533600
  C    -45.308200   25.935600   31.060100
  H    -45.136900   26.595600   30.194700
  H    -44.431100   25.365800   31.209000
  C    -45.256900   26.830300   32.295600
  H    -46.255400   27.253900   32.467600
  H    -45.076100   26.101500   33.081700
  C    -44.254400   27.978200   32.355800
  H    -44.752000   28.783300   31.756600
  H    -44.212800   28.188600   33.350100
  H    -43.248400   27.837100   31.986600
  S    -48.893100   20.896200   29.804400
  C    -48.877900   19.342300   30.589800
  C    -48.192800   19.400800   31.799700
  C    -47.566500   20.648700   32.018700
  C    -48.032800   21.642400   31.125500
  H    -48.080600   18.519000   32.324300
  C    -46.600000   20.834800   33.141800
  H    -46.398100   21.913600   33.322700
  H    -45.646900   20.515300   32.717600
  C    -46.913500   20.194500   34.524000
  H    -46.965500   19.071200   34.409800
  H    -47.834000   20.554700   34.842600
  C    -45.876400   20.638300   35.575100
  H    -46.150800   21.573600   36.098800
  H    -44.857700   20.656700   35.275600
  H    -45.977400   19.965900   36.445400
  H    -47.955300   26.532900   30.299700
  H    -49.294900   18.419900   30.196600

 Total Charge           Charge          ....    0
 Multiplicity           Mult            ....    1
 Number of Electrons    NEL             ....  134
 Basis Dimension        Dim             ....  322

ORBITAL ENERGIES
----------------

  NO   OCC          E(Eh)            E(eV)
   0   2.0000     -88.967338     -2420.9243
   1   2.0000     -88.966365     -2420.8979
   2   2.0000     -10.328622      -281.0561
   3   2.0000     -10.324731      -280.9502
   4   2.0000     -10.317037      -280.7409
   5   2.0000     -10.312389      -280.6144
   6   2.0000     -10.304356      -280.3958
   7   2.0000     -10.303854      -280.3821
   8   2.0000     -10.292835      -280.0823
   9   2.0000     -10.292462      -280.0721
  10   2.0000     -10.291697      -280.0513
  11   2.0000     -10.287289      -279.9314
  12   2.0000     -10.284759      -279.8625
  13   2.0000     -10.282282      -279.7951
  14   2.0000     -10.280748      -279.7534
  15   2.0000     -10.274776      -279.5909
  16   2.0000      -8.081587      -219.9112
  17   2.0000      -8.081132      -219.8988
  18   2.0000      -6.040240      -164.3633
  19   2.0000      -6.039609      -164.3461
  20   2.0000      -6.036205      -164.2535
  21   2.0000      -6.035550      -164.2357
  22   2.0000      -6.032174      -164.1438
  23   2.0000      -6.031997      -164.1390
  24   2.0000      -1.004192       -27.3254
  25   2.0000      -0.980410       -26.6783
  26   2.0000      -0.916937       -24.9511
  27   2.0000      -0.909186       -24.7402
  28   2.0000      -0.871292       -23.7091
  29   2.0000      -0.854612       -23.2552
  30   2.0000      -0.848702       -23.0944
  31   2.0000      -0.814310       -22.1585
  32   2.0000      -0.786711       -21.4075
  33   2.0000      -0.772315       -21.0157
  34   2.0000      -0.711989       -19.3742
  35   2.0000      -0.700568       -19.0634
  36   2.0000      -0.694834       -18.9074
  37   2.0000      -0.660065       -17.9613
  38   2.0000      -0.642231       -17.4760
  39   2.0000      -0.616920       -16.7872
  40   2.0000      -0.597308       -16.2536
  41   2.0000      -0.582269       -15.8443
  42   2.0000      -0.567218       -15.4348
  43   2.0000      -0.563955       -15.3460
  44   2.0000      -0.530712       -14.4414
  45   2.0000      -0.526466       -14.3259
  46   2.0000      -0.524693       -14.2776
  47   2.0000      -0.508406       -13.8344
  48   2.0000      -0.506271       -13.7763
  49   2.0000      -0.500095       -13.6083
  50   2.0000      -0.491589       -13.3768
  51   2.0000      -0.480424       -13.0730
  52   2.0000      -0.471164       -12.8210
  53   2.0000      -0.470208       -12.7950
  54   2.0000      -0.457847       -12.4586
  55   2.0000      -0.448342       -12.2000
  56   2.0000      -0.445799       -12.1308
  57   2.0000      -0.440178       -11.9778
  58   2.0000      -0.430538       -11.7155
  59   2.0000      -0.429469       -11.6864
  60   2.0000      -0.426348       -11.6015
  61   2.0000      -0.412608       -11.2276
  62   2.0000      -0.410946       -11.1824
  63   2.0000      -0.347766        -9.4632
  64   2.0000      -0.329172        -8.9572
  65   2.0000      -0.323935        -8.8147
  66   2.0000      -0.285231        -7.7615
  67   0.0000       0.026234         0.7139
  68   0.0000       0.070938         1.9303
  69   0.0000       0.109046         2.9673
  70   0.0000       0.118945         3.2367
  71   0.0000       0.130446         3.5496

MULLIKEN ATOMIC CHARGES
-----------------------
   0 S :    0.122683
   1 C :   -0.088444
   2 C :   -0.093363
   3 C :    0.051882
   4 C :   -0.180067
   5 H :   -0.013824
   6 C :    0.098269
   7 H :    0.023537
   8 H :    0.007514
   9 C :   -0.125769
  10 H :    0.025829
  11 H :    0.016681
  12 C :    0.002113
  13 H :    0.037315
  14 H :    0.020251
  15 H :    0.030423
  16 S :    0.122960
  17 C :   -0.095937
  18 C :   -0.015447
  19 C :   -0.017910
  20 C :   -0.149758
  21 H :   -0.010982
  22 C :    0.018472
  23 H :    0.024974
  24 H :    0.036307
  25 C :   -0.043594
  26 H :    0.043507
  27 H :    0.021824
  28 C :   -0.054694
  29 H :    0.036946
  30 H :    0.033179
  31 H :    0.025835
  32 H :    0.031102
  33 H :    0.058187
Sum of atomic charges:    0.0000000

LOEWDIN ATOMIC CHARGES
----------------------
   0 S :    0.402298
   1 C :   -0.199973
   2 C :   -0.054618
   3 C :   -0.053804
   4 C :   -0.185993
   5 H :    0.018875
   6 C :   -0.037707
   7 H :    0.030790
   8 H :    0.026004
   9 C :   -0.039318
  10 H :    0.021820
  11 H :    0.017966
  12 C :   -0.056681
  13 H :    0.034202
  14 H :    0.017917
  15 H :    0.023283
  16 S :    0.421615
  17 C :   -0.186086
  18 C :   -0.065886
  19 C :   -0.048935
  20 C :   -0.214271
  21 H :    0.018429
  22 C :   -0.042352
  23 H :    0.032000
  24 H :    0.034039
  25 C :   -0.029891
  26 H :    0.027619
  27 H :    0.019921
  28 C :   -0.069233
  29 H :    0.032004
  30 H :    0.019422
  31 H :    0.030883
  32 H :    0.024548
  33 H :    0.031114

  Mayer bond orders larger than 0.100000
B(  0-S ,  1-C ) :   1.1336 B(  0-S ,  4-C ) :   1.1357 B(  1-C ,  2-C ) :   1.6192
B(  1-C , 32-H ) :   0.9642 B(  2-C ,  3-C ) :   1.2146 B(  2-C ,  6-C ) :   1.0465
B(  3-C ,  4-C ) :   1.5807 B(  3-C ,  5-H ) :   0.9950 B(  4-C , 20-C ) :   1.0714
B(  6-C ,  7-H ) :   0.9361 B(  6-C ,  8-H ) :   0.9394 B(  6-C ,  9-C ) :   1.0466
B(  9-C , 10-H ) :   0.9616 B(  9-C , 11-H ) :   0.9616 B(  9-C , 12-C ) :   1.0732
B( 12-C , 13-H ) :   0.9746 B( 12-C , 14-H ) :   0.9715 B( 12-C , 15-H ) :   0.9764
B( 16-S , 17-C ) :   1.1682 B( 16-S , 20-C ) :   1.1493 B( 17-C , 18-C ) :   1.5814
B( 17-C , 20-C ) :   0.1053 B( 17-C , 33-H ) :   0.9663 B( 18-C , 19-C ) :   1.2648
B( 18-C , 21-H ) :   1.0029 B( 19-C , 20-C ) :   1.5345 B( 19-C , 22-C ) :   1.0551
B( 22-C , 23-H ) :   0.9312 B( 22-C , 24-H ) :   0.9191 B( 22-C , 25-C ) :   1.0627
B( 25-C , 26-H ) :   0.9528 B( 25-C , 27-H ) :   0.9559 B( 25-C , 28-C ) :   1.0872
B( 28-C , 29-H ) :   0.9724 B( 28-C , 30-H ) :   0.9782 B( 28-C , 31-H ) :   0.9710

Dispersion correction           -0.013440736
FINAL SINGLE POINT ENERGY     -1339.861109255298

DIPOLE MOMENT
-------------
                                X             Y             Z
Electronic contribution:    -21.56969      -8.90645     -20.27458
Nuclear contribution   :     22.16717       8.83207      20.79863
                        -----------------------------------------
Total Dipole Moment    :      0.59748      -0.07438       0.52406
                        -----------------------------------------
Magnitude (a.u.)       :      0.79822
Magnitude (Debye)      :      2.02891

Rotational constants in cm-1:     0.017620     0.008202     0.006016
Rotational constants in MHz :   528.230879   245.897726   180.359315

                             ****ORCA TERMINATED NORMALLY****
TOTAL RUN TIME: 0 days 0 hours 0 minutes 21 seconds 147 msec
