                         Program Version 4.2.1 -  RELEASE  -
|  1> ! wB97X-D3 SP def2-SVP
|  2> %pal
|  3> nprocs 24
|  4> end
|  5>
|  6> * xyz 0 1
|  7> S 	 -43.4969 	 -52.4227 	 -74.8712
|  8> C 	 -43.0363 	 -50.9663 	 -75.528
|  9> C 	 -41.8919 	 -50.504 	 -74.9127
| 10> C 	 -41.3135 	 -51.43 	 -73.9703
| 11> C 	 -42.1564 	 -52.4792 	 -73.7631
| 12> H 	 -40.4358 	 -51.4134 	 -73.3274
| 13> C 	 -41.2813 	 -49.148 	 -75.3838
| 14> H 	 -41.9769 	 -48.3141 	 -75.3122
| 15> H 	 -41.0025 	 -49.3169 	 -76.4262
| 16> C 	 -39.9298 	 -48.753 	 -74.7232
| 17> H 	 -39.147 	 -49.5085 	 -74.5682
| 18> H 	 -39.4517 	 -48.0248 	 -75.4344
| 19> C 	 -40.0925 	 -48.1121 	 -73.2611
| 20> H 	 -40.7612 	 -47.3543 	 -73.2769
| 21> H 	 -40.4849 	 -48.6818 	 -72.4515
| 22> H 	 -39.1351 	 -47.8667 	 -72.8071
| 23> S 	 -42.4052 	 -55.188 	 -73.4275
| 24> C 	 -41.8927 	 -55.9407 	 -71.9279
| 25> C 	 -41.5215 	 -54.9839 	 -71.0235
| 26> C 	 -41.4473 	 -53.6217 	 -71.5205
| 27> C 	 -41.9835 	 -53.5526 	 -72.8011
| 28> H 	 -41.216 	 -55.3197 	 -70.0457
| 29> C 	 -40.8836 	 -52.559 	 -70.5549
| 30> H 	 -40.2779 	 -51.9069 	 -71.1103
| 31> H 	 -40.2062 	 -53.1521 	 -69.9447
| 32> C 	 -42.0079 	 -51.9351 	 -69.7165
| 33> H 	 -42.3522 	 -52.6393 	 -68.9623
| 34> H 	 -42.8052 	 -51.6713 	 -70.3739
| 35> C 	 -41.5702 	 -50.7019 	 -68.9077
| 36> H 	 -41.0979 	 -51.0229 	 -68.0172
| 37> H 	 -42.3025 	 -49.9854 	 -68.5738
| 38> H 	 -40.8418 	 -50.0842 	 -69.4602
| 39> H 	 -43.3611 	 -50.5916 	 -76.4707
| 40> H 	 -41.9477 	 -56.9918 	 -71.7838
| 41> *
| 42>
| 43>                          ****END OF INPUT****

CARTESIAN COORDINATES (ANGSTROEM)
---------------------------------
  S    -43.496900  -52.422700  -74.871200
  C    -43.036300  -50.966300  -75.528000
  C    -41.891900  -50.504000  -74.912700
  C    -41.313500  -51.430000  -73.970300
  C    -42.156400  -52.479200  -73.763100
  H    -40.435800  -51.413400  -73.327400
  C    -41.281300  -49.148000  -75.383800
  H    -41.976900  -48.314100  -75.312200
  H    -41.002500  -49.316900  -76.426200
  C    -39.929800  -48.753000  -74.723200
  H    -39.147000  -49.508500  -74.568200
  H    -39.451700  -48.024800  -75.434400
  C    -40.092500  -48.112100  -73.261100
  H    -40.761200  -47.354300  -73.276900
  H    -40.484900  -48.681800  -72.451500
  H    -39.135100  -47.866700  -72.807100
  S    -42.405200  -55.188000  -73.427500
  C    -41.892700  -55.940700  -71.927900
  C    -41.521500  -54.983900  -71.023500
  C    -41.447300  -53.621700  -71.520500
  C    -41.983500  -53.552600  -72.801100
  H    -41.216000  -55.319700  -70.045700
  C    -40.883600  -52.559000  -70.554900
  H    -40.277900  -51.906900  -71.110300
  H    -40.206200  -53.152100  -69.944700
  C    -42.007900  -51.935100  -69.716500
  H    -42.352200  -52.639300  -68.962300
  H    -42.805200  -51.671300  -70.373900
  C    -41.570200  -50.701900  -68.907700
  H    -41.097900  -51.022900  -68.017200
  H    -42.302500  -49.985400  -68.573800
  H    -40.841800  -50.084200  -69.460200
  H    -43.361100  -50.591600  -76.470700
  H    -41.947700  -56.991800  -71.783800

 Total Charge           Charge          ....    0
 Multiplicity           Mult            ....    1
 Number of Electrons    NEL             ....  134
 Basis Dimension        Dim             ....  322

ORBITAL ENERGIES
----------------

  NO   OCC          E(Eh)            E(eV)
   0   2.0000     -88.962076     -2420.7812
   1   2.0000     -88.961186     -2420.7569
   2   2.0000     -10.331742      -281.1410
   3   2.0000     -10.323697      -280.9221
   4   2.0000     -10.315366      -280.6954
   5   2.0000     -10.309772      -280.5431
   6   2.0000     -10.303284      -280.3666
   7   2.0000     -10.301802      -280.3263
   8   2.0000     -10.297764      -280.2164
   9   2.0000     -10.296613      -280.1851
  10   2.0000     -10.295393      -280.1519
  11   2.0000     -10.293857      -280.1101
  12   2.0000     -10.293246      -280.0935
  13   2.0000     -10.286346      -279.9057
  14   2.0000     -10.273393      -279.5532
  15   2.0000     -10.268094      -279.4090
  16   2.0000      -8.078700      -219.8326
  17   2.0000      -8.075530      -219.7463
  18   2.0000      -6.037055      -164.2766
  19   2.0000      -6.034203      -164.1990
  20   2.0000      -6.032763      -164.1598
  21   2.0000      -6.030088      -164.0870
  22   2.0000      -6.029688      -164.0761
  23   2.0000      -6.026152      -163.9799
  24   2.0000      -1.012630       -27.5551
  25   2.0000      -0.983938       -26.7743
  26   2.0000      -0.910924       -24.7875
  27   2.0000      -0.900184       -24.4953
  28   2.0000      -0.874650       -23.8004
  29   2.0000      -0.850648       -23.1473
  30   2.0000      -0.841911       -22.9096
  31   2.0000      -0.817520       -22.2458
  32   2.0000      -0.785921       -21.3860
  33   2.0000      -0.776456       -21.1284
  34   2.0000      -0.713397       -19.4125
  35   2.0000      -0.704257       -19.1638
  36   2.0000      -0.691732       -18.8230
  37   2.0000      -0.664096       -18.0710
  38   2.0000      -0.645953       -17.5773
  39   2.0000      -0.617302       -16.7976
  40   2.0000      -0.596644       -16.2355
  41   2.0000      -0.571437       -15.5496
  42   2.0000      -0.566381       -15.4120
  43   2.0000      -0.546942       -14.8830
  44   2.0000      -0.530170       -14.4267
  45   2.0000      -0.524454       -14.2711
  46   2.0000      -0.517308       -14.0767
  47   2.0000      -0.514844       -14.0096
  48   2.0000      -0.509493       -13.8640
  49   2.0000      -0.504911       -13.7393
  50   2.0000      -0.493372       -13.4253
  51   2.0000      -0.487229       -13.2582
  52   2.0000      -0.478929       -13.0323
  53   2.0000      -0.462529       -12.5860
  54   2.0000      -0.457882       -12.4596
  55   2.0000      -0.444873       -12.1056
  56   2.0000      -0.442709       -12.0467
  57   2.0000      -0.439695       -11.9647
  58   2.0000      -0.432947       -11.7811
  59   2.0000      -0.429400       -11.6846
  60   2.0000      -0.423483       -11.5236
  61   2.0000      -0.416298       -11.3280
  62   2.0000      -0.401499       -10.9253
  63   2.0000      -0.356166        -9.6918
  64   2.0000      -0.329982        -8.9793
  65   2.0000      -0.327576        -8.9138
  66   2.0000      -0.288290        -7.8448
  67   0.0000       0.027491         0.7481
  68   0.0000       0.078701         2.1416
  69   0.0000       0.109486         2.9793
  70   0.0000       0.118586         3.2269
  71   0.0000       0.131036         3.5657

MULLIKEN ATOMIC CHARGES
-----------------------
   0 S :    0.121995
   1 C :   -0.094944
   2 C :   -0.103964
   3 C :    0.016133
   4 C :   -0.136009
   5 H :    0.010955
   6 C :    0.059808
   7 H :    0.045313
   8 H :    0.040411
   9 C :   -0.102200
  10 H :    0.034035
  11 H :    0.038082
  12 C :   -0.023783
  13 H :    0.002971
  14 H :    0.012308
  15 H :    0.026444
  16 S :    0.078866
  17 C :   -0.076031
  18 C :   -0.031808
  19 C :   -0.075522
  20 C :   -0.152429
  21 H :    0.012144
  22 C :    0.122849
  23 H :    0.002505
  24 H :    0.015815
  25 C :   -0.046216
  26 H :    0.031861
  27 H :    0.039867
  28 C :   -0.037200
  29 H :    0.017229
  30 H :    0.032078
  31 H :    0.022614
  32 H :    0.045138
  33 H :    0.050684
Sum of atomic charges:   -0.0000000

LOEWDIN ATOMIC CHARGES
----------------------
   0 S :    0.442016
   1 C :   -0.228235
   2 C :   -0.060170
   3 C :   -0.069041
   4 C :   -0.198805
   5 H :    0.034553
   6 C :   -0.031953
   7 H :    0.033013
   8 H :    0.035830
   9 C :   -0.041418
  10 H :    0.024279
  11 H :    0.031435
  12 C :   -0.068090
  13 H :    0.007643
  14 H :    0.022488
  15 H :    0.027428
  16 S :    0.373424
  17 C :   -0.172768
  18 C :   -0.071811
  19 C :   -0.049583
  20 C :   -0.178398
  21 H :    0.027142
  22 C :   -0.016269
  23 H :    0.017396
  24 H :    0.031757
  25 C :   -0.030361
  26 H :    0.029198
  27 H :    0.025738
  28 C :   -0.068073
  29 H :    0.018876
  30 H :    0.026559
  31 H :    0.023672
  32 H :    0.028022
  33 H :    0.024505

  Mayer bond orders larger than 0.100000
B(  0-S ,  1-C ) :   1.1574 B(  0-S ,  4-C ) :   1.1640 B(  1-C ,  2-C ) :   1.5993
B(  1-C , 32-H ) :   0.9740 B(  2-C ,  3-C ) :   1.2435 B(  2-C ,  6-C ) :   0.9958
B(  3-C ,  4-C ) :   1.5724 B(  3-C ,  5-H ) :   0.9952 B(  4-C , 20-C ) :   1.0454
B(  6-C ,  7-H ) :   0.9499 B(  6-C ,  8-H ) :   0.9437 B(  6-C ,  9-C ) :   1.0778
B(  9-C , 10-H ) :   0.9588 B(  9-C , 11-H ) :   0.9588 B(  9-C , 12-C ) :   1.0590
B( 12-C , 13-H ) :   0.9759 B( 12-C , 14-H ) :   0.9753 B( 12-C , 15-H ) :   0.9763
B( 16-S , 17-C ) :   1.1383 B( 16-S , 20-C ) :   1.1264 B( 17-C , 18-C ) :   1.6371
B( 17-C , 33-H ) :   0.9732 B( 18-C , 19-C ) :   1.2100 B( 18-C , 21-H ) :   0.9858
B( 19-C , 20-C ) :   1.6250 B( 19-C , 22-C ) :   1.0282 B( 22-C , 23-H ) :   0.9355
B( 22-C , 24-H ) :   0.9257 B( 22-C , 25-C ) :   1.0642 B( 25-C , 26-H ) :   0.9562
B( 25-C , 27-H ) :   0.9627 B( 25-C , 28-C ) :   1.0750 B( 28-C , 29-H ) :   0.9760
B( 28-C , 30-H ) :   0.9753 B( 28-C , 31-H ) :   0.9766

Dispersion correction           -0.014304635
FINAL SINGLE POINT ENERGY     -1339.860219161530

DIPOLE MOMENT
-------------
                                X             Y             Z
Electronic contribution:    -13.05761     -24.15918     -15.03809
Nuclear contribution   :     13.47804      24.49410      15.41124
                        -----------------------------------------
Total Dipole Moment    :      0.42042       0.33492       0.37316
                        -----------------------------------------
Magnitude (a.u.)       :      0.65435
Magnitude (Debye)      :      1.66323

Rotational constants in cm-1:     0.016174     0.010252     0.007023
Rotational constants in MHz :   484.882174   307.360740   210.536446

                             ****ORCA TERMINATED NORMALLY****
TOTAL RUN TIME: 0 days 0 hours 0 minutes 20 seconds 860 msec
