                         Program Version 4.2.1 -  RELEASE  -
|  1> ! wB97X-D3 SP def2-SVP
|  2> %pal
|  3> nprocs 24
|  4> end
|  5>
|  6> * xyz 0 1
|  7> S 	 -114.215 	 60.131 	 -30.8439
|  8> C 	 -114.105 	 59.3831 	 -29.2407
|  9> C 	 -115.338 	 59.4393 	 -28.6039
| 10> C 	 -116.337 	 60.1215 	 -29.4062
| 11> C 	 -115.915 	 60.3866 	 -30.6678
| 12> H 	 -117.325 	 60.2586 	 -29.0339
| 13> C 	 -115.505 	 59.1041 	 -27.1687
| 14> H 	 -114.563 	 58.6044 	 -26.7765
| 15> H 	 -116.217 	 58.3004 	 -27.1691
| 16> C 	 -115.892 	 60.2855 	 -26.1886
| 17> H 	 -115.133 	 61.0514 	 -26.3104
| 18> H 	 -116.781 	 60.6862 	 -26.6407
| 19> C 	 -116.088 	 60.0768 	 -24.6607
| 20> H 	 -115.145 	 59.696 	 -24.1692
| 21> H 	 -116.211 	 61.0312 	 -24.2037
| 22> H 	 -116.826 	 59.2996 	 -24.3709
| 23> S 	 -116.336 	 62.5512 	 -32.1086
| 24> C 	 -117.879 	 62.8629 	 -32.93
| 25> C 	 -118.591 	 61.6529 	 -32.9362
| 26> C 	 -117.977 	 60.6204 	 -32.1364
| 27> C 	 -116.76 	 60.9935 	 -31.652
| 28> H 	 -119.562 	 61.6682 	 -33.4377
| 29> C 	 -118.673 	 59.3297 	 -31.8102
| 30> H 	 -118.516 	 59.2139 	 -30.7483
| 31> H 	 -118.123 	 58.5017 	 -32.3229
| 32> C 	 -120.233 	 59.3648 	 -32.1197
| 33> H 	 -120.481 	 59.5568 	 -33.2095
| 34> H 	 -120.686 	 60.1363 	 -31.4259
| 35> C 	 -120.916 	 58.0554 	 -31.6998
| 36> H 	 -120.819 	 57.9149 	 -30.646
| 37> H 	 -120.445 	 57.2078 	 -32.1386
| 38> H 	 -121.995 	 57.8501 	 -31.7757
| 39> H 	 -113.252 	 58.9147 	 -28.795
| 40> H 	 -118.073 	 63.7017 	 -33.5322
| 41> *
| 42>
| 43>                          ****END OF INPUT****

CARTESIAN COORDINATES (ANGSTROEM)
---------------------------------
  S    -114.215000   60.131000  -30.843900
  C    -114.105000   59.383100  -29.240700
  C    -115.338000   59.439300  -28.603900
  C    -116.337000   60.121500  -29.406200
  C    -115.915000   60.386600  -30.667800
  H    -117.325000   60.258600  -29.033900
  C    -115.505000   59.104100  -27.168700
  H    -114.563000   58.604400  -26.776500
  H    -116.217000   58.300400  -27.169100
  C    -115.892000   60.285500  -26.188600
  H    -115.133000   61.051400  -26.310400
  H    -116.781000   60.686200  -26.640700
  C    -116.088000   60.076800  -24.660700
  H    -115.145000   59.696000  -24.169200
  H    -116.211000   61.031200  -24.203700
  H    -116.826000   59.299600  -24.370900
  S    -116.336000   62.551200  -32.108600
  C    -117.879000   62.862900  -32.930000
  C    -118.591000   61.652900  -32.936200
  C    -117.977000   60.620400  -32.136400
  C    -116.760000   60.993500  -31.652000
  H    -119.562000   61.668200  -33.437700
  C    -118.673000   59.329700  -31.810200
  H    -118.516000   59.213900  -30.748300
  H    -118.123000   58.501700  -32.322900
  C    -120.233000   59.364800  -32.119700
  H    -120.481000   59.556800  -33.209500
  H    -120.686000   60.136300  -31.425900
  C    -120.916000   58.055400  -31.699800
  H    -120.819000   57.914900  -30.646000
  H    -120.445000   57.207800  -32.138600
  H    -121.995000   57.850100  -31.775700
  H    -113.252000   58.914700  -28.795000
  H    -118.073000   63.701700  -33.532200

 Total Charge           Charge          ....    0
 Multiplicity           Mult            ....    1
 Number of Electrons    NEL             ....  134
 Basis Dimension        Dim             ....  322

ORBITAL ENERGIES
----------------

  NO   OCC          E(Eh)            E(eV)
   0   2.0000     -88.967926     -2420.9403
   1   2.0000     -88.959999     -2420.7247
   2   2.0000     -10.326021      -280.9853
   3   2.0000     -10.315563      -280.7007
   4   2.0000     -10.315384      -280.6959
   5   2.0000     -10.314487      -280.6715
   6   2.0000     -10.303036      -280.3599
   7   2.0000     -10.300807      -280.2992
   8   2.0000     -10.300090      -280.2797
   9   2.0000     -10.297342      -280.2049
  10   2.0000     -10.296344      -280.1778
  11   2.0000     -10.295496      -280.1547
  12   2.0000     -10.292002      -280.0596
  13   2.0000     -10.291869      -280.0560
  14   2.0000     -10.287705      -279.9427
  15   2.0000     -10.272346      -279.5247
  16   2.0000      -8.082633      -219.9396
  17   2.0000      -8.076006      -219.7593
  18   2.0000      -6.041251      -164.3908
  19   2.0000      -6.037158      -164.2794
  20   2.0000      -6.034441      -164.2055
  21   2.0000      -6.033257      -164.1733
  22   2.0000      -6.030140      -164.0885
  23   2.0000      -6.026944      -164.0015
  24   2.0000      -1.016098       -27.6494
  25   2.0000      -0.986066       -26.8322
  26   2.0000      -0.908447       -24.7201
  27   2.0000      -0.904000       -24.5991
  28   2.0000      -0.872520       -23.7425
  29   2.0000      -0.852341       -23.1934
  30   2.0000      -0.846139       -23.0246
  31   2.0000      -0.819699       -22.3051
  32   2.0000      -0.780382       -21.2353
  33   2.0000      -0.771007       -20.9802
  34   2.0000      -0.712271       -19.3819
  35   2.0000      -0.706224       -19.2173
  36   2.0000      -0.698670       -19.0118
  37   2.0000      -0.656382       -17.8610
  38   2.0000      -0.641179       -17.4474
  39   2.0000      -0.624934       -17.0053
  40   2.0000      -0.592385       -16.1196
  41   2.0000      -0.569639       -15.5007
  42   2.0000      -0.566004       -15.4017
  43   2.0000      -0.554852       -15.0983
  44   2.0000      -0.532620       -14.4933
  45   2.0000      -0.525029       -14.2868
  46   2.0000      -0.521640       -14.1945
  47   2.0000      -0.510844       -13.9008
  48   2.0000      -0.508110       -13.8264
  49   2.0000      -0.502568       -13.6756
  50   2.0000      -0.497342       -13.5334
  51   2.0000      -0.473193       -12.8762
  52   2.0000      -0.470560       -12.8046
  53   2.0000      -0.466422       -12.6920
  54   2.0000      -0.458043       -12.4640
  55   2.0000      -0.453529       -12.3411
  56   2.0000      -0.448861       -12.2141
  57   2.0000      -0.435608       -11.8535
  58   2.0000      -0.429465       -11.6863
  59   2.0000      -0.426169       -11.5967
  60   2.0000      -0.419036       -11.4026
  61   2.0000      -0.417551       -11.3621
  62   2.0000      -0.409723       -11.1491
  63   2.0000      -0.346001        -9.4152
  64   2.0000      -0.329556        -8.9677
  65   2.0000      -0.323950        -8.8151
  66   2.0000      -0.298867        -8.1326
  67   0.0000       0.036302         0.9878
  68   0.0000       0.067426         1.8347
  69   0.0000       0.113249         3.0817
  70   0.0000       0.122775         3.3409
  71   0.0000       0.132857         3.6152

MULLIKEN ATOMIC CHARGES
-----------------------
   0 S :    0.116299
   1 C :   -0.114186
   2 C :   -0.096415
   3 C :    0.034287
   4 C :   -0.155498
   5 H :    0.014994
   6 C :    0.057296
   7 H :    0.016625
   8 H :    0.023152
   9 C :   -0.070714
  10 H :    0.031589
  11 H :    0.021329
  12 C :   -0.048082
  13 H :    0.027453
  14 H :    0.038992
  15 H :    0.042938
  16 S :    0.101261
  17 C :   -0.088585
  18 C :   -0.052166
  19 C :   -0.068320
  20 C :   -0.126154
  21 H :    0.030290
  22 C :    0.093970
  23 H :    0.014170
  24 H :    0.051023
  25 C :   -0.127963
  26 H :    0.058305
  27 H :    0.048346
  28 C :   -0.021357
  29 H :    0.008066
  30 H :    0.016559
  31 H :    0.033258
  32 H :    0.042656
  33 H :    0.046582
Sum of atomic charges:    0.0000000

LOEWDIN ATOMIC CHARGES
----------------------
   0 S :    0.404965
   1 C :   -0.188983
   2 C :   -0.060974
   3 C :   -0.056629
   4 C :   -0.199656
   5 H :    0.025788
   6 C :   -0.038232
   7 H :    0.031275
   8 H :    0.025732
   9 C :   -0.037352
  10 H :    0.027518
  11 H :    0.018654
  12 C :   -0.068900
  13 H :    0.029793
  14 H :    0.027589
  15 H :    0.029223
  16 S :    0.428189
  17 C :   -0.178808
  18 C :   -0.067894
  19 C :   -0.064332
  20 C :   -0.223104
  21 H :    0.034248
  22 C :   -0.029711
  23 H :    0.029732
  24 H :    0.041312
  25 C :   -0.043818
  26 H :    0.030716
  27 H :    0.034710
  28 C :   -0.077134
  29 H :    0.020312
  30 H :    0.019036
  31 H :    0.030263
  32 H :    0.026509
  33 H :    0.019964

  Mayer bond orders larger than 0.100000
B(  0-S ,  1-C ) :   1.1200 B(  0-S ,  4-C ) :   1.1488 B(  1-C ,  2-C ) :   1.6236
B(  1-C , 32-H ) :   0.9692 B(  2-C ,  3-C ) :   1.2265 B(  2-C ,  6-C ) :   1.0442
B(  3-C ,  4-C ) :   1.5861 B(  3-C ,  5-H ) :   0.9890 B(  4-C , 20-C ) :   1.0104
B(  6-C ,  7-H ) :   0.9421 B(  6-C ,  8-H ) :   0.9274 B(  6-C ,  9-C ) :   1.0449
B(  9-C , 10-H ) :   0.9573 B(  9-C , 11-H ) :   0.9566 B(  9-C , 12-C ) :   1.0841
B( 12-C , 13-H ) :   0.9732 B( 12-C , 14-H ) :   0.9726 B( 12-C , 15-H ) :   0.9760
B( 16-S , 17-C ) :   1.1592 B( 16-S , 20-C ) :   1.1695 B( 17-C , 18-C ) :   1.5908
B( 17-C , 20-C ) :   0.1031 B( 17-C , 33-H ) :   0.9727 B( 18-C , 19-C ) :   1.2442
B( 18-C , 21-H ) :   0.9839 B( 19-C , 20-C ) :   1.6003 B( 19-C , 22-C ) :   1.0325
B( 22-C , 23-H ) :   0.9281 B( 22-C , 24-H ) :   0.9238 B( 22-C , 25-C ) :   1.0719
B( 25-C , 26-H ) :   0.9506 B( 25-C , 27-H ) :   0.9572 B( 25-C , 28-C ) :   1.0743
B( 28-C , 29-H ) :   0.9709 B( 28-C , 30-H ) :   0.9731 B( 28-C , 31-H ) :   0.9750

Dispersion correction           -0.013569077
FINAL SINGLE POINT ENERGY     -1339.867510559440

DIPOLE MOMENT
-------------
                                X             Y             Z
Electronic contribution:     17.58776      12.53546     -18.54766
Nuclear contribution   :    -18.06716     -12.78602      19.00376
                        -----------------------------------------
Total Dipole Moment    :     -0.47940      -0.25057       0.45611
                        -----------------------------------------
Magnitude (a.u.)       :      0.70756
Magnitude (Debye)      :      1.79848

Rotational constants in cm-1:     0.016364     0.008285     0.006638
Rotational constants in MHz :   490.592008   248.379320   198.990505

                             ****ORCA TERMINATED NORMALLY****
TOTAL RUN TIME: 0 days 0 hours 0 minutes 20 seconds 51 msec
