                         Program Version 4.2.1 -  RELEASE  -
|  1> ! wB97X-D3 SP def2-SVP
|  2> %pal
|  3> nprocs 24
|  4> end
|  5>
|  6> * xyz 0 1
|  7> S 	 -39.4984 	 -2.89956 	 15.3853
|  8> C 	 -39.9389 	 -2.23837 	 17.012
|  9> C 	 -41.3147 	 -2.04937 	 17.0887
| 10> C 	 -41.9699 	 -2.45464 	 15.8795
| 11> C 	 -41.1724 	 -2.85119 	 14.8074
| 12> H 	 -43.0062 	 -2.40916 	 15.7194
| 13> C 	 -42.0904 	 -1.45884 	 18.1701
| 14> H 	 -41.5534 	 -1.59998 	 19.0681
| 15> H 	 -43.0099 	 -2.11057 	 18.3156
| 16> C 	 -42.5662 	 0.00643578 	 18.1328
| 17> H 	 -43.0544 	 0.281002 	 19.1089
| 18> H 	 -41.5897 	 0.615855 	 18.0002
| 19> C 	 -43.4442 	 0.287879 	 16.982
| 20> H 	 -42.9526 	 0.228913 	 16.031
| 21> H 	 -44.2556 	 -0.42379 	 17.0845
| 22> H 	 -43.9237 	 1.27957 	 17.0201
| 23> S 	 -40.4385 	 -4.3437 	 12.651
| 24> C 	 -41.6061 	 -4.61809 	 11.3708
| 25> C 	 -42.6646 	 -3.71686 	 11.4238
| 26> C 	 -42.6393 	 -2.95618 	 12.6089
| 27> C 	 -41.5755 	 -3.25545 	 13.4472
| 28> H 	 -43.4725 	 -3.73629 	 10.6995
| 29> C 	 -43.7962 	 -2.0273 	 12.9542
| 30> H 	 -43.9768 	 -1.4641 	 12.0302
| 31> H 	 -43.462 	 -1.31325 	 13.7155
| 32> C 	 -45.0576 	 -2.77574 	 13.4174
| 33> H 	 -44.7805 	 -3.58153 	 14.11
| 34> H 	 -45.45 	 -3.22212 	 12.4841
| 35> C 	 -46.1395 	 -1.94791 	 14.1166
| 36> H 	 -46.7618 	 -1.35572 	 13.4234
| 37> H 	 -45.7689 	 -1.2334 	 14.8282
| 38> H 	 -46.8207 	 -2.66209 	 14.5674
| 39> H 	 -39.2169 	 -2.10771 	 17.9086
| 40> H 	 -41.4348 	 -5.28449 	 10.5329
| 41> *
| 42>
| 43>                          ****END OF INPUT****

CARTESIAN COORDINATES (ANGSTROEM)
---------------------------------
  S    -39.498400   -2.899560   15.385300
  C    -39.938900   -2.238370   17.012000
  C    -41.314700   -2.049370   17.088700
  C    -41.969900   -2.454640   15.879500
  C    -41.172400   -2.851190   14.807400
  H    -43.006200   -2.409160   15.719400
  C    -42.090400   -1.458840   18.170100
  H    -41.553400   -1.599980   19.068100
  H    -43.009900   -2.110570   18.315600
  C    -42.566200    0.006436   18.132800
  H    -43.054400    0.281002   19.108900
  H    -41.589700    0.615855   18.000200
  C    -43.444200    0.287879   16.982000
  H    -42.952600    0.228913   16.031000
  H    -44.255600   -0.423790   17.084500
  H    -43.923700    1.279570   17.020100
  S    -40.438500   -4.343700   12.651000
  C    -41.606100   -4.618090   11.370800
  C    -42.664600   -3.716860   11.423800
  C    -42.639300   -2.956180   12.608900
  C    -41.575500   -3.255450   13.447200
  H    -43.472500   -3.736290   10.699500
  C    -43.796200   -2.027300   12.954200
  H    -43.976800   -1.464100   12.030200
  H    -43.462000   -1.313250   13.715500
  C    -45.057600   -2.775740   13.417400
  H    -44.780500   -3.581530   14.110000
  H    -45.450000   -3.222120   12.484100
  C    -46.139500   -1.947910   14.116600
  H    -46.761800   -1.355720   13.423400
  H    -45.768900   -1.233400   14.828200
  H    -46.820700   -2.662090   14.567400
  H    -39.216900   -2.107710   17.908600
  H    -41.434800   -5.284490   10.532900

 Total Charge           Charge          ....    0
 Multiplicity           Mult            ....    1
 Number of Electrons    NEL             ....  134
 Basis Dimension        Dim             ....  322

ORBITAL ENERGIES
----------------

  NO   OCC          E(Eh)            E(eV)
   0   2.0000     -88.967400     -2420.9260
   1   2.0000     -88.966477     -2420.9009
   2   2.0000     -10.336626      -281.2739
   3   2.0000     -10.332138      -281.1518
   4   2.0000     -10.328125      -281.0426
   5   2.0000     -10.322171      -280.8806
   6   2.0000     -10.305070      -280.4152
   7   2.0000     -10.302088      -280.3341
   8   2.0000     -10.297223      -280.2017
   9   2.0000     -10.295786      -280.1626
  10   2.0000     -10.293450      -280.0990
  11   2.0000     -10.291506      -280.0461
  12   2.0000     -10.289380      -279.9883
  13   2.0000     -10.289046      -279.9792
  14   2.0000     -10.279962      -279.7320
  15   2.0000     -10.273742      -279.5627
  16   2.0000      -8.082098      -219.9251
  17   2.0000      -8.079837      -219.8636
  18   2.0000      -6.040548      -164.3717
  19   2.0000      -6.038680      -164.3208
  20   2.0000      -6.036733      -164.2679
  21   2.0000      -6.034548      -164.2084
  22   2.0000      -6.032806      -164.1610
  23   2.0000      -6.030309      -164.0930
  24   2.0000      -1.004989       -27.3471
  25   2.0000      -0.981003       -26.6944
  26   2.0000      -0.919646       -25.0248
  27   2.0000      -0.909917       -24.7601
  28   2.0000      -0.871066       -23.7029
  29   2.0000      -0.854506       -23.2523
  30   2.0000      -0.844441       -22.9784
  31   2.0000      -0.815702       -22.1964
  32   2.0000      -0.785625       -21.3779
  33   2.0000      -0.774333       -21.0707
  34   2.0000      -0.703920       -19.1546
  35   2.0000      -0.698100       -18.9963
  36   2.0000      -0.693990       -18.8844
  37   2.0000      -0.667392       -18.1607
  38   2.0000      -0.634232       -17.2583
  39   2.0000      -0.618203       -16.8222
  40   2.0000      -0.594810       -16.1856
  41   2.0000      -0.578037       -15.7292
  42   2.0000      -0.567513       -15.4428
  43   2.0000      -0.549610       -14.9556
  44   2.0000      -0.547764       -14.9054
  45   2.0000      -0.531507       -14.4630
  46   2.0000      -0.515720       -14.0335
  47   2.0000      -0.510585       -13.8937
  48   2.0000      -0.508811       -13.8455
  49   2.0000      -0.497504       -13.5378
  50   2.0000      -0.491842       -13.3837
  51   2.0000      -0.485373       -13.2077
  52   2.0000      -0.476117       -12.9558
  53   2.0000      -0.464178       -12.6309
  54   2.0000      -0.459684       -12.5086
  55   2.0000      -0.449201       -12.2234
  56   2.0000      -0.438548       -11.9335
  57   2.0000      -0.436794       -11.8858
  58   2.0000      -0.434311       -11.8182
  59   2.0000      -0.426709       -11.6113
  60   2.0000      -0.424414       -11.5489
  61   2.0000      -0.415402       -11.3037
  62   2.0000      -0.407605       -11.0915
  63   2.0000      -0.356109        -9.6902
  64   2.0000      -0.336690        -9.1618
  65   2.0000      -0.326457        -8.8833
  66   2.0000      -0.284035        -7.7290
  67   0.0000       0.018366         0.4998
  68   0.0000       0.073465         1.9991
  69   0.0000       0.092652         2.5212
  70   0.0000       0.111960         3.0466
  71   0.0000       0.131479         3.5777

MULLIKEN ATOMIC CHARGES
-----------------------
   0 S :    0.082849
   1 C :   -0.151898
   2 C :   -0.065588
   3 C :    0.011384
   4 C :   -0.095230
   5 H :   -0.025572
   6 C :    0.045561
   7 H :    0.004261
   8 H :    0.032368
   9 C :   -0.075352
  10 H :    0.043628
  11 H :    0.034219
  12 C :   -0.049017
  13 H :    0.052073
  14 H :    0.019729
  15 H :    0.033567
  16 S :    0.095970
  17 C :   -0.085231
  18 C :   -0.037227
  19 C :   -0.058075
  20 C :   -0.131173
  21 H :    0.023209
  22 C :    0.058904
  23 H :    0.030114
  24 H :    0.019431
  25 C :   -0.093151
  26 H :    0.042926
  27 H :    0.029142
  28 C :   -0.027649
  29 H :    0.026585
  30 H :    0.030575
  31 H :    0.035723
  32 H :    0.083483
  33 H :    0.059459
Sum of atomic charges:   -0.0000000

LOEWDIN ATOMIC CHARGES
----------------------
   0 S :    0.365267
   1 C :   -0.193775
   2 C :   -0.067194
   3 C :   -0.065603
   4 C :   -0.177667
   5 H :    0.017021
   6 C :   -0.041818
   7 H :    0.024439
   8 H :    0.037249
   9 C :   -0.041306
  10 H :    0.032223
  11 H :    0.030988
  12 C :   -0.070508
  13 H :    0.025747
  14 H :    0.020339
  15 H :    0.030272
  16 S :    0.397694
  17 C :   -0.173242
  18 C :   -0.070289
  19 C :   -0.054617
  20 C :   -0.187451
  21 H :    0.033532
  22 C :   -0.033833
  23 H :    0.032871
  24 H :    0.025431
  25 C :   -0.043122
  26 H :    0.027276
  27 H :    0.027306
  28 C :   -0.065798
  29 H :    0.026525
  30 H :    0.021726
  31 H :    0.029816
  32 H :    0.051813
  33 H :    0.028688

  Mayer bond orders larger than 0.100000
B(  0-S ,  1-C ) :   1.1154 B(  0-S ,  4-C ) :   1.1300 B(  1-C ,  2-C ) :   1.6130
B(  1-C , 32-H ) :   0.9536 B(  2-C ,  3-C ) :   1.2301 B(  2-C ,  6-C ) :   1.0408
B(  3-C ,  4-C ) :   1.5738 B(  3-C ,  5-H ) :   0.9992 B(  4-C , 20-C ) :   1.0632
B(  6-C ,  7-H ) :   0.9278 B(  6-C ,  8-H ) :   0.9336 B(  6-C ,  9-C ) :   1.0714
B(  9-C , 10-H ) :   0.9519 B(  9-C , 11-H ) :   0.9472 B(  9-C , 12-C ) :   1.0958
B( 12-C , 13-H ) :   0.9670 B( 12-C , 14-H ) :   0.9672 B( 12-C , 15-H ) :   0.9656
B( 16-S , 17-C ) :   1.1653 B( 16-S , 20-C ) :   1.1278 B( 17-C , 18-C ) :   1.5972
B( 17-C , 20-C ) :   0.1037 B( 17-C , 33-H ) :   0.9677 B( 18-C , 19-C ) :   1.2454
B( 18-C , 21-H ) :   0.9915 B( 19-C , 20-C ) :   1.5919 B( 19-C , 22-C ) :   1.0485
B( 22-C , 23-H ) :   0.9299 B( 22-C , 24-H ) :   0.9358 B( 22-C , 25-C ) :   1.0555
B( 25-C , 26-H ) :   0.9605 B( 25-C , 27-H ) :   0.9505 B( 25-C , 28-C ) :   1.0844
B( 28-C , 29-H ) :   0.9720 B( 28-C , 30-H ) :   0.9751 B( 28-C , 31-H ) :   0.9743

Dispersion correction           -0.015388593
FINAL SINGLE POINT ENERGY     -1339.881817889890

DIPOLE MOMENT
-------------
                                X             Y             Z
Electronic contribution:     26.47171     -15.24511     -10.32893
Nuclear contribution   :    -27.23314      15.49200      10.42274
                        -----------------------------------------
Total Dipole Moment    :     -0.76143       0.24690       0.09381
                        -----------------------------------------
Magnitude (a.u.)       :      0.80594
Magnitude (Debye)      :      2.04853

Rotational constants in cm-1:     0.016901     0.010947     0.006961
Rotational constants in MHz :   506.665012   328.178973   208.689750

                             ****ORCA TERMINATED NORMALLY****
TOTAL RUN TIME: 0 days 0 hours 0 minutes 22 seconds 825 msec
