                         Program Version 4.2.1 -  RELEASE  -
|  1> ! wB97X-D3 SP def2-SVP
|  2> %pal
|  3> nprocs 24
|  4> end
|  5>
|  6> * xyz 0 1
|  7> S 	 -76.6896 	 -0.233007 	 -68.1372
|  8> C 	 -76.188 	 1.2707 	 -68.9735
|  9> C 	 -76.529 	 2.39662 	 -68.2135
| 10> C 	 -77.0705 	 2.02485 	 -66.9755
| 11> C 	 -77.4043 	 0.708896 	 -66.8605
| 12> H 	 -77.3637 	 2.65834 	 -66.141
| 13> C 	 -76.2781 	 3.82101 	 -68.551
| 14> H 	 -75.8376 	 3.83804 	 -69.5339
| 15> H 	 -75.5452 	 4.19246 	 -67.851
| 16> C 	 -77.5068 	 4.75413 	 -68.4524
| 17> H 	 -78.2631 	 4.41242 	 -69.1881
| 18> H 	 -77.9881 	 4.65686 	 -67.5371
| 19> C 	 -77.1436 	 6.17904 	 -68.6199
| 20> H 	 -76.3473 	 6.57582 	 -67.9997
| 21> H 	 -76.909 	 6.42314 	 -69.6422
| 22> H 	 -77.9793 	 6.79015 	 -68.4536
| 23> S 	 -77.2328 	 -0.94991 	 -64.584
| 24> C 	 -78.6801 	 -1.34863 	 -63.6673
| 25> C 	 -79.7382 	 -0.630176 	 -64.1848
| 26> C 	 -79.479 	 0.113528 	 -65.4098
| 27> C 	 -78.1261 	 -0.00544699 	 -65.7814
| 28> H 	 -80.6755 	 -0.570383 	 -63.6759
| 29> C 	 -80.5759 	 0.94549 	 -66.0532
| 30> H 	 -81.5545 	 0.381498 	 -65.9881
| 31> H 	 -80.3161 	 0.9902 	 -67.0535
| 32> C 	 -80.6878 	 2.41154 	 -65.4187
| 33> H 	 -81.4419 	 2.96026 	 -65.9989
| 34> H 	 -79.7313 	 2.98865 	 -65.467
| 35> C 	 -81.2082 	 2.38936 	 -63.9429
| 36> H 	 -80.4883 	 1.9075 	 -63.2755
| 37> H 	 -82.2779 	 2.04107 	 -63.9106
| 38> H 	 -81.2146 	 3.50524 	 -63.7153
| 39> H 	 -76.0052 	 1.29732 	 -70.0328
| 40> H 	 -78.7383 	 -1.92338 	 -62.7169
| 41> *
| 42>
| 43>                          ****END OF INPUT****

CARTESIAN COORDINATES (ANGSTROEM)
---------------------------------
  S    -76.689600   -0.233007  -68.137200
  C    -76.188000    1.270700  -68.973500
  C    -76.529000    2.396620  -68.213500
  C    -77.070500    2.024850  -66.975500
  C    -77.404300    0.708896  -66.860500
  H    -77.363700    2.658340  -66.141000
  C    -76.278100    3.821010  -68.551000
  H    -75.837600    3.838040  -69.533900
  H    -75.545200    4.192460  -67.851000
  C    -77.506800    4.754130  -68.452400
  H    -78.263100    4.412420  -69.188100
  H    -77.988100    4.656860  -67.537100
  C    -77.143600    6.179040  -68.619900
  H    -76.347300    6.575820  -67.999700
  H    -76.909000    6.423140  -69.642200
  H    -77.979300    6.790150  -68.453600
  S    -77.232800   -0.949910  -64.584000
  C    -78.680100   -1.348630  -63.667300
  C    -79.738200   -0.630176  -64.184800
  C    -79.479000    0.113528  -65.409800
  C    -78.126100   -0.005447  -65.781400
  H    -80.675500   -0.570383  -63.675900
  C    -80.575900    0.945490  -66.053200
  H    -81.554500    0.381498  -65.988100
  H    -80.316100    0.990200  -67.053500
  C    -80.687800    2.411540  -65.418700
  H    -81.441900    2.960260  -65.998900
  H    -79.731300    2.988650  -65.467000
  C    -81.208200    2.389360  -63.942900
  H    -80.488300    1.907500  -63.275500
  H    -82.277900    2.041070  -63.910600
  H    -81.214600    3.505240  -63.715300
  H    -76.005200    1.297320  -70.032800
  H    -78.738300   -1.923380  -62.716900

 Total Charge           Charge          ....    0
 Multiplicity           Mult            ....    1
 Number of Electrons    NEL             ....  134
 Basis Dimension        Dim             ....  322

ORBITAL ENERGIES
----------------

  NO   OCC          E(Eh)            E(eV)
   0   2.0000     -88.964895     -2420.8579
   1   2.0000     -88.963226     -2420.8125
   2   2.0000     -10.330331      -281.1026
   3   2.0000     -10.327894      -281.0363
   4   2.0000     -10.321384      -280.8591
   5   2.0000     -10.315338      -280.6946
   6   2.0000     -10.306643      -280.4580
   7   2.0000     -10.300718      -280.2968
   8   2.0000     -10.298827      -280.2453
   9   2.0000     -10.294295      -280.1220
  10   2.0000     -10.291792      -280.0539
  11   2.0000     -10.290308      -280.0135
  12   2.0000     -10.289475      -279.9909
  13   2.0000     -10.288651      -279.9684
  14   2.0000     -10.282846      -279.8105
  15   2.0000     -10.269881      -279.4577
  16   2.0000      -8.079049      -219.8421
  17   2.0000      -8.077715      -219.8058
  18   2.0000      -6.037724      -164.2948
  19   2.0000      -6.036156      -164.2521
  20   2.0000      -6.033556      -164.1814
  21   2.0000      -6.032269      -164.1464
  22   2.0000      -6.029742      -164.0776
  23   2.0000      -6.028544      -164.0450
  24   2.0000      -1.003009       -27.2932
  25   2.0000      -0.980108       -26.6701
  26   2.0000      -0.919579       -25.0230
  27   2.0000      -0.899495       -24.4765
  28   2.0000      -0.870353       -23.6835
  29   2.0000      -0.849633       -23.1197
  30   2.0000      -0.841051       -22.8862
  31   2.0000      -0.816635       -22.2218
  32   2.0000      -0.784818       -21.3560
  33   2.0000      -0.770186       -20.9578
  34   2.0000      -0.711890       -19.3715
  35   2.0000      -0.699150       -19.0248
  36   2.0000      -0.685967       -18.6661
  37   2.0000      -0.655956       -17.8495
  38   2.0000      -0.646457       -17.5910
  39   2.0000      -0.619948       -16.8696
  40   2.0000      -0.589930       -16.0528
  41   2.0000      -0.574953       -15.6453
  42   2.0000      -0.563237       -15.3265
  43   2.0000      -0.552518       -15.0348
  44   2.0000      -0.539421       -14.6784
  45   2.0000      -0.531539       -14.4639
  46   2.0000      -0.520285       -14.1577
  47   2.0000      -0.508225       -13.8295
  48   2.0000      -0.507222       -13.8022
  49   2.0000      -0.495588       -13.4856
  50   2.0000      -0.488908       -13.3039
  51   2.0000      -0.481295       -13.0967
  52   2.0000      -0.470891       -12.8136
  53   2.0000      -0.463213       -12.6047
  54   2.0000      -0.457416       -12.4469
  55   2.0000      -0.451775       -12.2934
  56   2.0000      -0.440162       -11.9774
  57   2.0000      -0.436161       -11.8685
  58   2.0000      -0.430077       -11.7030
  59   2.0000      -0.424726       -11.5574
  60   2.0000      -0.424382       -11.5480
  61   2.0000      -0.422146       -11.4872
  62   2.0000      -0.417878       -11.3710
  63   2.0000      -0.335742        -9.1360
  64   2.0000      -0.329035        -8.9535
  65   2.0000      -0.323551        -8.8043
  66   2.0000      -0.302998        -8.2450
  67   0.0000       0.037591         1.0229
  68   0.0000       0.054870         1.4931
  69   0.0000       0.116540         3.1712
  70   0.0000       0.119914         3.2630
  71   0.0000       0.126947         3.4544

MULLIKEN ATOMIC CHARGES
-----------------------
   0 S :    0.101153
   1 C :   -0.117410
   2 C :   -0.094827
   3 C :    0.041944
   4 C :   -0.188843
   5 H :    0.014988
   6 C :    0.097379
   7 H :    0.009850
   8 H :    0.029825
   9 C :   -0.068679
  10 H :    0.031394
  11 H :    0.009341
  12 C :   -0.003623
  13 H :    0.028065
  14 H :    0.016398
  15 H :    0.012779
  16 S :    0.108770
  17 C :   -0.101112
  18 C :   -0.039963
  19 C :   -0.048823
  20 C :   -0.166005
  21 H :    0.012957
  22 C :    0.102092
  23 H :    0.037927
  24 H :    0.015953
  25 C :   -0.095489
  26 H :    0.035392
  27 H :    0.038329
  28 C :   -0.096410
  29 H :    0.059981
  30 H :    0.047740
  31 H :    0.040501
  32 H :    0.052371
  33 H :    0.076056
Sum of atomic charges:    0.0000000

LOEWDIN ATOMIC CHARGES
----------------------
   0 S :    0.394937
   1 C :   -0.190178
   2 C :   -0.058948
   3 C :   -0.064063
   4 C :   -0.191731
   5 H :    0.032059
   6 C :   -0.026201
   7 H :    0.027816
   8 H :    0.034539
   9 C :   -0.035608
  10 H :    0.031600
  11 H :    0.012959
  12 C :   -0.061366
  13 H :    0.026342
  14 H :    0.024071
  15 H :    0.022118
  16 S :    0.396505
  17 C :   -0.193423
  18 C :   -0.074138
  19 C :   -0.050819
  20 C :   -0.207306
  21 H :    0.024372
  22 C :   -0.029703
  23 H :    0.039205
  24 H :    0.021236
  25 C :   -0.036642
  26 H :    0.024004
  27 H :    0.025416
  28 C :   -0.076688
  29 H :    0.026597
  30 H :    0.030714
  31 H :    0.034348
  32 H :    0.024906
  33 H :    0.043072

  Mayer bond orders larger than 0.100000
B(  0-S ,  1-C ) :   1.1318 B(  0-S ,  4-C ) :   1.1629 B(  1-C ,  2-C ) :   1.6131
B(  1-C ,  4-C ) :   0.1043 B(  1-C , 32-H ) :   0.9632 B(  2-C ,  3-C ) :   1.2182
B(  2-C ,  6-C ) :   1.0394 B(  3-C ,  4-C ) :   1.6118 B(  3-C ,  5-H ) :   0.9877
B(  4-C , 20-C ) :   0.9917 B(  6-C ,  7-H ) :   0.9369 B(  6-C ,  8-H ) :   0.9315
B(  6-C ,  9-C ) :   1.0641 B(  9-C , 10-H ) :   0.9494 B(  9-C , 11-H ) :   0.9531
B(  9-C , 12-C ) :   1.1024 B( 12-C , 13-H ) :   0.9709 B( 12-C , 14-H ) :   0.9694
B( 12-C , 15-H ) :   0.9665 B( 16-S , 17-C ) :   1.1430 B( 16-S , 20-C ) :   1.1503
B( 17-C , 18-C ) :   1.6108 B( 17-C , 33-H ) :   0.9625 B( 18-C , 19-C ) :   1.2433
B( 18-C , 21-H ) :   0.9845 B( 19-C , 20-C ) :   1.5938 B( 19-C , 22-C ) :   1.0430
B( 22-C , 23-H ) :   0.9425 B( 22-C , 24-H ) :   0.9224 B( 22-C , 25-C ) :   1.0567
B( 25-C , 26-H ) :   0.9585 B( 25-C , 27-H ) :   0.9566 B( 25-C , 28-C ) :   1.0736
B( 28-C , 29-H ) :   0.9708 B( 28-C , 30-H ) :   0.9743 B( 28-C , 31-H ) :   0.9736

Dispersion correction           -0.014881753
FINAL SINGLE POINT ENERGY     -1339.876488876796

DIPOLE MOMENT
-------------
                                X             Y             Z
Electronic contribution:     13.08022     -27.82301       1.59703
Nuclear contribution   :    -13.58609      28.62007      -1.55257
                        -----------------------------------------
Total Dipole Moment    :     -0.50587       0.79706       0.04446
                        -----------------------------------------
Magnitude (a.u.)       :      0.94509
Magnitude (Debye)      :      2.40222

Rotational constants in cm-1:     0.017869     0.009352     0.006816
Rotational constants in MHz :   535.687703   280.375969   204.337197

                             ****ORCA TERMINATED NORMALLY****
TOTAL RUN TIME: 0 days 0 hours 0 minutes 22 seconds 37 msec
