                         Program Version 4.2.1 -  RELEASE  -
|  1> ! wB97X-D3 SP def2-SVP
|  2> %pal
|  3> nprocs 24
|  4> end
|  5>
|  6> * xyz 0 1
|  7> S 	 -108.355 	 53.5964 	 -102.033
|  8> C 	 -110.045 	 53.3004 	 -102.239
|  9> C 	 -110.855 	 54.2503 	 -101.652
| 10> C 	 -110.087 	 55.3076 	 -101.019
| 11> C 	 -108.702 	 55.1088 	 -101.162
| 12> H 	 -110.556 	 56.1684 	 -100.549
| 13> C 	 -112.394 	 54.2795 	 -101.813
| 14> H 	 -112.668 	 54.5579 	 -102.854
| 15> H 	 -112.78 	 55.0241 	 -101.108
| 16> C 	 -113.09 	 52.8793 	 -101.387
| 17> H 	 -112.279 	 52.1053 	 -101.536
| 18> H 	 -113.331 	 52.8066 	 -100.286
| 19> C 	 -114.276 	 52.3774 	 -102.179
| 20> H 	 -113.855 	 51.7544 	 -102.99
| 21> H 	 -114.817 	 51.7611 	 -101.456
| 22> H 	 -114.928 	 53.2038 	 -102.56
| 23> S 	 -106.213 	 55.3304 	 -100.082
| 24> C 	 -105.449 	 56.9473 	 -100.07
| 25> C 	 -106.401 	 57.9221 	 -100.33
| 26> C 	 -107.636 	 57.4092 	 -100.732
| 27> C 	 -107.642 	 56.0398 	 -100.719
| 28> H 	 -106 	 58.9435 	 -100.345
| 29> C 	 -108.791 	 58.2401 	 -101.296
| 30> H 	 -109.757 	 58.0252 	 -100.904
| 31> H 	 -108.969 	 58.0085 	 -102.355
| 32> C 	 -108.6 	 59.7334 	 -101.025
| 33> H 	 -109.5 	 60.1903 	 -101.448
| 34> H 	 -107.774 	 60.1031 	 -101.589
| 35> C 	 -108.616 	 60.1268 	 -99.5074
| 36> H 	 -109.54 	 59.7489 	 -99.1008
| 37> H 	 -108.546 	 61.2438 	 -99.3327
| 38> H 	 -107.832 	 59.6491 	 -98.9826
| 39> H 	 -110.358 	 52.394 	 -102.66
| 40> H 	 -104.412 	 57.0828 	 -99.8399
| 41> *
| 42>
| 43>                          ****END OF INPUT****

CARTESIAN COORDINATES (ANGSTROEM)
---------------------------------
  S    -108.355000   53.596400  -102.033000
  C    -110.045000   53.300400  -102.239000
  C    -110.855000   54.250300  -101.652000
  C    -110.087000   55.307600  -101.019000
  C    -108.702000   55.108800  -101.162000
  H    -110.556000   56.168400  -100.549000
  C    -112.394000   54.279500  -101.813000
  H    -112.668000   54.557900  -102.854000
  H    -112.780000   55.024100  -101.108000
  C    -113.090000   52.879300  -101.387000
  H    -112.279000   52.105300  -101.536000
  H    -113.331000   52.806600  -100.286000
  C    -114.276000   52.377400  -102.179000
  H    -113.855000   51.754400  -102.990000
  H    -114.817000   51.761100  -101.456000
  H    -114.928000   53.203800  -102.560000
  S    -106.213000   55.330400  -100.082000
  C    -105.449000   56.947300  -100.070000
  C    -106.401000   57.922100  -100.330000
  C    -107.636000   57.409200  -100.732000
  C    -107.642000   56.039800  -100.719000
  H    -106.000000   58.943500  -100.345000
  C    -108.791000   58.240100  -101.296000
  H    -109.757000   58.025200  -100.904000
  H    -108.969000   58.008500  -102.355000
  C    -108.600000   59.733400  -101.025000
  H    -109.500000   60.190300  -101.448000
  H    -107.774000   60.103100  -101.589000
  C    -108.616000   60.126800  -99.507400
  H    -109.540000   59.748900  -99.100800
  H    -108.546000   61.243800  -99.332700
  H    -107.832000   59.649100  -98.982600
  H    -110.358000   52.394000  -102.660000
  H    -104.412000   57.082800  -99.839900

 Total Charge           Charge          ....    0
 Multiplicity           Mult            ....    1
 Number of Electrons    NEL             ....  134
 Basis Dimension        Dim             ....  322

ORBITAL ENERGIES
----------------

  NO   OCC          E(Eh)            E(eV)
   0   2.0000     -88.968422     -2420.9538
   1   2.0000     -88.964060     -2420.8352
   2   2.0000     -10.334315      -281.2110
   3   2.0000     -10.321905      -280.8733
   4   2.0000     -10.317156      -280.7441
   5   2.0000     -10.308822      -280.5173
   6   2.0000     -10.304081      -280.3883
   7   2.0000     -10.303439      -280.3708
   8   2.0000     -10.299913      -280.2749
   9   2.0000     -10.299183      -280.2550
  10   2.0000     -10.296237      -280.1749
  11   2.0000     -10.294947      -280.1397
  12   2.0000     -10.290309      -280.0136
  13   2.0000     -10.284653      -279.8596
  14   2.0000     -10.282872      -279.8112
  15   2.0000     -10.279297      -279.7139
  16   2.0000      -8.082992      -219.9494
  17   2.0000      -8.079057      -219.8423
  18   2.0000      -6.041452      -164.3963
  19   2.0000      -6.037543      -164.2899
  20   2.0000      -6.037355      -164.2848
  21   2.0000      -6.033803      -164.1881
  22   2.0000      -6.033667      -164.1844
  23   2.0000      -6.029893      -164.0817
  24   2.0000      -1.006955       -27.4006
  25   2.0000      -0.982685       -26.7402
  26   2.0000      -0.910193       -24.7676
  27   2.0000      -0.899080       -24.4652
  28   2.0000      -0.867142       -23.5961
  29   2.0000      -0.852337       -23.1933
  30   2.0000      -0.843284       -22.9469
  31   2.0000      -0.813290       -22.1308
  32   2.0000      -0.784570       -21.3492
  33   2.0000      -0.770387       -20.9633
  34   2.0000      -0.703074       -19.1316
  35   2.0000      -0.700168       -19.0525
  36   2.0000      -0.684873       -18.6363
  37   2.0000      -0.659757       -17.9529
  38   2.0000      -0.642132       -17.4733
  39   2.0000      -0.619415       -16.8551
  40   2.0000      -0.603353       -16.4181
  41   2.0000      -0.569149       -15.4873
  42   2.0000      -0.556304       -15.1378
  43   2.0000      -0.551235       -14.9999
  44   2.0000      -0.529850       -14.4179
  45   2.0000      -0.521896       -14.2015
  46   2.0000      -0.520719       -14.1695
  47   2.0000      -0.516080       -14.0432
  48   2.0000      -0.500135       -13.6094
  49   2.0000      -0.493749       -13.4356
  50   2.0000      -0.490062       -13.3353
  51   2.0000      -0.485978       -13.2241
  52   2.0000      -0.478075       -13.0091
  53   2.0000      -0.467447       -12.7199
  54   2.0000      -0.458453       -12.4751
  55   2.0000      -0.443527       -12.0690
  56   2.0000      -0.440737       -11.9931
  57   2.0000      -0.436920       -11.8892
  58   2.0000      -0.431566       -11.7435
  59   2.0000      -0.429163       -11.6781
  60   2.0000      -0.421994       -11.4830
  61   2.0000      -0.414138       -11.2693
  62   2.0000      -0.406793       -11.0694
  63   2.0000      -0.350244        -9.5306
  64   2.0000      -0.334709        -9.1079
  65   2.0000      -0.330097        -8.9824
  66   2.0000      -0.286026        -7.7832
  67   0.0000       0.023032         0.6267
  68   0.0000       0.076395         2.0788
  69   0.0000       0.103964         2.8290
  70   0.0000       0.118882         3.2349
  71   0.0000       0.135339         3.6828

MULLIKEN ATOMIC CHARGES
-----------------------
   0 S :    0.116721
   1 C :   -0.114902
   2 C :   -0.091441
   3 C :    0.011101
   4 C :   -0.139144
   5 H :    0.016093
   6 C :    0.077509
   7 H :    0.053995
   8 H :    0.026317
   9 C :   -0.153780
  10 H :    0.029380
  11 H :    0.043565
  12 C :   -0.049234
  13 H :    0.042825
  14 H :    0.036618
  15 H :    0.045362
  16 S :    0.098217
  17 C :   -0.105999
  18 C :   -0.054168
  19 C :   -0.020830
  20 C :   -0.140421
  21 H :    0.036670
  22 C :    0.075869
  23 H :    0.003304
  24 H :    0.043543
  25 C :   -0.077034
  26 H :    0.023407
  27 H :    0.027157
  28 C :   -0.046426
  29 H :    0.022061
  30 H :    0.048801
  31 H :    0.029244
  32 H :    0.034320
  33 H :    0.051300
Sum of atomic charges:    0.0000000

LOEWDIN ATOMIC CHARGES
----------------------
   0 S :    0.406792
   1 C :   -0.195541
   2 C :   -0.064897
   3 C :   -0.060596
   4 C :   -0.184232
   5 H :    0.030814
   6 C :   -0.030575
   7 H :    0.036911
   8 H :    0.028960
   9 C :   -0.054562
  10 H :    0.024770
  11 H :    0.028553
  12 C :   -0.073342
  13 H :    0.029815
  14 H :    0.030862
  15 H :    0.028772
  16 S :    0.398651
  17 C :   -0.170927
  18 C :   -0.070752
  19 C :   -0.065310
  20 C :   -0.199390
  21 H :    0.040057
  22 C :   -0.027967
  23 H :    0.020239
  24 H :    0.040488
  25 C :   -0.040382
  26 H :    0.026849
  27 H :    0.015292
  28 C :   -0.061164
  29 H :    0.023343
  30 H :    0.035387
  31 H :    0.016245
  32 H :    0.013368
  33 H :    0.023466

  Mayer bond orders larger than 0.100000
B(  0-S ,  1-C ) :   1.1448 B(  0-S ,  4-C ) :   1.1544 B(  1-C ,  2-C ) :   1.6023
B(  1-C , 32-H ) :   0.9711 B(  2-C ,  3-C ) :   1.2603 B(  2-C ,  6-C ) :   1.0150
B(  3-C ,  4-C ) :   1.5494 B(  3-C ,  5-H ) :   0.9903 B(  4-C , 20-C ) :   1.0469
B(  6-C ,  7-H ) :   0.9519 B(  6-C ,  8-H ) :   0.9436 B(  6-C ,  9-C ) :   1.0285
B(  9-C , 10-H ) :   0.9733 B(  9-C , 11-H ) :   0.9664 B(  9-C , 12-C ) :   1.0595
B( 12-C , 13-H ) :   0.9818 B( 12-C , 14-H ) :   0.9755 B( 12-C , 15-H ) :   0.9768
B( 16-S , 17-C ) :   1.1449 B( 16-S , 20-C ) :   1.1573 B( 17-C , 18-C ) :   1.6027
B( 17-C , 20-C ) :   0.1036 B( 17-C , 33-H ) :   0.9714 B( 18-C , 19-C ) :   1.2450
B( 18-C , 21-H ) :   0.9827 B( 19-C , 20-C ) :   1.6014 B( 19-C , 22-C ) :   1.0247
B( 22-C , 23-H ) :   0.9309 B( 22-C , 24-H ) :   0.9249 B( 22-C , 25-C ) :   1.0925
B( 25-C , 26-H ) :   0.9538 B( 25-C , 27-H ) :   0.9508 B( 25-C , 28-C ) :   1.0626
B( 28-C , 29-H ) :   0.9716 B( 28-C , 30-H ) :   0.9754 B( 28-C , 31-H ) :   0.9786

Dispersion correction           -0.013784045
FINAL SINGLE POINT ENERGY     -1339.873890912270

DIPOLE MOMENT
-------------
                                X             Y             Z
Electronic contribution:     24.24502     -10.56341       0.38933
Nuclear contribution   :    -24.72529      10.92606      -0.48678
                        -----------------------------------------
Total Dipole Moment    :     -0.48027       0.36265      -0.09745
                        -----------------------------------------
Magnitude (a.u.)       :      0.60965
Magnitude (Debye)      :      1.54962

Rotational constants in cm-1:     0.022271     0.007333     0.005806
Rotational constants in MHz :   667.679664   219.828223   174.061403

                             ****ORCA TERMINATED NORMALLY****
TOTAL RUN TIME: 0 days 0 hours 0 minutes 21 seconds 319 msec
