                         Program Version 4.2.1 -  RELEASE  -
|  1> ! wB97X-D3 SP def2-SVP
|  2> %pal
|  3> nprocs 24
|  4> end
|  5>
|  6> * xyz 0 1
|  7> S 	 -100.64 	 49.2725 	 -97.9929
|  8> C 	 -101.909 	 50.4763 	 -98.1149
|  9> C 	 -101.642 	 51.429 	 -99.0828
| 10> C 	 -100.331 	 51.2152 	 -99.6804
| 11> C 	 -99.7303 	 50.0675 	 -99.2755
| 12> H 	 -99.9268 	 51.8838 	 -100.491
| 13> C 	 -102.462 	 52.6361 	 -99.4592
| 14> H 	 -101.734 	 53.3229 	 -99.8596
| 15> H 	 -102.808 	 53.1142 	 -98.5574
| 16> C 	 -103.664 	 52.4124 	 -100.411
| 17> H 	 -103.284 	 51.8583 	 -101.302
| 18> H 	 -104.344 	 51.745 	 -99.976
| 19> C 	 -104.47 	 53.6955 	 -100.82
| 20> H 	 -103.966 	 54.4801 	 -101.418
| 21> H 	 -105.42 	 53.3801 	 -101.313
| 22> H 	 -104.808 	 54.1347 	 -99.8568
| 23> S 	 -97.1497 	 49.7674 	 -98.5718
| 24> C 	 -95.9535 	 49.3424 	 -99.7928
| 25> C 	 -96.4979 	 49.1588 	 -101.045
| 26> C 	 -97.9191 	 49.2362 	 -101.033
| 27> C 	 -98.4252 	 49.5269 	 -99.7412
| 28> H 	 -95.866 	 48.8772 	 -101.847
| 29> C 	 -98.7357 	 48.8875 	 -102.255
| 30> H 	 -98.0818 	 48.9915 	 -103.114
| 31> H 	 -99.4324 	 49.6803 	 -102.468
| 32> C 	 -99.3578 	 47.5054 	 -102.205
| 33> H 	 -99.8597 	 47.3561 	 -101.218
| 34> H 	 -98.6496 	 46.6304 	 -102.13
| 35> C 	 -100.286 	 47.2645 	 -103.402
| 36> H 	 -100.761 	 46.2562 	 -103.283
| 37> H 	 -99.6645 	 47.2218 	 -104.373
| 38> H 	 -100.989 	 48.0428 	 -103.434
| 39> H 	 -102.893 	 50.4246 	 -97.6325
| 40> H 	 -94.8684 	 49.2838 	 -99.7223
| 41> *
| 42>
| 43>                          ****END OF INPUT****

CARTESIAN COORDINATES (ANGSTROEM)
---------------------------------
  S    -100.640000   49.272500  -97.992900
  C    -101.909000   50.476300  -98.114900
  C    -101.642000   51.429000  -99.082800
  C    -100.331000   51.215200  -99.680400
  C    -99.730300   50.067500  -99.275500
  H    -99.926800   51.883800  -100.491000
  C    -102.462000   52.636100  -99.459200
  H    -101.734000   53.322900  -99.859600
  H    -102.808000   53.114200  -98.557400
  C    -103.664000   52.412400  -100.411000
  H    -103.284000   51.858300  -101.302000
  H    -104.344000   51.745000  -99.976000
  C    -104.470000   53.695500  -100.820000
  H    -103.966000   54.480100  -101.418000
  H    -105.420000   53.380100  -101.313000
  H    -104.808000   54.134700  -99.856800
  S    -97.149700   49.767400  -98.571800
  C    -95.953500   49.342400  -99.792800
  C    -96.497900   49.158800  -101.045000
  C    -97.919100   49.236200  -101.033000
  C    -98.425200   49.526900  -99.741200
  H    -95.866000   48.877200  -101.847000
  C    -98.735700   48.887500  -102.255000
  H    -98.081800   48.991500  -103.114000
  H    -99.432400   49.680300  -102.468000
  C    -99.357800   47.505400  -102.205000
  H    -99.859700   47.356100  -101.218000
  H    -98.649600   46.630400  -102.130000
  C    -100.286000   47.264500  -103.402000
  H    -100.761000   46.256200  -103.283000
  H    -99.664500   47.221800  -104.373000
  H    -100.989000   48.042800  -103.434000
  H    -102.893000   50.424600  -97.632500
  H    -94.868400   49.283800  -99.722300

 Total Charge           Charge          ....    0
 Multiplicity           Mult            ....    1
 Number of Electrons    NEL             ....  134
 Basis Dimension        Dim             ....  322

ORBITAL ENERGIES
----------------

  NO   OCC          E(Eh)            E(eV)
   0   2.0000     -88.967580     -2420.9309
   1   2.0000     -88.966435     -2420.8998
   2   2.0000     -10.329386      -281.0769
   3   2.0000     -10.327546      -281.0268
   4   2.0000     -10.316201      -280.7181
   5   2.0000     -10.315040      -280.6865
   6   2.0000     -10.306030      -280.4413
   7   2.0000     -10.301208      -280.3101
   8   2.0000     -10.296767      -280.1893
   9   2.0000     -10.290365      -280.0151
  10   2.0000     -10.289966      -280.0042
  11   2.0000     -10.289769      -279.9988
  12   2.0000     -10.289461      -279.9905
  13   2.0000     -10.287894      -279.9478
  14   2.0000     -10.287619      -279.9403
  15   2.0000     -10.281524      -279.7745
  16   2.0000      -8.082017      -219.9229
  17   2.0000      -8.080894      -219.8923
  18   2.0000      -6.040562      -164.3721
  19   2.0000      -6.039495      -164.3430
  20   2.0000      -6.036477      -164.2609
  21   2.0000      -6.035413      -164.2319
  22   2.0000      -6.032827      -164.1616
  23   2.0000      -6.031605      -164.1283
  24   2.0000      -1.003226       -27.2992
  25   2.0000      -0.981213       -26.7002
  26   2.0000      -0.909322       -24.7439
  27   2.0000      -0.906773       -24.6745
  28   2.0000      -0.866254       -23.5720
  29   2.0000      -0.848154       -23.0795
  30   2.0000      -0.845907       -23.0183
  31   2.0000      -0.814060       -22.1517
  32   2.0000      -0.780101       -21.2276
  33   2.0000      -0.767163       -20.8756
  34   2.0000      -0.706019       -19.2118
  35   2.0000      -0.701481       -19.0883
  36   2.0000      -0.689935       -18.7741
  37   2.0000      -0.660763       -17.9803
  38   2.0000      -0.636886       -17.3306
  39   2.0000      -0.618439       -16.8286
  40   2.0000      -0.593643       -16.1539
  41   2.0000      -0.566625       -15.4187
  42   2.0000      -0.559417       -15.2225
  43   2.0000      -0.553146       -15.0519
  44   2.0000      -0.527677       -14.3588
  45   2.0000      -0.519182       -14.1277
  46   2.0000      -0.516892       -14.0654
  47   2.0000      -0.507410       -13.8073
  48   2.0000      -0.501032       -13.6338
  49   2.0000      -0.496803       -13.5187
  50   2.0000      -0.491815       -13.3830
  51   2.0000      -0.480602       -13.0779
  52   2.0000      -0.465444       -12.6654
  53   2.0000      -0.460538       -12.5319
  54   2.0000      -0.459145       -12.4940
  55   2.0000      -0.449911       -12.2427
  56   2.0000      -0.444596       -12.0981
  57   2.0000      -0.442231       -12.0337
  58   2.0000      -0.435421       -11.8484
  59   2.0000      -0.424171       -11.5423
  60   2.0000      -0.423453       -11.5227
  61   2.0000      -0.420697       -11.4477
  62   2.0000      -0.402384       -10.9494
  63   2.0000      -0.343983        -9.3602
  64   2.0000      -0.329727        -8.9723
  65   2.0000      -0.325104        -8.8465
  66   2.0000      -0.299740        -8.1564
  67   0.0000       0.037571         1.0223
  68   0.0000       0.060531         1.6471
  69   0.0000       0.112022         3.0483
  70   0.0000       0.120591         3.2815
  71   0.0000       0.127945         3.4816

MULLIKEN ATOMIC CHARGES
-----------------------
   0 S :    0.110651
   1 C :   -0.116297
   2 C :   -0.125360
   3 C :    0.033568
   4 C :   -0.171094
   5 H :    0.036686
   6 C :    0.084541
   7 H :    0.014112
   8 H :    0.019354
   9 C :   -0.055153
  10 H :    0.029059
  11 H :    0.014646
  12 C :   -0.073679
  13 H :    0.050817
  14 H :    0.042868
  15 H :    0.028119
  16 S :    0.119251
  17 C :   -0.082187
  18 C :   -0.035482
  19 C :   -0.048086
  20 C :   -0.153853
  21 H :    0.008469
  22 C :    0.115589
  23 H :    0.001071
  24 H :    0.013425
  25 C :   -0.096985
  26 H :    0.034567
  27 H :    0.028396
  28 C :   -0.042428
  29 H :    0.043468
  30 H :    0.039864
  31 H :    0.027689
  32 H :    0.053174
  33 H :    0.051220
Sum of atomic charges:    0.0000000

LOEWDIN ATOMIC CHARGES
----------------------
   0 S :    0.395862
   1 C :   -0.200223
   2 C :   -0.063117
   3 C :   -0.065983
   4 C :   -0.199929
   5 H :    0.042021
   6 C :   -0.033033
   7 H :    0.028816
   8 H :    0.028230
   9 C :   -0.036657
  10 H :    0.026086
  11 H :    0.016573
  12 C :   -0.072614
  13 H :    0.028077
  14 H :    0.032590
  15 H :    0.026794
  16 S :    0.415910
  17 C :   -0.184263
  18 C :   -0.069161
  19 C :   -0.047621
  20 C :   -0.207421
  21 H :    0.028043
  22 C :   -0.033422
  23 H :    0.027366
  24 H :    0.028859
  25 C :   -0.048928
  26 H :    0.028019
  27 H :    0.028744
  28 C :   -0.064600
  29 H :    0.032761
  30 H :    0.032975
  31 H :    0.014812
  32 H :    0.032694
  33 H :    0.031740

  Mayer bond orders larger than 0.100000
B(  0-S ,  1-C ) :   1.1258 B(  0-S ,  4-C ) :   1.1445 B(  1-C ,  2-C ) :   1.6445
B(  1-C , 32-H ) :   0.9631 B(  2-C ,  3-C ) :   1.2203 B(  2-C ,  6-C ) :   1.0217
B(  3-C ,  4-C ) :   1.6211 B(  3-C ,  5-H ) :   0.9814 B(  4-C , 20-C ) :   0.9813
B(  6-C ,  7-H ) :   0.9404 B(  6-C ,  8-H ) :   0.9363 B(  6-C ,  9-C ) :   1.0569
B(  9-C , 10-H ) :   0.9567 B(  9-C , 11-H ) :   0.9560 B(  9-C , 12-C ) :   1.0742
B( 12-C , 13-H ) :   0.9787 B( 12-C , 14-H ) :   0.9751 B( 12-C , 15-H ) :   0.9730
B( 16-S , 17-C ) :   1.1570 B( 16-S , 20-C ) :   1.1562 B( 17-C , 18-C ) :   1.6196
B( 17-C , 33-H ) :   0.9613 B( 18-C , 19-C ) :   1.2589 B( 18-C , 21-H ) :   0.9918
B( 19-C , 20-C ) :   1.5832 B( 19-C , 22-C ) :   1.0456 B( 22-C , 23-H ) :   0.9259
B( 22-C , 24-H ) :   0.9254 B( 22-C , 25-C ) :   1.0563 B( 25-C , 26-H ) :   0.9559
B( 25-C , 27-H ) :   0.9523 B( 25-C , 28-C ) :   1.0778 B( 28-C , 29-H ) :   0.9727
B( 28-C , 30-H ) :   0.9741 B( 28-C , 31-H ) :   0.9771

Dispersion correction           -0.013803757
FINAL SINGLE POINT ENERGY     -1339.882938983171

DIPOLE MOMENT
-------------
                                X             Y             Z
Electronic contribution:     18.60608      -5.36714      20.97911
Nuclear contribution   :    -18.81693       5.61072     -21.54711
                        -----------------------------------------
Total Dipole Moment    :     -0.21086       0.24358      -0.56800
                        -----------------------------------------
Magnitude (a.u.)       :      0.65300
Magnitude (Debye)      :      1.65980

Rotational constants in cm-1:     0.017786     0.008056     0.006656
Rotational constants in MHz :   533.215812   241.507931   199.538586

                             ****ORCA TERMINATED NORMALLY****
TOTAL RUN TIME: 0 days 0 hours 0 minutes 21 seconds 62 msec
