                         Program Version 4.2.1 -  RELEASE  -
|  1> ! wB97X-D3 SP def2-SVP
|  2> %pal
|  3> nprocs 24
|  4> end
|  5>
|  6> * xyz 0 1
|  7> S 	 35.5128 	 -28.3643 	 -127.995
|  8> C 	 36.7675 	 -28.9278 	 -128.984
|  9> C 	 36.5912 	 -30.2863 	 -129.285
| 10> C 	 35.4006 	 -30.7635 	 -128.665
| 11> C 	 34.815 	 -29.8918 	 -127.77
| 12> H 	 34.9624 	 -31.7181 	 -128.81
| 13> C 	 37.5626 	 -31.1119 	 -130.118
| 14> H 	 38.4195 	 -30.4392 	 -130.3
| 15> H 	 37.1379 	 -31.4312 	 -131.103
| 16> C 	 37.9784 	 -32.431 	 -129.498
| 17> H 	 37.118 	 -33.0341 	 -129.245
| 18> H 	 38.6468 	 -32.9108 	 -130.133
| 19> C 	 38.8085 	 -32.0589 	 -128.197
| 20> H 	 39.4353 	 -32.9551 	 -127.927
| 21> H 	 39.5616 	 -31.2568 	 -128.193
| 22> H 	 38.2469 	 -31.9303 	 -127.289
| 23> S 	 32.277 	 -28.6854 	 -127.493
| 24> C 	 30.9333 	 -29.7091 	 -127.005
| 25> C 	 31.3808 	 -30.9263 	 -126.604
| 26> C 	 32.7581 	 -31.21 	 -126.839
| 27> C 	 33.4348 	 -30.0666 	 -127.305
| 28> H 	 30.5762 	 -31.6339 	 -126.482
| 29> C 	 33.3168 	 -32.6448 	 -126.644
| 30> H 	 33.4423 	 -32.802 	 -125.526
| 31> H 	 34.2931 	 -32.7044 	 -127.081
| 32> C 	 32.549 	 -33.867 	 -127.076
| 33> H 	 32.4923 	 -33.6996 	 -128.174
| 34> H 	 31.5161 	 -33.8122 	 -126.679
| 35> C 	 33.189 	 -35.271 	 -126.807
| 36> H 	 33.6293 	 -35.3991 	 -125.777
| 37> H 	 34.0294 	 -35.5292 	 -127.497
| 38> H 	 32.4698 	 -36.066 	 -126.954
| 39> H 	 37.6344 	 -28.2919 	 -129.299
| 40> H 	 29.8842 	 -29.3646 	 -127.018
| 41> *
| 42>
| 43>                          ****END OF INPUT****

CARTESIAN COORDINATES (ANGSTROEM)
---------------------------------
  S     35.512800  -28.364300  -127.995000
  C     36.767500  -28.927800  -128.984000
  C     36.591200  -30.286300  -129.285000
  C     35.400600  -30.763500  -128.665000
  C     34.815000  -29.891800  -127.770000
  H     34.962400  -31.718100  -128.810000
  C     37.562600  -31.111900  -130.118000
  H     38.419500  -30.439200  -130.300000
  H     37.137900  -31.431200  -131.103000
  C     37.978400  -32.431000  -129.498000
  H     37.118000  -33.034100  -129.245000
  H     38.646800  -32.910800  -130.133000
  C     38.808500  -32.058900  -128.197000
  H     39.435300  -32.955100  -127.927000
  H     39.561600  -31.256800  -128.193000
  H     38.246900  -31.930300  -127.289000
  S     32.277000  -28.685400  -127.493000
  C     30.933300  -29.709100  -127.005000
  C     31.380800  -30.926300  -126.604000
  C     32.758100  -31.210000  -126.839000
  C     33.434800  -30.066600  -127.305000
  H     30.576200  -31.633900  -126.482000
  C     33.316800  -32.644800  -126.644000
  H     33.442300  -32.802000  -125.526000
  H     34.293100  -32.704400  -127.081000
  C     32.549000  -33.867000  -127.076000
  H     32.492300  -33.699600  -128.174000
  H     31.516100  -33.812200  -126.679000
  C     33.189000  -35.271000  -126.807000
  H     33.629300  -35.399100  -125.777000
  H     34.029400  -35.529200  -127.497000
  H     32.469800  -36.066000  -126.954000
  H     37.634400  -28.291900  -129.299000
  H     29.884200  -29.364600  -127.018000

 Total Charge           Charge          ....    0
 Multiplicity           Mult            ....    1
 Number of Electrons    NEL             ....  134
 Basis Dimension        Dim             ....  322

ORBITAL ENERGIES
----------------

  NO   OCC          E(Eh)            E(eV)
   0   2.0000     -88.966698     -2420.9069
   1   2.0000     -88.964230     -2420.8398
   2   2.0000     -10.336625      -281.2739
   3   2.0000     -10.324527      -280.9447
   4   2.0000     -10.318200      -280.7725
   5   2.0000     -10.317370      -280.7499
   6   2.0000     -10.310668      -280.5675
   7   2.0000     -10.303932      -280.3842
   8   2.0000     -10.296371      -280.1785
   9   2.0000     -10.296113      -280.1715
  10   2.0000     -10.295682      -280.1597
  11   2.0000     -10.292128      -280.0630
  12   2.0000     -10.291553      -280.0474
  13   2.0000     -10.289588      -279.9939
  14   2.0000     -10.288476      -279.9637
  15   2.0000     -10.277406      -279.6624
  16   2.0000      -8.083373      -219.9598
  17   2.0000      -8.078099      -219.8162
  18   2.0000      -6.041678      -164.4024
  19   2.0000      -6.037517      -164.2892
  20   2.0000      -6.036779      -164.2691
  21   2.0000      -6.034309      -164.2019
  22   2.0000      -6.032779      -164.1603
  23   2.0000      -6.028670      -164.0484
  24   2.0000      -1.015529       -27.6339
  25   2.0000      -0.983814       -26.7709
  26   2.0000      -0.915136       -24.9021
  27   2.0000      -0.907201       -24.6862
  28   2.0000      -0.871405       -23.7121
  29   2.0000      -0.850048       -23.1310
  30   2.0000      -0.840932       -22.8829
  31   2.0000      -0.813065       -22.1246
  32   2.0000      -0.783892       -21.3308
  33   2.0000      -0.774579       -21.0774
  34   2.0000      -0.714286       -19.4367
  35   2.0000      -0.696592       -18.9552
  36   2.0000      -0.693074       -18.8595
  37   2.0000      -0.654039       -17.7973
  38   2.0000      -0.638707       -17.3801
  39   2.0000      -0.626256       -17.0413
  40   2.0000      -0.598479       -16.2854
  41   2.0000      -0.569848       -15.5064
  42   2.0000      -0.567317       -15.4375
  43   2.0000      -0.550328       -14.9752
  44   2.0000      -0.543629       -14.7929
  45   2.0000      -0.523403       -14.2425
  46   2.0000      -0.516807       -14.0630
  47   2.0000      -0.511210       -13.9107
  48   2.0000      -0.499619       -13.5953
  49   2.0000      -0.495026       -13.4703
  50   2.0000      -0.487524       -13.2662
  51   2.0000      -0.487077       -13.2540
  52   2.0000      -0.470669       -12.8076
  53   2.0000      -0.468018       -12.7354
  54   2.0000      -0.460329       -12.5262
  55   2.0000      -0.449261       -12.2250
  56   2.0000      -0.447974       -12.1900
  57   2.0000      -0.441583       -12.0161
  58   2.0000      -0.430356       -11.7106
  59   2.0000      -0.423203       -11.5159
  60   2.0000      -0.417418       -11.3585
  61   2.0000      -0.412566       -11.2265
  62   2.0000      -0.411573       -11.1995
  63   2.0000      -0.359351        -9.7784
  64   2.0000      -0.332969        -9.0606
  65   2.0000      -0.326037        -8.8719
  66   2.0000      -0.285944        -7.7809
  67   0.0000       0.025813         0.7024
  68   0.0000       0.073560         2.0017
  69   0.0000       0.108277         2.9464
  70   0.0000       0.116455         3.1689
  71   0.0000       0.124174         3.3789

MULLIKEN ATOMIC CHARGES
-----------------------
   0 S :    0.109759
   1 C :   -0.143407
   2 C :   -0.078257
   3 C :   -0.002482
   4 C :   -0.104091
   5 H :    0.004692
   6 C :    0.053357
   7 H :    0.021639
   8 H :    0.040427
   9 C :   -0.020588
  10 H :    0.038013
  11 H :    0.024242
  12 C :   -0.097951
  13 H :    0.021608
  14 H :    0.032280
  15 H :    0.037301
  16 S :    0.084834
  17 C :   -0.122522
  18 C :   -0.015402
  19 C :   -0.040166
  20 C :   -0.143521
  21 H :    0.022341
  22 C :    0.060918
  23 H :    0.041709
  24 H :    0.007253
  25 C :   -0.098606
  26 H :    0.032958
  27 H :    0.038372
  28 C :   -0.065187
  29 H :    0.040108
  30 H :    0.037449
  31 H :    0.038695
  32 H :    0.071467
  33 H :    0.072754
Sum of atomic charges:   -0.0000000

LOEWDIN ATOMIC CHARGES
----------------------
   0 S :    0.456129
   1 C :   -0.219558
   2 C :   -0.063865
   3 C :   -0.055021
   4 C :   -0.217676
   5 H :    0.020894
   6 C :   -0.034143
   7 H :    0.030463
   8 H :    0.034148
   9 C :   -0.026119
  10 H :    0.026606
  11 H :    0.018844
  12 C :   -0.078852
  13 H :    0.026517
  14 H :    0.025563
  15 H :    0.023643
  16 S :    0.366732
  17 C :   -0.179281
  18 C :   -0.080611
  19 C :   -0.057441
  20 C :   -0.169384
  21 H :    0.030912
  22 C :   -0.037114
  23 H :    0.039024
  24 H :    0.020580
  25 C :   -0.048715
  26 H :    0.027977
  27 H :    0.024267
  28 C :   -0.071258
  29 H :    0.030831
  30 H :    0.029824
  31 H :    0.028151
  32 H :    0.040085
  33 H :    0.037847

  Mayer bond orders larger than 0.100000
B(  0-S ,  1-C ) :   1.1829 B(  0-S ,  4-C ) :   1.1745 B(  1-C ,  2-C ) :   1.5495
B(  1-C , 32-H ) :   0.9607 B(  2-C ,  3-C ) :   1.2930 B(  2-C ,  6-C ) :   1.0224
B(  3-C ,  4-C ) :   1.5147 B(  3-C ,  5-H ) :   0.9913 B(  4-C , 20-C ) :   1.0559
B(  6-C ,  7-H ) :   0.9458 B(  6-C ,  8-H ) :   0.9366 B(  6-C ,  9-C ) :   1.0846
B(  9-C , 10-H ) :   0.9530 B(  9-C , 11-H ) :   0.9575 B(  9-C , 12-C ) :   1.0565
B( 12-C , 13-H ) :   0.9769 B( 12-C , 14-H ) :   0.9808 B( 12-C , 15-H ) :   0.9772
B( 16-S , 17-C ) :   1.1386 B( 16-S , 20-C ) :   1.1281 B( 17-C , 18-C ) :   1.6503
B( 17-C , 33-H ) :   0.9623 B( 18-C , 19-C ) :   1.2249 B( 18-C , 21-H ) :   0.9784
B( 19-C , 20-C ) :   1.6164 B( 19-C , 22-C ) :   1.0370 B( 22-C , 23-H ) :   0.9274
B( 22-C , 24-H ) :   0.9383 B( 22-C , 25-C ) :   1.0640 B( 25-C , 26-H ) :   0.9571
B( 25-C , 27-H ) :   0.9501 B( 25-C , 28-C ) :   1.0748 B( 28-C , 29-H ) :   0.9754
B( 28-C , 30-H ) :   0.9752 B( 28-C , 31-H ) :   0.9755

Dispersion correction           -0.014097803
FINAL SINGLE POINT ENERGY     -1339.864891016923

DIPOLE MOMENT
-------------
                                X             Y             Z
Electronic contribution:    -11.40816      29.39301       1.32222
Nuclear contribution   :     11.51265     -30.12217      -1.64249
                        -----------------------------------------
Total Dipole Moment    :      0.10449      -0.72916      -0.32027
                        -----------------------------------------
Magnitude (a.u.)       :      0.80322
Magnitude (Debye)      :      2.04163

Rotational constants in cm-1:     0.015857     0.010273     0.006595
Rotational constants in MHz :   475.393601   307.984746   197.720298

                             ****ORCA TERMINATED NORMALLY****
TOTAL RUN TIME: 0 days 0 hours 0 minutes 21 seconds 720 msec
