                         Program Version 4.2.1 -  RELEASE  -
|  1> ! wB97X-D3 SP def2-SVP
|  2> %pal
|  3> nprocs 24
|  4> end
|  5>
|  6> * xyz 0 1
|  7> S 	 -120.987 	 29.0354 	 -113.095
|  8> C 	 -119.264 	 28.5359 	 -112.955
|  9> C 	 -118.504 	 29.664 	 -112.707
| 10> C 	 -119.25 	 30.7692 	 -112.268
| 11> C 	 -120.602 	 30.5615 	 -112.259
| 12> H 	 -118.696 	 31.5992 	 -111.886
| 13> C 	 -117.011 	 29.733 	 -112.742
| 14> H 	 -116.773 	 30.754 	 -113.1
| 15> H 	 -116.62 	 29.1322 	 -113.558
| 16> C 	 -116.27 	 29.4036 	 -111.424
| 17> H 	 -116.391 	 28.3629 	 -111.227
| 18> H 	 -115.24 	 29.5728 	 -111.66
| 19> C 	 -116.576 	 30.3036 	 -110.21
| 20> H 	 -117.641 	 30.39 	 -109.996
| 21> H 	 -116.101 	 29.9166 	 -109.306
| 22> H 	 -116.248 	 31.3287 	 -110.456
| 23> S 	 -123.162 	 31.0572 	 -111.413
| 24> C 	 -123.626 	 32.6105 	 -110.987
| 25> C 	 -122.65 	 33.5054 	 -111.294
| 26> C 	 -121.58 	 32.9959 	 -112.029
| 27> C 	 -121.605 	 31.5612 	 -112.01
| 28> H 	 -122.839 	 34.5624 	 -110.997
| 29> C 	 -120.45 	 33.9417 	 -112.363
| 30> H 	 -120.776 	 34.8611 	 -112.839
| 31> H 	 -119.941 	 33.3849 	 -113.104
| 32> C 	 -119.604 	 34.5195 	 -111.181
| 33> H 	 -118.779 	 35.0699 	 -111.616
| 34> H 	 -119.058 	 33.772 	 -110.709
| 35> C 	 -120.268 	 35.3861 	 -110.109
| 36> H 	 -121.066 	 36.0808 	 -110.568
| 37> H 	 -119.559 	 35.9202 	 -109.499
| 38> H 	 -120.772 	 34.7636 	 -109.433
| 39> H 	 -118.852 	 27.646 	 -113.369
| 40> H 	 -124.495 	 32.9436 	 -110.507
| 41> *
| 42>
| 43>                          ****END OF INPUT****

CARTESIAN COORDINATES (ANGSTROEM)
---------------------------------
  S    -120.987000   29.035400  -113.095000
  C    -119.264000   28.535900  -112.955000
  C    -118.504000   29.664000  -112.707000
  C    -119.250000   30.769200  -112.268000
  C    -120.602000   30.561500  -112.259000
  H    -118.696000   31.599200  -111.886000
  C    -117.011000   29.733000  -112.742000
  H    -116.773000   30.754000  -113.100000
  H    -116.620000   29.132200  -113.558000
  C    -116.270000   29.403600  -111.424000
  H    -116.391000   28.362900  -111.227000
  H    -115.240000   29.572800  -111.660000
  C    -116.576000   30.303600  -110.210000
  H    -117.641000   30.390000  -109.996000
  H    -116.101000   29.916600  -109.306000
  H    -116.248000   31.328700  -110.456000
  S    -123.162000   31.057200  -111.413000
  C    -123.626000   32.610500  -110.987000
  C    -122.650000   33.505400  -111.294000
  C    -121.580000   32.995900  -112.029000
  C    -121.605000   31.561200  -112.010000
  H    -122.839000   34.562400  -110.997000
  C    -120.450000   33.941700  -112.363000
  H    -120.776000   34.861100  -112.839000
  H    -119.941000   33.384900  -113.104000
  C    -119.604000   34.519500  -111.181000
  H    -118.779000   35.069900  -111.616000
  H    -119.058000   33.772000  -110.709000
  C    -120.268000   35.386100  -110.109000
  H    -121.066000   36.080800  -110.568000
  H    -119.559000   35.920200  -109.499000
  H    -120.772000   34.763600  -109.433000
  H    -118.852000   27.646000  -113.369000
  H    -124.495000   32.943600  -110.507000

 Total Charge           Charge          ....    0
 Multiplicity           Mult            ....    1
 Number of Electrons    NEL             ....  134
 Basis Dimension        Dim             ....  322

ORBITAL ENERGIES
----------------

  NO   OCC          E(Eh)            E(eV)
   0   2.0000     -88.965162     -2420.8651
   1   2.0000     -88.964909     -2420.8582
   2   2.0000     -10.332221      -281.1540
   3   2.0000     -10.329246      -281.0731
   4   2.0000     -10.313112      -280.6340
   5   2.0000     -10.304379      -280.3964
   6   2.0000     -10.303403      -280.3699
   7   2.0000     -10.295165      -280.1457
   8   2.0000     -10.292159      -280.0639
   9   2.0000     -10.289965      -280.0042
  10   2.0000     -10.288152      -279.9549
  11   2.0000     -10.285235      -279.8755
  12   2.0000     -10.285027      -279.8698
  13   2.0000     -10.284182      -279.8468
  14   2.0000     -10.281684      -279.7788
  15   2.0000     -10.280566      -279.7484
  16   2.0000      -8.081308      -219.9036
  17   2.0000      -8.078545      -219.8284
  18   2.0000      -6.039560      -164.3448
  19   2.0000      -6.037249      -164.2819
  20   2.0000      -6.035419      -164.2321
  21   2.0000      -6.033496      -164.1798
  22   2.0000      -6.032449      -164.1513
  23   2.0000      -6.028869      -164.0539
  24   2.0000      -1.012730       -27.5578
  25   2.0000      -0.988081       -26.8870
  26   2.0000      -0.912468       -24.8295
  27   2.0000      -0.910843       -24.7853
  28   2.0000      -0.871281       -23.7088
  29   2.0000      -0.854984       -23.2653
  30   2.0000      -0.843990       -22.9661
  31   2.0000      -0.817813       -22.2538
  32   2.0000      -0.790237       -21.5035
  33   2.0000      -0.775297       -21.0969
  34   2.0000      -0.715499       -19.4697
  35   2.0000      -0.706907       -19.2359
  36   2.0000      -0.700335       -19.0571
  37   2.0000      -0.658650       -17.9228
  38   2.0000      -0.633432       -17.2366
  39   2.0000      -0.627041       -17.0626
  40   2.0000      -0.596117       -16.2212
  41   2.0000      -0.573985       -15.6189
  42   2.0000      -0.561876       -15.2894
  43   2.0000      -0.547992       -14.9116
  44   2.0000      -0.544033       -14.8039
  45   2.0000      -0.540714       -14.7136
  46   2.0000      -0.514871       -14.0103
  47   2.0000      -0.513501       -13.9731
  48   2.0000      -0.508188       -13.8285
  49   2.0000      -0.497518       -13.5382
  50   2.0000      -0.487397       -13.2628
  51   2.0000      -0.481388       -13.0992
  52   2.0000      -0.473503       -12.8847
  53   2.0000      -0.470481       -12.8024
  54   2.0000      -0.459321       -12.4988
  55   2.0000      -0.451980       -12.2990
  56   2.0000      -0.443259       -12.0617
  57   2.0000      -0.439427       -11.9574
  58   2.0000      -0.433672       -11.8008
  59   2.0000      -0.427525       -11.6335
  60   2.0000      -0.422472       -11.4960
  61   2.0000      -0.415082       -11.2950
  62   2.0000      -0.413008       -11.2385
  63   2.0000      -0.353787        -9.6270
  64   2.0000      -0.332150        -9.0383
  65   2.0000      -0.329722        -8.9722
  66   2.0000      -0.282608        -7.6902
  67   0.0000       0.015966         0.4345
  68   0.0000       0.079575         2.1653
  69   0.0000       0.093160         2.5350
  70   0.0000       0.127435         3.4677
  71   0.0000       0.129788         3.5317

MULLIKEN ATOMIC CHARGES
-----------------------
   0 S :    0.083877
   1 C :   -0.095109
   2 C :   -0.105389
   3 C :   -0.006304
   4 C :   -0.053067
   5 H :   -0.006606
   6 C :    0.037510
   7 H :    0.018052
   8 H :    0.020193
   9 C :   -0.026248
  10 H :    0.025551
  11 H :    0.025621
  12 C :   -0.068831
  13 H :    0.044477
  14 H :    0.042598
  15 H :    0.026962
  16 S :    0.124107
  17 C :   -0.044161
  18 C :   -0.087363
  19 C :   -0.022578
  20 C :   -0.175169
  21 H :    0.026048
  22 C :    0.076931
  23 H :    0.021276
  24 H :    0.016564
  25 C :   -0.047365
  26 H :    0.019970
  27 H :    0.003002
  28 C :   -0.040606
  29 H :    0.037688
  30 H :    0.033975
  31 H :    0.027165
  32 H :    0.037206
  33 H :    0.030024
Sum of atomic charges:    0.0000000

LOEWDIN ATOMIC CHARGES
----------------------
   0 S :    0.367155
   1 C :   -0.178757
   2 C :   -0.061565
   3 C :   -0.064884
   4 C :   -0.172508
   5 H :    0.026799
   6 C :   -0.035600
   7 H :    0.030837
   8 H :    0.030409
   9 C :   -0.031027
  10 H :    0.020241
  11 H :    0.023514
  12 C :   -0.067070
  13 H :    0.025098
  14 H :    0.030444
  15 H :    0.025041
  16 S :    0.447620
  17 C :   -0.203113
  18 C :   -0.080297
  19 C :   -0.053328
  20 C :   -0.206211
  21 H :    0.036404
  22 C :   -0.029504
  23 H :    0.032822
  24 H :    0.026025
  25 C :   -0.035296
  26 H :    0.025157
  27 H :    0.011139
  28 C :   -0.061903
  29 H :    0.030818
  30 H :    0.028398
  31 H :    0.018261
  32 H :    0.021658
  33 H :    0.023223

  Mayer bond orders larger than 0.100000
B(  0-S ,  1-C ) :   1.1085 B(  0-S ,  4-C ) :   1.1398 B(  1-C ,  2-C ) :   1.6147
B(  1-C , 32-H ) :   0.9710 B(  2-C ,  3-C ) :   1.2501 B(  2-C ,  6-C ) :   1.0314
B(  3-C ,  4-C ) :   1.5371 B(  3-C ,  5-H ) :   1.0033 B(  4-C , 20-C ) :   1.0900
B(  6-C ,  7-H ) :   0.9377 B(  6-C ,  8-H ) :   0.9352 B(  6-C ,  9-C ) :   1.0730
B(  9-C , 10-H ) :   0.9564 B(  9-C , 11-H ) :   0.9533 B(  9-C , 12-C ) :   1.0800
B( 12-C , 13-H ) :   0.9732 B( 12-C , 14-H ) :   0.9720 B( 12-C , 15-H ) :   0.9737
B( 16-S , 17-C ) :   1.1739 B( 16-S , 20-C ) :   1.1647 B( 17-C , 18-C ) :   1.5852
B( 17-C , 20-C ) :   0.1019 B( 17-C , 33-H ) :   0.9704 B( 18-C , 19-C ) :   1.2846
B( 18-C , 21-H ) :   0.9801 B( 19-C , 20-C ) :   1.4899 B( 19-C , 22-C ) :   1.0598
B( 22-C , 23-H ) :   0.9297 B( 22-C , 24-H ) :   0.9314 B( 22-C , 25-C ) :   1.0633
B( 25-C , 26-H ) :   0.9537 B( 25-C , 27-H ) :   0.9488 B( 25-C , 28-C ) :   1.0851
B( 28-C , 29-H ) :   0.9721 B( 28-C , 30-H ) :   0.9675 B( 28-C , 31-H ) :   0.9700

Dispersion correction           -0.015094019
FINAL SINGLE POINT ENERGY     -1339.860658074225

DIPOLE MOMENT
-------------
                                X             Y             Z
Electronic contribution:    -23.73768     -15.19833      -8.73508
Nuclear contribution   :     24.38962      15.70625       8.90790
                        -----------------------------------------
Total Dipole Moment    :      0.65194       0.50792       0.17282
                        -----------------------------------------
Magnitude (a.u.)       :      0.84432
Magnitude (Debye)      :      2.14608

Rotational constants in cm-1:     0.017788     0.010050     0.007114
Rotational constants in MHz :   533.259239   301.278816   213.265708

                             ****ORCA TERMINATED NORMALLY****
TOTAL RUN TIME: 0 days 0 hours 0 minutes 22 seconds 757 msec
