                         Program Version 4.2.1 -  RELEASE  -
|  1> ! wB97X-D3 SP def2-SVP
|  2> %pal
|  3> nprocs 24
|  4> end
|  5>
|  6> * xyz 0 1
|  7> S 	 -106.491 	 60.4391 	 -99.8349
|  8> C 	 -105.033 	 60.3155 	 -98.8762
|  9> C 	 -105.311 	 60.0808 	 -97.544
| 10> C 	 -106.727 	 59.8553 	 -97.3132
| 11> C 	 -107.474 	 59.8095 	 -98.4935
| 12> H 	 -107.128 	 59.7722 	 -96.2596
| 13> C 	 -104.432 	 60.3574 	 -96.365
| 14> H 	 -104.948 	 61.0443 	 -95.7594
| 15> H 	 -103.557 	 60.9303 	 -96.7734
| 16> C 	 -104.074 	 59.0917 	 -95.5556
| 17> H 	 -104.96 	 58.6549 	 -95.068
| 18> H 	 -103.724 	 58.393 	 -96.3258
| 19> C 	 -102.863 	 59.4363 	 -94.6163
| 20> H 	 -102.073 	 60.1276 	 -95.0162
| 21> H 	 -103.128 	 59.7259 	 -93.5817
| 22> H 	 -102.429 	 58.521 	 -94.3273
| 23> S 	 -110.056 	 59.8816 	 -97.2553
| 24> C 	 -111.389 	 59.7229 	 -98.2399
| 25> C 	 -111.096 	 59.6312 	 -99.5838
| 26> C 	 -109.711 	 59.5336 	 -99.8251
| 27> C 	 -108.937 	 59.6461 	 -98.65
| 28> H 	 -111.826 	 59.6 	 -100.373
| 29> C 	 -109.238 	 59.2942 	 -101.245
| 30> H 	 -109.827 	 58.4685 	 -101.718
| 31> H 	 -108.181 	 58.9054 	 -101.286
| 32> C 	 -109.372 	 60.4418 	 -102.206
| 33> H 	 -108.923 	 61.2711 	 -101.672
| 34> H 	 -110.442 	 60.5803 	 -102.328
| 35> C 	 -108.843 	 60.2471 	 -103.643
| 36> H 	 -109.458 	 59.546 	 -104.146
| 37> H 	 -107.782 	 59.9287 	 -103.678
| 38> H 	 -108.744 	 61.1099 	 -104.268
| 39> H 	 -104.014 	 60.6083 	 -99.1959
| 40> H 	 -112.383 	 59.967 	 -97.8857
| 41> *
| 42>
| 43>                          ****END OF INPUT****

CARTESIAN COORDINATES (ANGSTROEM)
---------------------------------
  S    -106.491000   60.439100  -99.834900
  C    -105.033000   60.315500  -98.876200
  C    -105.311000   60.080800  -97.544000
  C    -106.727000   59.855300  -97.313200
  C    -107.474000   59.809500  -98.493500
  H    -107.128000   59.772200  -96.259600
  C    -104.432000   60.357400  -96.365000
  H    -104.948000   61.044300  -95.759400
  H    -103.557000   60.930300  -96.773400
  C    -104.074000   59.091700  -95.555600
  H    -104.960000   58.654900  -95.068000
  H    -103.724000   58.393000  -96.325800
  C    -102.863000   59.436300  -94.616300
  H    -102.073000   60.127600  -95.016200
  H    -103.128000   59.725900  -93.581700
  H    -102.429000   58.521000  -94.327300
  S    -110.056000   59.881600  -97.255300
  C    -111.389000   59.722900  -98.239900
  C    -111.096000   59.631200  -99.583800
  C    -109.711000   59.533600  -99.825100
  C    -108.937000   59.646100  -98.650000
  H    -111.826000   59.600000  -100.373000
  C    -109.238000   59.294200  -101.245000
  H    -109.827000   58.468500  -101.718000
  H    -108.181000   58.905400  -101.286000
  C    -109.372000   60.441800  -102.206000
  H    -108.923000   61.271100  -101.672000
  H    -110.442000   60.580300  -102.328000
  C    -108.843000   60.247100  -103.643000
  H    -109.458000   59.546000  -104.146000
  H    -107.782000   59.928700  -103.678000
  H    -108.744000   61.109900  -104.268000
  H    -104.014000   60.608300  -99.195900
  H    -112.383000   59.967000  -97.885700

 Total Charge           Charge          ....    0
 Multiplicity           Mult            ....    1
 Number of Electrons    NEL             ....  134
 Basis Dimension        Dim             ....  322

ORBITAL ENERGIES
----------------

  NO   OCC          E(Eh)            E(eV)
   0   2.0000     -88.970161     -2421.0012
   1   2.0000     -88.968843     -2420.9653
   2   2.0000     -10.337964      -281.3103
   3   2.0000     -10.335247      -281.2364
   4   2.0000     -10.314856      -280.6815
   5   2.0000     -10.314382      -280.6686
   6   2.0000     -10.305547      -280.4282
   7   2.0000     -10.299587      -280.2660
   8   2.0000     -10.297443      -280.2077
   9   2.0000     -10.293549      -280.1017
  10   2.0000     -10.291487      -280.0456
  11   2.0000     -10.290454      -280.0175
  12   2.0000     -10.288304      -279.9590
  13   2.0000     -10.281720      -279.7798
  14   2.0000     -10.281195      -279.7655
  15   2.0000     -10.274604      -279.5862
  16   2.0000      -8.085553      -220.0191
  17   2.0000      -8.082410      -219.9336
  18   2.0000      -6.043970      -164.4648
  19   2.0000      -6.041210      -164.3897
  20   2.0000      -6.039960      -164.3557
  21   2.0000      -6.037252      -164.2820
  22   2.0000      -6.036393      -164.2586
  23   2.0000      -6.032767      -164.1599
  24   2.0000      -1.006279       -27.3822
  25   2.0000      -0.985195       -26.8085
  26   2.0000      -0.914203       -24.8767
  27   2.0000      -0.909036       -24.7361
  28   2.0000      -0.865153       -23.5420
  29   2.0000      -0.855289       -23.2736
  30   2.0000      -0.843013       -22.9396
  31   2.0000      -0.808765       -22.0076
  32   2.0000      -0.785950       -21.3868
  33   2.0000      -0.772092       -21.0097
  34   2.0000      -0.707601       -19.2548
  35   2.0000      -0.700546       -19.0628
  36   2.0000      -0.689458       -18.7611
  37   2.0000      -0.664796       -18.0900
  38   2.0000      -0.628161       -17.0931
  39   2.0000      -0.616226       -16.7684
  40   2.0000      -0.603655       -16.4263
  41   2.0000      -0.574060       -15.6210
  42   2.0000      -0.567075       -15.4309
  43   2.0000      -0.558051       -15.1853
  44   2.0000      -0.521912       -14.2019
  45   2.0000      -0.516562       -14.0564
  46   2.0000      -0.514793       -14.0082
  47   2.0000      -0.508206       -13.8290
  48   2.0000      -0.500950       -13.6315
  49   2.0000      -0.496526       -13.5112
  50   2.0000      -0.490996       -13.3607
  51   2.0000      -0.477807       -13.0018
  52   2.0000      -0.473231       -12.8773
  53   2.0000      -0.468656       -12.7528
  54   2.0000      -0.464654       -12.6439
  55   2.0000      -0.456558       -12.4236
  56   2.0000      -0.445589       -12.1251
  57   2.0000      -0.438298       -11.9267
  58   2.0000      -0.430093       -11.7034
  59   2.0000      -0.421154       -11.4602
  60   2.0000      -0.418129       -11.3779
  61   2.0000      -0.414849       -11.2886
  62   2.0000      -0.408299       -11.1104
  63   2.0000      -0.360076        -9.7982
  64   2.0000      -0.335720        -9.1354
  65   2.0000      -0.323691        -8.8081
  66   2.0000      -0.280762        -7.6399
  67   0.0000       0.018109         0.4928
  68   0.0000       0.080978         2.2035
  69   0.0000       0.096195         2.6176
  70   0.0000       0.113790         3.0964
  71   0.0000       0.124179         3.3791

MULLIKEN ATOMIC CHARGES
-----------------------
   0 S :    0.088318
   1 C :   -0.117851
   2 C :   -0.095011
   3 C :   -0.038243
   4 C :   -0.102229
   5 H :    0.040558
   6 C :    0.048815
   7 H :    0.024311
   8 H :    0.020843
   9 C :   -0.077477
  10 H :    0.043217
  11 H :    0.037945
  12 C :   -0.044352
  13 H :    0.050263
  14 H :    0.026746
  15 H :    0.013445
  16 S :    0.109017
  17 C :   -0.068851
  18 C :   -0.029519
  19 C :   -0.045534
  20 C :   -0.116029
  21 H :    0.013201
  22 C :   -0.000066
  23 H :    0.027033
  24 H :    0.034763
  25 C :   -0.059203
  26 H :    0.026408
  27 H :    0.021561
  28 C :   -0.024510
  29 H :    0.023222
  30 H :    0.025807
  31 H :    0.028458
  32 H :    0.054600
  33 H :    0.060345
Sum of atomic charges:   -0.0000000

LOEWDIN ATOMIC CHARGES
----------------------
   0 S :    0.408540
   1 C :   -0.209170
   2 C :   -0.064824
   3 C :   -0.077555
   4 C :   -0.172927
   5 H :    0.037725
   6 C :   -0.032375
   7 H :    0.025042
   8 H :    0.032611
   9 C :   -0.035130
  10 H :    0.029631
  11 H :    0.027901
  12 C :   -0.076716
  13 H :    0.034247
  14 H :    0.029015
  15 H :    0.019850
  16 S :    0.428038
  17 C :   -0.204802
  18 C :   -0.070322
  19 C :   -0.054018
  20 C :   -0.187604
  21 H :    0.029261
  22 C :   -0.048654
  23 H :    0.032381
  24 H :    0.023157
  25 C :   -0.040954
  26 H :    0.018780
  27 H :    0.021542
  28 C :   -0.063916
  29 H :    0.020365
  30 H :    0.028961
  31 H :    0.027063
  32 H :    0.034060
  33 H :    0.030799

  Mayer bond orders larger than 0.100000
B(  0-S ,  1-C ) :   1.1212 B(  0-S ,  4-C ) :   1.1377 B(  1-C ,  2-C ) :   1.6305
B(  1-C , 32-H ) :   0.9581 B(  2-C ,  3-C ) :   1.2407 B(  2-C ,  6-C ) :   1.0300
B(  3-C ,  4-C ) :   1.5563 B(  3-C ,  5-H ) :   0.9787 B(  4-C , 20-C ) :   1.0993
B(  6-C ,  7-H ) :   0.9420 B(  6-C ,  8-H ) :   0.9477 B(  6-C ,  9-C ) :   1.0449
B(  9-C , 10-H ) :   0.9559 B(  9-C , 11-H ) :   0.9630 B(  9-C , 12-C ) :   1.0710
B( 12-C , 13-H ) :   0.9767 B( 12-C , 14-H ) :   0.9719 B( 12-C , 15-H ) :   0.9716
B( 16-S , 17-C ) :   1.1919 B( 16-S , 20-C ) :   1.1302 B( 17-C , 18-C ) :   1.5669
B( 17-C , 33-H ) :   0.9609 B( 18-C , 19-C ) :   1.2826 B( 18-C , 21-H ) :   0.9936
B( 19-C , 20-C ) :   1.5427 B( 19-C , 22-C ) :   1.0432 B( 22-C , 23-H ) :   0.9345
B( 22-C , 24-H ) :   0.9327 B( 22-C , 25-C ) :   1.0560 B( 25-C , 26-H ) :   0.9549
B( 25-C , 27-H ) :   0.9554 B( 25-C , 28-C ) :   1.0826 B( 28-C , 29-H ) :   0.9745
B( 28-C , 30-H ) :   0.9726 B( 28-C , 31-H ) :   0.9741

Dispersion correction           -0.013742927
FINAL SINGLE POINT ENERGY     -1339.868324015322

DIPOLE MOMENT
-------------
                                X             Y             Z
Electronic contribution:    -12.91428       1.30552       3.12672
Nuclear contribution   :     12.96082      -1.12963      -3.05388
                        -----------------------------------------
Total Dipole Moment    :      0.04654       0.17588       0.07284
                        -----------------------------------------
Magnitude (a.u.)       :      0.19598
Magnitude (Debye)      :      0.49813

Rotational constants in cm-1:     0.022077     0.007524     0.005776
Rotational constants in MHz :   661.859643   225.554726   173.151524

                             ****ORCA TERMINATED NORMALLY****
TOTAL RUN TIME: 0 days 0 hours 0 minutes 20 seconds 977 msec
