                         Program Version 4.2.1 -  RELEASE  -
|  1> ! wB97X-D3 SP def2-SVP
|  2> %pal
|  3> nprocs 24
|  4> end
|  5>
|  6> * xyz 0 1
|  7> S 	 -57.5573 	 16.9622 	 -99.2034
|  8> C 	 -58.879 	 16.9755 	 -100.397
|  9> C 	 -59.8826 	 16.0572 	 -100.136
| 10> C 	 -59.4989 	 15.2263 	 -99.0814
| 11> C 	 -58.3147 	 15.5394 	 -98.3972
| 12> H 	 -60.0962 	 14.4597 	 -98.6508
| 13> C 	 -61.122 	 15.8734 	 -100.926
| 14> H 	 -61.6205 	 16.8602 	 -101.091
| 15> H 	 -61.8412 	 15.2914 	 -100.33
| 16> C 	 -60.7994 	 15.3138 	 -102.31
| 17> H 	 -60.203 	 16.1054 	 -102.844
| 18> H 	 -60.0821 	 14.5395 	 -102.272
| 19> C 	 -62.0774 	 14.8103 	 -103.128
| 20> H 	 -61.7108 	 14.3612 	 -104.081
| 21> H 	 -62.7317 	 14.3097 	 -102.468
| 22> H 	 -62.6759 	 15.6202 	 -103.468
| 23> S 	 -56.6366 	 15.9565 	 -96.2923
| 24> C 	 -56.4685 	 14.7976 	 -95.0386
| 25> C 	 -57.251 	 13.6732 	 -95.2807
| 26> C 	 -57.9234 	 13.6895 	 -96.5632
| 27> C 	 -57.8018 	 14.9837 	 -97.1572
| 28> H 	 -57.2496 	 12.8168 	 -94.6567
| 29> C 	 -58.8125 	 12.5355 	 -96.9918
| 30> H 	 -59.7963 	 12.9142 	 -97.2708
| 31> H 	 -59.0834 	 12.0063 	 -96.0598
| 32> C 	 -58.2577 	 11.6213 	 -98.1035
| 33> H 	 -57.4455 	 11.0529 	 -97.7226
| 34> H 	 -57.9321 	 12.2448 	 -98.9137
| 35> C 	 -59.3494 	 10.6069 	 -98.5341
| 36> H 	 -60.1594 	 11.1058 	 -99.1115
| 37> H 	 -59.838 	 10.1414 	 -97.7042
| 38> H 	 -59.0379 	 9.67752 	 -99.0873
| 39> H 	 -58.9957 	 17.6713 	 -101.197
| 40> H 	 -55.9365 	 15.04 	 -94.1386
| 41> *
| 42>
| 43>                          ****END OF INPUT****

CARTESIAN COORDINATES (ANGSTROEM)
---------------------------------
  S    -57.557300   16.962200  -99.203400
  C    -58.879000   16.975500  -100.397000
  C    -59.882600   16.057200  -100.136000
  C    -59.498900   15.226300  -99.081400
  C    -58.314700   15.539400  -98.397200
  H    -60.096200   14.459700  -98.650800
  C    -61.122000   15.873400  -100.926000
  H    -61.620500   16.860200  -101.091000
  H    -61.841200   15.291400  -100.330000
  C    -60.799400   15.313800  -102.310000
  H    -60.203000   16.105400  -102.844000
  H    -60.082100   14.539500  -102.272000
  C    -62.077400   14.810300  -103.128000
  H    -61.710800   14.361200  -104.081000
  H    -62.731700   14.309700  -102.468000
  H    -62.675900   15.620200  -103.468000
  S    -56.636600   15.956500  -96.292300
  C    -56.468500   14.797600  -95.038600
  C    -57.251000   13.673200  -95.280700
  C    -57.923400   13.689500  -96.563200
  C    -57.801800   14.983700  -97.157200
  H    -57.249600   12.816800  -94.656700
  C    -58.812500   12.535500  -96.991800
  H    -59.796300   12.914200  -97.270800
  H    -59.083400   12.006300  -96.059800
  C    -58.257700   11.621300  -98.103500
  H    -57.445500   11.052900  -97.722600
  H    -57.932100   12.244800  -98.913700
  C    -59.349400   10.606900  -98.534100
  H    -60.159400   11.105800  -99.111500
  H    -59.838000   10.141400  -97.704200
  H    -59.037900    9.677520  -99.087300
  H    -58.995700   17.671300  -101.197000
  H    -55.936500   15.040000  -94.138600

 Total Charge           Charge          ....    0
 Multiplicity           Mult            ....    1
 Number of Electrons    NEL             ....  134
 Basis Dimension        Dim             ....  322

ORBITAL ENERGIES
----------------

  NO   OCC          E(Eh)            E(eV)
   0   2.0000     -88.969573     -2420.9852
   1   2.0000     -88.967080     -2420.9173
   2   2.0000     -10.335324      -281.2385
   3   2.0000     -10.332908      -281.1727
   4   2.0000     -10.316561      -280.7279
   5   2.0000     -10.313298      -280.6391
   6   2.0000     -10.309287      -280.5300
   7   2.0000     -10.297303      -280.2039
   8   2.0000     -10.296511      -280.1823
   9   2.0000     -10.296160      -280.1728
  10   2.0000     -10.295435      -280.1530
  11   2.0000     -10.291033      -280.0332
  12   2.0000     -10.290298      -280.0132
  13   2.0000     -10.286358      -279.9060
  14   2.0000     -10.282226      -279.7936
  15   2.0000     -10.281085      -279.7626
  16   2.0000      -8.082665      -219.9405
  17   2.0000      -8.082576      -219.9381
  18   2.0000      -6.041331      -164.3930
  19   2.0000      -6.040991      -164.3837
  20   2.0000      -6.037460      -164.2876
  21   2.0000      -6.036877      -164.2718
  22   2.0000      -6.033528      -164.1807
  23   2.0000      -6.033309      -164.1747
  24   2.0000      -1.004098       -27.3229
  25   2.0000      -0.981683       -26.7130
  26   2.0000      -0.912959       -24.8429
  27   2.0000      -0.909525       -24.7494
  28   2.0000      -0.865928       -23.5631
  29   2.0000      -0.852982       -23.2108
  30   2.0000      -0.844241       -22.9730
  31   2.0000      -0.812093       -22.0982
  32   2.0000      -0.783021       -21.3071
  33   2.0000      -0.770695       -20.9717
  34   2.0000      -0.713324       -19.4105
  35   2.0000      -0.710259       -19.3271
  36   2.0000      -0.696541       -18.9538
  37   2.0000      -0.668042       -18.1783
  38   2.0000      -0.638297       -17.3689
  39   2.0000      -0.621587       -16.9142
  40   2.0000      -0.598753       -16.2929
  41   2.0000      -0.568363       -15.4660
  42   2.0000      -0.567154       -15.4330
  43   2.0000      -0.552185       -15.0257
  44   2.0000      -0.532583       -14.4923
  45   2.0000      -0.519808       -14.1447
  46   2.0000      -0.518579       -14.1112
  47   2.0000      -0.513422       -13.9709
  48   2.0000      -0.501791       -13.6544
  49   2.0000      -0.498352       -13.5608
  50   2.0000      -0.488452       -13.2915
  51   2.0000      -0.483868       -13.1667
  52   2.0000      -0.473505       -12.8847
  53   2.0000      -0.460733       -12.5372
  54   2.0000      -0.457559       -12.4508
  55   2.0000      -0.453124       -12.3301
  56   2.0000      -0.450229       -12.2513
  57   2.0000      -0.441730       -12.0201
  58   2.0000      -0.434864       -11.8333
  59   2.0000      -0.428146       -11.6505
  60   2.0000      -0.424065       -11.5394
  61   2.0000      -0.416654       -11.3377
  62   2.0000      -0.413229       -11.2445
  63   2.0000      -0.358964        -9.7679
  64   2.0000      -0.337360        -9.1800
  65   2.0000      -0.329463        -8.9651
  66   2.0000      -0.275557        -7.4983
  67   0.0000       0.014319         0.3896
  68   0.0000       0.077013         2.0956
  69   0.0000       0.097173         2.6442
  70   0.0000       0.118893         3.2352
  71   0.0000       0.131333         3.5738

MULLIKEN ATOMIC CHARGES
-----------------------
   0 S :    0.098153
   1 C :   -0.109337
   2 C :   -0.070384
   3 C :    0.007772
   4 C :   -0.108600
   5 H :   -0.024590
   6 C :    0.064402
   7 H :    0.037354
   8 H :    0.023071
   9 C :   -0.093433
  10 H :    0.026443
  11 H :    0.024366
  12 C :   -0.012244
  13 H :    0.047896
  14 H :    0.026307
  15 H :    0.014949
  16 S :    0.099103
  17 C :   -0.081342
  18 C :   -0.012869
  19 C :   -0.047460
  20 C :   -0.133005
  21 H :    0.007793
  22 C :    0.000233
  23 H :    0.023824
  24 H :    0.019188
  25 C :   -0.006349
  26 H :    0.025387
  27 H :    0.042894
  28 C :   -0.072621
  29 H :    0.034071
  30 H :    0.016148
  31 H :    0.040584
  32 H :    0.032416
  33 H :    0.059878
Sum of atomic charges:   -0.0000000

LOEWDIN ATOMIC CHARGES
----------------------
   0 S :    0.370581
   1 C :   -0.181426
   2 C :   -0.062038
   3 C :   -0.064479
   4 C :   -0.173350
   5 H :    0.020658
   6 C :   -0.035697
   7 H :    0.038089
   8 H :    0.028926
   9 C :   -0.036123
  10 H :    0.027871
  11 H :    0.016495
  12 C :   -0.062985
  13 H :    0.036923
  14 H :    0.020726
  15 H :    0.020363
  16 S :    0.423489
  17 C :   -0.195304
  18 C :   -0.065046
  19 C :   -0.054425
  20 C :   -0.195146
  21 H :    0.024357
  22 C :   -0.035360
  23 H :    0.025699
  24 H :    0.032909
  25 C :   -0.027112
  26 H :    0.022742
  27 H :    0.027839
  28 C :   -0.074909
  29 H :    0.026774
  30 H :    0.019361
  31 H :    0.031952
  32 H :    0.020144
  33 H :    0.027503

  Mayer bond orders larger than 0.100000
B(  0-S ,  1-C ) :   1.1316 B(  0-S ,  4-C ) :   1.1255 B(  1-C ,  2-C ) :   1.5954
B(  1-C ,  4-C ) :   0.1030 B(  1-C , 32-H ) :   0.9654 B(  2-C ,  3-C ) :   1.2717
B(  2-C ,  6-C ) :   1.0341 B(  3-C ,  4-C ) :   1.5506 B(  3-C ,  5-H ) :   0.9935
B(  4-C , 20-C ) :   1.1113 B(  6-C ,  7-H ) :   0.9324 B(  6-C ,  8-H ) :   0.9412
B(  6-C ,  9-C ) :   1.0543 B(  9-C , 10-H ) :   0.9528 B(  9-C , 11-H ) :   0.9632
B(  9-C , 12-C ) :   1.0658 B( 12-C , 13-H ) :   0.9751 B( 12-C , 14-H ) :   0.9767
B( 12-C , 15-H ) :   0.9743 B( 16-S , 17-C ) :   1.1697 B( 16-S , 20-C ) :   1.1537
B( 17-C , 18-C ) :   1.5694 B( 17-C , 33-H ) :   0.9714 B( 18-C , 19-C ) :   1.2793
B( 18-C , 21-H ) :   0.9902 B( 19-C , 20-C ) :   1.5251 B( 19-C , 22-C ) :   1.0334
B( 22-C , 23-H ) :   0.9466 B( 22-C , 24-H ) :   0.9331 B( 22-C , 25-C ) :   1.0470
B( 25-C , 26-H ) :   0.9543 B( 25-C , 27-H ) :   0.9603 B( 25-C , 28-C ) :   1.0735
B( 28-C , 29-H ) :   0.9762 B( 28-C , 30-H ) :   0.9718 B( 28-C , 31-H ) :   0.9762

Dispersion correction           -0.013809576
FINAL SINGLE POINT ENERGY     -1339.876188527487

DIPOLE MOMENT
-------------
                                X             Y             Z
Electronic contribution:     20.00223      19.92546      16.48401
Nuclear contribution   :    -20.52236     -20.37664     -16.55315
                        -----------------------------------------
Total Dipole Moment    :     -0.52014      -0.45118      -0.06914
                        -----------------------------------------
Magnitude (a.u.)       :      0.69202
Magnitude (Debye)      :      1.75897

Rotational constants in cm-1:     0.018204     0.008810     0.006235
Rotational constants in MHz :   545.739775   264.107430   186.935532

                             ****ORCA TERMINATED NORMALLY****
TOTAL RUN TIME: 0 days 0 hours 0 minutes 21 seconds 269 msec
