                         Program Version 4.2.1 -  RELEASE  -
|  1> ! wB97X-D3 SP def2-SVP
|  2> %pal
|  3> nprocs 24
|  4> end
|  5>
|  6> * xyz 0 1
|  7> S 	 -128.995 	 67.3288 	 -37.1048
|  8> C 	 -129.138 	 66.0964 	 -38.3405
|  9> C 	 -128.43 	 64.9712 	 -38.0031
| 10> C 	 -127.75 	 65.1054 	 -36.7544
| 11> C 	 -128.022 	 66.3033 	 -36.0784
| 12> H 	 -127.101 	 64.3448 	 -36.2446
| 13> C 	 -128.276 	 63.6508 	 -38.7844
| 14> H 	 -129.274 	 63.3557 	 -38.7689
| 15> H 	 -127.61 	 62.966 	 -38.274
| 16> C 	 -127.798 	 63.7918 	 -40.2231
| 17> H 	 -127.948 	 62.8712 	 -40.6638
| 18> H 	 -128.423 	 64.5739 	 -40.7171
| 19> C 	 -126.31 	 64.1141 	 -40.3868
| 20> H 	 -125.652 	 63.2797 	 -40.185
| 21> H 	 -125.922 	 64.6078 	 -41.3037
| 22> H 	 -126.103 	 64.9742 	 -39.7196
| 23> S 	 -128.578 	 67.0512 	 -33.606
| 24> C 	 -127.399 	 67.0529 	 -32.3323
| 25> C 	 -126.117 	 66.9312 	 -32.8405
| 26> C 	 -126.127 	 66.65 	 -34.2665
| 27> C 	 -127.405 	 66.6947 	 -34.818
| 28> H 	 -125.277 	 67.057 	 -32.0998
| 29> C 	 -124.91 	 66.3895 	 -35.1168
| 30> H 	 -124.784 	 67.1325 	 -35.8252
| 31> H 	 -125.069 	 65.5261 	 -35.7546
| 32> C 	 -123.627 	 66.1595 	 -34.2865
| 33> H 	 -123.706 	 65.1895 	 -33.8398
| 34> H 	 -123.711 	 66.9918 	 -33.5786
| 35> C 	 -122.281 	 66.2661 	 -35.1455
| 36> H 	 -122.132 	 67.2629 	 -35.5663
| 37> H 	 -122.207 	 65.6761 	 -36.0519
| 38> H 	 -121.431 	 65.9832 	 -34.6077
| 39> H 	 -129.782 	 66.1089 	 -39.1813
| 40> H 	 -127.695 	 67.2182 	 -31.3292
| 41> *
| 42>
| 43>                          ****END OF INPUT****

CARTESIAN COORDINATES (ANGSTROEM)
---------------------------------
  S    -128.995000   67.328800  -37.104800
  C    -129.138000   66.096400  -38.340500
  C    -128.430000   64.971200  -38.003100
  C    -127.750000   65.105400  -36.754400
  C    -128.022000   66.303300  -36.078400
  H    -127.101000   64.344800  -36.244600
  C    -128.276000   63.650800  -38.784400
  H    -129.274000   63.355700  -38.768900
  H    -127.610000   62.966000  -38.274000
  C    -127.798000   63.791800  -40.223100
  H    -127.948000   62.871200  -40.663800
  H    -128.423000   64.573900  -40.717100
  C    -126.310000   64.114100  -40.386800
  H    -125.652000   63.279700  -40.185000
  H    -125.922000   64.607800  -41.303700
  H    -126.103000   64.974200  -39.719600
  S    -128.578000   67.051200  -33.606000
  C    -127.399000   67.052900  -32.332300
  C    -126.117000   66.931200  -32.840500
  C    -126.127000   66.650000  -34.266500
  C    -127.405000   66.694700  -34.818000
  H    -125.277000   67.057000  -32.099800
  C    -124.910000   66.389500  -35.116800
  H    -124.784000   67.132500  -35.825200
  H    -125.069000   65.526100  -35.754600
  C    -123.627000   66.159500  -34.286500
  H    -123.706000   65.189500  -33.839800
  H    -123.711000   66.991800  -33.578600
  C    -122.281000   66.266100  -35.145500
  H    -122.132000   67.262900  -35.566300
  H    -122.207000   65.676100  -36.051900
  H    -121.431000   65.983200  -34.607700
  H    -129.782000   66.108900  -39.181300
  H    -127.695000   67.218200  -31.329200

 Total Charge           Charge          ....    0
 Multiplicity           Mult            ....    1
 Number of Electrons    NEL             ....  134
 Basis Dimension        Dim             ....  322

ORBITAL ENERGIES
----------------

  NO   OCC          E(Eh)            E(eV)
   0   2.0000     -88.968318     -2420.9510
   1   2.0000     -88.960367     -2420.7347
   2   2.0000     -10.330484      -281.1067
   3   2.0000     -10.323369      -280.9132
   4   2.0000     -10.315504      -280.6991
   5   2.0000     -10.311050      -280.5779
   6   2.0000     -10.309655      -280.5400
   7   2.0000     -10.304025      -280.3868
   8   2.0000     -10.300058      -280.2788
   9   2.0000     -10.295312      -280.1497
  10   2.0000     -10.290874      -280.0289
  11   2.0000     -10.288278      -279.9583
  12   2.0000     -10.284240      -279.8484
  13   2.0000     -10.281296      -279.7683
  14   2.0000     -10.277704      -279.6705
  15   2.0000     -10.276848      -279.6473
  16   2.0000      -8.082765      -219.9432
  17   2.0000      -8.076364      -219.7690
  18   2.0000      -6.041379      -164.3943
  19   2.0000      -6.037203      -164.2806
  20   2.0000      -6.034753      -164.2140
  21   2.0000      -6.033547      -164.1812
  22   2.0000      -6.030489      -164.0980
  23   2.0000      -6.027378      -164.0133
  24   2.0000      -1.008403       -27.4400
  25   2.0000      -0.985310       -26.8116
  26   2.0000      -0.915000       -24.8984
  27   2.0000      -0.907198       -24.6861
  28   2.0000      -0.871280       -23.7087
  29   2.0000      -0.847131       -23.0516
  30   2.0000      -0.841310       -22.8932
  31   2.0000      -0.813274       -22.1303
  32   2.0000      -0.785397       -21.3717
  33   2.0000      -0.777301       -21.1514
  34   2.0000      -0.713848       -19.4248
  35   2.0000      -0.707920       -19.2635
  36   2.0000      -0.697985       -18.9931
  37   2.0000      -0.652537       -17.7564
  38   2.0000      -0.636695       -17.3254
  39   2.0000      -0.613402       -16.6915
  40   2.0000      -0.597634       -16.2624
  41   2.0000      -0.582366       -15.8470
  42   2.0000      -0.568339       -15.4653
  43   2.0000      -0.557276       -15.1643
  44   2.0000      -0.546693       -14.8763
  45   2.0000      -0.525908       -14.3107
  46   2.0000      -0.513795       -13.9811
  47   2.0000      -0.509086       -13.8529
  48   2.0000      -0.499757       -13.5991
  49   2.0000      -0.495372       -13.4797
  50   2.0000      -0.486691       -13.2435
  51   2.0000      -0.482003       -13.1160
  52   2.0000      -0.475924       -12.9506
  53   2.0000      -0.462432       -12.5834
  54   2.0000      -0.460999       -12.5444
  55   2.0000      -0.453194       -12.3320
  56   2.0000      -0.446694       -12.1552
  57   2.0000      -0.439959       -11.9719
  58   2.0000      -0.438342       -11.9279
  59   2.0000      -0.422528       -11.4976
  60   2.0000      -0.420369       -11.4388
  61   2.0000      -0.413413       -11.2495
  62   2.0000      -0.406762       -11.0686
  63   2.0000      -0.345497        -9.4015
  64   2.0000      -0.330914        -9.0046
  65   2.0000      -0.326492        -8.8843
  66   2.0000      -0.294814        -8.0223
  67   0.0000       0.032434         0.8826
  68   0.0000       0.066194         1.8012
  69   0.0000       0.118577         3.2266
  70   0.0000       0.128453         3.4954
  71   0.0000       0.128869         3.5067

MULLIKEN ATOMIC CHARGES
-----------------------
   0 S :    0.121479
   1 C :   -0.118946
   2 C :   -0.103412
   3 C :   -0.010234
   4 C :   -0.140015
   5 H :    0.037282
   6 C :    0.109840
   7 H :    0.026232
   8 H :    0.018773
   9 C :   -0.035682
  10 H :    0.014494
  11 H :    0.029378
  12 C :   -0.078748
  13 H :    0.034208
  14 H :    0.034376
  15 H :    0.028706
  16 S :    0.100747
  17 C :   -0.087509
  18 C :   -0.071725
  19 C :   -0.043143
  20 C :   -0.153731
  21 H :    0.052073
  22 C :    0.097885
  23 H :    0.016103
  24 H :    0.011305
  25 C :   -0.094063
  26 H :    0.037734
  27 H :    0.042465
  28 C :   -0.025776
  29 H :    0.026596
  30 H :    0.019776
  31 H :    0.023659
  32 H :    0.032751
  33 H :    0.047121
Sum of atomic charges:    0.0000000

LOEWDIN ATOMIC CHARGES
----------------------
   0 S :    0.412102
   1 C :   -0.203293
   2 C :   -0.059711
   3 C :   -0.071832
   4 C :   -0.204850
   5 H :    0.038386
   6 C :   -0.017814
   7 H :    0.029963
   8 H :    0.028593
   9 C :   -0.034504
  10 H :    0.013846
  11 H :    0.028208
  12 C :   -0.078743
  13 H :    0.022706
  14 H :    0.031968
  15 H :    0.029817
  16 S :    0.427106
  17 C :   -0.180321
  18 C :   -0.085817
  19 C :   -0.051458
  20 C :   -0.208935
  21 H :    0.045867
  22 C :   -0.029915
  23 H :    0.023788
  24 H :    0.029111
  25 C :   -0.029462
  26 H :    0.023457
  27 H :    0.025546
  28 C :   -0.066332
  29 H :    0.027229
  30 H :    0.024596
  31 H :    0.018183
  32 H :    0.021864
  33 H :    0.020655

  Mayer bond orders larger than 0.100000
B(  0-S ,  1-C ) :   1.1326 B(  0-S ,  4-C ) :   1.1602 B(  1-C ,  2-C ) :   1.6103
B(  1-C ,  4-C ) :   0.1008 B(  1-C , 32-H ) :   0.9700 B(  2-C ,  3-C ) :   1.2586
B(  2-C ,  6-C ) :   0.9932 B(  3-C ,  4-C ) :   1.5649 B(  3-C ,  5-H ) :   0.9823
B(  4-C , 20-C ) :   1.0125 B(  6-C ,  7-H ) :   0.9273 B(  6-C ,  8-H ) :   0.9476
B(  6-C ,  9-C ) :   1.0883 B(  9-C , 10-H ) :   0.9547 B(  9-C , 11-H ) :   0.9547
B(  9-C , 12-C ) :   1.0688 B( 12-C , 13-H ) :   0.9759 B( 12-C , 14-H ) :   0.9744
B( 12-C , 15-H ) :   0.9755 B( 16-S , 17-C ) :   1.1839 B( 16-S , 20-C ) :   1.1563
B( 17-C , 18-C ) :   1.5914 B( 17-C , 20-C ) :   0.1018 B( 17-C , 33-H ) :   0.9721
B( 18-C , 19-C ) :   1.2258 B( 18-C , 21-H ) :   0.9807 B( 19-C , 20-C ) :   1.5991
B( 19-C , 22-C ) :   1.0324 B( 22-C , 23-H ) :   0.9326 B( 22-C , 24-H ) :   0.9243
B( 22-C , 25-C ) :   1.0639 B( 25-C , 26-H ) :   0.9624 B( 25-C , 27-H ) :   0.9527
B( 25-C , 28-C ) :   1.0743 B( 28-C , 29-H ) :   0.9759 B( 28-C , 30-H ) :   0.9754
B( 28-C , 31-H ) :   0.9767

Dispersion correction           -0.013827999
FINAL SINGLE POINT ENERGY     -1339.863167667080

DIPOLE MOMENT
-------------
                                X             Y             Z
Electronic contribution:    -23.09398      12.89095      13.63268
Nuclear contribution   :     23.54216     -13.32244     -13.76475
                        -----------------------------------------
Total Dipole Moment    :      0.44818      -0.43150      -0.13206
                        -----------------------------------------
Magnitude (a.u.)       :      0.63600
Magnitude (Debye)      :      1.61659

Rotational constants in cm-1:     0.016938     0.008941     0.006388
Rotational constants in MHz :   507.774102   268.053333   191.514604

                             ****ORCA TERMINATED NORMALLY****
TOTAL RUN TIME: 0 days 0 hours 0 minutes 21 seconds 288 msec
