                         Program Version 4.2.1 -  RELEASE  -
|  1> ! wB97X-D3 SP def2-SVP
|  2> %pal
|  3> nprocs 24
|  4> end
|  5>
|  6> * xyz 0 1
|  7> S 	 25.6924 	 -6.52731 	 -118.769
|  8> C 	 24.8323 	 -7.05563 	 -120.167
|  9> C 	 25.4884 	 -8.16733 	 -120.741
| 10> C 	 26.8268 	 -8.23437 	 -120.328
| 11> C 	 27.0971 	 -7.40508 	 -119.262
| 12> H 	 27.6389 	 -8.88137 	 -120.655
| 13> C 	 24.8669 	 -8.85815 	 -121.941
| 14> H 	 23.8713 	 -8.49209 	 -122.136
| 15> H 	 24.7833 	 -9.9665 	 -121.784
| 16> C 	 25.6797 	 -8.80819 	 -123.247
| 17> H 	 26.6827 	 -8.93587 	 -122.953
| 18> H 	 25.4545 	 -9.66603 	 -123.788
| 19> C 	 25.6125 	 -7.44033 	 -123.985
| 20> H 	 25.7705 	 -6.68098 	 -123.231
| 21> H 	 26.3455 	 -7.23512 	 -124.815
| 22> H 	 24.7163 	 -7.25029 	 -124.441
| 23> S 	 29.0535 	 -5.45879 	 -118.761
| 24> C 	 30.558 	 -5.8955 	 -117.913
| 25> C 	 30.627 	 -7.25573 	 -117.788
| 26> C 	 29.3997 	 -7.91516 	 -118.112
| 27> C 	 28.4234 	 -7.13203 	 -118.722
| 28> H 	 31.4606 	 -7.72872 	 -117.227
| 29> C 	 29.1647 	 -9.39707 	 -117.819
| 30> H 	 28.5947 	 -9.80817 	 -118.68
| 31> H 	 28.4412 	 -9.49114 	 -116.989
| 32> C 	 30.4516 	 -10.2623 	 -117.593
| 33> H 	 30.8882 	 -10.0703 	 -116.622
| 34> H 	 31.1813 	 -10.1178 	 -118.448
| 35> C 	 29.9271 	 -11.7028 	 -117.461
| 36> H 	 30.838 	 -12.2813 	 -117.56
| 37> H 	 29.3171 	 -12.0738 	 -118.245
| 38> H 	 29.5039 	 -11.977 	 -116.506
| 39> H 	 23.8614 	 -6.76948 	 -120.486
| 40> H 	 31.3206 	 -5.30058 	 -117.526
| 41> *
| 42>
| 43>                          ****END OF INPUT****

CARTESIAN COORDINATES (ANGSTROEM)
---------------------------------
  S     25.692400   -6.527310  -118.769000
  C     24.832300   -7.055630  -120.167000
  C     25.488400   -8.167330  -120.741000
  C     26.826800   -8.234370  -120.328000
  C     27.097100   -7.405080  -119.262000
  H     27.638900   -8.881370  -120.655000
  C     24.866900   -8.858150  -121.941000
  H     23.871300   -8.492090  -122.136000
  H     24.783300   -9.966500  -121.784000
  C     25.679700   -8.808190  -123.247000
  H     26.682700   -8.935870  -122.953000
  H     25.454500   -9.666030  -123.788000
  C     25.612500   -7.440330  -123.985000
  H     25.770500   -6.680980  -123.231000
  H     26.345500   -7.235120  -124.815000
  H     24.716300   -7.250290  -124.441000
  S     29.053500   -5.458790  -118.761000
  C     30.558000   -5.895500  -117.913000
  C     30.627000   -7.255730  -117.788000
  C     29.399700   -7.915160  -118.112000
  C     28.423400   -7.132030  -118.722000
  H     31.460600   -7.728720  -117.227000
  C     29.164700   -9.397070  -117.819000
  H     28.594700   -9.808170  -118.680000
  H     28.441200   -9.491140  -116.989000
  C     30.451600  -10.262300  -117.593000
  H     30.888200  -10.070300  -116.622000
  H     31.181300  -10.117800  -118.448000
  C     29.927100  -11.702800  -117.461000
  H     30.838000  -12.281300  -117.560000
  H     29.317100  -12.073800  -118.245000
  H     29.503900  -11.977000  -116.506000
  H     23.861400   -6.769480  -120.486000
  H     31.320600   -5.300580  -117.526000

 Total Charge           Charge          ....    0
 Multiplicity           Mult            ....    1
 Number of Electrons    NEL             ....  134
 Basis Dimension        Dim             ....  322

ORBITAL ENERGIES
----------------

  NO   OCC          E(Eh)            E(eV)
   0   2.0000     -88.969456     -2420.9820
   1   2.0000     -88.961336     -2420.7610
   2   2.0000     -10.326885      -281.0088
   3   2.0000     -10.325851      -280.9807
   4   2.0000     -10.315690      -280.7042
   5   2.0000     -10.313978      -280.6576
   6   2.0000     -10.303468      -280.3716
   7   2.0000     -10.301775      -280.3255
   8   2.0000     -10.296108      -280.1713
   9   2.0000     -10.295553      -280.1562
  10   2.0000     -10.293303      -280.0950
  11   2.0000     -10.293175      -280.0915
  12   2.0000     -10.292564      -280.0749
  13   2.0000     -10.277214      -279.6572
  14   2.0000     -10.272747      -279.5356
  15   2.0000     -10.270494      -279.4744
  16   2.0000      -8.084779      -219.9980
  17   2.0000      -8.074952      -219.7306
  18   2.0000      -6.043115      -164.4415
  19   2.0000      -6.039196      -164.3349
  20   2.0000      -6.035677      -164.2391
  21   2.0000      -6.033653      -164.1841
  22   2.0000      -6.029531      -164.0719
  23   2.0000      -6.025632      -163.9658
  24   2.0000      -1.009706       -27.4755
  25   2.0000      -0.982152       -26.7257
  26   2.0000      -0.912441       -24.8288
  27   2.0000      -0.904263       -24.6062
  28   2.0000      -0.870460       -23.6864
  29   2.0000      -0.850827       -23.1522
  30   2.0000      -0.842825       -22.9344
  31   2.0000      -0.817841       -22.2546
  32   2.0000      -0.782383       -21.2897
  33   2.0000      -0.766709       -20.8632
  34   2.0000      -0.715211       -19.4619
  35   2.0000      -0.704516       -19.1709
  36   2.0000      -0.695795       -18.9336
  37   2.0000      -0.648667       -17.6511
  38   2.0000      -0.647541       -17.6205
  39   2.0000      -0.621462       -16.9108
  40   2.0000      -0.592797       -16.1308
  41   2.0000      -0.573817       -15.6143
  42   2.0000      -0.571333       -15.5468
  43   2.0000      -0.551489       -15.0068
  44   2.0000      -0.533730       -14.5235
  45   2.0000      -0.526901       -14.3377
  46   2.0000      -0.517859       -14.0917
  47   2.0000      -0.511309       -13.9134
  48   2.0000      -0.500854       -13.6289
  49   2.0000      -0.496635       -13.5141
  50   2.0000      -0.483979       -13.1698
  51   2.0000      -0.480026       -13.0622
  52   2.0000      -0.474308       -12.9066
  53   2.0000      -0.470242       -12.7959
  54   2.0000      -0.460023       -12.5179
  55   2.0000      -0.448676       -12.2091
  56   2.0000      -0.446690       -12.1550
  57   2.0000      -0.437641       -11.9088
  58   2.0000      -0.432426       -11.7669
  59   2.0000      -0.430168       -11.7055
  60   2.0000      -0.422551       -11.4982
  61   2.0000      -0.419309       -11.4100
  62   2.0000      -0.399136       -10.8610
  63   2.0000      -0.344040        -9.3618
  64   2.0000      -0.328612        -8.9420
  65   2.0000      -0.325990        -8.8706
  66   2.0000      -0.294229        -8.0064
  67   0.0000       0.024244         0.6597
  68   0.0000       0.068786         1.8718
  69   0.0000       0.109302         2.9743
  70   0.0000       0.123738         3.3671
  71   0.0000       0.136780         3.7220

MULLIKEN ATOMIC CHARGES
-----------------------
   0 S :    0.144693
   1 C :   -0.114324
   2 C :   -0.063005
   3 C :    0.027192
   4 C :   -0.184732
   5 H :    0.029468
   6 C :    0.033204
   7 H :    0.012528
   8 H :    0.036056
   9 C :   -0.019755
  10 H :    0.008404
  11 H :    0.009894
  12 C :   -0.037250
  13 H :    0.031205
  14 H :    0.037220
  15 H :    0.007118
  16 S :    0.093297
  17 C :   -0.052063
  18 C :   -0.054662
  19 C :   -0.043213
  20 C :   -0.145856
  21 H :    0.035898
  22 C :    0.034879
  23 H :    0.015453
  24 H :    0.042048
  25 C :   -0.102987
  26 H :    0.038117
  27 H :    0.054295
  28 C :   -0.019892
  29 H :    0.017403
  30 H :    0.022227
  31 H :    0.035305
  32 H :    0.038729
  33 H :    0.033105
Sum of atomic charges:   -0.0000000

LOEWDIN ATOMIC CHARGES
----------------------
   0 S :    0.435426
   1 C :   -0.196477
   2 C :   -0.062904
   3 C :   -0.057739
   4 C :   -0.206669
   5 H :    0.035681
   6 C :   -0.029687
   7 H :    0.023575
   8 H :    0.039056
   9 C :   -0.031181
  10 H :    0.018186
  11 H :    0.013760
  12 C :   -0.063077
  13 H :    0.028010
  14 H :    0.033188
  15 H :    0.008548
  16 S :    0.376523
  17 C :   -0.161518
  18 C :   -0.083254
  19 C :   -0.058435
  20 C :   -0.197319
  21 H :    0.038312
  22 C :   -0.039283
  23 H :    0.029207
  24 H :    0.037371
  25 C :   -0.039893
  26 H :    0.025357
  27 H :    0.034266
  28 C :   -0.062427
  29 H :    0.026340
  30 H :    0.017920
  31 H :    0.026072
  32 H :    0.020884
  33 H :    0.022184

  Mayer bond orders larger than 0.100000
B(  0-S ,  1-C ) :   1.1624 B(  0-S ,  4-C ) :   1.1648 B(  1-C ,  2-C ) :   1.5510
B(  1-C ,  4-C ) :   0.1002 B(  1-C , 32-H ) :   0.9738 B(  2-C ,  3-C ) :   1.2500
B(  2-C ,  6-C ) :   1.0509 B(  3-C ,  4-C ) :   1.5646 B(  3-C ,  5-H ) :   0.9817
B(  4-C , 20-C ) :   1.0470 B(  6-C ,  7-H ) :   0.9471 B(  6-C ,  8-H ) :   0.9327
B(  6-C ,  9-C ) :   1.0725 B(  9-C , 10-H ) :   0.9535 B(  9-C , 11-H ) :   0.9566
B(  9-C , 12-C ) :   1.0603 B( 12-C , 13-H ) :   0.9762 B( 12-C , 14-H ) :   0.9766
B( 12-C , 15-H ) :   0.9781 B( 16-S , 17-C ) :   1.1519 B( 16-S , 20-C ) :   1.1123
B( 17-C , 18-C ) :   1.6137 B( 17-C , 33-H ) :   0.9675 B( 18-C , 19-C ) :   1.2557
B( 18-C , 21-H ) :   0.9752 B( 19-C , 20-C ) :   1.6061 B( 19-C , 22-C ) :   1.0253
B( 22-C , 23-H ) :   0.9404 B( 22-C , 24-H ) :   0.9289 B( 22-C , 25-C ) :   1.0778
B( 25-C , 26-H ) :   0.9444 B( 25-C , 27-H ) :   0.9588 B( 25-C , 28-C ) :   1.0812
B( 28-C , 29-H ) :   0.9697 B( 28-C , 30-H ) :   0.9753 B( 28-C , 31-H ) :   0.9756

Dispersion correction           -0.013860602
FINAL SINGLE POINT ENERGY     -1339.858243674672

DIPOLE MOMENT
-------------
                                X             Y             Z
Electronic contribution:     -2.17726      21.56961      11.12360
Nuclear contribution   :      2.29757     -22.21557     -11.18649
                        -----------------------------------------
Total Dipole Moment    :      0.12032      -0.64596      -0.06289
                        -----------------------------------------
Magnitude (a.u.)       :      0.66007
Magnitude (Debye)      :      1.67777

Rotational constants in cm-1:     0.017554     0.008326     0.006840
Rotational constants in MHz :   526.252416   249.609845   205.051581

                             ****ORCA TERMINATED NORMALLY****
TOTAL RUN TIME: 0 days 0 hours 0 minutes 21 seconds 305 msec
