                         Program Version 4.2.1 -  RELEASE  -
|  1> ! wB97X-D3 SP def2-SVP
|  2> %pal
|  3> nprocs 24
|  4> end
|  5>
|  6> * xyz 0 1
|  7> S 	 -98.8003 	 -25.3058 	 -60.463
|  8> C 	 -100.47 	 -25.2727 	 -60.8374
|  9> C 	 -100.994 	 -23.9865 	 -61.1465
| 10> C 	 -99.8745 	 -23.0278 	 -61.131
| 11> C 	 -98.6904 	 -23.5831 	 -60.7952
| 12> H 	 -99.941 	 -21.9324 	 -61.2717
| 13> C 	 -102.471 	 -23.5599 	 -61.5637
| 14> H 	 -102.693 	 -22.5215 	 -61.1788
| 15> H 	 -103.167 	 -24.2736 	 -61.091
| 16> C 	 -102.767 	 -23.6549 	 -63.0776
| 17> H 	 -102.122 	 -22.9845 	 -63.6604
| 18> H 	 -102.844 	 -24.6563 	 -63.3981
| 19> C 	 -104.144 	 -23.0912 	 -63.3115
| 20> H 	 -104.115 	 -22.063 	 -63.059
| 21> H 	 -104.524 	 -23.1024 	 -64.2749
| 22> H 	 -104.867 	 -23.5162 	 -62.5846
| 23> S 	 -96.1726 	 -23.5709 	 -59.6786
| 24> C 	 -95.084 	 -22.2276 	 -59.803
| 25> C 	 -95.5315 	 -21.3192 	 -60.6931
| 26> C 	 -96.8869 	 -21.633 	 -61.1421
| 27> C 	 -97.4341 	 -22.8307 	 -60.6381
| 28> H 	 -95.0036 	 -20.3852 	 -60.9888
| 29> C 	 -97.5777 	 -20.6776 	 -62.0587
| 30> H 	 -98.347 	 -21.2538 	 -62.6443
| 31> H 	 -96.8061 	 -20.3901 	 -62.7827
| 32> C 	 -98.2736 	 -19.4567 	 -61.4364
| 33> H 	 -97.6605 	 -18.9977 	 -60.6548
| 34> H 	 -99.1629 	 -19.8551 	 -60.9147
| 35> C 	 -98.7786 	 -18.3543 	 -62.4252
| 36> H 	 -99.1915 	 -17.5004 	 -61.7864
| 37> H 	 -99.6525 	 -18.707 	 -63.0012
| 38> H 	 -98.003 	 -18.0575 	 -63.0873
| 39> H 	 -101.038 	 -26.2173 	 -61.0059
| 40> H 	 -94.0865 	 -22.1014 	 -59.3748
| 41> *
| 42>
| 43>                          ****END OF INPUT****

CARTESIAN COORDINATES (ANGSTROEM)
---------------------------------
  S    -98.800300  -25.305800  -60.463000
  C    -100.470000  -25.272700  -60.837400
  C    -100.994000  -23.986500  -61.146500
  C    -99.874500  -23.027800  -61.131000
  C    -98.690400  -23.583100  -60.795200
  H    -99.941000  -21.932400  -61.271700
  C    -102.471000  -23.559900  -61.563700
  H    -102.693000  -22.521500  -61.178800
  H    -103.167000  -24.273600  -61.091000
  C    -102.767000  -23.654900  -63.077600
  H    -102.122000  -22.984500  -63.660400
  H    -102.844000  -24.656300  -63.398100
  C    -104.144000  -23.091200  -63.311500
  H    -104.115000  -22.063000  -63.059000
  H    -104.524000  -23.102400  -64.274900
  H    -104.867000  -23.516200  -62.584600
  S    -96.172600  -23.570900  -59.678600
  C    -95.084000  -22.227600  -59.803000
  C    -95.531500  -21.319200  -60.693100
  C    -96.886900  -21.633000  -61.142100
  C    -97.434100  -22.830700  -60.638100
  H    -95.003600  -20.385200  -60.988800
  C    -97.577700  -20.677600  -62.058700
  H    -98.347000  -21.253800  -62.644300
  H    -96.806100  -20.390100  -62.782700
  C    -98.273600  -19.456700  -61.436400
  H    -97.660500  -18.997700  -60.654800
  H    -99.162900  -19.855100  -60.914700
  C    -98.778600  -18.354300  -62.425200
  H    -99.191500  -17.500400  -61.786400
  H    -99.652500  -18.707000  -63.001200
  H    -98.003000  -18.057500  -63.087300
  H    -101.038000  -26.217300  -61.005900
  H    -94.086500  -22.101400  -59.374800

 Total Charge           Charge          ....    0
 Multiplicity           Mult            ....    1
 Number of Electrons    NEL             ....  134
 Basis Dimension        Dim             ....  322

ORBITAL ENERGIES
----------------

  NO   OCC          E(Eh)            E(eV)
   0   2.0000     -88.971810     -2421.0460
   1   2.0000     -88.961522     -2420.7661
   2   2.0000     -10.331654      -281.1386
   3   2.0000     -10.331278      -281.1284
   4   2.0000     -10.321864      -280.8722
   5   2.0000     -10.316528      -280.7270
   6   2.0000     -10.315166      -280.6899
   7   2.0000     -10.309439      -280.5341
   8   2.0000     -10.304367      -280.3961
   9   2.0000     -10.298235      -280.2292
  10   2.0000     -10.295405      -280.1522
  11   2.0000     -10.291370      -280.0424
  12   2.0000     -10.291289      -280.0402
  13   2.0000     -10.286788      -279.9177
  14   2.0000     -10.285204      -279.8746
  15   2.0000     -10.268613      -279.4232
  16   2.0000      -8.086985      -220.0580
  17   2.0000      -8.076825      -219.7816
  18   2.0000      -6.045541      -164.5075
  19   2.0000      -6.041593      -164.4001
  20   2.0000      -6.037503      -164.2888
  21   2.0000      -6.035507      -164.2345
  22   2.0000      -6.031197      -164.1172
  23   2.0000      -6.027430      -164.0147
  24   2.0000      -1.008144       -27.4330
  25   2.0000      -0.985038       -26.8042
  26   2.0000      -0.914572       -24.8868
  27   2.0000      -0.905926       -24.6515
  28   2.0000      -0.872920       -23.7534
  29   2.0000      -0.854572       -23.2541
  30   2.0000      -0.843707       -22.9584
  31   2.0000      -0.817624       -22.2487
  32   2.0000      -0.778426       -21.1820
  33   2.0000      -0.767465       -20.8838
  34   2.0000      -0.703228       -19.1358
  35   2.0000      -0.700296       -19.0560
  36   2.0000      -0.688574       -18.7370
  37   2.0000      -0.665220       -18.1015
  38   2.0000      -0.638634       -17.3781
  39   2.0000      -0.620692       -16.8899
  40   2.0000      -0.591060       -16.0836
  41   2.0000      -0.580415       -15.7939
  42   2.0000      -0.564917       -15.3722
  43   2.0000      -0.559988       -15.2380
  44   2.0000      -0.530091       -14.4245
  45   2.0000      -0.523020       -14.2321
  46   2.0000      -0.516938       -14.0666
  47   2.0000      -0.508320       -13.8321
  48   2.0000      -0.500900       -13.6302
  49   2.0000      -0.499522       -13.5927
  50   2.0000      -0.496447       -13.5090
  51   2.0000      -0.481892       -13.1129
  52   2.0000      -0.468442       -12.7469
  53   2.0000      -0.466066       -12.6823
  54   2.0000      -0.456057       -12.4099
  55   2.0000      -0.452475       -12.3125
  56   2.0000      -0.443202       -12.0602
  57   2.0000      -0.437228       -11.8976
  58   2.0000      -0.436385       -11.8746
  59   2.0000      -0.432135       -11.7590
  60   2.0000      -0.423050       -11.5118
  61   2.0000      -0.418067       -11.3762
  62   2.0000      -0.407596       -11.0912
  63   2.0000      -0.366641        -9.9768
  64   2.0000      -0.335531        -9.1303
  65   2.0000      -0.322864        -8.7856
  66   2.0000      -0.284949        -7.7539
  67   0.0000       0.026464         0.7201
  68   0.0000       0.078363         2.1324
  69   0.0000       0.103177         2.8076
  70   0.0000       0.114994         3.1291
  71   0.0000       0.128616         3.4998

MULLIKEN ATOMIC CHARGES
-----------------------
   0 S :    0.127335
   1 C :   -0.134736
   2 C :   -0.067881
   3 C :   -0.035701
   4 C :   -0.084395
   5 H :    0.012430
   6 C :    0.007201
   7 H :    0.041563
   8 H :    0.031935
   9 C :   -0.029468
  10 H :    0.034663
  11 H :    0.027320
  12 C :   -0.025779
  13 H :    0.004929
  14 H :    0.023301
  15 H :    0.019679
  16 S :    0.076503
  17 C :   -0.071186
  18 C :   -0.032238
  19 C :   -0.092386
  20 C :   -0.108391
  21 H :    0.034715
  22 C :    0.015553
  23 H :    0.028729
  24 H :    0.021706
  25 C :   -0.068444
  26 H :    0.028548
  27 H :    0.024887
  28 C :   -0.055964
  29 H :    0.048420
  30 H :    0.033542
  31 H :    0.035468
  32 H :    0.067101
  33 H :    0.061040
Sum of atomic charges:   -0.0000000

LOEWDIN ATOMIC CHARGES
----------------------
   0 S :    0.416966
   1 C :   -0.215822
   2 C :   -0.057205
   3 C :   -0.068234
   4 C :   -0.188836
   5 H :    0.035166
   6 C :   -0.028796
   7 H :    0.036496
   8 H :    0.032833
   9 C :   -0.032940
  10 H :    0.028034
  11 H :    0.020623
  12 C :   -0.061244
  13 H :    0.017529
  14 H :    0.015909
  15 H :    0.025424
  16 S :    0.399453
  17 C :   -0.190932
  18 C :   -0.077443
  19 C :   -0.063598
  20 C :   -0.189856
  21 H :    0.039713
  22 C :   -0.046754
  23 H :    0.031497
  24 H :    0.029632
  25 C :   -0.043634
  26 H :    0.022928
  27 H :    0.022384
  28 C :   -0.065976
  29 H :    0.038303
  30 H :    0.025900
  31 H :    0.018497
  32 H :    0.035635
  33 H :    0.038349

  Mayer bond orders larger than 0.100000
B(  0-S ,  1-C ) :   1.1495 B(  0-S ,  4-C ) :   1.1279 B(  1-C ,  2-C ) :   1.6239
B(  1-C , 32-H ) :   0.9598 B(  2-C ,  3-C ) :   1.2143 B(  2-C ,  6-C ) :   1.0127
B(  3-C ,  4-C ) :   1.6105 B(  3-C ,  5-H ) :   0.9856 B(  4-C , 20-C ) :   1.0635
B(  6-C ,  7-H ) :   0.9510 B(  6-C ,  8-H ) :   0.9407 B(  6-C ,  9-C ) :   1.0700
B(  9-C , 10-H ) :   0.9573 B(  9-C , 11-H ) :   0.9556 B(  9-C , 12-C ) :   1.0830
B( 12-C , 13-H ) :   0.9723 B( 12-C , 14-H ) :   0.9728 B( 12-C , 15-H ) :   0.9689
B( 16-S , 17-C ) :   1.1516 B( 16-S , 20-C ) :   1.1190 B( 17-C , 18-C ) :   1.6209
B( 17-C , 33-H ) :   0.9619 B( 18-C , 19-C ) :   1.2446 B( 18-C , 21-H ) :   0.9816
B( 19-C , 20-C ) :   1.5865 B( 19-C , 22-C ) :   1.0574 B( 22-C , 23-H ) :   0.9335
B( 22-C , 24-H ) :   0.9304 B( 22-C , 25-C ) :   1.0602 B( 25-C , 26-H ) :   0.9560
B( 25-C , 27-H ) :   0.9494 B( 25-C , 28-C ) :   1.0751 B( 28-C , 29-H ) :   0.9744
B( 28-C , 30-H ) :   0.9765 B( 28-C , 31-H ) :   0.9780

Dispersion correction           -0.013450673
FINAL SINGLE POINT ENERGY     -1339.875038416574

DIPOLE MOMENT
-------------
                                X             Y             Z
Electronic contribution:     22.29364     -20.42349      15.10315
Nuclear contribution   :    -22.68112      20.93709     -15.49549
                        -----------------------------------------
Total Dipole Moment    :     -0.38749       0.51360      -0.39234
                        -----------------------------------------
Magnitude (a.u.)       :      0.75357
Magnitude (Debye)      :      1.91541

Rotational constants in cm-1:     0.017041     0.008925     0.006029
Rotational constants in MHz :   510.878661   267.572319   180.738133

                             ****ORCA TERMINATED NORMALLY****
TOTAL RUN TIME: 0 days 0 hours 0 minutes 21 seconds 127 msec
