                         Program Version 4.2.1 -  RELEASE  -
|  1> ! wB97X-D3 SP def2-SVP
|  2> %pal
|  3> nprocs 24
|  4> end
|  5>
|  6> * xyz 0 1
|  7> S 	 -106.122 	 52.541 	 -72.1806
|  8> C 	 -107.511 	 52.6547 	 -73.2248
|  9> C 	 -108.643 	 52.4688 	 -72.4186
| 10> C 	 -108.45 	 52.3069 	 -71.0187
| 11> C 	 -107.068 	 52.1741 	 -70.7083
| 12> H 	 -109.232 	 52.1625 	 -70.241
| 13> C 	 -110.098 	 52.6222 	 -72.8942
| 14> H 	 -110.832 	 52.1155 	 -72.2116
| 15> H 	 -109.975 	 52.2251 	 -73.9092
| 16> C 	 -110.516 	 54.0408 	 -73.1429
| 17> H 	 -111.596 	 54.0071 	 -73.0785
| 18> H 	 -110.176 	 54.7556 	 -72.377
| 19> C 	 -110.215 	 54.5548 	 -74.5891
| 20> H 	 -110.991 	 54.2574 	 -75.3118
| 21> H 	 -110.157 	 55.6603 	 -74.6776
| 22> H 	 -109.317 	 54.0991 	 -74.9437
| 23> S 	 -105.342 	 50.5332 	 -69.4317
| 24> C 	 -104.94 	 50.7055 	 -67.7423
| 25> C 	 -105.564 	 51.8254 	 -67.2
| 26> C 	 -106.491 	 52.4166 	 -68.1251
| 27> C 	 -106.432 	 51.8752 	 -69.4205
| 28> H 	 -105.266 	 52.2126 	 -66.2311
| 29> C 	 -107.399 	 53.6009 	 -67.6595
| 30> H 	 -107.471 	 53.6144 	 -66.5735
| 31> H 	 -108.488 	 53.3762 	 -67.9665
| 32> C 	 -107.185 	 55.0145 	 -68.1538
| 33> H 	 -107.413 	 55.0954 	 -69.2032
| 34> H 	 -106.149 	 55.3117 	 -68.0631
| 35> C 	 -108.101 	 56.0641 	 -67.5173
| 36> H 	 -108.075 	 55.9293 	 -66.4077
| 37> H 	 -109.089 	 56.0387 	 -67.8977
| 38> H 	 -107.697 	 56.9833 	 -67.7177
| 39> H 	 -107.443 	 52.7029 	 -74.2653
| 40> H 	 -104.026 	 50.2977 	 -67.2741
| 41> *
| 42>
| 43>                          ****END OF INPUT****

CARTESIAN COORDINATES (ANGSTROEM)
---------------------------------
  S    -106.122000   52.541000  -72.180600
  C    -107.511000   52.654700  -73.224800
  C    -108.643000   52.468800  -72.418600
  C    -108.450000   52.306900  -71.018700
  C    -107.068000   52.174100  -70.708300
  H    -109.232000   52.162500  -70.241000
  C    -110.098000   52.622200  -72.894200
  H    -110.832000   52.115500  -72.211600
  H    -109.975000   52.225100  -73.909200
  C    -110.516000   54.040800  -73.142900
  H    -111.596000   54.007100  -73.078500
  H    -110.176000   54.755600  -72.377000
  C    -110.215000   54.554800  -74.589100
  H    -110.991000   54.257400  -75.311800
  H    -110.157000   55.660300  -74.677600
  H    -109.317000   54.099100  -74.943700
  S    -105.342000   50.533200  -69.431700
  C    -104.940000   50.705500  -67.742300
  C    -105.564000   51.825400  -67.200000
  C    -106.491000   52.416600  -68.125100
  C    -106.432000   51.875200  -69.420500
  H    -105.266000   52.212600  -66.231100
  C    -107.399000   53.600900  -67.659500
  H    -107.471000   53.614400  -66.573500
  H    -108.488000   53.376200  -67.966500
  C    -107.185000   55.014500  -68.153800
  H    -107.413000   55.095400  -69.203200
  H    -106.149000   55.311700  -68.063100
  C    -108.101000   56.064100  -67.517300
  H    -108.075000   55.929300  -66.407700
  H    -109.089000   56.038700  -67.897700
  H    -107.697000   56.983300  -67.717700
  H    -107.443000   52.702900  -74.265300
  H    -104.026000   50.297700  -67.274100

 Total Charge           Charge          ....    0
 Multiplicity           Mult            ....    1
 Number of Electrons    NEL             ....  134
 Basis Dimension        Dim             ....  322

ORBITAL ENERGIES
----------------

  NO   OCC          E(Eh)            E(eV)
   0   2.0000     -88.968734     -2420.9623
   1   2.0000     -88.966491     -2420.9013
   2   2.0000     -10.340320      -281.3744
   3   2.0000     -10.331459      -281.1333
   4   2.0000     -10.318723      -280.7867
   5   2.0000     -10.316799      -280.7344
   6   2.0000     -10.312550      -280.6187
   7   2.0000     -10.304958      -280.4122
   8   2.0000     -10.302635      -280.3490
   9   2.0000     -10.298811      -280.2449
  10   2.0000     -10.297555      -280.2107
  11   2.0000     -10.292968      -280.0859
  12   2.0000     -10.284777      -279.8630
  13   2.0000     -10.280881      -279.7570
  14   2.0000     -10.277290      -279.6593
  15   2.0000     -10.269752      -279.4541
  16   2.0000      -8.082728      -219.9422
  17   2.0000      -8.081588      -219.9112
  18   2.0000      -6.041293      -164.3919
  19   2.0000      -6.040070      -164.3587
  20   2.0000      -6.037115      -164.2783
  21   2.0000      -6.035815      -164.2429
  22   2.0000      -6.033675      -164.1846
  23   2.0000      -6.032558      -164.1542
  24   2.0000      -1.004516       -27.3343
  25   2.0000      -0.982951       -26.7474
  26   2.0000      -0.912927       -24.8420
  27   2.0000      -0.906391       -24.6642
  28   2.0000      -0.868859       -23.6429
  29   2.0000      -0.850953       -23.1556
  30   2.0000      -0.844331       -22.9754
  31   2.0000      -0.812527       -22.1100
  32   2.0000      -0.780597       -21.2411
  33   2.0000      -0.772458       -21.0197
  34   2.0000      -0.708998       -19.2928
  35   2.0000      -0.697054       -18.9678
  36   2.0000      -0.689484       -18.7618
  37   2.0000      -0.661825       -18.0092
  38   2.0000      -0.644476       -17.5371
  39   2.0000      -0.618119       -16.8199
  40   2.0000      -0.593392       -16.1470
  41   2.0000      -0.571678       -15.5561
  42   2.0000      -0.566185       -15.4067
  43   2.0000      -0.553679       -15.0664
  44   2.0000      -0.532552       -14.4915
  45   2.0000      -0.526866       -14.3367
  46   2.0000      -0.520069       -14.1518
  47   2.0000      -0.511198       -13.9104
  48   2.0000      -0.508654       -13.8412
  49   2.0000      -0.496975       -13.5234
  50   2.0000      -0.493230       -13.4215
  51   2.0000      -0.483657       -13.1610
  52   2.0000      -0.475169       -12.9300
  53   2.0000      -0.467251       -12.7145
  54   2.0000      -0.458602       -12.4792
  55   2.0000      -0.443454       -12.0670
  56   2.0000      -0.441309       -12.0086
  57   2.0000      -0.436955       -11.8901
  58   2.0000      -0.432968       -11.7817
  59   2.0000      -0.424356       -11.5473
  60   2.0000      -0.418254       -11.3813
  61   2.0000      -0.411363       -11.1937
  62   2.0000      -0.401599       -10.9281
  63   2.0000      -0.345168        -9.3925
  64   2.0000      -0.330417        -8.9911
  65   2.0000      -0.328639        -8.9427
  66   2.0000      -0.295715        -8.0468
  67   0.0000       0.021337         0.5806
  68   0.0000       0.064115         1.7447
  69   0.0000       0.116253         3.1634
  70   0.0000       0.118522         3.2252
  71   0.0000       0.122969         3.3461

MULLIKEN ATOMIC CHARGES
-----------------------
   0 S :    0.112267
   1 C :   -0.113162
   2 C :   -0.092333
   3 C :    0.025182
   4 C :   -0.148385
   5 H :    0.037880
   6 C :    0.029123
   7 H :    0.041872
   8 H :    0.024572
   9 C :   -0.044555
  10 H :    0.023294
  11 H :    0.034237
  12 C :   -0.061854
  13 H :    0.034094
  14 H :    0.041687
  15 H :    0.010128
  16 S :    0.112497
  17 C :   -0.097492
  18 C :   -0.054650
  19 C :   -0.007031
  20 C :   -0.165654
  21 H :    0.028188
  22 C :    0.031074
  23 H :    0.011568
  24 H :    0.024842
  25 C :   -0.060908
  26 H :    0.027643
  27 H :    0.022280
  28 C :   -0.014237
  29 H :    0.025699
  30 H :    0.028148
  31 H :    0.013191
  32 H :    0.046433
  33 H :    0.074364
Sum of atomic charges:    0.0000000

LOEWDIN ATOMIC CHARGES
----------------------
   0 S :    0.407373
   1 C :   -0.202488
   2 C :   -0.060025
   3 C :   -0.067611
   4 C :   -0.185452
   5 H :    0.040748
   6 C :   -0.036407
   7 H :    0.036775
   8 H :    0.034580
   9 C :   -0.043188
  10 H :    0.023810
  11 H :    0.024893
  12 C :   -0.067522
  13 H :    0.027853
  14 H :    0.031466
  15 H :    0.012555
  16 S :    0.429669
  17 C :   -0.201788
  18 C :   -0.068436
  19 C :   -0.053987
  20 C :   -0.210974
  21 H :    0.034339
  22 C :   -0.038894
  23 H :    0.024207
  24 H :    0.036403
  25 C :   -0.042302
  26 H :    0.024543
  27 H :    0.020125
  28 C :   -0.051135
  29 H :    0.026932
  30 H :    0.020592
  31 H :    0.016944
  32 H :    0.018710
  33 H :    0.037695

  Mayer bond orders larger than 0.100000
B(  0-S ,  1-C ) :   1.1388 B(  0-S ,  4-C ) :   1.1735 B(  1-C ,  2-C ) :   1.5611
B(  1-C ,  4-C ) :   0.1146 B(  1-C , 32-H ) :   0.9778 B(  2-C ,  3-C ) :   1.2730
B(  2-C ,  6-C ) :   1.0287 B(  3-C ,  4-C ) :   1.5277 B(  3-C ,  5-H ) :   0.9876
B(  4-C , 20-C ) :   1.0397 B(  6-C ,  7-H ) :   0.9474 B(  6-C ,  8-H ) :   0.9405
B(  6-C ,  9-C ) :   1.0618 B(  9-C , 10-H ) :   0.9576 B(  9-C , 11-H ) :   0.9580
B(  9-C , 12-C ) :   1.0716 B( 12-C , 13-H ) :   0.9746 B( 12-C , 14-H ) :   0.9751
B( 12-C , 15-H ) :   0.9785 B( 16-S , 17-C ) :   1.1670 B( 16-S , 20-C ) :   1.1627
B( 17-C , 18-C ) :   1.5935 B( 17-C , 20-C ) :   0.1035 B( 17-C , 33-H ) :   0.9577
B( 18-C , 19-C ) :   1.2669 B( 18-C , 21-H ) :   0.9875 B( 19-C , 20-C ) :   1.5622
B( 19-C , 22-C ) :   1.0316 B( 22-C , 23-H ) :   0.9402 B( 22-C , 24-H ) :   0.9366
B( 22-C , 25-C ) :   1.0689 B( 25-C , 26-H ) :   0.9497 B( 25-C , 27-H ) :   0.9570
B( 25-C , 28-C ) :   1.0860 B( 28-C , 29-H ) :   0.9746 B( 28-C , 30-H ) :   0.9763
B( 28-C , 31-H ) :   0.9712

Dispersion correction           -0.013983572
FINAL SINGLE POINT ENERGY     -1339.862152332466

DIPOLE MOMENT
-------------
                                X             Y             Z
Electronic contribution:     20.43642     -20.36762       0.78331
Nuclear contribution   :    -20.81447      20.78893      -0.66834
                        -----------------------------------------
Total Dipole Moment    :     -0.37805       0.42131       0.11497
                        -----------------------------------------
Magnitude (a.u.)       :      0.57762
Magnitude (Debye)      :      1.46819

Rotational constants in cm-1:     0.018874     0.008605     0.006567
Rotational constants in MHz :   565.825679   257.974591   196.858988

                             ****ORCA TERMINATED NORMALLY****
TOTAL RUN TIME: 0 days 0 hours 0 minutes 21 seconds 258 msec
