                         Program Version 4.2.1 -  RELEASE  -
|  1> ! wB97X-D3 SP def2-SVP
|  2> %pal
|  3> nprocs 24
|  4> end
|  5>
|  6> * xyz 0 1
|  7> S 	 -60.8492 	 -1.66687 	 -19.1916
|  8> C 	 -62.1708 	 -1.66174 	 -18.0835
|  9> C 	 -61.7724 	 -2.04911 	 -16.8045
| 10> C 	 -60.354 	 -2.33565 	 -16.7516
| 11> C 	 -59.7123 	 -1.92381 	 -17.8729
| 12> H 	 -59.7882 	 -2.73089 	 -15.8739
| 13> C 	 -62.6526 	 -2.05101 	 -15.5647
| 14> H 	 -63.6795 	 -1.92851 	 -15.8635
| 15> H 	 -62.5216 	 -1.1214 	 -15.0264
| 16> C 	 -62.5611 	 -3.39793 	 -14.7489
| 17> H 	 -61.5546 	 -3.57547 	 -14.5278
| 18> H 	 -62.9085 	 -3.22952 	 -13.6682
| 19> C 	 -63.3376 	 -4.61913 	 -15.3423
| 20> H 	 -63.0494 	 -5.03545 	 -16.3376
| 21> H 	 -63.2379 	 -5.41647 	 -14.5863
| 22> H 	 -64.3446 	 -4.14483 	 -15.3318
| 23> S 	 -57.3047 	 -0.425898 	 -17.8086
| 24> C 	 -55.8751 	 -1.2428 	 -18.1821
| 25> C 	 -56.0609 	 -2.58149 	 -18.5139
| 26> C 	 -57.4358 	 -3.00432 	 -18.3868
| 27> C 	 -58.2741 	 -1.95245 	 -18.0902
| 28> H 	 -55.2499 	 -3.14761 	 -18.8795
| 29> C 	 -57.8253 	 -4.41565 	 -18.6237
| 30> H 	 -58.8581 	 -4.45761 	 -18.7788
| 31> H 	 -57.593 	 -4.94554 	 -17.7125
| 32> C 	 -57.2977 	 -4.97663 	 -19.9556
| 33> H 	 -57.5349 	 -6.09219 	 -19.9729
| 34> H 	 -56.1857 	 -4.84793 	 -19.8983
| 35> C 	 -58.0727 	 -4.23618 	 -21.1022
| 36> H 	 -59.1295 	 -4.00373 	 -20.942
| 37> H 	 -58.0309 	 -4.75134 	 -22.0618
| 38> H 	 -57.5947 	 -3.29301 	 -21.2202
| 39> H 	 -63.1719 	 -1.34016 	 -18.3346
| 40> H 	 -54.8966 	 -0.77567 	 -18.1544
| 41> *
| 42>
| 43>                          ****END OF INPUT****

CARTESIAN COORDINATES (ANGSTROEM)
---------------------------------
  S    -60.849200   -1.666870  -19.191600
  C    -62.170800   -1.661740  -18.083500
  C    -61.772400   -2.049110  -16.804500
  C    -60.354000   -2.335650  -16.751600
  C    -59.712300   -1.923810  -17.872900
  H    -59.788200   -2.730890  -15.873900
  C    -62.652600   -2.051010  -15.564700
  H    -63.679500   -1.928510  -15.863500
  H    -62.521600   -1.121400  -15.026400
  C    -62.561100   -3.397930  -14.748900
  H    -61.554600   -3.575470  -14.527800
  H    -62.908500   -3.229520  -13.668200
  C    -63.337600   -4.619130  -15.342300
  H    -63.049400   -5.035450  -16.337600
  H    -63.237900   -5.416470  -14.586300
  H    -64.344600   -4.144830  -15.331800
  S    -57.304700   -0.425898  -17.808600
  C    -55.875100   -1.242800  -18.182100
  C    -56.060900   -2.581490  -18.513900
  C    -57.435800   -3.004320  -18.386800
  C    -58.274100   -1.952450  -18.090200
  H    -55.249900   -3.147610  -18.879500
  C    -57.825300   -4.415650  -18.623700
  H    -58.858100   -4.457610  -18.778800
  H    -57.593000   -4.945540  -17.712500
  C    -57.297700   -4.976630  -19.955600
  H    -57.534900   -6.092190  -19.972900
  H    -56.185700   -4.847930  -19.898300
  C    -58.072700   -4.236180  -21.102200
  H    -59.129500   -4.003730  -20.942000
  H    -58.030900   -4.751340  -22.061800
  H    -57.594700   -3.293010  -21.220200
  H    -63.171900   -1.340160  -18.334600
  H    -54.896600   -0.775670  -18.154400

 Total Charge           Charge          ....    0
 Multiplicity           Mult            ....    1
 Number of Electrons    NEL             ....  134
 Basis Dimension        Dim             ....  322

ORBITAL ENERGIES
----------------

  NO   OCC          E(Eh)            E(eV)
   0   2.0000     -88.963410     -2420.8175
   1   2.0000     -88.962593     -2420.7952
   2   2.0000     -10.323498      -280.9167
   3   2.0000     -10.323311      -280.9116
   4   2.0000     -10.314926      -280.6834
   5   2.0000     -10.312468      -280.6165
   6   2.0000     -10.302661      -280.3497
   7   2.0000     -10.301384      -280.3149
   8   2.0000     -10.297715      -280.2151
   9   2.0000     -10.296260      -280.1755
  10   2.0000     -10.293700      -280.1058
  11   2.0000     -10.292856      -280.0829
  12   2.0000     -10.289238      -279.9844
  13   2.0000     -10.288299      -279.9588
  14   2.0000     -10.279350      -279.7153
  15   2.0000     -10.274199      -279.5752
  16   2.0000      -8.078423      -219.8251
  17   2.0000      -8.077507      -219.8001
  18   2.0000      -6.036928      -164.2732
  19   2.0000      -6.035916      -164.2456
  20   2.0000      -6.032999      -164.1663
  21   2.0000      -6.032038      -164.1401
  22   2.0000      -6.029074      -164.0594
  23   2.0000      -6.028325      -164.0391
  24   2.0000      -1.004120       -27.3235
  25   2.0000      -0.983146       -26.7528
  26   2.0000      -0.913905       -24.8686
  27   2.0000      -0.904011       -24.5994
  28   2.0000      -0.867212       -23.5981
  29   2.0000      -0.843910       -22.9640
  30   2.0000      -0.841751       -22.9052
  31   2.0000      -0.810748       -22.0616
  32   2.0000      -0.784263       -21.3409
  33   2.0000      -0.769593       -20.9417
  34   2.0000      -0.709509       -19.3067
  35   2.0000      -0.700526       -19.0623
  36   2.0000      -0.688987       -18.7483
  37   2.0000      -0.653286       -17.7768
  38   2.0000      -0.641085       -17.4448
  39   2.0000      -0.619286       -16.8516
  40   2.0000      -0.601991       -16.3810
  41   2.0000      -0.562930       -15.3181
  42   2.0000      -0.560656       -15.2562
  43   2.0000      -0.553873       -15.0716
  44   2.0000      -0.536657       -14.6032
  45   2.0000      -0.531037       -14.4503
  46   2.0000      -0.515768       -14.0348
  47   2.0000      -0.507640       -13.8136
  48   2.0000      -0.496264       -13.5040
  49   2.0000      -0.493827       -13.4377
  50   2.0000      -0.486820       -13.2471
  51   2.0000      -0.474540       -12.9129
  52   2.0000      -0.469386       -12.7726
  53   2.0000      -0.465859       -12.6767
  54   2.0000      -0.456646       -12.4260
  55   2.0000      -0.447231       -12.1698
  56   2.0000      -0.443178       -12.0595
  57   2.0000      -0.440160       -11.9774
  58   2.0000      -0.436591       -11.8802
  59   2.0000      -0.422079       -11.4854
  60   2.0000      -0.418922       -11.3995
  61   2.0000      -0.413624       -11.2553
  62   2.0000      -0.409459       -11.1419
  63   2.0000      -0.334904        -9.1132
  64   2.0000      -0.327418        -8.9095
  65   2.0000      -0.315732        -8.5915
  66   2.0000      -0.310359        -8.4453
  67   0.0000       0.045698         1.2435
  68   0.0000       0.055293         1.5046
  69   0.0000       0.107037         2.9126
  70   0.0000       0.119878         3.2620
  71   0.0000       0.132503         3.6056

MULLIKEN ATOMIC CHARGES
-----------------------
   0 S :    0.114491
   1 C :   -0.114117
   2 C :   -0.097951
   3 C :    0.032502
   4 C :   -0.183250
   5 H :    0.038819
   6 C :    0.090507
   7 H :   -0.004805
   8 H :    0.042882
   9 C :   -0.101236
  10 H :    0.011287
  11 H :    0.029937
  12 C :   -0.060267
  13 H :    0.059565
  14 H :    0.043573
  15 H :    0.040827
  16 S :    0.110240
  17 C :   -0.085309
  18 C :   -0.040738
  19 C :   -0.025753
  20 C :   -0.203645
  21 H :    0.003833
  22 C :    0.119718
  23 H :    0.004325
  24 H :    0.039292
  25 C :   -0.112029
  26 H :    0.044870
  27 H :    0.042999
  28 C :   -0.049662
  29 H :    0.034194
  30 H :    0.036610
  31 H :    0.035492
  32 H :    0.044182
  33 H :    0.058618
Sum of atomic charges:    0.0000000

LOEWDIN ATOMIC CHARGES
----------------------
   0 S :    0.405650
   1 C :   -0.204154
   2 C :   -0.062749
   3 C :   -0.055747
   4 C :   -0.196498
   5 H :    0.041796
   6 C :   -0.033399
   7 H :    0.022777
   8 H :    0.035476
   9 C :   -0.044048
  10 H :    0.006354
  11 H :    0.033321
  12 C :   -0.067487
  13 H :    0.032236
  14 H :    0.030467
  15 H :    0.032856
  16 S :    0.398003
  17 C :   -0.192624
  18 C :   -0.079990
  19 C :   -0.042269
  20 C :   -0.191995
  21 H :    0.021595
  22 C :   -0.031321
  23 H :    0.020717
  24 H :    0.033952
  25 C :   -0.037829
  26 H :    0.030379
  27 H :    0.024693
  28 C :   -0.066091
  29 H :    0.026435
  30 H :    0.026615
  31 H :    0.025946
  32 H :    0.026406
  33 H :    0.030526

  Mayer bond orders larger than 0.100000
B(  0-S ,  1-C ) :   1.1381 B(  0-S ,  4-C ) :   1.1421 B(  1-C ,  2-C ) :   1.6232
B(  1-C , 32-H ) :   0.9686 B(  2-C ,  3-C ) :   1.2075 B(  2-C ,  6-C ) :   1.0223
B(  3-C ,  4-C ) :   1.6238 B(  3-C ,  5-H ) :   0.9855 B(  4-C , 20-C ) :   1.0247
B(  6-C ,  7-H ) :   0.9384 B(  6-C ,  8-H ) :   0.9400 B(  6-C ,  9-C ) :   1.0562
B(  9-C , 10-H ) :   0.9611 B(  9-C , 11-H ) :   0.9550 B(  9-C , 12-C ) :   1.0515
B( 12-C , 13-H ) :   0.9778 B( 12-C , 14-H ) :   0.9749 B( 12-C , 15-H ) :   0.9773
B( 16-S , 17-C ) :   1.1815 B( 16-S , 20-C ) :   1.1151 B( 17-C , 18-C ) :   1.6125
B( 17-C , 33-H ) :   0.9630 B( 18-C , 19-C ) :   1.2053 B( 18-C , 21-H ) :   0.9962
B( 19-C , 20-C ) :   1.6283 B( 19-C , 22-C ) :   1.0422 B( 22-C , 23-H ) :   0.9268
B( 22-C , 24-H ) :   0.9260 B( 22-C , 25-C ) :   1.0634 B( 25-C , 26-H ) :   0.9585
B( 25-C , 27-H ) :   0.9609 B( 25-C , 28-C ) :   1.0490 B( 28-C , 29-H ) :   0.9748
B( 28-C , 30-H ) :   0.9769 B( 28-C , 31-H ) :   0.9739

Dispersion correction           -0.015223713
FINAL SINGLE POINT ENERGY     -1339.867543169764

DIPOLE MOMENT
-------------
                                X             Y             Z
Electronic contribution:      8.70542      18.83232      -4.59563
Nuclear contribution   :     -8.77295     -19.21760       4.91830
                        -----------------------------------------
Total Dipole Moment    :     -0.06753      -0.38528       0.32267
                        -----------------------------------------
Magnitude (a.u.)       :      0.50706
Magnitude (Debye)      :      1.28885

Rotational constants in cm-1:     0.020267     0.008228     0.007460
Rotational constants in MHz :   607.602965   246.668060   223.654353

                             ****ORCA TERMINATED NORMALLY****
TOTAL RUN TIME: 0 days 0 hours 0 minutes 22 seconds 32 msec
