                         Program Version 4.2.1 -  RELEASE  -
|  1> ! wB97X-D3 SP def2-SVP
|  2> %pal
|  3> nprocs 24
|  4> end
|  5>
|  6> * xyz 0 1
|  7> S 	 -135.256 	 8.06964 	 -15.8276
|  8> C 	 -136.087 	 9.47809 	 -15.2841
|  9> C 	 -135.397 	 10.247 	 -14.3591
| 10> C 	 -134.184 	 9.54881 	 -13.9788
| 11> C 	 -133.911 	 8.42801 	 -14.7544
| 12> H 	 -133.469 	 9.8427 	 -13.2265
| 13> C 	 -135.955 	 11.3484 	 -13.5638
| 14> H 	 -136.903 	 11.5748 	 -13.9954
| 15> H 	 -135.345 	 12.2151 	 -13.5604
| 16> C 	 -136.288 	 11.01 	 -12.094
| 17> H 	 -137.013 	 10.1893 	 -12.0867
| 18> H 	 -135.435 	 10.6015 	 -11.5663
| 19> C 	 -136.83 	 12.2011 	 -11.3263
| 20> H 	 -137.079 	 12.0555 	 -10.2019
| 21> H 	 -136.119 	 13.0231 	 -11.3701
| 22> H 	 -137.704 	 12.6458 	 -11.8696
| 23> S 	 -132.111 	 7.05456 	 -16.2098
| 24> C 	 -130.911 	 6.1001 	 -15.3734
| 25> C 	 -130.912 	 6.28841 	 -13.9788
| 26> C 	 -131.981 	 7.09776 	 -13.5816
| 27> C 	 -132.795 	 7.49611 	 -14.6021
| 28> H 	 -130.075 	 5.90513 	 -13.427
| 29> C 	 -132.208 	 7.42133 	 -12.0922
| 30> H 	 -132.214 	 6.4999 	 -11.5689
| 31> H 	 -133.15 	 7.9245 	 -11.9112
| 32> C 	 -131.094 	 8.31183 	 -11.5208
| 33> H 	 -131.247 	 9.27655 	 -12.0398
| 34> H 	 -130.111 	 7.81602 	 -11.5889
| 35> C 	 -131.348 	 8.6822 	 -10.0253
| 36> H 	 -131.334 	 7.81904 	 -9.35021
| 37> H 	 -132.262 	 9.31503 	 -9.85408
| 38> H 	 -130.505 	 9.24043 	 -9.65255
| 39> H 	 -137.035 	 9.73959 	 -15.6545
| 40> H 	 -130.186 	 5.54867 	 -15.9602
| 41> *
| 42>
| 43>                          ****END OF INPUT****

CARTESIAN COORDINATES (ANGSTROEM)
---------------------------------
  S    -135.256000    8.069640  -15.827600
  C    -136.087000    9.478090  -15.284100
  C    -135.397000   10.247000  -14.359100
  C    -134.184000    9.548810  -13.978800
  C    -133.911000    8.428010  -14.754400
  H    -133.469000    9.842700  -13.226500
  C    -135.955000   11.348400  -13.563800
  H    -136.903000   11.574800  -13.995400
  H    -135.345000   12.215100  -13.560400
  C    -136.288000   11.010000  -12.094000
  H    -137.013000   10.189300  -12.086700
  H    -135.435000   10.601500  -11.566300
  C    -136.830000   12.201100  -11.326300
  H    -137.079000   12.055500  -10.201900
  H    -136.119000   13.023100  -11.370100
  H    -137.704000   12.645800  -11.869600
  S    -132.111000    7.054560  -16.209800
  C    -130.911000    6.100100  -15.373400
  C    -130.912000    6.288410  -13.978800
  C    -131.981000    7.097760  -13.581600
  C    -132.795000    7.496110  -14.602100
  H    -130.075000    5.905130  -13.427000
  C    -132.208000    7.421330  -12.092200
  H    -132.214000    6.499900  -11.568900
  H    -133.150000    7.924500  -11.911200
  C    -131.094000    8.311830  -11.520800
  H    -131.247000    9.276550  -12.039800
  H    -130.111000    7.816020  -11.588900
  C    -131.348000    8.682200  -10.025300
  H    -131.334000    7.819040   -9.350210
  H    -132.262000    9.315030   -9.854080
  H    -130.505000    9.240430   -9.652550
  H    -137.035000    9.739590  -15.654500
  H    -130.186000    5.548670  -15.960200

 Total Charge           Charge          ....    0
 Multiplicity           Mult            ....    1
 Number of Electrons    NEL             ....  134
 Basis Dimension        Dim             ....  322

ORBITAL ENERGIES
----------------

  NO   OCC          E(Eh)            E(eV)
   0   2.0000     -88.967344     -2420.9245
   1   2.0000     -88.963149     -2420.8104
   2   2.0000     -10.328870      -281.0628
   3   2.0000     -10.325982      -280.9843
   4   2.0000     -10.319859      -280.8176
   5   2.0000     -10.310738      -280.5695
   6   2.0000     -10.303090      -280.3613
   7   2.0000     -10.301086      -280.3068
   8   2.0000     -10.295274      -280.1486
   9   2.0000     -10.294754      -280.1345
  10   2.0000     -10.294714      -280.1334
  11   2.0000     -10.288737      -279.9708
  12   2.0000     -10.288584      -279.9666
  13   2.0000     -10.287519      -279.9376
  14   2.0000     -10.286724      -279.9160
  15   2.0000     -10.283508      -279.8285
  16   2.0000      -8.082430      -219.9341
  17   2.0000      -8.077676      -219.8047
  18   2.0000      -6.040945      -164.3825
  19   2.0000      -6.036889      -164.2721
  20   2.0000      -6.035990      -164.2476
  21   2.0000      -6.033162      -164.1707
  22   2.0000      -6.032381      -164.1494
  23   2.0000      -6.028486      -164.0434
  24   2.0000      -1.006004       -27.3748
  25   2.0000      -0.984049       -26.7773
  26   2.0000      -0.918763       -25.0008
  27   2.0000      -0.908762       -24.7287
  28   2.0000      -0.868469       -23.6323
  29   2.0000      -0.853678       -23.2298
  30   2.0000      -0.847684       -23.0667
  31   2.0000      -0.812116       -22.0988
  32   2.0000      -0.783897       -21.3309
  33   2.0000      -0.771437       -20.9919
  34   2.0000      -0.707056       -19.2400
  35   2.0000      -0.697448       -18.9785
  36   2.0000      -0.692323       -18.8391
  37   2.0000      -0.667844       -18.1730
  38   2.0000      -0.646083       -17.5808
  39   2.0000      -0.622693       -16.9443
  40   2.0000      -0.598085       -16.2747
  41   2.0000      -0.577869       -15.7246
  42   2.0000      -0.574744       -15.6396
  43   2.0000      -0.560848       -15.2615
  44   2.0000      -0.527356       -14.3501
  45   2.0000      -0.520473       -14.1628
  46   2.0000      -0.513304       -13.9677
  47   2.0000      -0.509076       -13.8527
  48   2.0000      -0.505463       -13.7544
  49   2.0000      -0.498174       -13.5560
  50   2.0000      -0.489448       -13.3186
  51   2.0000      -0.479682       -13.0528
  52   2.0000      -0.475706       -12.9446
  53   2.0000      -0.462757       -12.5922
  54   2.0000      -0.459906       -12.5147
  55   2.0000      -0.450426       -12.2567
  56   2.0000      -0.448069       -12.1926
  57   2.0000      -0.438521       -11.9328
  58   2.0000      -0.434147       -11.8137
  59   2.0000      -0.432820       -11.7776
  60   2.0000      -0.422615       -11.4999
  61   2.0000      -0.420428       -11.4404
  62   2.0000      -0.415624       -11.3097
  63   2.0000      -0.348893        -9.4939
  64   2.0000      -0.335259        -9.1229
  65   2.0000      -0.329551        -8.9675
  66   2.0000      -0.286719        -7.8020
  67   0.0000       0.028749         0.7823
  68   0.0000       0.069422         1.8891
  69   0.0000       0.101194         2.7536
  70   0.0000       0.111897         3.0449
  71   0.0000       0.119701         3.2572

MULLIKEN ATOMIC CHARGES
-----------------------
   0 S :    0.120634
   1 C :   -0.100054
   2 C :   -0.059717
   3 C :   -0.004590
   4 C :   -0.130730
   5 H :    0.003403
   6 C :    0.095626
   7 H :    0.003097
   8 H :    0.019554
   9 C :   -0.071182
  10 H :    0.028046
  11 H :    0.021529
  12 C :   -0.072365
  13 H :    0.058247
  14 H :    0.019856
  15 H :    0.029268
  16 S :    0.082211
  17 C :   -0.094702
  18 C :   -0.038917
  19 C :   -0.022638
  20 C :   -0.131438
  21 H :    0.019267
  22 C :    0.093372
  23 H :    0.017453
  24 H :    0.015248
  25 C :   -0.109604
  26 H :    0.040930
  27 H :    0.043816
  28 C :   -0.058573
  29 H :    0.026908
  30 H :    0.041303
  31 H :    0.028826
  32 H :    0.028367
  33 H :    0.057548
Sum of atomic charges:    0.0000000

LOEWDIN ATOMIC CHARGES
----------------------
   0 S :    0.414372
   1 C :   -0.190836
   2 C :   -0.060979
   3 C :   -0.060112
   4 C :   -0.196161
   5 H :    0.025772
   6 C :   -0.026363
   7 H :    0.027701
   8 H :    0.025895
   9 C :   -0.038567
  10 H :    0.024825
  11 H :    0.018191
  12 C :   -0.077505
  13 H :    0.039877
  14 H :    0.020235
  15 H :    0.027686
  16 S :    0.382812
  17 C :   -0.173052
  18 C :   -0.070548
  19 C :   -0.055411
  20 C :   -0.178039
  21 H :    0.032660
  22 C :   -0.023361
  23 H :    0.024327
  24 H :    0.025748
  25 C :   -0.037797
  26 H :    0.029015
  27 H :    0.027485
  28 C :   -0.073276
  29 H :    0.022613
  30 H :    0.029508
  31 H :    0.024282
  32 H :    0.015665
  33 H :    0.023338

  Mayer bond orders larger than 0.100000
B(  0-S ,  1-C ) :   1.1472 B(  0-S ,  4-C ) :   1.1436 B(  1-C ,  2-C ) :   1.6086
B(  1-C , 32-H ) :   0.9671 B(  2-C ,  3-C ) :   1.2121 B(  2-C ,  6-C ) :   1.0624
B(  3-C ,  4-C ) :   1.6010 B(  3-C ,  5-H ) :   0.9906 B(  4-C , 20-C ) :   1.0201
B(  6-C ,  7-H ) :   0.9341 B(  6-C ,  8-H ) :   0.9278 B(  6-C ,  9-C ) :   1.0569
B(  9-C , 10-H ) :   0.9552 B(  9-C , 11-H ) :   0.9532 B(  9-C , 12-C ) :   1.0799
B( 12-C , 13-H ) :   0.9723 B( 12-C , 14-H ) :   0.9718 B( 12-C , 15-H ) :   0.9720
B( 16-S , 17-C ) :   1.1696 B( 16-S , 20-C ) :   1.1250 B( 17-C , 18-C ) :   1.5949
B( 17-C , 20-C ) :   0.1080 B( 17-C , 33-H ) :   0.9684 B( 18-C , 19-C ) :   1.2195
B( 18-C , 21-H ) :   0.9992 B( 19-C , 20-C ) :   1.6426 B( 19-C , 22-C ) :   1.0280
B( 22-C , 23-H ) :   0.9323 B( 22-C , 24-H ) :   0.9405 B( 22-C , 25-C ) :   1.0659
B( 25-C , 26-H ) :   0.9539 B( 25-C , 27-H ) :   0.9550 B( 25-C , 28-C ) :   1.0898
B( 28-C , 29-H ) :   0.9728 B( 28-C , 30-H ) :   0.9743 B( 28-C , 31-H ) :   0.9741

Dispersion correction           -0.014012291
FINAL SINGLE POINT ENERGY     -1339.883319857592

DIPOLE MOMENT
-------------
                                X             Y             Z
Electronic contribution:      2.26418     -15.93263     -29.34274
Nuclear contribution   :     -2.11500      16.20535      30.00053
                        -----------------------------------------
Total Dipole Moment    :      0.14918       0.27272       0.65779
                        -----------------------------------------
Magnitude (a.u.)       :      0.72755
Magnitude (Debye)      :      1.84927

Rotational constants in cm-1:     0.016784     0.009605     0.006366
Rotational constants in MHz :   503.160686   287.953003   190.837826

                             ****ORCA TERMINATED NORMALLY****
TOTAL RUN TIME: 0 days 0 hours 0 minutes 21 seconds 695 msec
