                         Program Version 4.2.1 -  RELEASE  -
|  1> ! wB97X-D3 SP def2-SVP
|  2> %pal
|  3> nprocs 24
|  4> end
|  5>
|  6> * xyz 0 1
|  7> S 	 -110.226 	 19.5086 	 -121.914
|  8> C 	 -111.832 	 18.9284 	 -121.574
|  9> C 	 -112.299 	 18.1192 	 -122.568
| 10> C 	 -111.263 	 17.8784 	 -123.569
| 11> C 	 -110.083 	 18.5669 	 -123.342
| 12> H 	 -111.275 	 17.2722 	 -124.431
| 13> C 	 -113.698 	 17.5609 	 -122.713
| 14> H 	 -113.663 	 16.8677 	 -123.592
| 15> H 	 -114.371 	 18.3853 	 -123.058
| 16> C 	 -114.199 	 16.8248 	 -121.458
| 17> H 	 -114.077 	 17.4283 	 -120.56
| 18> H 	 -115.241 	 16.5505 	 -121.458
| 19> C 	 -113.365 	 15.5489 	 -121.144
| 20> H 	 -113.213 	 14.8453 	 -122.023
| 21> H 	 -112.332 	 15.6551 	 -120.845
| 22> H 	 -113.859 	 14.933 	 -120.447
| 23> S 	 -107.485 	 17.8107 	 -123.165
| 24> C 	 -106.475 	 17.9505 	 -124.531
| 25> C 	 -107.083 	 18.4002 	 -125.635
| 26> C 	 -108.48 	 18.6422 	 -125.429
| 27> C 	 -108.81 	 18.4859 	 -124.07
| 28> H 	 -106.516 	 18.4939 	 -126.504
| 29> C 	 -109.463 	 19.1195 	 -126.497
| 30> H 	 -109.38 	 20.1824 	 -126.709
| 31> H 	 -110.45 	 18.8842 	 -126.058
| 32> C 	 -109.269 	 18.2567 	 -127.724
| 33> H 	 -109.442 	 17.1883 	 -127.365
| 34> H 	 -108.278 	 18.4342 	 -128.06
| 35> C 	 -110.194 	 18.436 	 -128.953
| 36> H 	 -111.201 	 18.2489 	 -128.67
| 37> H 	 -109.838 	 17.82 	 -129.789
| 38> H 	 -110.276 	 19.4551 	 -129.435
| 39> H 	 -112.324 	 19.0919 	 -120.707
| 40> H 	 -105.422 	 17.6973 	 -124.479
| 41> *
| 42>
| 43>                          ****END OF INPUT****

CARTESIAN COORDINATES (ANGSTROEM)
---------------------------------
  S    -110.226000   19.508600  -121.914000
  C    -111.832000   18.928400  -121.574000
  C    -112.299000   18.119200  -122.568000
  C    -111.263000   17.878400  -123.569000
  C    -110.083000   18.566900  -123.342000
  H    -111.275000   17.272200  -124.431000
  C    -113.698000   17.560900  -122.713000
  H    -113.663000   16.867700  -123.592000
  H    -114.371000   18.385300  -123.058000
  C    -114.199000   16.824800  -121.458000
  H    -114.077000   17.428300  -120.560000
  H    -115.241000   16.550500  -121.458000
  C    -113.365000   15.548900  -121.144000
  H    -113.213000   14.845300  -122.023000
  H    -112.332000   15.655100  -120.845000
  H    -113.859000   14.933000  -120.447000
  S    -107.485000   17.810700  -123.165000
  C    -106.475000   17.950500  -124.531000
  C    -107.083000   18.400200  -125.635000
  C    -108.480000   18.642200  -125.429000
  C    -108.810000   18.485900  -124.070000
  H    -106.516000   18.493900  -126.504000
  C    -109.463000   19.119500  -126.497000
  H    -109.380000   20.182400  -126.709000
  H    -110.450000   18.884200  -126.058000
  C    -109.269000   18.256700  -127.724000
  H    -109.442000   17.188300  -127.365000
  H    -108.278000   18.434200  -128.060000
  C    -110.194000   18.436000  -128.953000
  H    -111.201000   18.248900  -128.670000
  H    -109.838000   17.820000  -129.789000
  H    -110.276000   19.455100  -129.435000
  H    -112.324000   19.091900  -120.707000
  H    -105.422000   17.697300  -124.479000

 Total Charge           Charge          ....    0
 Multiplicity           Mult            ....    1
 Number of Electrons    NEL             ....  134
 Basis Dimension        Dim             ....  322

ORBITAL ENERGIES
----------------

  NO   OCC          E(Eh)            E(eV)
   0   2.0000     -88.963379     -2420.8166
   1   2.0000     -88.962336     -2420.7882
   2   2.0000     -10.325296      -280.9656
   3   2.0000     -10.324973      -280.9568
   4   2.0000     -10.308657      -280.5128
   5   2.0000     -10.306772      -280.4615
   6   2.0000     -10.303187      -280.3640
   7   2.0000     -10.301942      -280.3301
   8   2.0000     -10.300163      -280.2817
   9   2.0000     -10.291551      -280.0473
  10   2.0000     -10.291052      -280.0338
  11   2.0000     -10.290864      -280.0287
  12   2.0000     -10.288650      -279.9684
  13   2.0000     -10.285656      -279.8869
  14   2.0000     -10.280235      -279.7394
  15   2.0000     -10.274386      -279.5802
  16   2.0000      -8.079473      -219.8536
  17   2.0000      -8.077962      -219.8125
  18   2.0000      -6.037748      -164.2955
  19   2.0000      -6.036407      -164.2590
  20   2.0000      -6.033847      -164.1893
  21   2.0000      -6.032235      -164.1455
  22   2.0000      -6.030331      -164.0937
  23   2.0000      -6.028847      -164.0533
  24   2.0000      -1.011518       -27.5248
  25   2.0000      -0.989697       -26.9310
  26   2.0000      -0.912307       -24.8251
  27   2.0000      -0.910467       -24.7751
  28   2.0000      -0.870462       -23.6865
  29   2.0000      -0.849330       -23.1114
  30   2.0000      -0.843115       -22.9423
  31   2.0000      -0.817797       -22.2534
  32   2.0000      -0.784703       -21.3529
  33   2.0000      -0.774992       -21.0886
  34   2.0000      -0.711181       -19.3522
  35   2.0000      -0.702185       -19.1074
  36   2.0000      -0.695117       -18.9151
  37   2.0000      -0.656979       -17.8773
  38   2.0000      -0.646944       -17.6042
  39   2.0000      -0.611025       -16.6268
  40   2.0000      -0.596909       -16.2427
  41   2.0000      -0.578099       -15.7309
  42   2.0000      -0.574570       -15.6348
  43   2.0000      -0.552522       -15.0349
  44   2.0000      -0.541287       -14.7292
  45   2.0000      -0.524024       -14.2594
  46   2.0000      -0.518364       -14.1054
  47   2.0000      -0.512914       -13.9571
  48   2.0000      -0.504775       -13.7356
  49   2.0000      -0.494286       -13.4502
  50   2.0000      -0.489628       -13.3235
  51   2.0000      -0.475397       -12.9362
  52   2.0000      -0.471901       -12.8411
  53   2.0000      -0.468850       -12.7581
  54   2.0000      -0.461064       -12.5462
  55   2.0000      -0.455745       -12.4015
  56   2.0000      -0.441045       -12.0014
  57   2.0000      -0.434389       -11.8203
  58   2.0000      -0.428319       -11.6552
  59   2.0000      -0.424970       -11.5640
  60   2.0000      -0.421065       -11.4578
  61   2.0000      -0.418750       -11.3948
  62   2.0000      -0.414722       -11.2852
  63   2.0000      -0.343368        -9.3435
  64   2.0000      -0.332048        -9.0355
  65   2.0000      -0.326115        -8.8740
  66   2.0000      -0.299921        -8.1613
  67   0.0000       0.037986         1.0336
  68   0.0000       0.073066         1.9882
  69   0.0000       0.119334         3.2472
  70   0.0000       0.124146         3.3782
  71   0.0000       0.130180         3.5424

MULLIKEN ATOMIC CHARGES
-----------------------
   0 S :    0.112671
   1 C :   -0.086428
   2 C :   -0.087460
   3 C :    0.058504
   4 C :   -0.189415
   5 H :   -0.008556
   6 C :    0.065135
   7 H :    0.026392
   8 H :    0.055178
   9 C :   -0.050690
  10 H :    0.029467
  11 H :    0.030238
  12 C :   -0.075015
  13 H :    0.020906
  14 H :    0.041480
  15 H :    0.021971
  16 S :    0.120184
  17 C :   -0.086325
  18 C :   -0.012095
  19 C :   -0.049833
  20 C :   -0.162575
  21 H :   -0.004174
  22 C :    0.126691
  23 H :    0.043586
  24 H :    0.013377
  25 C :   -0.141680
  26 H :    0.047485
  27 H :    0.027890
  28 C :   -0.030438
  29 H :    0.021198
  30 H :    0.039883
  31 H :    0.026116
  32 H :    0.003600
  33 H :    0.052731
Sum of atomic charges:   -0.0000000

LOEWDIN ATOMIC CHARGES
----------------------
   0 S :    0.422459
   1 C :   -0.183584
   2 C :   -0.058099
   3 C :   -0.063823
   4 C :   -0.208953
   5 H :    0.020855
   6 C :   -0.034388
   7 H :    0.032598
   8 H :    0.040495
   9 C :   -0.037728
  10 H :    0.024771
  11 H :    0.025014
  12 C :   -0.071543
  13 H :    0.027979
  14 H :    0.025785
  15 H :    0.018416
  16 S :    0.429686
  17 C :   -0.189370
  18 C :   -0.070737
  19 C :   -0.045767
  20 C :   -0.208426
  21 H :    0.023695
  22 C :   -0.028830
  23 H :    0.032217
  24 H :    0.030308
  25 C :   -0.043826
  26 H :    0.037191
  27 H :    0.015725
  28 C :   -0.071859
  29 H :    0.017609
  30 H :    0.030635
  31 H :    0.028257
  32 H :    0.004807
  33 H :    0.028431

  Mayer bond orders larger than 0.100000
B(  0-S ,  1-C ) :   1.1384 B(  0-S ,  4-C ) :   1.1686 B(  1-C ,  2-C ) :   1.6148
B(  1-C , 32-H ) :   0.9849 B(  2-C ,  3-C ) :   1.2205 B(  2-C ,  6-C ) :   1.0060
B(  3-C ,  4-C ) :   1.5903 B(  3-C ,  5-H ) :   0.9955 B(  4-C , 20-C ) :   1.0034
B(  6-C ,  7-H ) :   0.9487 B(  6-C ,  8-H ) :   0.9383 B(  6-C ,  9-C ) :   1.0663
B(  9-C , 10-H ) :   0.9581 B(  9-C , 11-H ) :   0.9585 B(  9-C , 12-C ) :   1.0642
B( 12-C , 13-H ) :   0.9753 B( 12-C , 14-H ) :   0.9761 B( 12-C , 15-H ) :   0.9765
B( 16-S , 17-C ) :   1.1650 B( 16-S , 20-C ) :   1.1639 B( 17-C , 18-C ) :   1.6293
B( 17-C , 33-H ) :   0.9619 B( 18-C , 19-C ) :   1.2129 B( 18-C , 21-H ) :   1.0034
B( 19-C , 20-C ) :   1.5971 B( 19-C , 22-C ) :   1.0370 B( 22-C , 23-H ) :   0.9340
B( 22-C , 24-H ) :   0.9279 B( 22-C , 25-C ) :   1.0592 B( 25-C , 26-H ) :   0.9567
B( 25-C , 27-H ) :   0.9569 B( 25-C , 28-C ) :   1.0848 B( 28-C , 29-H ) :   0.9739
B( 28-C , 30-H ) :   0.9738 B( 28-C , 31-H ) :   0.9719

Dispersion correction           -0.013989663
FINAL SINGLE POINT ENERGY     -1339.878994063119

DIPOLE MOMENT
-------------
                                X             Y             Z
Electronic contribution:     17.88919       8.96666      13.99607
Nuclear contribution   :    -18.15748      -9.17632     -14.40001
                        -----------------------------------------
Total Dipole Moment    :     -0.26830      -0.20966      -0.40395
                        -----------------------------------------
Magnitude (a.u.)       :      0.52831
Magnitude (Debye)      :      1.34286

Rotational constants in cm-1:     0.018780     0.008125     0.006541
Rotational constants in MHz :   563.022540   243.596099   196.081497

                             ****ORCA TERMINATED NORMALLY****
TOTAL RUN TIME: 0 days 0 hours 0 minutes 21 seconds 251 msec
