                         Program Version 4.2.1 -  RELEASE  -
|  1> ! wB97X-D3 SP def2-SVP
|  2> %pal
|  3> nprocs 24
|  4> end
|  5>
|  6> * xyz 0 1
|  7> S 	 -59.6785 	 9.15799 	 -96.1897
|  8> C 	 -59.4257 	 10.6836 	 -95.3948
|  9> C 	 -60.4949 	 11.5309 	 -95.5111
| 10> C 	 -61.5478 	 10.9264 	 -96.2446
| 11> C 	 -61.2991 	 9.64287 	 -96.6812
| 12> H 	 -62.431 	 11.3987 	 -96.5967
| 13> C 	 -60.4725 	 12.9918 	 -95.0477
| 14> H 	 -59.4921 	 13.3758 	 -94.7415
| 15> H 	 -61.1624 	 13.0584 	 -94.2146
| 16> C 	 -60.9432 	 14.0537 	 -96.0756
| 17> H 	 -60.1619 	 14.149 	 -96.8265
| 18> H 	 -61.7361 	 13.6813 	 -96.6563
| 19> C 	 -61.137 	 15.3873 	 -95.4653
| 20> H 	 -60.2574 	 15.82 	 -95.072
| 21> H 	 -61.4258 	 16.0672 	 -96.2103
| 22> H 	 -61.9746 	 15.4082 	 -94.7974
| 23> S 	 -61.3313 	 7.80619 	 -98.8127
| 24> C 	 -62.7409 	 6.72577 	 -99.0213
| 25> C 	 -63.7937 	 7.20726 	 -98.2775
| 26> C 	 -63.4208 	 8.23653 	 -97.3002
| 27> C 	 -62.1068 	 8.73852 	 -97.4886
| 28> H 	 -64.8362 	 6.78771 	 -98.4398
| 29> C 	 -64.3899 	 8.7695 	 -96.3223
| 30> H 	 -64.3973 	 9.82482 	 -96.2974
| 31> H 	 -63.9286 	 8.52701 	 -95.3636
| 32> C 	 -65.7875 	 8.26401 	 -96.5186
| 33> H 	 -65.7596 	 7.16126 	 -96.3414
| 34> H 	 -66.1072 	 8.53664 	 -97.5258
| 35> C 	 -66.7568 	 8.84562 	 -95.4816
| 36> H 	 -66.8922 	 8.22392 	 -94.582
| 37> H 	 -67.615 	 8.93034 	 -96.0001
| 38> H 	 -66.5781 	 9.84666 	 -95.2148
| 39> H 	 -58.4429 	 11.0063 	 -94.9584
| 40> H 	 -62.833 	 6.04166 	 -99.8438
| 41> *
| 42>
| 43>                          ****END OF INPUT****

CARTESIAN COORDINATES (ANGSTROEM)
---------------------------------
  S    -59.678500    9.157990  -96.189700
  C    -59.425700   10.683600  -95.394800
  C    -60.494900   11.530900  -95.511100
  C    -61.547800   10.926400  -96.244600
  C    -61.299100    9.642870  -96.681200
  H    -62.431000   11.398700  -96.596700
  C    -60.472500   12.991800  -95.047700
  H    -59.492100   13.375800  -94.741500
  H    -61.162400   13.058400  -94.214600
  C    -60.943200   14.053700  -96.075600
  H    -60.161900   14.149000  -96.826500
  H    -61.736100   13.681300  -96.656300
  C    -61.137000   15.387300  -95.465300
  H    -60.257400   15.820000  -95.072000
  H    -61.425800   16.067200  -96.210300
  H    -61.974600   15.408200  -94.797400
  S    -61.331300    7.806190  -98.812700
  C    -62.740900    6.725770  -99.021300
  C    -63.793700    7.207260  -98.277500
  C    -63.420800    8.236530  -97.300200
  C    -62.106800    8.738520  -97.488600
  H    -64.836200    6.787710  -98.439800
  C    -64.389900    8.769500  -96.322300
  H    -64.397300    9.824820  -96.297400
  H    -63.928600    8.527010  -95.363600
  C    -65.787500    8.264010  -96.518600
  H    -65.759600    7.161260  -96.341400
  H    -66.107200    8.536640  -97.525800
  C    -66.756800    8.845620  -95.481600
  H    -66.892200    8.223920  -94.582000
  H    -67.615000    8.930340  -96.000100
  H    -66.578100    9.846660  -95.214800
  H    -58.442900   11.006300  -94.958400
  H    -62.833000    6.041660  -99.843800

 Total Charge           Charge          ....    0
 Multiplicity           Mult            ....    1
 Number of Electrons    NEL             ....  134
 Basis Dimension        Dim             ....  322

ORBITAL ENERGIES
----------------

  NO   OCC          E(Eh)            E(eV)
   0   2.0000     -88.964201     -2420.8390
   1   2.0000     -88.961912     -2420.7767
   2   2.0000     -10.331070      -281.1227
   3   2.0000     -10.330625      -281.1106
   4   2.0000     -10.320157      -280.8258
   5   2.0000     -10.313748      -280.6514
   6   2.0000     -10.307625      -280.4847
   7   2.0000     -10.302072      -280.3336
   8   2.0000     -10.300474      -280.2902
   9   2.0000     -10.293002      -280.0868
  10   2.0000     -10.292801      -280.0814
  11   2.0000     -10.288661      -279.9687
  12   2.0000     -10.280729      -279.7529
  13   2.0000     -10.278429      -279.6903
  14   2.0000     -10.267556      -279.3944
  15   2.0000     -10.265884      -279.3489
  16   2.0000      -8.078988      -219.8404
  17   2.0000      -8.075414      -219.7432
  18   2.0000      -6.037445      -164.2872
  19   2.0000      -6.034143      -164.1974
  20   2.0000      -6.033459      -164.1788
  21   2.0000      -6.030025      -164.0853
  22   2.0000      -6.029799      -164.0792
  23   2.0000      -6.026067      -163.9776
  24   2.0000      -1.002942       -27.2914
  25   2.0000      -0.977285       -26.5933
  26   2.0000      -0.918651       -24.9978
  27   2.0000      -0.915089       -24.9008
  28   2.0000      -0.872579       -23.7441
  29   2.0000      -0.853951       -23.2372
  30   2.0000      -0.844848       -22.9895
  31   2.0000      -0.817372       -22.2418
  32   2.0000      -0.784589       -21.3498
  33   2.0000      -0.772795       -21.0288
  34   2.0000      -0.712838       -19.3973
  35   2.0000      -0.707397       -19.2493
  36   2.0000      -0.693170       -18.8621
  37   2.0000      -0.647052       -17.6072
  38   2.0000      -0.638616       -17.3776
  39   2.0000      -0.623149       -16.9567
  40   2.0000      -0.599995       -16.3267
  41   2.0000      -0.581526       -15.8241
  42   2.0000      -0.571814       -15.5598
  43   2.0000      -0.565900       -15.3989
  44   2.0000      -0.534009       -14.5311
  45   2.0000      -0.525555       -14.3011
  46   2.0000      -0.515309       -14.0223
  47   2.0000      -0.506321       -13.7777
  48   2.0000      -0.504740       -13.7347
  49   2.0000      -0.498945       -13.5770
  50   2.0000      -0.496869       -13.5205
  51   2.0000      -0.482440       -13.1279
  52   2.0000      -0.474810       -12.9202
  53   2.0000      -0.471808       -12.8385
  54   2.0000      -0.460568       -12.5327
  55   2.0000      -0.451143       -12.2762
  56   2.0000      -0.449026       -12.2186
  57   2.0000      -0.433672       -11.8008
  58   2.0000      -0.430705       -11.7201
  59   2.0000      -0.426807       -11.6140
  60   2.0000      -0.422914       -11.5081
  61   2.0000      -0.416203       -11.3255
  62   2.0000      -0.408756       -11.1228
  63   2.0000      -0.347413        -9.4536
  64   2.0000      -0.331255        -9.0139
  65   2.0000      -0.324609        -8.8330
  66   2.0000      -0.288848        -7.8600
  67   0.0000       0.024059         0.6547
  68   0.0000       0.072426         1.9708
  69   0.0000       0.108179         2.9437
  70   0.0000       0.127830         3.4784
  71   0.0000       0.136385         3.7112

MULLIKEN ATOMIC CHARGES
-----------------------
   0 S :    0.117911
   1 C :   -0.149936
   2 C :   -0.045763
   3 C :    0.022619
   4 C :   -0.159328
   5 H :    0.003618
   6 C :    0.071917
   7 H :    0.019031
   8 H :    0.028589
   9 C :   -0.082795
  10 H :    0.020186
  11 H :    0.010641
  12 C :    0.011491
  13 H :    0.022906
  14 H :    0.011580
  15 H :    0.021777
  16 S :    0.077550
  17 C :   -0.077505
  18 C :   -0.064521
  19 C :   -0.070298
  20 C :   -0.142351
  21 H :    0.053118
  22 C :    0.097299
  23 H :    0.007760
  24 H :    0.033598
  25 C :   -0.144910
  26 H :    0.047577
  27 H :    0.038241
  28 C :    0.056613
  29 H :    0.042363
  30 H :   -0.005758
  31 H :    0.005091
  32 H :    0.062719
  33 H :    0.058971
Sum of atomic charges:    0.0000000

LOEWDIN ATOMIC CHARGES
----------------------
   0 S :    0.407562
   1 C :   -0.204380
   2 C :   -0.067392
   3 C :   -0.061605
   4 C :   -0.188142
   5 H :    0.024872
   6 C :   -0.024740
   7 H :    0.029316
   8 H :    0.028719
   9 C :   -0.039294
  10 H :    0.025138
  11 H :    0.013737
  12 C :   -0.055192
  13 H :    0.023372
  14 H :    0.025359
  15 H :    0.023378
  16 S :    0.366253
  17 C :   -0.171025
  18 C :   -0.082541
  19 C :   -0.046333
  20 C :   -0.194742
  21 H :    0.044814
  22 C :   -0.041189
  23 H :    0.022805
  24 H :    0.041604
  25 C :   -0.038148
  26 H :    0.033464
  27 H :    0.025546
  28 C :   -0.053069
  29 H :    0.032694
  30 H :    0.014147
  31 H :    0.018452
  32 H :    0.038188
  33 H :    0.028371

  Mayer bond orders larger than 0.100000
B(  0-S ,  1-C ) :   1.1423 B(  0-S ,  4-C ) :   1.1471 B(  1-C ,  2-C ) :   1.6231
B(  1-C , 32-H ) :   0.9593 B(  2-C ,  3-C ) :   1.2352 B(  2-C ,  6-C ) :   1.0134
B(  3-C ,  4-C ) :   1.5810 B(  3-C ,  5-H ) :   0.9952 B(  4-C , 20-C ) :   1.0666
B(  6-C ,  7-H ) :   0.9517 B(  6-C ,  8-H ) :   0.9379 B(  6-C ,  9-C ) :   1.0587
B(  9-C , 10-H ) :   0.9504 B(  9-C , 11-H ) :   0.9550 B(  9-C , 12-C ) :   1.1026
B( 12-C , 13-H ) :   0.9701 B( 12-C , 14-H ) :   0.9629 B( 12-C , 15-H ) :   0.9711
B( 16-S , 17-C ) :   1.1423 B( 16-S , 20-C ) :   1.1211 B( 17-C , 18-C ) :   1.6142
B( 17-C , 33-H ) :   0.9614 B( 18-C , 19-C ) :   1.2368 B( 18-C , 21-H ) :   0.9676
B( 19-C , 20-C ) :   1.5811 B( 19-C , 22-C ) :   1.0387 B( 22-C , 23-H ) :   0.9279
B( 22-C , 24-H ) :   0.9034 B( 22-C , 25-C ) :   1.1040 B( 25-C , 26-H ) :   0.9443
B( 25-C , 27-H ) :   0.9529 B( 25-C , 28-C ) :   1.0784 B( 28-C , 29-H ) :   0.9751
B( 28-C , 30-H ) :   0.9643 B( 28-C , 31-H ) :   0.9675

Dispersion correction           -0.013138656
FINAL SINGLE POINT ENERGY     -1339.864725377580

DIPOLE MOMENT
-------------
                                X             Y             Z
Electronic contribution:     18.24185     -20.01764     -10.49238
Nuclear contribution   :    -18.86648      20.54420      10.60489
                        -----------------------------------------
Total Dipole Moment    :     -0.62463       0.52656       0.11251
                        -----------------------------------------
Magnitude (a.u.)       :      0.82467
Magnitude (Debye)      :      2.09615

Rotational constants in cm-1:     0.017012     0.008058     0.006130
Rotational constants in MHz :   509.993164   241.571336   183.766519

                             ****ORCA TERMINATED NORMALLY****
TOTAL RUN TIME: 0 days 0 hours 0 minutes 20 seconds 824 msec
