                         Program Version 4.2.1 -  RELEASE  -
|  1> ! wB97X-D3 SP def2-SVP
|  2> %pal
|  3> nprocs 24
|  4> end
|  5>
|  6> * xyz 0 1
|  7> S 	 -53.9139 	 13.1301 	 -104.779
|  8> C 	 -53.5992 	 13.6316 	 -103.1
|  9> C 	 -54.685 	 13.6986 	 -102.255
| 10> C 	 -55.8837 	 13.2644 	 -102.918
| 11> C 	 -55.6473 	 12.9906 	 -104.264
| 12> H 	 -56.847 	 13.0935 	 -102.422
| 13> C 	 -54.5635 	 13.8387 	 -100.743
| 14> H 	 -53.5498 	 13.619 	 -100.4
| 15> H 	 -55.1248 	 13.0242 	 -100.288
| 16> C 	 -54.9187 	 15.2508 	 -100.294
| 17> H 	 -54.279 	 15.9999 	 -100.714
| 18> H 	 -55.9606 	 15.5262 	 -100.618
| 19> C 	 -55.0344 	 15.4478 	 -98.772
| 20> H 	 -55.1922 	 16.4957 	 -98.6503
| 21> H 	 -55.985 	 14.9592 	 -98.3944
| 22> H 	 -54.1905 	 14.9776 	 -98.2009
| 23> S 	 -56.0366 	 11.2231 	 -106.31
| 24> C 	 -57.6567 	 10.9267 	 -106.966
| 25> C 	 -58.582 	 11.6483 	 -106.233
| 26> C 	 -57.9962 	 12.5598 	 -105.287
| 27> C 	 -56.6294 	 12.3361 	 -105.119
| 28> H 	 -59.6354 	 11.5965 	 -106.382
| 29> C 	 -58.7878 	 13.6481 	 -104.54
| 30> H 	 -58.6213 	 13.4529 	 -103.444
| 31> H 	 -59.8558 	 13.4501 	 -104.873
| 32> C 	 -58.3643 	 14.9904 	 -104.946
| 33> H 	 -57.2703 	 14.9144 	 -105.042
| 34> H 	 -58.4535 	 15.765 	 -104.139
| 35> C 	 -59.1243 	 15.4737 	 -106.272
| 36> H 	 -58.7556 	 16.4955 	 -106.441
| 37> H 	 -60.1937 	 15.55 	 -106.116
| 38> H 	 -58.8086 	 14.9577 	 -107.069
| 39> H 	 -52.5557 	 13.7646 	 -102.788
| 40> H 	 -57.8958 	 10.1885 	 -107.721
| 41> *
| 42>
| 43>                          ****END OF INPUT****

CARTESIAN COORDINATES (ANGSTROEM)
---------------------------------
  S    -53.913900   13.130100  -104.779000
  C    -53.599200   13.631600  -103.100000
  C    -54.685000   13.698600  -102.255000
  C    -55.883700   13.264400  -102.918000
  C    -55.647300   12.990600  -104.264000
  H    -56.847000   13.093500  -102.422000
  C    -54.563500   13.838700  -100.743000
  H    -53.549800   13.619000  -100.400000
  H    -55.124800   13.024200  -100.288000
  C    -54.918700   15.250800  -100.294000
  H    -54.279000   15.999900  -100.714000
  H    -55.960600   15.526200  -100.618000
  C    -55.034400   15.447800  -98.772000
  H    -55.192200   16.495700  -98.650300
  H    -55.985000   14.959200  -98.394400
  H    -54.190500   14.977600  -98.200900
  S    -56.036600   11.223100  -106.310000
  C    -57.656700   10.926700  -106.966000
  C    -58.582000   11.648300  -106.233000
  C    -57.996200   12.559800  -105.287000
  C    -56.629400   12.336100  -105.119000
  H    -59.635400   11.596500  -106.382000
  C    -58.787800   13.648100  -104.540000
  H    -58.621300   13.452900  -103.444000
  H    -59.855800   13.450100  -104.873000
  C    -58.364300   14.990400  -104.946000
  H    -57.270300   14.914400  -105.042000
  H    -58.453500   15.765000  -104.139000
  C    -59.124300   15.473700  -106.272000
  H    -58.755600   16.495500  -106.441000
  H    -60.193700   15.550000  -106.116000
  H    -58.808600   14.957700  -107.069000
  H    -52.555700   13.764600  -102.788000
  H    -57.895800   10.188500  -107.721000

 Total Charge           Charge          ....    0
 Multiplicity           Mult            ....    1
 Number of Electrons    NEL             ....  134
 Basis Dimension        Dim             ....  322

ORBITAL ENERGIES
----------------

  NO   OCC          E(Eh)            E(eV)
   0   2.0000     -88.973169     -2421.0830
   1   2.0000     -88.964070     -2420.8354
   2   2.0000     -10.337196      -281.2894
   3   2.0000     -10.323350      -280.9126
   4   2.0000     -10.318601      -280.7834
   5   2.0000     -10.318080      -280.7692
   6   2.0000     -10.304626      -280.4031
   7   2.0000     -10.302765      -280.3525
   8   2.0000     -10.299842      -280.2730
   9   2.0000     -10.295916      -280.1661
  10   2.0000     -10.294518      -280.1281
  11   2.0000     -10.293979      -280.1134
  12   2.0000     -10.288490      -279.9640
  13   2.0000     -10.283778      -279.8358
  14   2.0000     -10.283053      -279.8161
  15   2.0000     -10.269986      -279.4605
  16   2.0000      -8.086356      -220.0409
  17   2.0000      -8.078702      -219.8327
  18   2.0000      -6.044868      -164.4892
  19   2.0000      -6.041468      -164.3967
  20   2.0000      -6.037256      -164.2821
  21   2.0000      -6.036815      -164.2701
  22   2.0000      -6.033187      -164.1714
  23   2.0000      -6.029471      -164.0703
  24   2.0000      -1.003242       -27.2996
  25   2.0000      -0.978180       -26.6176
  26   2.0000      -0.912016       -24.8172
  27   2.0000      -0.909967       -24.7615
  28   2.0000      -0.868077       -23.6216
  29   2.0000      -0.852298       -23.1922
  30   2.0000      -0.838838       -22.8260
  31   2.0000      -0.813037       -22.1239
  32   2.0000      -0.782625       -21.2963
  33   2.0000      -0.770802       -20.9746
  34   2.0000      -0.707737       -19.2585
  35   2.0000      -0.696035       -18.9401
  36   2.0000      -0.684885       -18.6367
  37   2.0000      -0.667316       -18.1586
  38   2.0000      -0.638999       -17.3881
  39   2.0000      -0.622132       -16.9291
  40   2.0000      -0.587629       -15.9902
  41   2.0000      -0.564727       -15.3670
  42   2.0000      -0.558638       -15.2013
  43   2.0000      -0.552054       -15.0222
  44   2.0000      -0.547953       -14.9106
  45   2.0000      -0.535740       -14.5782
  46   2.0000      -0.515987       -14.0407
  47   2.0000      -0.505663       -13.7598
  48   2.0000      -0.503028       -13.6881
  49   2.0000      -0.492811       -13.4101
  50   2.0000      -0.487448       -13.2641
  51   2.0000      -0.481599       -13.1050
  52   2.0000      -0.471600       -12.8329
  53   2.0000      -0.461074       -12.5465
  54   2.0000      -0.458917       -12.4878
  55   2.0000      -0.453190       -12.3319
  56   2.0000      -0.446541       -12.1510
  57   2.0000      -0.439349       -11.9553
  58   2.0000      -0.435503       -11.8506
  59   2.0000      -0.420760       -11.4495
  60   2.0000      -0.415388       -11.3033
  61   2.0000      -0.413313       -11.2468
  62   2.0000      -0.404312       -11.0019
  63   2.0000      -0.353498        -9.6192
  64   2.0000      -0.337688        -9.1890
  65   2.0000      -0.328441        -8.9373
  66   2.0000      -0.282468        -7.6863
  67   0.0000       0.018215         0.4956
  68   0.0000       0.072867         1.9828
  69   0.0000       0.092886         2.5276
  70   0.0000       0.118552         3.2260
  71   0.0000       0.130054         3.5389

MULLIKEN ATOMIC CHARGES
-----------------------
   0 S :    0.101548
   1 C :   -0.136478
   2 C :   -0.045352
   3 C :   -0.016041
   4 C :   -0.119191
   5 H :    0.030562
   6 C :    0.071713
   7 H :    0.016151
   8 H :    0.029024
   9 C :   -0.098825
  10 H :    0.032077
  11 H :    0.026614
  12 C :   -0.046854
  13 H :    0.034055
  14 H :    0.032044
  15 H :    0.040448
  16 S :    0.088810
  17 C :   -0.095107
  18 C :   -0.006994
  19 C :   -0.107937
  20 C :   -0.135534
  21 H :    0.009039
  22 C :    0.070323
  23 H :    0.040063
  24 H :    0.020826
  25 C :   -0.097893
  26 H :    0.043742
  27 H :    0.027285
  28 C :   -0.002181
  29 H :    0.024965
  30 H :    0.037584
  31 H :    0.017063
  32 H :    0.052948
  33 H :    0.061503
Sum of atomic charges:   -0.0000000

LOEWDIN ATOMIC CHARGES
----------------------
   0 S :    0.363218
   1 C :   -0.181846
   2 C :   -0.059834
   3 C :   -0.054363
   4 C :   -0.170096
   5 H :    0.037022
   6 C :   -0.029390
   7 H :    0.029556
   8 H :    0.032849
   9 C :   -0.044260
  10 H :    0.022230
  11 H :    0.028203
  12 C :   -0.069431
  13 H :    0.024162
  14 H :    0.028669
  15 H :    0.026238
  16 S :    0.398474
  17 C :   -0.182338
  18 C :   -0.066617
  19 C :   -0.063796
  20 C :   -0.203465
  21 H :    0.025830
  22 C :   -0.038708
  23 H :    0.033066
  24 H :    0.031788
  25 C :   -0.048232
  26 H :    0.030106
  27 H :    0.025510
  28 C :   -0.047581
  29 H :    0.030938
  30 H :    0.026083
  31 H :    0.008544
  32 H :    0.026156
  33 H :    0.031314

  Mayer bond orders larger than 0.100000
B(  0-S ,  1-C ) :   1.1180 B(  0-S ,  4-C ) :   1.1187 B(  1-C ,  2-C ) :   1.6455
B(  1-C , 32-H ) :   0.9611 B(  2-C ,  3-C ) :   1.2165 B(  2-C ,  6-C ) :   1.0206
B(  3-C ,  4-C ) :   1.5853 B(  3-C ,  5-H ) :   0.9842 B(  4-C , 20-C ) :   1.0779
B(  6-C ,  7-H ) :   0.9415 B(  6-C ,  8-H ) :   0.9472 B(  6-C ,  9-C ) :   1.0519
B(  9-C , 10-H ) :   0.9591 B(  9-C , 11-H ) :   0.9596 B(  9-C , 12-C ) :   1.0764
B( 12-C , 13-H ) :   0.9747 B( 12-C , 14-H ) :   0.9773 B( 12-C , 15-H ) :   0.9735
B( 16-S , 17-C ) :   1.1472 B( 16-S , 20-C ) :   1.1376 B( 17-C , 18-C ) :   1.5914
B( 17-C , 33-H ) :   0.9699 B( 18-C , 19-C ) :   1.2705 B( 18-C , 21-H ) :   0.9875
B( 19-C , 20-C ) :   1.5726 B( 19-C , 22-C ) :   1.0284 B( 22-C , 23-H ) :   0.9314
B( 22-C , 24-H ) :   0.9340 B( 22-C , 25-C ) :   1.0671 B( 25-C , 26-H ) :   0.9561
B( 25-C , 27-H ) :   0.9543 B( 25-C , 28-C ) :   1.0660 B( 28-C , 29-H ) :   0.9724
B( 28-C , 30-H ) :   0.9769 B( 28-C , 31-H ) :   0.9788

Dispersion correction           -0.014452104
FINAL SINGLE POINT ENERGY     -1339.867219714759

DIPOLE MOMENT
-------------
                                X             Y             Z
Electronic contribution:     11.36691     -17.94819     -18.71241
Nuclear contribution   :    -11.65187      18.11879      19.20794
                        -----------------------------------------
Total Dipole Moment    :     -0.28495       0.17060       0.49552
                        -----------------------------------------
Magnitude (a.u.)       :      0.59653
Magnitude (Debye)      :      1.51625

Rotational constants in cm-1:     0.020217     0.008326     0.006702
Rotational constants in MHz :   606.080606   249.615699   200.914334

                             ****ORCA TERMINATED NORMALLY****
TOTAL RUN TIME: 0 days 0 hours 0 minutes 20 seconds 800 msec
