                         Program Version 4.2.1 -  RELEASE  -
|  1> ! wB97X-D3 SP def2-SVP
|  2> %pal
|  3> nprocs 24
|  4> end
|  5>
|  6> * xyz 0 1
|  7> S 	 30.2475 	 2.20151 	 -114.744
|  8> C 	 28.8092 	 3.20434 	 -114.706
|  9> C 	 27.8385 	 2.57986 	 -113.951
| 10> C 	 28.2455 	 1.21939 	 -113.561
| 11> C 	 29.4141 	 0.795469 	 -114.019
| 12> H 	 27.6683 	 0.554331 	 -112.875
| 13> C 	 26.4032 	 3.04483 	 -113.727
| 14> H 	 25.7452 	 2.45275 	 -114.355
| 15> H 	 26.2017 	 4.02625 	 -114.071
| 16> C 	 25.863 	 3.05267 	 -112.314
| 17> H 	 26.2837 	 2.16084 	 -111.779
| 18> H 	 26.3276 	 3.91388 	 -111.751
| 19> C 	 24.3103 	 3.08364 	 -112.111
| 20> H 	 23.9333 	 2.72842 	 -111.197
| 21> H 	 24.0494 	 4.15075 	 -112.156
| 22> H 	 23.8564 	 2.49184 	 -112.895
| 23> S 	 30.303 	 -1.48463 	 -115.273
| 24> C 	 30.8307 	 -2.81087 	 -114.395
| 25> C 	 30.7244 	 -2.52339 	 -113.063
| 26> C 	 30.1783 	 -1.2648 	 -112.765
| 27> C 	 29.9443 	 -0.572285 	 -113.889
| 28> H 	 30.9889 	 -3.22233 	 -112.271
| 29> C 	 29.9433 	 -0.863537 	 -111.327
| 30> H 	 30.4818 	 -1.6618 	 -110.784
| 31> H 	 28.9089 	 -0.987403 	 -111.076
| 32> C 	 30.6584 	 0.397887 	 -110.855
| 33> H 	 30.1525 	 1.35954 	 -111.164
| 34> H 	 31.7029 	 0.393927 	 -111.261
| 35> C 	 30.7381 	 0.549925 	 -109.41
| 36> H 	 29.8163 	 0.711482 	 -108.888
| 37> H 	 31.5034 	 1.32737 	 -109.15
| 38> H 	 31.2609 	 -0.339609 	 -108.934
| 39> H 	 28.6219 	 4.25485 	 -115.106
| 40> H 	 31.2866 	 -3.74333 	 -114.678
| 41> *
| 42>
| 43>                          ****END OF INPUT****

CARTESIAN COORDINATES (ANGSTROEM)
---------------------------------
  S     30.247500    2.201510  -114.744000
  C     28.809200    3.204340  -114.706000
  C     27.838500    2.579860  -113.951000
  C     28.245500    1.219390  -113.561000
  C     29.414100    0.795469  -114.019000
  H     27.668300    0.554331  -112.875000
  C     26.403200    3.044830  -113.727000
  H     25.745200    2.452750  -114.355000
  H     26.201700    4.026250  -114.071000
  C     25.863000    3.052670  -112.314000
  H     26.283700    2.160840  -111.779000
  H     26.327600    3.913880  -111.751000
  C     24.310300    3.083640  -112.111000
  H     23.933300    2.728420  -111.197000
  H     24.049400    4.150750  -112.156000
  H     23.856400    2.491840  -112.895000
  S     30.303000   -1.484630  -115.273000
  C     30.830700   -2.810870  -114.395000
  C     30.724400   -2.523390  -113.063000
  C     30.178300   -1.264800  -112.765000
  C     29.944300   -0.572285  -113.889000
  H     30.988900   -3.222330  -112.271000
  C     29.943300   -0.863537  -111.327000
  H     30.481800   -1.661800  -110.784000
  H     28.908900   -0.987403  -111.076000
  C     30.658400    0.397887  -110.855000
  H     30.152500    1.359540  -111.164000
  H     31.702900    0.393927  -111.261000
  C     30.738100    0.549925  -109.410000
  H     29.816300    0.711482  -108.888000
  H     31.503400    1.327370  -109.150000
  H     31.260900   -0.339609  -108.934000
  H     28.621900    4.254850  -115.106000
  H     31.286600   -3.743330  -114.678000

 Total Charge           Charge          ....    0
 Multiplicity           Mult            ....    1
 Number of Electrons    NEL             ....  134
 Basis Dimension        Dim             ....  322

ORBITAL ENERGIES
----------------

  NO   OCC          E(Eh)            E(eV)
   0   2.0000     -88.966371     -2420.8980
   1   2.0000     -88.961942     -2420.7775
   2   2.0000     -10.326551      -280.9997
   3   2.0000     -10.321618      -280.8655
   4   2.0000     -10.317528      -280.7542
   5   2.0000     -10.309389      -280.5327
   6   2.0000     -10.305537      -280.4279
   7   2.0000     -10.293413      -280.0980
   8   2.0000     -10.292344      -280.0689
   9   2.0000     -10.291607      -280.0489
  10   2.0000     -10.290668      -280.0233
  11   2.0000     -10.289105      -279.9808
  12   2.0000     -10.285106      -279.8720
  13   2.0000     -10.284440      -279.8539
  14   2.0000     -10.279561      -279.7211
  15   2.0000     -10.275534      -279.6115
  16   2.0000      -8.083291      -219.9575
  17   2.0000      -8.076121      -219.7624
  18   2.0000      -6.041618      -164.4008
  19   2.0000      -6.037352      -164.2847
  20   2.0000      -6.034963      -164.2197
  21   2.0000      -6.034222      -164.1995
  22   2.0000      -6.030832      -164.1073
  23   2.0000      -6.026387      -163.9863
  24   2.0000      -1.022794       -27.8316
  25   2.0000      -0.989334       -26.9211
  26   2.0000      -0.918322       -24.9888
  27   2.0000      -0.909400       -24.7460
  28   2.0000      -0.874211       -23.7885
  29   2.0000      -0.862245       -23.4629
  30   2.0000      -0.839894       -22.8547
  31   2.0000      -0.820228       -22.3195
  32   2.0000      -0.784815       -21.3559
  33   2.0000      -0.777050       -21.1446
  34   2.0000      -0.706101       -19.2140
  35   2.0000      -0.693768       -18.8784
  36   2.0000      -0.685453       -18.6521
  37   2.0000      -0.665300       -18.1037
  38   2.0000      -0.640289       -17.4231
  39   2.0000      -0.619443       -16.8559
  40   2.0000      -0.600682       -16.3454
  41   2.0000      -0.571897       -15.5621
  42   2.0000      -0.570360       -15.5203
  43   2.0000      -0.559110       -15.2142
  44   2.0000      -0.533885       -14.5278
  45   2.0000      -0.524004       -14.2589
  46   2.0000      -0.517246       -14.0750
  47   2.0000      -0.512826       -13.9547
  48   2.0000      -0.509304       -13.8589
  49   2.0000      -0.499705       -13.5977
  50   2.0000      -0.498048       -13.5526
  51   2.0000      -0.490492       -13.3470
  52   2.0000      -0.468287       -12.7427
  53   2.0000      -0.467417       -12.7191
  54   2.0000      -0.462152       -12.5758
  55   2.0000      -0.448155       -12.1949
  56   2.0000      -0.445633       -12.1263
  57   2.0000      -0.430438       -11.7128
  58   2.0000      -0.429991       -11.7007
  59   2.0000      -0.423886       -11.5345
  60   2.0000      -0.417217       -11.3530
  61   2.0000      -0.406521       -11.0620
  62   2.0000      -0.403058       -10.9678
  63   2.0000      -0.345775        -9.4090
  64   2.0000      -0.335040        -9.1169
  65   2.0000      -0.322618        -8.7789
  66   2.0000      -0.306908        -8.3514
  67   0.0000       0.040097         1.0911
  68   0.0000       0.074458         2.0261
  69   0.0000       0.111275         3.0280
  70   0.0000       0.131027         3.5654
  71   0.0000       0.133538         3.6338

MULLIKEN ATOMIC CHARGES
-----------------------
   0 S :    0.100231
   1 C :   -0.138790
   2 C :   -0.080122
   3 C :    0.017689
   4 C :   -0.139363
   5 H :    0.027008
   6 C :    0.103062
   7 H :    0.029992
   8 H :   -0.001737
   9 C :   -0.147227
  10 H :    0.024276
  11 H :    0.035341
  12 C :   -0.018497
  13 H :    0.026755
  14 H :    0.036042
  15 H :    0.029723
  16 S :    0.145263
  17 C :   -0.064800
  18 C :   -0.065873
  19 C :   -0.034931
  20 C :   -0.195033
  21 H :    0.013698
  22 C :    0.105392
  23 H :    0.001206
  24 H :    0.035515
  25 C :   -0.083833
  26 H :    0.047523
  27 H :    0.037938
  28 C :   -0.055035
  29 H :    0.033774
  30 H :    0.036761
  31 H :    0.014632
  32 H :    0.075213
  33 H :    0.048207
Sum of atomic charges:    0.0000000

LOEWDIN ATOMIC CHARGES
----------------------
   0 S :    0.373910
   1 C :   -0.203343
   2 C :   -0.065111
   3 C :   -0.063889
   4 C :   -0.178493
   5 H :    0.035667
   6 C :   -0.034427
   7 H :    0.031716
   8 H :    0.022779
   9 C :   -0.050082
  10 H :    0.018923
  11 H :    0.027605
  12 C :   -0.058950
  13 H :    0.020959
  14 H :    0.029948
  15 H :    0.024523
  16 S :    0.470744
  17 C :   -0.212145
  18 C :   -0.077335
  19 C :   -0.062758
  20 C :   -0.218533
  21 H :    0.028396
  22 C :   -0.028378
  23 H :    0.033158
  24 H :    0.028726
  25 C :   -0.052511
  26 H :    0.033304
  27 H :    0.035122
  28 C :   -0.072740
  29 H :    0.020072
  30 H :    0.034433
  31 H :    0.022339
  32 H :    0.051093
  33 H :    0.035277

  Mayer bond orders larger than 0.100000
B(  0-S ,  1-C ) :   1.1183 B(  0-S ,  4-C ) :   1.1077 B(  1-C ,  2-C ) :   1.6579
B(  1-C , 32-H ) :   0.9557 B(  2-C ,  3-C ) :   1.1805 B(  2-C ,  6-C ) :   1.0352
B(  3-C ,  4-C ) :   1.6690 B(  3-C ,  5-H ) :   0.9833 B(  4-C , 20-C ) :   1.0121
B(  6-C ,  7-H ) :   0.9410 B(  6-C ,  8-H ) :   0.9374 B(  6-C ,  9-C ) :   1.0452
B(  9-C , 10-H ) :   0.9646 B(  9-C , 11-H ) :   0.9582 B(  9-C , 12-C ) :   1.0654
B( 12-C , 13-H ) :   0.9767 B( 12-C , 14-H ) :   0.9794 B( 12-C , 15-H ) :   0.9772
B( 16-S , 17-C ) :   1.1763 B( 16-S , 20-C ) :   1.1701 B( 17-C , 18-C ) :   1.5757
B( 17-C , 33-H ) :   0.9671 B( 18-C , 19-C ) :   1.3047 B( 18-C , 21-H ) :   0.9814
B( 19-C , 20-C ) :   1.5874 B( 19-C , 22-C ) :   1.0291 B( 22-C , 23-H ) :   0.9272
B( 22-C , 24-H ) :   0.9245 B( 22-C , 25-C ) :   1.0649 B( 25-C , 26-H ) :   0.9424
B( 25-C , 27-H ) :   0.9523 B( 25-C , 28-C ) :   1.1117 B( 28-C , 29-H ) :   0.9717
B( 28-C , 30-H ) :   0.9691 B( 28-C , 31-H ) :   0.9648

Dispersion correction           -0.014354408
FINAL SINGLE POINT ENERGY     -1339.865661645472

DIPOLE MOMENT
-------------
                                X             Y             Z
Electronic contribution:     14.98396      -8.41791     -23.75428
Nuclear contribution   :    -15.37373       8.35533      24.30027
                        -----------------------------------------
Total Dipole Moment    :     -0.38977      -0.06258       0.54599
                        -----------------------------------------
Magnitude (a.u.)       :      0.67376
Magnitude (Debye)      :      1.71255

Rotational constants in cm-1:     0.017324     0.008697     0.007297
Rotational constants in MHz :   519.354842   260.743075   218.770370

                             ****ORCA TERMINATED NORMALLY****
TOTAL RUN TIME: 0 days 0 hours 0 minutes 21 seconds 786 msec
