                         Program Version 4.2.1 -  RELEASE  -
|  1> ! wB97X-D3 SP def2-SVP
|  2> %pal
|  3> nprocs 24
|  4> end
|  5>
|  6> * xyz 0 1
|  7> S 	 -105.466 	 47.9686 	 -100.333
|  8> C 	 -106.105 	 49.4523 	 -100.882
|  9> C 	 -105.108 	 50.3858 	 -101.132
| 10> C 	 -103.797 	 49.9533 	 -100.725
| 11> C 	 -103.857 	 48.6898 	 -100.188
| 12> H 	 -102.923 	 50.5445 	 -100.694
| 13> C 	 -105.195 	 51.6934 	 -101.894
| 14> H 	 -106.085 	 51.75 	 -102.48
| 15> H 	 -104.409 	 51.8093 	 -102.7
| 16> C 	 -104.976 	 52.9034 	 -100.935
| 17> H 	 -104.036 	 52.8954 	 -100.419
| 18> H 	 -105.15 	 53.7523 	 -101.616
| 19> C 	 -106.093 	 53.0037 	 -99.9352
| 20> H 	 -106.203 	 53.9868 	 -99.5341
| 21> H 	 -107.11 	 52.7802 	 -100.368
| 22> H 	 -105.969 	 52.2648 	 -99.1231
| 23> S 	 -102.698 	 46.1577 	 -100.071
| 24> C 	 -101.308 	 45.8867 	 -99.1285
| 25> C 	 -100.826 	 47.047 	 -98.5761
| 26> C 	 -101.598 	 48.1841 	 -98.9273
| 27> C 	 -102.739 	 47.8732 	 -99.6695
| 28> H 	 -99.9367 	 47.0028 	 -97.9275
| 29> C 	 -101.403 	 49.4823 	 -98.2129
| 30> H 	 -102.388 	 49.9865 	 -98.0299
| 31> H 	 -100.966 	 50.0511 	 -99.005
| 32> C 	 -100.348 	 49.5412 	 -97.0481
| 33> H 	 -100.21 	 50.5654 	 -96.8605
| 34> H 	 -99.325 	 49.2644 	 -97.46
| 35> C 	 -100.674 	 48.7082 	 -95.8066
| 36> H 	 -99.7753 	 48.5831 	 -95.1305
| 37> H 	 -100.914 	 47.7247 	 -96.0328
| 38> H 	 -101.527 	 49.1492 	 -95.2195
| 39> H 	 -107.133 	 49.6647 	 -101.105
| 40> H 	 -100.816 	 44.9659 	 -98.8379
| 41> *
| 42>
| 43>                          ****END OF INPUT****

CARTESIAN COORDINATES (ANGSTROEM)
---------------------------------
  S    -105.466000   47.968600  -100.333000
  C    -106.105000   49.452300  -100.882000
  C    -105.108000   50.385800  -101.132000
  C    -103.797000   49.953300  -100.725000
  C    -103.857000   48.689800  -100.188000
  H    -102.923000   50.544500  -100.694000
  C    -105.195000   51.693400  -101.894000
  H    -106.085000   51.750000  -102.480000
  H    -104.409000   51.809300  -102.700000
  C    -104.976000   52.903400  -100.935000
  H    -104.036000   52.895400  -100.419000
  H    -105.150000   53.752300  -101.616000
  C    -106.093000   53.003700  -99.935200
  H    -106.203000   53.986800  -99.534100
  H    -107.110000   52.780200  -100.368000
  H    -105.969000   52.264800  -99.123100
  S    -102.698000   46.157700  -100.071000
  C    -101.308000   45.886700  -99.128500
  C    -100.826000   47.047000  -98.576100
  C    -101.598000   48.184100  -98.927300
  C    -102.739000   47.873200  -99.669500
  H    -99.936700   47.002800  -97.927500
  C    -101.403000   49.482300  -98.212900
  H    -102.388000   49.986500  -98.029900
  H    -100.966000   50.051100  -99.005000
  C    -100.348000   49.541200  -97.048100
  H    -100.210000   50.565400  -96.860500
  H    -99.325000   49.264400  -97.460000
  C    -100.674000   48.708200  -95.806600
  H    -99.775300   48.583100  -95.130500
  H    -100.914000   47.724700  -96.032800
  H    -101.527000   49.149200  -95.219500
  H    -107.133000   49.664700  -101.105000
  H    -100.816000   44.965900  -98.837900

 Total Charge           Charge          ....    0
 Multiplicity           Mult            ....    1
 Number of Electrons    NEL             ....  134
 Basis Dimension        Dim             ....  322

ORBITAL ENERGIES
----------------

  NO   OCC          E(Eh)            E(eV)
   0   2.0000     -88.967859     -2420.9385
   1   2.0000     -88.964512     -2420.8474
   2   2.0000     -10.333053      -281.1767
   3   2.0000     -10.325630      -280.9747
   4   2.0000     -10.311978      -280.6032
   5   2.0000     -10.310133      -280.5530
   6   2.0000     -10.300892      -280.3015
   7   2.0000     -10.299750      -280.2704
   8   2.0000     -10.294005      -280.1141
   9   2.0000     -10.293785      -280.1081
  10   2.0000     -10.292716      -280.0791
  11   2.0000     -10.291472      -280.0452
  12   2.0000     -10.289405      -279.9889
  13   2.0000     -10.286255      -279.9032
  14   2.0000     -10.279562      -279.7211
  15   2.0000     -10.273612      -279.5592
  16   2.0000      -8.083046      -219.9509
  17   2.0000      -8.079763      -219.8615
  18   2.0000      -6.041617      -164.4008
  19   2.0000      -6.038232      -164.3087
  20   2.0000      -6.037581      -164.2909
  21   2.0000      -6.034125      -164.1969
  22   2.0000      -6.033626      -164.1833
  23   2.0000      -6.030615      -164.1014
  24   2.0000      -1.009128       -27.4598
  25   2.0000      -0.989066       -26.9139
  26   2.0000      -0.913307       -24.8524
  27   2.0000      -0.908372       -24.7181
  28   2.0000      -0.869802       -23.6685
  29   2.0000      -0.852953       -23.2100
  30   2.0000      -0.845335       -23.0027
  31   2.0000      -0.816117       -22.2077
  32   2.0000      -0.784404       -21.3447
  33   2.0000      -0.772609       -21.0238
  34   2.0000      -0.710488       -19.3334
  35   2.0000      -0.698491       -19.0069
  36   2.0000      -0.692248       -18.8370
  37   2.0000      -0.656395       -17.8614
  38   2.0000      -0.642365       -17.4796
  39   2.0000      -0.628667       -17.1069
  40   2.0000      -0.591821       -16.1043
  41   2.0000      -0.572820       -15.5872
  42   2.0000      -0.550926       -14.9915
  43   2.0000      -0.546006       -14.8576
  44   2.0000      -0.542782       -14.7699
  45   2.0000      -0.529708       -14.4141
  46   2.0000      -0.519362       -14.1325
  47   2.0000      -0.515669       -14.0321
  48   2.0000      -0.504819       -13.7368
  49   2.0000      -0.501837       -13.6557
  50   2.0000      -0.492635       -13.4053
  51   2.0000      -0.479928       -13.0595
  52   2.0000      -0.476196       -12.9580
  53   2.0000      -0.465848       -12.6764
  54   2.0000      -0.461010       -12.5447
  55   2.0000      -0.449444       -12.2300
  56   2.0000      -0.441908       -12.0249
  57   2.0000      -0.436530       -11.8786
  58   2.0000      -0.431258       -11.7351
  59   2.0000      -0.424292       -11.5456
  60   2.0000      -0.421545       -11.4708
  61   2.0000      -0.413667       -11.2565
  62   2.0000      -0.411891       -11.2081
  63   2.0000      -0.355768        -9.6809
  64   2.0000      -0.330096        -8.9824
  65   2.0000      -0.326439        -8.8829
  66   2.0000      -0.284346        -7.7374
  67   0.0000       0.027586         0.7507
  68   0.0000       0.076005         2.0682
  69   0.0000       0.112637         3.0650
  70   0.0000       0.123220         3.3530
  71   0.0000       0.135855         3.6968

MULLIKEN ATOMIC CHARGES
-----------------------
   0 S :    0.115466
   1 C :   -0.096945
   2 C :   -0.088917
   3 C :    0.030917
   4 C :   -0.132088
   5 H :    0.001382
   6 C :    0.037913
   7 H :    0.011733
   8 H :    0.041775
   9 C :   -0.058758
  10 H :    0.037396
  11 H :    0.030240
  12 C :   -0.066036
  13 H :    0.029291
  14 H :    0.019272
  15 H :    0.042201
  16 S :    0.110576
  17 C :   -0.066308
  18 C :   -0.080015
  19 C :   -0.028246
  20 C :   -0.159328
  21 H :    0.030779
  22 C :    0.031127
  23 H :    0.049658
  24 H :    0.026245
  25 C :   -0.060515
  26 H :    0.018078
  27 H :    0.027047
  28 C :   -0.040572
  29 H :    0.037241
  30 H :    0.018573
  31 H :    0.043961
  32 H :    0.038843
  33 H :    0.048015
Sum of atomic charges:   -0.0000000

LOEWDIN ATOMIC CHARGES
----------------------
   0 S :    0.413913
   1 C :   -0.210772
   2 C :   -0.060612
   3 C :   -0.054184
   4 C :   -0.178194
   5 H :    0.026127
   6 C :   -0.032673
   7 H :    0.022241
   8 H :    0.038096
   9 C :   -0.038158
  10 H :    0.022519
  11 H :    0.028446
  12 C :   -0.071237
  13 H :    0.020246
  14 H :    0.025967
  15 H :    0.026782
  16 S :    0.418747
  17 C :   -0.204076
  18 C :   -0.081166
  19 C :   -0.061377
  20 C :   -0.200088
  21 H :    0.036132
  22 C :   -0.039217
  23 H :    0.037713
  24 H :    0.032993
  25 C :   -0.039766
  26 H :    0.020307
  27 H :    0.029875
  28 C :   -0.069704
  29 H :    0.033976
  30 H :    0.012272
  31 H :    0.034117
  32 H :    0.026932
  33 H :    0.033824

  Mayer bond orders larger than 0.100000
B(  0-S ,  1-C ) :   1.1342 B(  0-S ,  4-C ) :   1.1499 B(  1-C ,  2-C ) :   1.6210
B(  1-C , 32-H ) :   0.9679 B(  2-C ,  3-C ) :   1.2166 B(  2-C ,  6-C ) :   1.0241
B(  3-C ,  4-C ) :   1.5745 B(  3-C ,  5-H ) :   1.0025 B(  4-C , 20-C ) :   1.0452
B(  6-C ,  7-H ) :   0.9450 B(  6-C ,  8-H ) :   0.9502 B(  6-C ,  9-C ) :   1.0640
B(  9-C , 10-H ) :   0.9600 B(  9-C , 11-H ) :   0.9555 B(  9-C , 12-C ) :   1.0764
B( 12-C , 13-H ) :   0.9748 B( 12-C , 14-H ) :   0.9742 B( 12-C , 15-H ) :   0.9717
B( 16-S , 17-C ) :   1.1669 B( 16-S , 20-C ) :   1.1379 B( 17-C , 18-C ) :   1.6047
B( 17-C , 33-H ) :   0.9591 B( 18-C , 19-C ) :   1.2719 B( 18-C , 21-H ) :   0.9745
B( 19-C , 20-C ) :   1.5774 B( 19-C , 22-C ) :   1.0219 B( 22-C , 23-H ) :   0.9454
B( 22-C , 24-H ) :   0.9072 B( 22-C , 25-C ) :   1.0916 B( 25-C , 26-H ) :   0.9511
B( 25-C , 27-H ) :   0.9475 B( 25-C , 28-C ) :   1.0684 B( 28-C , 29-H ) :   0.9728
B( 28-C , 30-H ) :   0.9744 B( 28-C , 31-H ) :   0.9722

Dispersion correction           -0.014510253
FINAL SINGLE POINT ENERGY     -1339.873196456864

DIPOLE MOMENT
-------------
                                X             Y             Z
Electronic contribution:     -5.33295     -23.90125     -10.34617
Nuclear contribution   :      5.59885      24.50136      10.47571
                        -----------------------------------------
Total Dipole Moment    :      0.26591       0.60012       0.12954
                        -----------------------------------------
Magnitude (a.u.)       :      0.66905
Magnitude (Debye)      :      1.70058

Rotational constants in cm-1:     0.019861     0.008624     0.006596
Rotational constants in MHz :   595.432604   258.529734   197.752874

                             ****ORCA TERMINATED NORMALLY****
TOTAL RUN TIME: 0 days 0 hours 0 minutes 21 seconds 929 msec
