                         Program Version 4.2.1 -  RELEASE  -
|  1> ! wB97X-D3 SP def2-SVP
|  2> %pal
|  3> nprocs 24
|  4> end
|  5>
|  6> * xyz 0 1
|  7> S 	 -23.9776 	 -36.965 	 -94.1662
|  8> C 	 -22.3296 	 -37.4495 	 -93.7289
|  9> C 	 -21.4914 	 -36.3357 	 -93.7007
| 10> C 	 -22.1637 	 -35.108 	 -94.0907
| 11> C 	 -23.5087 	 -35.2975 	 -94.3225
| 12> H 	 -21.7356 	 -34.0758 	 -93.9516
| 13> C 	 -20.0229 	 -36.3795 	 -93.2806
| 14> H 	 -19.7748 	 -37.3266 	 -92.6551
| 15> H 	 -19.9829 	 -35.4664 	 -92.6414
| 16> C 	 -19.0356 	 -36.2295 	 -94.4996
| 17> H 	 -19.1656 	 -37.017 	 -95.2974
| 18> H 	 -19.2426 	 -35.3047 	 -94.9957
| 19> C 	 -17.5474 	 -36.4674 	 -94.1303
| 20> H 	 -17.1297 	 -35.5725 	 -93.6446
| 21> H 	 -17.469 	 -37.2844 	 -93.3671
| 22> H 	 -17.0025 	 -36.7733 	 -94.9399
| 23> S 	 -25.4934 	 -34.589 	 -96.2441
| 24> C 	 -26.1354 	 -32.9344 	 -96.2253
| 25> C 	 -25.5165 	 -32.1068 	 -95.3624
| 26> C 	 -24.6097 	 -32.8336 	 -94.52
| 27> C 	 -24.4922 	 -34.2612 	 -94.7818
| 28> H 	 -25.6389 	 -31.0516 	 -95.3529
| 29> C 	 -23.923 	 -32.0935 	 -93.3346
| 30> H 	 -23.2814 	 -31.3596 	 -93.8991
| 31> H 	 -23.2019 	 -32.7214 	 -92.9098
| 32> C 	 -24.9637 	 -31.5546 	 -92.3196
| 33> H 	 -25.3783 	 -32.3555 	 -91.7558
| 34> H 	 -25.8283 	 -30.9721 	 -92.7916
| 35> C 	 -24.2033 	 -30.5726 	 -91.409
| 36> H 	 -23.9089 	 -29.5591 	 -91.8032
| 37> H 	 -23.3656 	 -30.9627 	 -90.9677
| 38> H 	 -24.7483 	 -30.3166 	 -90.4898
| 39> H 	 -21.9648 	 -38.4907 	 -93.6385
| 40> H 	 -26.9643 	 -32.7075 	 -96.8982
| 41> *
| 42>
| 43>                          ****END OF INPUT****

CARTESIAN COORDINATES (ANGSTROEM)
---------------------------------
  S    -23.977600  -36.965000  -94.166200
  C    -22.329600  -37.449500  -93.728900
  C    -21.491400  -36.335700  -93.700700
  C    -22.163700  -35.108000  -94.090700
  C    -23.508700  -35.297500  -94.322500
  H    -21.735600  -34.075800  -93.951600
  C    -20.022900  -36.379500  -93.280600
  H    -19.774800  -37.326600  -92.655100
  H    -19.982900  -35.466400  -92.641400
  C    -19.035600  -36.229500  -94.499600
  H    -19.165600  -37.017000  -95.297400
  H    -19.242600  -35.304700  -94.995700
  C    -17.547400  -36.467400  -94.130300
  H    -17.129700  -35.572500  -93.644600
  H    -17.469000  -37.284400  -93.367100
  H    -17.002500  -36.773300  -94.939900
  S    -25.493400  -34.589000  -96.244100
  C    -26.135400  -32.934400  -96.225300
  C    -25.516500  -32.106800  -95.362400
  C    -24.609700  -32.833600  -94.520000
  C    -24.492200  -34.261200  -94.781800
  H    -25.638900  -31.051600  -95.352900
  C    -23.923000  -32.093500  -93.334600
  H    -23.281400  -31.359600  -93.899100
  H    -23.201900  -32.721400  -92.909800
  C    -24.963700  -31.554600  -92.319600
  H    -25.378300  -32.355500  -91.755800
  H    -25.828300  -30.972100  -92.791600
  C    -24.203300  -30.572600  -91.409000
  H    -23.908900  -29.559100  -91.803200
  H    -23.365600  -30.962700  -90.967700
  H    -24.748300  -30.316600  -90.489800
  H    -21.964800  -38.490700  -93.638500
  H    -26.964300  -32.707500  -96.898200

 Total Charge           Charge          ....    0
 Multiplicity           Mult            ....    1
 Number of Electrons    NEL             ....  134
 Basis Dimension        Dim             ....  322

ORBITAL ENERGIES
----------------

  NO   OCC          E(Eh)            E(eV)
   0   2.0000     -88.967085     -2420.9175
   1   2.0000     -88.962214     -2420.7849
   2   2.0000     -10.337501      -281.2977
   3   2.0000     -10.336051      -281.2582
   4   2.0000     -10.319971      -280.8207
   5   2.0000     -10.318340      -280.7763
   6   2.0000     -10.312361      -280.6136
   7   2.0000     -10.307257      -280.4747
   8   2.0000     -10.306321      -280.4493
   9   2.0000     -10.301227      -280.3106
  10   2.0000     -10.296398      -280.1792
  11   2.0000     -10.295213      -280.1470
  12   2.0000     -10.293342      -280.0961
  13   2.0000     -10.292007      -280.0598
  14   2.0000     -10.276899      -279.6486
  15   2.0000     -10.274169      -279.5743
  16   2.0000      -8.081546      -219.9100
  17   2.0000      -8.076036      -219.7601
  18   2.0000      -6.040127      -164.3602
  19   2.0000      -6.036077      -164.2500
  20   2.0000      -6.034583      -164.2094
  21   2.0000      -6.032252      -164.1459
  22   2.0000      -6.030772      -164.1056
  23   2.0000      -6.026711      -163.9951
  24   2.0000      -0.997695       -27.1486
  25   2.0000      -0.976779       -26.5795
  26   2.0000      -0.905275       -24.6338
  27   2.0000      -0.903160       -24.5762
  28   2.0000      -0.864720       -23.5302
  29   2.0000      -0.847293       -23.0560
  30   2.0000      -0.843116       -22.9424
  31   2.0000      -0.814452       -22.1624
  32   2.0000      -0.778965       -21.1967
  33   2.0000      -0.765533       -20.8312
  34   2.0000      -0.710605       -19.3365
  35   2.0000      -0.699168       -19.0253
  36   2.0000      -0.692667       -18.8484
  37   2.0000      -0.656200       -17.8561
  38   2.0000      -0.635215       -17.2851
  39   2.0000      -0.617439       -16.8014
  40   2.0000      -0.595843       -16.2137
  41   2.0000      -0.566059       -15.4032
  42   2.0000      -0.560228       -15.2446
  43   2.0000      -0.554763       -15.0959
  44   2.0000      -0.528878       -14.3915
  45   2.0000      -0.524314       -14.2673
  46   2.0000      -0.512430       -13.9439
  47   2.0000      -0.508985       -13.8502
  48   2.0000      -0.503766       -13.7082
  49   2.0000      -0.496576       -13.5125
  50   2.0000      -0.491942       -13.3864
  51   2.0000      -0.471724       -12.8363
  52   2.0000      -0.469231       -12.7684
  53   2.0000      -0.460098       -12.5199
  54   2.0000      -0.455459       -12.3937
  55   2.0000      -0.454930       -12.3793
  56   2.0000      -0.446603       -12.1527
  57   2.0000      -0.439737       -11.9659
  58   2.0000      -0.436177       -11.8690
  59   2.0000      -0.432701       -11.7744
  60   2.0000      -0.426709       -11.6113
  61   2.0000      -0.405811       -11.0427
  62   2.0000      -0.402552       -10.9540
  63   2.0000      -0.348284        -9.4773
  64   2.0000      -0.329435        -8.9644
  65   2.0000      -0.326333        -8.8800
  66   2.0000      -0.290022        -7.8919
  67   0.0000       0.024911         0.6779
  68   0.0000       0.075103         2.0436
  69   0.0000       0.105898         2.8816
  70   0.0000       0.111151         3.0246
  71   0.0000       0.133120         3.6224

MULLIKEN ATOMIC CHARGES
-----------------------
   0 S :    0.106249
   1 C :   -0.127726
   2 C :   -0.103065
   3 C :    0.019229
   4 C :   -0.153792
   5 H :    0.038638
   6 C :    0.017444
   7 H :    0.044777
   8 H :    0.040597
   9 C :   -0.091910
  10 H :    0.034921
  11 H :    0.028737
  12 C :   -0.021432
  13 H :    0.033692
  14 H :    0.025234
  15 H :    0.022934
  16 S :    0.076657
  17 C :   -0.094984
  18 C :    0.008130
  19 C :   -0.097612
  20 C :   -0.110449
  21 H :    0.017155
  22 C :    0.059203
  23 H :    0.039353
  24 H :    0.000538
  25 C :   -0.045824
  26 H :    0.038320
  27 H :    0.049569
  28 C :   -0.042331
  29 H :    0.037360
  30 H :    0.003108
  31 H :    0.018124
  32 H :    0.062958
  33 H :    0.066200
Sum of atomic charges:   -0.0000000

LOEWDIN ATOMIC CHARGES
----------------------
   0 S :    0.401611
   1 C :   -0.202622
   2 C :   -0.062981
   3 C :   -0.076625
   4 C :   -0.193273
   5 H :    0.040207
   6 C :   -0.037535
   7 H :    0.038931
   8 H :    0.036325
   9 C :   -0.042413
  10 H :    0.030875
  11 H :    0.019544
  12 C :   -0.060879
  13 H :    0.025607
  14 H :    0.029164
  15 H :    0.013009
  16 S :    0.367673
  17 C :   -0.162361
  18 C :   -0.072333
  19 C :   -0.046074
  20 C :   -0.197135
  21 H :    0.032267
  22 C :   -0.031674
  23 H :    0.039174
  24 H :    0.016020
  25 C :   -0.029578
  26 H :    0.028090
  27 H :    0.035110
  28 C :   -0.072944
  29 H :    0.031426
  30 H :    0.010293
  31 H :    0.026025
  32 H :    0.037313
  33 H :    0.029762

  Mayer bond orders larger than 0.100000
B(  0-S ,  1-C ) :   1.1207 B(  0-S ,  4-C ) :   1.1634 B(  1-C ,  2-C ) :   1.6291
B(  1-C , 32-H ) :   0.9649 B(  2-C ,  3-C ) :   1.2338 B(  2-C ,  6-C ) :   1.0146
B(  3-C ,  4-C ) :   1.5856 B(  3-C ,  5-H ) :   0.9719 B(  4-C , 20-C ) :   1.0223
B(  6-C ,  7-H ) :   0.9494 B(  6-C ,  8-H ) :   0.9401 B(  6-C ,  9-C ) :   1.0514
B(  9-C , 10-H ) :   0.9647 B(  9-C , 11-H ) :   0.9583 B(  9-C , 12-C ) :   1.0729
B( 12-C , 13-H ) :   0.9761 B( 12-C , 14-H ) :   0.9734 B( 12-C , 15-H ) :   0.9798
B( 16-S , 17-C ) :   1.1590 B( 16-S , 20-C ) :   1.1194 B( 17-C , 18-C ) :   1.5988
B( 17-C , 33-H ) :   0.9641 B( 18-C , 19-C ) :   1.2452 B( 18-C , 21-H ) :   0.9982
B( 19-C , 20-C ) :   1.5838 B( 19-C , 22-C ) :   1.0300 B( 22-C , 23-H ) :   0.9431
B( 22-C , 24-H ) :   0.9355 B( 22-C , 25-C ) :   1.0482 B( 25-C , 26-H ) :   0.9535
B( 25-C , 27-H ) :   0.9619 B( 25-C , 28-C ) :   1.0739 B( 28-C , 29-H ) :   0.9779
B( 28-C , 30-H ) :   0.9715 B( 28-C , 31-H ) :   0.9705

Dispersion correction           -0.013345258
FINAL SINGLE POINT ENERGY     -1339.857476877973

DIPOLE MOMENT
-------------
                                X             Y             Z
Electronic contribution:    -21.29477     -12.53094     -13.46945
Nuclear contribution   :     21.77507      13.02033      13.73052
                        -----------------------------------------
Total Dipole Moment    :      0.48030       0.48940       0.26106
                        -----------------------------------------
Magnitude (a.u.)       :      0.73372
Magnitude (Debye)      :      1.86498

Rotational constants in cm-1:     0.017226     0.007623     0.006161
Rotational constants in MHz :   516.417730   228.526293   184.696357

                             ****ORCA TERMINATED NORMALLY****
TOTAL RUN TIME: 0 days 0 hours 0 minutes 20 seconds 778 msec
