                         Program Version 4.2.1 -  RELEASE  -
|  1> ! wB97X-D3 SP def2-SVP
|  2> %pal
|  3> nprocs 24
|  4> end
|  5>
|  6> * xyz 0 1
|  7> S 	 0.81491 	 -22.6872 	 -111.739
|  8> C 	 0.660023 	 -21.0635 	 -112.456
|  9> C 	 -0.436026 	 -20.4433 	 -111.818
| 10> C 	 -1.01502 	 -21.2523 	 -110.826
| 11> C 	 -0.536666 	 -22.5029 	 -110.646
| 12> H 	 -1.90405 	 -21.1039 	 -110.161
| 13> C 	 -0.901766 	 -19.0393 	 -112.246
| 14> H 	 -0.552132 	 -18.9662 	 -113.28
| 15> H 	 -0.252396 	 -18.3052 	 -111.709
| 16> C 	 -2.46606 	 -18.7453 	 -112.215
| 17> H 	 -2.81718 	 -18.5987 	 -111.147
| 18> H 	 -2.58183 	 -17.7297 	 -112.619
| 19> C 	 -3.2899 	 -19.8392 	 -112.958
| 20> H 	 -3.07666 	 -20.9058 	 -112.679
| 21> H 	 -4.37424 	 -19.7747 	 -112.879
| 22> H 	 -3.18695 	 -19.7794 	 -114.025
| 23> S 	 0.194356 	 -23.6676 	 -108.259
| 24> C 	 -0.936875 	 -24.7411 	 -107.41
| 25> C 	 -2.14161 	 -24.7633 	 -108.077
| 26> C 	 -2.13082 	 -23.987 	 -109.282
| 27> C 	 -0.94063 	 -23.3755 	 -109.563
| 28> H 	 -2.92822 	 -25.4043 	 -107.67
| 29> C 	 -3.49134 	 -23.8916 	 -110.032
| 30> H 	 -3.52958 	 -22.9814 	 -110.585
| 31> H 	 -4.37179 	 -23.9024 	 -109.337
| 32> C 	 -3.75334 	 -25.0693 	 -111.001
| 33> H 	 -4.62056 	 -24.8865 	 -111.636
| 34> H 	 -3.91397 	 -25.8818 	 -110.359
| 35> C 	 -2.55446 	 -25.2664 	 -111.923
| 36> H 	 -2.7832 	 -25.9432 	 -112.662
| 37> H 	 -1.612 	 -25.4055 	 -111.512
| 38> H 	 -2.47531 	 -24.3391 	 -112.566
| 39> H 	 1.08184 	 -20.834 	 -113.417
| 40> H 	 -0.733955 	 -25.4177 	 -106.634
| 41> *
| 42>
| 43>                          ****END OF INPUT****

CARTESIAN COORDINATES (ANGSTROEM)
---------------------------------
  S      0.814910  -22.687200  -111.739000
  C      0.660023  -21.063500  -112.456000
  C     -0.436026  -20.443300  -111.818000
  C     -1.015020  -21.252300  -110.826000
  C     -0.536666  -22.502900  -110.646000
  H     -1.904050  -21.103900  -110.161000
  C     -0.901766  -19.039300  -112.246000
  H     -0.552132  -18.966200  -113.280000
  H     -0.252396  -18.305200  -111.709000
  C     -2.466060  -18.745300  -112.215000
  H     -2.817180  -18.598700  -111.147000
  H     -2.581830  -17.729700  -112.619000
  C     -3.289900  -19.839200  -112.958000
  H     -3.076660  -20.905800  -112.679000
  H     -4.374240  -19.774700  -112.879000
  H     -3.186950  -19.779400  -114.025000
  S      0.194356  -23.667600  -108.259000
  C     -0.936875  -24.741100  -107.410000
  C     -2.141610  -24.763300  -108.077000
  C     -2.130820  -23.987000  -109.282000
  C     -0.940630  -23.375500  -109.563000
  H     -2.928220  -25.404300  -107.670000
  C     -3.491340  -23.891600  -110.032000
  H     -3.529580  -22.981400  -110.585000
  H     -4.371790  -23.902400  -109.337000
  C     -3.753340  -25.069300  -111.001000
  H     -4.620560  -24.886500  -111.636000
  H     -3.913970  -25.881800  -110.359000
  C     -2.554460  -25.266400  -111.923000
  H     -2.783200  -25.943200  -112.662000
  H     -1.612000  -25.405500  -111.512000
  H     -2.475310  -24.339100  -112.566000
  H      1.081840  -20.834000  -113.417000
  H     -0.733955  -25.417700  -106.634000

 Total Charge           Charge          ....    0
 Multiplicity           Mult            ....    1
 Number of Electrons    NEL             ....  134
 Basis Dimension        Dim             ....  322

ORBITAL ENERGIES
----------------

  NO   OCC          E(Eh)            E(eV)
   0   2.0000     -88.964966     -2420.8598
   1   2.0000     -88.964134     -2420.8372
   2   2.0000     -10.329452      -281.0787
   3   2.0000     -10.326667      -281.0029
   4   2.0000     -10.320821      -280.8438
   5   2.0000     -10.315788      -280.7068
   6   2.0000     -10.308621      -280.5118
   7   2.0000     -10.306198      -280.4459
   8   2.0000     -10.304223      -280.3922
   9   2.0000     -10.302175      -280.3364
  10   2.0000     -10.294655      -280.1318
  11   2.0000     -10.291962      -280.0585
  12   2.0000     -10.291703      -280.0515
  13   2.0000     -10.283101      -279.8174
  14   2.0000     -10.279172      -279.7105
  15   2.0000     -10.259830      -279.1842
  16   2.0000      -8.079311      -219.8492
  17   2.0000      -8.078291      -219.8215
  18   2.0000      -6.037986      -164.3020
  19   2.0000      -6.036757      -164.2685
  20   2.0000      -6.033809      -164.1883
  21   2.0000      -6.032697      -164.1580
  22   2.0000      -6.029955      -164.0834
  23   2.0000      -6.029273      -164.0649
  24   2.0000      -1.008902       -27.4536
  25   2.0000      -0.984589       -26.7920
  26   2.0000      -0.906900       -24.6780
  27   2.0000      -0.902356       -24.5544
  28   2.0000      -0.872403       -23.7393
  29   2.0000      -0.844014       -22.9668
  30   2.0000      -0.838323       -22.8119
  31   2.0000      -0.820039       -22.3144
  32   2.0000      -0.783457       -21.3189
  33   2.0000      -0.774898       -21.0861
  34   2.0000      -0.714478       -19.4419
  35   2.0000      -0.700231       -19.0543
  36   2.0000      -0.694587       -18.9007
  37   2.0000      -0.660893       -17.9838
  38   2.0000      -0.645759       -17.5720
  39   2.0000      -0.615153       -16.7392
  40   2.0000      -0.595444       -16.2029
  41   2.0000      -0.565144       -15.3783
  42   2.0000      -0.554050       -15.0765
  43   2.0000      -0.550300       -14.9744
  44   2.0000      -0.546210       -14.8631
  45   2.0000      -0.528347       -14.3770
  46   2.0000      -0.523460       -14.2441
  47   2.0000      -0.513027       -13.9602
  48   2.0000      -0.508525       -13.8377
  49   2.0000      -0.497416       -13.5354
  50   2.0000      -0.485241       -13.2041
  51   2.0000      -0.475106       -12.9283
  52   2.0000      -0.472947       -12.8695
  53   2.0000      -0.463212       -12.6046
  54   2.0000      -0.457307       -12.4440
  55   2.0000      -0.446596       -12.1525
  56   2.0000      -0.444052       -12.0833
  57   2.0000      -0.433490       -11.7959
  58   2.0000      -0.425393       -11.5755
  59   2.0000      -0.421423       -11.4675
  60   2.0000      -0.418653       -11.3921
  61   2.0000      -0.413852       -11.2615
  62   2.0000      -0.409414       -11.1407
  63   2.0000      -0.344384        -9.3712
  64   2.0000      -0.330295        -8.9878
  65   2.0000      -0.327986        -8.9250
  66   2.0000      -0.303819        -8.2673
  67   0.0000       0.031401         0.8545
  68   0.0000       0.059323         1.6143
  69   0.0000       0.113147         3.0789
  70   0.0000       0.122380         3.3301
  71   0.0000       0.132705         3.6111

MULLIKEN ATOMIC CHARGES
-----------------------
   0 S :    0.095976
   1 C :   -0.122955
   2 C :   -0.102989
   3 C :    0.024659
   4 C :   -0.172675
   5 H :    0.030192
   6 C :    0.059231
   7 H :    0.016511
   8 H :    0.056754
   9 C :   -0.070886
  10 H :    0.042918
  11 H :    0.037054
  12 C :   -0.070394
  13 H :    0.055835
  14 H :    0.029460
  15 H :    0.024817
  16 S :    0.107498
  17 C :   -0.072382
  18 C :   -0.049166
  19 C :   -0.037138
  20 C :   -0.168512
  21 H :    0.029865
  22 C :    0.067099
  23 H :    0.004844
  24 H :    0.032968
  25 C :   -0.043168
  26 H :    0.031293
  27 H :    0.011874
  28 C :   -0.016322
  29 H :    0.008242
  30 H :    0.036222
  31 H :    0.016496
  32 H :    0.064869
  33 H :    0.041908
Sum of atomic charges:    0.0000000

LOEWDIN ATOMIC CHARGES
----------------------
   0 S :    0.395527
   1 C :   -0.188150
   2 C :   -0.063574
   3 C :   -0.072212
   4 C :   -0.202421
   5 H :    0.041420
   6 C :   -0.034583
   7 H :    0.028953
   8 H :    0.041153
   9 C :   -0.043751
  10 H :    0.029445
  11 H :    0.029754
  12 C :   -0.077344
  13 H :    0.034009
  14 H :    0.027403
  15 H :    0.023812
  16 S :    0.397738
  17 C :   -0.169633
  18 C :   -0.070719
  19 C :   -0.055627
  20 C :   -0.196788
  21 H :    0.035887
  22 C :   -0.026230
  23 H :    0.016531
  24 H :    0.034004
  25 C :   -0.029947
  26 H :    0.027662
  27 H :    0.011407
  28 C :   -0.058396
  29 H :    0.014248
  30 H :    0.015784
  31 H :    0.032293
  32 H :    0.029473
  33 H :    0.022875

  Mayer bond orders larger than 0.100000
B(  0-S ,  1-C ) :   1.1502 B(  0-S ,  4-C ) :   1.1457 B(  1-C ,  2-C ) :   1.5724
B(  1-C ,  4-C ) :   0.1110 B(  1-C , 32-H ) :   0.9687 B(  2-C ,  3-C ) :   1.2486
B(  2-C ,  6-C ) :   1.0065 B(  3-C ,  4-C ) :   1.5863 B(  3-C ,  5-H ) :   0.9841
B(  4-C , 20-C ) :   1.0273 B(  6-C ,  7-H ) :   0.9426 B(  6-C ,  8-H ) :   0.9416
B(  6-C ,  9-C ) :   1.0601 B(  9-C , 10-H ) :   0.9569 B(  9-C , 11-H ) :   0.9581
B(  9-C , 12-C ) :   1.0593 B( 12-C , 13-H ) :   0.9736 B( 12-C , 14-H ) :   0.9753
B( 12-C , 15-H ) :   0.9744 B( 16-S , 17-C ) :   1.1419 B( 16-S , 20-C ) :   1.1342
B( 17-C , 18-C ) :   1.6378 B( 17-C , 33-H ) :   0.9701 B( 18-C , 19-C ) :   1.2202
B( 18-C , 21-H ) :   0.9868 B( 19-C , 20-C ) :   1.6303 B( 19-C , 22-C ) :   1.0293
B( 22-C , 23-H ) :   0.9353 B( 22-C , 24-H ) :   0.9470 B( 22-C , 25-C ) :   1.0717
B( 25-C , 26-H ) :   0.9555 B( 25-C , 27-H ) :   0.9566 B( 25-C , 28-C ) :   1.0858
B( 28-C , 29-H ) :   0.9696 B( 28-C , 30-H ) :   0.9742 B( 28-C , 31-H ) :   0.9684

Dispersion correction           -0.016076646
FINAL SINGLE POINT ENERGY     -1339.862506259631

DIPOLE MOMENT
-------------
                                X             Y             Z
Electronic contribution:     21.04346      -6.14649      12.97924
Nuclear contribution   :    -21.73331       6.34825     -13.22053
                        -----------------------------------------
Total Dipole Moment    :     -0.68985       0.20176      -0.24129
                        -----------------------------------------
Magnitude (a.u.)       :      0.75817
Magnitude (Debye)      :      1.92711

Rotational constants in cm-1:     0.018980     0.009621     0.008097
Rotational constants in MHz :   569.006407   288.436137   242.736354

                             ****ORCA TERMINATED NORMALLY****
TOTAL RUN TIME: 0 days 0 hours 0 minutes 21 seconds 739 msec
