                         Program Version 4.2.1 -  RELEASE  -
|  1> ! wB97X-D3 SP def2-SVP
|  2> %pal
|  3> nprocs 24
|  4> end
|  5>
|  6> * xyz 0 1
|  7> S 	 -42.5439 	 -1.12438 	 -24.5738
|  8> C 	 -43.6725 	 0.197228 	 -24.7821
|  9> C 	 -44.8723 	 -0.239724 	 -25.2364
| 10> C 	 -44.8583 	 -1.58748 	 -25.705
| 11> C 	 -43.6521 	 -2.23219 	 -25.4472
| 12> H 	 -45.659 	 -2.10424 	 -26.1931
| 13> C 	 -46.11 	 0.642858 	 -25.3768
| 14> H 	 -46.3484 	 1.29571 	 -24.4916
| 15> H 	 -46.9142 	 -0.0982507 	 -25.4097
| 16> C 	 -46.0622 	 1.58997 	 -26.5857
| 17> H 	 -46.8696 	 2.3397 	 -26.4154
| 18> H 	 -45.116 	 2.10892 	 -26.5847
| 19> C 	 -46.2534 	 0.810622 	 -27.913
| 20> H 	 -45.3469 	 0.175995 	 -28.1532
| 21> H 	 -47.1034 	 0.163097 	 -27.9816
| 22> H 	 -46.2764 	 1.5065 	 -28.7003
| 23> S 	 -42.0275 	 -4.11988 	 -26.8442
| 24> C 	 -42.3405 	 -5.8096 	 -26.5463
| 25> C 	 -43.2146 	 -6.03394 	 -25.5153
| 26> C 	 -43.8219 	 -4.80316 	 -25.1328
| 27> C 	 -43.2734 	 -3.64181 	 -25.6849
| 28> H 	 -43.4771 	 -7.03312 	 -25.1688
| 29> C 	 -44.8219 	 -4.77656 	 -24.0154
| 30> H 	 -44.7297 	 -3.7724 	 -23.6942
| 31> H 	 -44.3908 	 -5.37524 	 -23.2086
| 32> C 	 -46.245 	 -5.35434 	 -24.4115
| 33> H 	 -45.964 	 -6.32326 	 -24.8567
| 34> H 	 -46.7511 	 -4.76129 	 -25.1957
| 35> C 	 -47.1545 	 -5.39621 	 -23.2219
| 36> H 	 -47.0306 	 -4.4521 	 -22.6986
| 37> H 	 -46.8762 	 -6.23994 	 -22.5947
| 38> H 	 -48.1321 	 -5.59143 	 -23.6316
| 39> H 	 -43.5414 	 1.21131 	 -24.5197
| 40> H 	 -41.872 	 -6.6636 	 -27.018
| 41> *
| 42>
| 43>                          ****END OF INPUT****

CARTESIAN COORDINATES (ANGSTROEM)
---------------------------------
  S    -42.543900   -1.124380  -24.573800
  C    -43.672500    0.197228  -24.782100
  C    -44.872300   -0.239724  -25.236400
  C    -44.858300   -1.587480  -25.705000
  C    -43.652100   -2.232190  -25.447200
  H    -45.659000   -2.104240  -26.193100
  C    -46.110000    0.642858  -25.376800
  H    -46.348400    1.295710  -24.491600
  H    -46.914200   -0.098251  -25.409700
  C    -46.062200    1.589970  -26.585700
  H    -46.869600    2.339700  -26.415400
  H    -45.116000    2.108920  -26.584700
  C    -46.253400    0.810622  -27.913000
  H    -45.346900    0.175995  -28.153200
  H    -47.103400    0.163097  -27.981600
  H    -46.276400    1.506500  -28.700300
  S    -42.027500   -4.119880  -26.844200
  C    -42.340500   -5.809600  -26.546300
  C    -43.214600   -6.033940  -25.515300
  C    -43.821900   -4.803160  -25.132800
  C    -43.273400   -3.641810  -25.684900
  H    -43.477100   -7.033120  -25.168800
  C    -44.821900   -4.776560  -24.015400
  H    -44.729700   -3.772400  -23.694200
  H    -44.390800   -5.375240  -23.208600
  C    -46.245000   -5.354340  -24.411500
  H    -45.964000   -6.323260  -24.856700
  H    -46.751100   -4.761290  -25.195700
  C    -47.154500   -5.396210  -23.221900
  H    -47.030600   -4.452100  -22.698600
  H    -46.876200   -6.239940  -22.594700
  H    -48.132100   -5.591430  -23.631600
  H    -43.541400    1.211310  -24.519700
  H    -41.872000   -6.663600  -27.018000

 Total Charge           Charge          ....    0
 Multiplicity           Mult            ....    1
 Number of Electrons    NEL             ....  134
 Basis Dimension        Dim             ....  322

ORBITAL ENERGIES
----------------

  NO   OCC          E(Eh)            E(eV)
   0   2.0000     -88.966037     -2420.8889
   1   2.0000     -88.965496     -2420.8742
   2   2.0000     -10.335103      -281.2324
   3   2.0000     -10.326202      -280.9902
   4   2.0000     -10.317462      -280.7524
   5   2.0000     -10.308288      -280.5028
   6   2.0000     -10.299198      -280.2554
   7   2.0000     -10.296771      -280.1894
   8   2.0000     -10.296181      -280.1733
   9   2.0000     -10.293546      -280.1016
  10   2.0000     -10.291702      -280.0514
  11   2.0000     -10.290663      -280.0232
  12   2.0000     -10.288502      -279.9644
  13   2.0000     -10.280890      -279.7572
  14   2.0000     -10.274494      -279.5832
  15   2.0000     -10.273644      -279.5601
  16   2.0000      -8.080493      -219.8814
  17   2.0000      -8.079524      -219.8550
  18   2.0000      -6.039105      -164.3324
  19   2.0000      -6.038139      -164.3061
  20   2.0000      -6.035002      -164.2208
  21   2.0000      -6.034129      -164.1970
  22   2.0000      -6.031193      -164.1171
  23   2.0000      -6.030213      -164.0904
  24   2.0000      -1.002423       -27.2773
  25   2.0000      -0.984295       -26.7840
  26   2.0000      -0.908283       -24.7156
  27   2.0000      -0.907471       -24.6935
  28   2.0000      -0.867361       -23.6021
  29   2.0000      -0.854503       -23.2522
  30   2.0000      -0.843236       -22.9456
  31   2.0000      -0.817585       -22.2476
  32   2.0000      -0.781136       -21.2558
  33   2.0000      -0.766158       -20.8482
  34   2.0000      -0.706319       -19.2199
  35   2.0000      -0.700165       -19.0525
  36   2.0000      -0.695321       -18.9207
  37   2.0000      -0.657965       -17.9041
  38   2.0000      -0.641969       -17.4689
  39   2.0000      -0.613736       -16.7006
  40   2.0000      -0.589096       -16.0301
  41   2.0000      -0.575791       -15.6681
  42   2.0000      -0.564463       -15.3598
  43   2.0000      -0.543023       -14.7764
  44   2.0000      -0.537932       -14.6379
  45   2.0000      -0.532621       -14.4933
  46   2.0000      -0.519087       -14.1251
  47   2.0000      -0.514053       -13.9881
  48   2.0000      -0.508613       -13.8401
  49   2.0000      -0.499077       -13.5806
  50   2.0000      -0.484752       -13.1908
  51   2.0000      -0.478144       -13.0110
  52   2.0000      -0.471108       -12.8195
  53   2.0000      -0.463908       -12.6236
  54   2.0000      -0.461318       -12.5531
  55   2.0000      -0.447027       -12.1642
  56   2.0000      -0.441992       -12.0272
  57   2.0000      -0.434661       -11.8277
  58   2.0000      -0.434066       -11.8115
  59   2.0000      -0.423382       -11.5208
  60   2.0000      -0.418672       -11.3927
  61   2.0000      -0.414468       -11.2783
  62   2.0000      -0.412545       -11.2259
  63   2.0000      -0.339030        -9.2255
  64   2.0000      -0.329745        -8.9728
  65   2.0000      -0.325381        -8.8541
  66   2.0000      -0.301504        -8.2043
  67   0.0000       0.035688         0.9711
  68   0.0000       0.060433         1.6445
  69   0.0000       0.110533         3.0077
  70   0.0000       0.118996         3.2380
  71   0.0000       0.133090         3.6216

MULLIKEN ATOMIC CHARGES
-----------------------
   0 S :    0.108841
   1 C :   -0.088681
   2 C :   -0.099821
   3 C :    0.058831
   4 C :   -0.187194
   5 H :    0.008075
   6 C :    0.036542
   7 H :    0.036001
   8 H :    0.018552
   9 C :   -0.055397
  10 H :    0.035364
  11 H :    0.028280
  12 C :   -0.049058
  13 H :    0.046160
  14 H :    0.027633
  15 H :    0.019893
  16 S :    0.115621
  17 C :   -0.080503
  18 C :   -0.029224
  19 C :   -0.050214
  20 C :   -0.161558
  21 H :    0.026767
  22 C :    0.059575
  23 H :    0.015819
  24 H :    0.023699
  25 C :   -0.103861
  26 H :    0.023356
  27 H :    0.030090
  28 C :    0.005363
  29 H :    0.040907
  30 H :    0.028134
  31 H :    0.031811
  32 H :    0.027417
  33 H :    0.052779
Sum of atomic charges:   -0.0000000

LOEWDIN ATOMIC CHARGES
----------------------
   0 S :    0.386934
   1 C :   -0.184895
   2 C :   -0.068567
   3 C :   -0.053019
   4 C :   -0.179558
   5 H :    0.030628
   6 C :   -0.036559
   7 H :    0.034331
   8 H :    0.026660
   9 C :   -0.035087
  10 H :    0.026169
  11 H :    0.023728
  12 C :   -0.066044
  13 H :    0.036502
  14 H :    0.020061
  15 H :    0.018092
  16 S :    0.403270
  17 C :   -0.176959
  18 C :   -0.077148
  19 C :   -0.046838
  20 C :   -0.216689
  21 H :    0.034661
  22 C :   -0.034429
  23 H :    0.021377
  24 H :    0.031980
  25 C :   -0.037636
  26 H :    0.021793
  27 H :    0.023406
  28 C :   -0.060958
  29 H :    0.030630
  30 H :    0.025498
  31 H :    0.026143
  32 H :    0.021787
  33 H :    0.030736

  Mayer bond orders larger than 0.100000
B(  0-S ,  1-C ) :   1.1298 B(  0-S ,  4-C ) :   1.1433 B(  1-C ,  2-C ) :   1.6368
B(  1-C , 32-H ) :   0.9691 B(  2-C ,  3-C ) :   1.2229 B(  2-C ,  6-C ) :   1.0136
B(  3-C ,  4-C ) :   1.5892 B(  3-C ,  5-H ) :   0.9988 B(  4-C , 20-C ) :   1.0284
B(  6-C ,  7-H ) :   0.9458 B(  6-C ,  8-H ) :   0.9451 B(  6-C ,  9-C ) :   1.0683
B(  9-C , 10-H ) :   0.9581 B(  9-C , 11-H ) :   0.9554 B(  9-C , 12-C ) :   1.0753
B( 12-C , 13-H ) :   0.9719 B( 12-C , 14-H ) :   0.9786 B( 12-C , 15-H ) :   0.9732
B( 16-S , 17-C ) :   1.1692 B( 16-S , 20-C ) :   1.1171 B( 17-C , 18-C ) :   1.6104
B( 17-C , 33-H ) :   0.9615 B( 18-C , 19-C ) :   1.2414 B( 18-C , 21-H ) :   0.9855
B( 19-C , 20-C ) :   1.5974 B( 19-C , 22-C ) :   1.0468 B( 22-C , 23-H ) :   0.9270
B( 22-C , 24-H ) :   0.9421 B( 22-C , 25-C ) :   1.0403 B( 25-C , 26-H ) :   0.9583
B( 25-C , 27-H ) :   0.9578 B( 25-C , 28-C ) :   1.0832 B( 28-C , 29-H ) :   0.9712
B( 28-C , 30-H ) :   0.9729 B( 28-C , 31-H ) :   0.9747

Dispersion correction           -0.014614068
FINAL SINGLE POINT ENERGY     -1339.879238349188

DIPOLE MOMENT
-------------
                                X             Y             Z
Electronic contribution:     24.97889      -3.16609      -1.84148
Nuclear contribution   :    -25.59012       3.05932       1.92388
                        -----------------------------------------
Total Dipole Moment    :     -0.61123      -0.10678       0.08241
                        -----------------------------------------
Magnitude (a.u.)       :      0.62594
Magnitude (Debye)      :      1.59101

Rotational constants in cm-1:     0.017424     0.008693     0.007123
Rotational constants in MHz :   522.357779   260.600378   213.543288

                             ****ORCA TERMINATED NORMALLY****
TOTAL RUN TIME: 0 days 0 hours 0 minutes 21 seconds 664 msec
