                         Program Version 4.2.1 -  RELEASE  -
|  1> ! wB97X-D3 SP def2-SVP
|  2> %pal
|  3> nprocs 24
|  4> end
|  5>
|  6> * xyz 0 1
|  7> S 	 -126.28 	 67.6567 	 -43.0357
|  8> C 	 -126.701 	 69.2237 	 -43.5268
|  9> C 	 -125.832 	 70.1295 	 -43.0439
| 10> C 	 -124.717 	 69.576 	 -42.3267
| 11> C 	 -124.828 	 68.2126 	 -42.2146
| 12> H 	 -123.861 	 70.0282 	 -41.776
| 13> C 	 -126.106 	 71.6275 	 -43.1559
| 14> H 	 -126.667 	 71.9156 	 -44.0162
| 15> H 	 -125.171 	 72.1035 	 -43.2865
| 16> C 	 -126.785 	 72.238 	 -41.8982
| 17> H 	 -127.722 	 71.7081 	 -41.7612
| 18> H 	 -126.14 	 71.9696 	 -41.0875
| 19> C 	 -127.003 	 73.7153 	 -41.8492
| 20> H 	 -127.773 	 73.9902 	 -42.5113
| 21> H 	 -127.468 	 74.0609 	 -40.9156
| 22> H 	 -126.031 	 74.2928 	 -41.9646
| 23> S 	 -123.878 	 67.5762 	 -39.7188
| 24> C 	 -123.09 	 66.0541 	 -39.5368
| 25> C 	 -122.885 	 65.4573 	 -40.7654
| 26> C 	 -123.272 	 66.1664 	 -41.9065
| 27> C 	 -124.002 	 67.3036 	 -41.4894
| 28> H 	 -122.275 	 64.5808 	 -40.7418
| 29> C 	 -123.235 	 65.6331 	 -43.3726
| 30> H 	 -124.246 	 65.5934 	 -43.785
| 31> H 	 -122.981 	 64.5228 	 -43.1436
| 32> C 	 -122.153 	 66.3257 	 -44.329
| 33> H 	 -121.191 	 66.103 	 -43.8726
| 34> H 	 -122.167 	 67.4324 	 -44.1662
| 35> C 	 -122.24 	 65.9346 	 -45.878
| 36> H 	 -123.112 	 66.2198 	 -46.4798
| 37> H 	 -122.108 	 64.9043 	 -45.9976
| 38> H 	 -121.473 	 66.5334 	 -46.3163
| 39> H 	 -127.537 	 69.504 	 -44.1537
| 40> H 	 -122.792 	 65.5962 	 -38.576
| 41> *
| 42>
| 43>                          ****END OF INPUT****

CARTESIAN COORDINATES (ANGSTROEM)
---------------------------------
  S    -126.280000   67.656700  -43.035700
  C    -126.701000   69.223700  -43.526800
  C    -125.832000   70.129500  -43.043900
  C    -124.717000   69.576000  -42.326700
  C    -124.828000   68.212600  -42.214600
  H    -123.861000   70.028200  -41.776000
  C    -126.106000   71.627500  -43.155900
  H    -126.667000   71.915600  -44.016200
  H    -125.171000   72.103500  -43.286500
  C    -126.785000   72.238000  -41.898200
  H    -127.722000   71.708100  -41.761200
  H    -126.140000   71.969600  -41.087500
  C    -127.003000   73.715300  -41.849200
  H    -127.773000   73.990200  -42.511300
  H    -127.468000   74.060900  -40.915600
  H    -126.031000   74.292800  -41.964600
  S    -123.878000   67.576200  -39.718800
  C    -123.090000   66.054100  -39.536800
  C    -122.885000   65.457300  -40.765400
  C    -123.272000   66.166400  -41.906500
  C    -124.002000   67.303600  -41.489400
  H    -122.275000   64.580800  -40.741800
  C    -123.235000   65.633100  -43.372600
  H    -124.246000   65.593400  -43.785000
  H    -122.981000   64.522800  -43.143600
  C    -122.153000   66.325700  -44.329000
  H    -121.191000   66.103000  -43.872600
  H    -122.167000   67.432400  -44.166200
  C    -122.240000   65.934600  -45.878000
  H    -123.112000   66.219800  -46.479800
  H    -122.108000   64.904300  -45.997600
  H    -121.473000   66.533400  -46.316300
  H    -127.537000   69.504000  -44.153700
  H    -122.792000   65.596200  -38.576000

 Total Charge           Charge          ....    0
 Multiplicity           Mult            ....    1
 Number of Electrons    NEL             ....  134
 Basis Dimension        Dim             ....  322

ORBITAL ENERGIES
----------------

  NO   OCC          E(Eh)            E(eV)
   0   2.0000     -88.967865     -2420.9387
   1   2.0000     -88.961426     -2420.7635
   2   2.0000     -10.326425      -280.9963
   3   2.0000     -10.323179      -280.9080
   4   2.0000     -10.317452      -280.7521
   5   2.0000     -10.307512      -280.4817
   6   2.0000     -10.305215      -280.4191
   7   2.0000     -10.304915      -280.4110
   8   2.0000     -10.298108      -280.2258
   9   2.0000     -10.296564      -280.1838
  10   2.0000     -10.296079      -280.1706
  11   2.0000     -10.288882      -279.9747
  12   2.0000     -10.282234      -279.7938
  13   2.0000     -10.277473      -279.6643
  14   2.0000     -10.277427      -279.6630
  15   2.0000     -10.276458      -279.6366
  16   2.0000      -8.082289      -219.9303
  17   2.0000      -8.077126      -219.7898
  18   2.0000      -6.040604      -164.3732
  19   2.0000      -6.036837      -164.2707
  20   2.0000      -6.035546      -164.2355
  21   2.0000      -6.033266      -164.1735
  22   2.0000      -6.031440      -164.1238
  23   2.0000      -6.027974      -164.0295
  24   2.0000      -1.010444       -27.4956
  25   2.0000      -0.987121       -26.8609
  26   2.0000      -0.909814       -24.7573
  27   2.0000      -0.890855       -24.2414
  28   2.0000      -0.874640       -23.8002
  29   2.0000      -0.850774       -23.1507
  30   2.0000      -0.846503       -23.0345
  31   2.0000      -0.813481       -22.1359
  32   2.0000      -0.784145       -21.3377
  33   2.0000      -0.770416       -20.9641
  34   2.0000      -0.711137       -19.3510
  35   2.0000      -0.697863       -18.9898
  36   2.0000      -0.692176       -18.8351
  37   2.0000      -0.661471       -17.9995
  38   2.0000      -0.641921       -17.4676
  39   2.0000      -0.613552       -16.6956
  40   2.0000      -0.590273       -16.0621
  41   2.0000      -0.571752       -15.5581
  42   2.0000      -0.562103       -15.2956
  43   2.0000      -0.546630       -14.8746
  44   2.0000      -0.524685       -14.2774
  45   2.0000      -0.517692       -14.0871
  46   2.0000      -0.512911       -13.9570
  47   2.0000      -0.510133       -13.8814
  48   2.0000      -0.506449       -13.7812
  49   2.0000      -0.500746       -13.6260
  50   2.0000      -0.493170       -13.4198
  51   2.0000      -0.484419       -13.1817
  52   2.0000      -0.471895       -12.8409
  53   2.0000      -0.464317       -12.6347
  54   2.0000      -0.463419       -12.6103
  55   2.0000      -0.447547       -12.1784
  56   2.0000      -0.445807       -12.1310
  57   2.0000      -0.434608       -11.8263
  58   2.0000      -0.428168       -11.6511
  59   2.0000      -0.427199       -11.6247
  60   2.0000      -0.417491       -11.3605
  61   2.0000      -0.413304       -11.2466
  62   2.0000      -0.406143       -11.0517
  63   2.0000      -0.340479        -9.2649
  64   2.0000      -0.336762        -9.1637
  65   2.0000      -0.327015        -8.8985
  66   2.0000      -0.294910        -8.0249
  67   0.0000       0.030661         0.8343
  68   0.0000       0.065998         1.7959
  69   0.0000       0.109810         2.9881
  70   0.0000       0.126689         3.4474
  71   0.0000       0.133094         3.6217

MULLIKEN ATOMIC CHARGES
-----------------------
   0 S :    0.115802
   1 C :   -0.106622
   2 C :   -0.090923
   3 C :    0.019722
   4 C :   -0.162425
   5 H :    0.029310
   6 C :    0.100646
   7 H :    0.004520
   8 H :   -0.000451
   9 C :   -0.065330
  10 H :    0.019232
  11 H :    0.016004
  12 C :   -0.026024
  13 H :    0.016364
  14 H :    0.027592
  15 H :    0.041795
  16 S :    0.120168
  17 C :   -0.100584
  18 C :   -0.046147
  19 C :    0.002193
  20 C :   -0.198435
  21 H :    0.009288
  22 C :    0.029360
  23 H :    0.039147
  24 H :    0.032595
  25 C :   -0.085096
  26 H :    0.025647
  27 H :    0.042936
  28 C :   -0.019891
  29 H :    0.039129
  30 H :    0.029672
  31 H :    0.029118
  32 H :    0.044915
  33 H :    0.066772
Sum of atomic charges:   -0.0000000

LOEWDIN ATOMIC CHARGES
----------------------
   0 S :    0.423674
   1 C :   -0.209290
   2 C :   -0.066047
   3 C :   -0.068845
   4 C :   -0.195214
   5 H :    0.041345
   6 C :   -0.024818
   7 H :    0.020773
   8 H :    0.020518
   9 C :   -0.040148
  10 H :    0.022684
  11 H :    0.019486
  12 C :   -0.068952
  13 H :    0.017802
  14 H :    0.031076
  15 H :    0.033540
  16 S :    0.407834
  17 C :   -0.198613
  18 C :   -0.078690
  19 C :   -0.053917
  20 C :   -0.189463
  21 H :    0.026255
  22 C :   -0.036785
  23 H :    0.024641
  24 H :    0.037811
  25 C :   -0.038531
  26 H :    0.024647
  27 H :    0.030338
  28 C :   -0.060331
  29 H :    0.031226
  30 H :    0.018208
  31 H :    0.027539
  32 H :    0.032948
  33 H :    0.037299

  Mayer bond orders larger than 0.100000
B(  0-S ,  1-C ) :   1.1371 B(  0-S ,  4-C ) :   1.1504 B(  1-C ,  2-C ) :   1.6339
B(  1-C , 32-H ) :   0.9683 B(  2-C ,  3-C ) :   1.2097 B(  2-C ,  6-C ) :   1.0358
B(  3-C ,  4-C ) :   1.5896 B(  3-C ,  5-H ) :   0.9931 B(  4-C , 20-C ) :   1.0594
B(  6-C ,  7-H ) :   0.9423 B(  6-C ,  8-H ) :   0.9297 B(  6-C ,  9-C ) :   1.0599
B(  9-C , 10-H ) :   0.9525 B(  9-C , 11-H ) :   0.9553 B(  9-C , 12-C ) :   1.0994
B( 12-C , 13-H ) :   0.9706 B( 12-C , 14-H ) :   0.9676 B( 12-C , 15-H ) :   0.9710
B( 16-S , 17-C ) :   1.1577 B( 16-S , 20-C ) :   1.1546 B( 17-C , 18-C ) :   1.6028
B( 17-C , 20-C ) :   0.1108 B( 17-C , 33-H ) :   0.9623 B( 18-C , 19-C ) :   1.2708
B( 18-C , 21-H ) :   0.9819 B( 19-C , 20-C ) :   1.5310 B( 19-C , 22-C ) :   1.0197
B( 22-C , 23-H ) :   0.9456 B( 22-C , 24-H ) :   0.9438 B( 22-C , 25-C ) :   1.0302
B( 25-C , 26-H ) :   0.9555 B( 25-C , 27-H ) :   0.9663 B( 25-C , 28-C ) :   1.0636
B( 28-C , 29-H ) :   0.9782 B( 28-C , 30-H ) :   0.9787 B( 28-C , 31-H ) :   0.9747

Dispersion correction           -0.013956433
FINAL SINGLE POINT ENERGY     -1339.867754558106

DIPOLE MOMENT
-------------
                                X             Y             Z
Electronic contribution:     -2.49944     -11.88441      12.82803
Nuclear contribution   :      2.65472      12.00552     -12.98057
                        -----------------------------------------
Total Dipole Moment    :      0.15528       0.12111      -0.15254
                        -----------------------------------------
Magnitude (a.u.)       :      0.24909
Magnitude (Debye)      :      0.63314

Rotational constants in cm-1:     0.019122     0.008037     0.006440
Rotational constants in MHz :   573.272320   240.942147   193.068844

                             ****ORCA TERMINATED NORMALLY****
TOTAL RUN TIME: 0 days 0 hours 0 minutes 21 seconds 912 msec
