                         Program Version 4.2.1 -  RELEASE  -
|  1> ! wB97X-D3 SP def2-SVP
|  2> %pal
|  3> nprocs 24
|  4> end
|  5>
|  6> * xyz 0 1
|  7> S 	 -101.76 	 -1.84577 	 -101.484
|  8> C 	 -101.731 	 -3.18388 	 -102.569
|  9> C 	 -103.027 	 -3.56926 	 -102.897
| 10> C 	 -103.979 	 -2.91689 	 -102.067
| 11> C 	 -103.487 	 -1.95917 	 -101.236
| 12> H 	 -105.076 	 -3.0632 	 -102.121
| 13> C 	 -103.393 	 -4.61931 	 -103.916
| 14> H 	 -104.088 	 -5.278 	 -103.377
| 15> H 	 -102.452 	 -5.10109 	 -104.21
| 16> C 	 -104.082 	 -3.96857 	 -105.121
| 17> H 	 -105.025 	 -3.47803 	 -104.805
| 18> H 	 -103.353 	 -3.31187 	 -105.61
| 19> C 	 -104.709 	 -5.06799 	 -106.034
| 20> H 	 -105.076 	 -4.71238 	 -107.035
| 21> H 	 -103.974 	 -5.85015 	 -106.298
| 22> H 	 -105.434 	 -5.71973 	 -105.559
| 23> S 	 -103.622 	 -1.38156 	 -98.5942
| 24> C 	 -104.839 	 -0.329151 	 -97.9862
| 25> C 	 -105.66 	 0.216808 	 -99.0068
| 26> C 	 -105.305 	 -0.295788 	 -100.288
| 27> C 	 -104.182 	 -1.14577 	 -100.242
| 28> H 	 -106.488 	 0.754326 	 -98.7173
| 29> C 	 -106.13 	 0.134714 	 -101.485
| 30> H 	 -105.47 	 0.246659 	 -102.381
| 31> H 	 -106.436 	 1.21036 	 -101.351
| 32> C 	 -107.263 	 -0.80612 	 -101.792
| 33> H 	 -107.961 	 -0.796672 	 -100.929
| 34> H 	 -106.798 	 -1.84664 	 -101.829
| 35> C 	 -108.04 	 -0.380602 	 -103.037
| 36> H 	 -109.014 	 -0.893366 	 -103.128
| 37> H 	 -107.468 	 -0.603205 	 -103.928
| 38> H 	 -108.288 	 0.697437 	 -103.065
| 39> H 	 -100.873 	 -3.39101 	 -103.223
| 40> H 	 -104.92 	 -0.0223967 	 -96.9576
| 41> *
| 42>
| 43>                          ****END OF INPUT****

CARTESIAN COORDINATES (ANGSTROEM)
---------------------------------
  S    -101.760000   -1.845770  -101.484000
  C    -101.731000   -3.183880  -102.569000
  C    -103.027000   -3.569260  -102.897000
  C    -103.979000   -2.916890  -102.067000
  C    -103.487000   -1.959170  -101.236000
  H    -105.076000   -3.063200  -102.121000
  C    -103.393000   -4.619310  -103.916000
  H    -104.088000   -5.278000  -103.377000
  H    -102.452000   -5.101090  -104.210000
  C    -104.082000   -3.968570  -105.121000
  H    -105.025000   -3.478030  -104.805000
  H    -103.353000   -3.311870  -105.610000
  C    -104.709000   -5.067990  -106.034000
  H    -105.076000   -4.712380  -107.035000
  H    -103.974000   -5.850150  -106.298000
  H    -105.434000   -5.719730  -105.559000
  S    -103.622000   -1.381560  -98.594200
  C    -104.839000   -0.329151  -97.986200
  C    -105.660000    0.216808  -99.006800
  C    -105.305000   -0.295788  -100.288000
  C    -104.182000   -1.145770  -100.242000
  H    -106.488000    0.754326  -98.717300
  C    -106.130000    0.134714  -101.485000
  H    -105.470000    0.246659  -102.381000
  H    -106.436000    1.210360  -101.351000
  C    -107.263000   -0.806120  -101.792000
  H    -107.961000   -0.796672  -100.929000
  H    -106.798000   -1.846640  -101.829000
  C    -108.040000   -0.380602  -103.037000
  H    -109.014000   -0.893366  -103.128000
  H    -107.468000   -0.603205  -103.928000
  H    -108.288000    0.697437  -103.065000
  H    -100.873000   -3.391010  -103.223000
  H    -104.920000   -0.022397  -96.957600

 Total Charge           Charge          ....    0
 Multiplicity           Mult            ....    1
 Number of Electrons    NEL             ....  134
 Basis Dimension        Dim             ....  322

ORBITAL ENERGIES
----------------

  NO   OCC          E(Eh)            E(eV)
   0   2.0000     -88.968467     -2420.9551
   1   2.0000     -88.962126     -2420.7825
   2   2.0000     -10.328675      -281.0575
   3   2.0000     -10.326818      -281.0070
   4   2.0000     -10.317015      -280.7403
   5   2.0000     -10.312013      -280.6041
   6   2.0000     -10.307602      -280.4841
   7   2.0000     -10.299008      -280.2503
   8   2.0000     -10.295196      -280.1465
   9   2.0000     -10.295015      -280.1416
  10   2.0000     -10.294530      -280.1284
  11   2.0000     -10.293888      -280.1109
  12   2.0000     -10.292244      -280.0662
  13   2.0000     -10.290659      -280.0231
  14   2.0000     -10.283518      -279.8288
  15   2.0000     -10.281846      -279.7833
  16   2.0000      -8.083382      -219.9600
  17   2.0000      -8.077547      -219.8012
  18   2.0000      -6.041739      -164.4041
  19   2.0000      -6.037712      -164.2945
  20   2.0000      -6.035978      -164.2473
  21   2.0000      -6.034445      -164.2056
  22   2.0000      -6.031891      -164.1361
  23   2.0000      -6.028404      -164.0412
  24   2.0000      -1.008645       -27.4466
  25   2.0000      -0.985808       -26.8252
  26   2.0000      -0.914675       -24.8896
  27   2.0000      -0.912327       -24.8257
  28   2.0000      -0.868050       -23.6208
  29   2.0000      -0.852783       -23.2054
  30   2.0000      -0.845486       -23.0068
  31   2.0000      -0.813720       -22.1424
  32   2.0000      -0.781469       -21.2648
  33   2.0000      -0.768330       -20.9073
  34   2.0000      -0.706235       -19.2176
  35   2.0000      -0.698544       -19.0083
  36   2.0000      -0.689650       -18.7663
  37   2.0000      -0.666740       -18.1429
  38   2.0000      -0.641394       -17.4532
  39   2.0000      -0.622658       -16.9434
  40   2.0000      -0.595955       -16.2168
  41   2.0000      -0.573849       -15.6152
  42   2.0000      -0.566992       -15.4286
  43   2.0000      -0.557838       -15.1796
  44   2.0000      -0.525585       -14.3019
  45   2.0000      -0.521640       -14.1946
  46   2.0000      -0.519155       -14.1269
  47   2.0000      -0.511386       -13.9155
  48   2.0000      -0.503499       -13.7009
  49   2.0000      -0.499217       -13.5844
  50   2.0000      -0.497217       -13.5300
  51   2.0000      -0.477175       -12.9846
  52   2.0000      -0.470766       -12.8102
  53   2.0000      -0.461786       -12.5658
  54   2.0000      -0.459993       -12.5170
  55   2.0000      -0.450492       -12.2585
  56   2.0000      -0.444046       -12.0831
  57   2.0000      -0.439592       -11.9619
  58   2.0000      -0.437904       -11.9160
  59   2.0000      -0.426318       -11.6007
  60   2.0000      -0.421428       -11.4676
  61   2.0000      -0.412023       -11.2117
  62   2.0000      -0.410500       -11.1703
  63   2.0000      -0.344151        -9.3648
  64   2.0000      -0.334039        -9.0897
  65   2.0000      -0.325393        -8.8544
  66   2.0000      -0.295223        -8.0334
  67   0.0000       0.033914         0.9229
  68   0.0000       0.064995         1.7686
  69   0.0000       0.118905         3.2356
  70   0.0000       0.121181         3.2975
  71   0.0000       0.123361         3.3568

MULLIKEN ATOMIC CHARGES
-----------------------
   0 S :    0.109161
   1 C :   -0.121824
   2 C :   -0.120689
   3 C :    0.030010
   4 C :   -0.153240
   5 H :    0.010864
   6 C :    0.070589
   7 H :    0.035873
   8 H :    0.025243
   9 C :   -0.074500
  10 H :    0.041584
  11 H :    0.042642
  12 C :   -0.065713
  13 H :    0.045915
  14 H :    0.013093
  15 H :    0.027965
  16 S :    0.128841
  17 C :   -0.098025
  18 C :   -0.017538
  19 C :   -0.008845
  20 C :   -0.170907
  21 H :   -0.004653
  22 C :    0.022345
  23 H :    0.030799
  24 H :    0.029277
  25 C :   -0.076109
  26 H :    0.027666
  27 H :    0.035876
  28 C :   -0.034828
  29 H :    0.037674
  30 H :    0.031781
  31 H :    0.032623
  32 H :    0.060985
  33 H :    0.056066
Sum of atomic charges:   -0.0000000

LOEWDIN ATOMIC CHARGES
----------------------
   0 S :    0.413806
   1 C :   -0.217020
   2 C :   -0.064643
   3 C :   -0.069488
   4 C :   -0.200097
   5 H :    0.030977
   6 C :   -0.028550
   7 H :    0.035010
   8 H :    0.031726
   9 C :   -0.037746
  10 H :    0.030391
  11 H :    0.029453
  12 C :   -0.080202
  13 H :    0.030626
  14 H :    0.021208
  15 H :    0.024209
  16 S :    0.433207
  17 C :   -0.191842
  18 C :   -0.063063
  19 C :   -0.048263
  20 C :   -0.205727
  21 H :    0.018834
  22 C :   -0.042317
  23 H :    0.032859
  24 H :    0.034086
  25 C :   -0.045662
  26 H :    0.025222
  27 H :    0.030123
  28 C :   -0.068733
  29 H :    0.029257
  30 H :    0.024232
  31 H :    0.029342
  32 H :    0.032904
  33 H :    0.025881

  Mayer bond orders larger than 0.100000
B(  0-S ,  1-C ) :   1.1480 B(  0-S ,  4-C ) :   1.1631 B(  1-C ,  2-C ) :   1.6002
B(  1-C , 32-H ) :   0.9583 B(  2-C ,  3-C ) :   1.2495 B(  2-C ,  6-C ) :   1.0259
B(  3-C ,  4-C ) :   1.5892 B(  3-C ,  5-H ) :   0.9835 B(  4-C , 20-C ) :   1.0123
B(  6-C ,  7-H ) :   0.9409 B(  6-C ,  8-H ) :   0.9381 B(  6-C ,  9-C ) :   1.0659
B(  9-C , 10-H ) :   0.9593 B(  9-C , 11-H ) :   0.9565 B(  9-C , 12-C ) :   1.0652
B( 12-C , 13-H ) :   0.9760 B( 12-C , 14-H ) :   0.9702 B( 12-C , 15-H ) :   0.9753
B( 16-S , 17-C ) :   1.1858 B( 16-S , 20-C ) :   1.1607 B( 17-C , 18-C ) :   1.5746
B( 17-C , 20-C ) :   0.1096 B( 17-C , 33-H ) :   0.9670 B( 18-C , 19-C ) :   1.2624
B( 18-C , 21-H ) :   1.0011 B( 19-C , 20-C ) :   1.5684 B( 19-C , 22-C ) :   1.0431
B( 22-C , 23-H ) :   0.9364 B( 22-C , 24-H ) :   0.9358 B( 22-C , 25-C ) :   1.0585
B( 25-C , 26-H ) :   0.9521 B( 25-C , 27-H ) :   0.9497 B( 25-C , 28-C ) :   1.0788
B( 28-C , 29-H ) :   0.9744 B( 28-C , 30-H ) :   0.9742 B( 28-C , 31-H ) :   0.9710

Dispersion correction           -0.014169575
FINAL SINGLE POINT ENERGY     -1339.886591118751

DIPOLE MOMENT
-------------
                                X             Y             Z
Electronic contribution:     20.01791       6.24059      24.52801
Nuclear contribution   :    -20.58432      -6.26568     -24.94794
                        -----------------------------------------
Total Dipole Moment    :     -0.56641      -0.02510      -0.41993
                        -----------------------------------------
Magnitude (a.u.)       :      0.70554
Magnitude (Debye)      :      1.79335

Rotational constants in cm-1:     0.017276     0.009375     0.006553
Rotational constants in MHz :   517.913679   281.047765   196.449133

                             ****ORCA TERMINATED NORMALLY****
TOTAL RUN TIME: 0 days 0 hours 0 minutes 21 seconds 521 msec
