                         Program Version 4.2.1 -  RELEASE  -
|  1> ! wB97X-D3 SP def2-SVP
|  2> %pal
|  3> nprocs 24
|  4> end
|  5>
|  6> * xyz 0 1
|  7> S 	 -33.8521 	 -48.3076 	 -76.2693
|  8> C 	 -32.8341 	 -47.742 	 -77.655
|  9> C 	 -31.6966 	 -47.0544 	 -77.2081
| 10> C 	 -31.6583 	 -47.1005 	 -75.765
| 11> C 	 -32.6955 	 -47.7302 	 -75.1137
| 12> H 	 -30.8405 	 -46.712 	 -75.1955
| 13> C 	 -30.5865 	 -46.479 	 -78.1058
| 14> H 	 -30.7769 	 -46.7542 	 -79.0807
| 15> H 	 -29.7124 	 -46.9829 	 -77.8535
| 16> C 	 -30.471 	 -44.979 	 -77.9825
| 17> H 	 -30.1978 	 -44.6339 	 -76.9881
| 18> H 	 -29.6497 	 -44.6689 	 -78.6623
| 19> C 	 -31.755 	 -44.1526 	 -78.3266
| 20> H 	 -32.5523 	 -44.333 	 -77.6744
| 21> H 	 -31.6084 	 -43.1076 	 -78.5502
| 22> H 	 -32.1382 	 -44.5143 	 -79.2592
| 23> S 	 -33.022 	 -49.6251 	 -73.0854
| 24> C 	 -33.1989 	 -49.0133 	 -71.4594
| 25> C 	 -33.0629 	 -47.6967 	 -71.3376
| 26> C 	 -32.6538 	 -47.0815 	 -72.5938
| 27> C 	 -32.7192 	 -48.0013 	 -73.6575
| 28> H 	 -33.2568 	 -47.3277 	 -70.3739
| 29> C 	 -32.5876 	 -45.5924 	 -72.6702
| 30> H 	 -31.6473 	 -45.4104 	 -73.215
| 31> H 	 -32.5129 	 -45.3103 	 -71.5904
| 32> C 	 -33.7604 	 -44.9627 	 -73.2556
| 33> H 	 -34.7464 	 -45.4416 	 -72.9218
| 34> H 	 -33.7321 	 -45.0712 	 -74.3582
| 35> C 	 -33.8116 	 -43.4705 	 -72.903
| 36> H 	 -32.9191 	 -42.9708 	 -73.2326
| 37> H 	 -33.9454 	 -43.3324 	 -71.8277
| 38> H 	 -34.6242 	 -42.8601 	 -73.3643
| 39> H 	 -33.1839 	 -47.8261 	 -78.6366
| 40> H 	 -33.7552 	 -49.4306 	 -70.6677
| 41> *
| 42>
| 43>                          ****END OF INPUT****

CARTESIAN COORDINATES (ANGSTROEM)
---------------------------------
  S    -33.852100  -48.307600  -76.269300
  C    -32.834100  -47.742000  -77.655000
  C    -31.696600  -47.054400  -77.208100
  C    -31.658300  -47.100500  -75.765000
  C    -32.695500  -47.730200  -75.113700
  H    -30.840500  -46.712000  -75.195500
  C    -30.586500  -46.479000  -78.105800
  H    -30.776900  -46.754200  -79.080700
  H    -29.712400  -46.982900  -77.853500
  C    -30.471000  -44.979000  -77.982500
  H    -30.197800  -44.633900  -76.988100
  H    -29.649700  -44.668900  -78.662300
  C    -31.755000  -44.152600  -78.326600
  H    -32.552300  -44.333000  -77.674400
  H    -31.608400  -43.107600  -78.550200
  H    -32.138200  -44.514300  -79.259200
  S    -33.022000  -49.625100  -73.085400
  C    -33.198900  -49.013300  -71.459400
  C    -33.062900  -47.696700  -71.337600
  C    -32.653800  -47.081500  -72.593800
  C    -32.719200  -48.001300  -73.657500
  H    -33.256800  -47.327700  -70.373900
  C    -32.587600  -45.592400  -72.670200
  H    -31.647300  -45.410400  -73.215000
  H    -32.512900  -45.310300  -71.590400
  C    -33.760400  -44.962700  -73.255600
  H    -34.746400  -45.441600  -72.921800
  H    -33.732100  -45.071200  -74.358200
  C    -33.811600  -43.470500  -72.903000
  H    -32.919100  -42.970800  -73.232600
  H    -33.945400  -43.332400  -71.827700
  H    -34.624200  -42.860100  -73.364300
  H    -33.183900  -47.826100  -78.636600
  H    -33.755200  -49.430600  -70.667700

 Total Charge           Charge          ....    0
 Multiplicity           Mult            ....    1
 Number of Electrons    NEL             ....  134
 Basis Dimension        Dim             ....  322

ORBITAL ENERGIES
----------------

  NO   OCC          E(Eh)            E(eV)
   0   2.0000     -88.967259     -2420.9222
   1   2.0000     -88.965304     -2420.8690
   2   2.0000     -10.331192      -281.1260
   3   2.0000     -10.329648      -281.0840
   4   2.0000     -10.318707      -280.7863
   5   2.0000     -10.308995      -280.5220
   6   2.0000     -10.303933      -280.3843
   7   2.0000     -10.302638      -280.3490
   8   2.0000     -10.292569      -280.0751
   9   2.0000     -10.291590      -280.0484
  10   2.0000     -10.288513      -279.9647
  11   2.0000     -10.287552      -279.9385
  12   2.0000     -10.285811      -279.8911
  13   2.0000     -10.285329      -279.8780
  14   2.0000     -10.275736      -279.6170
  15   2.0000     -10.270302      -279.4691
  16   2.0000      -8.081305      -219.9035
  17   2.0000      -8.080125      -219.8714
  18   2.0000      -6.039935      -164.3550
  19   2.0000      -6.038739      -164.3225
  20   2.0000      -6.035877      -164.2445
  21   2.0000      -6.034707      -164.2127
  22   2.0000      -6.032007      -164.1392
  23   2.0000      -6.030686      -164.1033
  24   2.0000      -1.004562       -27.3355
  25   2.0000      -0.982017       -26.7220
  26   2.0000      -0.919397       -25.0181
  27   2.0000      -0.916215       -24.9315
  28   2.0000      -0.869846       -23.6697
  29   2.0000      -0.848337       -23.0844
  30   2.0000      -0.842434       -22.9238
  31   2.0000      -0.819562       -22.3014
  32   2.0000      -0.793221       -21.5846
  33   2.0000      -0.770988       -20.9796
  34   2.0000      -0.712899       -19.3990
  35   2.0000      -0.702769       -19.1233
  36   2.0000      -0.687364       -18.7041
  37   2.0000      -0.658727       -17.9249
  38   2.0000      -0.644538       -17.5388
  39   2.0000      -0.625076       -17.0092
  40   2.0000      -0.591538       -16.0966
  41   2.0000      -0.576361       -15.6836
  42   2.0000      -0.569767       -15.5041
  43   2.0000      -0.556853       -15.1527
  44   2.0000      -0.543944       -14.8015
  45   2.0000      -0.522775       -14.2254
  46   2.0000      -0.519428       -14.1343
  47   2.0000      -0.510446       -13.8899
  48   2.0000      -0.503317       -13.6959
  49   2.0000      -0.499963       -13.6047
  50   2.0000      -0.489696       -13.3253
  51   2.0000      -0.480127       -13.0649
  52   2.0000      -0.468267       -12.7422
  53   2.0000      -0.464347       -12.6355
  54   2.0000      -0.462534       -12.5862
  55   2.0000      -0.449629       -12.2350
  56   2.0000      -0.446238       -12.1428
  57   2.0000      -0.442899       -12.0519
  58   2.0000      -0.435253       -11.8438
  59   2.0000      -0.422410       -11.4943
  60   2.0000      -0.416887       -11.3441
  61   2.0000      -0.415439       -11.3047
  62   2.0000      -0.409760       -11.1501
  63   2.0000      -0.346252        -9.4220
  64   2.0000      -0.333580        -9.0772
  65   2.0000      -0.329981        -8.9792
  66   2.0000      -0.293795        -7.9946
  67   0.0000       0.027401         0.7456
  68   0.0000       0.072400         1.9701
  69   0.0000       0.114901         3.1266
  70   0.0000       0.122457         3.3322
  71   0.0000       0.128503         3.4968

MULLIKEN ATOMIC CHARGES
-----------------------
   0 S :    0.100825
   1 C :   -0.125750
   2 C :   -0.105257
   3 C :    0.019521
   4 C :   -0.139371
   5 H :    0.002056
   6 C :    0.178062
   7 H :   -0.007757
   8 H :    0.022310
   9 C :   -0.097203
  10 H :    0.030005
  11 H :    0.033191
  12 C :   -0.026199
  13 H :    0.034325
  14 H :    0.035160
  15 H :   -0.000450
  16 S :    0.109843
  17 C :   -0.050675
  18 C :   -0.054274
  19 C :   -0.049378
  20 C :   -0.162267
  21 H :    0.005801
  22 C :    0.082770
  23 H :    0.029983
  24 H :    0.020452
  25 C :   -0.077945
  26 H :    0.040097
  27 H :    0.045105
  28 C :   -0.049257
  29 H :    0.021803
  30 H :    0.028501
  31 H :    0.033751
  32 H :    0.033678
  33 H :    0.038541
Sum of atomic charges:   -0.0000000

LOEWDIN ATOMIC CHARGES
----------------------
   0 S :    0.387031
   1 C :   -0.171348
   2 C :   -0.050488
   3 C :   -0.065565
   4 C :   -0.199945
   5 H :    0.023646
   6 C :   -0.013595
   7 H :    0.021259
   8 H :    0.030023
   9 C :   -0.036677
  10 H :    0.020735
  11 H :    0.028466
  12 C :   -0.062166
  13 H :    0.019875
  14 H :    0.028352
  15 H :    0.019445
  16 S :    0.402144
  17 C :   -0.185845
  18 C :   -0.064369
  19 C :   -0.049086
  20 C :   -0.198664
  21 H :    0.028126
  22 C :   -0.040467
  23 H :    0.035171
  24 H :    0.035021
  25 C :   -0.047854
  26 H :    0.033167
  27 H :    0.030453
  28 C :   -0.068558
  29 H :    0.020616
  30 H :    0.022479
  31 H :    0.029122
  32 H :    0.013840
  33 H :    0.025656

  Mayer bond orders larger than 0.100000
B(  0-S ,  1-C ) :   1.1311 B(  0-S ,  4-C ) :   1.1431 B(  1-C ,  2-C ) :   1.6002
B(  1-C , 32-H ) :   0.9764 B(  2-C ,  3-C ) :   1.2321 B(  2-C ,  6-C ) :   1.0157
B(  3-C ,  4-C ) :   1.5856 B(  3-C ,  5-H ) :   0.9924 B(  4-C , 20-C ) :   1.0414
B(  6-C ,  7-H ) :   0.9312 B(  6-C ,  8-H ) :   0.9347 B(  6-C ,  9-C ) :   1.0747
B(  9-C , 10-H ) :   0.9613 B(  9-C , 11-H ) :   0.9566 B(  9-C , 12-C ) :   1.0664
B( 12-C , 13-H ) :   0.9738 B( 12-C , 14-H ) :   0.9752 B( 12-C , 15-H ) :   0.9713
B( 16-S , 17-C ) :   1.1298 B( 16-S , 20-C ) :   1.1368 B( 17-C , 18-C ) :   1.7026
B( 17-C , 33-H ) :   0.9511 B( 18-C , 19-C ) :   1.2005 B( 18-C , 21-H ) :   0.9916
B( 19-C , 20-C ) :   1.5974 B( 19-C , 22-C ) :   1.0480 B( 22-C , 23-H ) :   0.9098
B( 22-C , 24-H ) :   0.9362 B( 22-C , 25-C ) :   1.0774 B( 25-C , 26-H ) :   0.9564
B( 25-C , 27-H ) :   0.9426 B( 25-C , 28-C ) :   1.0818 B( 28-C , 29-H ) :   0.9716
B( 28-C , 30-H ) :   0.9765 B( 28-C , 31-H ) :   0.9743

Dispersion correction           -0.015080800
FINAL SINGLE POINT ENERGY     -1339.862336587866

DIPOLE MOMENT
-------------
                                X             Y             Z
Electronic contribution:     -5.49844     -27.89529       5.88961
Nuclear contribution   :      5.66025      28.49625      -6.00097
                        -----------------------------------------
Total Dipole Moment    :      0.16181       0.60097      -0.11135
                        -----------------------------------------
Magnitude (a.u.)       :      0.63225
Magnitude (Debye)      :      1.60705

Rotational constants in cm-1:     0.018660     0.009493     0.007236
Rotational constants in MHz :   559.410881   284.605966   216.943611

                             ****ORCA TERMINATED NORMALLY****
TOTAL RUN TIME: 0 days 0 hours 0 minutes 22 seconds 472 msec
