                         Program Version 4.2.1 -  RELEASE  -
|  1> ! wB97X-D3 SP def2-SVP
|  2> %pal
|  3> nprocs 24
|  4> end
|  5>
|  6> * xyz 0 1
|  7> S 	 -68.1132 	 11.1881 	 -100.638
|  8> C 	 -66.8008 	 12.1222 	 -100.046
|  9> C 	 -65.8564 	 11.3904 	 -99.4425
| 10> C 	 -66.2256 	 10.002 	 -99.4457
| 11> C 	 -67.3248 	 9.6661 	 -100.234
| 12> H 	 -65.6574 	 9.29263 	 -98.9843
| 13> C 	 -64.656 	 11.8783 	 -98.7044
| 14> H 	 -64.6803 	 12.8793 	 -98.9958
| 15> H 	 -63.7868 	 11.4994 	 -99.2016
| 16> C 	 -64.6635 	 11.7057 	 -97.2073
| 17> H 	 -65.3014 	 12.4319 	 -96.6808
| 18> H 	 -64.9068 	 10.6168 	 -96.9868
| 19> C 	 -63.2581 	 11.8287 	 -96.6076
| 20> H 	 -62.8365 	 12.8052 	 -96.8212
| 21> H 	 -63.2393 	 11.7576 	 -95.5231
| 22> H 	 -62.5283 	 11.1405 	 -97.04
| 23> S 	 -69.5583 	 8.06426 	 -99.9564
| 24> C 	 -69.4187 	 6.49566 	 -100.675
| 25> C 	 -68.2344 	 6.17884 	 -101.295
| 26> C 	 -67.2807 	 7.24693 	 -101.033
| 27> C 	 -67.8627 	 8.34789 	 -100.394
| 28> H 	 -68.0361 	 5.30182 	 -101.83
| 29> C 	 -65.8692 	 7.3481 	 -101.63
| 30> H 	 -65.1177 	 7.15764 	 -100.793
| 31> H 	 -65.8436 	 8.33458 	 -102.082
| 32> C 	 -65.572 	 6.38365 	 -102.714
| 33> H 	 -66.4238 	 6.28191 	 -103.459
| 34> H 	 -65.413 	 5.31236 	 -102.371
| 35> C 	 -64.2936 	 6.69972 	 -103.543
| 36> H 	 -64.1917 	 7.76648 	 -103.873
| 37> H 	 -64.3593 	 6.23895 	 -104.54
| 38> H 	 -63.4412 	 6.36413 	 -103.026
| 39> H 	 -66.6959 	 13.1748 	 -100.221
| 40> H 	 -70.1772 	 5.77336 	 -100.747
| 41> *
| 42>
| 43>                          ****END OF INPUT****

CARTESIAN COORDINATES (ANGSTROEM)
---------------------------------
  S    -68.113200   11.188100  -100.638000
  C    -66.800800   12.122200  -100.046000
  C    -65.856400   11.390400  -99.442500
  C    -66.225600   10.002000  -99.445700
  C    -67.324800    9.666100  -100.234000
  H    -65.657400    9.292630  -98.984300
  C    -64.656000   11.878300  -98.704400
  H    -64.680300   12.879300  -98.995800
  H    -63.786800   11.499400  -99.201600
  C    -64.663500   11.705700  -97.207300
  H    -65.301400   12.431900  -96.680800
  H    -64.906800   10.616800  -96.986800
  C    -63.258100   11.828700  -96.607600
  H    -62.836500   12.805200  -96.821200
  H    -63.239300   11.757600  -95.523100
  H    -62.528300   11.140500  -97.040000
  S    -69.558300    8.064260  -99.956400
  C    -69.418700    6.495660  -100.675000
  C    -68.234400    6.178840  -101.295000
  C    -67.280700    7.246930  -101.033000
  C    -67.862700    8.347890  -100.394000
  H    -68.036100    5.301820  -101.830000
  C    -65.869200    7.348100  -101.630000
  H    -65.117700    7.157640  -100.793000
  H    -65.843600    8.334580  -102.082000
  C    -65.572000    6.383650  -102.714000
  H    -66.423800    6.281910  -103.459000
  H    -65.413000    5.312360  -102.371000
  C    -64.293600    6.699720  -103.543000
  H    -64.191700    7.766480  -103.873000
  H    -64.359300    6.238950  -104.540000
  H    -63.441200    6.364130  -103.026000
  H    -66.695900   13.174800  -100.221000
  H    -70.177200    5.773360  -100.747000

 Total Charge           Charge          ....    0
 Multiplicity           Mult            ....    1
 Number of Electrons    NEL             ....  134
 Basis Dimension        Dim             ....  322

ORBITAL ENERGIES
----------------

  NO   OCC          E(Eh)            E(eV)
   0   2.0000     -88.968383     -2420.9528
   1   2.0000     -88.962272     -2420.7865
   2   2.0000     -10.325180      -280.9624
   3   2.0000     -10.322571      -280.8914
   4   2.0000     -10.311357      -280.5863
   5   2.0000     -10.305397      -280.4241
   6   2.0000     -10.305280      -280.4209
   7   2.0000     -10.293729      -280.1066
   8   2.0000     -10.293339      -280.0960
   9   2.0000     -10.292417      -280.0709
  10   2.0000     -10.292140      -280.0634
  11   2.0000     -10.289785      -279.9993
  12   2.0000     -10.282686      -279.8061
  13   2.0000     -10.282125      -279.7909
  14   2.0000     -10.278357      -279.6883
  15   2.0000     -10.276646      -279.6418
  16   2.0000      -8.082973      -219.9489
  17   2.0000      -8.077563      -219.8017
  18   2.0000      -6.041420      -164.3954
  19   2.0000      -6.037709      -164.2944
  20   2.0000      -6.036186      -164.2530
  21   2.0000      -6.033604      -164.1827
  22   2.0000      -6.032009      -164.1393
  23   2.0000      -6.028155      -164.0344
  24   2.0000      -1.007331       -27.4109
  25   2.0000      -0.985334       -26.8123
  26   2.0000      -0.918394       -24.9908
  27   2.0000      -0.910469       -24.7751
  28   2.0000      -0.874748       -23.8031
  29   2.0000      -0.850911       -23.1545
  30   2.0000      -0.846063       -23.0225
  31   2.0000      -0.816720       -22.2241
  32   2.0000      -0.785218       -21.3669
  33   2.0000      -0.772164       -21.0117
  34   2.0000      -0.709944       -19.3185
  35   2.0000      -0.696822       -18.9615
  36   2.0000      -0.695459       -18.9244
  37   2.0000      -0.653381       -17.7794
  38   2.0000      -0.643725       -17.5166
  39   2.0000      -0.622839       -16.9483
  40   2.0000      -0.595834       -16.2135
  41   2.0000      -0.576767       -15.6946
  42   2.0000      -0.574679       -15.6378
  43   2.0000      -0.562813       -15.3149
  44   2.0000      -0.531658       -14.4671
  45   2.0000      -0.521877       -14.2010
  46   2.0000      -0.518703       -14.1146
  47   2.0000      -0.512883       -13.9563
  48   2.0000      -0.504931       -13.7399
  49   2.0000      -0.499608       -13.5950
  50   2.0000      -0.496506       -13.5106
  51   2.0000      -0.477542       -12.9946
  52   2.0000      -0.467070       -12.7096
  53   2.0000      -0.463950       -12.6247
  54   2.0000      -0.456529       -12.4228
  55   2.0000      -0.453581       -12.3426
  56   2.0000      -0.447246       -12.1702
  57   2.0000      -0.440344       -11.9824
  58   2.0000      -0.427927       -11.6445
  59   2.0000      -0.423085       -11.5127
  60   2.0000      -0.421518       -11.4701
  61   2.0000      -0.413122       -11.2416
  62   2.0000      -0.410601       -11.1730
  63   2.0000      -0.345992        -9.4149
  64   2.0000      -0.333498        -9.0749
  65   2.0000      -0.326322        -8.8797
  66   2.0000      -0.289714        -7.8835
  67   0.0000       0.032543         0.8855
  68   0.0000       0.069582         1.8934
  69   0.0000       0.116318         3.1652
  70   0.0000       0.124997         3.4013
  71   0.0000       0.136427         3.7124

MULLIKEN ATOMIC CHARGES
-----------------------
   0 S :    0.108138
   1 C :   -0.118136
   2 C :   -0.114161
   3 C :    0.059870
   4 C :   -0.164115
   5 H :   -0.030948
   6 C :    0.150379
   7 H :   -0.017776
   8 H :    0.020064
   9 C :   -0.071514
  10 H :    0.044285
  11 H :    0.042510
  12 C :   -0.057532
  13 H :    0.015806
  14 H :    0.036316
  15 H :    0.028946
  16 S :    0.123949
  17 C :   -0.039099
  18 C :   -0.026818
  19 C :   -0.071318
  20 C :   -0.159846
  21 H :    0.003698
  22 C :    0.110758
  23 H :    0.052064
  24 H :    0.047486
  25 C :   -0.167476
  26 H :    0.036304
  27 H :    0.036588
  28 C :   -0.036750
  29 H :    0.031742
  30 H :    0.030045
  31 H :    0.031693
  32 H :    0.037801
  33 H :    0.027046
Sum of atomic charges:   -0.0000000

LOEWDIN ATOMIC CHARGES
----------------------
   0 S :    0.405369
   1 C :   -0.199724
   2 C :   -0.068325
   3 C :   -0.041465
   4 C :   -0.196612
   5 H :    0.008799
   6 C :   -0.029876
   7 H :    0.022655
   8 H :    0.031216
   9 C :   -0.036074
  10 H :    0.032367
  11 H :    0.033053
  12 C :   -0.068511
  13 H :    0.019252
  14 H :    0.025875
  15 H :    0.023426
  16 S :    0.404907
  17 C :   -0.176697
  18 C :   -0.062875
  19 C :   -0.043921
  20 C :   -0.200337
  21 H :    0.024724
  22 C :   -0.038945
  23 H :    0.043778
  24 H :    0.039114
  25 C :   -0.058140
  26 H :    0.026251
  27 H :    0.027455
  28 C :   -0.065925
  29 H :    0.028734
  30 H :    0.030262
  31 H :    0.017107
  32 H :    0.025925
  33 H :    0.017159

  Mayer bond orders larger than 0.100000
B(  0-S ,  1-C ) :   1.1388 B(  0-S ,  4-C ) :   1.1320 B(  1-C ,  2-C ) :   1.6381
B(  1-C , 32-H ) :   0.9581 B(  2-C ,  3-C ) :   1.2379 B(  2-C ,  6-C ) :   1.0198
B(  3-C ,  4-C ) :   1.5584 B(  3-C ,  5-H ) :   1.0039 B(  4-C , 20-C ) :   1.0858
B(  6-C ,  7-H ) :   0.9159 B(  6-C ,  8-H ) :   0.9299 B(  6-C ,  9-C ) :   1.0642
B(  9-C , 10-H ) :   0.9533 B(  9-C , 11-H ) :   0.9599 B(  9-C , 12-C ) :   1.0789
B( 12-C , 13-H ) :   0.9723 B( 12-C , 14-H ) :   0.9748 B( 12-C , 15-H ) :   0.9763
B( 16-S , 17-C ) :   1.1524 B( 16-S , 20-C ) :   1.1195 B( 17-C , 18-C ) :   1.6248
B( 17-C , 33-H ) :   0.9602 B( 18-C , 19-C ) :   1.2360 B( 18-C , 21-H ) :   0.9950
B( 19-C , 20-C ) :   1.6128 B( 19-C , 22-C ) :   1.0291 B( 22-C , 23-H ) :   0.9211
B( 22-C , 24-H ) :   0.9305 B( 22-C , 25-C ) :   1.0935 B( 25-C , 26-H ) :   0.9536
B( 25-C , 27-H ) :   0.9467 B( 25-C , 28-C ) :   1.0797 B( 28-C , 29-H ) :   0.9743
B( 28-C , 30-H ) :   0.9740 B( 28-C , 31-H ) :   0.9783

Dispersion correction           -0.013507796
FINAL SINGLE POINT ENERGY     -1339.864940951839

DIPOLE MOMENT
-------------
                                X             Y             Z
Electronic contribution:    -27.79174       1.80956      -0.98006
Nuclear contribution   :     28.43406      -1.92577       0.93233
                        -----------------------------------------
Total Dipole Moment    :      0.64233      -0.11620      -0.04773
                        -----------------------------------------
Magnitude (a.u.)       :      0.65450
Magnitude (Debye)      :      1.66360

Rotational constants in cm-1:     0.016968     0.008136     0.006579
Rotational constants in MHz :   508.682457   243.914798   197.235341

                             ****ORCA TERMINATED NORMALLY****
TOTAL RUN TIME: 0 days 0 hours 0 minutes 21 seconds 118 msec
