                         Program Version 4.2.1 -  RELEASE  -
|  1> ! wB97X-D3 SP def2-SVP
|  2> %pal
|  3> nprocs 24
|  4> end
|  5>
|  6> * xyz 0 1
|  7> S 	 -112.594 	 59.2285 	 -21.7186
|  8> C 	 -111.717 	 60.7484 	 -21.7227
|  9> C 	 -112.436 	 61.7383 	 -22.4015
| 10> C 	 -113.587 	 61.2573 	 -23.0848
| 11> C 	 -113.654 	 59.8738 	 -22.9184
| 12> H 	 -114.295 	 61.8274 	 -23.7242
| 13> C 	 -111.991 	 63.216 	 -22.5236
| 14> H 	 -111.648 	 63.2705 	 -23.5244
| 15> H 	 -111.132 	 63.3605 	 -21.8955
| 16> C 	 -112.973 	 64.3544 	 -22.2742
| 17> H 	 -113.833 	 64.296 	 -22.9247
| 18> H 	 -113.375 	 64.1809 	 -21.2589
| 19> C 	 -112.4 	 65.7714 	 -22.3593
| 20> H 	 -113.154 	 66.5469 	 -22.3598
| 21> H 	 -111.845 	 65.9047 	 -21.4731
| 22> H 	 -111.801 	 65.977 	 -23.2465
| 23> S 	 -115.813 	 58.3218 	 -22.1132
| 24> C 	 -116.956 	 57.8188 	 -23.264
| 25> C 	 -116.58 	 58.0162 	 -24.5563
| 26> C 	 -115.394 	 58.851 	 -24.5639
| 27> C 	 -114.805 	 59.1044 	 -23.3097
| 28> H 	 -117.02 	 57.5602 	 -25.4775
| 29> C 	 -114.858 	 59.232 	 -25.9197
| 30> H 	 -115.211 	 58.4109 	 -26.5598
| 31> H 	 -113.802 	 59.1814 	 -25.91
| 32> C 	 -115.426 	 60.5263 	 -26.4627
| 33> H 	 -115.227 	 61.375 	 -25.7851
| 34> H 	 -116.469 	 60.3814 	 -26.5425
| 35> C 	 -114.887 	 60.9194 	 -27.8601
| 36> H 	 -115.575 	 61.6104 	 -28.2838
| 37> H 	 -114.95 	 60.2096 	 -28.6951
| 38> H 	 -113.88 	 61.3764 	 -27.9356
| 39> H 	 -110.878 	 60.9556 	 -21.0834
| 40> H 	 -117.854 	 57.2466 	 -23.1165
| 41> *
| 42>
| 43>                          ****END OF INPUT****

CARTESIAN COORDINATES (ANGSTROEM)
---------------------------------
  S    -112.594000   59.228500  -21.718600
  C    -111.717000   60.748400  -21.722700
  C    -112.436000   61.738300  -22.401500
  C    -113.587000   61.257300  -23.084800
  C    -113.654000   59.873800  -22.918400
  H    -114.295000   61.827400  -23.724200
  C    -111.991000   63.216000  -22.523600
  H    -111.648000   63.270500  -23.524400
  H    -111.132000   63.360500  -21.895500
  C    -112.973000   64.354400  -22.274200
  H    -113.833000   64.296000  -22.924700
  H    -113.375000   64.180900  -21.258900
  C    -112.400000   65.771400  -22.359300
  H    -113.154000   66.546900  -22.359800
  H    -111.845000   65.904700  -21.473100
  H    -111.801000   65.977000  -23.246500
  S    -115.813000   58.321800  -22.113200
  C    -116.956000   57.818800  -23.264000
  C    -116.580000   58.016200  -24.556300
  C    -115.394000   58.851000  -24.563900
  C    -114.805000   59.104400  -23.309700
  H    -117.020000   57.560200  -25.477500
  C    -114.858000   59.232000  -25.919700
  H    -115.211000   58.410900  -26.559800
  H    -113.802000   59.181400  -25.910000
  C    -115.426000   60.526300  -26.462700
  H    -115.227000   61.375000  -25.785100
  H    -116.469000   60.381400  -26.542500
  C    -114.887000   60.919400  -27.860100
  H    -115.575000   61.610400  -28.283800
  H    -114.950000   60.209600  -28.695100
  H    -113.880000   61.376400  -27.935600
  H    -110.878000   60.955600  -21.083400
  H    -117.854000   57.246600  -23.116500

 Total Charge           Charge          ....    0
 Multiplicity           Mult            ....    1
 Number of Electrons    NEL             ....  134
 Basis Dimension        Dim             ....  322

ORBITAL ENERGIES
----------------

  NO   OCC          E(Eh)            E(eV)
   0   2.0000     -88.970879     -2421.0207
   1   2.0000     -88.963748     -2420.8266
   2   2.0000     -10.328263      -281.0463
   3   2.0000     -10.321588      -280.8647
   4   2.0000     -10.314655      -280.6760
   5   2.0000     -10.309074      -280.5242
   6   2.0000     -10.306135      -280.4442
   7   2.0000     -10.299564      -280.2654
   8   2.0000     -10.298010      -280.2231
   9   2.0000     -10.292293      -280.0675
  10   2.0000     -10.287932      -279.9489
  11   2.0000     -10.287333      -279.9326
  12   2.0000     -10.285847      -279.8921
  13   2.0000     -10.279795      -279.7274
  14   2.0000     -10.276221      -279.6302
  15   2.0000     -10.275849      -279.6201
  16   2.0000      -8.085905      -220.0287
  17   2.0000      -8.079348      -219.8502
  18   2.0000      -6.044266      -164.4728
  19   2.0000      -6.040588      -164.3728
  20   2.0000      -6.037902      -164.2997
  21   2.0000      -6.036588      -164.2639
  22   2.0000      -6.033681      -164.1848
  23   2.0000      -6.030061      -164.0863
  24   2.0000      -1.010778       -27.5047
  25   2.0000      -0.986864       -26.8539
  26   2.0000      -0.912356       -24.8265
  27   2.0000      -0.909993       -24.7622
  28   2.0000      -0.871944       -23.7268
  29   2.0000      -0.853865       -23.2348
  30   2.0000      -0.846853       -23.0440
  31   2.0000      -0.814985       -22.1769
  32   2.0000      -0.785832       -21.3836
  33   2.0000      -0.770906       -20.9774
  34   2.0000      -0.711037       -19.3483
  35   2.0000      -0.701211       -19.0809
  36   2.0000      -0.691886       -18.8272
  37   2.0000      -0.659366       -17.9423
  38   2.0000      -0.640372       -17.4254
  39   2.0000      -0.620534       -16.8856
  40   2.0000      -0.592111       -16.1122
  41   2.0000      -0.572258       -15.5719
  42   2.0000      -0.565969       -15.4008
  43   2.0000      -0.562160       -15.2971
  44   2.0000      -0.525514       -14.3000
  45   2.0000      -0.521875       -14.2009
  46   2.0000      -0.512956       -13.9582
  47   2.0000      -0.509142       -13.8545
  48   2.0000      -0.506718       -13.7885
  49   2.0000      -0.503267       -13.6946
  50   2.0000      -0.497236       -13.5305
  51   2.0000      -0.479452       -13.0466
  52   2.0000      -0.473111       -12.8740
  53   2.0000      -0.467413       -12.7190
  54   2.0000      -0.462113       -12.5747
  55   2.0000      -0.459543       -12.5048
  56   2.0000      -0.443759       -12.0753
  57   2.0000      -0.433389       -11.7931
  58   2.0000      -0.431299       -11.7362
  59   2.0000      -0.424262       -11.5448
  60   2.0000      -0.422378       -11.4935
  61   2.0000      -0.418170       -11.3790
  62   2.0000      -0.410983       -11.1834
  63   2.0000      -0.347575        -9.4580
  64   2.0000      -0.332531        -9.0486
  65   2.0000      -0.325571        -8.8592
  66   2.0000      -0.288827        -7.8594
  67   0.0000       0.031066         0.8453
  68   0.0000       0.066358         1.8057
  69   0.0000       0.107646         2.9292
  70   0.0000       0.123716         3.3665
  71   0.0000       0.128156         3.4873

MULLIKEN ATOMIC CHARGES
-----------------------
   0 S :    0.113427
   1 C :   -0.108644
   2 C :   -0.087956
   3 C :    0.010257
   4 C :   -0.143565
   5 H :    0.038884
   6 C :    0.091897
   7 H :    0.026775
   8 H :    0.003172
   9 C :   -0.088938
  10 H :    0.022170
  11 H :    0.031623
  12 C :   -0.027233
  13 H :    0.028321
  14 H :    0.024438
  15 H :    0.032151
  16 S :    0.116446
  17 C :   -0.066632
  18 C :   -0.052873
  19 C :   -0.098788
  20 C :   -0.142050
  21 H :    0.042435
  22 C :    0.089364
  23 H :    0.010176
  24 H :    0.017992
  25 C :   -0.039541
  26 H :    0.028936
  27 H :    0.013652
  28 C :   -0.048683
  29 H :    0.013321
  30 H :    0.017775
  31 H :    0.042444
  32 H :    0.042991
  33 H :    0.046256
Sum of atomic charges:    0.0000000

LOEWDIN ATOMIC CHARGES
----------------------
   0 S :    0.420535
   1 C :   -0.202525
   2 C :   -0.052692
   3 C :   -0.057801
   4 C :   -0.196395
   5 H :    0.039976
   6 C :   -0.028244
   7 H :    0.028065
   8 H :    0.023849
   9 C :   -0.041954
  10 H :    0.016989
  11 H :    0.028551
  12 C :   -0.059189
  13 H :    0.027823
  14 H :    0.021206
  15 H :    0.026216
  16 S :    0.423382
  17 C :   -0.200561
  18 C :   -0.081898
  19 C :   -0.055154
  20 C :   -0.213274
  21 H :    0.041787
  22 C :   -0.031570
  23 H :    0.031145
  24 H :    0.022338
  25 C :   -0.030838
  26 H :    0.025331
  27 H :    0.020644
  28 C :   -0.077475
  29 H :    0.023018
  30 H :    0.025488
  31 H :    0.029251
  32 H :    0.024299
  33 H :    0.029679

  Mayer bond orders larger than 0.100000
B(  0-S ,  1-C ) :   1.1272 B(  0-S ,  4-C ) :   1.1704 B(  1-C ,  2-C ) :   1.6053
B(  1-C , 32-H ) :   0.9693 B(  2-C ,  3-C ) :   1.2484 B(  2-C ,  6-C ) :   1.0184
B(  3-C ,  4-C ) :   1.5455 B(  3-C ,  5-H ) :   0.9856 B(  4-C , 20-C ) :   1.0505
B(  6-C ,  7-H ) :   0.9347 B(  6-C ,  8-H ) :   0.9417 B(  6-C ,  9-C ) :   1.0649
B(  9-C , 10-H ) :   0.9533 B(  9-C , 11-H ) :   0.9576 B(  9-C , 12-C ) :   1.0862
B( 12-C , 13-H ) :   0.9733 B( 12-C , 14-H ) :   0.9765 B( 12-C , 15-H ) :   0.9754
B( 16-S , 17-C ) :   1.1745 B( 16-S , 20-C ) :   1.1182 B( 17-C , 18-C ) :   1.6050
B( 17-C , 33-H ) :   0.9600 B( 18-C , 19-C ) :   1.2591 B( 18-C , 21-H ) :   0.9777
B( 19-C , 20-C ) :   1.5999 B( 19-C , 22-C ) :   1.0499 B( 22-C , 23-H ) :   0.9324
B( 22-C , 24-H ) :   0.9353 B( 22-C , 25-C ) :   1.0700 B( 25-C , 26-H ) :   0.9515
B( 25-C , 27-H ) :   0.9505 B( 25-C , 28-C ) :   1.0835 B( 28-C , 29-H ) :   0.9707
B( 28-C , 30-H ) :   0.9710 B( 28-C , 31-H ) :   0.9768

Dispersion correction           -0.013738218
FINAL SINGLE POINT ENERGY     -1339.868858914668

DIPOLE MOMENT
-------------
                                X             Y             Z
Electronic contribution:     -2.34931     -24.95100      17.74268
Nuclear contribution   :      2.27626      25.43334     -18.13093
                        -----------------------------------------
Total Dipole Moment    :     -0.07304       0.48234      -0.38826
                        -----------------------------------------
Magnitude (a.u.)       :      0.62348
Magnitude (Debye)      :      1.58477

Rotational constants in cm-1:     0.016489     0.008793     0.006634
Rotational constants in MHz :   494.318861   263.593742   198.896268

                             ****ORCA TERMINATED NORMALLY****
TOTAL RUN TIME: 0 days 0 hours 0 minutes 21 seconds 204 msec
