                         Program Version 4.2.1 -  RELEASE  -
|  1> ! wB97X-D3 SP def2-SVP
|  2> %pal
|  3> nprocs 24
|  4> end
|  5>
|  6> * xyz 0 1
|  7> S 	 -45.9215 	 12.3567 	 33.7623
|  8> C 	 -44.6788 	 13.3539 	 34.3065
|  9> C 	 -44.8374 	 14.7219 	 33.9841
| 10> C 	 -46.092 	 14.929 	 33.3256
| 11> C 	 -46.7772 	 13.7836 	 33.0848
| 12> H 	 -46.4997 	 15.9745 	 33.0761
| 13> C 	 -43.9882 	 15.9626 	 34.2486
| 14> H 	 -43.7716 	 16.4447 	 33.3266
| 15> H 	 -43.005 	 15.6703 	 34.5875
| 16> C 	 -44.4353 	 17.0364 	 35.3244
| 17> H 	 -43.767 	 17.908 	 35.3229
| 18> H 	 -45.3938 	 17.4181 	 34.989
| 19> C 	 -44.6532 	 16.5379 	 36.7276
| 20> H 	 -45.1671 	 17.2997 	 37.2945
| 21> H 	 -45.1987 	 15.5876 	 36.8304
| 22> H 	 -43.7024 	 16.4161 	 37.2458
| 23> S 	 -47.9851 	 12.7841 	 30.8943
| 24> C 	 -49.7658 	 13.0388 	 30.6279
| 25> C 	 -50.3696 	 13.7394 	 31.6349
| 26> C 	 -49.3958 	 14.0456 	 32.6529
| 27> C 	 -48.0824 	 13.6575 	 32.4138
| 28> H 	 -51.4344 	 13.8541 	 31.6085
| 29> C 	 -49.8698 	 14.7817 	 33.8833
| 30> H 	 -48.961 	 15.0166 	 34.4148
| 31> H 	 -50.4328 	 14.1415 	 34.5227
| 32> C 	 -50.6131 	 16.1602 	 33.6366
| 33> H 	 -50.9769 	 16.5621 	 34.6296
| 34> H 	 -51.4405 	 16.0358 	 33.017
| 35> C 	 -49.9363 	 17.3759 	 32.9757
| 36> H 	 -49.0421 	 17.689 	 33.6014
| 37> H 	 -50.4627 	 18.3397 	 32.8499
| 38> H 	 -49.3993 	 17.0495 	 32.0865
| 39> H 	 -43.8522 	 12.9255 	 34.8723
| 40> H 	 -50.2791 	 12.7825 	 29.7335
| 41> *
| 42>
| 43>                          ****END OF INPUT****

CARTESIAN COORDINATES (ANGSTROEM)
---------------------------------
  S    -45.921500   12.356700   33.762300
  C    -44.678800   13.353900   34.306500
  C    -44.837400   14.721900   33.984100
  C    -46.092000   14.929000   33.325600
  C    -46.777200   13.783600   33.084800
  H    -46.499700   15.974500   33.076100
  C    -43.988200   15.962600   34.248600
  H    -43.771600   16.444700   33.326600
  H    -43.005000   15.670300   34.587500
  C    -44.435300   17.036400   35.324400
  H    -43.767000   17.908000   35.322900
  H    -45.393800   17.418100   34.989000
  C    -44.653200   16.537900   36.727600
  H    -45.167100   17.299700   37.294500
  H    -45.198700   15.587600   36.830400
  H    -43.702400   16.416100   37.245800
  S    -47.985100   12.784100   30.894300
  C    -49.765800   13.038800   30.627900
  C    -50.369600   13.739400   31.634900
  C    -49.395800   14.045600   32.652900
  C    -48.082400   13.657500   32.413800
  H    -51.434400   13.854100   31.608500
  C    -49.869800   14.781700   33.883300
  H    -48.961000   15.016600   34.414800
  H    -50.432800   14.141500   34.522700
  C    -50.613100   16.160200   33.636600
  H    -50.976900   16.562100   34.629600
  H    -51.440500   16.035800   33.017000
  C    -49.936300   17.375900   32.975700
  H    -49.042100   17.689000   33.601400
  H    -50.462700   18.339700   32.849900
  H    -49.399300   17.049500   32.086500
  H    -43.852200   12.925500   34.872300
  H    -50.279100   12.782500   29.733500

 Total Charge           Charge          ....    0
 Multiplicity           Mult            ....    1
 Number of Electrons    NEL             ....  134
 Basis Dimension        Dim             ....  322

ORBITAL ENERGIES
----------------

  NO   OCC          E(Eh)            E(eV)
   0   2.0000     -88.970451     -2421.0091
   1   2.0000     -88.961959     -2420.7780
   2   2.0000     -10.331038      -281.1218
   3   2.0000     -10.328590      -281.0552
   4   2.0000     -10.318948      -280.7928
   5   2.0000     -10.318468      -280.7798
   6   2.0000     -10.306432      -280.4523
   7   2.0000     -10.305921      -280.4384
   8   2.0000     -10.299574      -280.2656
   9   2.0000     -10.294576      -280.1296
  10   2.0000     -10.292179      -280.0644
  11   2.0000     -10.289976      -280.0045
  12   2.0000     -10.289585      -279.9938
  13   2.0000     -10.289079      -279.9801
  14   2.0000     -10.281590      -279.7763
  15   2.0000     -10.273852      -279.5657
  16   2.0000      -8.085747      -220.0244
  17   2.0000      -8.075975      -219.7585
  18   2.0000      -6.044165      -164.4701
  19   2.0000      -6.040208      -164.3624
  20   2.0000      -6.036525      -164.2622
  21   2.0000      -6.034606      -164.2100
  22   2.0000      -6.030648      -164.1023
  23   2.0000      -6.026562      -163.9911
  24   2.0000      -1.005186       -27.3525
  25   2.0000      -0.981507       -26.7082
  26   2.0000      -0.906177       -24.6583
  27   2.0000      -0.898911       -24.4606
  28   2.0000      -0.872641       -23.7458
  29   2.0000      -0.855077       -23.2678
  30   2.0000      -0.842858       -22.9353
  31   2.0000      -0.818687       -22.2776
  32   2.0000      -0.782161       -21.2837
  33   2.0000      -0.768870       -20.9220
  34   2.0000      -0.704973       -19.1833
  35   2.0000      -0.696954       -18.9651
  36   2.0000      -0.693028       -18.8582
  37   2.0000      -0.660576       -17.9752
  38   2.0000      -0.643241       -17.5035
  39   2.0000      -0.623705       -16.9719
  40   2.0000      -0.592596       -16.1254
  41   2.0000      -0.568217       -15.4620
  42   2.0000      -0.551652       -15.0112
  43   2.0000      -0.548165       -14.9163
  44   2.0000      -0.542439       -14.7605
  45   2.0000      -0.534729       -14.5507
  46   2.0000      -0.517832       -14.0909
  47   2.0000      -0.510187       -13.8829
  48   2.0000      -0.500460       -13.6182
  49   2.0000      -0.496616       -13.5136
  50   2.0000      -0.488321       -13.2879
  51   2.0000      -0.479637       -13.0516
  52   2.0000      -0.472268       -12.8511
  53   2.0000      -0.460556       -12.5324
  54   2.0000      -0.452426       -12.3111
  55   2.0000      -0.448984       -12.2175
  56   2.0000      -0.445352       -12.1186
  57   2.0000      -0.439428       -11.9574
  58   2.0000      -0.436085       -11.8665
  59   2.0000      -0.430585       -11.7168
  60   2.0000      -0.409709       -11.1487
  61   2.0000      -0.408839       -11.1251
  62   2.0000      -0.407810       -11.0971
  63   2.0000      -0.349646        -9.5144
  64   2.0000      -0.333431        -9.0731
  65   2.0000      -0.324488        -8.8298
  66   2.0000      -0.298268        -8.1163
  67   0.0000       0.040580         1.1042
  68   0.0000       0.057410         1.5622
  69   0.0000       0.110933         3.0186
  70   0.0000       0.111616         3.0372
  71   0.0000       0.125394         3.4121

MULLIKEN ATOMIC CHARGES
-----------------------
   0 S :    0.133438
   1 C :   -0.125415
   2 C :   -0.093001
   3 C :    0.019231
   4 C :   -0.166471
   5 H :    0.050244
   6 C :    0.085814
   7 H :    0.027264
   8 H :    0.002547
   9 C :   -0.070817
  10 H :    0.033722
  11 H :    0.013611
  12 C :   -0.049578
  13 H :    0.029021
  14 H :    0.045707
  15 H :    0.022043
  16 S :    0.082547
  17 C :   -0.080639
  18 C :   -0.024566
  19 C :   -0.049733
  20 C :   -0.158254
  21 H :    0.028077
  22 C :    0.112447
  23 H :    0.012422
  24 H :    0.035811
  25 C :   -0.084152
  26 H :    0.034933
  27 H :    0.018841
  28 C :   -0.085807
  29 H :    0.013792
  30 H :    0.053201
  31 H :    0.034059
  32 H :    0.055302
  33 H :    0.044356
Sum of atomic charges:   -0.0000000

LOEWDIN ATOMIC CHARGES
----------------------
   0 S :    0.421952
   1 C :   -0.211218
   2 C :   -0.069265
   3 C :   -0.058254
   4 C :   -0.197032
   5 H :    0.049144
   6 C :   -0.031460
   7 H :    0.029945
   8 H :    0.024163
   9 C :   -0.038058
  10 H :    0.028995
  11 H :    0.016002
  12 C :   -0.068570
  13 H :    0.026876
  14 H :    0.030251
  15 H :    0.022466
  16 S :    0.372510
  17 C :   -0.150149
  18 C :   -0.068086
  19 C :   -0.056987
  20 C :   -0.197212
  21 H :    0.036112
  22 C :   -0.024225
  23 H :    0.027905
  24 H :    0.032594
  25 C :   -0.040380
  26 H :    0.030910
  27 H :    0.010173
  28 C :   -0.079915
  29 H :    0.022803
  30 H :    0.034328
  31 H :    0.023612
  32 H :    0.029132
  33 H :    0.020941

  Mayer bond orders larger than 0.100000
B(  0-S ,  1-C ) :   1.1694 B(  0-S ,  4-C ) :   1.1377 B(  1-C ,  2-C ) :   1.5880
B(  1-C , 32-H ) :   0.9651 B(  2-C ,  3-C ) :   1.2361 B(  2-C ,  6-C ) :   1.0300
B(  3-C ,  4-C ) :   1.6081 B(  3-C ,  5-H ) :   0.9804 B(  4-C , 20-C ) :   1.0003
B(  6-C ,  7-H ) :   0.9397 B(  6-C ,  8-H ) :   0.9380 B(  6-C ,  9-C ) :   1.0629
B(  9-C , 10-H ) :   0.9539 B(  9-C , 11-H ) :   0.9580 B(  9-C , 12-C ) :   1.0821
B( 12-C , 13-H ) :   0.9716 B( 12-C , 14-H ) :   0.9742 B( 12-C , 15-H ) :   0.9740
B( 16-S , 17-C ) :   1.1372 B( 16-S , 20-C ) :   1.1273 B( 17-C , 18-C ) :   1.6582
B( 17-C , 33-H ) :   0.9663 B( 18-C , 19-C ) :   1.1860 B( 18-C , 21-H ) :   0.9936
B( 19-C , 20-C ) :   1.6423 B( 19-C , 22-C ) :   1.0471 B( 22-C , 23-H ) :   0.9355
B( 22-C , 24-H ) :   0.9341 B( 22-C , 25-C ) :   1.0547 B( 25-C , 26-H ) :   0.9581
B( 25-C , 27-H ) :   0.9612 B( 25-C , 28-C ) :   1.0690 B( 28-C , 29-H ) :   0.9713
B( 28-C , 30-H ) :   0.9747 B( 28-C , 31-H ) :   0.9734

Dispersion correction           -0.014729779
FINAL SINGLE POINT ENERGY     -1339.867803578791

DIPOLE MOMENT
-------------
                                X             Y             Z
Electronic contribution:      1.55314     -25.68868     -14.54532
Nuclear contribution   :     -1.67551      26.21475      14.83939
                        -----------------------------------------
Total Dipole Moment    :     -0.12237       0.52607       0.29407
                        -----------------------------------------
Magnitude (a.u.)       :      0.61498
Magnitude (Debye)      :      1.56315

Rotational constants in cm-1:     0.018034     0.009360     0.006927
Rotational constants in MHz :   540.631832   280.606753   207.667278

                             ****ORCA TERMINATED NORMALLY****
TOTAL RUN TIME: 0 days 0 hours 0 minutes 21 seconds 704 msec
