                         Program Version 4.2.1 -  RELEASE  -
|  1> ! wB97X-D3 SP def2-SVP
|  2> %pal
|  3> nprocs 24
|  4> end
|  5>
|  6> * xyz 0 1
|  7> S 	 -130.913 	 61.4256 	 -59.3628
|  8> C 	 -130.935 	 63.0873 	 -59.9157
|  9> C 	 -131.866 	 63.8556 	 -59.236
| 10> C 	 -132.711 	 63.0201 	 -58.4466
| 11> C 	 -132.39 	 61.6522 	 -58.4666
| 12> H 	 -133.62 	 63.3179 	 -57.8744
| 13> C 	 -132.084 	 65.335 	 -59.2826
| 14> H 	 -131.103 	 65.8927 	 -59.3467
| 15> H 	 -132.637 	 65.5855 	 -58.4559
| 16> C 	 -132.763 	 65.7393 	 -60.5501
| 17> H 	 -132.283 	 65.1243 	 -61.3953
| 18> H 	 -133.81 	 65.5109 	 -60.4769
| 19> C 	 -132.754 	 67.1963 	 -60.9569
| 20> H 	 -133.152 	 67.3431 	 -61.9948
| 21> H 	 -133.249 	 67.9092 	 -60.3099
| 22> H 	 -131.695 	 67.4931 	 -61.0772
| 23> S 	 -133.999 	 59.3961 	 -58.8418
| 24> C 	 -134.381 	 58.3693 	 -57.5181
| 25> C 	 -133.705 	 58.8283 	 -56.4018
| 26> C 	 -132.949 	 59.9967 	 -56.5305
| 27> C 	 -133.128 	 60.5158 	 -57.8395
| 28> H 	 -133.756 	 58.2348 	 -55.4932
| 29> C 	 -132.289 	 60.7509 	 -55.4186
| 30> H 	 -131.681 	 61.5117 	 -55.8951
| 31> H 	 -131.512 	 60.131 	 -54.8454
| 32> C 	 -133.227 	 61.3794 	 -54.3581
| 33> H 	 -133.7 	 60.7885 	 -53.6879
| 34> H 	 -133.936 	 61.9144 	 -54.8849
| 35> C 	 -132.37 	 62.2788 	 -53.4419
| 36> H 	 -132.931 	 62.54 	 -52.5123
| 37> H 	 -132.05 	 63.1869 	 -53.92
| 38> H 	 -131.42 	 61.7417 	 -53.1906
| 39> H 	 -130.193 	 63.5351 	 -60.567
| 40> H 	 -134.97 	 57.4145 	 -57.644
| 41> *
| 42>
| 43>                          ****END OF INPUT****

CARTESIAN COORDINATES (ANGSTROEM)
---------------------------------
  S    -130.913000   61.425600  -59.362800
  C    -130.935000   63.087300  -59.915700
  C    -131.866000   63.855600  -59.236000
  C    -132.711000   63.020100  -58.446600
  C    -132.390000   61.652200  -58.466600
  H    -133.620000   63.317900  -57.874400
  C    -132.084000   65.335000  -59.282600
  H    -131.103000   65.892700  -59.346700
  H    -132.637000   65.585500  -58.455900
  C    -132.763000   65.739300  -60.550100
  H    -132.283000   65.124300  -61.395300
  H    -133.810000   65.510900  -60.476900
  C    -132.754000   67.196300  -60.956900
  H    -133.152000   67.343100  -61.994800
  H    -133.249000   67.909200  -60.309900
  H    -131.695000   67.493100  -61.077200
  S    -133.999000   59.396100  -58.841800
  C    -134.381000   58.369300  -57.518100
  C    -133.705000   58.828300  -56.401800
  C    -132.949000   59.996700  -56.530500
  C    -133.128000   60.515800  -57.839500
  H    -133.756000   58.234800  -55.493200
  C    -132.289000   60.750900  -55.418600
  H    -131.681000   61.511700  -55.895100
  H    -131.512000   60.131000  -54.845400
  C    -133.227000   61.379400  -54.358100
  H    -133.700000   60.788500  -53.687900
  H    -133.936000   61.914400  -54.884900
  C    -132.370000   62.278800  -53.441900
  H    -132.931000   62.540000  -52.512300
  H    -132.050000   63.186900  -53.920000
  H    -131.420000   61.741700  -53.190600
  H    -130.193000   63.535100  -60.567000
  H    -134.970000   57.414500  -57.644000

 Total Charge           Charge          ....    0
 Multiplicity           Mult            ....    1
 Number of Electrons    NEL             ....  134
 Basis Dimension        Dim             ....  322

ORBITAL ENERGIES
----------------

  NO   OCC          E(Eh)            E(eV)
   0   2.0000     -88.967599     -2420.9314
   1   2.0000     -88.965914     -2420.8856
   2   2.0000     -10.329981      -281.0931
   3   2.0000     -10.327683      -281.0305
   4   2.0000     -10.320097      -280.8241
   5   2.0000     -10.314324      -280.6670
   6   2.0000     -10.302026      -280.3324
   7   2.0000     -10.300468      -280.2900
   8   2.0000     -10.297820      -280.2179
   9   2.0000     -10.294486      -280.1272
  10   2.0000     -10.289867      -280.0015
  11   2.0000     -10.287531      -279.9380
  12   2.0000     -10.285036      -279.8701
  13   2.0000     -10.280340      -279.7423
  14   2.0000     -10.278962      -279.7048
  15   2.0000     -10.273089      -279.5450
  16   2.0000      -8.082115      -219.9255
  17   2.0000      -8.081331      -219.9042
  18   2.0000      -6.040538      -164.3714
  19   2.0000      -6.039587      -164.3455
  20   2.0000      -6.036660      -164.2659
  21   2.0000      -6.035574      -164.2363
  22   2.0000      -6.032972      -164.1655
  23   2.0000      -6.032477      -164.1520
  24   2.0000      -1.006651       -27.3924
  25   2.0000      -0.987333       -26.8667
  26   2.0000      -0.920899       -25.0589
  27   2.0000      -0.911281       -24.7972
  28   2.0000      -0.864719       -23.5302
  29   2.0000      -0.853905       -23.2359
  30   2.0000      -0.847256       -23.0550
  31   2.0000      -0.810227       -22.0474
  32   2.0000      -0.783928       -21.3318
  33   2.0000      -0.768149       -20.9024
  34   2.0000      -0.709007       -19.2931
  35   2.0000      -0.697444       -18.9784
  36   2.0000      -0.691758       -18.8237
  37   2.0000      -0.652995       -17.7689
  38   2.0000      -0.641066       -17.4443
  39   2.0000      -0.618158       -16.8209
  40   2.0000      -0.598919       -16.2974
  41   2.0000      -0.580470       -15.7954
  42   2.0000      -0.571411       -15.5489
  43   2.0000      -0.560754       -15.2589
  44   2.0000      -0.530764       -14.4428
  45   2.0000      -0.521726       -14.1969
  46   2.0000      -0.515443       -14.0259
  47   2.0000      -0.511317       -13.9136
  48   2.0000      -0.505009       -13.7420
  49   2.0000      -0.497728       -13.5439
  50   2.0000      -0.489599       -13.3227
  51   2.0000      -0.474296       -12.9063
  52   2.0000      -0.472246       -12.8505
  53   2.0000      -0.463435       -12.6107
  54   2.0000      -0.454245       -12.3606
  55   2.0000      -0.446542       -12.1510
  56   2.0000      -0.441143       -12.0041
  57   2.0000      -0.440681       -11.9915
  58   2.0000      -0.433948       -11.8083
  59   2.0000      -0.424917       -11.5626
  60   2.0000      -0.423630       -11.5275
  61   2.0000      -0.421279       -11.4636
  62   2.0000      -0.413688       -11.2570
  63   2.0000      -0.336103        -9.1458
  64   2.0000      -0.328262        -8.9325
  65   2.0000      -0.320401        -8.7186
  66   2.0000      -0.308187        -8.3862
  67   0.0000       0.039596         1.0775
  68   0.0000       0.052364         1.4249
  69   0.0000       0.111211         3.0262
  70   0.0000       0.122170         3.3244
  71   0.0000       0.139479         3.7954

MULLIKEN ATOMIC CHARGES
-----------------------
   0 S :    0.131265
   1 C :   -0.128693
   2 C :   -0.093966
   3 C :    0.017041
   4 C :   -0.188445
   5 H :    0.025585
   6 C :    0.145332
   7 H :    0.024916
   8 H :   -0.000819
   9 C :   -0.113325
  10 H :    0.039706
  11 H :    0.022859
  12 C :   -0.043979
  13 H :    0.038887
  14 H :    0.035576
  15 H :    0.018241
  16 S :    0.125512
  17 C :   -0.123731
  18 C :   -0.033742
  19 C :    0.002812
  20 C :   -0.191266
  21 H :    0.013935
  22 C :    0.026883
  23 H :    0.028067
  24 H :    0.033170
  25 C :    0.024072
  26 H :    0.005859
  27 H :    0.008886
  28 C :   -0.078873
  29 H :    0.039143
  30 H :    0.028524
  31 H :    0.029018
  32 H :    0.046073
  33 H :    0.085479
Sum of atomic charges:   -0.0000000

LOEWDIN ATOMIC CHARGES
----------------------
   0 S :    0.416498
   1 C :   -0.197954
   2 C :   -0.061498
   3 C :   -0.066327
   4 C :   -0.207311
   5 H :    0.036830
   6 C :   -0.025498
   7 H :    0.037755
   8 H :    0.018747
   9 C :   -0.047620
  10 H :    0.034525
  11 H :    0.020579
  12 C :   -0.071949
  13 H :    0.034619
  14 H :    0.022000
  15 H :    0.021643
  16 S :    0.437175
  17 C :   -0.207909
  18 C :   -0.076548
  19 C :   -0.055487
  20 C :   -0.216746
  21 H :    0.029665
  22 C :   -0.033099
  23 H :    0.031078
  24 H :    0.036795
  25 C :   -0.021047
  26 H :    0.011274
  27 H :    0.015113
  28 C :   -0.063113
  29 H :    0.028477
  30 H :    0.019327
  31 H :    0.027697
  32 H :    0.026690
  33 H :    0.045618

  Mayer bond orders larger than 0.100000
B(  0-S ,  1-C ) :   1.1513 B(  0-S ,  4-C ) :   1.1629 B(  1-C ,  2-C ) :   1.5940
B(  1-C , 32-H ) :   0.9652 B(  2-C ,  3-C ) :   1.2531 B(  2-C ,  6-C ) :   1.0370
B(  3-C ,  4-C ) :   1.5800 B(  3-C ,  5-H ) :   0.9842 B(  4-C , 20-C ) :   1.0101
B(  6-C ,  7-H ) :   0.9322 B(  6-C ,  8-H ) :   0.9278 B(  6-C ,  9-C ) :   1.0702
B(  9-C , 10-H ) :   0.9571 B(  9-C , 11-H ) :   0.9501 B(  9-C , 12-C ) :   1.0893
B( 12-C , 13-H ) :   0.9709 B( 12-C , 14-H ) :   0.9737 B( 12-C , 15-H ) :   0.9706
B( 16-S , 17-C ) :   1.1806 B( 16-S , 20-C ) :   1.1841 B( 17-C , 18-C ) :   1.5519
B( 17-C , 20-C ) :   0.1083 B( 17-C , 33-H ) :   0.9628 B( 18-C , 19-C ) :   1.2911
B( 18-C , 21-H ) :   0.9928 B( 19-C , 20-C ) :   1.5184 B( 19-C , 22-C ) :   1.0611
B( 22-C , 23-H ) :   0.9317 B( 22-C , 24-H ) :   0.9271 B( 22-C , 25-C ) :   1.0599
B( 25-C , 26-H ) :   0.9555 B( 25-C , 27-H ) :   0.9531 B( 25-C , 28-C ) :   1.0789
B( 28-C , 29-H ) :   0.9765 B( 28-C , 30-H ) :   0.9778 B( 28-C , 31-H ) :   0.9717

Dispersion correction           -0.013750505
FINAL SINGLE POINT ENERGY     -1339.870890489073

DIPOLE MOMENT
-------------
                                X             Y             Z
Electronic contribution:      0.39042     -23.54175     -10.62481
Nuclear contribution   :     -0.48062      23.87967      10.95537
                        -----------------------------------------
Total Dipole Moment    :     -0.09020       0.33792       0.33055
                        -----------------------------------------
Magnitude (a.u.)       :      0.48124
Magnitude (Debye)      :      1.22322

Rotational constants in cm-1:     0.018799     0.007717     0.006412
Rotational constants in MHz :   563.564946   231.347591   192.224431

                             ****ORCA TERMINATED NORMALLY****
TOTAL RUN TIME: 0 days 0 hours 0 minutes 21 seconds 128 msec
