                         Program Version 4.2.1 -  RELEASE  -
|  1> ! wB97X-D3 SP def2-SVP
|  2> %pal
|  3> nprocs 24
|  4> end
|  5>
|  6> * xyz 0 1
|  7> S 	 -103.709 	 -3.80318 	 -106.546
|  8> C 	 -104.456 	 -3.61952 	 -104.998
|  9> C 	 -104.84 	 -2.27198 	 -104.838
| 10> C 	 -104.752 	 -1.59596 	 -106.039
| 11> C 	 -104.06 	 -2.23991 	 -107.068
| 12> H 	 -104.839 	 -0.561149 	 -106.239
| 13> C 	 -105.05 	 -1.61332 	 -103.498
| 14> H 	 -104.226 	 -0.96605 	 -103.299
| 15> H 	 -104.991 	 -2.40237 	 -102.71
| 16> C 	 -106.336 	 -0.80157 	 -103.34
| 17> H 	 -106.309 	 0.156407 	 -103.874
| 18> H 	 -107.178 	 -1.36848 	 -103.891
| 19> C 	 -106.847 	 -0.665282 	 -101.845
| 20> H 	 -106.912 	 -1.66698 	 -101.413
| 21> H 	 -106.193 	 -0.00638345 	 -101.364
| 22> H 	 -107.941 	 -0.354517 	 -101.753
| 23> S 	 -103.503 	 -2.9303 	 -109.628
| 24> C 	 -102.752 	 -1.75551 	 -110.681
| 25> C 	 -102.867 	 -0.460397 	 -110.12
| 26> C 	 -103.011 	 -0.574426 	 -108.705
| 27> C 	 -103.528 	 -1.79323 	 -108.322
| 28> H 	 -102.548 	 0.540933 	 -110.636
| 29> C 	 -102.921 	 0.670274 	 -107.841
| 30> H 	 -102.016 	 1.21139 	 -108.087
| 31> H 	 -102.846 	 0.369665 	 -106.793
| 32> C 	 -104.123 	 1.56841 	 -108.035
| 33> H 	 -105.057 	 1.07275 	 -107.989
| 34> H 	 -104.134 	 1.8992 	 -109.12
| 35> C 	 -104.224 	 2.6589 	 -106.978
| 36> H 	 -105.111 	 3.22851 	 -107.091
| 37> H 	 -103.331 	 3.2463 	 -106.961
| 38> H 	 -104.214 	 2.14333 	 -106.009
| 39> H 	 -104.541 	 -4.39051 	 -104.249
| 40> H 	 -102.448 	 -2.02909 	 -111.7
| 41> *
| 42>
| 43>                          ****END OF INPUT****

CARTESIAN COORDINATES (ANGSTROEM)
---------------------------------
  S    -103.709000   -3.803180  -106.546000
  C    -104.456000   -3.619520  -104.998000
  C    -104.840000   -2.271980  -104.838000
  C    -104.752000   -1.595960  -106.039000
  C    -104.060000   -2.239910  -107.068000
  H    -104.839000   -0.561149  -106.239000
  C    -105.050000   -1.613320  -103.498000
  H    -104.226000   -0.966050  -103.299000
  H    -104.991000   -2.402370  -102.710000
  C    -106.336000   -0.801570  -103.340000
  H    -106.309000    0.156407  -103.874000
  H    -107.178000   -1.368480  -103.891000
  C    -106.847000   -0.665282  -101.845000
  H    -106.912000   -1.666980  -101.413000
  H    -106.193000   -0.006383  -101.364000
  H    -107.941000   -0.354517  -101.753000
  S    -103.503000   -2.930300  -109.628000
  C    -102.752000   -1.755510  -110.681000
  C    -102.867000   -0.460397  -110.120000
  C    -103.011000   -0.574426  -108.705000
  C    -103.528000   -1.793230  -108.322000
  H    -102.548000    0.540933  -110.636000
  C    -102.921000    0.670274  -107.841000
  H    -102.016000    1.211390  -108.087000
  H    -102.846000    0.369665  -106.793000
  C    -104.123000    1.568410  -108.035000
  H    -105.057000    1.072750  -107.989000
  H    -104.134000    1.899200  -109.120000
  C    -104.224000    2.658900  -106.978000
  H    -105.111000    3.228510  -107.091000
  H    -103.331000    3.246300  -106.961000
  H    -104.214000    2.143330  -106.009000
  H    -104.541000   -4.390510  -104.249000
  H    -102.448000   -2.029090  -111.700000

 Total Charge           Charge          ....    0
 Multiplicity           Mult            ....    1
 Number of Electrons    NEL             ....  134
 Basis Dimension        Dim             ....  322

ORBITAL ENERGIES
----------------

  NO   OCC          E(Eh)            E(eV)
   0   2.0000     -88.966905     -2420.9126
   1   2.0000     -88.963921     -2420.8314
   2   2.0000     -10.325635      -280.9748
   3   2.0000     -10.323339      -280.9123
   4   2.0000     -10.322717      -280.8954
   5   2.0000     -10.312508      -280.6176
   6   2.0000     -10.308535      -280.5095
   7   2.0000     -10.302050      -280.3330
   8   2.0000     -10.300503      -280.2909
   9   2.0000     -10.294004      -280.1141
  10   2.0000     -10.293953      -280.1127
  11   2.0000     -10.291217      -280.0383
  12   2.0000     -10.285488      -279.8824
  13   2.0000     -10.285292      -279.8770
  14   2.0000     -10.283892      -279.8389
  15   2.0000     -10.276078      -279.6263
  16   2.0000      -8.082130      -219.9259
  17   2.0000      -8.080108      -219.8709
  18   2.0000      -6.040566      -164.3722
  19   2.0000      -6.038332      -164.3114
  20   2.0000      -6.036584      -164.2638
  21   2.0000      -6.034116      -164.1967
  22   2.0000      -6.032918      -164.1640
  23   2.0000      -6.031365      -164.1218
  24   2.0000      -1.018594       -27.7174
  25   2.0000      -0.991562       -26.9818
  26   2.0000      -0.918609       -24.9966
  27   2.0000      -0.910779       -24.7836
  28   2.0000      -0.869364       -23.6566
  29   2.0000      -0.856964       -23.3192
  30   2.0000      -0.845590       -23.0097
  31   2.0000      -0.812723       -22.1153
  32   2.0000      -0.785226       -21.3671
  33   2.0000      -0.773792       -21.0559
  34   2.0000      -0.707066       -19.2402
  35   2.0000      -0.701230       -19.0814
  36   2.0000      -0.691910       -18.8278
  37   2.0000      -0.665080       -18.0977
  38   2.0000      -0.646684       -17.5972
  39   2.0000      -0.619618       -16.8607
  40   2.0000      -0.600911       -16.3516
  41   2.0000      -0.572257       -15.5719
  42   2.0000      -0.565691       -15.3932
  43   2.0000      -0.555208       -15.1080
  44   2.0000      -0.538632       -14.6569
  45   2.0000      -0.526963       -14.3394
  46   2.0000      -0.516096       -14.0437
  47   2.0000      -0.515522       -14.0281
  48   2.0000      -0.506256       -13.7759
  49   2.0000      -0.502789       -13.6816
  50   2.0000      -0.496549       -13.5118
  51   2.0000      -0.477433       -12.9916
  52   2.0000      -0.473376       -12.8812
  53   2.0000      -0.469215       -12.7680
  54   2.0000      -0.461167       -12.5490
  55   2.0000      -0.453642       -12.3442
  56   2.0000      -0.448988       -12.2176
  57   2.0000      -0.438745       -11.9389
  58   2.0000      -0.431445       -11.7402
  59   2.0000      -0.429501       -11.6873
  60   2.0000      -0.421402       -11.4669
  61   2.0000      -0.412964       -11.2373
  62   2.0000      -0.409448       -11.1416
  63   2.0000      -0.345207        -9.3936
  64   2.0000      -0.331817        -9.0292
  65   2.0000      -0.331118        -9.0102
  66   2.0000      -0.284877        -7.7519
  67   0.0000       0.022529         0.6130
  68   0.0000       0.074650         2.0313
  69   0.0000       0.106103         2.8872
  70   0.0000       0.108408         2.9499
  71   0.0000       0.123484         3.3602

MULLIKEN ATOMIC CHARGES
-----------------------
   0 S :    0.117766
   1 C :   -0.121123
   2 C :   -0.091485
   3 C :    0.068191
   4 C :   -0.166380
   5 H :   -0.037069
   6 C :    0.098155
   7 H :    0.035803
   8 H :    0.013201
   9 C :   -0.139834
  10 H :    0.039370
  11 H :    0.039140
  12 C :   -0.051025
  13 H :    0.032689
  14 H :    0.034966
  15 H :    0.044497
  16 S :    0.115145
  17 C :   -0.108643
  18 C :   -0.058254
  19 C :   -0.080044
  20 C :   -0.111789
  21 H :    0.064334
  22 C :    0.061634
  23 H :    0.024702
  24 H :    0.023245
  25 C :   -0.102158
  26 H :    0.023599
  27 H :    0.024362
  28 C :    0.013167
  29 H :    0.037244
  30 H :    0.019617
  31 H :    0.017869
  32 H :    0.047701
  33 H :    0.071409
Sum of atomic charges:    0.0000000

LOEWDIN ATOMIC CHARGES
----------------------
   0 S :    0.452137
   1 C :   -0.209150
   2 C :   -0.061491
   3 C :   -0.071692
   4 C :   -0.212058
   5 H :    0.020264
   6 C :   -0.029770
   7 H :    0.030877
   8 H :    0.032219
   9 C :   -0.051497
  10 H :    0.021742
  11 H :    0.030933
  12 C :   -0.065308
  13 H :    0.026098
  14 H :    0.015234
  15 H :    0.036557
  16 S :    0.416312
  17 C :   -0.185079
  18 C :   -0.077341
  19 C :   -0.055231
  20 C :   -0.211175
  21 H :    0.048547
  22 C :   -0.030912
  23 H :    0.030314
  24 H :    0.027075
  25 C :   -0.045737
  26 H :    0.017701
  27 H :    0.027516
  28 C :   -0.054502
  29 H :    0.024362
  30 H :    0.020561
  31 H :    0.025883
  32 H :    0.026236
  33 H :    0.030376

  Mayer bond orders larger than 0.100000
B(  0-S ,  1-C ) :   1.1737 B(  0-S ,  4-C ) :   1.1973 B(  1-C ,  2-C ) :   1.5284
B(  1-C ,  4-C ) :   0.1152 B(  1-C , 32-H ) :   0.9728 B(  2-C ,  3-C ) :   1.2990
B(  2-C ,  6-C ) :   1.0381 B(  3-C ,  4-C ) :   1.5103 B(  3-C ,  5-H ) :   0.9984
B(  4-C , 20-C ) :   1.0518 B(  6-C ,  7-H ) :   0.9352 B(  6-C ,  8-H ) :   0.9399
B(  6-C ,  9-C ) :   1.0422 B(  9-C , 10-H ) :   0.9557 B(  9-C , 11-H ) :   0.9653
B(  9-C , 12-C ) :   1.0731 B( 12-C , 13-H ) :   0.9754 B( 12-C , 14-H ) :   0.9798
B( 12-C , 15-H ) :   0.9768 B( 16-S , 17-C ) :   1.1694 B( 16-S , 20-C ) :   1.1405
B( 17-C , 18-C ) :   1.5755 B( 17-C , 20-C ) :   0.1058 B( 17-C , 33-H ) :   0.9696
B( 18-C , 19-C ) :   1.2492 B( 18-C , 21-H ) :   0.9646 B( 19-C , 20-C ) :   1.5794
B( 19-C , 22-C ) :   1.0646 B( 22-C , 23-H ) :   0.9224 B( 22-C , 24-H ) :   0.9370
B( 22-C , 25-C ) :   1.0593 B( 25-C , 26-H ) :   0.9545 B( 25-C , 27-H ) :   0.9452
B( 25-C , 28-C ) :   1.0801 B( 28-C , 29-H ) :   0.9727 B( 28-C , 30-H ) :   0.9720
B( 28-C , 31-H ) :   0.9703

Dispersion correction           -0.014384576
FINAL SINGLE POINT ENERGY     -1339.859629475899

DIPOLE MOMENT
-------------
                                X             Y             Z
Electronic contribution:      9.90070     -24.27131     -19.74931
Nuclear contribution   :     -9.85194      24.89452      20.01749
                        -----------------------------------------
Total Dipole Moment    :      0.04877       0.62321       0.26818
                        -----------------------------------------
Magnitude (a.u.)       :      0.68021
Magnitude (Debye)      :      1.72896

Rotational constants in cm-1:     0.018991     0.009157     0.006442
Rotational constants in MHz :   569.326887   274.505692   193.135484

                             ****ORCA TERMINATED NORMALLY****
TOTAL RUN TIME: 0 days 0 hours 0 minutes 21 seconds 33 msec
