                         Program Version 4.2.1 -  RELEASE  -
|  1> ! wB97X-D3 SP def2-SVP
|  2> %pal
|  3> nprocs 24
|  4> end
|  5>
|  6> * xyz 0 1
|  7> S 	 -130.732 	 64.2731 	 -55.2503
|  8> C 	 -131.205 	 65.9317 	 -54.7509
|  9> C 	 -130.866 	 66.8187 	 -55.6967
| 10> C 	 -130.415 	 66.1786 	 -56.8816
| 11> C 	 -130.28 	 64.8082 	 -56.8491
| 12> H 	 -130.094 	 66.5808 	 -57.7626
| 13> C 	 -131.216 	 68.2574 	 -55.6453
| 14> H 	 -131.766 	 68.3163 	 -54.7286
| 15> H 	 -131.97 	 68.3691 	 -56.4551
| 16> C 	 -130.065 	 69.2542 	 -55.8175
| 17> H 	 -129.499 	 69.0437 	 -56.7141
| 18> H 	 -130.369 	 70.2742 	 -55.9351
| 19> C 	 -129.166 	 69.238 	 -54.566
| 20> H 	 -129.8 	 69.4 	 -53.6643
| 21> H 	 -128.715 	 68.2324 	 -54.4465
| 22> H 	 -128.363 	 69.9545 	 -54.6522
| 23> S 	 -130.693 	 62.5141 	 -58.241
| 24> C 	 -129.753 	 62.0745 	 -59.6398
| 25> C 	 -128.743 	 63.0307 	 -59.8345
| 26> C 	 -128.791 	 64.1013 	 -58.8662
| 27> C 	 -129.79 	 63.9237 	 -57.9116
| 28> H 	 -127.952 	 62.8819 	 -60.6035
| 29> C 	 -127.727 	 65.177 	 -58.9843
| 30> H 	 -126.777 	 64.6394 	 -59.2843
| 31> H 	 -127.451 	 65.7213 	 -58.0162
| 32> C 	 -128.087 	 66.1888 	 -60.08
| 33> H 	 -129.175 	 66.3355 	 -60.2582
| 34> H 	 -127.758 	 65.7679 	 -61.0308
| 35> C 	 -127.432 	 67.589 	 -59.8503
| 36> H 	 -127.949 	 68.1832 	 -59.1182
| 37> H 	 -127.466 	 68.0692 	 -60.8224
| 38> H 	 -126.361 	 67.5873 	 -59.579
| 39> H 	 -131.562 	 66.3549 	 -53.8123
| 40> H 	 -129.999 	 61.1604 	 -60.1114
| 41> *
| 42>
| 43>                          ****END OF INPUT****

CARTESIAN COORDINATES (ANGSTROEM)
---------------------------------
  S    -130.732000   64.273100  -55.250300
  C    -131.205000   65.931700  -54.750900
  C    -130.866000   66.818700  -55.696700
  C    -130.415000   66.178600  -56.881600
  C    -130.280000   64.808200  -56.849100
  H    -130.094000   66.580800  -57.762600
  C    -131.216000   68.257400  -55.645300
  H    -131.766000   68.316300  -54.728600
  H    -131.970000   68.369100  -56.455100
  C    -130.065000   69.254200  -55.817500
  H    -129.499000   69.043700  -56.714100
  H    -130.369000   70.274200  -55.935100
  C    -129.166000   69.238000  -54.566000
  H    -129.800000   69.400000  -53.664300
  H    -128.715000   68.232400  -54.446500
  H    -128.363000   69.954500  -54.652200
  S    -130.693000   62.514100  -58.241000
  C    -129.753000   62.074500  -59.639800
  C    -128.743000   63.030700  -59.834500
  C    -128.791000   64.101300  -58.866200
  C    -129.790000   63.923700  -57.911600
  H    -127.952000   62.881900  -60.603500
  C    -127.727000   65.177000  -58.984300
  H    -126.777000   64.639400  -59.284300
  H    -127.451000   65.721300  -58.016200
  C    -128.087000   66.188800  -60.080000
  H    -129.175000   66.335500  -60.258200
  H    -127.758000   65.767900  -61.030800
  C    -127.432000   67.589000  -59.850300
  H    -127.949000   68.183200  -59.118200
  H    -127.466000   68.069200  -60.822400
  H    -126.361000   67.587300  -59.579000
  H    -131.562000   66.354900  -53.812300
  H    -129.999000   61.160400  -60.111400

 Total Charge           Charge          ....    0
 Multiplicity           Mult            ....    1
 Number of Electrons    NEL             ....  134
 Basis Dimension        Dim             ....  322

ORBITAL ENERGIES
----------------

  NO   OCC          E(Eh)            E(eV)
   0   2.0000     -88.964572     -2420.8491
   1   2.0000     -88.964006     -2420.8337
   2   2.0000     -10.329720      -281.0860
   3   2.0000     -10.328163      -281.0436
   4   2.0000     -10.321214      -280.8545
   5   2.0000     -10.311570      -280.5921
   6   2.0000     -10.308764      -280.5157
   7   2.0000     -10.304994      -280.4131
   8   2.0000     -10.301982      -280.3312
   9   2.0000     -10.292396      -280.0703
  10   2.0000     -10.292200      -280.0650
  11   2.0000     -10.290956      -280.0312
  12   2.0000     -10.286787      -279.9177
  13   2.0000     -10.281712      -279.7796
  14   2.0000     -10.281444      -279.7723
  15   2.0000     -10.279313      -279.7143
  16   2.0000      -8.080561      -219.8833
  17   2.0000      -8.078040      -219.8146
  18   2.0000      -6.038918      -164.3273
  19   2.0000      -6.036768      -164.2688
  20   2.0000      -6.034690      -164.2123
  21   2.0000      -6.032681      -164.1576
  22   2.0000      -6.031599      -164.1281
  23   2.0000      -6.028544      -164.0450
  24   2.0000      -1.010554       -27.4986
  25   2.0000      -0.988718       -26.9044
  26   2.0000      -0.917659       -24.9708
  27   2.0000      -0.908338       -24.7171
  28   2.0000      -0.872244       -23.7350
  29   2.0000      -0.850556       -23.1448
  30   2.0000      -0.843112       -22.9422
  31   2.0000      -0.818230       -22.2652
  32   2.0000      -0.780726       -21.2446
  33   2.0000      -0.774625       -21.0786
  34   2.0000      -0.713131       -19.4053
  35   2.0000      -0.699585       -19.0367
  36   2.0000      -0.695730       -18.9318
  37   2.0000      -0.667574       -18.1656
  38   2.0000      -0.641728       -17.4623
  39   2.0000      -0.620023       -16.8717
  40   2.0000      -0.601110       -16.3570
  41   2.0000      -0.568364       -15.4660
  42   2.0000      -0.559756       -15.2317
  43   2.0000      -0.557517       -15.1708
  44   2.0000      -0.541333       -14.7304
  45   2.0000      -0.525722       -14.3056
  46   2.0000      -0.520668       -14.1681
  47   2.0000      -0.513570       -13.9749
  48   2.0000      -0.507984       -13.8230
  49   2.0000      -0.496741       -13.5170
  50   2.0000      -0.488246       -13.2859
  51   2.0000      -0.482363       -13.1258
  52   2.0000      -0.473676       -12.8894
  53   2.0000      -0.470158       -12.7937
  54   2.0000      -0.457315       -12.4442
  55   2.0000      -0.446345       -12.1457
  56   2.0000      -0.443620       -12.0715
  57   2.0000      -0.441061       -12.0019
  58   2.0000      -0.431721       -11.7477
  59   2.0000      -0.430624       -11.7179
  60   2.0000      -0.422470       -11.4960
  61   2.0000      -0.415645       -11.3103
  62   2.0000      -0.410306       -11.1650
  63   2.0000      -0.352789        -9.5999
  64   2.0000      -0.329872        -8.9763
  65   2.0000      -0.327465        -8.9108
  66   2.0000      -0.295421        -8.0388
  67   0.0000       0.029861         0.8126
  68   0.0000       0.077697         2.1142
  69   0.0000       0.112181         3.0526
  70   0.0000       0.119377         3.2484
  71   0.0000       0.124636         3.3915

MULLIKEN ATOMIC CHARGES
-----------------------
   0 S :    0.098365
   1 C :   -0.111049
   2 C :   -0.085672
   3 C :    0.065746
   4 C :   -0.131730
   5 H :   -0.061765
   6 C :    0.065480
   7 H :   -0.001150
   8 H :    0.045697
   9 C :   -0.035976
  10 H :    0.025826
  11 H :    0.023833
  12 C :   -0.072240
  13 H :    0.032114
  14 H :    0.042422
  15 H :    0.035401
  16 S :    0.106062
  17 C :   -0.093711
  18 C :   -0.038364
  19 C :   -0.044715
  20 C :   -0.136974
  21 H :    0.040257
  22 C :    0.015709
  23 H :    0.041007
  24 H :    0.049485
  25 C :   -0.088647
  26 H :    0.047563
  27 H :    0.022669
  28 C :   -0.056824
  29 H :    0.038365
  30 H :    0.032010
  31 H :    0.034746
  32 H :    0.041186
  33 H :    0.054873
Sum of atomic charges:   -0.0000000

LOEWDIN ATOMIC CHARGES
----------------------
   0 S :    0.381502
   1 C :   -0.186785
   2 C :   -0.068315
   3 C :   -0.058508
   4 C :   -0.184113
   5 H :    0.010424
   6 C :   -0.027678
   7 H :    0.023930
   8 H :    0.041196
   9 C :   -0.037901
  10 H :    0.022378
  11 H :    0.022133
  12 C :   -0.065047
  13 H :    0.027415
  14 H :    0.028232
  15 H :    0.022108
  16 S :    0.435238
  17 C :   -0.179853
  18 C :   -0.072753
  19 C :   -0.057456
  20 C :   -0.217639
  21 H :    0.038617
  22 C :   -0.042675
  23 H :    0.039403
  24 H :    0.036369
  25 C :   -0.045006
  26 H :    0.028881
  27 H :    0.022408
  28 C :   -0.067306
  29 H :    0.020481
  30 H :    0.027913
  31 H :    0.027577
  32 H :    0.033734
  33 H :    0.021099

  Mayer bond orders larger than 0.100000
B(  0-S ,  1-C ) :   1.1092 B(  0-S ,  4-C ) :   1.1356 B(  1-C ,  2-C ) :   1.6502
B(  1-C , 32-H ) :   0.9549 B(  2-C ,  3-C ) :   1.1917 B(  2-C ,  6-C ) :   1.0213
B(  3-C ,  4-C ) :   1.6132 B(  3-C ,  5-H ) :   1.0137 B(  4-C , 20-C ) :   1.0187
B(  6-C ,  7-H ) :   0.9417 B(  6-C ,  8-H ) :   0.9400 B(  6-C ,  9-C ) :   1.0625
B(  9-C , 10-H ) :   0.9559 B(  9-C , 11-H ) :   0.9554 B(  9-C , 12-C ) :   1.0707
B( 12-C , 13-H ) :   0.9754 B( 12-C , 14-H ) :   0.9774 B( 12-C , 15-H ) :   0.9752
B( 16-S , 17-C ) :   1.1811 B( 16-S , 20-C ) :   1.1624 B( 17-C , 18-C ) :   1.5507
B( 17-C , 20-C ) :   0.1038 B( 17-C , 33-H ) :   0.9810 B( 18-C , 19-C ) :   1.2612
B( 18-C , 21-H ) :   0.9857 B( 19-C , 20-C ) :   1.5737 B( 19-C , 22-C ) :   1.0395
B( 22-C , 23-H ) :   0.9351 B( 22-C , 24-H ) :   0.9555 B( 22-C , 25-C ) :   1.0303
B( 25-C , 26-H ) :   0.9618 B( 25-C , 27-H ) :   0.9538 B( 25-C , 28-C ) :   1.0799
B( 28-C , 29-H ) :   0.9794 B( 28-C , 30-H ) :   0.9735 B( 28-C , 31-H ) :   0.9730

Dispersion correction           -0.014810893
FINAL SINGLE POINT ENERGY     -1339.880337387570

DIPOLE MOMENT
-------------
                                X             Y             Z
Electronic contribution:    -12.33248     -28.40545       4.28126
Nuclear contribution   :     12.66857      28.96199      -4.72891
                        -----------------------------------------
Total Dipole Moment    :      0.33608       0.55654      -0.44765
                        -----------------------------------------
Magnitude (a.u.)       :      0.78935
Magnitude (Debye)      :      2.00637

Rotational constants in cm-1:     0.018023     0.009918     0.006827
Rotational constants in MHz :   540.312667   297.324728   204.673944

                             ****ORCA TERMINATED NORMALLY****
TOTAL RUN TIME: 0 days 0 hours 0 minutes 22 seconds 124 msec
