                         Program Version 4.2.1 -  RELEASE  -
|  1> ! wB97X-D3 SP def2-SVP
|  2> %pal
|  3> nprocs 24
|  4> end
|  5>
|  6> * xyz 0 1
|  7> S 	 -59.5329 	 14.8033 	 -92.4266
|  8> C 	 -59.3745 	 16.4091 	 -93.1232
|  9> C 	 -59.5694 	 17.4193 	 -92.2157
| 10> C 	 -59.9981 	 16.9619 	 -90.9548
| 11> C 	 -60.1764 	 15.5887 	 -90.9518
| 12> H 	 -60.2117 	 17.6053 	 -90.1072
| 13> C 	 -59.3724 	 18.8739 	 -92.5998
| 14> H 	 -59.376 	 18.9566 	 -93.7017
| 15> H 	 -58.3042 	 19.0539 	 -92.3199
| 16> C 	 -60.2626 	 19.8287 	 -91.8191
| 17> H 	 -60.1998 	 19.6427 	 -90.7937
| 18> H 	 -59.8046 	 20.7595 	 -92.047
| 19> C 	 -61.733 	 19.8853 	 -92.1171
| 20> H 	 -61.7139 	 20.2903 	 -93.1012
| 21> H 	 -62.2757 	 18.887 	 -92.0619
| 22> H 	 -62.2245 	 20.6122 	 -91.4273
| 23> S 	 -62.4812 	 14.2706 	 -90.2056
| 24> C 	 -62.5987 	 13.5951 	 -88.6248
| 25> C 	 -61.4611 	 13.637 	 -87.9153
| 26> C 	 -60.4877 	 14.4536 	 -88.6131
| 27> C 	 -60.8507 	 14.885 	 -89.8728
| 28> H 	 -61.2871 	 13.2518 	 -86.8663
| 29> C 	 -59.3011 	 14.9814 	 -87.8495
| 30> H 	 -58.778 	 15.6048 	 -88.5597
| 31> H 	 -58.6757 	 14.112 	 -87.5738
| 32> C 	 -59.6994 	 15.9046 	 -86.6543
| 33> H 	 -60.0857 	 15.3405 	 -85.8348
| 34> H 	 -60.4985 	 16.5976 	 -86.8999
| 35> C 	 -58.4618 	 16.7735 	 -86.242
| 36> H 	 -58.7165 	 17.5112 	 -85.4795
| 37> H 	 -58.0535 	 17.3035 	 -87.1546
| 38> H 	 -57.5378 	 16.2193 	 -85.95
| 39> H 	 -59.1448 	 16.705 	 -94.0892
| 40> H 	 -63.5172 	 13.2986 	 -88.1304
| 41> *
| 42>
| 43>                          ****END OF INPUT****

CARTESIAN COORDINATES (ANGSTROEM)
---------------------------------
  S    -59.532900   14.803300  -92.426600
  C    -59.374500   16.409100  -93.123200
  C    -59.569400   17.419300  -92.215700
  C    -59.998100   16.961900  -90.954800
  C    -60.176400   15.588700  -90.951800
  H    -60.211700   17.605300  -90.107200
  C    -59.372400   18.873900  -92.599800
  H    -59.376000   18.956600  -93.701700
  H    -58.304200   19.053900  -92.319900
  C    -60.262600   19.828700  -91.819100
  H    -60.199800   19.642700  -90.793700
  H    -59.804600   20.759500  -92.047000
  C    -61.733000   19.885300  -92.117100
  H    -61.713900   20.290300  -93.101200
  H    -62.275700   18.887000  -92.061900
  H    -62.224500   20.612200  -91.427300
  S    -62.481200   14.270600  -90.205600
  C    -62.598700   13.595100  -88.624800
  C    -61.461100   13.637000  -87.915300
  C    -60.487700   14.453600  -88.613100
  C    -60.850700   14.885000  -89.872800
  H    -61.287100   13.251800  -86.866300
  C    -59.301100   14.981400  -87.849500
  H    -58.778000   15.604800  -88.559700
  H    -58.675700   14.112000  -87.573800
  C    -59.699400   15.904600  -86.654300
  H    -60.085700   15.340500  -85.834800
  H    -60.498500   16.597600  -86.899900
  C    -58.461800   16.773500  -86.242000
  H    -58.716500   17.511200  -85.479500
  H    -58.053500   17.303500  -87.154600
  H    -57.537800   16.219300  -85.950000
  H    -59.144800   16.705000  -94.089200
  H    -63.517200   13.298600  -88.130400

 Total Charge           Charge          ....    0
 Multiplicity           Mult            ....    1
 Number of Electrons    NEL             ....  134
 Basis Dimension        Dim             ....  322

ORBITAL ENERGIES
----------------

  NO   OCC          E(Eh)            E(eV)
   0   2.0000     -88.969815     -2420.9917
   1   2.0000     -88.958724     -2420.6899
   2   2.0000     -10.331195      -281.1261
   3   2.0000     -10.321421      -280.8602
   4   2.0000     -10.312349      -280.6133
   5   2.0000     -10.303270      -280.3662
   6   2.0000     -10.299502      -280.2637
   7   2.0000     -10.296159      -280.1727
   8   2.0000     -10.294192      -280.1192
   9   2.0000     -10.293273      -280.0942
  10   2.0000     -10.292298      -280.0677
  11   2.0000     -10.289698      -279.9969
  12   2.0000     -10.288815      -279.9729
  13   2.0000     -10.285960      -279.8952
  14   2.0000     -10.278594      -279.6947
  15   2.0000     -10.277180      -279.6563
  16   2.0000      -8.083441      -219.9616
  17   2.0000      -8.074091      -219.7072
  18   2.0000      -6.041978      -164.4106
  19   2.0000      -6.038370      -164.3124
  20   2.0000      -6.033963      -164.1925
  21   2.0000      -6.032669      -164.1573
  22   2.0000      -6.028544      -164.0450
  23   2.0000      -6.024690      -163.9401
  24   2.0000      -1.004876       -27.3441
  25   2.0000      -0.984883       -26.8000
  26   2.0000      -0.917446       -24.9650
  27   2.0000      -0.904113       -24.6022
  28   2.0000      -0.872299       -23.7365
  29   2.0000      -0.849655       -23.1203
  30   2.0000      -0.843210       -22.9449
  31   2.0000      -0.819062       -22.2878
  32   2.0000      -0.781455       -21.2645
  33   2.0000      -0.765473       -20.8296
  34   2.0000      -0.712720       -19.3941
  35   2.0000      -0.702676       -19.1208
  36   2.0000      -0.689167       -18.7532
  37   2.0000      -0.656825       -17.8731
  38   2.0000      -0.635235       -17.2856
  39   2.0000      -0.626073       -17.0363
  40   2.0000      -0.593009       -16.1366
  41   2.0000      -0.571880       -15.5617
  42   2.0000      -0.559419       -15.2226
  43   2.0000      -0.551547       -15.0083
  44   2.0000      -0.542416       -14.7599
  45   2.0000      -0.524731       -14.2787
  46   2.0000      -0.518130       -14.0990
  47   2.0000      -0.515563       -14.0292
  48   2.0000      -0.501759       -13.6535
  49   2.0000      -0.494274       -13.4499
  50   2.0000      -0.486040       -13.2258
  51   2.0000      -0.480389       -13.0721
  52   2.0000      -0.470512       -12.8033
  53   2.0000      -0.461929       -12.5697
  54   2.0000      -0.459060       -12.4917
  55   2.0000      -0.454045       -12.3552
  56   2.0000      -0.443379       -12.0649
  57   2.0000      -0.441949       -12.0260
  58   2.0000      -0.435997       -11.8641
  59   2.0000      -0.423109       -11.5134
  60   2.0000      -0.420506       -11.4426
  61   2.0000      -0.411815       -11.2061
  62   2.0000      -0.410099       -11.1594
  63   2.0000      -0.340697        -9.2708
  64   2.0000      -0.326972        -8.8974
  65   2.0000      -0.321552        -8.7499
  66   2.0000      -0.300031        -8.1643
  67   0.0000       0.040393         1.0992
  68   0.0000       0.055811         1.5187
  69   0.0000       0.109910         2.9908
  70   0.0000       0.127406         3.4669
  71   0.0000       0.131502         3.5784

MULLIKEN ATOMIC CHARGES
-----------------------
   0 S :    0.132466
   1 C :   -0.087549
   2 C :   -0.101426
   3 C :    0.026848
   4 C :   -0.154815
   5 H :    0.017345
   6 C :    0.068067
   7 H :    0.020313
   8 H :    0.045122
   9 C :   -0.056575
  10 H :    0.012193
  11 H :    0.017045
  12 C :   -0.049375
  13 H :    0.021115
  14 H :    0.058744
  15 H :    0.041322
  16 S :    0.101757
  17 C :   -0.077056
  18 C :   -0.038093
  19 C :   -0.063285
  20 C :   -0.185641
  21 H :    0.043421
  22 C :    0.065290
  23 H :    0.012430
  24 H :    0.040463
  25 C :   -0.048401
  26 H :    0.023215
  27 H :    0.032851
  28 C :   -0.085867
  29 H :    0.043137
  30 H :    0.030286
  31 H :    0.035187
  32 H :    0.002775
  33 H :    0.056693
Sum of atomic charges:   -0.0000000

LOEWDIN ATOMIC CHARGES
----------------------
   0 S :    0.391266
   1 C :   -0.191007
   2 C :   -0.065179
   3 C :   -0.055968
   4 C :   -0.182149
   5 H :    0.033481
   6 C :   -0.029964
   7 H :    0.029881
   8 H :    0.042969
   9 C :   -0.043047
  10 H :    0.013161
  11 H :    0.024054
  12 C :   -0.065604
  13 H :    0.020658
  14 H :    0.036452
  15 H :    0.032436
  16 S :    0.397424
  17 C :   -0.183358
  18 C :   -0.082882
  19 C :   -0.052110
  20 C :   -0.204758
  21 H :    0.043743
  22 C :   -0.031099
  23 H :    0.024749
  24 H :    0.036002
  25 C :   -0.033028
  26 H :    0.016995
  27 H :    0.027097
  28 C :   -0.075900
  29 H :    0.024812
  30 H :    0.028775
  31 H :    0.027830
  32 H :    0.012184
  33 H :    0.032083

  Mayer bond orders larger than 0.100000
B(  0-S ,  1-C ) :   1.1165 B(  0-S ,  4-C ) :   1.1407 B(  1-C ,  2-C ) :   1.6428
B(  1-C , 32-H ) :   0.9680 B(  2-C ,  3-C ) :   1.2374 B(  2-C ,  6-C ) :   1.0101
B(  3-C ,  4-C ) :   1.5746 B(  3-C ,  5-H ) :   0.9910 B(  4-C , 20-C ) :   1.0423
B(  6-C ,  7-H ) :   0.9430 B(  6-C ,  8-H ) :   0.9274 B(  6-C ,  9-C ) :   1.0782
B(  9-C , 10-H ) :   0.9495 B(  9-C , 11-H ) :   0.9506 B(  9-C , 12-C ) :   1.0782
B( 12-C , 13-H ) :   0.9759 B( 12-C , 14-H ) :   0.9719 B( 12-C , 15-H ) :   0.9715
B( 16-S , 17-C ) :   1.1615 B( 16-S , 20-C ) :   1.1071 B( 17-C , 18-C ) :   1.6304
B( 17-C , 33-H ) :   0.9595 B( 18-C , 19-C ) :   1.2137 B( 18-C , 21-H ) :   0.9801
B( 19-C , 20-C ) :   1.6404 B( 19-C , 22-C ) :   1.0585 B( 22-C , 23-H ) :   0.9401
B( 22-C , 24-H ) :   0.9273 B( 22-C , 25-C ) :   1.0532 B( 25-C , 26-H ) :   0.9534
B( 25-C , 27-H ) :   0.9572 B( 25-C , 28-C ) :   1.0779 B( 28-C , 29-H ) :   0.9762
B( 28-C , 30-H ) :   0.9751 B( 28-C , 31-H ) :   0.9753

Dispersion correction           -0.014507611
FINAL SINGLE POINT ENERGY     -1339.864891128276

DIPOLE MOMENT
-------------
                                X             Y             Z
Electronic contribution:     -6.57020     -22.26388     -11.83195
Nuclear contribution   :      6.74676      22.86853      12.26500
                        -----------------------------------------
Total Dipole Moment    :      0.17656       0.60465       0.43305
                        -----------------------------------------
Magnitude (a.u.)       :      0.76440
Magnitude (Debye)      :      1.94296

Rotational constants in cm-1:     0.016521     0.009182     0.007665
Rotational constants in MHz :   495.281246   275.267729   229.801826

                             ****ORCA TERMINATED NORMALLY****
TOTAL RUN TIME: 0 days 0 hours 0 minutes 21 seconds 915 msec
