                         Program Version 4.2.1 -  RELEASE  -
|  1> ! wB97X-D3 SP def2-SVP
|  2> %pal
|  3> nprocs 24
|  4> end
|  5>
|  6> * xyz 0 1
|  7> S 	 -84.6887 	 -31.9663 	 -79.2662
|  8> C 	 -84.5889 	 -32.1551 	 -81.0077
|  9> C 	 -85.8054 	 -32.0116 	 -81.6391
| 10> C 	 -86.7981 	 -31.5358 	 -80.7191
| 11> C 	 -86.375 	 -31.5699 	 -79.3979
| 12> H 	 -87.8773 	 -31.3518 	 -80.9136
| 13> C 	 -86.1147 	 -32.2779 	 -83.1637
| 14> H 	 -86.7647 	 -33.2149 	 -83.2029
| 15> H 	 -85.2452 	 -32.6262 	 -83.6265
| 16> C 	 -86.6273 	 -31.1257 	 -83.9596
| 17> H 	 -86.6613 	 -31.4994 	 -84.9754
| 18> H 	 -87.5938 	 -30.8663 	 -83.6096
| 19> C 	 -85.7184 	 -29.8873 	 -83.8743
| 20> H 	 -84.828 	 -30.1439 	 -84.4673
| 21> H 	 -86.0375 	 -28.9858 	 -84.3992
| 22> H 	 -85.4284 	 -29.6993 	 -82.8676
| 23> S 	 -87.7319 	 -32.5783 	 -77.2262
| 24> C 	 -88.7069 	 -31.4292 	 -76.3397
| 25> C 	 -88.4437 	 -30.1347 	 -76.6841
| 26> C 	 -87.5532 	 -30.0244 	 -77.7826
| 27> C 	 -87.1652 	 -31.2611 	 -78.2736
| 28> H 	 -88.9006 	 -29.2702 	 -76.0913
| 29> C 	 -87.1158 	 -28.6616 	 -78.3714
| 30> H 	 -87.9121 	 -27.9159 	 -78.6211
| 31> H 	 -86.6515 	 -28.7586 	 -79.3861
| 32> C 	 -86.2665 	 -27.8976 	 -77.3965
| 33> H 	 -85.4159 	 -28.4654 	 -77.1203
| 34> H 	 -86.9204 	 -27.7251 	 -76.5713
| 35> C 	 -85.8548 	 -26.5391 	 -77.9979
| 36> H 	 -85.2746 	 -26.7136 	 -78.868
| 37> H 	 -85.1872 	 -26.1635 	 -77.2401
| 38> H 	 -86.6977 	 -25.9032 	 -78.2353
| 39> H 	 -83.6665 	 -32.5948 	 -81.4759
| 40> H 	 -89.525 	 -31.5952 	 -75.5984
| 41> *
| 42>
| 43>                          ****END OF INPUT****

CARTESIAN COORDINATES (ANGSTROEM)
---------------------------------
  S    -84.688700  -31.966300  -79.266200
  C    -84.588900  -32.155100  -81.007700
  C    -85.805400  -32.011600  -81.639100
  C    -86.798100  -31.535800  -80.719100
  C    -86.375000  -31.569900  -79.397900
  H    -87.877300  -31.351800  -80.913600
  C    -86.114700  -32.277900  -83.163700
  H    -86.764700  -33.214900  -83.202900
  H    -85.245200  -32.626200  -83.626500
  C    -86.627300  -31.125700  -83.959600
  H    -86.661300  -31.499400  -84.975400
  H    -87.593800  -30.866300  -83.609600
  C    -85.718400  -29.887300  -83.874300
  H    -84.828000  -30.143900  -84.467300
  H    -86.037500  -28.985800  -84.399200
  H    -85.428400  -29.699300  -82.867600
  S    -87.731900  -32.578300  -77.226200
  C    -88.706900  -31.429200  -76.339700
  C    -88.443700  -30.134700  -76.684100
  C    -87.553200  -30.024400  -77.782600
  C    -87.165200  -31.261100  -78.273600
  H    -88.900600  -29.270200  -76.091300
  C    -87.115800  -28.661600  -78.371400
  H    -87.912100  -27.915900  -78.621100
  H    -86.651500  -28.758600  -79.386100
  C    -86.266500  -27.897600  -77.396500
  H    -85.415900  -28.465400  -77.120300
  H    -86.920400  -27.725100  -76.571300
  C    -85.854800  -26.539100  -77.997900
  H    -85.274600  -26.713600  -78.868000
  H    -85.187200  -26.163500  -77.240100
  H    -86.697700  -25.903200  -78.235300
  H    -83.666500  -32.594800  -81.475900
  H    -89.525000  -31.595200  -75.598400

 Total Charge           Charge          ....    0
 Multiplicity           Mult            ....    1
 Number of Electrons    NEL             ....  134
 Basis Dimension        Dim             ....  322

ORBITAL ENERGIES
----------------

  NO   OCC          E(Eh)            E(eV)
   0   2.0000     -88.966657     -2420.9058
   1   2.0000     -88.965591     -2420.8768
   2   2.0000     -10.322172      -280.8806
   3   2.0000     -10.320783      -280.8428
   4   2.0000     -10.318210      -280.7728
   5   2.0000     -10.316874      -280.7364
   6   2.0000     -10.305823      -280.4357
   7   2.0000     -10.304096      -280.3887
   8   2.0000     -10.296493      -280.1818
   9   2.0000     -10.295496      -280.1547
  10   2.0000     -10.294702      -280.1331
  11   2.0000     -10.290623      -280.0221
  12   2.0000     -10.281644      -279.7778
  13   2.0000     -10.274279      -279.5774
  14   2.0000     -10.272656      -279.5332
  15   2.0000     -10.270939      -279.4865
  16   2.0000      -8.081058      -219.8968
  17   2.0000      -8.080644      -219.8855
  18   2.0000      -6.039559      -164.3447
  19   2.0000      -6.039076      -164.3316
  20   2.0000      -6.035775      -164.2418
  21   2.0000      -6.035172      -164.2254
  22   2.0000      -6.031674      -164.1302
  23   2.0000      -6.031414      -164.1231
  24   2.0000      -1.007889       -27.4261
  25   2.0000      -0.982923       -26.7467
  26   2.0000      -0.915472       -24.9113
  27   2.0000      -0.912564       -24.8321
  28   2.0000      -0.872508       -23.7422
  29   2.0000      -0.848440       -23.0872
  30   2.0000      -0.843294       -22.9472
  31   2.0000      -0.808861       -22.0102
  32   2.0000      -0.785583       -21.3768
  33   2.0000      -0.771389       -20.9906
  34   2.0000      -0.708289       -19.2735
  35   2.0000      -0.693482       -18.8706
  36   2.0000      -0.691234       -18.8094
  37   2.0000      -0.650880       -17.7113
  38   2.0000      -0.641085       -17.4448
  39   2.0000      -0.619260       -16.8509
  40   2.0000      -0.597616       -16.2620
  41   2.0000      -0.572307       -15.5733
  42   2.0000      -0.564848       -15.3703
  43   2.0000      -0.551578       -15.0092
  44   2.0000      -0.543659       -14.7937
  45   2.0000      -0.522274       -14.2118
  46   2.0000      -0.513646       -13.9770
  47   2.0000      -0.507381       -13.8065
  48   2.0000      -0.498567       -13.5667
  49   2.0000      -0.496163       -13.5013
  50   2.0000      -0.487568       -13.2674
  51   2.0000      -0.473670       -12.8892
  52   2.0000      -0.468402       -12.7459
  53   2.0000      -0.463235       -12.6053
  54   2.0000      -0.460120       -12.5205
  55   2.0000      -0.448153       -12.1949
  56   2.0000      -0.445956       -12.1351
  57   2.0000      -0.444974       -12.1083
  58   2.0000      -0.435883       -11.8610
  59   2.0000      -0.420920       -11.4538
  60   2.0000      -0.418654       -11.3922
  61   2.0000      -0.413909       -11.2630
  62   2.0000      -0.412354       -11.2207
  63   2.0000      -0.337807        -9.1922
  64   2.0000      -0.331009        -9.0072
  65   2.0000      -0.325709        -8.8630
  66   2.0000      -0.302919        -8.2428
  67   0.0000       0.043511         1.1840
  68   0.0000       0.053708         1.4615
  69   0.0000       0.116921         3.1816
  70   0.0000       0.118664         3.2290
  71   0.0000       0.126761         3.4493

MULLIKEN ATOMIC CHARGES
-----------------------
   0 S :    0.117939
   1 C :   -0.149860
   2 C :   -0.104371
   3 C :    0.029256
   4 C :   -0.192093
   5 H :    0.033451
   6 C :    0.079893
   7 H :    0.049879
   8 H :   -0.011526
   9 C :   -0.037404
  10 H :    0.031079
  11 H :    0.022978
  12 C :   -0.049964
  13 H :    0.014431
  14 H :    0.034219
  15 H :    0.044003
  16 S :    0.119647
  17 C :   -0.095303
  18 C :   -0.072307
  19 C :    0.033769
  20 C :   -0.201659
  21 H :    0.047573
  22 C :    0.032626
  23 H :    0.018833
  24 H :    0.028308
  25 C :   -0.082433
  26 H :    0.025964
  27 H :    0.018861
  28 C :   -0.007502
  29 H :    0.021568
  30 H :    0.032403
  31 H :    0.033022
  32 H :    0.067783
  33 H :    0.066939
Sum of atomic charges:   -0.0000000

LOEWDIN ATOMIC CHARGES
----------------------
   0 S :    0.407627
   1 C :   -0.207474
   2 C :   -0.063586
   3 C :   -0.062424
   4 C :   -0.204951
   5 H :    0.040253
   6 C :   -0.026164
   7 H :    0.043182
   8 H :    0.016725
   9 C :   -0.037270
  10 H :    0.028761
  11 H :    0.015292
  12 C :   -0.062729
  13 H :    0.025931
  14 H :    0.027030
  15 H :    0.022485
  16 S :    0.396112
  17 C :   -0.192754
  18 C :   -0.084151
  19 C :   -0.046772
  20 C :   -0.202539
  21 H :    0.044804
  22 C :   -0.039607
  23 H :    0.030668
  24 H :    0.029556
  25 C :   -0.032192
  26 H :    0.019650
  27 H :    0.018489
  28 C :   -0.055166
  29 H :    0.020579
  30 H :    0.028526
  31 H :    0.024096
  32 H :    0.036015
  33 H :    0.041998

  Mayer bond orders larger than 0.100000
B(  0-S ,  1-C ) :   1.1369 B(  0-S ,  4-C ) :   1.1534 B(  1-C ,  2-C ) :   1.6300
B(  1-C , 32-H ) :   0.9561 B(  2-C ,  3-C ) :   1.2194 B(  2-C ,  6-C ) :   1.0096
B(  3-C ,  4-C ) :   1.6001 B(  3-C ,  5-H ) :   0.9860 B(  4-C , 20-C ) :   1.0544
B(  6-C ,  7-H ) :   0.9398 B(  6-C ,  8-H ) :   0.9360 B(  6-C ,  9-C ) :   1.0724
B(  9-C , 10-H ) :   0.9546 B(  9-C , 11-H ) :   0.9549 B(  9-C , 12-C ) :   1.0713
B( 12-C , 13-H ) :   0.9732 B( 12-C , 14-H ) :   0.9751 B( 12-C , 15-H ) :   0.9755
B( 16-S , 17-C ) :   1.1433 B( 16-S , 20-C ) :   1.1239 B( 17-C , 18-C ) :   1.6486
B( 17-C , 33-H ) :   0.9562 B( 18-C , 19-C ) :   1.2292 B( 18-C , 21-H ) :   0.9715
B( 19-C , 20-C ) :   1.6164 B( 19-C , 22-C ) :   1.0303 B( 22-C , 23-H ) :   0.9433
B( 22-C , 24-H ) :   0.9363 B( 22-C , 25-C ) :   1.0583 B( 25-C , 26-H ) :   0.9537
B( 25-C , 27-H ) :   0.9560 B( 25-C , 28-C ) :   1.0891 B( 28-C , 29-H ) :   0.9741
B( 28-C , 30-H ) :   0.9734 B( 28-C , 31-H ) :   0.9720

Dispersion correction           -0.014444143
FINAL SINGLE POINT ENERGY     -1339.873061036332

DIPOLE MOMENT
-------------
                                X             Y             Z
Electronic contribution:     -0.99741     -20.50800      16.38024
Nuclear contribution   :      0.81622      20.84277     -16.72558
                        -----------------------------------------
Total Dipole Moment    :     -0.18119       0.33476      -0.34535
                        -----------------------------------------
Magnitude (a.u.)       :      0.51397
Magnitude (Debye)      :      1.30640

Rotational constants in cm-1:     0.017523     0.008983     0.007263
Rotational constants in MHz :   525.324029   269.292845   217.739048

                             ****ORCA TERMINATED NORMALLY****
TOTAL RUN TIME: 0 days 0 hours 0 minutes 22 seconds 749 msec
