                         Program Version 4.2.1 -  RELEASE  -
|  1> ! wB97X-D3 SP def2-SVP
|  2> %pal
|  3> nprocs 24
|  4> end
|  5>
|  6> * xyz 0 1
|  7> S 	 -73.4612 	 0.31652 	 3.94258
|  8> C 	 -73.8764 	 1.42426 	 5.2026
|  9> C 	 -74.9297 	 2.25197 	 4.84731
| 10> C 	 -75.3673 	 1.94878 	 3.49531
| 11> C 	 -74.6681 	 0.958412 	 2.83906
| 12> H 	 -76.2444 	 2.37371 	 3.04447
| 13> C 	 -75.4638 	 3.37089 	 5.7542
| 14> H 	 -75.4702 	 4.27071 	 5.16643
| 15> H 	 -74.7605 	 3.56427 	 6.52409
| 16> C 	 -76.9227 	 3.14501 	 6.11321
| 17> H 	 -77.3867 	 4.14524 	 6.28548
| 18> H 	 -77.456 	 2.63226 	 5.25385
| 19> C 	 -77.1161 	 2.28329 	 7.40383
| 20> H 	 -78.1661 	 2.06771 	 7.6609
| 21> H 	 -76.6136 	 1.34525 	 7.27068
| 22> H 	 -76.6838 	 2.94419 	 8.2055
| 23> S 	 -74.6152 	 1.18408 	 0.0208595
| 24> C 	 -75.4447 	 -0.0446169 	 -0.915708
| 25> C 	 -75.986 	 -1.01731 	 -0.0566629
| 26> C 	 -75.6354 	 -0.85097 	 1.31869
| 27> C 	 -75.0313 	 0.374522 	 1.5498
| 28> H 	 -76.5089 	 -1.82737 	 -0.485618
| 29> C 	 -76.1674 	 -1.75096 	 2.44745
| 30> H 	 -75.293 	 -1.95167 	 3.14245
| 31> H 	 -76.3859 	 -2.7388 	 2.06338
| 32> C 	 -77.2126 	 -1.2282 	 3.38664
| 33> H 	 -77.9674 	 -0.744838 	 2.72361
| 34> H 	 -76.7238 	 -0.490017 	 4.01961
| 35> C 	 -78.0591 	 -2.21533 	 4.14006
| 36> H 	 -78.8338 	 -1.64924 	 4.7039
| 37> H 	 -77.4772 	 -2.75001 	 4.90866
| 38> H 	 -78.5523 	 -3.0237 	 3.56065
| 39> H 	 -73.4088 	 1.40128 	 6.21499
| 40> H 	 -75.4645 	 -0.100594 	 -1.991
| 41> *
| 42>
| 43>                          ****END OF INPUT****

CARTESIAN COORDINATES (ANGSTROEM)
---------------------------------
  S    -73.461200    0.316520    3.942580
  C    -73.876400    1.424260    5.202600
  C    -74.929700    2.251970    4.847310
  C    -75.367300    1.948780    3.495310
  C    -74.668100    0.958412    2.839060
  H    -76.244400    2.373710    3.044470
  C    -75.463800    3.370890    5.754200
  H    -75.470200    4.270710    5.166430
  H    -74.760500    3.564270    6.524090
  C    -76.922700    3.145010    6.113210
  H    -77.386700    4.145240    6.285480
  H    -77.456000    2.632260    5.253850
  C    -77.116100    2.283290    7.403830
  H    -78.166100    2.067710    7.660900
  H    -76.613600    1.345250    7.270680
  H    -76.683800    2.944190    8.205500
  S    -74.615200    1.184080    0.020859
  C    -75.444700   -0.044617   -0.915708
  C    -75.986000   -1.017310   -0.056663
  C    -75.635400   -0.850970    1.318690
  C    -75.031300    0.374522    1.549800
  H    -76.508900   -1.827370   -0.485618
  C    -76.167400   -1.750960    2.447450
  H    -75.293000   -1.951670    3.142450
  H    -76.385900   -2.738800    2.063380
  C    -77.212600   -1.228200    3.386640
  H    -77.967400   -0.744838    2.723610
  H    -76.723800   -0.490017    4.019610
  C    -78.059100   -2.215330    4.140060
  H    -78.833800   -1.649240    4.703900
  H    -77.477200   -2.750010    4.908660
  H    -78.552300   -3.023700    3.560650
  H    -73.408800    1.401280    6.214990
  H    -75.464500   -0.100594   -1.991000

 Total Charge           Charge          ....    0
 Multiplicity           Mult            ....    1
 Number of Electrons    NEL             ....  134
 Basis Dimension        Dim             ....  322

ORBITAL ENERGIES
----------------

  NO   OCC          E(Eh)            E(eV)
   0   2.0000     -88.968316     -2420.9510
   1   2.0000     -88.966939     -2420.9135
   2   2.0000     -10.330013      -281.0939
   3   2.0000     -10.328386      -281.0497
   4   2.0000     -10.321264      -280.8559
   5   2.0000     -10.318355      -280.7767
   6   2.0000     -10.306289      -280.4484
   7   2.0000     -10.305447      -280.4255
   8   2.0000     -10.296670      -280.1866
   9   2.0000     -10.295113      -280.1443
  10   2.0000     -10.294619      -280.1308
  11   2.0000     -10.291445      -280.0445
  12   2.0000     -10.289502      -279.9916
  13   2.0000     -10.281819      -279.7825
  14   2.0000     -10.280413      -279.7443
  15   2.0000     -10.280108      -279.7360
  16   2.0000      -8.082248      -219.9292
  17   2.0000      -8.081589      -219.9112
  18   2.0000      -6.040752      -164.3772
  19   2.0000      -6.040127      -164.3602
  20   2.0000      -6.036749      -164.2683
  21   2.0000      -6.035968      -164.2470
  22   2.0000      -6.033183      -164.1713
  23   2.0000      -6.032445      -164.1512
  24   2.0000      -1.004516       -27.3343
  25   2.0000      -0.982250       -26.7284
  26   2.0000      -0.912838       -24.8396
  27   2.0000      -0.908692       -24.7268
  28   2.0000      -0.867948       -23.6181
  29   2.0000      -0.850055       -23.1312
  30   2.0000      -0.842491       -22.9253
  31   2.0000      -0.813372       -22.1330
  32   2.0000      -0.784271       -21.3411
  33   2.0000      -0.773849       -21.0575
  34   2.0000      -0.707773       -19.2595
  35   2.0000      -0.691066       -18.8049
  36   2.0000      -0.682014       -18.5585
  37   2.0000      -0.664049       -18.0697
  38   2.0000      -0.642066       -17.4715
  39   2.0000      -0.620921       -16.8961
  40   2.0000      -0.594066       -16.1654
  41   2.0000      -0.573067       -15.5940
  42   2.0000      -0.567637       -15.4462
  43   2.0000      -0.546117       -14.8606
  44   2.0000      -0.540768       -14.7150
  45   2.0000      -0.524346       -14.2682
  46   2.0000      -0.517250       -14.0751
  47   2.0000      -0.514430       -13.9984
  48   2.0000      -0.507606       -13.8127
  49   2.0000      -0.497842       -13.5470
  50   2.0000      -0.487749       -13.2723
  51   2.0000      -0.476301       -12.9608
  52   2.0000      -0.471863       -12.8401
  53   2.0000      -0.469869       -12.7858
  54   2.0000      -0.457430       -12.4473
  55   2.0000      -0.449418       -12.2293
  56   2.0000      -0.441896       -12.0246
  57   2.0000      -0.439576       -11.9615
  58   2.0000      -0.432662       -11.7733
  59   2.0000      -0.423333       -11.5195
  60   2.0000      -0.419912       -11.4264
  61   2.0000      -0.413465       -11.2510
  62   2.0000      -0.397371       -10.8130
  63   2.0000      -0.337287        -9.1780
  64   2.0000      -0.332652        -9.0519
  65   2.0000      -0.325443        -8.8558
  66   2.0000      -0.305520        -8.3136
  67   0.0000       0.036618         0.9964
  68   0.0000       0.057767         1.5719
  69   0.0000       0.113785         3.0962
  70   0.0000       0.119227         3.2443
  71   0.0000       0.131212         3.5705

MULLIKEN ATOMIC CHARGES
-----------------------
   0 S :    0.117830
   1 C :   -0.150317
   2 C :   -0.111309
   3 C :    0.042708
   4 C :   -0.174092
   5 H :    0.010575
   6 C :    0.126836
   7 H :    0.026782
   8 H :    0.010294
   9 C :   -0.126034
  10 H :    0.036552
  11 H :    0.045762
  12 C :   -0.054190
  13 H :    0.040906
  14 H :    0.034623
  15 H :    0.035757
  16 S :    0.118213
  17 C :   -0.098577
  18 C :   -0.027801
  19 C :   -0.006839
  20 C :   -0.177276
  21 H :    0.004934
  22 C :    0.071093
  23 H :    0.023410
  24 H :    0.006900
  25 C :   -0.068390
  26 H :    0.025850
  27 H :    0.048138
  28 C :   -0.057651
  29 H :    0.038529
  30 H :    0.022808
  31 H :    0.036125
  32 H :    0.067767
  33 H :    0.060083
Sum of atomic charges:   -0.0000000

LOEWDIN ATOMIC CHARGES
----------------------
   0 S :    0.414173
   1 C :   -0.210451
   2 C :   -0.065588
   3 C :   -0.054148
   4 C :   -0.201366
   5 H :    0.027838
   6 C :   -0.025810
   7 H :    0.035021
   8 H :    0.024981
   9 C :   -0.045738
  10 H :    0.024920
  11 H :    0.030226
  12 C :   -0.068211
  13 H :    0.026583
  14 H :    0.020858
  15 H :    0.029987
  16 S :    0.402389
  17 C :   -0.182901
  18 C :   -0.066469
  19 C :   -0.049174
  20 C :   -0.195493
  21 H :    0.024004
  22 C :   -0.039295
  23 H :    0.032677
  24 H :    0.023216
  25 C :   -0.049270
  26 H :    0.026787
  27 H :    0.029314
  28 C :   -0.068781
  29 H :    0.032742
  30 H :    0.021112
  31 H :    0.027770
  32 H :    0.038448
  33 H :    0.029650

  Mayer bond orders larger than 0.100000
B(  0-S ,  1-C ) :   1.1529 B(  0-S ,  4-C ) :   1.1388 B(  1-C ,  2-C ) :   1.6036
B(  1-C , 32-H ) :   0.9609 B(  2-C ,  3-C ) :   1.2402 B(  2-C ,  6-C ) :   1.0241
B(  3-C ,  4-C ) :   1.5948 B(  3-C ,  5-H ) :   0.9914 B(  4-C , 20-C ) :   1.0297
B(  6-C ,  7-H ) :   0.9359 B(  6-C ,  8-H ) :   0.9450 B(  6-C ,  9-C ) :   1.0482
B(  9-C , 10-H ) :   0.9598 B(  9-C , 11-H ) :   0.9587 B(  9-C , 12-C ) :   1.0686
B( 12-C , 13-H ) :   0.9763 B( 12-C , 14-H ) :   0.9774 B( 12-C , 15-H ) :   0.9777
B( 16-S , 17-C ) :   1.1627 B( 16-S , 20-C ) :   1.1455 B( 17-C , 18-C ) :   1.5912
B( 17-C , 20-C ) :   0.1040 B( 17-C , 33-H ) :   0.9701 B( 18-C , 19-C ) :   1.2511
B( 18-C , 21-H ) :   0.9948 B( 19-C , 20-C ) :   1.5748 B( 19-C , 22-C ) :   1.0571
B( 22-C , 23-H ) :   0.9188 B( 22-C , 24-H ) :   0.9359 B( 22-C , 25-C ) :   1.0610
B( 25-C , 26-H ) :   0.9570 B( 25-C , 27-H ) :   0.9464 B( 25-C , 28-C ) :   1.0937
B( 28-C , 29-H ) :   0.9724 B( 28-C , 30-H ) :   0.9727 B( 28-C , 31-H ) :   0.9727

Dispersion correction           -0.015523025
FINAL SINGLE POINT ENERGY     -1339.886974531634

DIPOLE MOMENT
-------------
                                X             Y             Z
Electronic contribution:     19.72487       2.02986     -20.80697
Nuclear contribution   :    -20.19833      -2.01705      21.11370
                        -----------------------------------------
Total Dipole Moment    :     -0.47347       0.01281       0.30673
                        -----------------------------------------
Magnitude (a.u.)       :      0.56429
Magnitude (Debye)      :      1.43430

Rotational constants in cm-1:     0.019022     0.009107     0.007581
Rotational constants in MHz :   570.279620   273.029242   227.274539

                             ****ORCA TERMINATED NORMALLY****
TOTAL RUN TIME: 0 days 0 hours 0 minutes 21 seconds 318 msec
