                         Program Version 4.2.1 -  RELEASE  -
|  1> ! wB97X-D3 SP def2-SVP
|  2> %pal
|  3> nprocs 24
|  4> end
|  5>
|  6> * xyz 0 1
|  7> S 	 -71.1674 	 -43.6721 	 -94.267
|  8> C 	 -70.8652 	 -41.9866 	 -94.5986
|  9> C 	 -70.9164 	 -41.8165 	 -95.9693
| 10> C 	 -71.2209 	 -42.9563 	 -96.7559
| 11> C 	 -71.4587 	 -44.0681 	 -95.9659
| 12> H 	 -71.3554 	 -42.8519 	 -97.8157
| 13> C 	 -70.8574 	 -40.4359 	 -96.5926
| 14> H 	 -71.6427 	 -39.8926 	 -96.0642
| 15> H 	 -71.2122 	 -40.5572 	 -97.5824
| 16> C 	 -69.5053 	 -39.7498 	 -96.4212
| 17> H 	 -69.4808 	 -38.8142 	 -97.0415
| 18> H 	 -69.3102 	 -39.463 	 -95.4202
| 19> C 	 -68.3905 	 -40.7134 	 -96.7848
| 20> H 	 -67.459 	 -40.2681 	 -96.6628
| 21> H 	 -68.3128 	 -41.5886 	 -96.0785
| 22> H 	 -68.5323 	 -41.141 	 -97.7844
| 23> S 	 -71.3921 	 -46.8043 	 -96.2593
| 24> C 	 -72.6421 	 -47.6216 	 -97.2112
| 25> C 	 -73.5285 	 -46.6755 	 -97.7284
| 26> C 	 -73.2491 	 -45.3665 	 -97.3257
| 27> C 	 -72.1456 	 -45.2496 	 -96.4676
| 28> H 	 -74.3228 	 -47.0107 	 -98.3276
| 29> C 	 -74.1505 	 -44.2347 	 -97.7937
| 30> H 	 -74.7963 	 -44.5901 	 -98.5882
| 31> H 	 -73.5377 	 -43.5352 	 -98.2383
| 32> C 	 -75.0406 	 -43.7002 	 -96.6696
| 33> H 	 -75.5887 	 -42.8688 	 -97.0414
| 34> H 	 -74.3713 	 -43.5162 	 -95.8783
| 35> C 	 -76.2536 	 -44.6047 	 -96.2343
| 36> H 	 -76.6516 	 -44.2761 	 -95.2649
| 37> H 	 -75.9422 	 -45.595 	 -95.926
| 38> H 	 -77.0048 	 -44.6558 	 -96.9513
| 39> H 	 -70.666 	 -41.1453 	 -93.9575
| 40> H 	 -72.6706 	 -48.6544 	 -97.5067
| 41> *
| 42>
| 43>                          ****END OF INPUT****

CARTESIAN COORDINATES (ANGSTROEM)
---------------------------------
  S    -71.167400  -43.672100  -94.267000
  C    -70.865200  -41.986600  -94.598600
  C    -70.916400  -41.816500  -95.969300
  C    -71.220900  -42.956300  -96.755900
  C    -71.458700  -44.068100  -95.965900
  H    -71.355400  -42.851900  -97.815700
  C    -70.857400  -40.435900  -96.592600
  H    -71.642700  -39.892600  -96.064200
  H    -71.212200  -40.557200  -97.582400
  C    -69.505300  -39.749800  -96.421200
  H    -69.480800  -38.814200  -97.041500
  H    -69.310200  -39.463000  -95.420200
  C    -68.390500  -40.713400  -96.784800
  H    -67.459000  -40.268100  -96.662800
  H    -68.312800  -41.588600  -96.078500
  H    -68.532300  -41.141000  -97.784400
  S    -71.392100  -46.804300  -96.259300
  C    -72.642100  -47.621600  -97.211200
  C    -73.528500  -46.675500  -97.728400
  C    -73.249100  -45.366500  -97.325700
  C    -72.145600  -45.249600  -96.467600
  H    -74.322800  -47.010700  -98.327600
  C    -74.150500  -44.234700  -97.793700
  H    -74.796300  -44.590100  -98.588200
  H    -73.537700  -43.535200  -98.238300
  C    -75.040600  -43.700200  -96.669600
  H    -75.588700  -42.868800  -97.041400
  H    -74.371300  -43.516200  -95.878300
  C    -76.253600  -44.604700  -96.234300
  H    -76.651600  -44.276100  -95.264900
  H    -75.942200  -45.595000  -95.926000
  H    -77.004800  -44.655800  -96.951300
  H    -70.666000  -41.145300  -93.957500
  H    -72.670600  -48.654400  -97.506700

 Total Charge           Charge          ....    0
 Multiplicity           Mult            ....    1
 Number of Electrons    NEL             ....  134
 Basis Dimension        Dim             ....  322

ORBITAL ENERGIES
----------------

  NO   OCC          E(Eh)            E(eV)
   0   2.0000     -88.969914     -2420.9945
   1   2.0000     -88.966337     -2420.8971
   2   2.0000     -10.333230      -281.1815
   3   2.0000     -10.326785      -281.0061
   4   2.0000     -10.318166      -280.7716
   5   2.0000     -10.312761      -280.6245
   6   2.0000     -10.300402      -280.2882
   7   2.0000     -10.294280      -280.1216
   8   2.0000     -10.293713      -280.1062
   9   2.0000     -10.288430      -279.9624
  10   2.0000     -10.286049      -279.8976
  11   2.0000     -10.284709      -279.8612
  12   2.0000     -10.281272      -279.7676
  13   2.0000     -10.277579      -279.6672
  14   2.0000     -10.269981      -279.4604
  15   2.0000     -10.269591      -279.4498
  16   2.0000      -8.083965      -219.9759
  17   2.0000      -8.080710      -219.8873
  18   2.0000      -6.042607      -164.4277
  19   2.0000      -6.039148      -164.3336
  20   2.0000      -6.038418      -164.3137
  21   2.0000      -6.035119      -164.2239
  22   2.0000      -6.034741      -164.2137
  23   2.0000      -6.031724      -164.1316
  24   2.0000      -1.006981       -27.4013
  25   2.0000      -0.985294       -26.8112
  26   2.0000      -0.915902       -24.9230
  27   2.0000      -0.907432       -24.6925
  28   2.0000      -0.870150       -23.6780
  29   2.0000      -0.849987       -23.1293
  30   2.0000      -0.844102       -22.9692
  31   2.0000      -0.814823       -22.1725
  32   2.0000      -0.784529       -21.3481
  33   2.0000      -0.773182       -21.0394
  34   2.0000      -0.713557       -19.4169
  35   2.0000      -0.703415       -19.1409
  36   2.0000      -0.692176       -18.8351
  37   2.0000      -0.666404       -18.1338
  38   2.0000      -0.638385       -17.3713
  39   2.0000      -0.615841       -16.7579
  40   2.0000      -0.595281       -16.1984
  41   2.0000      -0.577402       -15.7119
  42   2.0000      -0.562892       -15.3171
  43   2.0000      -0.558215       -15.1898
  44   2.0000      -0.547656       -14.9025
  45   2.0000      -0.536804       -14.6072
  46   2.0000      -0.518524       -14.1097
  47   2.0000      -0.513961       -13.9856
  48   2.0000      -0.508665       -13.8415
  49   2.0000      -0.492851       -13.4112
  50   2.0000      -0.487559       -13.2672
  51   2.0000      -0.477342       -12.9891
  52   2.0000      -0.474528       -12.9126
  53   2.0000      -0.465271       -12.6607
  54   2.0000      -0.461139       -12.5482
  55   2.0000      -0.447655       -12.1813
  56   2.0000      -0.444375       -12.0921
  57   2.0000      -0.438032       -11.9195
  58   2.0000      -0.434061       -11.8114
  59   2.0000      -0.424016       -11.5381
  60   2.0000      -0.420092       -11.4313
  61   2.0000      -0.409199       -11.1349
  62   2.0000      -0.403046       -10.9674
  63   2.0000      -0.345745        -9.4082
  64   2.0000      -0.333804        -9.0833
  65   2.0000      -0.329016        -8.9530
  66   2.0000      -0.291882        -7.9425
  67   0.0000       0.025845         0.7033
  68   0.0000       0.061578         1.6756
  69   0.0000       0.116463         3.1691
  70   0.0000       0.120271         3.2727
  71   0.0000       0.137702         3.7471

MULLIKEN ATOMIC CHARGES
-----------------------
   0 S :    0.119794
   1 C :   -0.099696
   2 C :   -0.176048
   3 C :    0.043793
   4 C :   -0.127324
   5 H :    0.015450
   6 C :    0.096438
   7 H :    0.034281
   8 H :    0.001979
   9 C :   -0.056363
  10 H :    0.039216
  11 H :    0.015835
  12 C :   -0.045318
  13 H :    0.016720
  14 H :    0.046154
  15 H :    0.028931
  16 S :    0.108883
  17 C :   -0.092988
  18 C :   -0.028808
  19 C :   -0.058675
  20 C :   -0.165921
  21 H :    0.002075
  22 C :    0.141637
  23 H :   -0.000555
  24 H :   -0.003379
  25 C :   -0.036200
  26 H :    0.023396
  27 H :    0.030779
  28 C :   -0.042993
  29 H :    0.027688
  30 H :    0.021613
  31 H :    0.021652
  32 H :    0.043721
  33 H :    0.054232
Sum of atomic charges:    0.0000000

LOEWDIN ATOMIC CHARGES
----------------------
   0 S :    0.409838
   1 C :   -0.205491
   2 C :   -0.063146
   3 C :   -0.058441
   4 C :   -0.193031
   5 H :    0.030493
   6 C :   -0.030723
   7 H :    0.034648
   8 H :    0.020688
   9 C :   -0.038508
  10 H :    0.030532
  11 H :    0.017261
  12 C :   -0.065188
  13 H :    0.014411
  14 H :    0.035081
  15 H :    0.024173
  16 S :    0.411925
  17 C :   -0.179540
  18 C :   -0.066263
  19 C :   -0.051343
  20 C :   -0.209625
  21 H :    0.025177
  22 C :   -0.021477
  23 H :    0.026412
  24 H :    0.015759
  25 C :   -0.022559
  26 H :    0.021801
  27 H :    0.019992
  28 C :   -0.060237
  29 H :    0.031437
  30 H :    0.021996
  31 H :    0.012878
  32 H :    0.032383
  33 H :    0.028687

  Mayer bond orders larger than 0.100000
B(  0-S ,  1-C ) :   1.1289 B(  0-S ,  4-C ) :   1.1598 B(  1-C ,  2-C ) :   1.5967
B(  1-C ,  4-C ) :   0.1002 B(  1-C , 32-H ) :   0.9716 B(  2-C ,  3-C ) :   1.2739
B(  2-C ,  6-C ) :   1.0066 B(  3-C ,  4-C ) :   1.5242 B(  3-C ,  5-H ) :   0.9956
B(  4-C , 20-C ) :   1.0291 B(  6-C ,  7-H ) :   0.9429 B(  6-C ,  8-H ) :   0.9410
B(  6-C ,  9-C ) :   1.0673 B(  9-C , 10-H ) :   0.9568 B(  9-C , 11-H ) :   0.9522
B(  9-C , 12-C ) :   1.0892 B( 12-C , 13-H ) :   0.9724 B( 12-C , 14-H ) :   0.9604
B( 12-C , 15-H ) :   0.9784 B( 16-S , 17-C ) :   1.1689 B( 16-S , 20-C ) :   1.1550
B( 17-C , 18-C ) :   1.5720 B( 17-C , 20-C ) :   0.1107 B( 17-C , 33-H ) :   0.9687
B( 18-C , 19-C ) :   1.2862 B( 18-C , 21-H ) :   0.9989 B( 19-C , 20-C ) :   1.5497
B( 19-C , 22-C ) :   1.0341 B( 22-C , 23-H ) :   0.9278 B( 22-C , 24-H ) :   0.9237
B( 22-C , 25-C ) :   1.0729 B( 25-C , 26-H ) :   0.9571 B( 25-C , 27-H ) :   0.9611
B( 25-C , 28-C ) :   1.0769 B( 28-C , 29-H ) :   0.9722 B( 28-C , 30-H ) :   0.9749
B( 28-C , 31-H ) :   0.9784

Dispersion correction           -0.015658181
FINAL SINGLE POINT ENERGY     -1339.866993324183

DIPOLE MOMENT
-------------
                                X             Y             Z
Electronic contribution:      7.00414     -18.18669       8.18899
Nuclear contribution   :     -7.31877      18.68205      -8.64068
                        -----------------------------------------
Total Dipole Moment    :     -0.31463       0.49536      -0.45169
                        -----------------------------------------
Magnitude (a.u.)       :      0.74053
Magnitude (Debye)      :      1.88229

Rotational constants in cm-1:     0.021479     0.008542     0.007433
Rotational constants in MHz :   643.919391   256.080063   222.830053

                             ****ORCA TERMINATED NORMALLY****
TOTAL RUN TIME: 0 days 0 hours 0 minutes 22 seconds 699 msec
