                         Program Version 4.2.1 -  RELEASE  -
|  1> ! wB97X-D3 SP def2-SVP
|  2> %pal
|  3> nprocs 24
|  4> end
|  5>
|  6> * xyz 0 1
|  7> S 	 41.5369 	 -19.0827 	 -106.422
|  8> C 	 40.5652 	 -19.4213 	 -107.814
|  9> C 	 39.2086 	 -19.5547 	 -107.467
| 10> C 	 38.9732 	 -19.5005 	 -106.08
| 11> C 	 40.1304 	 -19.4402 	 -105.355
| 12> H 	 37.9277 	 -19.3482 	 -105.673
| 13> C 	 38.1325 	 -19.8376 	 -108.438
| 14> H 	 38.5319 	 -19.2848 	 -109.295
| 15> H 	 37.1911 	 -19.365 	 -108.063
| 16> C 	 37.9656 	 -21.3856 	 -108.798
| 17> H 	 37.5996 	 -21.4861 	 -109.845
| 18> H 	 39.0076 	 -21.8698 	 -108.75
| 19> C 	 37.0019 	 -22.0175 	 -107.856
| 20> H 	 36.0094 	 -21.9874 	 -108.267
| 21> H 	 37.2262 	 -23.1034 	 -107.899
| 22> H 	 37.0169 	 -21.5349 	 -106.809
| 23> S 	 40.9564 	 -17.6298 	 -103.382
| 24> C 	 40.7049 	 -18.1925 	 -101.785
| 25> C 	 40.2893 	 -19.468 	 -101.627
| 26> C 	 40.1171 	 -20.0573 	 -102.908
| 27> C 	 40.2021 	 -19.1515 	 -103.961
| 28> H 	 40.0773 	 -19.9826 	 -100.725
| 29> C 	 39.8175 	 -21.5472 	 -103.055
| 30> H 	 39.2421 	 -21.8063 	 -103.946
| 31> H 	 39.1094 	 -21.818 	 -102.235
| 32> C 	 41.0698 	 -22.4657 	 -103.151
| 33> H 	 41.8831 	 -22.1664 	 -102.517
| 34> H 	 41.4127 	 -22.1643 	 -104.144
| 35> C 	 40.735 	 -23.9286 	 -102.875
| 36> H 	 40.0907 	 -24.0691 	 -101.939
| 37> H 	 41.6592 	 -24.5999 	 -102.897
| 38> H 	 40.1189 	 -24.1279 	 -103.758
| 39> H 	 40.7795 	 -19.3392 	 -108.833
| 40> H 	 40.7115 	 -17.5925 	 -100.894
| 41> *
| 42>
| 43>                          ****END OF INPUT****

CARTESIAN COORDINATES (ANGSTROEM)
---------------------------------
  S     41.536900  -19.082700  -106.422000
  C     40.565200  -19.421300  -107.814000
  C     39.208600  -19.554700  -107.467000
  C     38.973200  -19.500500  -106.080000
  C     40.130400  -19.440200  -105.355000
  H     37.927700  -19.348200  -105.673000
  C     38.132500  -19.837600  -108.438000
  H     38.531900  -19.284800  -109.295000
  H     37.191100  -19.365000  -108.063000
  C     37.965600  -21.385600  -108.798000
  H     37.599600  -21.486100  -109.845000
  H     39.007600  -21.869800  -108.750000
  C     37.001900  -22.017500  -107.856000
  H     36.009400  -21.987400  -108.267000
  H     37.226200  -23.103400  -107.899000
  H     37.016900  -21.534900  -106.809000
  S     40.956400  -17.629800  -103.382000
  C     40.704900  -18.192500  -101.785000
  C     40.289300  -19.468000  -101.627000
  C     40.117100  -20.057300  -102.908000
  C     40.202100  -19.151500  -103.961000
  H     40.077300  -19.982600  -100.725000
  C     39.817500  -21.547200  -103.055000
  H     39.242100  -21.806300  -103.946000
  H     39.109400  -21.818000  -102.235000
  C     41.069800  -22.465700  -103.151000
  H     41.883100  -22.166400  -102.517000
  H     41.412700  -22.164300  -104.144000
  C     40.735000  -23.928600  -102.875000
  H     40.090700  -24.069100  -101.939000
  H     41.659200  -24.599900  -102.897000
  H     40.118900  -24.127900  -103.758000
  H     40.779500  -19.339200  -108.833000
  H     40.711500  -17.592500  -100.894000

 Total Charge           Charge          ....    0
 Multiplicity           Mult            ....    1
 Number of Electrons    NEL             ....  134
 Basis Dimension        Dim             ....  322

ORBITAL ENERGIES
----------------

  NO   OCC          E(Eh)            E(eV)
   0   2.0000     -88.969666     -2420.9877
   1   2.0000     -88.967178     -2420.9200
   2   2.0000     -10.326166      -280.9893
   3   2.0000     -10.320793      -280.8431
   4   2.0000     -10.310604      -280.5658
   5   2.0000     -10.308955      -280.5209
   6   2.0000     -10.301174      -280.3092
   7   2.0000     -10.295425      -280.1527
   8   2.0000     -10.295143      -280.1451
   9   2.0000     -10.293321      -280.0955
  10   2.0000     -10.292262      -280.0667
  11   2.0000     -10.290793      -280.0267
  12   2.0000     -10.288072      -279.9527
  13   2.0000     -10.285970      -279.8955
  14   2.0000     -10.281298      -279.7683
  15   2.0000     -10.280779      -279.7542
  16   2.0000      -8.083561      -219.9649
  17   2.0000      -8.081979      -219.9218
  18   2.0000      -6.042114      -164.4143
  19   2.0000      -6.040468      -164.3695
  20   2.0000      -6.038327      -164.3112
  21   2.0000      -6.036758      -164.2685
  22   2.0000      -6.034177      -164.1983
  23   2.0000      -6.032477      -164.1520
  24   2.0000      -1.008093       -27.4316
  25   2.0000      -0.985948       -26.8290
  26   2.0000      -0.910932       -24.7877
  27   2.0000      -0.905268       -24.6336
  28   2.0000      -0.872428       -23.7400
  29   2.0000      -0.854018       -23.2390
  30   2.0000      -0.849750       -23.1229
  31   2.0000      -0.817242       -22.2383
  32   2.0000      -0.778120       -21.1737
  33   2.0000      -0.760606       -20.6971
  34   2.0000      -0.708676       -19.2841
  35   2.0000      -0.694459       -18.8972
  36   2.0000      -0.689342       -18.7579
  37   2.0000      -0.661612       -18.0034
  38   2.0000      -0.634999       -17.2792
  39   2.0000      -0.615370       -16.7451
  40   2.0000      -0.598062       -16.2741
  41   2.0000      -0.567718       -15.4484
  42   2.0000      -0.558266       -15.1912
  43   2.0000      -0.556142       -15.1334
  44   2.0000      -0.537350       -14.6220
  45   2.0000      -0.517336       -14.0774
  46   2.0000      -0.512962       -13.9584
  47   2.0000      -0.511045       -13.9062
  48   2.0000      -0.506006       -13.7691
  49   2.0000      -0.501247       -13.6396
  50   2.0000      -0.483349       -13.1526
  51   2.0000      -0.481357       -13.0984
  52   2.0000      -0.468909       -12.7597
  53   2.0000      -0.462214       -12.5775
  54   2.0000      -0.459520       -12.5042
  55   2.0000      -0.448475       -12.2036
  56   2.0000      -0.440349       -11.9825
  57   2.0000      -0.434239       -11.8162
  58   2.0000      -0.432398       -11.7662
  59   2.0000      -0.427923       -11.6444
  60   2.0000      -0.418252       -11.3812
  61   2.0000      -0.409362       -11.1393
  62   2.0000      -0.404409       -11.0045
  63   2.0000      -0.346915        -9.4400
  64   2.0000      -0.333022        -9.0620
  65   2.0000      -0.323405        -8.8003
  66   2.0000      -0.289777        -7.8852
  67   0.0000       0.029045         0.7904
  68   0.0000       0.053346         1.4516
  69   0.0000       0.102751         2.7960
  70   0.0000       0.118699         3.2300
  71   0.0000       0.130202         3.5430

MULLIKEN ATOMIC CHARGES
-----------------------
   0 S :    0.109153
   1 C :   -0.068627
   2 C :   -0.137203
   3 C :    0.014487
   4 C :   -0.149055
   5 H :    0.048931
   6 C :    0.032710
   7 H :    0.019880
   8 H :    0.034685
   9 C :   -0.078981
  10 H :    0.038170
  11 H :    0.045826
  12 C :   -0.062846
  13 H :    0.029782
  14 H :    0.036556
  15 H :    0.052632
  16 S :    0.112906
  17 C :   -0.054645
  18 C :   -0.011577
  19 C :   -0.047734
  20 C :   -0.164280
  21 H :    0.005671
  22 C :    0.030774
  23 H :    0.021182
  24 H :    0.019520
  25 C :   -0.064716
  26 H :    0.020366
  27 H :    0.031317
  28 C :   -0.067912
  29 H :    0.051023
  30 H :    0.056328
  31 H :    0.030689
  32 H :    0.019450
  33 H :    0.045539
Sum of atomic charges:   -0.0000000

LOEWDIN ATOMIC CHARGES
----------------------
   0 S :    0.396641
   1 C :   -0.200806
   2 C :   -0.068822
   3 C :   -0.063504
   4 C :   -0.183622
   5 H :    0.046656
   6 C :   -0.039966
   7 H :    0.030310
   8 H :    0.033124
   9 C :   -0.043709
  10 H :    0.027332
  11 H :    0.032068
  12 C :   -0.077782
  13 H :    0.023363
  14 H :    0.032840
  15 H :    0.034836
  16 S :    0.396673
  17 C :   -0.182558
  18 C :   -0.067401
  19 C :   -0.042173
  20 C :   -0.197739
  21 H :    0.029448
  22 C :   -0.035559
  23 H :    0.027863
  24 H :    0.025553
  25 C :   -0.043365
  26 H :    0.014751
  27 H :    0.028313
  28 C :   -0.075605
  29 H :    0.035254
  30 H :    0.036301
  31 H :    0.027312
  32 H :    0.017116
  33 H :    0.026857

  Mayer bond orders larger than 0.100000
B(  0-S ,  1-C ) :   1.1359 B(  0-S ,  4-C ) :   1.1319 B(  1-C ,  2-C ) :   1.5959
B(  1-C , 32-H ) :   0.9675 B(  2-C ,  3-C ) :   1.2659 B(  2-C ,  6-C ) :   1.0356
B(  3-C ,  4-C ) :   1.5681 B(  3-C ,  5-H ) :   0.9751 B(  4-C , 20-C ) :   1.0690
B(  6-C ,  7-H ) :   0.9319 B(  6-C ,  8-H ) :   0.9470 B(  6-C ,  9-C ) :   1.0411
B(  9-C , 10-H ) :   0.9565 B(  9-C , 11-H ) :   0.9611 B(  9-C , 12-C ) :   1.0713
B( 12-C , 13-H ) :   0.9738 B( 12-C , 14-H ) :   0.9700 B( 12-C , 15-H ) :   0.9717
B( 16-S , 17-C ) :   1.1572 B( 16-S , 20-C ) :   1.1062 B( 17-C , 18-C ) :   1.6256
B( 17-C , 33-H ) :   0.9554 B( 18-C , 19-C ) :   1.2340 B( 18-C , 21-H ) :   0.9976
B( 19-C , 20-C ) :   1.6123 B( 19-C , 22-C ) :   1.0475 B( 22-C , 23-H ) :   0.9357
B( 22-C , 24-H ) :   0.9426 B( 22-C , 25-C ) :   1.0347 B( 25-C , 26-H ) :   0.9641
B( 25-C , 27-H ) :   0.9567 B( 25-C , 28-C ) :   1.0596 B( 28-C , 29-H ) :   0.9738
B( 28-C , 30-H ) :   0.9727 B( 28-C , 31-H ) :   0.9757

Dispersion correction           -0.014461448
FINAL SINGLE POINT ENERGY     -1339.849490703719

DIPOLE MOMENT
-------------
                                X             Y             Z
Electronic contribution:     13.41153      24.37560       5.07092
Nuclear contribution   :    -13.87685     -24.68383      -5.13180
                        -----------------------------------------
Total Dipole Moment    :     -0.46532      -0.30823      -0.06088
                        -----------------------------------------
Magnitude (a.u.)       :      0.56146
Magnitude (Debye)      :      1.42712

Rotational constants in cm-1:     0.017256     0.009468     0.007285
Rotational constants in MHz :   517.311743   283.842957   218.404672

                             ****ORCA TERMINATED NORMALLY****
TOTAL RUN TIME: 0 days 0 hours 0 minutes 20 seconds 823 msec
