                         Program Version 4.2.1 -  RELEASE  -
|  1> ! wB97X-D3 SP def2-SVP
|  2> %pal
|  3> nprocs 24
|  4> end
|  5>
|  6> * xyz 0 1
|  7> S 	 -65.3245 	 17.5104 	 -112.102
|  8> C 	 -66.6418 	 16.4338 	 -111.749
|  9> C 	 -67.8024 	 17.199 	 -111.592
| 10> C 	 -67.6329 	 18.5639 	 -111.988
| 11> C 	 -66.2926 	 18.9432 	 -112.107
| 12> H 	 -68.3526 	 19.3163 	 -112.141
| 13> C 	 -69.1532 	 16.577 	 -111.108
| 14> H 	 -69.4596 	 17.0412 	 -110.191
| 15> H 	 -69.0717 	 15.5853 	 -110.793
| 16> C 	 -70.3931 	 16.8171 	 -112.038
| 17> H 	 -70.5414 	 17.8887 	 -112.156
| 18> H 	 -70.123 	 16.23 	 -112.926
| 19> C 	 -71.5766 	 16.1489 	 -111.401
| 20> H 	 -71.9744 	 16.7362 	 -110.594
| 21> H 	 -72.4731 	 15.8926 	 -112.003
| 22> H 	 -71.358 	 15.1435 	 -111.066
| 23> S 	 -66.2333 	 20.8552 	 -114.014
| 24> C 	 -65.3122 	 22.2992 	 -113.85
| 25> C 	 -64.6446 	 22.3276 	 -112.634
| 26> C 	 -64.827 	 21.1541 	 -111.861
| 27> C 	 -65.7072 	 20.218 	 -112.46
| 28> H 	 -64.1005 	 23.205 	 -112.339
| 29> C 	 -64.1528 	 21.0376 	 -110.486
| 30> H 	 -63.1639 	 21.5209 	 -110.424
| 31> H 	 -63.9958 	 19.9881 	 -110.234
| 32> C 	 -64.9895 	 21.6093 	 -109.311
| 33> H 	 -64.4695 	 21.5689 	 -108.319
| 34> H 	 -65.9096 	 20.9617 	 -109.24
| 35> C 	 -65.4338 	 23.0079 	 -109.407
| 36> H 	 -64.5793 	 23.6906 	 -109.41
| 37> H 	 -66.0895 	 23.2556 	 -108.619
| 38> H 	 -66.0445 	 23.2081 	 -110.301
| 39> H 	 -66.6891 	 15.3612 	 -111.608
| 40> H 	 -65.352 	 23.1073 	 -114.632
| 41> *
| 42>
| 43>                          ****END OF INPUT****

CARTESIAN COORDINATES (ANGSTROEM)
---------------------------------
  S    -65.324500   17.510400  -112.102000
  C    -66.641800   16.433800  -111.749000
  C    -67.802400   17.199000  -111.592000
  C    -67.632900   18.563900  -111.988000
  C    -66.292600   18.943200  -112.107000
  H    -68.352600   19.316300  -112.141000
  C    -69.153200   16.577000  -111.108000
  H    -69.459600   17.041200  -110.191000
  H    -69.071700   15.585300  -110.793000
  C    -70.393100   16.817100  -112.038000
  H    -70.541400   17.888700  -112.156000
  H    -70.123000   16.230000  -112.926000
  C    -71.576600   16.148900  -111.401000
  H    -71.974400   16.736200  -110.594000
  H    -72.473100   15.892600  -112.003000
  H    -71.358000   15.143500  -111.066000
  S    -66.233300   20.855200  -114.014000
  C    -65.312200   22.299200  -113.850000
  C    -64.644600   22.327600  -112.634000
  C    -64.827000   21.154100  -111.861000
  C    -65.707200   20.218000  -112.460000
  H    -64.100500   23.205000  -112.339000
  C    -64.152800   21.037600  -110.486000
  H    -63.163900   21.520900  -110.424000
  H    -63.995800   19.988100  -110.234000
  C    -64.989500   21.609300  -109.311000
  H    -64.469500   21.568900  -108.319000
  H    -65.909600   20.961700  -109.240000
  C    -65.433800   23.007900  -109.407000
  H    -64.579300   23.690600  -109.410000
  H    -66.089500   23.255600  -108.619000
  H    -66.044500   23.208100  -110.301000
  H    -66.689100   15.361200  -111.608000
  H    -65.352000   23.107300  -114.632000

 Total Charge           Charge          ....    0
 Multiplicity           Mult            ....    1
 Number of Electrons    NEL             ....  134
 Basis Dimension        Dim             ....  322

ORBITAL ENERGIES
----------------

  NO   OCC          E(Eh)            E(eV)
   0   2.0000     -88.966357     -2420.8977
   1   2.0000     -88.965968     -2420.8871
   2   2.0000     -10.332001      -281.1480
   3   2.0000     -10.330368      -281.1036
   4   2.0000     -10.321710      -280.8680
   5   2.0000     -10.315157      -280.6897
   6   2.0000     -10.311597      -280.5928
   7   2.0000     -10.306763      -280.4613
   8   2.0000     -10.295497      -280.1547
   9   2.0000     -10.294068      -280.1158
  10   2.0000     -10.293053      -280.0882
  11   2.0000     -10.288926      -279.9759
  12   2.0000     -10.288564      -279.9661
  13   2.0000     -10.284452      -279.8542
  14   2.0000     -10.275808      -279.6190
  15   2.0000     -10.265551      -279.3398
  16   2.0000      -8.081410      -219.9063
  17   2.0000      -8.080809      -219.8900
  18   2.0000      -6.039788      -164.3510
  19   2.0000      -6.039330      -164.3385
  20   2.0000      -6.035638      -164.2381
  21   2.0000      -6.035097      -164.2233
  22   2.0000      -6.032513      -164.1530
  23   2.0000      -6.031718      -164.1314
  24   2.0000      -1.008665       -27.4472
  25   2.0000      -0.986037       -26.8314
  26   2.0000      -0.912089       -24.8192
  27   2.0000      -0.908514       -24.7219
  28   2.0000      -0.873230       -23.7618
  29   2.0000      -0.851677       -23.1753
  30   2.0000      -0.844972       -22.9929
  31   2.0000      -0.814268       -22.1574
  32   2.0000      -0.785943       -21.3866
  33   2.0000      -0.772013       -21.0075
  34   2.0000      -0.710121       -19.3234
  35   2.0000      -0.695596       -18.9281
  36   2.0000      -0.679348       -18.4860
  37   2.0000      -0.664935       -18.0938
  38   2.0000      -0.643893       -17.5212
  39   2.0000      -0.618052       -16.8181
  40   2.0000      -0.594501       -16.1772
  41   2.0000      -0.578593       -15.7443
  42   2.0000      -0.571634       -15.5549
  43   2.0000      -0.557327       -15.1656
  44   2.0000      -0.544183       -14.8080
  45   2.0000      -0.519469       -14.1355
  46   2.0000      -0.516225       -14.0472
  47   2.0000      -0.509974       -13.8771
  48   2.0000      -0.507825       -13.8186
  49   2.0000      -0.496089       -13.4993
  50   2.0000      -0.487713       -13.2714
  51   2.0000      -0.480838       -13.0843
  52   2.0000      -0.476282       -12.9603
  53   2.0000      -0.471968       -12.8429
  54   2.0000      -0.464573       -12.6417
  55   2.0000      -0.449274       -12.2254
  56   2.0000      -0.440243       -11.9796
  57   2.0000      -0.436630       -11.8813
  58   2.0000      -0.432659       -11.7733
  59   2.0000      -0.416992       -11.3469
  60   2.0000      -0.415838       -11.3155
  61   2.0000      -0.412019       -11.2116
  62   2.0000      -0.409114       -11.1326
  63   2.0000      -0.337656        -9.1881
  64   2.0000      -0.334268        -9.0959
  65   2.0000      -0.326812        -8.8930
  66   2.0000      -0.297672        -8.1001
  67   0.0000       0.033550         0.9129
  68   0.0000       0.061861         1.6833
  69   0.0000       0.109440         2.9780
  70   0.0000       0.121910         3.3174
  71   0.0000       0.133770         3.6401

MULLIKEN ATOMIC CHARGES
-----------------------
   0 S :    0.123894
   1 C :   -0.110917
   2 C :   -0.077522
   3 C :    0.042256
   4 C :   -0.154526
   5 H :   -0.004718
   6 C :    0.069104
   7 H :    0.017057
   8 H :   -0.008252
   9 C :   -0.060785
  10 H :    0.045683
  11 H :    0.038871
  12 C :   -0.054953
  13 H :    0.027661
  14 H :    0.030922
  15 H :    0.016537
  16 S :    0.117492
  17 C :   -0.114539
  18 C :   -0.036464
  19 C :   -0.012520
  20 C :   -0.183929
  21 H :    0.017714
  22 C :    0.087030
  23 H :    0.028035
  24 H :    0.025214
  25 C :   -0.105663
  26 H :    0.035797
  27 H :    0.033396
  28 C :   -0.037992
  29 H :    0.020575
  30 H :    0.022740
  31 H :    0.034538
  32 H :    0.048177
  33 H :    0.080086
Sum of atomic charges:   -0.0000000

LOEWDIN ATOMIC CHARGES
----------------------
   0 S :    0.430079
   1 C :   -0.209277
   2 C :   -0.057874
   3 C :   -0.059207
   4 C :   -0.209839
   5 H :    0.021473
   6 C :   -0.025995
   7 H :    0.027167
   8 H :    0.016850
   9 C :   -0.035302
  10 H :    0.026917
  11 H :    0.029186
  12 C :   -0.073271
  13 H :    0.022454
  14 H :    0.030049
  15 H :    0.023419
  16 S :    0.428348
  17 C :   -0.200850
  18 C :   -0.073999
  19 C :   -0.048888
  20 C :   -0.206429
  21 H :    0.031109
  22 C :   -0.032063
  23 H :    0.031276
  24 H :    0.030916
  25 C :   -0.047977
  26 H :    0.029357
  27 H :    0.028566
  28 C :   -0.070287
  29 H :    0.020899
  30 H :    0.022611
  31 H :    0.026233
  32 H :    0.033713
  33 H :    0.040634

  Mayer bond orders larger than 0.100000
B(  0-S ,  1-C ) :   1.1473 B(  0-S ,  4-C ) :   1.1691 B(  1-C ,  2-C ) :   1.5908
B(  1-C ,  4-C ) :   0.1035 B(  1-C , 32-H ) :   0.9703 B(  2-C ,  3-C ) :   1.2440
B(  2-C ,  6-C ) :   1.0168 B(  3-C ,  4-C ) :   1.5586 B(  3-C ,  5-H ) :   1.0024
B(  4-C , 20-C ) :   1.0257 B(  6-C ,  7-H ) :   0.9403 B(  6-C ,  8-H ) :   0.9467
B(  6-C ,  9-C ) :   1.0496 B(  9-C , 10-H ) :   0.9557 B(  9-C , 11-H ) :   0.9586
B(  9-C , 12-C ) :   1.0875 B( 12-C , 13-H ) :   0.9743 B( 12-C , 14-H ) :   0.9716
B( 12-C , 15-H ) :   0.9701 B( 16-S , 17-C ) :   1.1809 B( 16-S , 20-C ) :   1.1629
B( 17-C , 18-C ) :   1.5623 B( 17-C , 20-C ) :   0.1088 B( 17-C , 33-H ) :   0.9613
B( 18-C , 19-C ) :   1.2704 B( 18-C , 21-H ) :   0.9959 B( 19-C , 20-C ) :   1.5495
B( 19-C , 22-C ) :   1.0421 B( 22-C , 23-H ) :   0.9399 B( 22-C , 24-H ) :   0.9324
B( 22-C , 25-C ) :   1.0704 B( 25-C , 26-H ) :   0.9553 B( 25-C , 27-H ) :   0.9522
B( 25-C , 28-C ) :   1.1017 B( 28-C , 29-H ) :   0.9709 B( 28-C , 30-H ) :   0.9675
B( 28-C , 31-H ) :   0.9645

Dispersion correction           -0.014072268
FINAL SINGLE POINT ENERGY     -1339.874462935710

DIPOLE MOMENT
-------------
                                X             Y             Z
Electronic contribution:     14.49390      -0.66914     -15.99422
Nuclear contribution   :    -14.85331       0.79021      16.31245
                        -----------------------------------------
Total Dipole Moment    :     -0.35940       0.12107       0.31823
                        -----------------------------------------
Magnitude (a.u.)       :      0.49507
Magnitude (Debye)      :      1.25838

Rotational constants in cm-1:     0.020794     0.007118     0.006842
Rotational constants in MHz :   623.377523   213.384745   205.108849

                             ****ORCA TERMINATED NORMALLY****
TOTAL RUN TIME: 0 days 0 hours 0 minutes 20 seconds 45 msec
