                         Program Version 4.2.1 -  RELEASE  -
|  1> ! wB97X-D3 SP def2-SVP
|  2> %pal
|  3> nprocs 24
|  4> end
|  5>
|  6> * xyz 0 1
|  7> S 	 -138.584 	 7.95894 	 -3.0515
|  8> C 	 -139.897 	 8.88204 	 -3.71322
|  9> C 	 -140.889 	 8.07249 	 -4.19083
| 10> C 	 -140.615 	 6.72244 	 -3.8723
| 11> C 	 -139.394 	 6.43889 	 -3.23177
| 12> H 	 -141.174 	 5.8528 	 -4.24045
| 13> C 	 -142.172 	 8.5206 	 -4.83076
| 14> H 	 -142.379 	 7.91055 	 -5.74516
| 15> H 	 -141.952 	 9.55065 	 -5.14578
| 16> C 	 -143.407 	 8.53941 	 -3.99596
| 17> H 	 -143.699 	 7.51359 	 -3.85554
| 18> H 	 -143.218 	 8.97043 	 -3.03004
| 19> C 	 -144.596 	 9.29053 	 -4.65219
| 20> H 	 -144.778 	 8.94227 	 -5.67576
| 21> H 	 -145.48 	 9.29629 	 -3.98344
| 22> H 	 -144.3 	 10.3065 	 -4.92566
| 23> S 	 -137.949 	 4.38344 	 -4.14137
| 24> C 	 -137.369 	 3.15856 	 -3.04024
| 25> C 	 -138.037 	 3.22275 	 -1.82256
| 26> C 	 -138.804 	 4.44264 	 -1.73633
| 27> C 	 -138.789 	 5.19443 	 -2.87671
| 28> H 	 -137.779 	 2.4595 	 -1.06379
| 29> C 	 -139.469 	 4.76366 	 -0.417885
| 30> H 	 -139.863 	 3.80973 	 -0.0817967
| 31> H 	 -140.422 	 5.36341 	 -0.537293
| 32> C 	 -138.538 	 5.48245 	 0.526623
| 33> H 	 -138.221 	 6.3813 	 0.0108818
| 34> H 	 -137.701 	 4.8488 	 0.697849
| 35> C 	 -139.13 	 5.80219 	 1.87174
| 36> H 	 -139.905 	 6.57308 	 1.8513
| 37> H 	 -138.355 	 6.29736 	 2.49695
| 38> H 	 -139.48 	 4.87201 	 2.32963
| 39> H 	 -139.856 	 9.92159 	 -3.78093
| 40> H 	 -136.594 	 2.48819 	 -3.397
| 41> *
| 42>
| 43>                          ****END OF INPUT****

CARTESIAN COORDINATES (ANGSTROEM)
---------------------------------
  S    -138.584000    7.958940   -3.051500
  C    -139.897000    8.882040   -3.713220
  C    -140.889000    8.072490   -4.190830
  C    -140.615000    6.722440   -3.872300
  C    -139.394000    6.438890   -3.231770
  H    -141.174000    5.852800   -4.240450
  C    -142.172000    8.520600   -4.830760
  H    -142.379000    7.910550   -5.745160
  H    -141.952000    9.550650   -5.145780
  C    -143.407000    8.539410   -3.995960
  H    -143.699000    7.513590   -3.855540
  H    -143.218000    8.970430   -3.030040
  C    -144.596000    9.290530   -4.652190
  H    -144.778000    8.942270   -5.675760
  H    -145.480000    9.296290   -3.983440
  H    -144.300000   10.306500   -4.925660
  S    -137.949000    4.383440   -4.141370
  C    -137.369000    3.158560   -3.040240
  C    -138.037000    3.222750   -1.822560
  C    -138.804000    4.442640   -1.736330
  C    -138.789000    5.194430   -2.876710
  H    -137.779000    2.459500   -1.063790
  C    -139.469000    4.763660   -0.417885
  H    -139.863000    3.809730   -0.081797
  H    -140.422000    5.363410   -0.537293
  C    -138.538000    5.482450    0.526623
  H    -138.221000    6.381300    0.010882
  H    -137.701000    4.848800    0.697849
  C    -139.130000    5.802190    1.871740
  H    -139.905000    6.573080    1.851300
  H    -138.355000    6.297360    2.496950
  H    -139.480000    4.872010    2.329630
  H    -139.856000    9.921590   -3.780930
  H    -136.594000    2.488190   -3.397000

 Total Charge           Charge          ....    0
 Multiplicity           Mult            ....    1
 Number of Electrons    NEL             ....  134
 Basis Dimension        Dim             ....  322

ORBITAL ENERGIES
----------------

  NO   OCC          E(Eh)            E(eV)
   0   2.0000     -88.963696     -2420.8252
   1   2.0000     -88.960480     -2420.7377
   2   2.0000     -10.326002      -280.9848
   3   2.0000     -10.319527      -280.8086
   4   2.0000     -10.318908      -280.7918
   5   2.0000     -10.309491      -280.5355
   6   2.0000     -10.303580      -280.3747
   7   2.0000     -10.300098      -280.2799
   8   2.0000     -10.297762      -280.2164
   9   2.0000     -10.293334      -280.0959
  10   2.0000     -10.292359      -280.0693
  11   2.0000     -10.287327      -279.9324
  12   2.0000     -10.282567      -279.8029
  13   2.0000     -10.281204      -279.7658
  14   2.0000     -10.275795      -279.6186
  15   2.0000     -10.275435      -279.6088
  16   2.0000      -8.078912      -219.8384
  17   2.0000      -8.076440      -219.7711
  18   2.0000      -6.037303      -164.2834
  19   2.0000      -6.034811      -164.2155
  20   2.0000      -6.033166      -164.1708
  21   2.0000      -6.030782      -164.1059
  22   2.0000      -6.029946      -164.0832
  23   2.0000      -6.027253      -164.0099
  24   2.0000      -1.012147       -27.5419
  25   2.0000      -0.989463       -26.9246
  26   2.0000      -0.917723       -24.9725
  27   2.0000      -0.913144       -24.8479
  28   2.0000      -0.874727       -23.8025
  29   2.0000      -0.850973       -23.1561
  30   2.0000      -0.846331       -23.0298
  31   2.0000      -0.813174       -22.1276
  32   2.0000      -0.782257       -21.2863
  33   2.0000      -0.771733       -20.9999
  34   2.0000      -0.709065       -19.2946
  35   2.0000      -0.698337       -19.0027
  36   2.0000      -0.691969       -18.8294
  37   2.0000      -0.666734       -18.1428
  38   2.0000      -0.647435       -17.6176
  39   2.0000      -0.617752       -16.8099
  40   2.0000      -0.597074       -16.2472
  41   2.0000      -0.577664       -15.7190
  42   2.0000      -0.569672       -15.5016
  43   2.0000      -0.560645       -15.2559
  44   2.0000      -0.531383       -14.4597
  45   2.0000      -0.524315       -14.2673
  46   2.0000      -0.523814       -14.2537
  47   2.0000      -0.507158       -13.8005
  48   2.0000      -0.505758       -13.7624
  49   2.0000      -0.502695       -13.6790
  50   2.0000      -0.496074       -13.4988
  51   2.0000      -0.480166       -13.0660
  52   2.0000      -0.467671       -12.7260
  53   2.0000      -0.464707       -12.6453
  54   2.0000      -0.456878       -12.4323
  55   2.0000      -0.447822       -12.1859
  56   2.0000      -0.441601       -12.0166
  57   2.0000      -0.434918       -11.8347
  58   2.0000      -0.430090       -11.7033
  59   2.0000      -0.422422       -11.4947
  60   2.0000      -0.419650       -11.4193
  61   2.0000      -0.416975       -11.3465
  62   2.0000      -0.412573       -11.2267
  63   2.0000      -0.335486        -9.1290
  64   2.0000      -0.327408        -8.9092
  65   2.0000      -0.319911        -8.7052
  66   2.0000      -0.314424        -8.5559
  67   0.0000       0.048384         1.3166
  68   0.0000       0.051065         1.3895
  69   0.0000       0.110412         3.0045
  70   0.0000       0.122775         3.3409
  71   0.0000       0.137412         3.7392

MULLIKEN ATOMIC CHARGES
-----------------------
   0 S :    0.116827
   1 C :   -0.109850
   2 C :   -0.068984
   3 C :    0.037682
   4 C :   -0.183313
   5 H :    0.013827
   6 C :    0.051308
   7 H :    0.035557
   8 H :    0.007700
   9 C :   -0.034875
  10 H :    0.022588
  11 H :    0.024471
  12 C :   -0.049146
  13 H :    0.020442
  14 H :    0.053499
  15 H :    0.016164
  16 S :    0.111017
  17 C :   -0.111841
  18 C :   -0.040433
  19 C :   -0.016409
  20 C :   -0.179084
  21 H :    0.040271
  22 C :    0.053297
  23 H :    0.012526
  24 H :    0.028614
  25 C :   -0.038166
  26 H :    0.021547
  27 H :    0.013240
  28 C :   -0.031504
  29 H :    0.028187
  30 H :    0.034360
  31 H :    0.031167
  32 H :    0.024832
  33 H :    0.064485
Sum of atomic charges:   -0.0000000

LOEWDIN ATOMIC CHARGES
----------------------
   0 S :    0.426103
   1 C :   -0.186015
   2 C :   -0.069917
   3 C :   -0.062356
   4 C :   -0.212103
   5 H :    0.031208
   6 C :   -0.033881
   7 H :    0.036993
   8 H :    0.027135
   9 C :   -0.038002
  10 H :    0.021812
  11 H :    0.022610
  12 C :   -0.067870
  13 H :    0.025237
  14 H :    0.033086
  15 H :    0.022243
  16 S :    0.418691
  17 C :   -0.176199
  18 C :   -0.076863
  19 C :   -0.046993
  20 C :   -0.222930
  21 H :    0.040830
  22 C :   -0.035838
  23 H :    0.025735
  24 H :    0.034155
  25 C :   -0.038293
  26 H :    0.024177
  27 H :    0.019637
  28 C :   -0.065101
  29 H :    0.023538
  30 H :    0.031271
  31 H :    0.025290
  32 H :    0.015466
  33 H :    0.027144

  Mayer bond orders larger than 0.100000
B(  0-S ,  1-C ) :   1.1644 B(  0-S ,  4-C ) :   1.1645 B(  1-C ,  2-C ) :   1.5769
B(  1-C ,  4-C ) :   0.1080 B(  1-C , 32-H ) :   0.9774 B(  2-C ,  3-C ) :   1.2583
B(  2-C ,  6-C ) :   1.0353 B(  3-C ,  4-C ) :   1.5709 B(  3-C ,  5-H ) :   0.9921
B(  4-C , 20-C ) :   1.0184 B(  6-C ,  7-H ) :   0.9312 B(  6-C ,  8-H ) :   0.9361
B(  6-C ,  9-C ) :   1.0769 B(  9-C , 10-H ) :   0.9494 B(  9-C , 11-H ) :   0.9527
B(  9-C , 12-C ) :   1.0833 B( 12-C , 13-H ) :   0.9707 B( 12-C , 14-H ) :   0.9747
B( 12-C , 15-H ) :   0.9726 B( 16-S , 17-C ) :   1.1732 B( 16-S , 20-C ) :   1.1465
B( 17-C , 18-C ) :   1.5963 B( 17-C , 20-C ) :   0.1007 B( 17-C , 33-H ) :   0.9709
B( 18-C , 19-C ) :   1.2179 B( 18-C , 21-H ) :   0.9891 B( 19-C , 20-C ) :   1.6261
B( 19-C , 22-C ) :   1.0479 B( 22-C , 23-H ) :   0.9278 B( 22-C , 24-H ) :   0.9319
B( 22-C , 25-C ) :   1.0718 B( 25-C , 26-H ) :   0.9461 B( 25-C , 27-H ) :   0.9520
B( 25-C , 28-C ) :   1.0966 B( 28-C , 29-H ) :   0.9726 B( 28-C , 30-H ) :   0.9713
B( 28-C , 31-H ) :   0.9718

Dispersion correction           -0.013832581
FINAL SINGLE POINT ENERGY     -1339.888538059597

DIPOLE MOMENT
-------------
                                X             Y             Z
Electronic contribution:     19.58045      -7.27473     -11.44850
Nuclear contribution   :    -19.86985       7.22062      11.60805
                        -----------------------------------------
Total Dipole Moment    :     -0.28940      -0.05411       0.15955
                        -----------------------------------------
Magnitude (a.u.)       :      0.33487
Magnitude (Debye)      :      0.85116

Rotational constants in cm-1:     0.019177     0.007660     0.006589
Rotational constants in MHz :   574.926000   229.652579   197.519041

                             ****ORCA TERMINATED NORMALLY****
TOTAL RUN TIME: 0 days 0 hours 0 minutes 21 seconds 66 msec
