                         Program Version 4.2.1 -  RELEASE  -
|  1> ! wB97X-D3 SP def2-SVP
|  2> %pal
|  3> nprocs 24
|  4> end
|  5>
|  6> * xyz 0 1
|  7> S 	 -120.028 	 62.1607 	 -36.0152
|  8> C 	 -120.407 	 61.7222 	 -34.3299
|  9> C 	 -120.095 	 62.7745 	 -33.512
| 10> C 	 -120.034 	 64.0075 	 -34.2512
| 11> C 	 -120.136 	 63.8602 	 -35.6408
| 12> H 	 -119.874 	 65.0095 	 -33.8637
| 13> C 	 -119.896 	 62.6338 	 -32.0176
| 14> H 	 -118.928 	 62.9588 	 -31.7568
| 15> H 	 -119.961 	 61.5867 	 -31.705
| 16> C 	 -120.818 	 63.6065 	 -31.2122
| 17> H 	 -120.475 	 63.736 	 -30.1581
| 18> H 	 -120.634 	 64.5689 	 -31.6391
| 19> C 	 -122.286 	 63.2927 	 -31.4294
| 20> H 	 -122.499 	 63.1382 	 -32.4763
| 21> H 	 -122.552 	 62.4067 	 -30.9531
| 22> H 	 -123.003 	 64.0125 	 -31.0677
| 23> S 	 -119.515 	 64.6935 	 -38.1942
| 24> C 	 -119.869 	 66.3004 	 -38.7034
| 25> C 	 -120.496 	 67.0732 	 -37.6918
| 26> C 	 -120.572 	 66.2875 	 -36.4475
| 27> C 	 -120.119 	 64.9482 	 -36.589
| 28> H 	 -120.828 	 68.0548 	 -37.9398
| 29> C 	 -121.457 	 66.7941 	 -35.3593
| 30> H 	 -121.727 	 65.9458 	 -34.7468
| 31> H 	 -122.316 	 67.0385 	 -35.7815
| 32> C 	 -121.05 	 68.0799 	 -34.612
| 33> H 	 -121.884 	 68.4319 	 -34.0073
| 34> H 	 -120.93 	 68.8064 	 -35.401
| 35> C 	 -119.761 	 67.9654 	 -33.7686
| 36> H 	 -119.688 	 67.0172 	 -33.1877
| 37> H 	 -119.613 	 68.7431 	 -33.0188
| 38> H 	 -118.9 	 68.2284 	 -34.4296
| 39> H 	 -120.623 	 60.782 	 -33.9569
| 40> H 	 -119.7 	 66.685 	 -39.7044
| 41> *
| 42>
| 43>                          ****END OF INPUT****

CARTESIAN COORDINATES (ANGSTROEM)
---------------------------------
  S    -120.028000   62.160700  -36.015200
  C    -120.407000   61.722200  -34.329900
  C    -120.095000   62.774500  -33.512000
  C    -120.034000   64.007500  -34.251200
  C    -120.136000   63.860200  -35.640800
  H    -119.874000   65.009500  -33.863700
  C    -119.896000   62.633800  -32.017600
  H    -118.928000   62.958800  -31.756800
  H    -119.961000   61.586700  -31.705000
  C    -120.818000   63.606500  -31.212200
  H    -120.475000   63.736000  -30.158100
  H    -120.634000   64.568900  -31.639100
  C    -122.286000   63.292700  -31.429400
  H    -122.499000   63.138200  -32.476300
  H    -122.552000   62.406700  -30.953100
  H    -123.003000   64.012500  -31.067700
  S    -119.515000   64.693500  -38.194200
  C    -119.869000   66.300400  -38.703400
  C    -120.496000   67.073200  -37.691800
  C    -120.572000   66.287500  -36.447500
  C    -120.119000   64.948200  -36.589000
  H    -120.828000   68.054800  -37.939800
  C    -121.457000   66.794100  -35.359300
  H    -121.727000   65.945800  -34.746800
  H    -122.316000   67.038500  -35.781500
  C    -121.050000   68.079900  -34.612000
  H    -121.884000   68.431900  -34.007300
  H    -120.930000   68.806400  -35.401000
  C    -119.761000   67.965400  -33.768600
  H    -119.688000   67.017200  -33.187700
  H    -119.613000   68.743100  -33.018800
  H    -118.900000   68.228400  -34.429600
  H    -120.623000   60.782000  -33.956900
  H    -119.700000   66.685000  -39.704400

 Total Charge           Charge          ....    0
 Multiplicity           Mult            ....    1
 Number of Electrons    NEL             ....  134
 Basis Dimension        Dim             ....  322

ORBITAL ENERGIES
----------------

  NO   OCC          E(Eh)            E(eV)
   0   2.0000     -88.968968     -2420.9687
   1   2.0000     -88.965325     -2420.8696
   2   2.0000     -10.333289      -281.1831
   3   2.0000     -10.331500      -281.1344
   4   2.0000     -10.321791      -280.8702
   5   2.0000     -10.310158      -280.5537
   6   2.0000     -10.309966      -280.5484
   7   2.0000     -10.303271      -280.3663
   8   2.0000     -10.301609      -280.3210
   9   2.0000     -10.295082      -280.1434
  10   2.0000     -10.292478      -280.0726
  11   2.0000     -10.288503      -279.9644
  12   2.0000     -10.287541      -279.9382
  13   2.0000     -10.283213      -279.8205
  14   2.0000     -10.275001      -279.5970
  15   2.0000     -10.264837      -279.3204
  16   2.0000      -8.084295      -219.9849
  17   2.0000      -8.079742      -219.8609
  18   2.0000      -6.042834      -164.4339
  19   2.0000      -6.038581      -164.3181
  20   2.0000      -6.038495      -164.3158
  21   2.0000      -6.035165      -164.2252
  22   2.0000      -6.034635      -164.2108
  23   2.0000      -6.029916      -164.0823
  24   2.0000      -1.007297       -27.4099
  25   2.0000      -0.983602       -26.7652
  26   2.0000      -0.914602       -24.8876
  27   2.0000      -0.912644       -24.8343
  28   2.0000      -0.871468       -23.7139
  29   2.0000      -0.849219       -23.1084
  30   2.0000      -0.839792       -22.8519
  31   2.0000      -0.815372       -22.1874
  32   2.0000      -0.788209       -21.4483
  33   2.0000      -0.779292       -21.2056
  34   2.0000      -0.716567       -19.4988
  35   2.0000      -0.700488       -19.0613
  36   2.0000      -0.697221       -18.9723
  37   2.0000      -0.660792       -17.9811
  38   2.0000      -0.639067       -17.3899
  39   2.0000      -0.622585       -16.9414
  40   2.0000      -0.596562       -16.2333
  41   2.0000      -0.573737       -15.6122
  42   2.0000      -0.557599       -15.1730
  43   2.0000      -0.550326       -14.9751
  44   2.0000      -0.542221       -14.7546
  45   2.0000      -0.536527       -14.5996
  46   2.0000      -0.522885       -14.2284
  47   2.0000      -0.517980       -14.0949
  48   2.0000      -0.510572       -13.8934
  49   2.0000      -0.499682       -13.5970
  50   2.0000      -0.489812       -13.3285
  51   2.0000      -0.479829       -13.0568
  52   2.0000      -0.472708       -12.8630
  53   2.0000      -0.463811       -12.6209
  54   2.0000      -0.459624       -12.5070
  55   2.0000      -0.451194       -12.2776
  56   2.0000      -0.443796       -12.0763
  57   2.0000      -0.438153       -11.9227
  58   2.0000      -0.432032       -11.7562
  59   2.0000      -0.426518       -11.6061
  60   2.0000      -0.423169       -11.5150
  61   2.0000      -0.418500       -11.3880
  62   2.0000      -0.411783       -11.2052
  63   2.0000      -0.359387        -9.7794
  64   2.0000      -0.330456        -8.9922
  65   2.0000      -0.323288        -8.7971
  66   2.0000      -0.279835        -7.6147
  67   0.0000       0.016296         0.4434
  68   0.0000       0.074276         2.0211
  69   0.0000       0.098301         2.6749
  70   0.0000       0.115424         3.1408
  71   0.0000       0.130565         3.5529

MULLIKEN ATOMIC CHARGES
-----------------------
   0 S :    0.096978
   1 C :   -0.091038
   2 C :   -0.087631
   3 C :    0.009331
   4 C :   -0.107652
   5 H :   -0.018084
   6 C :    0.110629
   7 H :    0.022438
   8 H :    0.020048
   9 C :   -0.087327
  10 H :    0.033532
  11 H :    0.012688
  12 C :   -0.012052
  13 H :    0.033606
  14 H :    0.006058
  15 H :    0.026940
  16 S :    0.114801
  17 C :   -0.098187
  18 C :   -0.037643
  19 C :   -0.043988
  20 C :   -0.135443
  21 H :    0.020097
  22 C :    0.091107
  23 H :    0.015320
  24 H :   -0.010161
  25 C :   -0.053337
  26 H :    0.031020
  27 H :    0.015665
  28 C :   -0.073294
  29 H :    0.051858
  30 H :    0.022126
  31 H :    0.044730
  32 H :    0.015385
  33 H :    0.061481
Sum of atomic charges:   -0.0000000

LOEWDIN ATOMIC CHARGES
----------------------
   0 S :    0.383591
   1 C :   -0.173236
   2 C :   -0.053998
   3 C :   -0.068363
   4 C :   -0.185043
   5 H :    0.024727
   6 C :   -0.020749
   7 H :    0.030200
   8 H :    0.028468
   9 C :   -0.038813
  10 H :    0.026990
  11 H :    0.016393
  12 C :   -0.063398
  13 H :    0.028121
  14 H :    0.015202
  15 H :    0.024976
  16 S :    0.425495
  17 C :   -0.192967
  18 C :   -0.065859
  19 C :   -0.048159
  20 C :   -0.204337
  21 H :    0.028355
  22 C :   -0.029607
  23 H :    0.028454
  24 H :    0.016541
  25 C :   -0.032228
  26 H :    0.024698
  27 H :    0.020979
  28 C :   -0.078811
  29 H :    0.027087
  30 H :    0.025205
  31 H :    0.036832
  32 H :    0.013119
  33 H :    0.030134

  Mayer bond orders larger than 0.100000
B(  0-S ,  1-C ) :   1.1132 B(  0-S ,  4-C ) :   1.1348 B(  1-C ,  2-C ) :   1.6096
B(  1-C , 32-H ) :   0.9804 B(  2-C ,  3-C ) :   1.2090 B(  2-C ,  6-C ) :   1.0336
B(  3-C ,  4-C ) :   1.5522 B(  3-C ,  5-H ) :   0.9939 B(  4-C , 20-C ) :   1.1127
B(  6-C ,  7-H ) :   0.9299 B(  6-C ,  8-H ) :   0.9472 B(  6-C ,  9-C ) :   1.0640
B(  9-C , 10-H ) :   0.9574 B(  9-C , 11-H ) :   0.9553 B(  9-C , 12-C ) :   1.0703
B( 12-C , 13-H ) :   0.9705 B( 12-C , 14-H ) :   0.9735 B( 12-C , 15-H ) :   0.9735
B( 16-S , 17-C ) :   1.1734 B( 16-S , 20-C ) :   1.1345 B( 17-C , 18-C ) :   1.5961
B( 17-C , 33-H ) :   0.9672 B( 18-C , 19-C ) :   1.2334 B( 18-C , 21-H ) :   0.9942
B( 19-C , 20-C ) :   1.5478 B( 19-C , 22-C ) :   1.0429 B( 22-C , 23-H ) :   0.9371
B( 22-C , 24-H ) :   0.9241 B( 22-C , 25-C ) :   1.0697 B( 25-C , 26-H ) :   0.9572
B( 25-C , 27-H ) :   0.9560 B( 25-C , 28-C ) :   1.0721 B( 28-C , 29-H ) :   0.9701
B( 28-C , 30-H ) :   0.9699 B( 28-C , 31-H ) :   0.9732

Dispersion correction           -0.015248737
FINAL SINGLE POINT ENERGY     -1339.854716192482

DIPOLE MOMENT
-------------
                                X             Y             Z
Electronic contribution:      7.46666     -13.12240     -26.22538
Nuclear contribution   :     -7.65432      13.62074      26.68128
                        -----------------------------------------
Total Dipole Moment    :     -0.18766       0.49834       0.45590
                        -----------------------------------------
Magnitude (a.u.)       :      0.70100
Magnitude (Debye)      :      1.78180

Rotational constants in cm-1:     0.018246     0.010341     0.007125
Rotational constants in MHz :   547.000376   310.014914   213.595596

                             ****ORCA TERMINATED NORMALLY****
TOTAL RUN TIME: 0 days 0 hours 0 minutes 22 seconds 955 msec
