                         Program Version 4.2.1 -  RELEASE  -
|  1> ! wB97X-D3 SP def2-SVP
|  2> %pal
|  3> nprocs 24
|  4> end
|  5>
|  6> * xyz 0 1
|  7> S 	 -86.934 	 2.53156 	 -118.95
|  8> C 	 -87.095 	 0.8655 	 -119.245
|  9> C 	 -88.1509 	 0.256676 	 -118.589
| 10> C 	 -89.0417 	 1.26426 	 -118.138
| 11> C 	 -88.6201 	 2.5466 	 -118.298
| 12> H 	 -90.0358 	 1.12105 	 -117.72
| 13> C 	 -88.3857 	 -1.20725 	 -118.485
| 14> H 	 -88.7615 	 -1.57697 	 -119.448
| 15> H 	 -89.1175 	 -1.16671 	 -117.714
| 16> C 	 -87.2024 	 -2.04984 	 -118.006
| 17> H 	 -87.5529 	 -3.11546 	 -117.814
| 18> H 	 -86.4542 	 -1.93902 	 -118.799
| 19> C 	 -86.5708 	 -1.43065 	 -116.726
| 20> H 	 -86.1022 	 -0.416604 	 -116.944
| 21> H 	 -87.4141 	 -1.24543 	 -116.024
| 22> H 	 -85.9775 	 -2.07757 	 -116.238
| 23> S 	 -89.1941 	 4.97783 	 -119.218
| 24> C 	 -90.3219 	 5.99382 	 -118.329
| 25> C 	 -90.5711 	 5.51104 	 -117.079
| 26> C 	 -90.0841 	 4.17377 	 -116.923
| 27> C 	 -89.2613 	 3.80532 	 -117.967
| 28> H 	 -91.2709 	 6.08256 	 -116.44
| 29> C 	 -90.4349 	 3.33259 	 -115.7
| 30> H 	 -90.1212 	 4.00958 	 -114.904
| 31> H 	 -89.7888 	 2.4129 	 -115.641
| 32> C 	 -91.9157 	 2.9737 	 -115.407
| 33> H 	 -92.2868 	 2.27083 	 -116.081
| 34> H 	 -92.5931 	 3.90004 	 -115.468
| 35> C 	 -92.0862 	 2.24399 	 -113.975
| 36> H 	 -91.8205 	 2.96651 	 -113.153
| 37> H 	 -91.3459 	 1.46164 	 -113.91
| 38> H 	 -93.1377 	 1.95071 	 -113.772
| 39> H 	 -86.3188 	 0.371904 	 -119.829
| 40> H 	 -90.7329 	 7.05289 	 -118.542
| 41> *
| 42>
| 43>                          ****END OF INPUT****

CARTESIAN COORDINATES (ANGSTROEM)
---------------------------------
  S    -86.934000    2.531560  -118.950000
  C    -87.095000    0.865500  -119.245000
  C    -88.150900    0.256676  -118.589000
  C    -89.041700    1.264260  -118.138000
  C    -88.620100    2.546600  -118.298000
  H    -90.035800    1.121050  -117.720000
  C    -88.385700   -1.207250  -118.485000
  H    -88.761500   -1.576970  -119.448000
  H    -89.117500   -1.166710  -117.714000
  C    -87.202400   -2.049840  -118.006000
  H    -87.552900   -3.115460  -117.814000
  H    -86.454200   -1.939020  -118.799000
  C    -86.570800   -1.430650  -116.726000
  H    -86.102200   -0.416604  -116.944000
  H    -87.414100   -1.245430  -116.024000
  H    -85.977500   -2.077570  -116.238000
  S    -89.194100    4.977830  -119.218000
  C    -90.321900    5.993820  -118.329000
  C    -90.571100    5.511040  -117.079000
  C    -90.084100    4.173770  -116.923000
  C    -89.261300    3.805320  -117.967000
  H    -91.270900    6.082560  -116.440000
  C    -90.434900    3.332590  -115.700000
  H    -90.121200    4.009580  -114.904000
  H    -89.788800    2.412900  -115.641000
  C    -91.915700    2.973700  -115.407000
  H    -92.286800    2.270830  -116.081000
  H    -92.593100    3.900040  -115.468000
  C    -92.086200    2.243990  -113.975000
  H    -91.820500    2.966510  -113.153000
  H    -91.345900    1.461640  -113.910000
  H    -93.137700    1.950710  -113.772000
  H    -86.318800    0.371904  -119.829000
  H    -90.732900    7.052890  -118.542000

 Total Charge           Charge          ....    0
 Multiplicity           Mult            ....    1
 Number of Electrons    NEL             ....  134
 Basis Dimension        Dim             ....  322

ORBITAL ENERGIES
----------------

  NO   OCC          E(Eh)            E(eV)
   0   2.0000     -88.966324     -2420.8967
   1   2.0000     -88.962602     -2420.7955
   2   2.0000     -10.326651      -281.0025
   3   2.0000     -10.321586      -280.8646
   4   2.0000     -10.321272      -280.8561
   5   2.0000     -10.308695      -280.5138
   6   2.0000     -10.305492      -280.4267
   7   2.0000     -10.298252      -280.2297
   8   2.0000     -10.297307      -280.2040
   9   2.0000     -10.297025      -280.1963
  10   2.0000     -10.294789      -280.1355
  11   2.0000     -10.293652      -280.1045
  12   2.0000     -10.292035      -280.0605
  13   2.0000     -10.290208      -280.0108
  14   2.0000     -10.287151      -279.9276
  15   2.0000     -10.273036      -279.5435
  16   2.0000      -8.081441      -219.9072
  17   2.0000      -8.077806      -219.8083
  18   2.0000      -6.040034      -164.3577
  19   2.0000      -6.036168      -164.2525
  20   2.0000      -6.035858      -164.2441
  21   2.0000      -6.032455      -164.1514
  22   2.0000      -6.032094      -164.1416
  23   2.0000      -6.028500      -164.0438
  24   2.0000      -1.011812       -27.5328
  25   2.0000      -0.989363       -26.9219
  26   2.0000      -0.916085       -24.9279
  27   2.0000      -0.901658       -24.5354
  28   2.0000      -0.871032       -23.7020
  29   2.0000      -0.853053       -23.2127
  30   2.0000      -0.844539       -22.9811
  31   2.0000      -0.814970       -22.1765
  32   2.0000      -0.781203       -21.2576
  33   2.0000      -0.768123       -20.9017
  34   2.0000      -0.705868       -19.2076
  35   2.0000      -0.704738       -19.1769
  36   2.0000      -0.691299       -18.8112
  37   2.0000      -0.662022       -18.0145
  38   2.0000      -0.639301       -17.3963
  39   2.0000      -0.611913       -16.6510
  40   2.0000      -0.587401       -15.9840
  41   2.0000      -0.574818       -15.6416
  42   2.0000      -0.562665       -15.3109
  43   2.0000      -0.559674       -15.2295
  44   2.0000      -0.539957       -14.6930
  45   2.0000      -0.522116       -14.2075
  46   2.0000      -0.514333       -13.9957
  47   2.0000      -0.510319       -13.8865
  48   2.0000      -0.505862       -13.7652
  49   2.0000      -0.492868       -13.4116
  50   2.0000      -0.485530       -13.2119
  51   2.0000      -0.475244       -12.9320
  52   2.0000      -0.467011       -12.7080
  53   2.0000      -0.466370       -12.6906
  54   2.0000      -0.454909       -12.3787
  55   2.0000      -0.451714       -12.2918
  56   2.0000      -0.445967       -12.1354
  57   2.0000      -0.439800       -11.9676
  58   2.0000      -0.435044       -11.8381
  59   2.0000      -0.427151       -11.6234
  60   2.0000      -0.424742       -11.5578
  61   2.0000      -0.417264       -11.3543
  62   2.0000      -0.413151       -11.2424
  63   2.0000      -0.353079        -9.6078
  64   2.0000      -0.331885        -9.0310
  65   2.0000      -0.326607        -8.8874
  66   2.0000      -0.288215        -7.8427
  67   0.0000       0.029870         0.8128
  68   0.0000       0.071869         1.9557
  69   0.0000       0.104705         2.8492
  70   0.0000       0.120070         3.2673
  71   0.0000       0.122093         3.3223

MULLIKEN ATOMIC CHARGES
-----------------------
   0 S :    0.101736
   1 C :   -0.141084
   2 C :   -0.114378
   3 C :    0.011200
   4 C :   -0.145405
   5 H :    0.010934
   6 C :    0.113787
   7 H :    0.050677
   8 H :    0.003310
   9 C :   -0.100285
  10 H :    0.050549
  11 H :    0.030455
  12 C :   -0.035204
  13 H :    0.061361
  14 H :    0.016135
  15 H :    0.011415
  16 S :    0.117926
  17 C :   -0.115979
  18 C :   -0.051087
  19 C :   -0.022030
  20 C :   -0.142987
  21 H :    0.032146
  22 C :    0.026532
  23 H :    0.031387
  24 H :    0.035788
  25 C :   -0.069527
  26 H :    0.023407
  27 H :    0.039856
  28 C :   -0.080301
  29 H :    0.033360
  30 H :    0.033736
  31 H :    0.051132
  32 H :    0.052382
  33 H :    0.079055
Sum of atomic charges:   -0.0000000

LOEWDIN ATOMIC CHARGES
----------------------
   0 S :    0.391415
   1 C :   -0.204479
   2 C :   -0.067830
   3 C :   -0.064479
   4 C :   -0.174914
   5 H :    0.033191
   6 C :   -0.032860
   7 H :    0.038574
   8 H :    0.023719
   9 C :   -0.039910
  10 H :    0.034790
  11 H :    0.021213
  12 C :   -0.062146
  13 H :    0.038947
  14 H :    0.025657
  15 H :    0.005255
  16 S :    0.419350
  17 C :   -0.197800
  18 C :   -0.078043
  19 C :   -0.054465
  20 C :   -0.214605
  21 H :    0.037511
  22 C :   -0.039638
  23 H :    0.035843
  24 H :    0.034065
  25 C :   -0.036345
  26 H :    0.011593
  27 H :    0.030323
  28 C :   -0.068816
  29 H :    0.027500
  30 H :    0.021572
  31 H :    0.031229
  32 H :    0.023933
  33 H :    0.050650

  Mayer bond orders larger than 0.100000
B(  0-S ,  1-C ) :   1.1554 B(  0-S ,  4-C ) :   1.1276 B(  1-C ,  2-C ) :   1.5808
B(  1-C , 32-H ) :   0.9702 B(  2-C ,  3-C ) :   1.2386 B(  2-C ,  6-C ) :   0.9956
B(  3-C ,  4-C ) :   1.6154 B(  3-C ,  5-H ) :   0.9909 B(  4-C , 20-C ) :   1.0290
B(  6-C ,  7-H ) :   0.9349 B(  6-C ,  8-H ) :   0.9361 B(  6-C ,  9-C ) :   1.0761
B(  9-C , 10-H ) :   0.9575 B(  9-C , 11-H ) :   0.9537 B(  9-C , 12-C ) :   1.0797
B( 12-C , 13-H ) :   0.9657 B( 12-C , 14-H ) :   0.9752 B( 12-C , 15-H ) :   0.9748
B( 16-S , 17-C ) :   1.1434 B( 16-S , 20-C ) :   1.1359 B( 17-C , 18-C ) :   1.6568
B( 17-C , 33-H ) :   0.9503 B( 18-C , 19-C ) :   1.2119 B( 18-C , 21-H ) :   0.9792
B( 19-C , 20-C ) :   1.6160 B( 19-C , 22-C ) :   1.0358 B( 22-C , 23-H ) :   0.9336
B( 22-C , 24-H ) :   0.9373 B( 22-C , 25-C ) :   1.0570 B( 25-C , 26-H ) :   0.9588
B( 25-C , 27-H ) :   0.9555 B( 25-C , 28-C ) :   1.0663 B( 28-C , 29-H ) :   0.9788
B( 28-C , 30-H ) :   0.9764 B( 28-C , 31-H ) :   0.9765

Dispersion correction           -0.014358998
FINAL SINGLE POINT ENERGY     -1339.861613057258

DIPOLE MOMENT
-------------
                                X             Y             Z
Electronic contribution:      8.34878      19.69161     -19.19370
Nuclear contribution   :     -8.75492     -20.01987      19.60920
                        -----------------------------------------
Total Dipole Moment    :     -0.40615      -0.32827       0.41550
                        -----------------------------------------
Magnitude (a.u.)       :      0.66735
Magnitude (Debye)      :      1.69627

Rotational constants in cm-1:     0.017699     0.009237     0.006505
Rotational constants in MHz :   530.607004   276.911734   195.015239

                             ****ORCA TERMINATED NORMALLY****
TOTAL RUN TIME: 0 days 0 hours 0 minutes 21 seconds 609 msec
