                         Program Version 4.2.1 -  RELEASE  -
|  1> ! wB97X-D3 SP def2-SVP
|  2> %pal
|  3> nprocs 24
|  4> end
|  5>
|  6> * xyz 0 1
|  7> S 	 -143.857 	 3.17785 	 3.44037
|  8> C 	 -142.542 	 3.76243 	 2.38013
|  9> C 	 -142.528 	 5.15816 	 2.40818
| 10> C 	 -143.708 	 5.69339 	 3.08019
| 11> C 	 -144.497 	 4.73565 	 3.65429
| 12> H 	 -143.982 	 6.73384 	 3.03328
| 13> C 	 -141.511 	 6.03794 	 1.79529
| 14> H 	 -141.605 	 6.18445 	 0.760487
| 15> H 	 -140.549 	 5.53134 	 1.78324
| 16> C 	 -141.283 	 7.31371 	 2.68106
| 17> H 	 -142.247 	 7.8082 	 2.75593
| 18> H 	 -140.863 	 7.01887 	 3.64623
| 19> C 	 -140.298 	 8.33357 	 1.9324
| 20> H 	 -140.738 	 8.69129 	 0.973527
| 21> H 	 -140.318 	 9.27058 	 2.50905
| 22> H 	 -139.306 	 8.01242 	 1.88375
| 23> S 	 -147.002 	 3.58486 	 3.96893
| 24> C 	 -148.25 	 4.52196 	 4.78692
| 25> C 	 -147.796 	 5.66231 	 5.3062
| 26> C 	 -146.375 	 5.78625 	 5.18852
| 27> C 	 -145.848 	 4.8481 	 4.30739
| 28> H 	 -148.48 	 6.26409 	 5.94656
| 29> C 	 -145.664 	 6.92019 	 5.83057
| 30> H 	 -146.297 	 7.59759 	 6.41808
| 31> H 	 -145.238 	 7.61457 	 5.00775
| 32> C 	 -144.414 	 6.4787 	 6.60723
| 33> H 	 -143.674 	 5.97036 	 5.95299
| 34> H 	 -144.733 	 5.65782 	 7.25622
| 35> C 	 -143.66 	 7.61531 	 7.31773
| 36> H 	 -143.308 	 8.3578 	 6.55628
| 37> H 	 -142.795 	 7.1692 	 7.80513
| 38> H 	 -144.138 	 8.14519 	 8.20143
| 39> H 	 -141.784 	 3.19614 	 1.81012
| 40> H 	 -149.247 	 4.21263 	 5.01652
| 41> *
| 42>
| 43>                          ****END OF INPUT****

CARTESIAN COORDINATES (ANGSTROEM)
---------------------------------
  S    -143.857000    3.177850    3.440370
  C    -142.542000    3.762430    2.380130
  C    -142.528000    5.158160    2.408180
  C    -143.708000    5.693390    3.080190
  C    -144.497000    4.735650    3.654290
  H    -143.982000    6.733840    3.033280
  C    -141.511000    6.037940    1.795290
  H    -141.605000    6.184450    0.760487
  H    -140.549000    5.531340    1.783240
  C    -141.283000    7.313710    2.681060
  H    -142.247000    7.808200    2.755930
  H    -140.863000    7.018870    3.646230
  C    -140.298000    8.333570    1.932400
  H    -140.738000    8.691290    0.973527
  H    -140.318000    9.270580    2.509050
  H    -139.306000    8.012420    1.883750
  S    -147.002000    3.584860    3.968930
  C    -148.250000    4.521960    4.786920
  C    -147.796000    5.662310    5.306200
  C    -146.375000    5.786250    5.188520
  C    -145.848000    4.848100    4.307390
  H    -148.480000    6.264090    5.946560
  C    -145.664000    6.920190    5.830570
  H    -146.297000    7.597590    6.418080
  H    -145.238000    7.614570    5.007750
  C    -144.414000    6.478700    6.607230
  H    -143.674000    5.970360    5.952990
  H    -144.733000    5.657820    7.256220
  C    -143.660000    7.615310    7.317730
  H    -143.308000    8.357800    6.556280
  H    -142.795000    7.169200    7.805130
  H    -144.138000    8.145190    8.201430
  H    -141.784000    3.196140    1.810120
  H    -149.247000    4.212630    5.016520

 Total Charge           Charge          ....    0
 Multiplicity           Mult            ....    1
 Number of Electrons    NEL             ....  134
 Basis Dimension        Dim             ....  322

ORBITAL ENERGIES
----------------

  NO   OCC          E(Eh)            E(eV)
   0   2.0000     -88.966146     -2420.8919
   1   2.0000     -88.965538     -2420.8754
   2   2.0000     -10.329893      -281.0907
   3   2.0000     -10.329815      -281.0885
   4   2.0000     -10.317285      -280.7476
   5   2.0000     -10.310369      -280.5594
   6   2.0000     -10.302908      -280.3564
   7   2.0000     -10.302808      -280.3537
   8   2.0000     -10.296719      -280.1880
   9   2.0000     -10.294860      -280.1374
  10   2.0000     -10.292629      -280.0767
  11   2.0000     -10.290847      -280.0282
  12   2.0000     -10.286195      -279.9016
  13   2.0000     -10.283695      -279.8336
  14   2.0000     -10.283649      -279.8323
  15   2.0000     -10.282365      -279.7974
  16   2.0000      -8.080791      -219.8895
  17   2.0000      -8.080536      -219.8826
  18   2.0000      -6.039404      -164.3405
  19   2.0000      -6.039117      -164.3327
  20   2.0000      -6.035420      -164.2321
  21   2.0000      -6.034968      -164.2198
  22   2.0000      -6.031320      -164.1206
  23   2.0000      -6.031234      -164.1182
  24   2.0000      -1.009612       -27.4729
  25   2.0000      -0.986630       -26.8476
  26   2.0000      -0.912529       -24.8312
  27   2.0000      -0.906431       -24.6652
  28   2.0000      -0.866442       -23.5771
  29   2.0000      -0.847155       -23.0523
  30   2.0000      -0.840046       -22.8588
  31   2.0000      -0.819951       -22.3120
  32   2.0000      -0.781854       -21.2753
  33   2.0000      -0.769417       -20.9369
  34   2.0000      -0.714859       -19.4523
  35   2.0000      -0.699178       -19.0256
  36   2.0000      -0.682017       -18.5586
  37   2.0000      -0.657289       -17.8857
  38   2.0000      -0.640995       -17.4424
  39   2.0000      -0.623903       -16.9773
  40   2.0000      -0.598257       -16.2794
  41   2.0000      -0.570599       -15.5268
  42   2.0000      -0.566243       -15.4082
  43   2.0000      -0.555400       -15.1132
  44   2.0000      -0.521221       -14.1832
  45   2.0000      -0.516363       -14.0509
  46   2.0000      -0.515467       -14.0266
  47   2.0000      -0.514373       -13.9968
  48   2.0000      -0.503268       -13.6946
  49   2.0000      -0.499424       -13.5900
  50   2.0000      -0.489829       -13.3289
  51   2.0000      -0.486756       -13.2453
  52   2.0000      -0.469787       -12.7835
  53   2.0000      -0.462723       -12.5913
  54   2.0000      -0.457275       -12.4431
  55   2.0000      -0.453872       -12.3505
  56   2.0000      -0.447745       -12.1837
  57   2.0000      -0.442457       -12.0399
  58   2.0000      -0.431761       -11.7488
  59   2.0000      -0.422725       -11.5029
  60   2.0000      -0.421329       -11.4649
  61   2.0000      -0.409275       -11.1369
  62   2.0000      -0.407848       -11.0981
  63   2.0000      -0.349950        -9.5226
  64   2.0000      -0.330060        -8.9814
  65   2.0000      -0.326219        -8.8769
  66   2.0000      -0.291432        -7.9303
  67   0.0000       0.025928         0.7055
  68   0.0000       0.080109         2.1799
  69   0.0000       0.100057         2.7227
  70   0.0000       0.120560         3.2806
  71   0.0000       0.128490         3.4964

MULLIKEN ATOMIC CHARGES
-----------------------
   0 S :    0.099509
   1 C :   -0.125763
   2 C :   -0.097133
   3 C :    0.012470
   4 C :   -0.119790
   5 H :    0.009651
   6 C :    0.089644
   7 H :    0.026469
   8 H :    0.008064
   9 C :   -0.120567
  10 H :    0.039518
  11 H :    0.049308
  12 C :   -0.045097
  13 H :    0.035193
  14 H :    0.027978
  15 H :    0.034117
  16 S :    0.108551
  17 C :   -0.068070
  18 C :   -0.042316
  19 C :   -0.026274
  20 C :   -0.138861
  21 H :    0.032509
  22 C :    0.042727
  23 H :    0.021167
  24 H :    0.033334
  25 C :   -0.110163
  26 H :    0.049966
  27 H :    0.028771
  28 C :   -0.060268
  29 H :    0.038283
  30 H :    0.031226
  31 H :    0.040603
  32 H :    0.053632
  33 H :    0.041612
Sum of atomic charges:    0.0000000

LOEWDIN ATOMIC CHARGES
----------------------
   0 S :    0.408790
   1 C :   -0.199246
   2 C :   -0.056621
   3 C :   -0.071457
   4 C :   -0.199804
   5 H :    0.027108
   6 C :   -0.039644
   7 H :    0.026744
   8 H :    0.031776
   9 C :   -0.025768
  10 H :    0.020323
  11 H :    0.029380
  12 C :   -0.065756
  13 H :    0.030370
  14 H :    0.028118
  15 H :    0.015315
  16 S :    0.399627
  17 C :   -0.174907
  18 C :   -0.074662
  19 C :   -0.057270
  20 C :   -0.197876
  21 H :    0.040720
  22 C :   -0.041351
  23 H :    0.029248
  24 H :    0.037532
  25 C :   -0.048941
  26 H :    0.032115
  27 H :    0.023099
  28 C :   -0.076657
  29 H :    0.029314
  30 H :    0.027459
  31 H :    0.029535
  32 H :    0.036312
  33 H :    0.027075

  Mayer bond orders larger than 0.100000
B(  0-S ,  1-C ) :   1.1146 B(  0-S ,  4-C ) :   1.1655 B(  1-C ,  2-C ) :   1.6281
B(  1-C , 32-H ) :   0.9681 B(  2-C ,  3-C ) :   1.2203 B(  2-C ,  6-C ) :   1.0307
B(  3-C ,  4-C ) :   1.5914 B(  3-C ,  5-H ) :   0.9918 B(  4-C , 20-C ) :   1.0118
B(  6-C ,  7-H ) :   0.9351 B(  6-C ,  8-H ) :   0.9330 B(  6-C ,  9-C ) :   1.0539
B(  9-C , 10-H ) :   0.9563 B(  9-C , 11-H ) :   0.9611 B(  9-C , 12-C ) :   1.0818
B( 12-C , 13-H ) :   0.9755 B( 12-C , 14-H ) :   0.9746 B( 12-C , 15-H ) :   0.9790
B( 16-S , 17-C ) :   1.1339 B( 16-S , 20-C ) :   1.1333 B( 17-C , 18-C ) :   1.6581
B( 17-C , 33-H ) :   0.9635 B( 18-C , 19-C ) :   1.2255 B( 18-C , 21-H ) :   0.9796
B( 19-C , 20-C ) :   1.5902 B( 19-C , 22-C ) :   1.0593 B( 22-C , 23-H ) :   0.9422
B( 22-C , 24-H ) :   0.9255 B( 22-C , 25-C ) :   1.0457 B( 25-C , 26-H ) :   0.9482
B( 25-C , 27-H ) :   0.9579 B( 25-C , 28-C ) :   1.0833 B( 28-C , 29-H ) :   0.9710
B( 28-C , 30-H ) :   0.9729 B( 28-C , 31-H ) :   0.9744

Dispersion correction           -0.014541495
FINAL SINGLE POINT ENERGY     -1339.869063250032

DIPOLE MOMENT
-------------
                                X             Y             Z
Electronic contribution:    -18.93099     -25.18204      -4.80363
Nuclear contribution   :     19.21178      25.78616       4.88748
                        -----------------------------------------
Total Dipole Moment    :      0.28079       0.60412       0.08384
                        -----------------------------------------
Magnitude (a.u.)       :      0.67144
Magnitude (Debye)      :      1.70667

Rotational constants in cm-1:     0.018380     0.009302     0.006982
Rotational constants in MHz :   551.009543   278.861803   209.301378

                             ****ORCA TERMINATED NORMALLY****
TOTAL RUN TIME: 0 days 0 hours 0 minutes 20 seconds 953 msec
