                         Program Version 4.2.1 -  RELEASE  -
|  1> ! wB97X-D3 SP def2-SVP
|  2> %pal
|  3> nprocs 24
|  4> end
|  5>
|  6> * xyz 0 1
|  7> S 	 -134.557 	 66.5862 	 -55.468
|  8> C 	 -134.358 	 64.8721 	 -55.8212
|  9> C 	 -135.48 	 64.1347 	 -55.3974
| 10> C 	 -136.459 	 65.0283 	 -54.7907
| 11> C 	 -136.063 	 66.3108 	 -54.6196
| 12> H 	 -137.418 	 64.6908 	 -54.4111
| 13> C 	 -135.809 	 62.6401 	 -55.6466
| 14> H 	 -136.025 	 62.1939 	 -54.6854
| 15> H 	 -134.984 	 62.1955 	 -56.1077
| 16> C 	 -136.941 	 62.3788 	 -56.5239
| 17> H 	 -136.562 	 62.6684 	 -57.4704
| 18> H 	 -137.171 	 61.2863 	 -56.5808
| 19> C 	 -138.36 	 62.8427 	 -56.1467
| 20> H 	 -138.58 	 62.8189 	 -55.0606
| 21> H 	 -138.501 	 63.8414 	 -56.4104
| 22> H 	 -139.103 	 62.4429 	 -56.8023
| 23> S 	 -137.276 	 68.7998 	 -54.8324
| 24> C 	 -137.685 	 69.6559 	 -53.3902
| 25> C 	 -137.649 	 68.8241 	 -52.2735
| 26> C 	 -137.144 	 67.4955 	 -52.5928
| 27> C 	 -136.759 	 67.4177 	 -53.9236
| 28> H 	 -137.991 	 69.2231 	 -51.2983
| 29> C 	 -136.887 	 66.4668 	 -51.4177
| 30> H 	 -136.269 	 67.0081 	 -50.8152
| 31> H 	 -136.314 	 65.5707 	 -51.6846
| 32> C 	 -138.095 	 66.1271 	 -50.6189
| 33> H 	 -138.899 	 65.8942 	 -51.2672
| 34> H 	 -138.543 	 67.0243 	 -50.1028
| 35> C 	 -137.847 	 64.9075 	 -49.7493
| 36> H 	 -137.049 	 65.1239 	 -49.0804
| 37> H 	 -137.619 	 63.9776 	 -50.2027
| 38> H 	 -138.764 	 64.7687 	 -49.0909
| 39> H 	 -133.618 	 64.6021 	 -56.5362
| 40> H 	 -137.921 	 70.7057 	 -53.3441
| 41> *
| 42>
| 43>                          ****END OF INPUT****

CARTESIAN COORDINATES (ANGSTROEM)
---------------------------------
  S    -134.557000   66.586200  -55.468000
  C    -134.358000   64.872100  -55.821200
  C    -135.480000   64.134700  -55.397400
  C    -136.459000   65.028300  -54.790700
  C    -136.063000   66.310800  -54.619600
  H    -137.418000   64.690800  -54.411100
  C    -135.809000   62.640100  -55.646600
  H    -136.025000   62.193900  -54.685400
  H    -134.984000   62.195500  -56.107700
  C    -136.941000   62.378800  -56.523900
  H    -136.562000   62.668400  -57.470400
  H    -137.171000   61.286300  -56.580800
  C    -138.360000   62.842700  -56.146700
  H    -138.580000   62.818900  -55.060600
  H    -138.501000   63.841400  -56.410400
  H    -139.103000   62.442900  -56.802300
  S    -137.276000   68.799800  -54.832400
  C    -137.685000   69.655900  -53.390200
  C    -137.649000   68.824100  -52.273500
  C    -137.144000   67.495500  -52.592800
  C    -136.759000   67.417700  -53.923600
  H    -137.991000   69.223100  -51.298300
  C    -136.887000   66.466800  -51.417700
  H    -136.269000   67.008100  -50.815200
  H    -136.314000   65.570700  -51.684600
  C    -138.095000   66.127100  -50.618900
  H    -138.899000   65.894200  -51.267200
  H    -138.543000   67.024300  -50.102800
  C    -137.847000   64.907500  -49.749300
  H    -137.049000   65.123900  -49.080400
  H    -137.619000   63.977600  -50.202700
  H    -138.764000   64.768700  -49.090900
  H    -133.618000   64.602100  -56.536200
  H    -137.921000   70.705700  -53.344100

 Total Charge           Charge          ....    0
 Multiplicity           Mult            ....    1
 Number of Electrons    NEL             ....  134
 Basis Dimension        Dim             ....  322

ORBITAL ENERGIES
----------------

  NO   OCC          E(Eh)            E(eV)
   0   2.0000     -88.965110     -2420.8637
   1   2.0000     -88.960755     -2420.7452
   2   2.0000     -10.326164      -280.9892
   3   2.0000     -10.325504      -280.9712
   4   2.0000     -10.316940      -280.7382
   5   2.0000     -10.316438      -280.7246
   6   2.0000     -10.310211      -280.5551
   7   2.0000     -10.308651      -280.5126
   8   2.0000     -10.299832      -280.2727
   9   2.0000     -10.291656      -280.0502
  10   2.0000     -10.286313      -279.9048
  11   2.0000     -10.284936      -279.8673
  12   2.0000     -10.282206      -279.7931
  13   2.0000     -10.281087      -279.7626
  14   2.0000     -10.277089      -279.6538
  15   2.0000     -10.272862      -279.5388
  16   2.0000      -8.080628      -219.8851
  17   2.0000      -8.075693      -219.7508
  18   2.0000      -6.039086      -164.3319
  19   2.0000      -6.035076      -164.2228
  20   2.0000      -6.034175      -164.1982
  21   2.0000      -6.031352      -164.1214
  22   2.0000      -6.030220      -164.0906
  23   2.0000      -6.026422      -163.9873
  24   2.0000      -1.004517       -27.3343
  25   2.0000      -0.982089       -26.7240
  26   2.0000      -0.921479       -25.0747
  27   2.0000      -0.915878       -24.9223
  28   2.0000      -0.865592       -23.5540
  29   2.0000      -0.849132       -23.1061
  30   2.0000      -0.839682       -22.8489
  31   2.0000      -0.817214       -22.2375
  32   2.0000      -0.792062       -21.5531
  33   2.0000      -0.778706       -21.1897
  34   2.0000      -0.705116       -19.1872
  35   2.0000      -0.699258       -19.0278
  36   2.0000      -0.692693       -18.8491
  37   2.0000      -0.656617       -17.8674
  38   2.0000      -0.644837       -17.5469
  39   2.0000      -0.618846       -16.8397
  40   2.0000      -0.596997       -16.2451
  41   2.0000      -0.583228       -15.8704
  42   2.0000      -0.567362       -15.4387
  43   2.0000      -0.553876       -15.0717
  44   2.0000      -0.542032       -14.7494
  45   2.0000      -0.524215       -14.2646
  46   2.0000      -0.520123       -14.1533
  47   2.0000      -0.515616       -14.0306
  48   2.0000      -0.505827       -13.7642
  49   2.0000      -0.498231       -13.5575
  50   2.0000      -0.487713       -13.2713
  51   2.0000      -0.484301       -13.1785
  52   2.0000      -0.474890       -12.9224
  53   2.0000      -0.464578       -12.6418
  54   2.0000      -0.462040       -12.5727
  55   2.0000      -0.446796       -12.1579
  56   2.0000      -0.444501       -12.0955
  57   2.0000      -0.442076       -12.0295
  58   2.0000      -0.434361       -11.8196
  59   2.0000      -0.429048       -11.6750
  60   2.0000      -0.423453       -11.5227
  61   2.0000      -0.407282       -11.0827
  62   2.0000      -0.398195       -10.8354
  63   2.0000      -0.337577        -9.1859
  64   2.0000      -0.330265        -8.9870
  65   2.0000      -0.325512        -8.8576
  66   2.0000      -0.302017        -8.2183
  67   0.0000       0.035587         0.9684
  68   0.0000       0.069764         1.8984
  69   0.0000       0.115584         3.1452
  70   0.0000       0.123327         3.3559
  71   0.0000       0.126095         3.4312

MULLIKEN ATOMIC CHARGES
-----------------------
   0 S :    0.095556
   1 C :   -0.121477
   2 C :   -0.120580
   3 C :    0.044294
   4 C :   -0.157683
   5 H :   -0.001131
   6 C :    0.149583
   7 H :    0.021651
   8 H :    0.004122
   9 C :   -0.091082
  10 H :    0.013746
  11 H :    0.035533
  12 C :   -0.028664
  13 H :    0.041120
  14 H :    0.012332
  15 H :    0.025450
  16 S :    0.122679
  17 C :   -0.097830
  18 C :   -0.060534
  19 C :   -0.012015
  20 C :   -0.180315
  21 H :    0.034380
  22 C :    0.116154
  23 H :    0.007757
  24 H :    0.029917
  25 C :   -0.089133
  26 H :    0.014587
  27 H :    0.031191
  28 C :   -0.034085
  29 H :    0.017975
  30 H :    0.033631
  31 H :    0.035999
  32 H :    0.049460
  33 H :    0.057413
Sum of atomic charges:   -0.0000000

LOEWDIN ATOMIC CHARGES
----------------------
   0 S :    0.395380
   1 C :   -0.191382
   2 C :   -0.054783
   3 C :   -0.062739
   4 C :   -0.194056
   5 H :    0.029118
   6 C :   -0.022991
   7 H :    0.028991
   8 H :    0.026314
   9 C :   -0.043197
  10 H :    0.020568
  11 H :    0.032758
  12 C :   -0.069339
  13 H :    0.029715
  14 H :    0.017407
  15 H :    0.028555
  16 S :    0.420184
  17 C :   -0.191132
  18 C :   -0.077036
  19 C :   -0.043166
  20 C :   -0.213555
  21 H :    0.035771
  22 C :   -0.021556
  23 H :    0.020584
  24 H :    0.033506
  25 C :   -0.047250
  26 H :    0.017506
  27 H :    0.030021
  28 C :   -0.060248
  29 H :    0.019527
  30 H :    0.021528
  31 H :    0.035373
  32 H :    0.021003
  33 H :    0.028621

  Mayer bond orders larger than 0.100000
B(  0-S ,  1-C ) :   1.1440 B(  0-S ,  4-C ) :   1.1452 B(  1-C ,  2-C ) :   1.6113
B(  1-C , 32-H ) :   0.9723 B(  2-C ,  3-C ) :   1.2218 B(  2-C ,  6-C ) :   1.0195
B(  3-C ,  4-C ) :   1.6113 B(  3-C ,  5-H ) :   0.9916 B(  4-C , 20-C ) :   1.0031
B(  6-C ,  7-H ) :   0.9308 B(  6-C ,  8-H ) :   0.9342 B(  6-C ,  9-C ) :   1.0941
B(  9-C , 10-H ) :   0.9511 B(  9-C , 11-H ) :   0.9561 B(  9-C , 12-C ) :   1.0744
B( 12-C , 13-H ) :   0.9698 B( 12-C , 14-H ) :   0.9627 B( 12-C , 15-H ) :   0.9660
B( 16-S , 17-C ) :   1.1583 B( 16-S , 20-C ) :   1.1519 B( 17-C , 18-C ) :   1.6203
B( 17-C , 33-H ) :   0.9696 B( 18-C , 19-C ) :   1.2192 B( 18-C , 21-H ) :   0.9843
B( 19-C , 20-C ) :   1.6179 B( 19-C , 22-C ) :   1.0215 B( 22-C , 23-H ) :   0.9270
B( 22-C , 24-H ) :   0.9456 B( 22-C , 25-C ) :   1.0567 B( 25-C , 26-H ) :   0.9565
B( 25-C , 27-H ) :   0.9476 B( 25-C , 28-C ) :   1.0879 B( 28-C , 29-H ) :   0.9724
B( 28-C , 30-H ) :   0.9756 B( 28-C , 31-H ) :   0.9719

Dispersion correction           -0.014133659
FINAL SINGLE POINT ENERGY     -1339.854482732576

DIPOLE MOMENT
-------------
                                X             Y             Z
Electronic contribution:     11.05762      22.16135     -11.87836
Nuclear contribution   :    -11.36093     -22.55766      12.14780
                        -----------------------------------------
Total Dipole Moment    :     -0.30331      -0.39631       0.26944
                        -----------------------------------------
Magnitude (a.u.)       :      0.56715
Magnitude (Debye)      :      1.44157

Rotational constants in cm-1:     0.016050     0.009425     0.007258
Rotational constants in MHz :   481.158442   282.540227   217.585913

                             ****ORCA TERMINATED NORMALLY****
TOTAL RUN TIME: 0 days 0 hours 0 minutes 21 seconds 648 msec
