                         Program Version 4.2.1 -  RELEASE  -
|  1> ! wB97X-D3 SP def2-SVP
|  2> %pal
|  3> nprocs 24
|  4> end
|  5>
|  6> * xyz 0 1
|  7> S 	 42.3041 	 -20.5434 	 -111.096
|  8> C 	 43.8666 	 -20.1511 	 -111.774
|  9> C 	 44.8758 	 -20.2827 	 -110.841
| 10> C 	 44.3488 	 -20.8107 	 -109.61
| 11> C 	 43.0344 	 -21.1393 	 -109.659
| 12> H 	 44.8186 	 -20.9622 	 -108.629
| 13> C 	 46.3541 	 -20.1832 	 -111.032
| 14> H 	 46.9258 	 -19.7874 	 -110.23
| 15> H 	 46.4186 	 -19.514 	 -111.883
| 16> C 	 47.0621 	 -21.5414 	 -111.318
| 17> H 	 48.0813 	 -21.4146 	 -111.004
| 18> H 	 46.719 	 -22.3334 	 -110.704
| 19> C 	 46.9705 	 -21.9371 	 -112.778
| 20> H 	 45.8697 	 -21.9689 	 -113.067
| 21> H 	 47.4048 	 -21.1218 	 -113.37
| 22> H 	 47.4406 	 -22.8752 	 -112.992
| 23> S 	 40.8021 	 -20.4956 	 -108.139
| 24> C 	 40.4231 	 -21.4105 	 -106.737
| 25> C 	 41.2406 	 -22.5187 	 -106.628
| 26> C 	 42.2577 	 -22.6145 	 -107.673
| 27> C 	 42.1819 	 -21.5091 	 -108.514
| 28> H 	 41.0829 	 -23.1935 	 -105.78
| 29> C 	 43.3363 	 -23.6982 	 -107.565
| 30> H 	 43.7801 	 -23.8183 	 -106.515
| 31> H 	 44.037 	 -23.2991 	 -108.249
| 32> C 	 42.91 	 -25.1836 	 -107.966
| 33> H 	 41.8809 	 -25.2718 	 -107.463
| 34> H 	 43.4798 	 -25.9151 	 -107.416
| 35> C 	 42.9412 	 -25.4232 	 -109.541
| 36> H 	 43.8918 	 -25.1005 	 -109.836
| 37> H 	 42.2953 	 -24.8414 	 -110.102
| 38> H 	 42.9151 	 -26.5246 	 -109.721
| 39> H 	 44.1117 	 -19.9762 	 -112.827
| 40> H 	 39.5684 	 -21.2029 	 -106.086
| 41> *
| 42>
| 43>                          ****END OF INPUT****

CARTESIAN COORDINATES (ANGSTROEM)
---------------------------------
  S     42.304100  -20.543400  -111.096000
  C     43.866600  -20.151100  -111.774000
  C     44.875800  -20.282700  -110.841000
  C     44.348800  -20.810700  -109.610000
  C     43.034400  -21.139300  -109.659000
  H     44.818600  -20.962200  -108.629000
  C     46.354100  -20.183200  -111.032000
  H     46.925800  -19.787400  -110.230000
  H     46.418600  -19.514000  -111.883000
  C     47.062100  -21.541400  -111.318000
  H     48.081300  -21.414600  -111.004000
  H     46.719000  -22.333400  -110.704000
  C     46.970500  -21.937100  -112.778000
  H     45.869700  -21.968900  -113.067000
  H     47.404800  -21.121800  -113.370000
  H     47.440600  -22.875200  -112.992000
  S     40.802100  -20.495600  -108.139000
  C     40.423100  -21.410500  -106.737000
  C     41.240600  -22.518700  -106.628000
  C     42.257700  -22.614500  -107.673000
  C     42.181900  -21.509100  -108.514000
  H     41.082900  -23.193500  -105.780000
  C     43.336300  -23.698200  -107.565000
  H     43.780100  -23.818300  -106.515000
  H     44.037000  -23.299100  -108.249000
  C     42.910000  -25.183600  -107.966000
  H     41.880900  -25.271800  -107.463000
  H     43.479800  -25.915100  -107.416000
  C     42.941200  -25.423200  -109.541000
  H     43.891800  -25.100500  -109.836000
  H     42.295300  -24.841400  -110.102000
  H     42.915100  -26.524600  -109.721000
  H     44.111700  -19.976200  -112.827000
  H     39.568400  -21.202900  -106.086000

 Total Charge           Charge          ....    0
 Multiplicity           Mult            ....    1
 Number of Electrons    NEL             ....  134
 Basis Dimension        Dim             ....  322

ORBITAL ENERGIES
----------------

  NO   OCC          E(Eh)            E(eV)
   0   2.0000     -88.966563     -2420.9033
   1   2.0000     -88.965547     -2420.8756
   2   2.0000     -10.329702      -281.0855
   3   2.0000     -10.325057      -280.9591
   4   2.0000     -10.317140      -280.7437
   5   2.0000     -10.315068      -280.6873
   6   2.0000     -10.307681      -280.4863
   7   2.0000     -10.303342      -280.3682
   8   2.0000     -10.297477      -280.2086
   9   2.0000     -10.296610      -280.1850
  10   2.0000     -10.294407      -280.1250
  11   2.0000     -10.291872      -280.0561
  12   2.0000     -10.289922      -280.0030
  13   2.0000     -10.281743      -279.7805
  14   2.0000     -10.279332      -279.7149
  15   2.0000     -10.272663      -279.5334
  16   2.0000      -8.082031      -219.9233
  17   2.0000      -8.080921      -219.8930
  18   2.0000      -6.040555      -164.3719
  19   2.0000      -6.039457      -164.3420
  20   2.0000      -6.036524      -164.2622
  21   2.0000      -6.035309      -164.2291
  22   2.0000      -6.032631      -164.1562
  23   2.0000      -6.031639      -164.1293
  24   2.0000      -1.012539       -27.5526
  25   2.0000      -0.987397       -26.8684
  26   2.0000      -0.917358       -24.9626
  27   2.0000      -0.897370       -24.4187
  28   2.0000      -0.869445       -23.6588
  29   2.0000      -0.850814       -23.1518
  30   2.0000      -0.841742       -22.9050
  31   2.0000      -0.814732       -22.1700
  32   2.0000      -0.783815       -21.3287
  33   2.0000      -0.775416       -21.1002
  34   2.0000      -0.711238       -19.3538
  35   2.0000      -0.701908       -19.0999
  36   2.0000      -0.693257       -18.8645
  37   2.0000      -0.655550       -17.8384
  38   2.0000      -0.643806       -17.5188
  39   2.0000      -0.617751       -16.8099
  40   2.0000      -0.590713       -16.0741
  41   2.0000      -0.575248       -15.6533
  42   2.0000      -0.551367       -15.0035
  43   2.0000      -0.545458       -14.8427
  44   2.0000      -0.538937       -14.6652
  45   2.0000      -0.533692       -14.5225
  46   2.0000      -0.526034       -14.3141
  47   2.0000      -0.510272       -13.8852
  48   2.0000      -0.503499       -13.7009
  49   2.0000      -0.499838       -13.6013
  50   2.0000      -0.487423       -13.2635
  51   2.0000      -0.480914       -13.0863
  52   2.0000      -0.470650       -12.8070
  53   2.0000      -0.462208       -12.5773
  54   2.0000      -0.456005       -12.4085
  55   2.0000      -0.452601       -12.3159
  56   2.0000      -0.443233       -12.0610
  57   2.0000      -0.441420       -12.0116
  58   2.0000      -0.432346       -11.7647
  59   2.0000      -0.426472       -11.6049
  60   2.0000      -0.419515       -11.4156
  61   2.0000      -0.417337       -11.3563
  62   2.0000      -0.410150       -11.1607
  63   2.0000      -0.351078        -9.5533
  64   2.0000      -0.329087        -8.9549
  65   2.0000      -0.327872        -8.9219
  66   2.0000      -0.296518        -8.0687
  67   0.0000       0.036339         0.9888
  68   0.0000       0.066774         1.8170
  69   0.0000       0.110368         3.0033
  70   0.0000       0.113158         3.0792
  71   0.0000       0.127208         3.4615

MULLIKEN ATOMIC CHARGES
-----------------------
   0 S :    0.104425
   1 C :   -0.116399
   2 C :   -0.080442
   3 C :    0.013655
   4 C :   -0.149997
   5 H :    0.029073
   6 C :    0.068204
   7 H :    0.022138
   8 H :    0.015952
   9 C :   -0.040682
  10 H :    0.017322
  11 H :    0.019995
  12 C :   -0.058982
  13 H :    0.036593
  14 H :    0.027253
  15 H :    0.037212
  16 S :    0.114447
  17 C :   -0.100397
  18 C :   -0.043085
  19 C :   -0.029657
  20 C :   -0.171122
  21 H :    0.025199
  22 C :    0.040096
  23 H :    0.051974
  24 H :    0.000979
  25 C :   -0.092575
  26 H :    0.031865
  27 H :    0.025169
  28 C :    0.002780
  29 H :    0.007888
  30 H :    0.031399
  31 H :    0.042240
  32 H :    0.053148
  33 H :    0.064332
Sum of atomic charges:    0.0000000

LOEWDIN ATOMIC CHARGES
----------------------
   0 S :    0.412880
   1 C :   -0.201591
   2 C :   -0.059462
   3 C :   -0.065235
   4 C :   -0.202219
   5 H :    0.036626
   6 C :   -0.026394
   7 H :    0.030199
   8 H :    0.028888
   9 C :   -0.032731
  10 H :    0.019710
  11 H :    0.018746
  12 C :   -0.065694
  13 H :    0.031556
  14 H :    0.023726
  15 H :    0.022185
  16 S :    0.414016
  17 C :   -0.200396
  18 C :   -0.073953
  19 C :   -0.058442
  20 C :   -0.200126
  21 H :    0.031895
  22 C :   -0.035449
  23 H :    0.043449
  24 H :    0.016484
  25 C :   -0.039857
  26 H :    0.027665
  27 H :    0.018717
  28 C :   -0.053077
  29 H :    0.018053
  30 H :    0.019315
  31 H :    0.033961
  32 H :    0.032312
  33 H :    0.034242

  Mayer bond orders larger than 0.100000
B(  0-S ,  1-C ) :   1.1323 B(  0-S ,  4-C ) :   1.1443 B(  1-C ,  2-C ) :   1.6269
B(  1-C , 32-H ) :   0.9605 B(  2-C ,  3-C ) :   1.2083 B(  2-C ,  6-C ) :   1.0448
B(  3-C ,  4-C ) :   1.6115 B(  3-C ,  5-H ) :   0.9849 B(  4-C , 20-C ) :   1.0091
B(  6-C ,  7-H ) :   0.9402 B(  6-C ,  8-H ) :   0.9399 B(  6-C ,  9-C ) :   1.0578
B(  9-C , 10-H ) :   0.9560 B(  9-C , 11-H ) :   0.9550 B(  9-C , 12-C ) :   1.0803
B( 12-C , 13-H ) :   0.9747 B( 12-C , 14-H ) :   0.9755 B( 12-C , 15-H ) :   0.9730
B( 16-S , 17-C ) :   1.1490 B( 16-S , 20-C ) :   1.1476 B( 17-C , 18-C ) :   1.6304
B( 17-C , 33-H ) :   0.9654 B( 18-C , 19-C ) :   1.2152 B( 18-C , 21-H ) :   0.9867
B( 19-C , 20-C ) :   1.6120 B( 19-C , 22-C ) :   1.0330 B( 22-C , 23-H ) :   0.9459
B( 22-C , 24-H ) :   0.9357 B( 22-C , 25-C ) :   1.0564 B( 25-C , 26-H ) :   0.9606
B( 25-C , 27-H ) :   0.9615 B( 25-C , 28-C ) :   1.0553 B( 28-C , 29-H ) :   0.9735
B( 28-C , 30-H ) :   0.9809 B( 28-C , 31-H ) :   0.9771

Dispersion correction           -0.014639865
FINAL SINGLE POINT ENERGY     -1339.867113548383

DIPOLE MOMENT
-------------
                                X             Y             Z
Electronic contribution:    -21.07637      17.25164       5.04094
Nuclear contribution   :     21.66490     -17.56078      -4.83038
                        -----------------------------------------
Total Dipole Moment    :      0.58853      -0.30914       0.21056
                        -----------------------------------------
Magnitude (a.u.)       :      0.69733
Magnitude (Debye)      :      1.77248

Rotational constants in cm-1:     0.019252     0.009145     0.007157
Rotational constants in MHz :   577.159892   274.146279   214.548351

                             ****ORCA TERMINATED NORMALLY****
TOTAL RUN TIME: 0 days 0 hours 0 minutes 21 seconds 951 msec
