                         Program Version 4.2.1 -  RELEASE  -
|  1> ! wB97X-D3 SP def2-SVP
|  2> %pal
|  3> nprocs 24
|  4> end
|  5>
|  6> * xyz 0 1
|  7> S 	 -64.9302 	 -50.5827 	 -84.2662
|  8> C 	 -64.5079 	 -51.9641 	 -83.2468
|  9> C 	 -65.5137 	 -52.8699 	 -83.1018
| 10> C 	 -66.7056 	 -52.4364 	 -83.743
| 11> C 	 -66.5755 	 -51.1795 	 -84.266
| 12> H 	 -67.6326 	 -53.0865 	 -83.6952
| 13> C 	 -65.4041 	 -54.2329 	 -82.3949
| 14> H 	 -64.3149 	 -54.4506 	 -82.2187
| 15> H 	 -65.6929 	 -55.0285 	 -83.0878
| 16> C 	 -66.2522 	 -54.2283 	 -81.0941
| 17> H 	 -65.9308 	 -53.4135 	 -80.4125
| 18> H 	 -67.3175 	 -53.8323 	 -81.2294
| 19> C 	 -66.4694 	 -55.6529 	 -80.4965
| 20> H 	 -65.5899 	 -56.2518 	 -80.3014
| 21> H 	 -66.9272 	 -55.6011 	 -79.4452
| 22> H 	 -67.1722 	 -56.1348 	 -81.1765
| 23> S 	 -67.6923 	 -48.711 	 -84.3817
| 24> C 	 -69.1655 	 -48.5023 	 -85.2989
| 25> C 	 -69.6145 	 -49.6854 	 -85.7662
| 26> C 	 -68.8503 	 -50.8309 	 -85.4351
| 27> C 	 -67.674 	 -50.4391 	 -84.8136
| 28> H 	 -70.5187 	 -49.625 	 -86.3696
| 29> C 	 -69.1335 	 -52.1959 	 -85.8528
| 30> H 	 -68.2365 	 -52.7811 	 -85.8639
| 31> H 	 -69.4796 	 -52.2714 	 -86.8893
| 32> C 	 -70.2251 	 -52.9391 	 -85.0583
| 33> H 	 -70.2012 	 -52.6682 	 -83.9705
| 34> H 	 -70.1369 	 -54.0125 	 -85.2325
| 35> C 	 -71.6284 	 -52.4917 	 -85.4959
| 36> H 	 -71.8115 	 -51.5663 	 -84.893
| 37> H 	 -72.3304 	 -53.1808 	 -85.0825
| 38> H 	 -71.7497 	 -52.3457 	 -86.592
| 39> H 	 -63.4813 	 -52.1715 	 -82.9402
| 40> H 	 -69.4754 	 -47.5035 	 -85.5788
| 41> *
| 42>
| 43>                          ****END OF INPUT****

CARTESIAN COORDINATES (ANGSTROEM)
---------------------------------
  S    -64.930200  -50.582700  -84.266200
  C    -64.507900  -51.964100  -83.246800
  C    -65.513700  -52.869900  -83.101800
  C    -66.705600  -52.436400  -83.743000
  C    -66.575500  -51.179500  -84.266000
  H    -67.632600  -53.086500  -83.695200
  C    -65.404100  -54.232900  -82.394900
  H    -64.314900  -54.450600  -82.218700
  H    -65.692900  -55.028500  -83.087800
  C    -66.252200  -54.228300  -81.094100
  H    -65.930800  -53.413500  -80.412500
  H    -67.317500  -53.832300  -81.229400
  C    -66.469400  -55.652900  -80.496500
  H    -65.589900  -56.251800  -80.301400
  H    -66.927200  -55.601100  -79.445200
  H    -67.172200  -56.134800  -81.176500
  S    -67.692300  -48.711000  -84.381700
  C    -69.165500  -48.502300  -85.298900
  C    -69.614500  -49.685400  -85.766200
  C    -68.850300  -50.830900  -85.435100
  C    -67.674000  -50.439100  -84.813600
  H    -70.518700  -49.625000  -86.369600
  C    -69.133500  -52.195900  -85.852800
  H    -68.236500  -52.781100  -85.863900
  H    -69.479600  -52.271400  -86.889300
  C    -70.225100  -52.939100  -85.058300
  H    -70.201200  -52.668200  -83.970500
  H    -70.136900  -54.012500  -85.232500
  C    -71.628400  -52.491700  -85.495900
  H    -71.811500  -51.566300  -84.893000
  H    -72.330400  -53.180800  -85.082500
  H    -71.749700  -52.345700  -86.592000
  H    -63.481300  -52.171500  -82.940200
  H    -69.475400  -47.503500  -85.578800

 Total Charge           Charge          ....    0
 Multiplicity           Mult            ....    1
 Number of Electrons    NEL             ....  134
 Basis Dimension        Dim             ....  322

ORBITAL ENERGIES
----------------

  NO   OCC          E(Eh)            E(eV)
   0   2.0000     -88.969864     -2420.9931
   1   2.0000     -88.958519     -2420.6844
   2   2.0000     -10.326271      -280.9921
   3   2.0000     -10.324017      -280.9308
   4   2.0000     -10.311893      -280.6009
   5   2.0000     -10.309753      -280.5427
   6   2.0000     -10.302534      -280.3462
   7   2.0000     -10.298842      -280.2457
   8   2.0000     -10.298596      -280.2390
   9   2.0000     -10.298177      -280.2277
  10   2.0000     -10.295231      -280.1475
  11   2.0000     -10.290129      -280.0086
  12   2.0000     -10.289132      -279.9815
  13   2.0000     -10.287283      -279.9312
  14   2.0000     -10.284470      -279.8547
  15   2.0000     -10.278932      -279.7040
  16   2.0000      -8.084245      -219.9835
  17   2.0000      -8.073476      -219.6904
  18   2.0000      -6.042798      -164.4329
  19   2.0000      -6.039080      -164.3317
  20   2.0000      -6.034702      -164.2126
  21   2.0000      -6.031922      -164.1369
  22   2.0000      -6.028049      -164.0316
  23   2.0000      -6.024195      -163.9267
  24   2.0000      -1.010298       -27.4916
  25   2.0000      -0.985650       -26.8209
  26   2.0000      -0.915368       -24.9084
  27   2.0000      -0.906134       -24.6572
  28   2.0000      -0.870509       -23.6877
  29   2.0000      -0.853729       -23.2312
  30   2.0000      -0.844162       -22.9708
  31   2.0000      -0.812961       -22.1218
  32   2.0000      -0.784212       -21.3395
  33   2.0000      -0.771517       -20.9941
  34   2.0000      -0.708017       -19.2661
  35   2.0000      -0.697848       -18.9894
  36   2.0000      -0.689652       -18.7664
  37   2.0000      -0.662476       -18.0269
  38   2.0000      -0.632508       -17.2114
  39   2.0000      -0.624034       -16.9808
  40   2.0000      -0.605348       -16.4723
  41   2.0000      -0.563806       -15.3419
  42   2.0000      -0.558628       -15.2010
  43   2.0000      -0.550963       -14.9925
  44   2.0000      -0.547662       -14.9026
  45   2.0000      -0.521900       -14.2016
  46   2.0000      -0.517182       -14.0732
  47   2.0000      -0.506610       -13.7855
  48   2.0000      -0.500540       -13.6204
  49   2.0000      -0.499592       -13.5946
  50   2.0000      -0.491223       -13.3669
  51   2.0000      -0.484107       -13.1732
  52   2.0000      -0.471352       -12.8261
  53   2.0000      -0.462021       -12.5722
  54   2.0000      -0.456776       -12.4295
  55   2.0000      -0.451149       -12.2764
  56   2.0000      -0.441696       -12.0192
  57   2.0000      -0.436051       -11.8656
  58   2.0000      -0.432872       -11.7790
  59   2.0000      -0.423362       -11.5203
  60   2.0000      -0.421415       -11.4673
  61   2.0000      -0.416161       -11.3243
  62   2.0000      -0.410079       -11.1588
  63   2.0000      -0.353536        -9.6202
  64   2.0000      -0.334188        -9.0937
  65   2.0000      -0.329509        -8.9664
  66   2.0000      -0.285516        -7.7693
  67   0.0000       0.024397         0.6639
  68   0.0000       0.079598         2.1660
  69   0.0000       0.103746         2.8231
  70   0.0000       0.121029         3.2934
  71   0.0000       0.130207         3.5431

MULLIKEN ATOMIC CHARGES
-----------------------
   0 S :    0.120791
   1 C :   -0.130878
   2 C :   -0.081636
   3 C :   -0.025126
   4 C :   -0.121643
   5 H :    0.037980
   6 C :    0.080177
   7 H :    0.028088
   8 H :    0.031108
   9 C :   -0.121903
  10 H :    0.037296
  11 H :    0.037857
  12 C :   -0.060012
  13 H :    0.036402
  14 H :    0.042470
  15 H :    0.041851
  16 S :    0.078989
  17 C :   -0.091735
  18 C :   -0.032955
  19 C :    0.001974
  20 C :   -0.142083
  21 H :    0.017010
  22 C :    0.051659
  23 H :    0.017413
  24 H :    0.021068
  25 C :   -0.110068
  26 H :    0.045031
  27 H :    0.035076
  28 C :   -0.054475
  29 H :    0.039986
  30 H :    0.027397
  31 H :    0.041552
  32 H :    0.043528
  33 H :    0.057812
Sum of atomic charges:    0.0000000

LOEWDIN ATOMIC CHARGES
----------------------
   0 S :    0.396962
   1 C :   -0.192590
   2 C :   -0.064104
   3 C :   -0.066255
   4 C :   -0.192886
   5 H :    0.044277
   6 C :   -0.030213
   7 H :    0.034606
   8 H :    0.030862
   9 C :   -0.054821
  10 H :    0.028446
  11 H :    0.032204
  12 C :   -0.073967
  13 H :    0.020854
  14 H :    0.036657
  15 H :    0.027175
  16 S :    0.379844
  17 C :   -0.184180
  18 C :   -0.070685
  19 C :   -0.060533
  20 C :   -0.171590
  21 H :    0.033856
  22 C :   -0.037534
  23 H :    0.027612
  24 H :    0.032661
  25 C :   -0.042403
  26 H :    0.030179
  27 H :    0.021800
  28 C :   -0.070758
  29 H :    0.032597
  30 H :    0.022003
  31 H :    0.025171
  32 H :    0.026621
  33 H :    0.028131

  Mayer bond orders larger than 0.100000
B(  0-S ,  1-C ) :   1.1127 B(  0-S ,  4-C ) :   1.1428 B(  1-C ,  2-C ) :   1.6511
B(  1-C , 32-H ) :   0.9612 B(  2-C ,  3-C ) :   1.2376 B(  2-C ,  6-C ) :   1.0181
B(  3-C ,  4-C ) :   1.5659 B(  3-C ,  5-H ) :   0.9814 B(  4-C , 20-C ) :   1.0688
B(  6-C ,  7-H ) :   0.9410 B(  6-C ,  8-H ) :   0.9451 B(  6-C ,  9-C ) :   1.0376
B(  9-C , 10-H ) :   0.9565 B(  9-C , 11-H ) :   0.9626 B(  9-C , 12-C ) :   1.0583
B( 12-C , 13-H ) :   0.9785 B( 12-C , 14-H ) :   0.9740 B( 12-C , 15-H ) :   0.9781
B( 16-S , 17-C ) :   1.1323 B( 16-S , 20-C ) :   1.1405 B( 17-C , 18-C ) :   1.6332
B( 17-C , 20-C ) :   0.1007 B( 17-C , 33-H ) :   0.9660 B( 18-C , 19-C ) :   1.2066
B( 18-C , 21-H ) :   0.9902 B( 19-C , 20-C ) :   1.5927 B( 19-C , 22-C ) :   1.0621
B( 22-C , 23-H ) :   0.9284 B( 22-C , 24-H ) :   0.9328 B( 22-C , 25-C ) :   1.0602
B( 25-C , 26-H ) :   0.9543 B( 25-C , 27-H ) :   0.9581 B( 25-C , 28-C ) :   1.0777
B( 28-C , 29-H ) :   0.9752 B( 28-C , 30-H ) :   0.9702 B( 28-C , 31-H ) :   0.9742

Dispersion correction           -0.014401155
FINAL SINGLE POINT ENERGY     -1339.878890863632

DIPOLE MOMENT
-------------
                                X             Y             Z
Electronic contribution:     14.01445      25.62929      -7.57551
Nuclear contribution   :    -14.31097     -26.28927       7.57761
                        -----------------------------------------
Total Dipole Moment    :     -0.29652      -0.65998       0.00210
                        -----------------------------------------
Magnitude (a.u.)       :      0.72353
Magnitude (Debye)      :      1.83908

Rotational constants in cm-1:     0.017292     0.009383     0.006714
Rotational constants in MHz :   518.411606   281.292695   201.291099

                             ****ORCA TERMINATED NORMALLY****
TOTAL RUN TIME: 0 days 0 hours 0 minutes 20 seconds 763 msec
