                         Program Version 4.2.1 -  RELEASE  -
|  1> ! wB97X-D3 SP def2-SVP
|  2> %pal
|  3> nprocs 24
|  4> end
|  5>
|  6> * xyz 0 1
|  7> S 	 45.3642 	 -14.2579 	 -109.287
|  8> C 	 45.9737 	 -13.6709 	 -110.852
|  9> C 	 45.5571 	 -12.3813 	 -111.063
| 10> C 	 44.8451 	 -11.8498 	 -109.961
| 11> C 	 44.7366 	 -12.7043 	 -108.9
| 12> H 	 44.4394 	 -10.8493 	 -109.9
| 13> C 	 46.1129 	 -11.5549 	 -112.174
| 14> H 	 45.6166 	 -10.61 	 -112.145
| 15> H 	 45.859 	 -12.0854 	 -113.077
| 16> C 	 47.6063 	 -11.224 	 -111.92
| 17> H 	 47.7868 	 -10.5191 	 -111.075
| 18> H 	 48.1698 	 -12.0831 	 -111.538
| 19> C 	 48.1972 	 -10.6255 	 -113.21
| 20> H 	 49.0443 	 -10.0302 	 -112.878
| 21> H 	 48.4851 	 -11.3793 	 -113.987
| 22> H 	 47.4372 	 -9.89895 	 -113.57
| 23> S 	 42.6045 	 -13.5798 	 -107.509
| 24> C 	 42.0927 	 -12.8893 	 -106.003
| 25> C 	 42.9402 	 -11.8152 	 -105.608
| 26> C 	 43.9625 	 -11.5184 	 -106.618
| 27> C 	 43.9145 	 -12.447 	 -107.694
| 28> H 	 42.8002 	 -11.3507 	 -104.64
| 29> C 	 45.0644 	 -10.4541 	 -106.432
| 30> H 	 45.6131 	 -10.4183 	 -107.36
| 31> H 	 45.6707 	 -10.9059 	 -105.627
| 32> C 	 44.6869 	 -9.06708 	 -105.899
| 33> H 	 45.4444 	 -8.4374 	 -105.397
| 34> H 	 43.8569 	 -9.08393 	 -105.269
| 35> C 	 44.3301 	 -8.26605 	 -107.137
| 36> H 	 43.827 	 -7.30869 	 -106.931
| 37> H 	 43.5751 	 -8.79662 	 -107.771
| 38> H 	 45.192 	 -7.93875 	 -107.702
| 39> H 	 46.6393 	 -14.0382 	 -111.58
| 40> H 	 41.2631 	 -13.2762 	 -105.357
| 41> *
| 42>
| 43>                          ****END OF INPUT****

CARTESIAN COORDINATES (ANGSTROEM)
---------------------------------
  S     45.364200  -14.257900  -109.287000
  C     45.973700  -13.670900  -110.852000
  C     45.557100  -12.381300  -111.063000
  C     44.845100  -11.849800  -109.961000
  C     44.736600  -12.704300  -108.900000
  H     44.439400  -10.849300  -109.900000
  C     46.112900  -11.554900  -112.174000
  H     45.616600  -10.610000  -112.145000
  H     45.859000  -12.085400  -113.077000
  C     47.606300  -11.224000  -111.920000
  H     47.786800  -10.519100  -111.075000
  H     48.169800  -12.083100  -111.538000
  C     48.197200  -10.625500  -113.210000
  H     49.044300  -10.030200  -112.878000
  H     48.485100  -11.379300  -113.987000
  H     47.437200   -9.898950  -113.570000
  S     42.604500  -13.579800  -107.509000
  C     42.092700  -12.889300  -106.003000
  C     42.940200  -11.815200  -105.608000
  C     43.962500  -11.518400  -106.618000
  C     43.914500  -12.447000  -107.694000
  H     42.800200  -11.350700  -104.640000
  C     45.064400  -10.454100  -106.432000
  H     45.613100  -10.418300  -107.360000
  H     45.670700  -10.905900  -105.627000
  C     44.686900   -9.067080  -105.899000
  H     45.444400   -8.437400  -105.397000
  H     43.856900   -9.083930  -105.269000
  C     44.330100   -8.266050  -107.137000
  H     43.827000   -7.308690  -106.931000
  H     43.575100   -8.796620  -107.771000
  H     45.192000   -7.938750  -107.702000
  H     46.639300  -14.038200  -111.580000
  H     41.263100  -13.276200  -105.357000

 Total Charge           Charge          ....    0
 Multiplicity           Mult            ....    1
 Number of Electrons    NEL             ....  134
 Basis Dimension        Dim             ....  322

ORBITAL ENERGIES
----------------

  NO   OCC          E(Eh)            E(eV)
   0   2.0000     -88.969708     -2420.9888
   1   2.0000     -88.966245     -2420.8946
   2   2.0000     -10.330275      -281.1011
   3   2.0000     -10.327226      -281.0181
   4   2.0000     -10.323463      -280.9157
   5   2.0000     -10.316045      -280.7139
   6   2.0000     -10.307700      -280.4868
   7   2.0000     -10.302179      -280.3366
   8   2.0000     -10.294319      -280.1227
   9   2.0000     -10.291464      -280.0450
  10   2.0000     -10.291375      -280.0426
  11   2.0000     -10.287969      -279.9499
  12   2.0000     -10.287853      -279.9467
  13   2.0000     -10.284331      -279.8509
  14   2.0000     -10.283828      -279.8372
  15   2.0000     -10.274653      -279.5875
  16   2.0000      -8.083964      -219.9758
  17   2.0000      -8.081144      -219.8991
  18   2.0000      -6.042579      -164.4269
  19   2.0000      -6.039586      -164.3455
  20   2.0000      -6.038478      -164.3153
  21   2.0000      -6.035438      -164.2326
  22   2.0000      -6.034675      -164.2118
  23   2.0000      -6.032154      -164.1433
  24   2.0000      -1.007667       -27.4200
  25   2.0000      -0.981131       -26.6979
  26   2.0000      -0.916516       -24.9397
  27   2.0000      -0.912170       -24.8214
  28   2.0000      -0.865551       -23.5528
  29   2.0000      -0.849817       -23.1247
  30   2.0000      -0.844621       -22.9833
  31   2.0000      -0.813452       -22.1351
  32   2.0000      -0.778621       -21.1874
  33   2.0000      -0.768444       -20.9104
  34   2.0000      -0.708318       -19.2743
  35   2.0000      -0.703438       -19.1415
  36   2.0000      -0.694924       -18.9099
  37   2.0000      -0.654684       -17.8148
  38   2.0000      -0.636861       -17.3299
  39   2.0000      -0.618042       -16.8178
  40   2.0000      -0.593406       -16.1474
  41   2.0000      -0.575391       -15.6572
  42   2.0000      -0.559439       -15.2231
  43   2.0000      -0.555366       -15.1123
  44   2.0000      -0.542189       -14.7537
  45   2.0000      -0.530758       -14.4427
  46   2.0000      -0.521448       -14.1893
  47   2.0000      -0.511393       -13.9157
  48   2.0000      -0.505636       -13.7591
  49   2.0000      -0.496384       -13.5073
  50   2.0000      -0.491913       -13.3856
  51   2.0000      -0.471215       -12.8224
  52   2.0000      -0.466399       -12.6914
  53   2.0000      -0.462567       -12.5871
  54   2.0000      -0.458796       -12.4845
  55   2.0000      -0.451354       -12.2820
  56   2.0000      -0.442490       -12.0408
  57   2.0000      -0.438456       -11.9310
  58   2.0000      -0.436307       -11.8725
  59   2.0000      -0.424410       -11.5488
  60   2.0000      -0.419595       -11.4178
  61   2.0000      -0.416764       -11.3407
  62   2.0000      -0.413988       -11.2652
  63   2.0000      -0.341338        -9.2883
  64   2.0000      -0.330529        -8.9942
  65   2.0000      -0.325502        -8.8574
  66   2.0000      -0.293574        -7.9886
  67   0.0000       0.036225         0.9857
  68   0.0000       0.063200         1.7198
  69   0.0000       0.112399         3.0585
  70   0.0000       0.117243         3.1903
  71   0.0000       0.131311         3.5732

MULLIKEN ATOMIC CHARGES
-----------------------
   0 S :    0.123959
   1 C :   -0.090275
   2 C :   -0.109120
   3 C :    0.037604
   4 C :   -0.150545
   5 H :    0.008052
   6 C :    0.083420
   7 H :    0.015505
   8 H :    0.038469
   9 C :   -0.107196
  10 H :    0.031706
  11 H :    0.026429
  12 C :   -0.042779
  13 H :    0.030752
  14 H :    0.054766
  15 H :    0.032908
  16 S :    0.115725
  17 C :   -0.117817
  18 C :   -0.050168
  19 C :   -0.044867
  20 C :   -0.176047
  21 H :    0.026606
  22 C :    0.069110
  23 H :    0.025223
  24 H :    0.045615
  25 C :   -0.016186
  26 H :    0.035588
  27 H :    0.013680
  28 C :   -0.104481
  29 H :    0.019764
  30 H :    0.042438
  31 H :    0.032321
  32 H :    0.021248
  33 H :    0.078596
Sum of atomic charges:    0.0000000

LOEWDIN ATOMIC CHARGES
----------------------
   0 S :    0.413315
   1 C :   -0.189558
   2 C :   -0.063456
   3 C :   -0.065537
   4 C :   -0.209241
   5 H :    0.030563
   6 C :   -0.030307
   7 H :    0.027795
   8 H :    0.032909
   9 C :   -0.041753
  10 H :    0.030394
  11 H :    0.020146
  12 C :   -0.069411
  13 H :    0.025353
  14 H :    0.031967
  15 H :    0.028570
  16 S :    0.423963
  17 C :   -0.204574
  18 C :   -0.076329
  19 C :   -0.050440
  20 C :   -0.206258
  21 H :    0.030590
  22 C :   -0.027444
  23 H :    0.028490
  24 H :    0.040226
  25 C :   -0.038336
  26 H :    0.032318
  27 H :    0.015573
  28 C :   -0.072569
  29 H :    0.020848
  30 H :    0.027497
  31 H :    0.021215
  32 H :    0.022880
  33 H :    0.040602

  Mayer bond orders larger than 0.100000
B(  0-S ,  1-C ) :   1.1222 B(  0-S ,  4-C ) :   1.1578 B(  1-C ,  2-C ) :   1.6176
B(  1-C , 32-H ) :   0.9691 B(  2-C ,  3-C ) :   1.2529 B(  2-C ,  6-C ) :   1.0308
B(  3-C ,  4-C ) :   1.5667 B(  3-C ,  5-H ) :   0.9953 B(  4-C , 20-C ) :   1.0069
B(  6-C ,  7-H ) :   0.9338 B(  6-C ,  8-H ) :   0.9403 B(  6-C ,  9-C ) :   1.0510
B(  9-C , 10-H ) :   0.9564 B(  9-C , 11-H ) :   0.9623 B(  9-C , 12-C ) :   1.0676
B( 12-C , 13-H ) :   0.9751 B( 12-C , 14-H ) :   0.9776 B( 12-C , 15-H ) :   0.9717
B( 16-S , 17-C ) :   1.1691 B( 16-S , 20-C ) :   1.1630 B( 17-C , 18-C ) :   1.5931
B( 17-C , 33-H ) :   0.9619 B( 18-C , 19-C ) :   1.2381 B( 18-C , 21-H ) :   0.9883
B( 19-C , 20-C ) :   1.5791 B( 19-C , 22-C ) :   1.0398 B( 22-C , 23-H ) :   0.9393
B( 22-C , 24-H ) :   0.9307 B( 22-C , 25-C ) :   1.0544 B( 25-C , 26-H ) :   0.9574
B( 25-C , 27-H ) :   0.9569 B( 25-C , 28-C ) :   1.0763 B( 28-C , 29-H ) :   0.9710
B( 28-C , 30-H ) :   0.9761 B( 28-C , 31-H ) :   0.9768

Dispersion correction           -0.013985369
FINAL SINGLE POINT ENERGY     -1339.864866194393

DIPOLE MOMENT
-------------
                                X             Y             Z
Electronic contribution:    -13.46392     -25.18053       8.00183
Nuclear contribution   :     13.75016      25.79279      -7.98150
                        -----------------------------------------
Total Dipole Moment    :      0.28624       0.61226       0.02033
                        -----------------------------------------
Magnitude (a.u.)       :      0.67617
Magnitude (Debye)      :      1.71869

Rotational constants in cm-1:     0.019011     0.008538     0.006331
Rotational constants in MHz :   569.922080   255.960958   189.800337

                             ****ORCA TERMINATED NORMALLY****
TOTAL RUN TIME: 0 days 0 hours 0 minutes 21 seconds 400 msec
