                         Program Version 4.2.1 -  RELEASE  -
|  1> ! wB97X-D3 SP def2-SVP
|  2> %pal
|  3> nprocs 24
|  4> end
|  5>
|  6> * xyz 0 1
|  7> S 	 -110.351 	 56.7216 	 -89.9005
|  8> C 	 -111.205 	 57.2923 	 -91.3113
|  9> C 	 -112.051 	 56.3145 	 -91.8345
| 10> C 	 -111.779 	 54.983 	 -91.2882
| 11> C 	 -110.824 	 55.0638 	 -90.2892
| 12> H 	 -112.227 	 54.0543 	 -91.4984
| 13> C 	 -113.172 	 56.3909 	 -92.8848
| 14> H 	 -113.181 	 55.3539 	 -93.311
| 15> H 	 -112.964 	 57.082 	 -93.696
| 16> C 	 -114.567 	 56.6944 	 -92.205
| 17> H 	 -114.83 	 55.9076 	 -91.4946
| 18> H 	 -114.376 	 57.5683 	 -91.5775
| 19> C 	 -115.77 	 56.895 	 -93.0626
| 20> H 	 -115.932 	 56.087 	 -93.7663
| 21> H 	 -116.698 	 57.0605 	 -92.5041
| 22> H 	 -115.512 	 57.8144 	 -93.6088
| 23> S 	 -110.484 	 54.2395 	 -87.6252
| 24> C 	 -110.159 	 52.5668 	 -87.3664
| 25> C 	 -110.052 	 51.7932 	 -88.5629
| 26> C 	 -110.228 	 52.6673 	 -89.7289
| 27> C 	 -110.413 	 53.9685 	 -89.3728
| 28> H 	 -109.898 	 50.722 	 -88.6327
| 29> C 	 -109.99 	 52.1086 	 -91.1662
| 30> H 	 -109.876 	 52.9093 	 -91.9017
| 31> H 	 -110.811 	 51.5568 	 -91.5351
| 32> C 	 -108.821 	 51.1063 	 -91.3175
| 33> H 	 -108.826 	 50.7147 	 -92.3206
| 34> H 	 -108.894 	 50.1679 	 -90.7509
| 35> C 	 -107.417 	 51.6977 	 -90.9814
| 36> H 	 -106.657 	 50.993 	 -91.3648
| 37> H 	 -107.211 	 51.7508 	 -89.8635
| 38> H 	 -107.342 	 52.7139 	 -91.442
| 39> H 	 -111.278 	 58.326 	 -91.5542
| 40> H 	 -110.165 	 52.1971 	 -86.3269
| 41> *
| 42>
| 43>                          ****END OF INPUT****

CARTESIAN COORDINATES (ANGSTROEM)
---------------------------------
  S    -110.351000   56.721600  -89.900500
  C    -111.205000   57.292300  -91.311300
  C    -112.051000   56.314500  -91.834500
  C    -111.779000   54.983000  -91.288200
  C    -110.824000   55.063800  -90.289200
  H    -112.227000   54.054300  -91.498400
  C    -113.172000   56.390900  -92.884800
  H    -113.181000   55.353900  -93.311000
  H    -112.964000   57.082000  -93.696000
  C    -114.567000   56.694400  -92.205000
  H    -114.830000   55.907600  -91.494600
  H    -114.376000   57.568300  -91.577500
  C    -115.770000   56.895000  -93.062600
  H    -115.932000   56.087000  -93.766300
  H    -116.698000   57.060500  -92.504100
  H    -115.512000   57.814400  -93.608800
  S    -110.484000   54.239500  -87.625200
  C    -110.159000   52.566800  -87.366400
  C    -110.052000   51.793200  -88.562900
  C    -110.228000   52.667300  -89.728900
  C    -110.413000   53.968500  -89.372800
  H    -109.898000   50.722000  -88.632700
  C    -109.990000   52.108600  -91.166200
  H    -109.876000   52.909300  -91.901700
  H    -110.811000   51.556800  -91.535100
  C    -108.821000   51.106300  -91.317500
  H    -108.826000   50.714700  -92.320600
  H    -108.894000   50.167900  -90.750900
  C    -107.417000   51.697700  -90.981400
  H    -106.657000   50.993000  -91.364800
  H    -107.211000   51.750800  -89.863500
  H    -107.342000   52.713900  -91.442000
  H    -111.278000   58.326000  -91.554200
  H    -110.165000   52.197100  -86.326900

 Total Charge           Charge          ....    0
 Multiplicity           Mult            ....    1
 Number of Electrons    NEL             ....  134
 Basis Dimension        Dim             ....  322

ORBITAL ENERGIES
----------------

  NO   OCC          E(Eh)            E(eV)
   0   2.0000     -88.969158     -2420.9739
   1   2.0000     -88.966015     -2420.8884
   2   2.0000     -10.330958      -281.1197
   3   2.0000     -10.325341      -280.9668
   4   2.0000     -10.324860      -280.9537
   5   2.0000     -10.313470      -280.6438
   6   2.0000     -10.308785      -280.5163
   7   2.0000     -10.306168      -280.4451
   8   2.0000     -10.303813      -280.3810
   9   2.0000     -10.300308      -280.2856
  10   2.0000     -10.294582      -280.1298
  11   2.0000     -10.294259      -280.1210
  12   2.0000     -10.287668      -279.9417
  13   2.0000     -10.284811      -279.8639
  14   2.0000     -10.281422      -279.7717
  15   2.0000     -10.277020      -279.6519
  16   2.0000      -8.084125      -219.9802
  17   2.0000      -8.080658      -219.8859
  18   2.0000      -6.042555      -164.4263
  19   2.0000      -6.039202      -164.3351
  20   2.0000      -6.038763      -164.3231
  21   2.0000      -6.035393      -164.2314
  22   2.0000      -6.034798      -164.2152
  23   2.0000      -6.031210      -164.1176
  24   2.0000      -1.002405       -27.2768
  25   2.0000      -0.978758       -26.6334
  26   2.0000      -0.906114       -24.6566
  27   2.0000      -0.903694       -24.5908
  28   2.0000      -0.864518       -23.5247
  29   2.0000      -0.853513       -23.2253
  30   2.0000      -0.841455       -22.8972
  31   2.0000      -0.807522       -21.9738
  32   2.0000      -0.783313       -21.3150
  33   2.0000      -0.770635       -20.9700
  34   2.0000      -0.698006       -18.9937
  35   2.0000      -0.695309       -18.9203
  36   2.0000      -0.687919       -18.7192
  37   2.0000      -0.661383       -17.9972
  38   2.0000      -0.645153       -17.5555
  39   2.0000      -0.616155       -16.7664
  40   2.0000      -0.598698       -16.2914
  41   2.0000      -0.563603       -15.3364
  42   2.0000      -0.554363       -15.0850
  43   2.0000      -0.550373       -14.9764
  44   2.0000      -0.532714       -14.4959
  45   2.0000      -0.521494       -14.1906
  46   2.0000      -0.515545       -14.0287
  47   2.0000      -0.512108       -13.9352
  48   2.0000      -0.510424       -13.8893
  49   2.0000      -0.491690       -13.3796
  50   2.0000      -0.490601       -13.3499
  51   2.0000      -0.477224       -12.9859
  52   2.0000      -0.469511       -12.7760
  53   2.0000      -0.460750       -12.5377
  54   2.0000      -0.458120       -12.4661
  55   2.0000      -0.452988       -12.3264
  56   2.0000      -0.444912       -12.1067
  57   2.0000      -0.433305       -11.7908
  58   2.0000      -0.427455       -11.6316
  59   2.0000      -0.425153       -11.5690
  60   2.0000      -0.424787       -11.5590
  61   2.0000      -0.413150       -11.2424
  62   2.0000      -0.411079       -11.1860
  63   2.0000      -0.351411        -9.5624
  64   2.0000      -0.332135        -9.0379
  65   2.0000      -0.327581        -8.9139
  66   2.0000      -0.288114        -7.8400
  67   0.0000       0.029759         0.8098
  68   0.0000       0.067835         1.8459
  69   0.0000       0.100796         2.7428
  70   0.0000       0.119433         3.2499
  71   0.0000       0.128942         3.5087

MULLIKEN ATOMIC CHARGES
-----------------------
   0 S :    0.092150
   1 C :   -0.095280
   2 C :   -0.101224
   3 C :    0.034333
   4 C :   -0.148693
   5 H :    0.004688
   6 C :    0.054543
   7 H :    0.029038
   8 H :    0.028170
   9 C :   -0.094049
  10 H :    0.023387
  11 H :    0.026055
  12 C :   -0.019838
  13 H :    0.030181
  14 H :    0.042906
  15 H :    0.024779
  16 S :    0.112479
  17 C :   -0.109239
  18 C :   -0.021169
  19 C :   -0.058858
  20 C :   -0.127383
  21 H :    0.024433
  22 C :    0.083801
  23 H :    0.034898
  24 H :    0.020869
  25 C :   -0.097234
  26 H :    0.022294
  27 H :    0.022584
  28 C :   -0.082689
  29 H :    0.036385
  30 H :    0.050605
  31 H :    0.045796
  32 H :    0.039200
  33 H :    0.072081
Sum of atomic charges:   -0.0000000

LOEWDIN ATOMIC CHARGES
----------------------
   0 S :    0.391357
   1 C :   -0.199774
   2 C :   -0.052060
   3 C :   -0.056521
   4 C :   -0.174323
   5 H :    0.026334
   6 C :   -0.029510
   7 H :    0.033125
   8 H :    0.026042
   9 C :   -0.046543
  10 H :    0.022207
  11 H :    0.023784
  12 C :   -0.066721
  13 H :    0.023438
  14 H :    0.031746
  15 H :    0.026648
  16 S :    0.406231
  17 C :   -0.193167
  18 C :   -0.065420
  19 C :   -0.055724
  20 C :   -0.198223
  21 H :    0.031532
  22 C :   -0.028461
  23 H :    0.032466
  24 H :    0.026412
  25 C :   -0.046519
  26 H :    0.023654
  27 H :    0.021207
  28 C :   -0.075024
  29 H :    0.026410
  30 H :    0.032971
  31 H :    0.029784
  32 H :    0.021439
  33 H :    0.031204

  Mayer bond orders larger than 0.100000
B(  0-S ,  1-C ) :   1.1238 B(  0-S ,  4-C ) :   1.1476 B(  1-C ,  2-C ) :   1.6361
B(  1-C , 32-H ) :   0.9735 B(  2-C ,  3-C ) :   1.2036 B(  2-C ,  6-C ) :   1.0247
B(  3-C ,  4-C ) :   1.5932 B(  3-C ,  5-H ) :   0.9966 B(  4-C , 20-C ) :   1.0201
B(  6-C ,  7-H ) :   0.9414 B(  6-C ,  8-H ) :   0.9478 B(  6-C ,  9-C ) :   1.0469
B(  9-C , 10-H ) :   0.9549 B(  9-C , 11-H ) :   0.9586 B(  9-C , 12-C ) :   1.0889
B( 12-C , 13-H ) :   0.9726 B( 12-C , 14-H ) :   0.9713 B( 12-C , 15-H ) :   0.9735
B( 16-S , 17-C ) :   1.1673 B( 16-S , 20-C ) :   1.1250 B( 17-C , 18-C ) :   1.5893
B( 17-C , 33-H ) :   0.9657 B( 18-C , 19-C ) :   1.2260 B( 18-C , 21-H ) :   0.9900
B( 19-C , 20-C ) :   1.6553 B( 19-C , 22-C ) :   1.0239 B( 22-C , 23-H ) :   0.9407
B( 22-C , 24-H ) :   0.9282 B( 22-C , 25-C ) :   1.0849 B( 25-C , 26-H ) :   0.9524
B( 25-C , 27-H ) :   0.9497 B( 25-C , 28-C ) :   1.0713 B( 28-C , 29-H ) :   0.9748
B( 28-C , 30-H ) :   0.9742 B( 28-C , 31-H ) :   0.9772

Dispersion correction           -0.014112834
FINAL SINGLE POINT ENERGY     -1339.878852719999

DIPOLE MOMENT
-------------
                                X             Y             Z
Electronic contribution:      7.72118       8.07129      19.49243
Nuclear contribution   :     -8.12143      -8.47240     -19.85502
                        -----------------------------------------
Total Dipole Moment    :     -0.40025      -0.40111      -0.36259
                        -----------------------------------------
Magnitude (a.u.)       :      0.67273
Magnitude (Debye)      :      1.70994

Rotational constants in cm-1:     0.020340     0.007443     0.006670
Rotational constants in MHz :   609.780141   223.131922   199.970105

                             ****ORCA TERMINATED NORMALLY****
TOTAL RUN TIME: 0 days 0 hours 0 minutes 20 seconds 89 msec
