                         Program Version 4.2.1 -  RELEASE  -
|  1> ! wB97X-D3 SP def2-SVP
|  2> %pal
|  3> nprocs 24
|  4> end
|  5>
|  6> * xyz 0 1
|  7> S 	 -101.563 	 -5.73568 	 -107.627
|  8> C 	 -101.197 	 -6.31547 	 -109.249
|  9> C 	 -101.965 	 -5.70719 	 -110.281
| 10> C 	 -102.702 	 -4.63014 	 -109.688
| 11> C 	 -102.571 	 -4.46646 	 -108.285
| 12> H 	 -103.226 	 -3.89562 	 -110.219
| 13> C 	 -101.944 	 -6.08913 	 -111.642
| 14> H 	 -102.805 	 -6.72639 	 -111.789
| 15> H 	 -101.195 	 -6.79723 	 -111.908
| 16> C 	 -102.223 	 -4.97796 	 -112.651
| 17> H 	 -103.308 	 -4.69359 	 -112.646
| 18> H 	 -101.633 	 -4.11594 	 -112.364
| 19> C 	 -101.936 	 -5.47803 	 -114.141
| 20> H 	 -102.032 	 -4.64996 	 -114.895
| 21> H 	 -100.927 	 -5.78061 	 -114.241
| 22> H 	 -102.641 	 -6.27946 	 -114.52
| 23> S 	 -102.306 	 -2.70579 	 -106.244
| 24> C 	 -103.624 	 -1.61057 	 -105.781
| 25> C 	 -104.71 	 -1.84317 	 -106.6
| 26> C 	 -104.513 	 -2.93439 	 -107.518
| 27> C 	 -103.246 	 -3.46625 	 -107.476
| 28> H 	 -105.59 	 -1.26976 	 -106.497
| 29> C 	 -105.684 	 -3.46057 	 -108.336
| 30> H 	 -105.199 	 -3.58861 	 -109.329
| 31> H 	 -106.42 	 -2.69635 	 -108.426
| 32> C 	 -106.311 	 -4.83945 	 -107.829
| 33> H 	 -106.518 	 -4.70954 	 -106.766
| 34> H 	 -105.474 	 -5.51563 	 -107.813
| 35> C 	 -107.351 	 -5.49494 	 -108.71
| 36> H 	 -106.863 	 -5.59226 	 -109.647
| 37> H 	 -108.194 	 -4.84968 	 -108.825
| 38> H 	 -107.599 	 -6.46579 	 -108.354
| 39> H 	 -100.531 	 -7.14379 	 -109.401
| 40> H 	 -103.545 	 -0.836324 	 -105.068
| 41> *
| 42>
| 43>                          ****END OF INPUT****

CARTESIAN COORDINATES (ANGSTROEM)
---------------------------------
  S    -101.563000   -5.735680  -107.627000
  C    -101.197000   -6.315470  -109.249000
  C    -101.965000   -5.707190  -110.281000
  C    -102.702000   -4.630140  -109.688000
  C    -102.571000   -4.466460  -108.285000
  H    -103.226000   -3.895620  -110.219000
  C    -101.944000   -6.089130  -111.642000
  H    -102.805000   -6.726390  -111.789000
  H    -101.195000   -6.797230  -111.908000
  C    -102.223000   -4.977960  -112.651000
  H    -103.308000   -4.693590  -112.646000
  H    -101.633000   -4.115940  -112.364000
  C    -101.936000   -5.478030  -114.141000
  H    -102.032000   -4.649960  -114.895000
  H    -100.927000   -5.780610  -114.241000
  H    -102.641000   -6.279460  -114.520000
  S    -102.306000   -2.705790  -106.244000
  C    -103.624000   -1.610570  -105.781000
  C    -104.710000   -1.843170  -106.600000
  C    -104.513000   -2.934390  -107.518000
  C    -103.246000   -3.466250  -107.476000
  H    -105.590000   -1.269760  -106.497000
  C    -105.684000   -3.460570  -108.336000
  H    -105.199000   -3.588610  -109.329000
  H    -106.420000   -2.696350  -108.426000
  C    -106.311000   -4.839450  -107.829000
  H    -106.518000   -4.709540  -106.766000
  H    -105.474000   -5.515630  -107.813000
  C    -107.351000   -5.494940  -108.710000
  H    -106.863000   -5.592260  -109.647000
  H    -108.194000   -4.849680  -108.825000
  H    -107.599000   -6.465790  -108.354000
  H    -100.531000   -7.143790  -109.401000
  H    -103.545000   -0.836324  -105.068000

 Total Charge           Charge          ....    0
 Multiplicity           Mult            ....    1
 Number of Electrons    NEL             ....  134
 Basis Dimension        Dim             ....  322

ORBITAL ENERGIES
----------------

  NO   OCC          E(Eh)            E(eV)
   0   2.0000     -88.969767     -2420.9905
   1   2.0000     -88.962414     -2420.7903
   2   2.0000     -10.332214      -281.1538
   3   2.0000     -10.323705      -280.9223
   4   2.0000     -10.316671      -280.7309
   5   2.0000     -10.314571      -280.6737
   6   2.0000     -10.304232      -280.3924
   7   2.0000     -10.300842      -280.3002
   8   2.0000     -10.297990      -280.2226
   9   2.0000     -10.293832      -280.1094
  10   2.0000     -10.291928      -280.0576
  11   2.0000     -10.290811      -280.0272
  12   2.0000     -10.289981      -280.0046
  13   2.0000     -10.285315      -279.8776
  14   2.0000     -10.281230      -279.7665
  15   2.0000     -10.269307      -279.4420
  16   2.0000      -8.083915      -219.9745
  17   2.0000      -8.077376      -219.7966
  18   2.0000      -6.042312      -164.4197
  19   2.0000      -6.038488      -164.3156
  20   2.0000      -6.035898      -164.2451
  21   2.0000      -6.034869      -164.2171
  22   2.0000      -6.031746      -164.1321
  23   2.0000      -6.028205      -164.0358
  24   2.0000      -1.005493       -27.3609
  25   2.0000      -0.981760       -26.7151
  26   2.0000      -0.923110       -25.1191
  27   2.0000      -0.901277       -24.5250
  28   2.0000      -0.868132       -23.6231
  29   2.0000      -0.853313       -23.2198
  30   2.0000      -0.845543       -23.0084
  31   2.0000      -0.815859       -22.2007
  32   2.0000      -0.782557       -21.2944
  33   2.0000      -0.770579       -20.9685
  34   2.0000      -0.718078       -19.5399
  35   2.0000      -0.699982       -19.0475
  36   2.0000      -0.690424       -18.7874
  37   2.0000      -0.668374       -18.1874
  38   2.0000      -0.645440       -17.5633
  39   2.0000      -0.624444       -16.9920
  40   2.0000      -0.588732       -16.0202
  41   2.0000      -0.577465       -15.7136
  42   2.0000      -0.565821       -15.3968
  43   2.0000      -0.560968       -15.2647
  44   2.0000      -0.528611       -14.3842
  45   2.0000      -0.524644       -14.2763
  46   2.0000      -0.519794       -14.1443
  47   2.0000      -0.518034       -14.0964
  48   2.0000      -0.504718       -13.7341
  49   2.0000      -0.498172       -13.5560
  50   2.0000      -0.492423       -13.3995
  51   2.0000      -0.487005       -13.2521
  52   2.0000      -0.470452       -12.8016
  53   2.0000      -0.465359       -12.6631
  54   2.0000      -0.458895       -12.4872
  55   2.0000      -0.452326       -12.3084
  56   2.0000      -0.443348       -12.0641
  57   2.0000      -0.435406       -11.8480
  58   2.0000      -0.430495       -11.7144
  59   2.0000      -0.428161       -11.6508
  60   2.0000      -0.424918       -11.5626
  61   2.0000      -0.418061       -11.3760
  62   2.0000      -0.414217       -11.2714
  63   2.0000      -0.348451        -9.4818
  64   2.0000      -0.329233        -8.9589
  65   2.0000      -0.325699        -8.8627
  66   2.0000      -0.284376        -7.7383
  67   0.0000       0.024048         0.6544
  68   0.0000       0.074528         2.0280
  69   0.0000       0.108481         2.9519
  70   0.0000       0.112698         3.0667
  71   0.0000       0.140229         3.8158

MULLIKEN ATOMIC CHARGES
-----------------------
   0 S :    0.120853
   1 C :   -0.129643
   2 C :   -0.062678
   3 C :    0.009887
   4 C :   -0.134416
   5 H :    0.003441
   6 C :    0.108887
   7 H :    0.029595
   8 H :    0.006282
   9 C :   -0.119672
  10 H :    0.046070
  11 H :    0.044109
  12 C :   -0.067925
  13 H :    0.037846
  14 H :    0.028739
  15 H :    0.045901
  16 S :    0.093954
  17 C :   -0.073923
  18 C :   -0.019510
  19 C :   -0.069718
  20 C :   -0.151476
  21 H :    0.004920
  22 C :    0.086127
  23 H :    0.006779
  24 H :    0.006329
  25 C :   -0.080538
  26 H :    0.025269
  27 H :    0.021244
  28 C :    0.026223
  29 H :    0.015948
  30 H :    0.024881
  31 H :    0.032548
  32 H :    0.039266
  33 H :    0.044401
Sum of atomic charges:    0.0000000

LOEWDIN ATOMIC CHARGES
----------------------
   0 S :    0.408943
   1 C :   -0.196570
   2 C :   -0.052355
   3 C :   -0.059178
   4 C :   -0.196133
   5 H :    0.017762
   6 C :   -0.046375
   7 H :    0.045725
   8 H :    0.030978
   9 C :   -0.034718
  10 H :    0.030623
  11 H :    0.023021
  12 C :   -0.070942
  13 H :    0.031128
  14 H :    0.017199
  15 H :    0.032899
  16 S :    0.404287
  17 C :   -0.168995
  18 C :   -0.062884
  19 C :   -0.060061
  20 C :   -0.207564
  21 H :    0.025224
  22 C :   -0.028777
  23 H :    0.029360
  24 H :    0.018666
  25 C :   -0.037607
  26 H :    0.021215
  27 H :    0.023232
  28 C :   -0.051287
  29 H :    0.024538
  30 H :    0.020628
  31 H :    0.026754
  32 H :    0.019239
  33 H :    0.022025

  Mayer bond orders larger than 0.100000
B(  0-S ,  1-C ) :   1.1459 B(  0-S ,  4-C ) :   1.1598 B(  1-C ,  2-C ) :   1.5590
B(  1-C ,  4-C ) :   0.1064 B(  1-C , 32-H ) :   0.9706 B(  2-C ,  3-C ) :   1.2576
B(  2-C ,  6-C ) :   1.0683 B(  3-C ,  4-C ) :   1.5417 B(  3-C ,  5-H ) :   0.9908
B(  4-C , 20-C ) :   1.0496 B(  6-C ,  7-H ) :   0.8980 B(  6-C ,  8-H ) :   0.9344
B(  6-C ,  9-C ) :   1.0518 B(  9-C , 10-H ) :   0.9453 B(  9-C , 11-H ) :   0.9685
B(  9-C , 12-C ) :   1.0750 B( 12-C , 13-H ) :   0.9760 B( 12-C , 14-H ) :   0.9782
B( 12-C , 15-H ) :   0.9756 B( 16-S , 17-C ) :   1.1476 B( 16-S , 20-C ) :   1.1420
B( 17-C , 18-C ) :   1.6012 B( 17-C , 33-H ) :   0.9761 B( 18-C , 19-C ) :   1.2434
B( 18-C , 21-H ) :   0.9977 B( 19-C , 20-C ) :   1.5886 B( 19-C , 22-C ) :   1.0455
B( 22-C , 23-H ) :   0.9269 B( 22-C , 24-H ) :   0.9315 B( 22-C , 25-C ) :   1.0527
B( 25-C , 26-H ) :   0.9572 B( 25-C , 27-H ) :   0.9551 B( 25-C , 28-C ) :   1.0801
B( 28-C , 29-H ) :   0.9701 B( 28-C , 30-H ) :   0.9774 B( 28-C , 31-H ) :   0.9710

Dispersion correction           -0.014140015
FINAL SINGLE POINT ENERGY     -1339.870885010482

DIPOLE MOMENT
-------------
                                X             Y             Z
Electronic contribution:     14.95613       6.49519      24.66337
Nuclear contribution   :    -15.36166      -6.59041     -25.27542
                        -----------------------------------------
Total Dipole Moment    :     -0.40553      -0.09522      -0.61205
                        -----------------------------------------
Magnitude (a.u.)       :      0.74036
Magnitude (Debye)      :      1.88184

Rotational constants in cm-1:     0.017391     0.008565     0.007051
Rotational constants in MHz :   521.373742   256.774575   211.381523

                             ****ORCA TERMINATED NORMALLY****
TOTAL RUN TIME: 0 days 0 hours 0 minutes 21 seconds 788 msec
