                         Program Version 4.2.1 -  RELEASE  -
|  1> ! wB97X-D3 SP def2-SVP
|  2> %pal
|  3> nprocs 24
|  4> end
|  5>
|  6> * xyz 0 1
|  7> S 	 -67.9979 	 -45.876 	 -87.1738
|  8> C 	 -67.0199 	 -44.9642 	 -88.4241
|  9> C 	 -66.4616 	 -45.8987 	 -89.2774
| 10> C 	 -66.8468 	 -47.2813 	 -88.9384
| 11> C 	 -67.6043 	 -47.4429 	 -87.821
| 12> H 	 -66.5679 	 -48.1244 	 -89.5391
| 13> C 	 -65.7502 	 -45.6573 	 -90.5484
| 14> H 	 -64.8713 	 -46.2806 	 -90.4621
| 15> H 	 -65.3192 	 -44.6493 	 -90.6465
| 16> C 	 -66.5727 	 -45.894 	 -91.7572
| 17> H 	 -67.2402 	 -46.8219 	 -91.6004
| 18> H 	 -67.2207 	 -45.0919 	 -91.8879
| 19> C 	 -65.753 	 -46.0534 	 -93.0196
| 20> H 	 -64.9733 	 -46.7417 	 -92.7858
| 21> H 	 -66.3013 	 -46.3264 	 -93.9319
| 22> H 	 -65.254 	 -45.0677 	 -93.1395
| 23> S 	 -69.9372 	 -48.5569 	 -86.9354
| 24> C 	 -70.1 	 -50.2996 	 -86.7299
| 25> C 	 -68.9141 	 -50.9303 	 -86.9722
| 26> C 	 -67.861 	 -50.0231 	 -87.3459
| 27> C 	 -68.2531 	 -48.6612 	 -87.3163
| 28> H 	 -68.8451 	 -52.048 	 -86.9852
| 29> C 	 -66.4695 	 -50.5273 	 -87.759
| 30> H 	 -66.2466 	 -51.252 	 -87.0441
| 31> H 	 -65.7048 	 -49.7287 	 -87.587
| 32> C 	 -66.3012 	 -51.1139 	 -89.1755
| 33> H 	 -66.9885 	 -50.6311 	 -89.8544
| 34> H 	 -66.6688 	 -52.1598 	 -89.0453
| 35> C 	 -64.8872 	 -51.0227 	 -89.7504
| 36> H 	 -64.7623 	 -51.5225 	 -90.7328
| 37> H 	 -64.1655 	 -51.4215 	 -89.0133
| 38> H 	 -64.5562 	 -49.9608 	 -89.804
| 39> H 	 -67.0978 	 -43.8643 	 -88.5794
| 40> H 	 -71.0985 	 -50.7135 	 -86.5057
| 41> *
| 42>
| 43>                          ****END OF INPUT****

CARTESIAN COORDINATES (ANGSTROEM)
---------------------------------
  S    -67.997900  -45.876000  -87.173800
  C    -67.019900  -44.964200  -88.424100
  C    -66.461600  -45.898700  -89.277400
  C    -66.846800  -47.281300  -88.938400
  C    -67.604300  -47.442900  -87.821000
  H    -66.567900  -48.124400  -89.539100
  C    -65.750200  -45.657300  -90.548400
  H    -64.871300  -46.280600  -90.462100
  H    -65.319200  -44.649300  -90.646500
  C    -66.572700  -45.894000  -91.757200
  H    -67.240200  -46.821900  -91.600400
  H    -67.220700  -45.091900  -91.887900
  C    -65.753000  -46.053400  -93.019600
  H    -64.973300  -46.741700  -92.785800
  H    -66.301300  -46.326400  -93.931900
  H    -65.254000  -45.067700  -93.139500
  S    -69.937200  -48.556900  -86.935400
  C    -70.100000  -50.299600  -86.729900
  C    -68.914100  -50.930300  -86.972200
  C    -67.861000  -50.023100  -87.345900
  C    -68.253100  -48.661200  -87.316300
  H    -68.845100  -52.048000  -86.985200
  C    -66.469500  -50.527300  -87.759000
  H    -66.246600  -51.252000  -87.044100
  H    -65.704800  -49.728700  -87.587000
  C    -66.301200  -51.113900  -89.175500
  H    -66.988500  -50.631100  -89.854400
  H    -66.668800  -52.159800  -89.045300
  C    -64.887200  -51.022700  -89.750400
  H    -64.762300  -51.522500  -90.732800
  H    -64.165500  -51.421500  -89.013300
  H    -64.556200  -49.960800  -89.804000
  H    -67.097800  -43.864300  -88.579400
  H    -71.098500  -50.713500  -86.505700

 Total Charge           Charge          ....    0
 Multiplicity           Mult            ....    1
 Number of Electrons    NEL             ....  134
 Basis Dimension        Dim             ....  322

ORBITAL ENERGIES
----------------

  NO   OCC          E(Eh)            E(eV)
   0   2.0000     -88.965297     -2420.8688
   1   2.0000     -88.960431     -2420.7364
   2   2.0000     -10.332641      -281.1655
   3   2.0000     -10.331992      -281.1478
   4   2.0000     -10.324746      -280.9506
   5   2.0000     -10.323290      -280.9110
   6   2.0000     -10.311152      -280.5807
   7   2.0000     -10.306774      -280.4616
   8   2.0000     -10.302677      -280.3501
   9   2.0000     -10.293788      -280.1082
  10   2.0000     -10.290960      -280.0313
  11   2.0000     -10.290444      -280.0172
  12   2.0000     -10.288541      -279.9654
  13   2.0000     -10.288254      -279.9576
  14   2.0000     -10.282338      -279.7967
  15   2.0000     -10.278515      -279.6926
  16   2.0000      -8.080448      -219.8802
  17   2.0000      -8.074515      -219.7187
  18   2.0000      -6.038936      -164.3278
  19   2.0000      -6.034810      -164.2155
  20   2.0000      -6.033352      -164.1759
  21   2.0000      -6.031265      -164.1191
  22   2.0000      -6.029096      -164.0600
  23   2.0000      -6.024964      -163.9476
  24   2.0000      -1.005856       -27.3707
  25   2.0000      -0.981186       -26.6994
  26   2.0000      -0.925913       -25.1954
  27   2.0000      -0.908512       -24.7219
  28   2.0000      -0.872973       -23.7548
  29   2.0000      -0.849776       -23.1236
  30   2.0000      -0.842493       -22.9254
  31   2.0000      -0.817514       -22.2457
  32   2.0000      -0.781627       -21.2691
  33   2.0000      -0.772893       -21.0315
  34   2.0000      -0.706107       -19.2141
  35   2.0000      -0.701827       -19.0977
  36   2.0000      -0.694756       -18.9053
  37   2.0000      -0.661419       -17.9981
  38   2.0000      -0.640332       -17.4243
  39   2.0000      -0.624123       -16.9833
  40   2.0000      -0.598499       -16.2860
  41   2.0000      -0.569909       -15.5080
  42   2.0000      -0.567835       -15.4516
  43   2.0000      -0.559589       -15.2272
  44   2.0000      -0.532218       -14.4824
  45   2.0000      -0.529090       -14.3973
  46   2.0000      -0.519740       -14.1429
  47   2.0000      -0.514380       -13.9970
  48   2.0000      -0.511446       -13.9172
  49   2.0000      -0.502845       -13.6831
  50   2.0000      -0.491389       -13.3714
  51   2.0000      -0.483369       -13.1532
  52   2.0000      -0.474194       -12.9035
  53   2.0000      -0.461018       -12.5449
  54   2.0000      -0.455614       -12.3979
  55   2.0000      -0.454051       -12.3554
  56   2.0000      -0.444224       -12.0880
  57   2.0000      -0.440852       -11.9962
  58   2.0000      -0.435120       -11.8402
  59   2.0000      -0.428472       -11.6593
  60   2.0000      -0.413959       -11.2644
  61   2.0000      -0.413244       -11.2449
  62   2.0000      -0.407272       -11.0824
  63   2.0000      -0.356863        -9.7107
  64   2.0000      -0.330779        -9.0010
  65   2.0000      -0.324357        -8.8262
  66   2.0000      -0.294838        -8.0230
  67   0.0000       0.025450         0.6925
  68   0.0000       0.077252         2.1021
  69   0.0000       0.105486         2.8704
  70   0.0000       0.116528         3.1709
  71   0.0000       0.124847         3.3973

MULLIKEN ATOMIC CHARGES
-----------------------
   0 S :    0.064581
   1 C :   -0.136271
   2 C :   -0.074912
   3 C :    0.001284
   4 C :   -0.095432
   5 H :   -0.004883
   6 C :    0.058916
   7 H :    0.022191
   8 H :    0.016252
   9 C :   -0.072828
  10 H :    0.037958
  11 H :    0.013434
  12 C :   -0.023686
  13 H :    0.018321
  14 H :    0.049412
  15 H :    0.022627
  16 S :    0.096581
  17 C :   -0.112818
  18 C :   -0.022652
  19 C :   -0.077457
  20 C :   -0.114162
  21 H :    0.040015
  22 C :    0.049908
  23 H :    0.014221
  24 H :    0.029671
  25 C :   -0.063608
  26 H :    0.034978
  27 H :    0.030665
  28 C :   -0.066748
  29 H :    0.053488
  30 H :    0.031451
  31 H :    0.032192
  32 H :    0.072771
  33 H :    0.074541
Sum of atomic charges:   -0.0000000

LOEWDIN ATOMIC CHARGES
----------------------
   0 S :    0.361935
   1 C :   -0.180448
   2 C :   -0.054401
   3 C :   -0.066545
   4 C :   -0.186010
   5 H :    0.025049
   6 C :   -0.038925
   7 H :    0.030440
   8 H :    0.032026
   9 C :   -0.040682
  10 H :    0.029986
  11 H :    0.016164
  12 C :   -0.060922
  13 H :    0.018800
  14 H :    0.030601
  15 H :    0.027848
  16 S :    0.412974
  17 C :   -0.180651
  18 C :   -0.078310
  19 C :   -0.052837
  20 C :   -0.204589
  21 H :    0.042433
  22 C :   -0.034407
  23 H :    0.022364
  24 H :    0.032643
  25 C :   -0.045198
  26 H :    0.019624
  27 H :    0.028032
  28 C :   -0.071461
  29 H :    0.033149
  30 H :    0.027603
  31 H :    0.026833
  32 H :    0.041128
  33 H :    0.035753

  Mayer bond orders larger than 0.100000
B(  0-S ,  1-C ) :   1.0988 B(  0-S ,  4-C ) :   1.1328 B(  1-C ,  2-C ) :   1.6424
B(  1-C , 32-H ) :   0.9667 B(  2-C ,  3-C ) :   1.1993 B(  2-C ,  6-C ) :   1.0409
B(  3-C ,  4-C ) :   1.6067 B(  3-C ,  5-H ) :   0.9936 B(  4-C , 20-C ) :   1.0286
B(  6-C ,  7-H ) :   0.9328 B(  6-C ,  8-H ) :   0.9340 B(  6-C ,  9-C ) :   1.0600
B(  9-C , 10-H ) :   0.9571 B(  9-C , 11-H ) :   0.9506 B(  9-C , 12-C ) :   1.0751
B( 12-C , 13-H ) :   0.9776 B( 12-C , 14-H ) :   0.9733 B( 12-C , 15-H ) :   0.9703
B( 16-S , 17-C ) :   1.1632 B( 16-S , 20-C ) :   1.1530 B( 17-C , 18-C ) :   1.5856
B( 17-C , 33-H ) :   0.9670 B( 18-C , 19-C ) :   1.2579 B( 18-C , 21-H ) :   0.9853
B( 19-C , 20-C ) :   1.5755 B( 19-C , 22-C ) :   1.0443 B( 22-C , 23-H ) :   0.9307
B( 22-C , 24-H ) :   0.9457 B( 22-C , 25-C ) :   1.0387 B( 25-C , 26-H ) :   0.9617
B( 25-C , 27-H ) :   0.9508 B( 25-C , 28-C ) :   1.0847 B( 28-C , 29-H ) :   0.9728
B( 28-C , 30-H ) :   0.9719 B( 28-C , 31-H ) :   0.9726

Dispersion correction           -0.014393970
FINAL SINGLE POINT ENERGY     -1339.882192898127

DIPOLE MOMENT
-------------
                                X             Y             Z
Electronic contribution:    -19.51618       7.31033      23.68390
Nuclear contribution   :     19.78174      -7.69572     -24.35890
                        -----------------------------------------
Total Dipole Moment    :      0.26556      -0.38539      -0.67500
                        -----------------------------------------
Magnitude (a.u.)       :      0.82138
Magnitude (Debye)      :      2.08779

Rotational constants in cm-1:     0.016554     0.009754     0.006949
Rotational constants in MHz :   496.261825   292.405050   208.339394

                             ****ORCA TERMINATED NORMALLY****
TOTAL RUN TIME: 0 days 0 hours 0 minutes 21 seconds 931 msec
