                         Program Version 4.2.1 -  RELEASE  -
|  1> ! wB97X-D3 SP def2-SVP
|  2> %pal
|  3> nprocs 24
|  4> end
|  5>
|  6> * xyz 0 1
|  7> S 	 -122.144 	 47.6189 	 -25.5376
|  8> C 	 -121.176 	 46.3709 	 -26.3345
|  9> C 	 -121.122 	 46.534 	 -27.7095
| 10> C 	 -121.929 	 47.6636 	 -28.0926
| 11> C 	 -122.587 	 48.3213 	 -27.0468
| 12> H 	 -122.171 	 48.0748 	 -29.0866
| 13> C 	 -120.444 	 45.5729 	 -28.7014
| 14> H 	 -121.088 	 44.9863 	 -29.3526
| 15> H 	 -119.941 	 44.7847 	 -28.1707
| 16> C 	 -119.372 	 46.189 	 -29.5693
| 17> H 	 -119.793 	 46.9881 	 -30.0961
| 18> H 	 -118.555 	 46.6238 	 -28.9688
| 19> C 	 -118.71 	 45.2279 	 -30.5238
| 20> H 	 -117.865 	 45.6512 	 -31.0482
| 21> H 	 -118.477 	 44.2563 	 -30.1305
| 22> H 	 -119.425 	 44.9706 	 -31.2705
| 23> S 	 -123.022 	 50.7514 	 -26.0021
| 24> C 	 -124.177 	 51.9069 	 -26.5964
| 25> C 	 -124.783 	 51.3502 	 -27.6901
| 26> C 	 -124.271 	 50.0296 	 -28.0116
| 27> C 	 -123.39 	 49.4741 	 -27.1056
| 28> H 	 -125.563 	 51.845 	 -28.2474
| 29> C 	 -124.633 	 49.3322 	 -29.2773
| 30> H 	 -125.685 	 49.6167 	 -29.3445
| 31> H 	 -124.786 	 48.1953 	 -29.1437
| 32> C 	 -124.084 	 49.688 	 -30.6903
| 33> H 	 -123.046 	 49.4458 	 -30.7863
| 34> H 	 -124.166 	 50.7697 	 -30.915
| 35> C 	 -124.756 	 48.9334 	 -31.844
| 36> H 	 -124.487 	 47.8511 	 -32.0087
| 37> H 	 -124.343 	 49.3874 	 -32.7984
| 38> H 	 -125.85 	 49.0999 	 -31.8263
| 39> H 	 -120.654 	 45.5192 	 -25.827
| 40> H 	 -124.378 	 52.8575 	 -26.2232
| 41> *
| 42>
| 43>                          ****END OF INPUT****

CARTESIAN COORDINATES (ANGSTROEM)
---------------------------------
  S    -122.144000   47.618900  -25.537600
  C    -121.176000   46.370900  -26.334500
  C    -121.122000   46.534000  -27.709500
  C    -121.929000   47.663600  -28.092600
  C    -122.587000   48.321300  -27.046800
  H    -122.171000   48.074800  -29.086600
  C    -120.444000   45.572900  -28.701400
  H    -121.088000   44.986300  -29.352600
  H    -119.941000   44.784700  -28.170700
  C    -119.372000   46.189000  -29.569300
  H    -119.793000   46.988100  -30.096100
  H    -118.555000   46.623800  -28.968800
  C    -118.710000   45.227900  -30.523800
  H    -117.865000   45.651200  -31.048200
  H    -118.477000   44.256300  -30.130500
  H    -119.425000   44.970600  -31.270500
  S    -123.022000   50.751400  -26.002100
  C    -124.177000   51.906900  -26.596400
  C    -124.783000   51.350200  -27.690100
  C    -124.271000   50.029600  -28.011600
  C    -123.390000   49.474100  -27.105600
  H    -125.563000   51.845000  -28.247400
  C    -124.633000   49.332200  -29.277300
  H    -125.685000   49.616700  -29.344500
  H    -124.786000   48.195300  -29.143700
  C    -124.084000   49.688000  -30.690300
  H    -123.046000   49.445800  -30.786300
  H    -124.166000   50.769700  -30.915000
  C    -124.756000   48.933400  -31.844000
  H    -124.487000   47.851100  -32.008700
  H    -124.343000   49.387400  -32.798400
  H    -125.850000   49.099900  -31.826300
  H    -120.654000   45.519200  -25.827000
  H    -124.378000   52.857500  -26.223200

 Total Charge           Charge          ....    0
 Multiplicity           Mult            ....    1
 Number of Electrons    NEL             ....  134
 Basis Dimension        Dim             ....  322

ORBITAL ENERGIES
----------------

  NO   OCC          E(Eh)            E(eV)
   0   2.0000     -88.969817     -2420.9918
   1   2.0000     -88.959326     -2420.7063
   2   2.0000     -10.328107      -281.0421
   3   2.0000     -10.322741      -280.8961
   4   2.0000     -10.322428      -280.8875
   5   2.0000     -10.315295      -280.6934
   6   2.0000     -10.310170      -280.5540
   7   2.0000     -10.303175      -280.3636
   8   2.0000     -10.299724      -280.2697
   9   2.0000     -10.296057      -280.1699
  10   2.0000     -10.293603      -280.1032
  11   2.0000     -10.293336      -280.0959
  12   2.0000     -10.293031      -280.0876
  13   2.0000     -10.290085      -280.0074
  14   2.0000     -10.278602      -279.6950
  15   2.0000     -10.271808      -279.5101
  16   2.0000      -8.084564      -219.9922
  17   2.0000      -8.075091      -219.7344
  18   2.0000      -6.043087      -164.4408
  19   2.0000      -6.038989      -164.3292
  20   2.0000      -6.035371      -164.2308
  21   2.0000      -6.033718      -164.1858
  22   2.0000      -6.029268      -164.0647
  23   2.0000      -6.025780      -163.9698
  24   2.0000      -1.015227       -27.6257
  25   2.0000      -0.986988       -26.8573
  26   2.0000      -0.919489       -25.0206
  27   2.0000      -0.906069       -24.6554
  28   2.0000      -0.881774       -23.9943
  29   2.0000      -0.854122       -23.2418
  30   2.0000      -0.845375       -23.0038
  31   2.0000      -0.817701       -22.2508
  32   2.0000      -0.786559       -21.4034
  33   2.0000      -0.769496       -20.9391
  34   2.0000      -0.714331       -19.4379
  35   2.0000      -0.699826       -19.0432
  36   2.0000      -0.696449       -18.9513
  37   2.0000      -0.670957       -18.2577
  38   2.0000      -0.645005       -17.5515
  39   2.0000      -0.617220       -16.7954
  40   2.0000      -0.595932       -16.2161
  41   2.0000      -0.577134       -15.7046
  42   2.0000      -0.567615       -15.4456
  43   2.0000      -0.560988       -15.2653
  44   2.0000      -0.531078       -14.4514
  45   2.0000      -0.526571       -14.3287
  46   2.0000      -0.520397       -14.1607
  47   2.0000      -0.516275       -14.0486
  48   2.0000      -0.510669       -13.8960
  49   2.0000      -0.503381       -13.6977
  50   2.0000      -0.496479       -13.5099
  51   2.0000      -0.477514       -12.9938
  52   2.0000      -0.472274       -12.8512
  53   2.0000      -0.468825       -12.7574
  54   2.0000      -0.457445       -12.4477
  55   2.0000      -0.449725       -12.2376
  56   2.0000      -0.443761       -12.0753
  57   2.0000      -0.437728       -11.9112
  58   2.0000      -0.432568       -11.7708
  59   2.0000      -0.429999       -11.7009
  60   2.0000      -0.421125       -11.4594
  61   2.0000      -0.413375       -11.2485
  62   2.0000      -0.401442       -10.9238
  63   2.0000      -0.358729        -9.7615
  64   2.0000      -0.334351        -9.0982
  65   2.0000      -0.321913        -8.7597
  66   2.0000      -0.291225        -7.9246
  67   0.0000       0.024321         0.6618
  68   0.0000       0.076805         2.0900
  69   0.0000       0.113985         3.1017
  70   0.0000       0.116480         3.1696
  71   0.0000       0.127718         3.4754

MULLIKEN ATOMIC CHARGES
-----------------------
   0 S :    0.122886
   1 C :   -0.134690
   2 C :   -0.046713
   3 C :    0.025702
   4 C :   -0.166698
   5 H :    0.004527
   6 C :    0.084106
   7 H :    0.028547
   8 H :   -0.003105
   9 C :   -0.076096
  10 H :    0.015585
  11 H :    0.029932
  12 C :   -0.017833
  13 H :    0.037251
  14 H :    0.017402
  15 H :    0.008480
  16 S :    0.080660
  17 C :   -0.052535
  18 C :   -0.016428
  19 C :   -0.061623
  20 C :   -0.084135
  21 H :    0.015522
  22 C :   -0.019410
  23 H :    0.008279
  24 H :    0.047147
  25 C :   -0.027785
  26 H :    0.022877
  27 H :    0.032570
  28 C :   -0.101626
  29 H :    0.046821
  30 H :    0.036080
  31 H :    0.041581
  32 H :    0.065601
  33 H :    0.037122
Sum of atomic charges:    0.0000000

LOEWDIN ATOMIC CHARGES
----------------------
   0 S :    0.417926
   1 C :   -0.194030
   2 C :   -0.059515
   3 C :   -0.058603
   4 C :   -0.206510
   5 H :    0.033213
   6 C :   -0.027969
   7 H :    0.031123
   8 H :    0.025176
   9 C :   -0.038914
  10 H :    0.014468
  11 H :    0.027167
  12 C :   -0.061645
  13 H :    0.029304
  14 H :    0.021595
  15 H :    0.020337
  16 S :    0.415440
  17 C :   -0.174567
  18 C :   -0.069321
  19 C :   -0.066677
  20 C :   -0.203566
  21 H :    0.030217
  22 C :   -0.059556
  23 H :    0.030761
  24 H :    0.042698
  25 C :   -0.040675
  26 H :    0.015378
  27 H :    0.030232
  28 C :   -0.075048
  29 H :    0.030396
  30 H :    0.033864
  31 H :    0.025081
  32 H :    0.040127
  33 H :    0.022091

  Mayer bond orders larger than 0.100000
B(  0-S ,  1-C ) :   1.1407 B(  0-S ,  4-C ) :   1.1457 B(  1-C ,  2-C ) :   1.6201
B(  1-C , 32-H ) :   0.9582 B(  2-C ,  3-C ) :   1.2235 B(  2-C ,  6-C ) :   1.0199
B(  3-C ,  4-C ) :   1.5700 B(  3-C ,  5-H ) :   0.9865 B(  4-C , 20-C ) :   1.0715
B(  6-C ,  7-H ) :   0.9456 B(  6-C ,  8-H ) :   0.9347 B(  6-C ,  9-C ) :   1.0594
B(  9-C , 10-H ) :   0.9573 B(  9-C , 11-H ) :   0.9544 B(  9-C , 12-C ) :   1.0914
B( 12-C , 13-H ) :   0.9731 B( 12-C , 14-H ) :   0.9725 B( 12-C , 15-H ) :   0.9682
B( 16-S , 17-C ) :   1.1603 B( 16-S , 20-C ) :   1.1274 B( 17-C , 18-C ) :   1.5784
B( 17-C , 33-H ) :   0.9796 B( 18-C , 19-C ) :   1.2488 B( 18-C , 21-H ) :   0.9945
B( 19-C , 20-C ) :   1.5800 B( 19-C , 22-C ) :   1.0571 B( 22-C , 23-H ) :   0.9211
B( 22-C , 24-H ) :   0.9399 B( 22-C , 25-C ) :   1.0520 B( 25-C , 26-H ) :   0.9517
B( 25-C , 27-H ) :   0.9509 B( 25-C , 28-C ) :   1.0789 B( 28-C , 29-H ) :   0.9746
B( 28-C , 30-H ) :   0.9722 B( 28-C , 31-H ) :   0.9760

Dispersion correction           -0.013509332
FINAL SINGLE POINT ENERGY     -1339.868609532001

DIPOLE MOMENT
-------------
                                X             Y             Z
Electronic contribution:     -4.83806      11.43814      30.37795
Nuclear contribution   :      4.82733     -11.56187     -31.12917
                        -----------------------------------------
Total Dipole Moment    :     -0.01073      -0.12372      -0.75121
                        -----------------------------------------
Magnitude (a.u.)       :      0.76141
Magnitude (Debye)      :      1.93535

Rotational constants in cm-1:     0.016716     0.009064     0.006402
Rotational constants in MHz :   501.138757   271.719951   191.935259

                             ****ORCA TERMINATED NORMALLY****
TOTAL RUN TIME: 0 days 0 hours 0 minutes 21 seconds 166 msec
