                         Program Version 4.2.1 -  RELEASE  -
|  1> ! wB97X-D3 SP def2-SVP
|  2> %pal
|  3> nprocs 24
|  4> end
|  5>
|  6> * xyz 0 1
|  7> S 	 -86.9236 	 -4.44854 	 -115.048
|  8> C 	 -86.8784 	 -4.4673 	 -116.813
|  9> C 	 -88.0613 	 -4.05393 	 -117.397
| 10> C 	 -89.0547 	 -3.75624 	 -116.427
| 11> C 	 -88.567 	 -3.86493 	 -115.142
| 12> H 	 -90.047 	 -3.36379 	 -116.618
| 13> C 	 -88.3241 	 -3.86855 	 -118.895
| 14> H 	 -89.3733 	 -3.7148 	 -118.854
| 15> H 	 -88.0261 	 -4.72621 	 -119.447
| 16> C 	 -87.7352 	 -2.58038 	 -119.513
| 17> H 	 -87.9303 	 -2.4158 	 -120.608
| 18> H 	 -88.2808 	 -1.8221 	 -119.001
| 19> C 	 -86.255 	 -2.38409 	 -119.374
| 20> H 	 -85.975 	 -2.36854 	 -118.34
| 21> H 	 -85.6655 	 -3.08887 	 -119.932
| 22> H 	 -86.0705 	 -1.40159 	 -119.782
| 23> S 	 -89.3536 	 -4.96174 	 -112.7
| 24> C 	 -90.3769 	 -4.04837 	 -111.647
| 25> C 	 -90.7096 	 -2.80056 	 -112.141
| 26> C 	 -90.204 	 -2.6296 	 -113.49
| 27> C 	 -89.344 	 -3.70532 	 -113.895
| 28> H 	 -91.3001 	 -2.09301 	 -111.581
| 29> C 	 -90.4212 	 -1.31725 	 -114.213
| 30> H 	 -91.4561 	 -1.09322 	 -114.46
| 31> H 	 -90.032 	 -1.43863 	 -115.193
| 32> C 	 -89.7157 	 -0.076415 	 -113.599
| 33> H 	 -89.8262 	 0.0403659 	 -112.588
| 34> H 	 -90.2435 	 0.782531 	 -113.964
| 35> C 	 -88.2055 	 0.167548 	 -113.954
| 36> H 	 -87.9219 	 1.22407 	 -113.702
| 37> H 	 -88.1716 	 0.155618 	 -115.064
| 38> H 	 -87.6647 	 -0.634081 	 -113.473
| 39> H 	 -86.0558 	 -4.84399 	 -117.462
| 40> H 	 -90.545 	 -4.37069 	 -110.624
| 41> *
| 42>
| 43>                          ****END OF INPUT****

CARTESIAN COORDINATES (ANGSTROEM)
---------------------------------
  S    -86.923600   -4.448540  -115.048000
  C    -86.878400   -4.467300  -116.813000
  C    -88.061300   -4.053930  -117.397000
  C    -89.054700   -3.756240  -116.427000
  C    -88.567000   -3.864930  -115.142000
  H    -90.047000   -3.363790  -116.618000
  C    -88.324100   -3.868550  -118.895000
  H    -89.373300   -3.714800  -118.854000
  H    -88.026100   -4.726210  -119.447000
  C    -87.735200   -2.580380  -119.513000
  H    -87.930300   -2.415800  -120.608000
  H    -88.280800   -1.822100  -119.001000
  C    -86.255000   -2.384090  -119.374000
  H    -85.975000   -2.368540  -118.340000
  H    -85.665500   -3.088870  -119.932000
  H    -86.070500   -1.401590  -119.782000
  S    -89.353600   -4.961740  -112.700000
  C    -90.376900   -4.048370  -111.647000
  C    -90.709600   -2.800560  -112.141000
  C    -90.204000   -2.629600  -113.490000
  C    -89.344000   -3.705320  -113.895000
  H    -91.300100   -2.093010  -111.581000
  C    -90.421200   -1.317250  -114.213000
  H    -91.456100   -1.093220  -114.460000
  H    -90.032000   -1.438630  -115.193000
  C    -89.715700   -0.076415  -113.599000
  H    -89.826200    0.040366  -112.588000
  H    -90.243500    0.782531  -113.964000
  C    -88.205500    0.167548  -113.954000
  H    -87.921900    1.224070  -113.702000
  H    -88.171600    0.155618  -115.064000
  H    -87.664700   -0.634081  -113.473000
  H    -86.055800   -4.843990  -117.462000
  H    -90.545000   -4.370690  -110.624000

 Total Charge           Charge          ....    0
 Multiplicity           Mult            ....    1
 Number of Electrons    NEL             ....  134
 Basis Dimension        Dim             ....  322

ORBITAL ENERGIES
----------------

  NO   OCC          E(Eh)            E(eV)
   0   2.0000     -88.972589     -2421.0672
   1   2.0000     -88.966917     -2420.9129
   2   2.0000     -10.330940      -281.1192
   3   2.0000     -10.330302      -281.1018
   4   2.0000     -10.316493      -280.7260
   5   2.0000     -10.315799      -280.7072
   6   2.0000     -10.308173      -280.4996
   7   2.0000     -10.300475      -280.2902
   8   2.0000     -10.295883      -280.1652
   9   2.0000     -10.294620      -280.1309
  10   2.0000     -10.287735      -279.9435
  11   2.0000     -10.287496      -279.9370
  12   2.0000     -10.284212      -279.8476
  13   2.0000     -10.279585      -279.7217
  14   2.0000     -10.275854      -279.6202
  15   2.0000     -10.267223      -279.3853
  16   2.0000      -8.086848      -220.0543
  17   2.0000      -8.082190      -219.9276
  18   2.0000      -6.045329      -164.5018
  19   2.0000      -6.041530      -164.3984
  20   2.0000      -6.040628      -164.3738
  21   2.0000      -6.037569      -164.2906
  22   2.0000      -6.036462      -164.2605
  23   2.0000      -6.033183      -164.1712
  24   2.0000      -1.005966       -27.3737
  25   2.0000      -0.983638       -26.7661
  26   2.0000      -0.914640       -24.8886
  27   2.0000      -0.904127       -24.6025
  28   2.0000      -0.865813       -23.5600
  29   2.0000      -0.853813       -23.2334
  30   2.0000      -0.844916       -22.9913
  31   2.0000      -0.812386       -22.1061
  32   2.0000      -0.788451       -21.4548
  33   2.0000      -0.771993       -21.0070
  34   2.0000      -0.705553       -19.1991
  35   2.0000      -0.695624       -18.9289
  36   2.0000      -0.693635       -18.8748
  37   2.0000      -0.656001       -17.8507
  38   2.0000      -0.636150       -17.3105
  39   2.0000      -0.622569       -16.9410
  40   2.0000      -0.601028       -16.3548
  41   2.0000      -0.570283       -15.5182
  42   2.0000      -0.553829       -15.0705
  43   2.0000      -0.549770       -14.9600
  44   2.0000      -0.546121       -14.8607
  45   2.0000      -0.532885       -14.5005
  46   2.0000      -0.518625       -14.1125
  47   2.0000      -0.511273       -13.9124
  48   2.0000      -0.494463       -13.4550
  49   2.0000      -0.494347       -13.4519
  50   2.0000      -0.490222       -13.3396
  51   2.0000      -0.482156       -13.1201
  52   2.0000      -0.471263       -12.8237
  53   2.0000      -0.464749       -12.6465
  54   2.0000      -0.458951       -12.4887
  55   2.0000      -0.452909       -12.3243
  56   2.0000      -0.443955       -12.0806
  57   2.0000      -0.436853       -11.8874
  58   2.0000      -0.433764       -11.8033
  59   2.0000      -0.427786       -11.6407
  60   2.0000      -0.420987       -11.4556
  61   2.0000      -0.412437       -11.2230
  62   2.0000      -0.410388       -11.1672
  63   2.0000      -0.346810        -9.4372
  64   2.0000      -0.335599        -9.1321
  65   2.0000      -0.329495        -8.9660
  66   2.0000      -0.290289        -7.8992
  67   0.0000       0.028649         0.7796
  68   0.0000       0.071510         1.9459
  69   0.0000       0.108268         2.9461
  70   0.0000       0.118746         3.2312
  71   0.0000       0.129191         3.5155

MULLIKEN ATOMIC CHARGES
-----------------------
   0 S :    0.122680
   1 C :   -0.129757
   2 C :   -0.135503
   3 C :    0.039513
   4 C :   -0.167833
   5 H :    0.020904
   6 C :    0.128740
   7 H :    0.008160
   8 H :    0.027291
   9 C :   -0.079559
  10 H :    0.035139
  11 H :    0.009774
  12 C :   -0.029677
  13 H :    0.037907
  14 H :    0.024435
  15 H :    0.024236
  16 S :    0.116113
  17 C :   -0.098650
  18 C :   -0.020460
  19 C :   -0.061433
  20 C :   -0.147909
  21 H :    0.022883
  22 C :    0.101138
  23 H :    0.030313
  24 H :   -0.017646
  25 C :   -0.055975
  26 H :    0.003875
  27 H :    0.006586
  28 C :   -0.059722
  29 H :    0.041601
  30 H :    0.029863
  31 H :    0.053601
  32 H :    0.058175
  33 H :    0.061196
Sum of atomic charges:   -0.0000000

LOEWDIN ATOMIC CHARGES
----------------------
   0 S :    0.407656
   1 C :   -0.201742
   2 C :   -0.061931
   3 C :   -0.063489
   4 C :   -0.190501
   5 H :    0.033103
   6 C :   -0.022093
   7 H :    0.027385
   8 H :    0.024656
   9 C :   -0.039884
  10 H :    0.030393
  11 H :    0.018419
  12 C :   -0.062886
  13 H :    0.022165
  14 H :    0.020245
  15 H :    0.027889
  16 S :    0.422304
  17 C :   -0.193625
  18 C :   -0.065557
  19 C :   -0.053618
  20 C :   -0.213580
  21 H :    0.032406
  22 C :   -0.034997
  23 H :    0.034476
  24 H :    0.022028
  25 C :   -0.034226
  26 H :    0.007102
  27 H :    0.020458
  28 C :   -0.061349
  29 H :    0.032085
  30 H :    0.025565
  31 H :    0.026867
  32 H :    0.036108
  33 H :    0.028170

  Mayer bond orders larger than 0.100000
B(  0-S ,  1-C ) :   1.1261 B(  0-S ,  4-C ) :   1.1583 B(  1-C ,  2-C ) :   1.6279
B(  1-C , 32-H ) :   0.9576 B(  2-C ,  3-C ) :   1.2527 B(  2-C ,  6-C ) :   1.0060
B(  3-C ,  4-C ) :   1.5802 B(  3-C ,  5-H ) :   0.9823 B(  4-C , 20-C ) :   1.0269
B(  6-C ,  7-H ) :   0.9379 B(  6-C ,  8-H ) :   0.9405 B(  6-C ,  9-C ) :   1.0671
B(  9-C , 10-H ) :   0.9575 B(  9-C , 11-H ) :   0.9517 B(  9-C , 12-C ) :   1.0964
B( 12-C , 13-H ) :   0.9678 B( 12-C , 14-H ) :   0.9747 B( 12-C , 15-H ) :   0.9688
B( 16-S , 17-C ) :   1.1657 B( 16-S , 20-C ) :   1.1585 B( 17-C , 18-C ) :   1.5940
B( 17-C , 33-H ) :   0.9654 B( 18-C , 19-C ) :   1.2513 B( 18-C , 21-H ) :   0.9928
B( 19-C , 20-C ) :   1.5557 B( 19-C , 22-C ) :   1.0599 B( 22-C , 23-H ) :   0.9327
B( 22-C , 24-H ) :   0.9214 B( 22-C , 25-C ) :   1.0604 B( 25-C , 26-H ) :   0.9609
B( 25-C , 27-H ) :   0.9503 B( 25-C , 28-C ) :   1.0765 B( 28-C , 29-H ) :   0.9744
B( 28-C , 30-H ) :   0.9758 B( 28-C , 31-H ) :   0.9805

Dispersion correction           -0.014895949
FINAL SINGLE POINT ENERGY     -1339.875856251174

DIPOLE MOMENT
-------------
                                X             Y             Z
Electronic contribution:     -1.18842     -21.23950      17.37594
Nuclear contribution   :      0.95876      21.72385     -17.68243
                        -----------------------------------------
Total Dipole Moment    :     -0.22967       0.48435      -0.30649
                        -----------------------------------------
Magnitude (a.u.)       :      0.61748
Magnitude (Debye)      :      1.56950

Rotational constants in cm-1:     0.020646     0.008785     0.007171
Rotational constants in MHz :   618.953492   263.362410   214.970063

                             ****ORCA TERMINATED NORMALLY****
TOTAL RUN TIME: 0 days 0 hours 0 minutes 22 seconds 288 msec
