                         Program Version 4.2.1 -  RELEASE  -
|  1> ! wB97X-D3 SP def2-SVP
|  2> %pal
|  3> nprocs 24
|  4> end
|  5>
|  6> * xyz 0 1
|  7> S 	 -51.8147 	 14.051 	 23.9791
|  8> C 	 -52.3347 	 14.3914 	 25.6254
|  9> C 	 -52.274 	 15.7237 	 25.9842
| 10> C 	 -51.7668 	 16.4619 	 24.8922
| 11> C 	 -51.4074 	 15.7841 	 23.7799
| 12> H 	 -51.6378 	 17.5499 	 24.9143
| 13> C 	 -52.6876 	 16.3963 	 27.3317
| 14> H 	 -51.9436 	 17.1301 	 27.64
| 15> H 	 -52.6198 	 15.6927 	 28.1364
| 16> C 	 -54.0704 	 16.9965 	 27.3273
| 17> H 	 -54.7761 	 16.4075 	 26.7657
| 18> H 	 -54.5014 	 16.9376 	 28.3344
| 19> C 	 -54.2643 	 18.4271 	 26.8021
| 20> H 	 -53.8917 	 18.4547 	 25.7938
| 21> H 	 -55.3579 	 18.6213 	 26.7128
| 22> H 	 -53.8522 	 19.1615 	 27.5085
| 23> S 	 -51.6997 	 15.6767 	 21.0128
| 24> C 	 -50.7623 	 16.7591 	 19.9335
| 25> C 	 -49.936 	 17.5607 	 20.6875
| 26> C 	 -50.0889 	 17.3243 	 22.0968
| 27> C 	 -50.9855 	 16.3131 	 22.4944
| 28> H 	 -49.2532 	 18.2677 	 20.2275
| 29> C 	 -49.1766 	 18.0765 	 22.9636
| 30> H 	 -48.176 	 18.2146 	 22.4781
| 31> H 	 -48.8997 	 17.4997 	 23.9142
| 32> C 	 -49.5352 	 19.5021 	 23.4473
| 33> H 	 -50.5166 	 19.4369 	 23.8155
| 34> H 	 -49.6352 	 20.1651 	 22.551
| 35> C 	 -48.5825 	 20.2284 	 24.4804
| 36> H 	 -48.7612 	 19.8665 	 25.4574
| 37> H 	 -48.5829 	 21.3075 	 24.5604
| 38> H 	 -47.5678 	 19.937 	 24.2311
| 39> H 	 -52.6468 	 13.5665 	 26.2717
| 40> H 	 -50.766 	 16.7945 	 18.845
| 41> *
| 42>
| 43>                          ****END OF INPUT****

CARTESIAN COORDINATES (ANGSTROEM)
---------------------------------
  S    -51.814700   14.051000   23.979100
  C    -52.334700   14.391400   25.625400
  C    -52.274000   15.723700   25.984200
  C    -51.766800   16.461900   24.892200
  C    -51.407400   15.784100   23.779900
  H    -51.637800   17.549900   24.914300
  C    -52.687600   16.396300   27.331700
  H    -51.943600   17.130100   27.640000
  H    -52.619800   15.692700   28.136400
  C    -54.070400   16.996500   27.327300
  H    -54.776100   16.407500   26.765700
  H    -54.501400   16.937600   28.334400
  C    -54.264300   18.427100   26.802100
  H    -53.891700   18.454700   25.793800
  H    -55.357900   18.621300   26.712800
  H    -53.852200   19.161500   27.508500
  S    -51.699700   15.676700   21.012800
  C    -50.762300   16.759100   19.933500
  C    -49.936000   17.560700   20.687500
  C    -50.088900   17.324300   22.096800
  C    -50.985500   16.313100   22.494400
  H    -49.253200   18.267700   20.227500
  C    -49.176600   18.076500   22.963600
  H    -48.176000   18.214600   22.478100
  H    -48.899700   17.499700   23.914200
  C    -49.535200   19.502100   23.447300
  H    -50.516600   19.436900   23.815500
  H    -49.635200   20.165100   22.551000
  C    -48.582500   20.228400   24.480400
  H    -48.761200   19.866500   25.457400
  H    -48.582900   21.307500   24.560400
  H    -47.567800   19.937000   24.231100
  H    -52.646800   13.566500   26.271700
  H    -50.766000   16.794500   18.845000

 Total Charge           Charge          ....    0
 Multiplicity           Mult            ....    1
 Number of Electrons    NEL             ....  134
 Basis Dimension        Dim             ....  322

ORBITAL ENERGIES
----------------

  NO   OCC          E(Eh)            E(eV)
   0   2.0000     -88.969135     -2420.9732
   1   2.0000     -88.965696     -2420.8797
   2   2.0000     -10.334896      -281.2268
   3   2.0000     -10.333073      -281.1772
   4   2.0000     -10.323101      -280.9058
   5   2.0000     -10.321163      -280.8531
   6   2.0000     -10.306658      -280.4584
   7   2.0000     -10.304600      -280.4024
   8   2.0000     -10.297522      -280.2098
   9   2.0000     -10.296138      -280.1722
  10   2.0000     -10.294787      -280.1354
  11   2.0000     -10.293031      -280.0876
  12   2.0000     -10.287323      -279.9323
  13   2.0000     -10.283124      -279.8180
  14   2.0000     -10.279814      -279.7280
  15   2.0000     -10.278446      -279.6907
  16   2.0000      -8.083305      -219.9579
  17   2.0000      -8.079528      -219.8551
  18   2.0000      -6.041842      -164.4069
  19   2.0000      -6.038316      -164.3109
  20   2.0000      -6.038048      -164.3036
  21   2.0000      -6.034012      -164.1938
  22   2.0000      -6.033905      -164.1909
  23   2.0000      -6.030160      -164.0890
  24   2.0000      -1.005960       -27.3736
  25   2.0000      -0.982799       -26.7433
  26   2.0000      -0.912610       -24.8334
  27   2.0000      -0.902683       -24.5633
  28   2.0000      -0.873137       -23.7593
  29   2.0000      -0.850678       -23.1481
  30   2.0000      -0.844377       -22.9767
  31   2.0000      -0.819386       -22.2966
  32   2.0000      -0.787520       -21.4295
  33   2.0000      -0.771021       -20.9805
  34   2.0000      -0.709851       -19.3160
  35   2.0000      -0.698405       -19.0046
  36   2.0000      -0.692353       -18.8399
  37   2.0000      -0.665627       -18.1126
  38   2.0000      -0.645911       -17.5761
  39   2.0000      -0.623930       -16.9780
  40   2.0000      -0.596073       -16.2200
  41   2.0000      -0.574873       -15.6431
  42   2.0000      -0.557534       -15.1713
  43   2.0000      -0.549636       -14.9564
  44   2.0000      -0.542931       -14.7739
  45   2.0000      -0.520601       -14.1663
  46   2.0000      -0.513647       -13.9771
  47   2.0000      -0.513398       -13.9703
  48   2.0000      -0.508300       -13.8315
  49   2.0000      -0.500817       -13.6279
  50   2.0000      -0.490216       -13.3395
  51   2.0000      -0.482983       -13.1426
  52   2.0000      -0.476835       -12.9753
  53   2.0000      -0.463282       -12.6066
  54   2.0000      -0.458826       -12.4853
  55   2.0000      -0.455249       -12.3879
  56   2.0000      -0.441660       -12.0182
  57   2.0000      -0.438867       -11.9422
  58   2.0000      -0.426948       -11.6178
  59   2.0000      -0.422565       -11.4986
  60   2.0000      -0.417947       -11.3729
  61   2.0000      -0.416114       -11.3230
  62   2.0000      -0.406563       -11.0632
  63   2.0000      -0.357956        -9.7405
  64   2.0000      -0.337679        -9.1887
  65   2.0000      -0.327751        -8.9186
  66   2.0000      -0.290213        -7.8971
  67   0.0000       0.022413         0.6099
  68   0.0000       0.070089         1.9072
  69   0.0000       0.103101         2.8055
  70   0.0000       0.120137         3.2691
  71   0.0000       0.125021         3.4020

MULLIKEN ATOMIC CHARGES
-----------------------
   0 S :    0.104050
   1 C :   -0.139492
   2 C :   -0.067808
   3 C :    0.004391
   4 C :   -0.128809
   5 H :    0.010886
   6 C :    0.111949
   7 H :    0.025812
   8 H :    0.011378
   9 C :   -0.082809
  10 H :    0.022565
  11 H :    0.023238
  12 C :   -0.053604
  13 H :    0.033968
  14 H :    0.035355
  15 H :    0.040034
  16 S :    0.085079
  17 C :   -0.091712
  18 C :   -0.020109
  19 C :   -0.017640
  20 C :   -0.109400
  21 H :    0.027122
  22 C :   -0.030979
  23 H :    0.026258
  24 H :    0.034514
  25 C :   -0.058614
  26 H :    0.009425
  27 H :    0.021641
  28 C :   -0.024472
  29 H :    0.021636
  30 H :    0.039009
  31 H :    0.020229
  32 H :    0.054956
  33 H :    0.061955
Sum of atomic charges:    0.0000000

LOEWDIN ATOMIC CHARGES
----------------------
   0 S :    0.383402
   1 C :   -0.180984
   2 C :   -0.062661
   3 C :   -0.059441
   4 C :   -0.180754
   5 H :    0.032650
   6 C :   -0.024955
   7 H :    0.032797
   8 H :    0.029868
   9 C :   -0.048070
  10 H :    0.024435
  11 H :    0.025149
  12 C :   -0.064707
  13 H :    0.022469
  14 H :    0.032493
  15 H :    0.024959
  16 S :    0.382700
  17 C :   -0.172309
  18 C :   -0.064961
  19 C :   -0.065638
  20 C :   -0.187287
  21 H :    0.035787
  22 C :   -0.048776
  23 H :    0.031784
  24 H :    0.034573
  25 C :   -0.039748
  26 H :    0.008622
  27 H :    0.023657
  28 C :   -0.061673
  29 H :    0.019520
  30 H :    0.029087
  31 H :    0.024192
  32 H :    0.028778
  33 H :    0.035043

  Mayer bond orders larger than 0.100000
B(  0-S ,  1-C ) :   1.1466 B(  0-S ,  4-C ) :   1.1167 B(  1-C ,  2-C ) :   1.6215
B(  1-C , 32-H ) :   0.9629 B(  2-C ,  3-C ) :   1.2380 B(  2-C ,  6-C ) :   1.0185
B(  3-C ,  4-C ) :   1.6016 B(  3-C ,  5-H ) :   0.9862 B(  4-C , 20-C ) :   1.0620
B(  6-C ,  7-H ) :   0.9436 B(  6-C ,  8-H ) :   0.9357 B(  6-C ,  9-C ) :   1.0616
B(  9-C , 10-H ) :   0.9549 B(  9-C , 11-H ) :   0.9546 B(  9-C , 12-C ) :   1.0884
B( 12-C , 13-H ) :   0.9736 B( 12-C , 14-H ) :   0.9724 B( 12-C , 15-H ) :   0.9760
B( 16-S , 17-C ) :   1.1426 B( 16-S , 20-C ) :   1.1186 B( 17-C , 18-C ) :   1.6098
B( 17-C , 33-H ) :   0.9657 B( 18-C , 19-C ) :   1.2434 B( 18-C , 21-H ) :   0.9896
B( 19-C , 20-C ) :   1.5735 B( 19-C , 22-C ) :   1.0698 B( 22-C , 23-H ) :   0.9335
B( 22-C , 24-H ) :   0.9372 B( 22-C , 25-C ) :   1.0550 B( 25-C , 26-H ) :   0.9569
B( 25-C , 27-H ) :   0.9530 B( 25-C , 28-C ) :   1.0644 B( 28-C , 29-H ) :   0.9766
B( 28-C , 30-H ) :   0.9783 B( 28-C , 31-H ) :   0.9761

Dispersion correction           -0.014077046
FINAL SINGLE POINT ENERGY     -1339.879160204948

DIPOLE MOMENT
-------------
                                X             Y             Z
Electronic contribution:     -1.67505     -23.81054     -18.70151
Nuclear contribution   :      1.74430      24.30663      19.14226
                        -----------------------------------------
Total Dipole Moment    :      0.06924       0.49610       0.44075
                        -----------------------------------------
Magnitude (a.u.)       :      0.66721
Magnitude (Debye)      :      1.69591

Rotational constants in cm-1:     0.015691     0.009655     0.006940
Rotational constants in MHz :   470.393743   289.446100   208.062289

                             ****ORCA TERMINATED NORMALLY****
TOTAL RUN TIME: 0 days 0 hours 0 minutes 21 seconds 482 msec
