                         Program Version 4.2.1 -  RELEASE  -
|  1> ! wB97X-D3 SP def2-SVP
|  2> %pal
|  3> nprocs 24
|  4> end
|  5>
|  6> * xyz 0 1
|  7> S 	 -109.486 	 58.611 	 -14.8752
|  8> C 	 -109.728 	 58.9689 	 -13.1764
|  9> C 	 -108.61 	 58.7135 	 -12.4076
| 10> C 	 -107.587 	 58.1672 	 -13.2247
| 11> C 	 -107.82 	 58.1208 	 -14.5871
| 12> H 	 -106.648 	 57.79 	 -13.0067
| 13> C 	 -108.353 	 59.1282 	 -10.9528
| 14> H 	 -107.633 	 59.9538 	 -11.0576
| 15> H 	 -107.725 	 58.3497 	 -10.3946
| 16> C 	 -109.495 	 59.676 	 -10.0757
| 17> H 	 -110.229 	 60.2505 	 -10.5624
| 18> H 	 -110.109 	 58.8585 	 -9.72895
| 19> C 	 -108.9 	 60.393 	 -8.8271
| 20> H 	 -109.638 	 60.6794 	 -8.03397
| 21> H 	 -108.137 	 59.7344 	 -8.31761
| 22> H 	 -108.333 	 61.3032 	 -9.12015
| 23> S 	 -107.561 	 56.6999 	 -16.9023
| 24> C 	 -105.933 	 56.3936 	 -17.4523
| 25> C 	 -104.956 	 57.1447 	 -16.7631
| 26> C 	 -105.54 	 57.9484 	 -15.6778
| 27> C 	 -106.899 	 57.7367 	 -15.6425
| 28> H 	 -103.91 	 57.0391 	 -17.0663
| 29> C 	 -104.74 	 58.9536 	 -14.8645
| 30> H 	 -105.383 	 59.6579 	 -14.3807
| 31> H 	 -104.079 	 59.5307 	 -15.522
| 32> C 	 -103.828 	 58.2637 	 -13.8462
| 33> H 	 -103.184 	 57.7531 	 -14.5118
| 34> H 	 -104.413 	 57.5821 	 -13.2017
| 35> C 	 -103.191 	 59.2612 	 -12.8346
| 36> H 	 -102.584 	 60.0437 	 -13.4073
| 37> H 	 -102.416 	 58.868 	 -12.1926
| 38> H 	 -103.97 	 59.7643 	 -12.2008
| 39> H 	 -110.561 	 59.3761 	 -12.649
| 40> H 	 -105.74 	 55.8122 	 -18.3703
| 41> *
| 42>
| 43>                          ****END OF INPUT****

CARTESIAN COORDINATES (ANGSTROEM)
---------------------------------
  S    -109.486000   58.611000  -14.875200
  C    -109.728000   58.968900  -13.176400
  C    -108.610000   58.713500  -12.407600
  C    -107.587000   58.167200  -13.224700
  C    -107.820000   58.120800  -14.587100
  H    -106.648000   57.790000  -13.006700
  C    -108.353000   59.128200  -10.952800
  H    -107.633000   59.953800  -11.057600
  H    -107.725000   58.349700  -10.394600
  C    -109.495000   59.676000  -10.075700
  H    -110.229000   60.250500  -10.562400
  H    -110.109000   58.858500   -9.728950
  C    -108.900000   60.393000   -8.827100
  H    -109.638000   60.679400   -8.033970
  H    -108.137000   59.734400   -8.317610
  H    -108.333000   61.303200   -9.120150
  S    -107.561000   56.699900  -16.902300
  C    -105.933000   56.393600  -17.452300
  C    -104.956000   57.144700  -16.763100
  C    -105.540000   57.948400  -15.677800
  C    -106.899000   57.736700  -15.642500
  H    -103.910000   57.039100  -17.066300
  C    -104.740000   58.953600  -14.864500
  H    -105.383000   59.657900  -14.380700
  H    -104.079000   59.530700  -15.522000
  C    -103.828000   58.263700  -13.846200
  H    -103.184000   57.753100  -14.511800
  H    -104.413000   57.582100  -13.201700
  C    -103.191000   59.261200  -12.834600
  H    -102.584000   60.043700  -13.407300
  H    -102.416000   58.868000  -12.192600
  H    -103.970000   59.764300  -12.200800
  H    -110.561000   59.376100  -12.649000
  H    -105.740000   55.812200  -18.370300

 Total Charge           Charge          ....    0
 Multiplicity           Mult            ....    1
 Number of Electrons    NEL             ....  134
 Basis Dimension        Dim             ....  322

ORBITAL ENERGIES
----------------

  NO   OCC          E(Eh)            E(eV)
   0   2.0000     -88.968973     -2420.9688
   1   2.0000     -88.964866     -2420.8571
   2   2.0000     -10.327860      -281.0354
   3   2.0000     -10.325930      -280.9828
   4   2.0000     -10.324527      -280.9447
   5   2.0000     -10.311158      -280.5809
   6   2.0000     -10.310233      -280.5557
   7   2.0000     -10.305791      -280.4348
   8   2.0000     -10.305451      -280.4256
   9   2.0000     -10.302982      -280.3584
  10   2.0000     -10.292740      -280.0797
  11   2.0000     -10.292677      -280.0780
  12   2.0000     -10.290593      -280.0213
  13   2.0000     -10.290393      -280.0158
  14   2.0000     -10.289623      -279.9949
  15   2.0000     -10.284900      -279.8664
  16   2.0000      -8.083840      -219.9725
  17   2.0000      -8.079230      -219.8470
  18   2.0000      -6.042279      -164.4188
  19   2.0000      -6.038512      -164.3163
  20   2.0000      -6.037857      -164.2984
  21   2.0000      -6.034487      -164.2067
  22   2.0000      -6.033837      -164.1891
  23   2.0000      -6.029856      -164.0807
  24   2.0000      -1.006077       -27.3768
  25   2.0000      -0.981372       -26.7045
  26   2.0000      -0.913983       -24.8707
  27   2.0000      -0.909421       -24.7466
  28   2.0000      -0.868084       -23.6218
  29   2.0000      -0.853065       -23.2131
  30   2.0000      -0.844366       -22.9764
  31   2.0000      -0.810443       -22.0533
  32   2.0000      -0.782910       -21.3041
  33   2.0000      -0.770772       -20.9738
  34   2.0000      -0.717644       -19.5281
  35   2.0000      -0.703408       -19.1407
  36   2.0000      -0.692500       -18.8439
  37   2.0000      -0.665772       -18.1166
  38   2.0000      -0.640838       -17.4381
  39   2.0000      -0.613012       -16.6809
  40   2.0000      -0.597677       -16.2636
  41   2.0000      -0.576298       -15.6819
  42   2.0000      -0.570366       -15.5205
  43   2.0000      -0.559355       -15.2208
  44   2.0000      -0.523728       -14.2514
  45   2.0000      -0.517061       -14.0699
  46   2.0000      -0.515364       -14.0238
  47   2.0000      -0.513779       -13.9806
  48   2.0000      -0.501385       -13.6434
  49   2.0000      -0.494603       -13.4588
  50   2.0000      -0.488398       -13.2900
  51   2.0000      -0.480873       -13.0852
  52   2.0000      -0.475446       -12.9375
  53   2.0000      -0.467548       -12.7226
  54   2.0000      -0.458349       -12.4723
  55   2.0000      -0.449904       -12.2425
  56   2.0000      -0.446408       -12.1474
  57   2.0000      -0.438820       -11.9409
  58   2.0000      -0.436072       -11.8661
  59   2.0000      -0.430325       -11.7097
  60   2.0000      -0.423321       -11.5191
  61   2.0000      -0.421763       -11.4768
  62   2.0000      -0.420455       -11.4412
  63   2.0000      -0.350340        -9.5332
  64   2.0000      -0.333507        -9.0752
  65   2.0000      -0.327891        -8.9224
  66   2.0000      -0.287650        -7.8273
  67   0.0000       0.027309         0.7431
  68   0.0000       0.074807         2.0356
  69   0.0000       0.100654         2.7389
  70   0.0000       0.118787         3.2324
  71   0.0000       0.121919         3.3176

MULLIKEN ATOMIC CHARGES
-----------------------
   0 S :    0.102081
   1 C :   -0.100045
   2 C :   -0.045650
   3 C :    0.048784
   4 C :   -0.150183
   5 H :   -0.055909
   6 C :    0.009956
   7 H :    0.039002
   8 H :    0.045485
   9 C :   -0.034957
  10 H :    0.021306
  11 H :    0.028674
  12 C :   -0.100163
  13 H :    0.047407
  14 H :    0.036914
  15 H :    0.040998
  16 S :    0.112704
  17 C :   -0.107652
  18 C :   -0.043949
  19 C :   -0.046105
  20 C :   -0.135634
  21 H :    0.030580
  22 C :    0.077287
  23 H :    0.021261
  24 H :    0.029204
  25 C :   -0.079451
  26 H :    0.021304
  27 H :    0.042592
  28 C :   -0.065784
  29 H :    0.028180
  30 H :    0.037481
  31 H :    0.046896
  32 H :    0.026911
  33 H :    0.070473
Sum of atomic charges:   -0.0000000

LOEWDIN ATOMIC CHARGES
----------------------
   0 S :    0.390614
   1 C :   -0.198869
   2 C :   -0.061829
   3 C :   -0.060128
   4 C :   -0.185155
   5 H :    0.014350
   6 C :   -0.035355
   7 H :    0.036086
   8 H :    0.041243
   9 C :   -0.042912
  10 H :    0.016976
  11 H :    0.026072
  12 C :   -0.071862
  13 H :    0.031457
  14 H :    0.029845
  15 H :    0.026395
  16 S :    0.401709
  17 C :   -0.187992
  18 C :   -0.069863
  19 C :   -0.047733
  20 C :   -0.192578
  21 H :    0.033767
  22 C :   -0.024989
  23 H :    0.023539
  24 H :    0.033878
  25 C :   -0.036389
  26 H :    0.018509
  27 H :    0.023412
  28 C :   -0.074027
  29 H :    0.029011
  30 H :    0.023861
  31 H :    0.032192
  32 H :    0.023659
  33 H :    0.033104

  Mayer bond orders larger than 0.100000
B(  0-S ,  1-C ) :   1.1253 B(  0-S ,  4-C ) :   1.1279 B(  1-C ,  2-C ) :   1.6425
B(  1-C , 32-H ) :   0.9606 B(  2-C ,  3-C ) :   1.2165 B(  2-C ,  6-C ) :   1.0006
B(  3-C ,  4-C ) :   1.6012 B(  3-C ,  5-H ) :   1.0049 B(  4-C , 20-C ) :   1.0396
B(  6-C ,  7-H ) :   0.9478 B(  6-C ,  8-H ) :   0.9413 B(  6-C ,  9-C ) :   1.0537
B(  9-C , 10-H ) :   0.9533 B(  9-C , 11-H ) :   0.9532 B(  9-C , 12-C ) :   1.0756
B( 12-C , 13-H ) :   0.9743 B( 12-C , 14-H ) :   0.9755 B( 12-C , 15-H ) :   0.9772
B( 16-S , 17-C ) :   1.1504 B( 16-S , 20-C ) :   1.1292 B( 17-C , 18-C ) :   1.6327
B( 17-C , 33-H ) :   0.9635 B( 18-C , 19-C ) :   1.1915 B( 18-C , 21-H ) :   0.9862
B( 19-C , 20-C ) :   1.6307 B( 19-C , 22-C ) :   1.0423 B( 22-C , 23-H ) :   0.9376
B( 22-C , 24-H ) :   0.9371 B( 22-C , 25-C ) :   1.0390 B( 25-C , 26-H ) :   0.9615
B( 25-C , 27-H ) :   0.9558 B( 25-C , 28-C ) :   1.0757 B( 28-C , 29-H ) :   0.9720
B( 28-C , 30-H ) :   0.9762 B( 28-C , 31-H ) :   0.9738

Dispersion correction           -0.013995657
FINAL SINGLE POINT ENERGY     -1339.874661774866

DIPOLE MOMENT
-------------
                                X             Y             Z
Electronic contribution:    -13.95489     -11.71145     -27.82120
Nuclear contribution   :     14.54268      11.92923      28.28541
                        -----------------------------------------
Total Dipole Moment    :      0.58779       0.21778       0.46421
                        -----------------------------------------
Magnitude (a.u.)       :      0.78001
Magnitude (Debye)      :      1.98262

Rotational constants in cm-1:     0.018710     0.008521     0.006079
Rotational constants in MHz :   560.925695   255.448995   182.256952

                             ****ORCA TERMINATED NORMALLY****
TOTAL RUN TIME: 0 days 0 hours 0 minutes 21 seconds 313 msec
