                         Program Version 4.2.1 -  RELEASE  -
|  1> ! wB97X-D3 SP def2-SVP
|  2> %pal
|  3> nprocs 24
|  4> end
|  5>
|  6> * xyz 0 1
|  7> S 	 -97.4019 	 -24.6537 	 -65.7109
|  8> C 	 -97.5464 	 -22.953 	 -65.9071
|  9> C 	 -96.7701 	 -22.2731 	 -65.0271
| 10> C 	 -96.0193 	 -23.1481 	 -64.1187
| 11> C 	 -96.2457 	 -24.4916 	 -64.4192
| 12> H 	 -95.4261 	 -22.8508 	 -63.3198
| 13> C 	 -96.6326 	 -20.7749 	 -64.8057
| 14> H 	 -96.7668 	 -20.333 	 -65.7861
| 15> H 	 -95.6767 	 -20.5374 	 -64.3731
| 16> C 	 -97.7152 	 -20.2275 	 -63.8003
| 17> H 	 -97.8372 	 -19.1488 	 -63.7944
| 18> H 	 -98.7321 	 -20.4843 	 -64.1439
| 19> C 	 -97.4898 	 -20.7601 	 -62.3832
| 20> H 	 -96.4773 	 -20.6955 	 -62.1342
| 21> H 	 -98.031 	 -20.2117 	 -61.6585
| 22> H 	 -97.9019 	 -21.7522 	 -62.2691
| 23> S 	 -95.2389 	 -27.0314 	 -64.489
| 24> C 	 -94.7855 	 -27.7202 	 -62.9865
| 25> C 	 -94.8828 	 -26.9193 	 -61.9008
| 26> C 	 -95.623 	 -25.7681 	 -62.2464
| 27> C 	 -95.846 	 -25.6271 	 -63.6111
| 28> H 	 -94.523 	 -27.2421 	 -60.9541
| 29> C 	 -96.0929 	 -24.7512 	 -61.2649
| 30> H 	 -96.9843 	 -24.329 	 -61.6184
| 31> H 	 -95.3843 	 -23.9704 	 -61.2406
| 32> C 	 -96.4485 	 -25.2034 	 -59.8189
| 33> H 	 -95.5137 	 -25.7585 	 -59.4022
| 34> H 	 -97.2889 	 -25.8933 	 -59.842
| 35> C 	 -96.7316 	 -23.8899 	 -59.0204
| 36> H 	 -97.7463 	 -23.5172 	 -59.0817
| 37> H 	 -96.1036 	 -23.0492 	 -59.3925
| 38> H 	 -96.5538 	 -24.0486 	 -57.9627
| 39> H 	 -98.1569 	 -22.4388 	 -66.6709
| 40> H 	 -94.1637 	 -28.5796 	 -62.9122
| 41> *
| 42>
| 43>                          ****END OF INPUT****

CARTESIAN COORDINATES (ANGSTROEM)
---------------------------------
  S    -97.401900  -24.653700  -65.710900
  C    -97.546400  -22.953000  -65.907100
  C    -96.770100  -22.273100  -65.027100
  C    -96.019300  -23.148100  -64.118700
  C    -96.245700  -24.491600  -64.419200
  H    -95.426100  -22.850800  -63.319800
  C    -96.632600  -20.774900  -64.805700
  H    -96.766800  -20.333000  -65.786100
  H    -95.676700  -20.537400  -64.373100
  C    -97.715200  -20.227500  -63.800300
  H    -97.837200  -19.148800  -63.794400
  H    -98.732100  -20.484300  -64.143900
  C    -97.489800  -20.760100  -62.383200
  H    -96.477300  -20.695500  -62.134200
  H    -98.031000  -20.211700  -61.658500
  H    -97.901900  -21.752200  -62.269100
  S    -95.238900  -27.031400  -64.489000
  C    -94.785500  -27.720200  -62.986500
  C    -94.882800  -26.919300  -61.900800
  C    -95.623000  -25.768100  -62.246400
  C    -95.846000  -25.627100  -63.611100
  H    -94.523000  -27.242100  -60.954100
  C    -96.092900  -24.751200  -61.264900
  H    -96.984300  -24.329000  -61.618400
  H    -95.384300  -23.970400  -61.240600
  C    -96.448500  -25.203400  -59.818900
  H    -95.513700  -25.758500  -59.402200
  H    -97.288900  -25.893300  -59.842000
  C    -96.731600  -23.889900  -59.020400
  H    -97.746300  -23.517200  -59.081700
  H    -96.103600  -23.049200  -59.392500
  H    -96.553800  -24.048600  -57.962700
  H    -98.156900  -22.438800  -66.670900
  H    -94.163700  -28.579600  -62.912200

 Total Charge           Charge          ....    0
 Multiplicity           Mult            ....    1
 Number of Electrons    NEL             ....  134
 Basis Dimension        Dim             ....  322

ORBITAL ENERGIES
----------------

  NO   OCC          E(Eh)            E(eV)
   0   2.0000     -88.963686     -2420.8250
   1   2.0000     -88.963480     -2420.8194
   2   2.0000     -10.326861      -281.0082
   3   2.0000     -10.320879      -280.8454
   4   2.0000     -10.311377      -280.5868
   5   2.0000     -10.307256      -280.4747
   6   2.0000     -10.299228      -280.2562
   7   2.0000     -10.299075      -280.2521
   8   2.0000     -10.298632      -280.2400
   9   2.0000     -10.293266      -280.0940
  10   2.0000     -10.290594      -280.0213
  11   2.0000     -10.288142      -279.9546
  12   2.0000     -10.287335      -279.9326
  13   2.0000     -10.282506      -279.8012
  14   2.0000     -10.279313      -279.7143
  15   2.0000     -10.268657      -279.4244
  16   2.0000      -8.079269      -219.8481
  17   2.0000      -8.079013      -219.8411
  18   2.0000      -6.037823      -164.2975
  19   2.0000      -6.037274      -164.2826
  20   2.0000      -6.033649      -164.1839
  21   2.0000      -6.033581      -164.1821
  22   2.0000      -6.029936      -164.0829
  23   2.0000      -6.029828      -164.0800
  24   2.0000      -1.010461       -27.4960
  25   2.0000      -0.988582       -26.9007
  26   2.0000      -0.910954       -24.7883
  27   2.0000      -0.909356       -24.7448
  28   2.0000      -0.872927       -23.7536
  29   2.0000      -0.852825       -23.2066
  30   2.0000      -0.844425       -22.9780
  31   2.0000      -0.816589       -22.2205
  32   2.0000      -0.784950       -21.3596
  33   2.0000      -0.770947       -20.9785
  34   2.0000      -0.708080       -19.2678
  35   2.0000      -0.705783       -19.2053
  36   2.0000      -0.698721       -19.0132
  37   2.0000      -0.658725       -17.9248
  38   2.0000      -0.641948       -17.4683
  39   2.0000      -0.616158       -16.7665
  40   2.0000      -0.599288       -16.3074
  41   2.0000      -0.575394       -15.6573
  42   2.0000      -0.569854       -15.5065
  43   2.0000      -0.553920       -15.0729
  44   2.0000      -0.543436       -14.7876
  45   2.0000      -0.521597       -14.1934
  46   2.0000      -0.515312       -14.0224
  47   2.0000      -0.513552       -13.9745
  48   2.0000      -0.504006       -13.7147
  49   2.0000      -0.498249       -13.5580
  50   2.0000      -0.487673       -13.2703
  51   2.0000      -0.482188       -13.1210
  52   2.0000      -0.474678       -12.9166
  53   2.0000      -0.463525       -12.6132
  54   2.0000      -0.462519       -12.5858
  55   2.0000      -0.457261       -12.4427
  56   2.0000      -0.441535       -12.0148
  57   2.0000      -0.439462       -11.9584
  58   2.0000      -0.436459       -11.8767
  59   2.0000      -0.432956       -11.7813
  60   2.0000      -0.423645       -11.5280
  61   2.0000      -0.412073       -11.2131
  62   2.0000      -0.410299       -11.1648
  63   2.0000      -0.351890        -9.5754
  64   2.0000      -0.332247        -9.0409
  65   2.0000      -0.326920        -8.8960
  66   2.0000      -0.287573        -7.8253
  67   0.0000       0.030114         0.8194
  68   0.0000       0.077701         2.1143
  69   0.0000       0.111272         3.0279
  70   0.0000       0.122799         3.3415
  71   0.0000       0.129508         3.5241

MULLIKEN ATOMIC CHARGES
-----------------------
   0 S :    0.110770
   1 C :   -0.125928
   2 C :   -0.099157
   3 C :    0.027848
   4 C :   -0.116699
   5 H :   -0.020232
   6 C :    0.088395
   7 H :    0.022697
   8 H :    0.025349
   9 C :   -0.079599
  10 H :    0.025768
  11 H :    0.015934
  12 C :   -0.014943
  13 H :    0.013109
  14 H :    0.015272
  15 H :    0.042560
  16 S :    0.105035
  17 C :   -0.054717
  18 C :   -0.042068
  19 C :   -0.035138
  20 C :   -0.142713
  21 H :    0.008692
  22 C :    0.043718
  23 H :    0.026456
  24 H :    0.025429
  25 C :   -0.097130
  26 H :    0.040920
  27 H :    0.044332
  28 C :   -0.048190
  29 H :    0.034523
  30 H :    0.031914
  31 H :    0.034658
  32 H :    0.053625
  33 H :    0.039510
Sum of atomic charges:    0.0000000

LOEWDIN ATOMIC CHARGES
----------------------
   0 S :    0.416889
   1 C :   -0.214242
   2 C :   -0.061501
   3 C :   -0.052082
   4 C :   -0.196312
   5 H :    0.016905
   6 C :   -0.023146
   7 H :    0.029310
   8 H :    0.026448
   9 C :   -0.038853
  10 H :    0.020528
  11 H :    0.023086
  12 C :   -0.058847
  13 H :    0.013909
  14 H :    0.022781
  15 H :    0.028613
  16 S :    0.411737
  17 C :   -0.182239
  18 C :   -0.067969
  19 C :   -0.049434
  20 C :   -0.199659
  21 H :    0.029371
  22 C :   -0.033911
  23 H :    0.027157
  24 H :    0.022488
  25 C :   -0.035368
  26 H :    0.027843
  27 H :    0.025895
  28 C :   -0.067523
  29 H :    0.025621
  30 H :    0.029033
  31 H :    0.025765
  32 H :    0.036847
  33 H :    0.020857

  Mayer bond orders larger than 0.100000
B(  0-S ,  1-C ) :   1.1281 B(  0-S ,  4-C ) :   1.1570 B(  1-C ,  2-C ) :   1.6426
B(  1-C , 32-H ) :   0.9614 B(  2-C ,  3-C ) :   1.2173 B(  2-C ,  6-C ) :   1.0240
B(  3-C ,  4-C ) :   1.5674 B(  3-C ,  5-H ) :   1.0086 B(  4-C , 20-C ) :   1.0345
B(  6-C ,  7-H ) :   0.9375 B(  6-C ,  8-H ) :   0.9493 B(  6-C ,  9-C ) :   1.0639
B(  9-C , 10-H ) :   0.9621 B(  9-C , 11-H ) :   0.9549 B(  9-C , 12-C ) :   1.0803
B( 12-C , 13-H ) :   0.9751 B( 12-C , 14-H ) :   0.9667 B( 12-C , 15-H ) :   0.9706
B( 16-S , 17-C ) :   1.1711 B( 16-S , 20-C ) :   1.1278 B( 17-C , 18-C ) :   1.6273
B( 17-C , 33-H ) :   0.9586 B( 18-C , 19-C ) :   1.2317 B( 18-C , 21-H ) :   0.9974
B( 19-C , 20-C ) :   1.6062 B( 19-C , 22-C ) :   1.0315 B( 22-C , 23-H ) :   0.9375
B( 22-C , 24-H ) :   0.9242 B( 22-C , 25-C ) :   1.0657 B( 25-C , 26-H ) :   0.9538
B( 25-C , 27-H ) :   0.9610 B( 25-C , 28-C ) :   1.0663 B( 28-C , 29-H ) :   0.9755
B( 28-C , 30-H ) :   0.9753 B( 28-C , 31-H ) :   0.9753

Dispersion correction           -0.015326203
FINAL SINGLE POINT ENERGY     -1339.876053196738

DIPOLE MOMENT
-------------
                                X             Y             Z
Electronic contribution:      4.51906     -21.24015     -23.18183
Nuclear contribution   :     -4.51022      21.77810      23.79740
                        -----------------------------------------
Total Dipole Moment    :      0.00884       0.53795       0.61557
                        -----------------------------------------
Magnitude (a.u.)       :      0.81755
Magnitude (Debye)      :      2.07805

Rotational constants in cm-1:     0.016503     0.010906     0.007018
Rotational constants in MHz :   494.760049   326.960380   210.406242

                             ****ORCA TERMINATED NORMALLY****
TOTAL RUN TIME: 0 days 0 hours 0 minutes 22 seconds 818 msec
