                         Program Version 4.2.1 -  RELEASE  -
|  1> ! wB97X-D3 SP def2-SVP
|  2> %pal
|  3> nprocs 24
|  4> end
|  5>
|  6> * xyz 0 1
|  7> S 	 -47.5179 	 1.39325 	 15.079
|  8> C 	 -47.2721 	 1.55667 	 16.8179
|  9> C 	 -46.4829 	 0.499226 	 17.3882
| 10> C 	 -46.1369 	 -0.411042 	 16.2863
| 11> C 	 -46.4422 	 -0.0325031 	 14.9686
| 12> H 	 -45.542 	 -1.29094 	 16.4481
| 13> C 	 -45.9743 	 0.432804 	 18.7831
| 14> H 	 -45.491 	 -0.462067 	 18.8645
| 15> H 	 -46.8371 	 0.445661 	 19.4842
| 16> C 	 -45.1304 	 1.60504 	 19.2066
| 17> H 	 -44.3924 	 1.71895 	 18.3641
| 18> H 	 -45.7352 	 2.53079 	 19.2714
| 19> C 	 -44.5175 	 1.40904 	 20.5691
| 20> H 	 -44.0272 	 2.32832 	 20.9117
| 21> H 	 -45.3622 	 1.22729 	 21.3056
| 22> H 	 -44.0224 	 0.451685 	 20.7038
| 23> S 	 -44.9088 	 -1.96995 	 13.7456
| 24> C 	 -45.092 	 -2.30162 	 12.0629
| 25> C 	 -46.2157 	 -1.64607 	 11.6076
| 26> C 	 -46.8679 	 -0.75126 	 12.5338
| 27> C 	 -46.2194 	 -0.826141 	 13.7481
| 28> H 	 -46.5166 	 -1.81476 	 10.6157
| 29> C 	 -48.0411 	 0.0666898 	 12.2023
| 30> H 	 -47.6958 	 1.09706 	 11.922
| 31> H 	 -48.6766 	 0.236376 	 13.0679
| 32> C 	 -48.9712 	 -0.354699 	 11.0337
| 33> H 	 -49.3599 	 -1.3782 	 11.1275
| 34> H 	 -48.4792 	 -0.427675 	 10.104
| 35> C 	 -50.1786 	 0.638575 	 10.886
| 36> H 	 -50.8468 	 0.453565 	 9.95994
| 37> H 	 -49.7768 	 1.64577 	 10.7148
| 38> H 	 -50.768 	 0.723567 	 11.8039
| 39> H 	 -47.6248 	 2.39878 	 17.467
| 40> H 	 -44.4565 	 -2.85757 	 11.4366
| 41> *
| 42>
| 43>                          ****END OF INPUT****

CARTESIAN COORDINATES (ANGSTROEM)
---------------------------------
  S    -47.517900    1.393250   15.079000
  C    -47.272100    1.556670   16.817900
  C    -46.482900    0.499226   17.388200
  C    -46.136900   -0.411042   16.286300
  C    -46.442200   -0.032503   14.968600
  H    -45.542000   -1.290940   16.448100
  C    -45.974300    0.432804   18.783100
  H    -45.491000   -0.462067   18.864500
  H    -46.837100    0.445661   19.484200
  C    -45.130400    1.605040   19.206600
  H    -44.392400    1.718950   18.364100
  H    -45.735200    2.530790   19.271400
  C    -44.517500    1.409040   20.569100
  H    -44.027200    2.328320   20.911700
  H    -45.362200    1.227290   21.305600
  H    -44.022400    0.451685   20.703800
  S    -44.908800   -1.969950   13.745600
  C    -45.092000   -2.301620   12.062900
  C    -46.215700   -1.646070   11.607600
  C    -46.867900   -0.751260   12.533800
  C    -46.219400   -0.826141   13.748100
  H    -46.516600   -1.814760   10.615700
  C    -48.041100    0.066690   12.202300
  H    -47.695800    1.097060   11.922000
  H    -48.676600    0.236376   13.067900
  C    -48.971200   -0.354699   11.033700
  H    -49.359900   -1.378200   11.127500
  H    -48.479200   -0.427675   10.104000
  C    -50.178600    0.638575   10.886000
  H    -50.846800    0.453565    9.959940
  H    -49.776800    1.645770   10.714800
  H    -50.768000    0.723567   11.803900
  H    -47.624800    2.398780   17.467000
  H    -44.456500   -2.857570   11.436600

 Total Charge           Charge          ....    0
 Multiplicity           Mult            ....    1
 Number of Electrons    NEL             ....  134
 Basis Dimension        Dim             ....  322

ORBITAL ENERGIES
----------------

  NO   OCC          E(Eh)            E(eV)
   0   2.0000     -88.972037     -2421.0522
   1   2.0000     -88.966448     -2420.9001
   2   2.0000     -10.336945      -281.2826
   3   2.0000     -10.329094      -281.0689
   4   2.0000     -10.322006      -280.8761
   5   2.0000     -10.313327      -280.6399
   6   2.0000     -10.309193      -280.5274
   7   2.0000     -10.302883      -280.3557
   8   2.0000     -10.297767      -280.2165
   9   2.0000     -10.295751      -280.1616
  10   2.0000     -10.290348      -280.0146
  11   2.0000     -10.289762      -279.9987
  12   2.0000     -10.289312      -279.9864
  13   2.0000     -10.288130      -279.9542
  14   2.0000     -10.286966      -279.9226
  15   2.0000     -10.283569      -279.8301
  16   2.0000      -8.084656      -219.9947
  17   2.0000      -8.081612      -219.9118
  18   2.0000      -6.043398      -164.4492
  19   2.0000      -6.040230      -164.3630
  20   2.0000      -6.039337      -164.3387
  21   2.0000      -6.036034      -164.2488
  22   2.0000      -6.035414      -164.2320
  23   2.0000      -6.032288      -164.1469
  24   2.0000      -1.007065       -27.4036
  25   2.0000      -0.976742       -26.5785
  26   2.0000      -0.922051       -25.0903
  27   2.0000      -0.910851       -24.7855
  28   2.0000      -0.868437       -23.6314
  29   2.0000      -0.852435       -23.1959
  30   2.0000      -0.845943       -23.0193
  31   2.0000      -0.811156       -22.0727
  32   2.0000      -0.781037       -21.2531
  33   2.0000      -0.771343       -20.9893
  34   2.0000      -0.712615       -19.3912
  35   2.0000      -0.702514       -19.1164
  36   2.0000      -0.697000       -18.9663
  37   2.0000      -0.661701       -18.0058
  38   2.0000      -0.629995       -17.1430
  39   2.0000      -0.618404       -16.8276
  40   2.0000      -0.603845       -16.4314
  41   2.0000      -0.577451       -15.7132
  42   2.0000      -0.566074       -15.4037
  43   2.0000      -0.564386       -15.3577
  44   2.0000      -0.535927       -14.5833
  45   2.0000      -0.530207       -14.4277
  46   2.0000      -0.517501       -14.0819
  47   2.0000      -0.513727       -13.9792
  48   2.0000      -0.508023       -13.8240
  49   2.0000      -0.491841       -13.3837
  50   2.0000      -0.484183       -13.1753
  51   2.0000      -0.474049       -12.8995
  52   2.0000      -0.471507       -12.8304
  53   2.0000      -0.464824       -12.6485
  54   2.0000      -0.454214       -12.3598
  55   2.0000      -0.453338       -12.3360
  56   2.0000      -0.449668       -12.2361
  57   2.0000      -0.440581       -11.9888
  58   2.0000      -0.437501       -11.9050
  59   2.0000      -0.425655       -11.5827
  60   2.0000      -0.423019       -11.5109
  61   2.0000      -0.413783       -11.2596
  62   2.0000      -0.411577       -11.1996
  63   2.0000      -0.360517        -9.8102
  64   2.0000      -0.329645        -8.9701
  65   2.0000      -0.325254        -8.8506
  66   2.0000      -0.280196        -7.6245
  67   0.0000       0.020647         0.5618
  68   0.0000       0.076717         2.0876
  69   0.0000       0.109236         2.9725
  70   0.0000       0.120661         3.2833
  71   0.0000       0.131038         3.5657

MULLIKEN ATOMIC CHARGES
-----------------------
   0 S :    0.089318
   1 C :   -0.131597
   2 C :   -0.112262
   3 C :   -0.012821
   4 C :   -0.108707
   5 H :    0.008208
   6 C :    0.119856
   7 H :   -0.007295
   8 H :    0.031547
   9 C :   -0.102908
  10 H :    0.044507
  11 H :    0.031249
  12 C :   -0.035168
  13 H :    0.050235
  14 H :    0.015224
  15 H :    0.029708
  16 S :    0.101137
  17 C :   -0.058100
  18 C :   -0.030872
  19 C :   -0.023923
  20 C :   -0.117421
  21 H :   -0.005806
  22 C :    0.002649
  23 H :    0.045984
  24 H :    0.039581
  25 C :   -0.056422
  26 H :    0.031587
  27 H :    0.020514
  28 C :   -0.079988
  29 H :    0.051010
  30 H :    0.024655
  31 H :    0.040918
  32 H :    0.065736
  33 H :    0.039668
Sum of atomic charges:    0.0000000

LOEWDIN ATOMIC CHARGES
----------------------
   0 S :    0.404143
   1 C :   -0.208270
   2 C :   -0.053746
   3 C :   -0.071139
   4 C :   -0.178761
   5 H :    0.018457
   6 C :   -0.031200
   7 H :    0.017592
   8 H :    0.038468
   9 C :   -0.043856
  10 H :    0.029870
  11 H :    0.026391
  12 C :   -0.072473
  13 H :    0.032259
  14 H :    0.030151
  15 H :    0.025275
  16 S :    0.421017
  17 C :   -0.186059
  18 C :   -0.061004
  19 C :   -0.061880
  20 C :   -0.191000
  21 H :    0.019501
  22 C :   -0.046470
  23 H :    0.041674
  24 H :    0.021969
  25 C :   -0.037560
  26 H :    0.025049
  27 H :    0.015500
  28 C :   -0.071722
  29 H :    0.037880
  30 H :    0.022917
  31 H :    0.025428
  32 H :    0.036884
  33 H :    0.024715

  Mayer bond orders larger than 0.100000
B(  0-S ,  1-C ) :   1.1478 B(  0-S ,  4-C ) :   1.1273 B(  1-C ,  2-C ) :   1.5760
B(  1-C , 32-H ) :   0.9592 B(  2-C ,  3-C ) :   1.2668 B(  2-C ,  6-C ) :   1.0428
B(  3-C ,  4-C ) :   1.5536 B(  3-C ,  5-H ) :   0.9802 B(  4-C , 20-C ) :   1.0769
B(  6-C ,  7-H ) :   0.9348 B(  6-C ,  8-H ) :   0.9196 B(  6-C ,  9-C ) :   1.0679
B(  9-C , 10-H ) :   0.9561 B(  9-C , 11-H ) :   0.9491 B(  9-C , 12-C ) :   1.0896
B( 12-C , 13-H ) :   0.9720 B( 12-C , 14-H ) :   0.9641 B( 12-C , 15-H ) :   0.9721
B( 16-S , 17-C ) :   1.1465 B( 16-S , 20-C ) :   1.1386 B( 17-C , 18-C ) :   1.6097
B( 17-C , 33-H ) :   0.9734 B( 18-C , 19-C ) :   1.2373 B( 18-C , 21-H ) :   0.9958
B( 19-C , 20-C ) :   1.5723 B( 19-C , 22-C ) :   1.0491 B( 22-C , 23-H ) :   0.9188
B( 22-C , 24-H ) :   0.9311 B( 22-C , 25-C ) :   1.0658 B( 25-C , 26-H ) :   0.9581
B( 25-C , 27-H ) :   0.9469 B( 25-C , 28-C ) :   1.0776 B( 28-C , 29-H ) :   0.9741
B( 28-C , 30-H ) :   0.9741 B( 28-C , 31-H ) :   0.9771

Dispersion correction           -0.013209215
FINAL SINGLE POINT ENERGY     -1339.872031485064

DIPOLE MOMENT
-------------
                                X             Y             Z
Electronic contribution:      6.63125      -7.42448      -7.15270
Nuclear contribution   :     -6.69464       7.46850       7.21471
                        -----------------------------------------
Total Dipole Moment    :     -0.06339       0.04402       0.06201
                        -----------------------------------------
Magnitude (a.u.)       :      0.09900
Magnitude (Debye)      :      0.25164

Rotational constants in cm-1:     0.023489     0.007026     0.005539
Rotational constants in MHz :   704.188062   210.621657   166.064068

                             ****ORCA TERMINATED NORMALLY****
TOTAL RUN TIME: 0 days 0 hours 0 minutes 19 seconds 462 msec
