                         Program Version 4.2.1 -  RELEASE  -
|  1> ! wB97X-D3 SP def2-SVP
|  2> %pal
|  3> nprocs 24
|  4> end
|  5>
|  6> * xyz 0 1
|  7> S 	 -48.5977 	 14.0688 	 22.3222
|  8> C 	 -50.3311 	 13.6167 	 22.2908
|  9> C 	 -51.1507 	 14.7069 	 22.1887
| 10> C 	 -50.3898 	 15.8807 	 21.8021
| 11> C 	 -48.982 	 15.7279 	 21.7753
| 12> H 	 -50.8287 	 16.8342 	 21.6296
| 13> C 	 -52.6808 	 14.816 	 22.3478
| 14> H 	 -53.1837 	 13.9029 	 22.4054
| 15> H 	 -52.9963 	 15.1694 	 21.403
| 16> C 	 -53.1143 	 15.8485 	 23.3642
| 17> H 	 -52.7487 	 15.563 	 24.302
| 18> H 	 -52.6981 	 16.8267 	 23.0667
| 19> C 	 -54.6418 	 15.8958 	 23.4174
| 20> H 	 -55.0649 	 14.8496 	 23.6309
| 21> H 	 -54.9781 	 16.5418 	 24.2766
| 22> H 	 -55.1331 	 16.3212 	 22.5363
| 23> S 	 -46.503 	 15.8191 	 20.679
| 24> C 	 -45.8246 	 17.3081 	 20.4158
| 25> C 	 -46.73 	 18.3419 	 20.3198
| 26> C 	 -47.9592 	 17.9638 	 20.9561
| 27> C 	 -47.9464 	 16.6245 	 21.28
| 28> H 	 -46.4238 	 19.3524 	 20.1674
| 29> C 	 -48.9681 	 19.0018 	 21.2451
| 30> H 	 -50.0246 	 18.6196 	 21.1195
| 31> H 	 -48.929 	 19.8592 	 20.5451
| 32> C 	 -49.0302 	 19.5698 	 22.7051
| 33> H 	 -49.4112 	 18.7346 	 23.331
| 34> H 	 -49.7413 	 20.4158 	 22.7471
| 35> C 	 -47.6183 	 19.9729 	 23.2146
| 36> H 	 -47.1424 	 20.6892 	 22.6109
| 37> H 	 -46.9324 	 19.1125 	 23.1248
| 38> H 	 -47.6219 	 20.2938 	 24.1952
| 39> H 	 -50.7035 	 12.6306 	 22.38
| 40> H 	 -44.7642 	 17.5059 	 20.3105
| 41> *
| 42>
| 43>                          ****END OF INPUT****

CARTESIAN COORDINATES (ANGSTROEM)
---------------------------------
  S    -48.597700   14.068800   22.322200
  C    -50.331100   13.616700   22.290800
  C    -51.150700   14.706900   22.188700
  C    -50.389800   15.880700   21.802100
  C    -48.982000   15.727900   21.775300
  H    -50.828700   16.834200   21.629600
  C    -52.680800   14.816000   22.347800
  H    -53.183700   13.902900   22.405400
  H    -52.996300   15.169400   21.403000
  C    -53.114300   15.848500   23.364200
  H    -52.748700   15.563000   24.302000
  H    -52.698100   16.826700   23.066700
  C    -54.641800   15.895800   23.417400
  H    -55.064900   14.849600   23.630900
  H    -54.978100   16.541800   24.276600
  H    -55.133100   16.321200   22.536300
  S    -46.503000   15.819100   20.679000
  C    -45.824600   17.308100   20.415800
  C    -46.730000   18.341900   20.319800
  C    -47.959200   17.963800   20.956100
  C    -47.946400   16.624500   21.280000
  H    -46.423800   19.352400   20.167400
  C    -48.968100   19.001800   21.245100
  H    -50.024600   18.619600   21.119500
  H    -48.929000   19.859200   20.545100
  C    -49.030200   19.569800   22.705100
  H    -49.411200   18.734600   23.331000
  H    -49.741300   20.415800   22.747100
  C    -47.618300   19.972900   23.214600
  H    -47.142400   20.689200   22.610900
  H    -46.932400   19.112500   23.124800
  H    -47.621900   20.293800   24.195200
  H    -50.703500   12.630600   22.380000
  H    -44.764200   17.505900   20.310500

 Total Charge           Charge          ....    0
 Multiplicity           Mult            ....    1
 Number of Electrons    NEL             ....  134
 Basis Dimension        Dim             ....  322

ORBITAL ENERGIES
----------------

  NO   OCC          E(Eh)            E(eV)
   0   2.0000     -88.966524     -2420.9022
   1   2.0000     -88.963820     -2420.8286
   2   2.0000     -10.335317      -281.2383
   3   2.0000     -10.325806      -280.9795
   4   2.0000     -10.312033      -280.6047
   5   2.0000     -10.311098      -280.5792
   6   2.0000     -10.303832      -280.3815
   7   2.0000     -10.303137      -280.3626
   8   2.0000     -10.297637      -280.2130
   9   2.0000     -10.294330      -280.1230
  10   2.0000     -10.293946      -280.1125
  11   2.0000     -10.290013      -280.0055
  12   2.0000     -10.289684      -279.9965
  13   2.0000     -10.285899      -279.8935
  14   2.0000     -10.285359      -279.8788
  15   2.0000     -10.265233      -279.3312
  16   2.0000      -8.083243      -219.9562
  17   2.0000      -8.077303      -219.7946
  18   2.0000      -6.041479      -164.3970
  19   2.0000      -6.037718      -164.2947
  20   2.0000      -6.036097      -164.2505
  21   2.0000      -6.033887      -164.1904
  22   2.0000      -6.032134      -164.1427
  23   2.0000      -6.027702      -164.0221
  24   2.0000      -1.014323       -27.6011
  25   2.0000      -0.979342       -26.6492
  26   2.0000      -0.917298       -24.9610
  27   2.0000      -0.911694       -24.8085
  28   2.0000      -0.869978       -23.6733
  29   2.0000      -0.853443       -23.2234
  30   2.0000      -0.838682       -22.8217
  31   2.0000      -0.809292       -22.0220
  32   2.0000      -0.787876       -21.4392
  33   2.0000      -0.775548       -21.1037
  34   2.0000      -0.712720       -19.3941
  35   2.0000      -0.702905       -19.1270
  36   2.0000      -0.688211       -18.7272
  37   2.0000      -0.668942       -18.2028
  38   2.0000      -0.637488       -17.3469
  39   2.0000      -0.622554       -16.9406
  40   2.0000      -0.597544       -16.2600
  41   2.0000      -0.573508       -15.6059
  42   2.0000      -0.562806       -15.3147
  43   2.0000      -0.551308       -15.0019
  44   2.0000      -0.547177       -14.8895
  45   2.0000      -0.522370       -14.2144
  46   2.0000      -0.517616       -14.0851
  47   2.0000      -0.509779       -13.8718
  48   2.0000      -0.505083       -13.7440
  49   2.0000      -0.497335       -13.5332
  50   2.0000      -0.493996       -13.4423
  51   2.0000      -0.481031       -13.0895
  52   2.0000      -0.473815       -12.8932
  53   2.0000      -0.464205       -12.6317
  54   2.0000      -0.458408       -12.4739
  55   2.0000      -0.453958       -12.3528
  56   2.0000      -0.442559       -12.0426
  57   2.0000      -0.435068       -11.8388
  58   2.0000      -0.434532       -11.8242
  59   2.0000      -0.431044       -11.7293
  60   2.0000      -0.423963       -11.5366
  61   2.0000      -0.419005       -11.4017
  62   2.0000      -0.412568       -11.2265
  63   2.0000      -0.353025        -9.6063
  64   2.0000      -0.332610        -9.0508
  65   2.0000      -0.325971        -8.8701
  66   2.0000      -0.279590        -7.6080
  67   0.0000       0.015238         0.4146
  68   0.0000       0.083379         2.2688
  69   0.0000       0.091282         2.4839
  70   0.0000       0.107302         2.9198
  71   0.0000       0.130199         3.5429

MULLIKEN ATOMIC CHARGES
-----------------------
   0 S :    0.081586
   1 C :   -0.125562
   2 C :   -0.058160
   3 C :    0.009267
   4 C :   -0.124153
   5 H :   -0.019028
   6 C :    0.117118
   7 H :   -0.005617
   8 H :    0.008748
   9 C :   -0.047666
  10 H :    0.023730
  11 H :    0.032784
  12 C :   -0.087033
  13 H :    0.040053
  14 H :    0.040730
  15 H :    0.038271
  16 S :    0.125667
  17 C :   -0.088553
  18 C :   -0.013634
  19 C :   -0.065937
  20 C :   -0.100487
  21 H :    0.012731
  22 C :    0.007849
  23 H :    0.031389
  24 H :    0.030081
  25 C :   -0.083453
  26 H :    0.039882
  27 H :    0.038178
  28 C :   -0.014755
  29 H :    0.007777
  30 H :    0.040030
  31 H :    0.021150
  32 H :    0.030314
  33 H :    0.056704
Sum of atomic charges:   -0.0000000

LOEWDIN ATOMIC CHARGES
----------------------
   0 S :    0.358077
   1 C :   -0.179523
   2 C :   -0.053243
   3 C :   -0.064706
   4 C :   -0.174782
   5 H :    0.015654
   6 C :   -0.023242
   7 H :    0.019178
   8 H :    0.028173
   9 C :   -0.031311
  10 H :    0.019156
  11 H :    0.027025
  12 C :   -0.072162
  13 H :    0.032375
  14 H :    0.030867
  15 H :    0.024032
  16 S :    0.440323
  17 C :   -0.201126
  18 C :   -0.067045
  19 C :   -0.054443
  20 C :   -0.195171
  21 H :    0.025636
  22 C :   -0.040968
  23 H :    0.032631
  24 H :    0.033051
  25 C :   -0.032083
  26 H :    0.027035
  27 H :    0.025381
  28 C :   -0.061844
  29 H :    0.014803
  30 H :    0.032945
  31 H :    0.015335
  32 H :    0.020617
  33 H :    0.029356

  Mayer bond orders larger than 0.100000
B(  0-S ,  1-C ) :   1.1099 B(  0-S ,  4-C ) :   1.1244 B(  1-C ,  2-C ) :   1.6426
B(  1-C , 32-H ) :   0.9713 B(  2-C ,  3-C ) :   1.2162 B(  2-C ,  6-C ) :   1.0145
B(  3-C ,  4-C ) :   1.5813 B(  3-C ,  5-H ) :   0.9840 B(  4-C , 20-C ) :   1.0933
B(  6-C ,  7-H ) :   0.9442 B(  6-C ,  8-H ) :   0.9311 B(  6-C ,  9-C ) :   1.0612
B(  9-C , 10-H ) :   0.9563 B(  9-C , 11-H ) :   0.9502 B(  9-C , 12-C ) :   1.0893
B( 12-C , 13-H ) :   0.9720 B( 12-C , 14-H ) :   0.9744 B( 12-C , 15-H ) :   0.9753
B( 16-S , 17-C ) :   1.1843 B( 16-S , 20-C ) :   1.1283 B( 17-C , 18-C ) :   1.5987
B( 17-C , 33-H ) :   0.9657 B( 18-C , 19-C ) :   1.2434 B( 18-C , 21-H ) :   0.9874
B( 19-C , 20-C ) :   1.5863 B( 19-C , 22-C ) :   1.0592 B( 22-C , 23-H ) :   0.9332
B( 22-C , 24-H ) :   0.9343 B( 22-C , 25-C ) :   1.0657 B( 25-C , 26-H ) :   0.9555
B( 25-C , 27-H ) :   0.9585 B( 25-C , 28-C ) :   1.0801 B( 28-C , 29-H ) :   0.9746
B( 28-C , 30-H ) :   0.9677 B( 28-C , 31-H ) :   0.9744

Dispersion correction           -0.014571768
FINAL SINGLE POINT ENERGY     -1339.860315878609

DIPOLE MOMENT
-------------
                                X             Y             Z
Electronic contribution:     22.10032     -16.93661      -9.44101
Nuclear contribution   :    -22.55486      17.46490       9.50126
                        -----------------------------------------
Total Dipole Moment    :     -0.45454       0.52828       0.06025
                        -----------------------------------------
Magnitude (a.u.)       :      0.69952
Magnitude (Debye)      :      1.77803

Rotational constants in cm-1:     0.019548     0.008869     0.006597
Rotational constants in MHz :   586.026054   265.900579   197.769082

                             ****ORCA TERMINATED NORMALLY****
TOTAL RUN TIME: 0 days 0 hours 0 minutes 22 seconds 276 msec
