                         Program Version 4.2.1 -  RELEASE  -
|  1> ! wB97X-D3 SP def2-SVP
|  2> %pal
|  3> nprocs 24
|  4> end
|  5>
|  6> * xyz 0 1
|  7> S 	 -100.92 	 13.0311 	 -122.21
|  8> C 	 -99.8274 	 14.4526 	 -122.464
|  9> C 	 -100.516 	 15.5741 	 -122.867
| 10> C 	 -101.908 	 15.3084 	 -122.901
| 11> C 	 -102.35 	 14.017 	 -122.555
| 12> H 	 -102.669 	 15.9711 	 -123.355
| 13> C 	 -99.8683 	 16.9622 	 -123.133
| 14> H 	 -99.0961 	 17.16 	 -122.339
| 15> H 	 -100.765 	 17.5434 	 -122.869
| 16> C 	 -99.4382 	 17.1372 	 -124.591
| 17> H 	 -99.0615 	 16.148 	 -124.902
| 18> H 	 -100.332 	 17.3291 	 -125.195
| 19> C 	 -98.4878 	 18.24 	 -124.939
| 20> H 	 -97.9761 	 17.9715 	 -125.873
| 21> H 	 -99.0188 	 19.1664 	 -125.158
| 22> H 	 -97.6508 	 18.433 	 -124.262
| 23> S 	 -104.85 	 14.3531 	 -123.688
| 24> C 	 -106.102 	 13.3746 	 -123.092
| 25> C 	 -105.657 	 12.319 	 -122.326
| 26> C 	 -104.287 	 12.3888 	 -122.047
| 27> C 	 -103.659 	 13.4874 	 -122.706
| 28> H 	 -106.371 	 11.5283 	 -122.027
| 29> C 	 -103.553 	 11.272 	 -121.181
| 30> H 	 -102.927 	 11.7405 	 -120.347
| 31> H 	 -102.946 	 10.667 	 -121.859
| 32> C 	 -104.584 	 10.313 	 -120.608
| 33> H 	 -105.218 	 9.85354 	 -121.415
| 34> H 	 -105.302 	 10.8092 	 -119.91
| 35> C 	 -104.037 	 9.1689 	 -119.685
| 36> H 	 -103.263 	 9.55155 	 -118.953
| 37> H 	 -103.488 	 8.44547 	 -120.316
| 38> H 	 -104.794 	 8.6487 	 -119.082
| 39> H 	 -98.7812 	 14.4971 	 -122.205
| 40> H 	 -107.056 	 13.3581 	 -123.573
| 41> *
| 42>
| 43>                          ****END OF INPUT****

CARTESIAN COORDINATES (ANGSTROEM)
---------------------------------
  S    -100.920000   13.031100  -122.210000
  C    -99.827400   14.452600  -122.464000
  C    -100.516000   15.574100  -122.867000
  C    -101.908000   15.308400  -122.901000
  C    -102.350000   14.017000  -122.555000
  H    -102.669000   15.971100  -123.355000
  C    -99.868300   16.962200  -123.133000
  H    -99.096100   17.160000  -122.339000
  H    -100.765000   17.543400  -122.869000
  C    -99.438200   17.137200  -124.591000
  H    -99.061500   16.148000  -124.902000
  H    -100.332000   17.329100  -125.195000
  C    -98.487800   18.240000  -124.939000
  H    -97.976100   17.971500  -125.873000
  H    -99.018800   19.166400  -125.158000
  H    -97.650800   18.433000  -124.262000
  S    -104.850000   14.353100  -123.688000
  C    -106.102000   13.374600  -123.092000
  C    -105.657000   12.319000  -122.326000
  C    -104.287000   12.388800  -122.047000
  C    -103.659000   13.487400  -122.706000
  H    -106.371000   11.528300  -122.027000
  C    -103.553000   11.272000  -121.181000
  H    -102.927000   11.740500  -120.347000
  H    -102.946000   10.667000  -121.859000
  C    -104.584000   10.313000  -120.608000
  H    -105.218000    9.853540  -121.415000
  H    -105.302000   10.809200  -119.910000
  C    -104.037000    9.168900  -119.685000
  H    -103.263000    9.551550  -118.953000
  H    -103.488000    8.445470  -120.316000
  H    -104.794000    8.648700  -119.082000
  H    -98.781200   14.497100  -122.205000
  H    -107.056000   13.358100  -123.573000

 Total Charge           Charge          ....    0
 Multiplicity           Mult            ....    1
 Number of Electrons    NEL             ....  134
 Basis Dimension        Dim             ....  322

ORBITAL ENERGIES
----------------

  NO   OCC          E(Eh)            E(eV)
   0   2.0000     -88.971135     -2421.0277
   1   2.0000     -88.967094     -2420.9177
   2   2.0000     -10.332058      -281.1496
   3   2.0000     -10.330732      -281.1135
   4   2.0000     -10.313991      -280.6580
   5   2.0000     -10.312324      -280.6126
   6   2.0000     -10.311154      -280.5808
   7   2.0000     -10.306605      -280.4570
   8   2.0000     -10.301122      -280.3078
   9   2.0000     -10.299108      -280.2530
  10   2.0000     -10.294674      -280.1323
  11   2.0000     -10.294216      -280.1198
  12   2.0000     -10.293639      -280.1041
  13   2.0000     -10.287067      -279.9253
  14   2.0000     -10.286347      -279.9057
  15   2.0000     -10.277089      -279.6538
  16   2.0000      -8.086210      -220.0370
  17   2.0000      -8.079914      -219.8656
  18   2.0000      -6.044620      -164.4825
  19   2.0000      -6.040626      -164.3738
  20   2.0000      -6.038680      -164.3208
  21   2.0000      -6.037128      -164.2786
  22   2.0000      -6.034713      -164.2129
  23   2.0000      -6.030498      -164.0982
  24   2.0000      -1.007187       -27.4069
  25   2.0000      -0.980021       -26.6677
  26   2.0000      -0.910775       -24.7834
  27   2.0000      -0.906080       -24.6557
  28   2.0000      -0.873358       -23.7653
  29   2.0000      -0.851121       -23.1602
  30   2.0000      -0.841763       -22.9055
  31   2.0000      -0.807376       -21.9698
  32   2.0000      -0.784593       -21.3499
  33   2.0000      -0.773354       -21.0440
  34   2.0000      -0.706607       -19.2278
  35   2.0000      -0.700315       -19.0565
  36   2.0000      -0.693797       -18.8792
  37   2.0000      -0.654847       -17.8193
  38   2.0000      -0.622951       -16.9514
  39   2.0000      -0.614407       -16.7189
  40   2.0000      -0.600852       -16.3500
  41   2.0000      -0.568652       -15.4738
  42   2.0000      -0.566912       -15.4265
  43   2.0000      -0.559195       -15.2165
  44   2.0000      -0.525260       -14.2930
  45   2.0000      -0.521572       -14.1927
  46   2.0000      -0.514726       -14.0064
  47   2.0000      -0.509849       -13.8737
  48   2.0000      -0.508264       -13.8306
  49   2.0000      -0.503581       -13.7031
  50   2.0000      -0.480192       -13.0667
  51   2.0000      -0.478459       -13.0195
  52   2.0000      -0.474045       -12.8994
  53   2.0000      -0.465279       -12.6609
  54   2.0000      -0.457694       -12.4545
  55   2.0000      -0.454822       -12.3763
  56   2.0000      -0.444899       -12.1063
  57   2.0000      -0.434942       -11.8354
  58   2.0000      -0.429877       -11.6976
  59   2.0000      -0.423755       -11.5310
  60   2.0000      -0.419323       -11.4104
  61   2.0000      -0.409927       -11.1547
  62   2.0000      -0.404761       -11.0141
  63   2.0000      -0.359469        -9.7816
  64   2.0000      -0.339549        -9.2396
  65   2.0000      -0.331699        -9.0260
  66   2.0000      -0.276774        -7.5314
  67   0.0000       0.012686         0.3452
  68   0.0000       0.083799         2.2803
  69   0.0000       0.106441         2.8964
  70   0.0000       0.111221         3.0265
  71   0.0000       0.129664         3.5283

MULLIKEN ATOMIC CHARGES
-----------------------
   0 S :    0.081028
   1 C :   -0.117537
   2 C :   -0.100955
   3 C :   -0.033219
   4 C :   -0.117932
   5 H :    0.020945
   6 C :    0.050958
   7 H :    0.042922
   8 H :    0.030982
   9 C :   -0.067849
  10 H :    0.035286
  11 H :    0.031209
  12 C :   -0.031403
  13 H :    0.028446
  14 H :    0.033864
  15 H :    0.030023
  16 S :    0.111886
  17 C :   -0.068173
  18 C :   -0.064686
  19 C :   -0.065404
  20 C :   -0.129176
  21 H :    0.035802
  22 C :    0.073694
  23 H :    0.061216
  24 H :    0.048981
  25 C :   -0.163303
  26 H :    0.047131
  27 H :    0.040345
  28 C :   -0.050242
  29 H :    0.034752
  30 H :    0.030703
  31 H :    0.043583
  32 H :    0.043522
  33 H :    0.052602
Sum of atomic charges:    0.0000000

LOEWDIN ATOMIC CHARGES
----------------------
   0 S :    0.379718
   1 C :   -0.182518
   2 C :   -0.063167
   3 C :   -0.085457
   4 C :   -0.180898
   5 H :    0.024318
   6 C :   -0.031024
   7 H :    0.036082
   8 H :    0.033482
   9 C :   -0.048097
  10 H :    0.027010
  11 H :    0.032371
  12 C :   -0.069977
  13 H :    0.032325
  14 H :    0.026725
  15 H :    0.023962
  16 S :    0.435844
  17 C :   -0.200004
  18 C :   -0.079461
  19 C :   -0.050689
  20 C :   -0.195972
  21 H :    0.040275
  22 C :   -0.036930
  23 H :    0.041449
  24 H :    0.033338
  25 C :   -0.056726
  26 H :    0.027891
  27 H :    0.026694
  28 C :   -0.072597
  29 H :    0.029764
  30 H :    0.022688
  31 H :    0.028232
  32 H :    0.026081
  33 H :    0.025270

  Mayer bond orders larger than 0.100000
B(  0-S ,  1-C ) :   1.1201 B(  0-S ,  4-C ) :   1.1298 B(  1-C ,  2-C ) :   1.6175
B(  1-C , 32-H ) :   0.9637 B(  2-C ,  3-C ) :   1.2762 B(  2-C ,  6-C ) :   0.9911
B(  3-C ,  4-C ) :   1.5505 B(  3-C ,  5-H ) :   0.9718 B(  4-C , 20-C ) :   1.1336
B(  6-C ,  7-H ) :   0.9497 B(  6-C ,  8-H ) :   0.9449 B(  6-C ,  9-C ) :   1.0482
B(  9-C , 10-H ) :   0.9654 B(  9-C , 11-H ) :   0.9502 B(  9-C , 12-C ) :   1.0875
B( 12-C , 13-H ) :   0.9702 B( 12-C , 14-H ) :   0.9756 B( 12-C , 15-H ) :   0.9755
B( 16-S , 17-C ) :   1.1866 B( 16-S , 20-C ) :   1.1476 B( 17-C , 18-C ) :   1.5601
B( 17-C , 20-C ) :   0.1003 B( 17-C , 33-H ) :   0.9562 B( 18-C , 19-C ) :   1.3158
B( 18-C , 21-H ) :   0.9783 B( 19-C , 20-C ) :   1.5134 B( 19-C , 22-C ) :   1.0040
B( 22-C , 23-H ) :   0.9300 B( 22-C , 24-H ) :   0.9366 B( 22-C , 25-C ) :   1.0944
B( 25-C , 26-H ) :   0.9433 B( 25-C , 27-H ) :   0.9557 B( 25-C , 28-C ) :   1.0709
B( 28-C , 29-H ) :   0.9739 B( 28-C , 30-H ) :   0.9754 B( 28-C , 31-H ) :   0.9761

Dispersion correction           -0.013083680
FINAL SINGLE POINT ENERGY     -1339.874580291823

DIPOLE MOMENT
-------------
                                X             Y             Z
Electronic contribution:     -8.35562      -0.19822      -3.28837
Nuclear contribution   :      8.30697       0.18047       3.22129
                        -----------------------------------------
Total Dipole Moment    :     -0.04864      -0.01775      -0.06709
                        -----------------------------------------
Magnitude (a.u.)       :      0.08475
Magnitude (Debye)      :      0.21541

Rotational constants in cm-1:     0.025577     0.006675     0.005409
Rotational constants in MHz :   766.787705   200.110163   162.160591

                             ****ORCA TERMINATED NORMALLY****
TOTAL RUN TIME: 0 days 0 hours 0 minutes 20 seconds 251 msec
