                         Program Version 4.2.1 -  RELEASE  -
|  1> ! wB97X-D3 SP def2-SVP
|  2> %pal
|  3> nprocs 24
|  4> end
|  5>
|  6> * xyz 0 1
|  7> S 	 -104.229 	 12.1229 	 -6.51351
|  8> C 	 -104.435 	 12.63 	 -4.86822
|  9> C 	 -105.422 	 11.8401 	 -4.22498
| 10> C 	 -105.984 	 10.866 	 -5.11828
| 11> C 	 -105.452 	 10.9304 	 -6.3988
| 12> H 	 -106.752 	 10.1226 	 -4.87125
| 13> C 	 -105.866 	 12.0647 	 -2.79001
| 14> H 	 -105.209 	 12.6577 	 -2.217
| 15> H 	 -106.069 	 11.0817 	 -2.41918
| 16> C 	 -107.276 	 12.6486 	 -2.47619
| 17> H 	 -107.952 	 11.988 	 -2.98078
| 18> H 	 -107.553 	 12.5763 	 -1.38883
| 19> C 	 -107.317 	 14.0599 	 -2.91372
| 20> H 	 -108.338 	 14.5088 	 -2.81183
| 21> H 	 -106.536 	 14.6624 	 -2.45685
| 22> H 	 -107.153 	 14.0945 	 -3.98978
| 23> S 	 -104.745 	 9.52584 	 -8.67817
| 24> C 	 -105.948 	 8.91485 	 -9.74101
| 25> C 	 -107.18 	 9.13579 	 -9.2121
| 26> C 	 -107.17 	 9.78999 	 -7.98937
| 27> C 	 -105.926 	 10.1632 	 -7.56345
| 28> H 	 -108.012 	 8.74769 	 -9.76302
| 29> C 	 -108.48 	 10.1081 	 -7.28071
| 30> H 	 -108.466 	 10.0375 	 -6.20951
| 31> H 	 -109.164 	 9.35816 	 -7.6453
| 32> C 	 -109.07 	 11.4657 	 -7.56447
| 33> H 	 -109.09 	 11.5861 	 -8.6507
| 34> H 	 -108.371 	 12.2186 	 -7.13338
| 35> C 	 -110.508 	 11.6969 	 -7.00913
| 36> H 	 -110.455 	 11.5224 	 -5.97802
| 37> H 	 -111.284 	 11.0478 	 -7.43978
| 38> H 	 -110.966 	 12.6132 	 -7.14837
| 39> H 	 -103.787 	 13.3892 	 -4.48884
| 40> H 	 -105.703 	 8.49969 	 -10.7115
| 41> *
| 42>
| 43>                          ****END OF INPUT****

CARTESIAN COORDINATES (ANGSTROEM)
---------------------------------
  S    -104.229000   12.122900   -6.513510
  C    -104.435000   12.630000   -4.868220
  C    -105.422000   11.840100   -4.224980
  C    -105.984000   10.866000   -5.118280
  C    -105.452000   10.930400   -6.398800
  H    -106.752000   10.122600   -4.871250
  C    -105.866000   12.064700   -2.790010
  H    -105.209000   12.657700   -2.217000
  H    -106.069000   11.081700   -2.419180
  C    -107.276000   12.648600   -2.476190
  H    -107.952000   11.988000   -2.980780
  H    -107.553000   12.576300   -1.388830
  C    -107.317000   14.059900   -2.913720
  H    -108.338000   14.508800   -2.811830
  H    -106.536000   14.662400   -2.456850
  H    -107.153000   14.094500   -3.989780
  S    -104.745000    9.525840   -8.678170
  C    -105.948000    8.914850   -9.741010
  C    -107.180000    9.135790   -9.212100
  C    -107.170000    9.789990   -7.989370
  C    -105.926000   10.163200   -7.563450
  H    -108.012000    8.747690   -9.763020
  C    -108.480000   10.108100   -7.280710
  H    -108.466000   10.037500   -6.209510
  H    -109.164000    9.358160   -7.645300
  C    -109.070000   11.465700   -7.564470
  H    -109.090000   11.586100   -8.650700
  H    -108.371000   12.218600   -7.133380
  C    -110.508000   11.696900   -7.009130
  H    -110.455000   11.522400   -5.978020
  H    -111.284000   11.047800   -7.439780
  H    -110.966000   12.613200   -7.148370
  H    -103.787000   13.389200   -4.488840
  H    -105.703000    8.499690  -10.711500

 Total Charge           Charge          ....    0
 Multiplicity           Mult            ....    1
 Number of Electrons    NEL             ....  134
 Basis Dimension        Dim             ....  322

ORBITAL ENERGIES
----------------

  NO   OCC          E(Eh)            E(eV)
   0   2.0000     -88.968540     -2420.9570
   1   2.0000     -88.962583     -2420.7950
   2   2.0000     -10.331464      -281.1334
   3   2.0000     -10.325789      -280.9790
   4   2.0000     -10.317442      -280.7519
   5   2.0000     -10.313545      -280.6458
   6   2.0000     -10.311605      -280.5930
   7   2.0000     -10.299249      -280.2568
   8   2.0000     -10.298767      -280.2437
   9   2.0000     -10.287445      -279.9356
  10   2.0000     -10.286869      -279.9199
  11   2.0000     -10.285750      -279.8895
  12   2.0000     -10.285723      -279.8887
  13   2.0000     -10.285209      -279.8748
  14   2.0000     -10.272507      -279.5291
  15   2.0000     -10.269713      -279.4531
  16   2.0000      -8.084178      -219.9817
  17   2.0000      -8.078408      -219.8247
  18   2.0000      -6.042513      -164.4251
  19   2.0000      -6.038364      -164.3122
  20   2.0000      -6.036730      -164.2678
  21   2.0000      -6.035273      -164.2281
  22   2.0000      -6.032654      -164.1569
  23   2.0000      -6.029405      -164.0685
  24   2.0000      -1.015730       -27.6394
  25   2.0000      -0.992985       -27.0205
  26   2.0000      -0.918415       -24.9913
  27   2.0000      -0.911721       -24.8092
  28   2.0000      -0.871964       -23.7274
  29   2.0000      -0.855005       -23.2659
  30   2.0000      -0.848881       -23.0992
  31   2.0000      -0.816483       -22.2176
  32   2.0000      -0.787504       -21.4291
  33   2.0000      -0.778217       -21.1764
  34   2.0000      -0.708642       -19.2831
  35   2.0000      -0.696969       -18.9655
  36   2.0000      -0.692703       -18.8494
  37   2.0000      -0.665465       -18.1082
  38   2.0000      -0.645584       -17.5672
  39   2.0000      -0.627736       -17.0816
  40   2.0000      -0.605321       -16.4716
  41   2.0000      -0.572373       -15.5750
  42   2.0000      -0.563799       -15.3417
  43   2.0000      -0.555767       -15.1232
  44   2.0000      -0.545320       -14.8389
  45   2.0000      -0.527907       -14.3651
  46   2.0000      -0.523447       -14.2437
  47   2.0000      -0.514095       -13.9892
  48   2.0000      -0.506278       -13.7765
  49   2.0000      -0.501130       -13.6364
  50   2.0000      -0.492967       -13.4143
  51   2.0000      -0.488091       -13.2816
  52   2.0000      -0.472224       -12.8499
  53   2.0000      -0.470760       -12.8100
  54   2.0000      -0.466614       -12.6972
  55   2.0000      -0.451159       -12.2767
  56   2.0000      -0.450478       -12.2581
  57   2.0000      -0.435150       -11.8410
  58   2.0000      -0.428295       -11.6545
  59   2.0000      -0.421617       -11.4728
  60   2.0000      -0.420181       -11.4337
  61   2.0000      -0.415395       -11.3035
  62   2.0000      -0.408926       -11.1274
  63   2.0000      -0.352124        -9.5818
  64   2.0000      -0.335334        -9.1249
  65   2.0000      -0.330089        -8.9822
  66   2.0000      -0.291874        -7.9423
  67   0.0000       0.027316         0.7433
  68   0.0000       0.077108         2.0982
  69   0.0000       0.113880         3.0988
  70   0.0000       0.119153         3.2423
  71   0.0000       0.123692         3.3658

MULLIKEN ATOMIC CHARGES
-----------------------
   0 S :    0.122075
   1 C :   -0.129203
   2 C :   -0.074231
   3 C :   -0.005846
   4 C :   -0.126867
   5 H :    0.026881
   6 C :    0.092254
   7 H :    0.011699
   8 H :    0.018344
   9 C :   -0.078578
  10 H :    0.010747
  11 H :    0.039286
  12 C :   -0.047281
  13 H :    0.036207
  14 H :    0.026110
  15 H :    0.031544
  16 S :    0.099984
  17 C :   -0.094776
  18 C :   -0.038106
  19 C :   -0.013097
  20 C :   -0.152924
  21 H :    0.010545
  22 C :    0.083596
  23 H :    0.001612
  24 H :    0.007564
  25 C :   -0.076681
  26 H :    0.022111
  27 H :    0.041157
  28 C :   -0.004024
  29 H :    0.012896
  30 H :    0.021543
  31 H :    0.017128
  32 H :    0.049140
  33 H :    0.059188
Sum of atomic charges:   -0.0000000

LOEWDIN ATOMIC CHARGES
----------------------
   0 S :    0.436335
   1 C :   -0.202197
   2 C :   -0.055268
   3 C :   -0.069971
   4 C :   -0.204804
   5 H :    0.034806
   6 C :   -0.025817
   7 H :    0.021423
   8 H :    0.032296
   9 C :   -0.039986
  10 H :    0.015153
  11 H :    0.029782
  12 C :   -0.073137
  13 H :    0.029005
  14 H :    0.023607
  15 H :    0.026923
  16 S :    0.418363
  17 C :   -0.188538
  18 C :   -0.073944
  19 C :   -0.059932
  20 C :   -0.196444
  21 H :    0.031678
  22 C :   -0.027927
  23 H :    0.019738
  24 H :    0.027205
  25 C :   -0.035680
  26 H :    0.020439
  27 H :    0.029863
  28 C :   -0.060916
  29 H :    0.017141
  30 H :    0.027887
  31 H :    0.018639
  32 H :    0.023126
  33 H :    0.031152

  Mayer bond orders larger than 0.100000
B(  0-S ,  1-C ) :   1.1570 B(  0-S ,  4-C ) :   1.1839 B(  1-C ,  2-C ) :   1.5435
B(  1-C ,  4-C ) :   0.1028 B(  1-C , 32-H ) :   0.9808 B(  2-C ,  3-C ) :   1.2556
B(  2-C ,  6-C ) :   1.0440 B(  3-C ,  4-C ) :   1.5408 B(  3-C ,  5-H ) :   0.9924
B(  4-C , 20-C ) :   1.0276 B(  6-C ,  7-H ) :   0.9480 B(  6-C ,  8-H ) :   0.9302
B(  6-C ,  9-C ) :   1.0630 B(  9-C , 10-H ) :   0.9524 B(  9-C , 11-H ) :   0.9549
B(  9-C , 12-C ) :   1.0854 B( 12-C , 13-H ) :   0.9704 B( 12-C , 14-H ) :   0.9721
B( 12-C , 15-H ) :   0.9722 B( 16-S , 17-C ) :   1.1723 B( 16-S , 20-C ) :   1.1542
B( 17-C , 18-C ) :   1.5798 B( 17-C , 20-C ) :   0.1022 B( 17-C , 33-H ) :   0.9692
B( 18-C , 19-C ) :   1.2644 B( 18-C , 21-H ) :   0.9993 B( 19-C , 20-C ) :   1.5827
B( 19-C , 22-C ) :   1.0405 B( 22-C , 23-H ) :   0.9344 B( 22-C , 24-H ) :   0.9253
B( 22-C , 25-C ) :   1.0718 B( 25-C , 26-H ) :   0.9551 B( 25-C , 27-H ) :   0.9544
B( 25-C , 28-C ) :   1.0764 B( 28-C , 29-H ) :   0.9747 B( 28-C , 30-H ) :   0.9725
B( 28-C , 31-H ) :   0.9740

Dispersion correction           -0.014665917
FINAL SINGLE POINT ENERGY     -1339.882059290374

DIPOLE MOMENT
-------------
                                X             Y             Z
Electronic contribution:     24.93936      -9.93476     -16.13161
Nuclear contribution   :    -25.49604       9.96420      16.33757
                        -----------------------------------------
Total Dipole Moment    :     -0.55667       0.02945       0.20596
                        -----------------------------------------
Magnitude (a.u.)       :      0.59428
Magnitude (Debye)      :      1.51054

Rotational constants in cm-1:     0.018490     0.009762     0.007005
Rotational constants in MHz :   554.309363   292.668408   209.994967

                             ****ORCA TERMINATED NORMALLY****
TOTAL RUN TIME: 0 days 0 hours 0 minutes 22 seconds 295 msec
