                         Program Version 4.2.1 -  RELEASE  -
|  1> ! wB97X-D3 SP def2-SVP
|  2> %pal
|  3> nprocs 24
|  4> end
|  5>
|  6> * xyz 0 1
|  7> S 	 -104.412 	 63.0507 	 -98.5902
|  8> C 	 -105.896 	 63.1555 	 -99.4834
|  9> C 	 -106.974 	 63.1472 	 -98.6294
| 10> C 	 -106.54 	 63.3577 	 -97.2692
| 11> C 	 -105.196 	 63.3197 	 -97.0464
| 12> H 	 -107.142 	 63.4804 	 -96.4294
| 13> C 	 -108.399 	 63.263 	 -99.0263
| 14> H 	 -108.552 	 64.332 	 -99.1781
| 15> H 	 -108.937 	 63.0424 	 -98.1913
| 16> C 	 -108.804 	 62.3459 	 -100.201
| 17> H 	 -109.742 	 62.6699 	 -100.704
| 18> H 	 -108.101 	 62.4821 	 -100.961
| 19> C 	 -108.891 	 60.8934 	 -99.8913
| 20> H 	 -107.944 	 60.4508 	 -99.6471
| 21> H 	 -109.571 	 60.7026 	 -99.0177
| 22> H 	 -109.338 	 60.3689 	 -100.802
| 23> S 	 -103.197 	 62.3682 	 -95.6834
| 24> C 	 -102.813 	 62.8789 	 -94.0533
| 25> C 	 -103.838 	 63.681 	 -93.5178
| 26> C 	 -104.791 	 63.9789 	 -94.473
| 27> C 	 -104.535 	 63.4291 	 -95.7137
| 28> H 	 -103.696 	 64.0093 	 -92.4608
| 29> C 	 -105.944 	 64.9799 	 -94.1866
| 30> H 	 -106.531 	 65.1133 	 -95.1252
| 31> H 	 -105.451 	 65.9056 	 -94.0491
| 32> C 	 -106.899 	 64.7347 	 -92.9633
| 33> H 	 -107.32 	 65.6368 	 -92.5522
| 34> H 	 -106.285 	 64.4391 	 -92.0762
| 35> C 	 -107.92 	 63.5843 	 -93.2882
| 36> H 	 -107.407 	 62.8597 	 -93.9269
| 37> H 	 -108.663 	 63.9403 	 -93.9881
| 38> H 	 -108.234 	 63.1466 	 -92.2981
| 39> H 	 -105.971 	 63.2486 	 -100.546
| 40> H 	 -101.92 	 62.5752 	 -93.558
| 41> *
| 42>
| 43>                          ****END OF INPUT****

CARTESIAN COORDINATES (ANGSTROEM)
---------------------------------
  S    -104.412000   63.050700  -98.590200
  C    -105.896000   63.155500  -99.483400
  C    -106.974000   63.147200  -98.629400
  C    -106.540000   63.357700  -97.269200
  C    -105.196000   63.319700  -97.046400
  H    -107.142000   63.480400  -96.429400
  C    -108.399000   63.263000  -99.026300
  H    -108.552000   64.332000  -99.178100
  H    -108.937000   63.042400  -98.191300
  C    -108.804000   62.345900  -100.201000
  H    -109.742000   62.669900  -100.704000
  H    -108.101000   62.482100  -100.961000
  C    -108.891000   60.893400  -99.891300
  H    -107.944000   60.450800  -99.647100
  H    -109.571000   60.702600  -99.017700
  H    -109.338000   60.368900  -100.802000
  S    -103.197000   62.368200  -95.683400
  C    -102.813000   62.878900  -94.053300
  C    -103.838000   63.681000  -93.517800
  C    -104.791000   63.978900  -94.473000
  C    -104.535000   63.429100  -95.713700
  H    -103.696000   64.009300  -92.460800
  C    -105.944000   64.979900  -94.186600
  H    -106.531000   65.113300  -95.125200
  H    -105.451000   65.905600  -94.049100
  C    -106.899000   64.734700  -92.963300
  H    -107.320000   65.636800  -92.552200
  H    -106.285000   64.439100  -92.076200
  C    -107.920000   63.584300  -93.288200
  H    -107.407000   62.859700  -93.926900
  H    -108.663000   63.940300  -93.988100
  H    -108.234000   63.146600  -92.298100
  H    -105.971000   63.248600  -100.546000
  H    -101.920000   62.575200  -93.558000

 Total Charge           Charge          ....    0
 Multiplicity           Mult            ....    1
 Number of Electrons    NEL             ....  134
 Basis Dimension        Dim             ....  322

ORBITAL ENERGIES
----------------

  NO   OCC          E(Eh)            E(eV)
   0   2.0000     -88.965077     -2420.8628
   1   2.0000     -88.964830     -2420.8561
   2   2.0000     -10.330061      -281.0953
   3   2.0000     -10.327604      -281.0284
   4   2.0000     -10.315831      -280.7080
   5   2.0000     -10.310986      -280.5762
   6   2.0000     -10.305279      -280.4209
   7   2.0000     -10.298825      -280.2453
   8   2.0000     -10.298323      -280.2316
   9   2.0000     -10.294461      -280.1265
  10   2.0000     -10.293740      -280.1069
  11   2.0000     -10.285218      -279.8750
  12   2.0000     -10.284320      -279.8506
  13   2.0000     -10.283233      -279.8210
  14   2.0000     -10.282927      -279.8127
  15   2.0000     -10.280460      -279.7455
  16   2.0000      -8.080605      -219.8845
  17   2.0000      -8.079877      -219.8646
  18   2.0000      -6.038845      -164.3253
  19   2.0000      -6.038591      -164.3184
  20   2.0000      -6.034918      -164.2185
  21   2.0000      -6.034331      -164.2025
  22   2.0000      -6.031643      -164.1293
  23   2.0000      -6.030443      -164.0967
  24   2.0000      -1.013832       -27.5878
  25   2.0000      -0.990750       -26.9597
  26   2.0000      -0.919361       -25.0171
  27   2.0000      -0.901755       -24.5380
  28   2.0000      -0.871085       -23.7034
  29   2.0000      -0.853233       -23.2176
  30   2.0000      -0.848060       -23.0769
  31   2.0000      -0.816231       -22.2108
  32   2.0000      -0.781063       -21.2538
  33   2.0000      -0.774460       -21.0741
  34   2.0000      -0.711552       -19.3623
  35   2.0000      -0.707201       -19.2439
  36   2.0000      -0.691868       -18.8267
  37   2.0000      -0.666791       -18.1443
  38   2.0000      -0.644368       -17.5341
  39   2.0000      -0.613745       -16.7009
  40   2.0000      -0.592958       -16.1352
  41   2.0000      -0.579255       -15.7623
  42   2.0000      -0.559849       -15.2343
  43   2.0000      -0.552300       -15.0288
  44   2.0000      -0.542122       -14.7519
  45   2.0000      -0.530260       -14.4291
  46   2.0000      -0.522055       -14.2058
  47   2.0000      -0.517308       -14.0767
  48   2.0000      -0.505299       -13.7499
  49   2.0000      -0.499589       -13.5945
  50   2.0000      -0.493590       -13.4313
  51   2.0000      -0.479576       -13.0499
  52   2.0000      -0.473985       -12.8978
  53   2.0000      -0.469737       -12.7822
  54   2.0000      -0.457151       -12.4397
  55   2.0000      -0.447875       -12.1873
  56   2.0000      -0.442722       -12.0471
  57   2.0000      -0.439270       -11.9532
  58   2.0000      -0.426600       -11.6084
  59   2.0000      -0.425393       -11.5755
  60   2.0000      -0.423869       -11.5341
  61   2.0000      -0.415410       -11.3039
  62   2.0000      -0.412834       -11.2338
  63   2.0000      -0.355534        -9.6746
  64   2.0000      -0.336005        -9.1432
  65   2.0000      -0.325779        -8.8649
  66   2.0000      -0.286639        -7.7998
  67   0.0000       0.027254         0.7416
  68   0.0000       0.075119         2.0441
  69   0.0000       0.101939         2.7739
  70   0.0000       0.122388         3.3304
  71   0.0000       0.133148         3.6232

MULLIKEN ATOMIC CHARGES
-----------------------
   0 S :    0.110134
   1 C :   -0.127477
   2 C :   -0.101416
   3 C :    0.020557
   4 C :   -0.099800
   5 H :   -0.041717
   6 C :    0.123362
   7 H :    0.045330
   8 H :   -0.011891
   9 C :   -0.046801
  10 H :    0.025435
  11 H :    0.000465
  12 C :   -0.069510
  13 H :    0.040633
  14 H :    0.033113
  15 H :    0.045172
  16 S :    0.095315
  17 C :   -0.096581
  18 C :   -0.061582
  19 C :   -0.026867
  20 C :   -0.134501
  21 H :    0.042117
  22 C :    0.041719
  23 H :    0.022794
  24 H :    0.026924
  25 C :   -0.072974
  26 H :    0.026435
  27 H :    0.022073
  28 C :   -0.058393
  29 H :    0.042115
  30 H :    0.033523
  31 H :    0.055481
  32 H :    0.049929
  33 H :    0.046884
Sum of atomic charges:    0.0000000

LOEWDIN ATOMIC CHARGES
----------------------
   0 S :    0.401996
   1 C :   -0.197589
   2 C :   -0.059741
   3 C :   -0.065549
   4 C :   -0.194855
   5 H :    0.013473
   6 C :   -0.025078
   7 H :    0.042217
   8 H :    0.014752
   9 C :   -0.041500
  10 H :    0.028484
  11 H :    0.012720
  12 C :   -0.066037
  13 H :    0.022766
  14 H :    0.027643
  15 H :    0.037139
  16 S :    0.429227
  17 C :   -0.180967
  18 C :   -0.072886
  19 C :   -0.068716
  20 C :   -0.196030
  21 H :    0.044276
  22 C :   -0.029634
  23 H :    0.029768
  24 H :    0.027820
  25 C :   -0.042825
  26 H :    0.021242
  27 H :    0.024291
  28 C :   -0.069324
  29 H :    0.027299
  30 H :    0.023026
  31 H :    0.036928
  32 H :    0.026004
  33 H :    0.019660

  Mayer bond orders larger than 0.100000
B(  0-S ,  1-C ) :   1.1349 B(  0-S ,  4-C ) :   1.1366 B(  1-C ,  2-C ) :   1.5966
B(  1-C , 32-H ) :   0.9731 B(  2-C ,  3-C ) :   1.2246 B(  2-C ,  6-C ) :   1.0201
B(  3-C ,  4-C ) :   1.5953 B(  3-C ,  5-H ) :   1.0029 B(  4-C , 20-C ) :   1.0160
B(  6-C ,  7-H ) :   0.9335 B(  6-C ,  8-H ) :   0.9339 B(  6-C ,  9-C ) :   1.0656
B(  9-C , 10-H ) :   0.9538 B(  9-C , 11-H ) :   0.9524 B(  9-C , 12-C ) :   1.0864
B( 12-C , 13-H ) :   0.9742 B( 12-C , 14-H ) :   0.9739 B( 12-C , 15-H ) :   0.9713
B( 16-S , 17-C ) :   1.1743 B( 16-S , 20-C ) :   1.1689 B( 17-C , 18-C ) :   1.5768
B( 17-C , 20-C ) :   0.1123 B( 17-C , 33-H ) :   0.9748 B( 18-C , 19-C ) :   1.2597
B( 18-C , 21-H ) :   0.9894 B( 19-C , 20-C ) :   1.5787 B( 19-C , 22-C ) :   1.0148
B( 22-C , 23-H ) :   0.9468 B( 22-C , 24-H ) :   0.9352 B( 22-C , 25-C ) :   1.0657
B( 25-C , 26-H ) :   0.9582 B( 25-C , 27-H ) :   0.9583 B( 25-C , 28-C ) :   1.0553
B( 28-C , 29-H ) :   0.9758 B( 28-C , 30-H ) :   0.9751 B( 28-C , 31-H ) :   0.9737

Dispersion correction           -0.014413978
FINAL SINGLE POINT ENERGY     -1339.861314864246

DIPOLE MOMENT
-------------
                                X             Y             Z
Electronic contribution:     26.15699      -1.00412      -2.83821
Nuclear contribution   :    -26.66139       1.26836       3.06212
                        -----------------------------------------
Total Dipole Moment    :     -0.50440       0.26424       0.22391
                        -----------------------------------------
Magnitude (a.u.)       :      0.61187
Magnitude (Debye)      :      1.55524

Rotational constants in cm-1:     0.019841     0.008615     0.006616
Rotational constants in MHz :   594.815155   258.266765   198.349675

                             ****ORCA TERMINATED NORMALLY****
TOTAL RUN TIME: 0 days 0 hours 0 minutes 21 seconds 916 msec
