                         Program Version 4.2.1 -  RELEASE  -
|  1> ! wB97X-D3 SP def2-SVP
|  2> %pal
|  3> nprocs 24
|  4> end
|  5>
|  6> * xyz 0 1
|  7> S 	 -86.4438 	 -33.4906 	 -72.8488
|  8> C 	 -84.7771 	 -33.3705 	 -73.2453
|  9> C 	 -84.4039 	 -32.134 	 -73.6706
| 10> C 	 -85.5172 	 -31.3024 	 -73.8517
| 11> C 	 -86.7235 	 -31.9655 	 -73.5717
| 12> H 	 -85.5134 	 -30.2817 	 -74.0689
| 13> C 	 -82.9536 	 -31.759 	 -74.0499
| 14> H 	 -82.2342 	 -32.2977 	 -73.3562
| 15> H 	 -82.9249 	 -30.687 	 -73.8596
| 16> C 	 -82.6024 	 -31.9944 	 -75.5111
| 17> H 	 -81.545 	 -32.1323 	 -75.5251
| 18> H 	 -82.8749 	 -33.0162 	 -75.7081
| 19> C 	 -83.0405 	 -30.9848 	 -76.4973
| 20> H 	 -82.6302 	 -29.9781 	 -76.2366
| 21> H 	 -82.6437 	 -31.1818 	 -77.4523
| 22> H 	 -84.0967 	 -30.8678 	 -76.5268
| 23> S 	 -88.9387 	 -31.1619 	 -72.2014
| 24> C 	 -90.1994 	 -30.3207 	 -72.9262
| 25> C 	 -90.0501 	 -30.2796 	 -74.2977
| 26> C 	 -88.75 	 -30.7694 	 -74.7289
| 27> C 	 -88.0626 	 -31.3494 	 -73.7094
| 28> H 	 -90.7627 	 -29.7834 	 -74.9293
| 29> C 	 -88.2282 	 -30.6089 	 -76.1349
| 30> H 	 -87.195 	 -30.5791 	 -76.05
| 31> H 	 -88.5408 	 -29.5739 	 -76.4245
| 32> C 	 -88.6892 	 -31.7064 	 -77.1865
| 33> H 	 -89.6913 	 -31.3536 	 -77.5467
| 34> H 	 -88.7178 	 -32.7238 	 -76.7157
| 35> C 	 -87.8748 	 -32.0546 	 -78.4181
| 36> H 	 -88.3707 	 -32.8034 	 -79.1253
| 37> H 	 -87.0279 	 -32.6424 	 -78.1174
| 38> H 	 -87.5824 	 -31.3139 	 -79.0263
| 39> H 	 -84.0412 	 -34.2159 	 -73.2227
| 40> H 	 -90.9669 	 -29.8401 	 -72.3102
| 41> *
| 42>
| 43>                          ****END OF INPUT****

CARTESIAN COORDINATES (ANGSTROEM)
---------------------------------
  S    -86.443800  -33.490600  -72.848800
  C    -84.777100  -33.370500  -73.245300
  C    -84.403900  -32.134000  -73.670600
  C    -85.517200  -31.302400  -73.851700
  C    -86.723500  -31.965500  -73.571700
  H    -85.513400  -30.281700  -74.068900
  C    -82.953600  -31.759000  -74.049900
  H    -82.234200  -32.297700  -73.356200
  H    -82.924900  -30.687000  -73.859600
  C    -82.602400  -31.994400  -75.511100
  H    -81.545000  -32.132300  -75.525100
  H    -82.874900  -33.016200  -75.708100
  C    -83.040500  -30.984800  -76.497300
  H    -82.630200  -29.978100  -76.236600
  H    -82.643700  -31.181800  -77.452300
  H    -84.096700  -30.867800  -76.526800
  S    -88.938700  -31.161900  -72.201400
  C    -90.199400  -30.320700  -72.926200
  C    -90.050100  -30.279600  -74.297700
  C    -88.750000  -30.769400  -74.728900
  C    -88.062600  -31.349400  -73.709400
  H    -90.762700  -29.783400  -74.929300
  C    -88.228200  -30.608900  -76.134900
  H    -87.195000  -30.579100  -76.050000
  H    -88.540800  -29.573900  -76.424500
  C    -88.689200  -31.706400  -77.186500
  H    -89.691300  -31.353600  -77.546700
  H    -88.717800  -32.723800  -76.715700
  C    -87.874800  -32.054600  -78.418100
  H    -88.370700  -32.803400  -79.125300
  H    -87.027900  -32.642400  -78.117400
  H    -87.582400  -31.313900  -79.026300
  H    -84.041200  -34.215900  -73.222700
  H    -90.966900  -29.840100  -72.310200

 Total Charge           Charge          ....    0
 Multiplicity           Mult            ....    1
 Number of Electrons    NEL             ....  134
 Basis Dimension        Dim             ....  322

ORBITAL ENERGIES
----------------

  NO   OCC          E(Eh)            E(eV)
   0   2.0000     -88.969707     -2420.9888
   1   2.0000     -88.958022     -2420.6709
   2   2.0000     -10.327827      -281.0345
   3   2.0000     -10.321627      -280.8657
   4   2.0000     -10.313582      -280.6468
   5   2.0000     -10.308309      -280.5033
   6   2.0000     -10.301860      -280.3279
   7   2.0000     -10.296131      -280.1720
   8   2.0000     -10.293705      -280.1059
   9   2.0000     -10.293110      -280.0898
  10   2.0000     -10.292412      -280.0708
  11   2.0000     -10.291677      -280.0508
  12   2.0000     -10.287867      -279.9471
  13   2.0000     -10.277749      -279.6718
  14   2.0000     -10.273851      -279.5657
  15   2.0000     -10.269385      -279.4442
  16   2.0000      -8.085481      -220.0171
  17   2.0000      -8.074708      -219.7240
  18   2.0000      -6.043756      -164.4590
  19   2.0000      -6.039931      -164.3549
  20   2.0000      -6.036344      -164.2573
  21   2.0000      -6.033070      -164.1682
  22   2.0000      -6.028855      -164.0535
  23   2.0000      -6.025587      -163.9646
  24   2.0000      -1.014069       -27.5942
  25   2.0000      -0.993329       -27.0299
  26   2.0000      -0.917556       -24.9680
  27   2.0000      -0.903090       -24.5743
  28   2.0000      -0.869558       -23.6619
  29   2.0000      -0.857752       -23.3406
  30   2.0000      -0.849911       -23.1272
  31   2.0000      -0.812987       -22.1225
  32   2.0000      -0.788142       -21.4464
  33   2.0000      -0.776806       -21.1380
  34   2.0000      -0.706763       -19.2320
  35   2.0000      -0.700725       -19.0677
  36   2.0000      -0.691351       -18.8126
  37   2.0000      -0.663559       -18.0564
  38   2.0000      -0.641524       -17.4568
  39   2.0000      -0.613485       -16.6938
  40   2.0000      -0.593686       -16.1550
  41   2.0000      -0.572573       -15.5805
  42   2.0000      -0.566262       -15.4088
  43   2.0000      -0.559797       -15.2329
  44   2.0000      -0.540692       -14.7130
  45   2.0000      -0.526067       -14.3150
  46   2.0000      -0.512886       -13.9563
  47   2.0000      -0.510623       -13.8948
  48   2.0000      -0.505996       -13.7688
  49   2.0000      -0.500867       -13.6293
  50   2.0000      -0.491183       -13.3658
  51   2.0000      -0.482153       -13.1201
  52   2.0000      -0.478360       -13.0168
  53   2.0000      -0.466316       -12.6891
  54   2.0000      -0.461093       -12.5470
  55   2.0000      -0.453263       -12.3339
  56   2.0000      -0.448459       -12.2032
  57   2.0000      -0.438208       -11.9242
  58   2.0000      -0.434956       -11.8358
  59   2.0000      -0.429577       -11.6894
  60   2.0000      -0.414381       -11.2759
  61   2.0000      -0.408420       -11.1137
  62   2.0000      -0.406997       -11.0749
  63   2.0000      -0.343376        -9.3437
  64   2.0000      -0.335267        -9.1231
  65   2.0000      -0.326869        -8.8946
  66   2.0000      -0.292386        -7.9562
  67   0.0000       0.040159         1.0928
  68   0.0000       0.065933         1.7941
  69   0.0000       0.115248         3.1361
  70   0.0000       0.121379         3.3029
  71   0.0000       0.133709         3.6384

MULLIKEN ATOMIC CHARGES
-----------------------
   0 S :    0.141844
   1 C :   -0.145960
   2 C :   -0.075381
   3 C :    0.040005
   4 C :   -0.166058
   5 H :   -0.005084
   6 C :    0.037739
   7 H :    0.038535
   8 H :    0.016206
   9 C :   -0.017350
  10 H :    0.009182
  11 H :    0.003681
  12 C :   -0.000933
  13 H :    0.020893
  14 H :    0.025374
  15 H :    0.030007
  16 S :    0.098985
  17 C :   -0.099755
  18 C :   -0.020028
  19 C :   -0.084080
  20 C :   -0.157117
  21 H :    0.010540
  22 C :    0.132163
  23 H :   -0.014119
  24 H :    0.028424
  25 C :   -0.088557
  26 H :    0.035047
  27 H :    0.046776
  28 C :   -0.027497
  29 H :    0.032198
  30 H :    0.023647
  31 H :    0.005345
  32 H :    0.055565
  33 H :    0.069761
Sum of atomic charges:   -0.0000000

LOEWDIN ATOMIC CHARGES
----------------------
   0 S :    0.442456
   1 C :   -0.218543
   2 C :   -0.069054
   3 C :   -0.060202
   4 C :   -0.207558
   5 H :    0.021355
   6 C :   -0.026448
   7 H :    0.038115
   8 H :    0.026809
   9 C :   -0.045217
  10 H :    0.022438
  11 H :    0.021496
  12 C :   -0.055803
  13 H :    0.030392
  14 H :    0.024329
  15 H :    0.021294
  16 S :    0.422666
  17 C :   -0.203019
  18 C :   -0.074043
  19 C :   -0.055672
  20 C :   -0.199092
  21 H :    0.026834
  22 C :   -0.026286
  23 H :    0.016001
  24 H :    0.036556
  25 C :   -0.042146
  26 H :    0.026158
  27 H :    0.037349
  28 C :   -0.065988
  29 H :    0.039169
  30 H :    0.023968
  31 H :    0.001971
  32 H :    0.035751
  33 H :    0.033961

  Mayer bond orders larger than 0.100000
B(  0-S ,  1-C ) :   1.1489 B(  0-S ,  4-C ) :   1.1863 B(  1-C ,  2-C ) :   1.6074
B(  1-C ,  4-C ) :   0.1005 B(  1-C , 32-H ) :   0.9583 B(  2-C ,  3-C ) :   1.2663
B(  2-C ,  6-C ) :   1.0198 B(  3-C ,  4-C ) :   1.5350 B(  3-C ,  5-H ) :   1.0034
B(  4-C , 20-C ) :   0.9989 B(  6-C ,  7-H ) :   0.9414 B(  6-C ,  8-H ) :   0.9393
B(  6-C ,  9-C ) :   1.0708 B(  9-C , 10-H ) :   0.9464 B(  9-C , 11-H ) :   0.9442
B(  9-C , 12-C ) :   1.0901 B( 12-C , 13-H ) :   0.9671 B( 12-C , 14-H ) :   0.9669
B( 12-C , 15-H ) :   0.9740 B( 16-S , 17-C ) :   1.1828 B( 16-S , 20-C ) :   1.1432
B( 17-C , 18-C ) :   1.5871 B( 17-C , 33-H ) :   0.9679 B( 18-C , 19-C ) :   1.2260
B( 18-C , 21-H ) :   0.9968 B( 19-C , 20-C ) :   1.6414 B( 19-C , 22-C ) :   1.0488
B( 22-C , 23-H ) :   0.9286 B( 22-C , 24-H ) :   0.9298 B( 22-C , 25-C ) :   1.0413
B( 25-C , 26-H ) :   0.9586 B( 25-C , 27-H ) :   0.9638 B( 25-C , 28-C ) :   1.0872
B( 28-C , 29-H ) :   0.9698 B( 28-C , 30-H ) :   0.9742 B( 28-C , 31-H ) :   0.9757

Dispersion correction           -0.014501945
FINAL SINGLE POINT ENERGY     -1339.863089115197

DIPOLE MOMENT
-------------
                                X             Y             Z
Electronic contribution:    -13.92989      -4.50938      26.19288
Nuclear contribution   :     14.29779       4.78911     -26.68696
                        -----------------------------------------
Total Dipole Moment    :      0.36790       0.27973      -0.49408
                        -----------------------------------------
Magnitude (a.u.)       :      0.67654
Magnitude (Debye)      :      1.71964

Rotational constants in cm-1:     0.017031     0.009863     0.007288
Rotational constants in MHz :   510.571454   295.674919   218.487074

                             ****ORCA TERMINATED NORMALLY****
TOTAL RUN TIME: 0 days 0 hours 0 minutes 22 seconds 290 msec
