                         Program Version 4.2.1 -  RELEASE  -
|  1> ! wB97X-D3 SP def2-SVP
|  2> %pal
|  3> nprocs 24
|  4> end
|  5>
|  6> * xyz 0 1
|  7> S 	 -125.624 	 63.9669 	 -43.3858
|  8> C 	 -124.61 	 63.3677 	 -44.6512
|  9> C 	 -123.322 	 63.8105 	 -44.5661
| 10> C 	 -123.083 	 64.4967 	 -43.335
| 11> C 	 -124.29 	 64.7588 	 -42.6425
| 12> H 	 -122.133 	 64.7691 	 -42.9284
| 13> C 	 -122.164 	 63.5293 	 -45.5332
| 14> H 	 -122.337 	 62.5355 	 -45.9347
| 15> H 	 -121.258 	 63.3799 	 -44.9044
| 16> C 	 -121.984 	 64.5483 	 -46.6798
| 17> H 	 -121.354 	 63.9495 	 -47.3827
| 18> H 	 -122.954 	 64.7223 	 -47.1466
| 19> C 	 -121.465 	 65.8904 	 -46.1537
| 20> H 	 -121.507 	 66.622 	 -46.9809
| 21> H 	 -122 	 66.2532 	 -45.3066
| 22> H 	 -120.409 	 65.7042 	 -45.897
| 23> S 	 -125.186 	 64.3458 	 -40.2011
| 24> C 	 -125.315 	 65.668 	 -39.0331
| 25> C 	 -124.783 	 66.8108 	 -39.5824
| 26> C 	 -124.187 	 66.5603 	 -40.8442
| 27> C 	 -124.517 	 65.3796 	 -41.3582
| 28> H 	 -124.797 	 67.6253 	 -38.9164
| 29> C 	 -123.36 	 67.6544 	 -41.5581
| 30> H 	 -123.128 	 67.3324 	 -42.5582
| 31> H 	 -122.385 	 67.7577 	 -41.0826
| 32> C 	 -123.963 	 69.1616 	 -41.692
| 33> H 	 -123.907 	 69.7351 	 -40.7287
| 34> H 	 -125.013 	 69.0604 	 -41.9349
| 35> C 	 -123.27 	 70.0743 	 -42.7137
| 36> H 	 -123.149 	 69.6924 	 -43.6732
| 37> H 	 -122.334 	 70.42 	 -42.2838
| 38> H 	 -123.858 	 70.9685 	 -42.9433
| 39> H 	 -124.852 	 63.0577 	 -45.6317
| 40> H 	 -125.781 	 65.5451 	 -38.0753
| 41> *
| 42>
| 43>                          ****END OF INPUT****

CARTESIAN COORDINATES (ANGSTROEM)
---------------------------------
  S    -125.624000   63.966900  -43.385800
  C    -124.610000   63.367700  -44.651200
  C    -123.322000   63.810500  -44.566100
  C    -123.083000   64.496700  -43.335000
  C    -124.290000   64.758800  -42.642500
  H    -122.133000   64.769100  -42.928400
  C    -122.164000   63.529300  -45.533200
  H    -122.337000   62.535500  -45.934700
  H    -121.258000   63.379900  -44.904400
  C    -121.984000   64.548300  -46.679800
  H    -121.354000   63.949500  -47.382700
  H    -122.954000   64.722300  -47.146600
  C    -121.465000   65.890400  -46.153700
  H    -121.507000   66.622000  -46.980900
  H    -122.000000   66.253200  -45.306600
  H    -120.409000   65.704200  -45.897000
  S    -125.186000   64.345800  -40.201100
  C    -125.315000   65.668000  -39.033100
  C    -124.783000   66.810800  -39.582400
  C    -124.187000   66.560300  -40.844200
  C    -124.517000   65.379600  -41.358200
  H    -124.797000   67.625300  -38.916400
  C    -123.360000   67.654400  -41.558100
  H    -123.128000   67.332400  -42.558200
  H    -122.385000   67.757700  -41.082600
  C    -123.963000   69.161600  -41.692000
  H    -123.907000   69.735100  -40.728700
  H    -125.013000   69.060400  -41.934900
  C    -123.270000   70.074300  -42.713700
  H    -123.149000   69.692400  -43.673200
  H    -122.334000   70.420000  -42.283800
  H    -123.858000   70.968500  -42.943300
  H    -124.852000   63.057700  -45.631700
  H    -125.781000   65.545100  -38.075300

 Total Charge           Charge          ....    0
 Multiplicity           Mult            ....    1
 Number of Electrons    NEL             ....  134
 Basis Dimension        Dim             ....  322

ORBITAL ENERGIES
----------------

  NO   OCC          E(Eh)            E(eV)
   0   2.0000     -88.969971     -2420.9960
   1   2.0000     -88.958938     -2420.6958
   2   2.0000     -10.328739      -281.0593
   3   2.0000     -10.315030      -280.6862
   4   2.0000     -10.313616      -280.6478
   5   2.0000     -10.303393      -280.3696
   6   2.0000     -10.299372      -280.2602
   7   2.0000     -10.296881      -280.1924
   8   2.0000     -10.294354      -280.1236
   9   2.0000     -10.294309      -280.1224
  10   2.0000     -10.293726      -280.1065
  11   2.0000     -10.292586      -280.0755
  12   2.0000     -10.292106      -280.0624
  13   2.0000     -10.289377      -279.9882
  14   2.0000     -10.279638      -279.7232
  15   2.0000     -10.272936      -279.5408
  16   2.0000      -8.085212      -220.0098
  17   2.0000      -8.075116      -219.7351
  18   2.0000      -6.043679      -164.4569
  19   2.0000      -6.039545      -164.3444
  20   2.0000      -6.036068      -164.2498
  21   2.0000      -6.033590      -164.1823
  22   2.0000      -6.029403      -164.0684
  23   2.0000      -6.025808      -163.9706
  24   2.0000      -1.019254       -27.7353
  25   2.0000      -0.990995       -26.9664
  26   2.0000      -0.913054       -24.8455
  27   2.0000      -0.893695       -24.3187
  28   2.0000      -0.875158       -23.8143
  29   2.0000      -0.852588       -23.2001
  30   2.0000      -0.846118       -23.0240
  31   2.0000      -0.816535       -22.2190
  32   2.0000      -0.784107       -21.3366
  33   2.0000      -0.774807       -21.0836
  34   2.0000      -0.707126       -19.2419
  35   2.0000      -0.702153       -19.1065
  36   2.0000      -0.697720       -18.9859
  37   2.0000      -0.665801       -18.1174
  38   2.0000      -0.637232       -17.3400
  39   2.0000      -0.615498       -16.7485
  40   2.0000      -0.594868       -16.1872
  41   2.0000      -0.578288       -15.7360
  42   2.0000      -0.562583       -15.3087
  43   2.0000      -0.548968       -14.9382
  44   2.0000      -0.547124       -14.8880
  45   2.0000      -0.525432       -14.2977
  46   2.0000      -0.515781       -14.0351
  47   2.0000      -0.510640       -13.8952
  48   2.0000      -0.501237       -13.6394
  49   2.0000      -0.497841       -13.5469
  50   2.0000      -0.489514       -13.3204
  51   2.0000      -0.478960       -13.0332
  52   2.0000      -0.476974       -12.9791
  53   2.0000      -0.469708       -12.7814
  54   2.0000      -0.460839       -12.5401
  55   2.0000      -0.445255       -12.1160
  56   2.0000      -0.443439       -12.0666
  57   2.0000      -0.436365       -11.8741
  58   2.0000      -0.428481       -11.6596
  59   2.0000      -0.423976       -11.5370
  60   2.0000      -0.421115       -11.4591
  61   2.0000      -0.417268       -11.3545
  62   2.0000      -0.414611       -11.2821
  63   2.0000      -0.347506        -9.4561
  64   2.0000      -0.334611        -9.1052
  65   2.0000      -0.325683        -8.8623
  66   2.0000      -0.295997        -8.0545
  67   0.0000       0.035281         0.9601
  68   0.0000       0.070542         1.9195
  69   0.0000       0.117045         3.1850
  70   0.0000       0.121690         3.3114
  71   0.0000       0.127718         3.4754

MULLIKEN ATOMIC CHARGES
-----------------------
   0 S :    0.130870
   1 C :   -0.064973
   2 C :   -0.143899
   3 C :    0.055680
   4 C :   -0.183513
   5 H :    0.005025
   6 C :    0.032982
   7 H :    0.019456
   8 H :    0.028916
   9 C :   -0.059615
  10 H :    0.041387
  11 H :    0.026011
  12 C :   -0.042313
  13 H :    0.039616
  14 H :    0.043081
  15 H :    0.029683
  16 S :    0.104015
  17 C :   -0.106295
  18 C :   -0.011681
  19 C :   -0.016506
  20 C :   -0.145846
  21 H :    0.004712
  22 C :    0.081146
  23 H :    0.007943
  24 H :    0.031910
  25 C :   -0.105618
  26 H :    0.036898
  27 H :    0.034957
  28 C :   -0.030000
  29 H :    0.016794
  30 H :    0.030496
  31 H :    0.027809
  32 H :    0.027363
  33 H :    0.053507
Sum of atomic charges:    0.0000000

LOEWDIN ATOMIC CHARGES
----------------------
   0 S :    0.440030
   1 C :   -0.213165
   2 C :   -0.062163
   3 C :   -0.060654
   4 C :   -0.200019
   5 H :    0.025435
   6 C :   -0.035144
   7 H :    0.027423
   8 H :    0.033007
   9 C :   -0.040255
  10 H :    0.030906
  11 H :    0.022163
  12 C :   -0.062463
  13 H :    0.029282
  14 H :    0.022939
  15 H :    0.028104
  16 S :    0.416411
  17 C :   -0.172554
  18 C :   -0.061435
  19 C :   -0.062542
  20 C :   -0.220515
  21 H :    0.027746
  22 C :   -0.027400
  23 H :    0.021959
  24 H :    0.031092
  25 C :   -0.041263
  26 H :    0.026915
  27 H :    0.021140
  28 C :   -0.064166
  29 H :    0.014463
  30 H :    0.025373
  31 H :    0.031884
  32 H :    0.022776
  33 H :    0.024688

  Mayer bond orders larger than 0.100000
B(  0-S ,  1-C ) :   1.1345 B(  0-S ,  4-C ) :   1.1830 B(  1-C ,  2-C ) :   1.6467
B(  1-C , 32-H ) :   0.9519 B(  2-C ,  3-C ) :   1.2419 B(  2-C ,  6-C ) :   1.0092
B(  3-C ,  4-C ) :   1.5447 B(  3-C ,  5-H ) :   0.9956 B(  4-C , 20-C ) :   0.9995
B(  6-C ,  7-H ) :   0.9428 B(  6-C ,  8-H ) :   0.9464 B(  6-C ,  9-C ) :   1.0580
B(  9-C , 10-H ) :   0.9588 B(  9-C , 11-H ) :   0.9565 B(  9-C , 12-C ) :   1.0664
B( 12-C , 13-H ) :   0.9743 B( 12-C , 14-H ) :   0.9749 B( 12-C , 15-H ) :   0.9756
B( 16-S , 17-C ) :   1.1422 B( 16-S , 20-C ) :   1.1584 B( 17-C , 18-C ) :   1.6261
B( 17-C , 33-H ) :   0.9721 B( 18-C , 19-C ) :   1.1920 B( 18-C , 21-H ) :   1.0054
B( 19-C , 20-C ) :   1.6420 B( 19-C , 22-C ) :   1.0513 B( 22-C , 23-H ) :   0.9381
B( 22-C , 24-H ) :   0.9317 B( 22-C , 25-C ) :   1.0452 B( 25-C , 26-H ) :   0.9557
B( 25-C , 27-H ) :   0.9638 B( 25-C , 28-C ) :   1.0896 B( 28-C , 29-H ) :   0.9749
B( 28-C , 30-H ) :   0.9776 B( 28-C , 31-H ) :   0.9707

Dispersion correction           -0.014232130
FINAL SINGLE POINT ENERGY     -1339.865580357604

DIPOLE MOMENT
-------------
                                X             Y             Z
Electronic contribution:    -17.50473     -19.19172      15.37223
Nuclear contribution   :     17.94766      19.58745     -15.58010
                        -----------------------------------------
Total Dipole Moment    :      0.44294       0.39573      -0.20787
                        -----------------------------------------
Magnitude (a.u.)       :      0.62929
Magnitude (Debye)      :      1.59952

Rotational constants in cm-1:     0.016562     0.009895     0.006807
Rotational constants in MHz :   496.508048   296.631111   204.075734

                             ****ORCA TERMINATED NORMALLY****
TOTAL RUN TIME: 0 days 0 hours 0 minutes 21 seconds 754 msec
