                         Program Version 4.2.1 -  RELEASE  -
|  1> ! wB97X-D3 SP def2-SVP
|  2> %pal
|  3> nprocs 24
|  4> end
|  5>
|  6> * xyz 0 1
|  7> S 	 -133.473 	 23.2518 	 -18.1669
|  8> C 	 -135.121 	 22.7386 	 -18.4104
|  9> C 	 -136.006 	 23.7526 	 -18.795
| 10> C 	 -135.332 	 25.0197 	 -18.7658
| 11> C 	 -133.974 	 24.8857 	 -18.5761
| 12> H 	 -135.665 	 26.079 	 -19.0585
| 13> C 	 -137.518 	 23.554 	 -18.9332
| 14> H 	 -137.816 	 22.5399 	 -19.259
| 15> H 	 -137.637 	 24.213 	 -19.8364
| 16> C 	 -138.453 	 24.1117 	 -17.832
| 17> H 	 -138.259 	 25.2262 	 -17.7621
| 18> H 	 -139.53 	 23.9628 	 -17.982
| 19> C 	 -138.131 	 23.427 	 -16.4962
| 20> H 	 -138.603 	 22.4221 	 -16.3949
| 21> H 	 -137.063 	 23.3599 	 -16.2441
| 22> H 	 -138.698 	 24.096 	 -15.767
| 23> S 	 -132.596 	 26.7445 	 -19.9405
| 24> C 	 -131.505 	 27.762 	 -19.0401
| 25> C 	 -131.631 	 27.6617 	 -17.6708
| 26> C 	 -132.429 	 26.564 	 -17.3114
| 27> C 	 -133.046 	 25.9841 	 -18.4432
| 28> H 	 -131.008 	 28.2998 	 -17.1165
| 29> C 	 -132.692 	 26.1311 	 -15.882
| 30> H 	 -133.276 	 25.2362 	 -15.8808
| 31> H 	 -133.452 	 26.7997 	 -15.4723
| 32> C 	 -131.555 	 26.1227 	 -14.8789
| 33> H 	 -131.097 	 27.1183 	 -14.9084
| 34> H 	 -130.806 	 25.3548 	 -15.1215
| 35> C 	 -132.127 	 25.86 	 -13.551
| 36> H 	 -133.01 	 26.5845 	 -13.4291
| 37> H 	 -131.359 	 26.1436 	 -12.7961
| 38> H 	 -132.473 	 24.8689 	 -13.2897
| 39> H 	 -135.387 	 21.7091 	 -18.0693
| 40> H 	 -130.792 	 28.4986 	 -19.5187
| 41> *
| 42>
| 43>                          ****END OF INPUT****

CARTESIAN COORDINATES (ANGSTROEM)
---------------------------------
  S    -133.473000   23.251800  -18.166900
  C    -135.121000   22.738600  -18.410400
  C    -136.006000   23.752600  -18.795000
  C    -135.332000   25.019700  -18.765800
  C    -133.974000   24.885700  -18.576100
  H    -135.665000   26.079000  -19.058500
  C    -137.518000   23.554000  -18.933200
  H    -137.816000   22.539900  -19.259000
  H    -137.637000   24.213000  -19.836400
  C    -138.453000   24.111700  -17.832000
  H    -138.259000   25.226200  -17.762100
  H    -139.530000   23.962800  -17.982000
  C    -138.131000   23.427000  -16.496200
  H    -138.603000   22.422100  -16.394900
  H    -137.063000   23.359900  -16.244100
  H    -138.698000   24.096000  -15.767000
  S    -132.596000   26.744500  -19.940500
  C    -131.505000   27.762000  -19.040100
  C    -131.631000   27.661700  -17.670800
  C    -132.429000   26.564000  -17.311400
  C    -133.046000   25.984100  -18.443200
  H    -131.008000   28.299800  -17.116500
  C    -132.692000   26.131100  -15.882000
  H    -133.276000   25.236200  -15.880800
  H    -133.452000   26.799700  -15.472300
  C    -131.555000   26.122700  -14.878900
  H    -131.097000   27.118300  -14.908400
  H    -130.806000   25.354800  -15.121500
  C    -132.127000   25.860000  -13.551000
  H    -133.010000   26.584500  -13.429100
  H    -131.359000   26.143600  -12.796100
  H    -132.473000   24.868900  -13.289700
  H    -135.387000   21.709100  -18.069300
  H    -130.792000   28.498600  -19.518700

 Total Charge           Charge          ....    0
 Multiplicity           Mult            ....    1
 Number of Electrons    NEL             ....  134
 Basis Dimension        Dim             ....  322

ORBITAL ENERGIES
----------------

  NO   OCC          E(Eh)            E(eV)
   0   2.0000     -88.966664     -2420.9060
   1   2.0000     -88.966390     -2420.8985
   2   2.0000     -10.323772      -280.9241
   3   2.0000     -10.319432      -280.8060
   4   2.0000     -10.317640      -280.7573
   5   2.0000     -10.317021      -280.7404
   6   2.0000     -10.308719      -280.5145
   7   2.0000     -10.303942      -280.3845
   8   2.0000     -10.301784      -280.3258
   9   2.0000     -10.297656      -280.2135
  10   2.0000     -10.294878      -280.1379
  11   2.0000     -10.288117      -279.9539
  12   2.0000     -10.283677      -279.8331
  13   2.0000     -10.282624      -279.8044
  14   2.0000     -10.281158      -279.7645
  15   2.0000     -10.279977      -279.7324
  16   2.0000      -8.081425      -219.9067
  17   2.0000      -8.081329      -219.9041
  18   2.0000      -6.039688      -164.3483
  19   2.0000      -6.039625      -164.3466
  20   2.0000      -6.035945      -164.2464
  21   2.0000      -6.035913      -164.2455
  22   2.0000      -6.032423      -164.1506
  23   2.0000      -6.032229      -164.1453
  24   2.0000      -1.007190       -27.4070
  25   2.0000      -0.983287       -26.7566
  26   2.0000      -0.918954       -25.0060
  27   2.0000      -0.906719       -24.6731
  28   2.0000      -0.868486       -23.6327
  29   2.0000      -0.855576       -23.2814
  30   2.0000      -0.847377       -23.0583
  31   2.0000      -0.810615       -22.0580
  32   2.0000      -0.779884       -21.2217
  33   2.0000      -0.763566       -20.7777
  34   2.0000      -0.701549       -19.0901
  35   2.0000      -0.696189       -18.9443
  36   2.0000      -0.685219       -18.6458
  37   2.0000      -0.655854       -17.8467
  38   2.0000      -0.637966       -17.3599
  39   2.0000      -0.615154       -16.7392
  40   2.0000      -0.598451       -16.2847
  41   2.0000      -0.573329       -15.6011
  42   2.0000      -0.561604       -15.2820
  43   2.0000      -0.548983       -14.9386
  44   2.0000      -0.536482       -14.5984
  45   2.0000      -0.526172       -14.3179
  46   2.0000      -0.514792       -14.0082
  47   2.0000      -0.510989       -13.9047
  48   2.0000      -0.499254       -13.5854
  49   2.0000      -0.488994       -13.3062
  50   2.0000      -0.483180       -13.1480
  51   2.0000      -0.472285       -12.8515
  52   2.0000      -0.470550       -12.8043
  53   2.0000      -0.463818       -12.6211
  54   2.0000      -0.459485       -12.5032
  55   2.0000      -0.451683       -12.2909
  56   2.0000      -0.443334       -12.0637
  57   2.0000      -0.438311       -11.9270
  58   2.0000      -0.433516       -11.7966
  59   2.0000      -0.426151       -11.5961
  60   2.0000      -0.419161       -11.4059
  61   2.0000      -0.414598       -11.2818
  62   2.0000      -0.406048       -11.0491
  63   2.0000      -0.337634        -9.1875
  64   2.0000      -0.336905        -9.1677
  65   2.0000      -0.319897        -8.7048
  66   2.0000      -0.296236        -8.0610
  67   0.0000       0.040371         1.0986
  68   0.0000       0.059190         1.6106
  69   0.0000       0.109107         2.9689
  70   0.0000       0.114550         3.1171
  71   0.0000       0.128827         3.5055

MULLIKEN ATOMIC CHARGES
-----------------------
   0 S :    0.120062
   1 C :   -0.148370
   2 C :   -0.068708
   3 C :    0.009601
   4 C :   -0.187502
   5 H :    0.046469
   6 C :    0.043960
   7 H :    0.032171
   8 H :    0.033967
   9 C :   -0.071816
  10 H :    0.040401
  11 H :    0.041627
  12 C :   -0.096343
  13 H :    0.035729
  14 H :    0.055690
  15 H :    0.036827
  16 S :    0.124826
  17 C :   -0.123902
  18 C :   -0.027796
  19 C :    0.031364
  20 C :   -0.206283
  21 H :    0.002185
  22 C :    0.059401
  23 H :    0.004369
  24 H :    0.020736
  25 C :   -0.050188
  26 H :    0.029792
  27 H :    0.038989
  28 C :   -0.064120
  29 H :    0.027410
  30 H :    0.034036
  31 H :    0.039454
  32 H :    0.066009
  33 H :    0.069955
Sum of atomic charges:   -0.0000000

LOEWDIN ATOMIC CHARGES
----------------------
   0 S :    0.407946
   1 C :   -0.204418
   2 C :   -0.065871
   3 C :   -0.069704
   4 C :   -0.201745
   5 H :    0.048502
   6 C :   -0.041022
   7 H :    0.031202
   8 H :    0.037753
   9 C :   -0.045845
  10 H :    0.029545
  11 H :    0.030281
  12 C :   -0.077480
  13 H :    0.025872
  14 H :    0.026199
  15 H :    0.032487
  16 S :    0.420805
  17 C :   -0.191535
  18 C :   -0.071161
  19 C :   -0.046427
  20 C :   -0.215502
  21 H :    0.025357
  22 C :   -0.038741
  23 H :    0.021836
  24 H :    0.034511
  25 C :   -0.043021
  26 H :    0.026699
  27 H :    0.029151
  28 C :   -0.068143
  29 H :    0.030544
  30 H :    0.029716
  31 H :    0.023917
  32 H :    0.031086
  33 H :    0.037206

  Mayer bond orders larger than 0.100000
B(  0-S ,  1-C ) :   1.1493 B(  0-S ,  4-C ) :   1.1429 B(  1-C ,  2-C ) :   1.5999
B(  1-C , 32-H ) :   0.9622 B(  2-C ,  3-C ) :   1.2139 B(  2-C ,  6-C ) :   1.0168
B(  3-C ,  4-C ) :   1.6199 B(  3-C ,  5-H ) :   0.9706 B(  4-C , 20-C ) :   1.0150
B(  6-C ,  7-H ) :   0.9495 B(  6-C ,  8-H ) :   0.9351 B(  6-C ,  9-C ) :   1.0677
B(  9-C , 10-H ) :   0.9563 B(  9-C , 11-H ) :   0.9554 B(  9-C , 12-C ) :   1.0673
B( 12-C , 13-H ) :   0.9751 B( 12-C , 14-H ) :   0.9761 B( 12-C , 15-H ) :   0.9752
B( 16-S , 17-C ) :   1.1666 B( 16-S , 20-C ) :   1.1597 B( 17-C , 18-C ) :   1.6153
B( 17-C , 20-C ) :   0.1049 B( 17-C , 33-H ) :   0.9569 B( 18-C , 19-C ) :   1.2314
B( 18-C , 21-H ) :   0.9968 B( 19-C , 20-C ) :   1.5709 B( 19-C , 22-C ) :   1.0436
B( 22-C , 23-H ) :   0.9237 B( 22-C , 24-H ) :   0.9259 B( 22-C , 25-C ) :   1.0668
B( 25-C , 26-H ) :   0.9461 B( 25-C , 27-H ) :   0.9493 B( 25-C , 28-C ) :   1.0954
B( 28-C , 29-H ) :   0.9688 B( 28-C , 30-H ) :   0.9701 B( 28-C , 31-H ) :   0.9744

Dispersion correction           -0.014368943
FINAL SINGLE POINT ENERGY     -1339.869539100164

DIPOLE MOMENT
-------------
                                X             Y             Z
Electronic contribution:     13.26779       0.85965     -20.90179
Nuclear contribution   :    -13.50109      -0.69069      21.32986
                        -----------------------------------------
Total Dipole Moment    :     -0.23330       0.16896       0.42807
                        -----------------------------------------
Magnitude (a.u.)       :      0.51596
Magnitude (Debye)      :      1.31148

Rotational constants in cm-1:     0.017752     0.008802     0.007060
Rotational constants in MHz :   532.195802   263.883982   211.664719

                             ****ORCA TERMINATED NORMALLY****
TOTAL RUN TIME: 0 days 0 hours 0 minutes 21 seconds 539 msec
