                         Program Version 4.2.1 -  RELEASE  -
|  1> ! wB97X-D3 SP def2-SVP
|  2> %pal
|  3> nprocs 24
|  4> end
|  5>
|  6> * xyz 0 1
|  7> S 	 -142.015 	 2.37579 	 12.2347
|  8> C 	 -142.879 	 0.823625 	 11.9719
|  9> C 	 -144.243 	 1.00788 	 12.2454
| 10> C 	 -144.585 	 2.34589 	 12.6518
| 11> C 	 -143.497 	 3.23232 	 12.7303
| 12> H 	 -145.559 	 2.77111 	 12.9369
| 13> C 	 -145.249 	 -0.120833 	 12.1766
| 14> H 	 -146.232 	 0.307547 	 12.2343
| 15> H 	 -144.995 	 -0.530652 	 13.1434
| 16> C 	 -145.09 	 -1.1171 	 10.9739
| 17> H 	 -144.171 	 -1.65627 	 10.8653
| 18> H 	 -145.925 	 -1.78198 	 11.1264
| 19> C 	 -145.432 	 -0.42145 	 9.63304
| 20> H 	 -145.277 	 -1.18704 	 8.8057
| 21> H 	 -146.429 	 -0.0940356 	 9.58083
| 22> H 	 -144.748 	 0.37043 	 9.57443
| 23> S 	 -142.586 	 5.7601 	 12.1661
| 24> C 	 -143.355 	 7.09548 	 12.9805
| 25> C 	 -144.036 	 6.70296 	 14.1079
| 26> C 	 -144.131 	 5.26754 	 14.1732
| 27> C 	 -143.498 	 4.60552 	 13.1491
| 28> H 	 -144.316 	 7.48981 	 14.8166
| 29> C 	 -145.02 	 4.67278 	 15.2673
| 30> H 	 -144.865 	 3.66307 	 15.3737
| 31> H 	 -146.067 	 4.87402 	 14.7877
| 32> C 	 -144.979 	 5.33885 	 16.6853
| 33> H 	 -145.367 	 6.36481 	 16.6973
| 34> H 	 -143.908 	 5.30806 	 17.0281
| 35> C 	 -145.697 	 4.66572 	 17.8838
| 36> H 	 -145.379 	 3.67706 	 17.9399
| 37> H 	 -146.749 	 4.73158 	 17.639
| 38> H 	 -145.589 	 5.21091 	 18.8083
| 39> H 	 -142.463 	 -0.199809 	 11.7771
| 40> H 	 -143.072 	 8.17943 	 12.8763
| 41> *
| 42>
| 43>                          ****END OF INPUT****

CARTESIAN COORDINATES (ANGSTROEM)
---------------------------------
  S    -142.015000    2.375790   12.234700
  C    -142.879000    0.823625   11.971900
  C    -144.243000    1.007880   12.245400
  C    -144.585000    2.345890   12.651800
  C    -143.497000    3.232320   12.730300
  H    -145.559000    2.771110   12.936900
  C    -145.249000   -0.120833   12.176600
  H    -146.232000    0.307547   12.234300
  H    -144.995000   -0.530652   13.143400
  C    -145.090000   -1.117100   10.973900
  H    -144.171000   -1.656270   10.865300
  H    -145.925000   -1.781980   11.126400
  C    -145.432000   -0.421450    9.633040
  H    -145.277000   -1.187040    8.805700
  H    -146.429000   -0.094036    9.580830
  H    -144.748000    0.370430    9.574430
  S    -142.586000    5.760100   12.166100
  C    -143.355000    7.095480   12.980500
  C    -144.036000    6.702960   14.107900
  C    -144.131000    5.267540   14.173200
  C    -143.498000    4.605520   13.149100
  H    -144.316000    7.489810   14.816600
  C    -145.020000    4.672780   15.267300
  H    -144.865000    3.663070   15.373700
  H    -146.067000    4.874020   14.787700
  C    -144.979000    5.338850   16.685300
  H    -145.367000    6.364810   16.697300
  H    -143.908000    5.308060   17.028100
  C    -145.697000    4.665720   17.883800
  H    -145.379000    3.677060   17.939900
  H    -146.749000    4.731580   17.639000
  H    -145.589000    5.210910   18.808300
  H    -142.463000   -0.199809   11.777100
  H    -143.072000    8.179430   12.876300

 Total Charge           Charge          ....    0
 Multiplicity           Mult            ....    1
 Number of Electrons    NEL             ....  134
 Basis Dimension        Dim             ....  322

ORBITAL ENERGIES
----------------

  NO   OCC          E(Eh)            E(eV)
   0   2.0000     -88.966373     -2420.8981
   1   2.0000     -88.963916     -2420.8312
   2   2.0000     -10.334766      -281.2233
   3   2.0000     -10.327688      -281.0307
   4   2.0000     -10.320202      -280.8270
   5   2.0000     -10.320166      -280.8260
   6   2.0000     -10.309532      -280.5366
   7   2.0000     -10.305460      -280.4258
   8   2.0000     -10.299763      -280.2708
   9   2.0000     -10.299329      -280.2590
  10   2.0000     -10.295209      -280.1469
  11   2.0000     -10.294245      -280.1206
  12   2.0000     -10.292928      -280.0848
  13   2.0000     -10.288790      -279.9722
  14   2.0000     -10.274529      -279.5841
  15   2.0000     -10.271308      -279.4965
  16   2.0000      -8.079559      -219.8560
  17   2.0000      -8.078839      -219.8364
  18   2.0000      -6.038326      -164.3112
  19   2.0000      -6.037531      -164.2896
  20   2.0000      -6.034221      -164.1995
  21   2.0000      -6.033447      -164.1784
  22   2.0000      -6.030201      -164.0901
  23   2.0000      -6.029252      -164.0643
  24   2.0000      -1.004431       -27.3320
  25   2.0000      -0.977026       -26.5862
  26   2.0000      -0.911343       -24.7989
  27   2.0000      -0.904335       -24.6082
  28   2.0000      -0.869150       -23.6508
  29   2.0000      -0.854219       -23.2445
  30   2.0000      -0.843056       -22.9407
  31   2.0000      -0.813780       -22.1441
  32   2.0000      -0.783703       -21.3256
  33   2.0000      -0.771450       -20.9922
  34   2.0000      -0.707545       -19.2533
  35   2.0000      -0.704845       -19.1798
  36   2.0000      -0.693745       -18.8778
  37   2.0000      -0.654015       -17.7966
  38   2.0000      -0.630934       -17.1686
  39   2.0000      -0.608924       -16.5697
  40   2.0000      -0.591532       -16.0964
  41   2.0000      -0.580804       -15.8045
  42   2.0000      -0.570900       -15.5350
  43   2.0000      -0.554018       -15.0756
  44   2.0000      -0.544343       -14.8123
  45   2.0000      -0.526059       -14.3148
  46   2.0000      -0.521024       -14.1778
  47   2.0000      -0.518900       -14.1200
  48   2.0000      -0.503079       -13.6895
  49   2.0000      -0.496738       -13.5169
  50   2.0000      -0.486357       -13.2344
  51   2.0000      -0.477250       -12.9866
  52   2.0000      -0.472729       -12.8636
  53   2.0000      -0.461116       -12.5476
  54   2.0000      -0.458775       -12.4839
  55   2.0000      -0.454671       -12.3722
  56   2.0000      -0.447046       -12.1647
  57   2.0000      -0.436327       -11.8731
  58   2.0000      -0.432844       -11.7783
  59   2.0000      -0.431439       -11.7401
  60   2.0000      -0.418981       -11.4010
  61   2.0000      -0.408399       -11.1131
  62   2.0000      -0.404152       -10.9975
  63   2.0000      -0.351484        -9.5644
  64   2.0000      -0.328722        -8.9450
  65   2.0000      -0.326043        -8.8721
  66   2.0000      -0.286777        -7.8036
  67   0.0000       0.023859         0.6492
  68   0.0000       0.067410         1.8343
  69   0.0000       0.103555         2.8179
  70   0.0000       0.121958         3.3186
  71   0.0000       0.133984         3.6459

MULLIKEN ATOMIC CHARGES
-----------------------
   0 S :    0.099308
   1 C :   -0.139274
   2 C :   -0.135028
   3 C :    0.019755
   4 C :   -0.151091
   5 H :    0.018192
   6 C :    0.082347
   7 H :    0.017675
   8 H :    0.046796
   9 C :   -0.071452
  10 H :    0.035162
  11 H :    0.027489
  12 C :   -0.038718
  13 H :    0.039880
  14 H :    0.022689
  15 H :    0.034422
  16 S :    0.102074
  17 C :   -0.096195
  18 C :   -0.063656
  19 C :   -0.029105
  20 C :   -0.148653
  21 H :    0.036943
  22 C :    0.074164
  23 H :    0.007769
  24 H :    0.056578
  25 C :   -0.141569
  26 H :    0.035998
  27 H :    0.042071
  28 C :   -0.009964
  29 H :    0.024165
  30 H :    0.020984
  31 H :    0.038546
  32 H :    0.068774
  33 H :    0.072926
Sum of atomic charges:    0.0000000

LOEWDIN ATOMIC CHARGES
----------------------
   0 S :    0.374951
   1 C :   -0.211175
   2 C :   -0.061369
   3 C :   -0.073707
   4 C :   -0.178783
   5 H :    0.034526
   6 C :   -0.030173
   7 H :    0.028313
   8 H :    0.040172
   9 C :   -0.034052
  10 H :    0.020774
  11 H :    0.024937
  12 C :   -0.053745
  13 H :    0.033776
  14 H :    0.016628
  15 H :    0.017665
  16 S :    0.395119
  17 C :   -0.188008
  18 C :   -0.078097
  19 C :   -0.049309
  20 C :   -0.200056
  21 H :    0.039053
  22 C :   -0.028995
  23 H :    0.013876
  24 H :    0.046815
  25 C :   -0.046186
  26 H :    0.021379
  27 H :    0.029584
  28 C :   -0.054560
  29 H :    0.015326
  30 H :    0.022545
  31 H :    0.029563
  32 H :    0.042348
  33 H :    0.040864

  Mayer bond orders larger than 0.100000
B(  0-S ,  1-C ) :   1.1144 B(  0-S ,  4-C ) :   1.1435 B(  1-C ,  2-C ) :   1.6083
B(  1-C ,  4-C ) :   0.1041 B(  1-C , 32-H ) :   0.9635 B(  2-C ,  3-C ) :   1.2328
B(  2-C ,  6-C ) :   0.9931 B(  3-C ,  4-C ) :   1.5691 B(  3-C ,  5-H ) :   0.9901
B(  4-C , 20-C ) :   1.0711 B(  6-C ,  7-H ) :   0.9449 B(  6-C ,  8-H ) :   0.9336
B(  6-C ,  9-C ) :   1.0707 B(  9-C , 10-H ) :   0.9603 B(  9-C , 11-H ) :   0.9570
B(  9-C , 12-C ) :   1.0698 B( 12-C , 13-H ) :   0.9751 B( 12-C , 14-H ) :   0.9771
B( 12-C , 15-H ) :   0.9794 B( 16-S , 17-C ) :   1.1541 B( 16-S , 20-C ) :   1.1075
B( 17-C , 18-C ) :   1.6464 B( 17-C , 33-H ) :   0.9530 B( 18-C , 19-C ) :   1.2043
B( 18-C , 21-H ) :   0.9867 B( 19-C , 20-C ) :   1.6182 B( 19-C , 22-C ) :   1.0405
B( 22-C , 23-H ) :   0.9350 B( 22-C , 24-H ) :   0.9324 B( 22-C , 25-C ) :   1.0551
B( 25-C , 26-H ) :   0.9521 B( 25-C , 27-H ) :   0.9623 B( 25-C , 28-C ) :   1.0877
B( 28-C , 29-H ) :   0.9757 B( 28-C , 30-H ) :   0.9757 B( 28-C , 31-H ) :   0.9740

Dispersion correction           -0.013629027
FINAL SINGLE POINT ENERGY     -1339.853405488070

DIPOLE MOMENT
-------------
                                X             Y             Z
Electronic contribution:     18.83797      11.87140      -9.68860
Nuclear contribution   :    -19.46294     -12.01776      10.20957
                        -----------------------------------------
Total Dipole Moment    :     -0.62497      -0.14636       0.52096
                        -----------------------------------------
Magnitude (a.u.)       :      0.82669
Magnitude (Debye)      :      2.10127

Rotational constants in cm-1:     0.019019     0.007631     0.006112
Rotational constants in MHz :   570.173065   228.758871   183.230952

                             ****ORCA TERMINATED NORMALLY****
TOTAL RUN TIME: 0 days 0 hours 0 minutes 20 seconds 932 msec
