                         Program Version 4.2.1 -  RELEASE  -
|  1> ! wB97X-D3 SP def2-SVP
|  2> %pal
|  3> nprocs 24
|  4> end
|  5>
|  6> * xyz 0 1
|  7> S 	 46.0979 	 -18.8125 	 -115.443
|  8> C 	 46.9356 	 -18.8509 	 -113.908
|  9> C 	 47.2099 	 -17.6086 	 -113.425
| 10> C 	 46.799 	 -16.6217 	 -114.376
| 11> C 	 46.014 	 -17.0655 	 -115.402
| 12> H 	 47.0656 	 -15.5481 	 -114.307
| 13> C 	 48.04 	 -17.3624 	 -112.211
| 14> H 	 48.0353 	 -18.2424 	 -111.532
| 15> H 	 47.5457 	 -16.4821 	 -111.675
| 16> C 	 49.4432 	 -16.9018 	 -112.505
| 17> H 	 49.866 	 -17.6859 	 -113.076
| 18> H 	 49.4241 	 -16.0394 	 -113.262
| 19> C 	 50.3459 	 -16.5681 	 -111.282
| 20> H 	 51.2776 	 -15.9954 	 -111.613
| 21> H 	 49.8724 	 -15.9764 	 -110.528
| 22> H 	 50.8008 	 -17.4372 	 -110.818
| 23> S 	 46.4451 	 -16.1917 	 -117.986
| 24> C 	 45.407 	 -15.0032 	 -118.681
| 25> C 	 44.3991 	 -14.6137 	 -117.816
| 26> C 	 44.564 	 -15.2685 	 -116.537
| 27> C 	 45.5243 	 -16.251 	 -116.532
| 28> H 	 43.633 	 -13.8581 	 -118.154
| 29> C 	 43.6808 	 -15.0358 	 -115.339
| 30> H 	 44.2964 	 -14.9683 	 -114.452
| 31> H 	 43.0916 	 -15.9471 	 -115.181
| 32> C 	 42.6816 	 -13.8 	 -115.416
| 33> H 	 42.1059 	 -13.6519 	 -116.318
| 34> H 	 43.3294 	 -12.9223 	 -115.484
| 35> C 	 41.8905 	 -13.5636 	 -114.094
| 36> H 	 41.4003 	 -14.5577 	 -113.909
| 37> H 	 41.1456 	 -12.7711 	 -114.235
| 38> H 	 42.5322 	 -13.2838 	 -113.311
| 39> H 	 47.1818 	 -19.7485 	 -113.36
| 40> H 	 45.4395 	 -14.5809 	 -119.666
| 41> *
| 42>
| 43>                          ****END OF INPUT****

CARTESIAN COORDINATES (ANGSTROEM)
---------------------------------
  S     46.097900  -18.812500  -115.443000
  C     46.935600  -18.850900  -113.908000
  C     47.209900  -17.608600  -113.425000
  C     46.799000  -16.621700  -114.376000
  C     46.014000  -17.065500  -115.402000
  H     47.065600  -15.548100  -114.307000
  C     48.040000  -17.362400  -112.211000
  H     48.035300  -18.242400  -111.532000
  H     47.545700  -16.482100  -111.675000
  C     49.443200  -16.901800  -112.505000
  H     49.866000  -17.685900  -113.076000
  H     49.424100  -16.039400  -113.262000
  C     50.345900  -16.568100  -111.282000
  H     51.277600  -15.995400  -111.613000
  H     49.872400  -15.976400  -110.528000
  H     50.800800  -17.437200  -110.818000
  S     46.445100  -16.191700  -117.986000
  C     45.407000  -15.003200  -118.681000
  C     44.399100  -14.613700  -117.816000
  C     44.564000  -15.268500  -116.537000
  C     45.524300  -16.251000  -116.532000
  H     43.633000  -13.858100  -118.154000
  C     43.680800  -15.035800  -115.339000
  H     44.296400  -14.968300  -114.452000
  H     43.091600  -15.947100  -115.181000
  C     42.681600  -13.800000  -115.416000
  H     42.105900  -13.651900  -116.318000
  H     43.329400  -12.922300  -115.484000
  C     41.890500  -13.563600  -114.094000
  H     41.400300  -14.557700  -113.909000
  H     41.145600  -12.771100  -114.235000
  H     42.532200  -13.283800  -113.311000
  H     47.181800  -19.748500  -113.360000
  H     45.439500  -14.580900  -119.666000

 Total Charge           Charge          ....    0
 Multiplicity           Mult            ....    1
 Number of Electrons    NEL             ....  134
 Basis Dimension        Dim             ....  322

ORBITAL ENERGIES
----------------

  NO   OCC          E(Eh)            E(eV)
   0   2.0000     -88.964878     -2420.8574
   1   2.0000     -88.964796     -2420.8552
   2   2.0000     -10.328428      -281.0508
   3   2.0000     -10.319647      -280.8119
   4   2.0000     -10.313417      -280.6424
   5   2.0000     -10.312817      -280.6260
   6   2.0000     -10.302460      -280.3442
   7   2.0000     -10.298507      -280.2366
   8   2.0000     -10.298398      -280.2337
   9   2.0000     -10.297955      -280.2216
  10   2.0000     -10.296308      -280.1768
  11   2.0000     -10.290799      -280.0269
  12   2.0000     -10.290578      -280.0209
  13   2.0000     -10.287458      -279.9360
  14   2.0000     -10.284893      -279.8662
  15   2.0000     -10.279721      -279.7254
  16   2.0000      -8.080310      -219.8764
  17   2.0000      -8.079814      -219.8629
  18   2.0000      -6.038773      -164.3234
  19   2.0000      -6.038348      -164.3118
  20   2.0000      -6.034642      -164.2110
  21   2.0000      -6.034371      -164.2036
  22   2.0000      -6.031135      -164.1155
  23   2.0000      -6.030449      -164.0969
  24   2.0000      -1.011140       -27.5145
  25   2.0000      -0.990082       -26.9415
  26   2.0000      -0.915555       -24.9135
  27   2.0000      -0.900723       -24.5099
  28   2.0000      -0.870141       -23.6778
  29   2.0000      -0.849224       -23.1086
  30   2.0000      -0.844601       -22.9828
  31   2.0000      -0.817734       -22.2517
  32   2.0000      -0.782454       -21.2917
  33   2.0000      -0.769311       -20.9340
  34   2.0000      -0.706647       -19.2288
  35   2.0000      -0.704166       -19.1613
  36   2.0000      -0.695211       -18.9176
  37   2.0000      -0.648204       -17.6385
  38   2.0000      -0.642438       -17.4816
  39   2.0000      -0.621542       -16.9130
  40   2.0000      -0.594679       -16.1821
  41   2.0000      -0.573336       -15.6013
  42   2.0000      -0.560457       -15.2508
  43   2.0000      -0.558911       -15.2087
  44   2.0000      -0.526821       -14.3355
  45   2.0000      -0.518618       -14.1123
  46   2.0000      -0.517364       -14.0782
  47   2.0000      -0.508052       -13.8248
  48   2.0000      -0.507166       -13.8007
  49   2.0000      -0.503655       -13.7051
  50   2.0000      -0.495313       -13.4782
  51   2.0000      -0.472391       -12.8544
  52   2.0000      -0.467788       -12.7292
  53   2.0000      -0.466561       -12.6958
  54   2.0000      -0.460862       -12.5407
  55   2.0000      -0.453704       -12.3459
  56   2.0000      -0.450835       -12.2678
  57   2.0000      -0.436878       -11.8881
  58   2.0000      -0.435331       -11.8460
  59   2.0000      -0.425543       -11.5796
  60   2.0000      -0.418168       -11.3789
  61   2.0000      -0.413830       -11.2609
  62   2.0000      -0.409815       -11.1516
  63   2.0000      -0.340166        -9.2564
  64   2.0000      -0.327418        -8.9095
  65   2.0000      -0.325925        -8.8689
  66   2.0000      -0.305900        -8.3240
  67   0.0000       0.041581         1.1315
  68   0.0000       0.063250         1.7211
  69   0.0000       0.121991         3.3195
  70   0.0000       0.124673         3.3925
  71   0.0000       0.128061         3.4847

MULLIKEN ATOMIC CHARGES
-----------------------
   0 S :    0.107743
   1 C :   -0.115839
   2 C :   -0.073200
   3 C :    0.021248
   4 C :   -0.181756
   5 H :    0.029393
   6 C :    0.051866
   7 H :    0.030540
   8 H :    0.031365
   9 C :   -0.083693
  10 H :    0.015155
  11 H :    0.036574
  12 C :   -0.043099
  13 H :    0.040001
  14 H :    0.030699
  15 H :    0.032564
  16 S :    0.126362
  17 C :   -0.078415
  18 C :   -0.067322
  19 C :   -0.054891
  20 C :   -0.140984
  21 H :    0.043678
  22 C :    0.075963
  23 H :    0.021051
  24 H :    0.040922
  25 C :   -0.110450
  26 H :    0.031834
  27 H :    0.016155
  28 C :   -0.027963
  29 H :    0.038593
  30 H :    0.036843
  31 H :    0.029585
  32 H :    0.043638
  33 H :    0.045841
Sum of atomic charges:    0.0000000

LOEWDIN ATOMIC CHARGES
----------------------
   0 S :    0.402355
   1 C :   -0.186930
   2 C :   -0.071018
   3 C :   -0.057237
   4 C :   -0.200539
   5 H :    0.035526
   6 C :   -0.037318
   7 H :    0.032890
   8 H :    0.035626
   9 C :   -0.046321
  10 H :    0.018692
  11 H :    0.031829
  12 C :   -0.069589
  13 H :    0.038087
  14 H :    0.020230
  15 H :    0.025430
  16 S :    0.431713
  17 C :   -0.192476
  18 C :   -0.082305
  19 C :   -0.052924
  20 C :   -0.221167
  21 H :    0.043754
  22 C :   -0.032045
  23 H :    0.030958
  24 H :    0.035891
  25 C :   -0.047954
  26 H :    0.019530
  27 H :    0.021025
  28 C :   -0.058421
  29 H :    0.030244
  30 H :    0.028782
  31 H :    0.018002
  32 H :    0.027482
  33 H :    0.028196

  Mayer bond orders larger than 0.100000
B(  0-S ,  1-C ) :   1.1414 B(  0-S ,  4-C ) :   1.1402 B(  1-C ,  2-C ) :   1.6239
B(  1-C , 32-H ) :   0.9651 B(  2-C ,  3-C ) :   1.2254 B(  2-C ,  6-C ) :   1.0411
B(  3-C ,  4-C ) :   1.6107 B(  3-C ,  5-H ) :   0.9812 B(  4-C , 20-C ) :   1.0000
B(  6-C ,  7-H ) :   0.9418 B(  6-C ,  8-H ) :   0.9274 B(  6-C ,  9-C ) :   1.0625
B(  9-C , 10-H ) :   0.9520 B(  9-C , 11-H ) :   0.9560 B(  9-C , 12-C ) :   1.0717
B( 12-C , 13-H ) :   0.9741 B( 12-C , 14-H ) :   0.9776 B( 12-C , 15-H ) :   0.9753
B( 16-S , 17-C ) :   1.1732 B( 16-S , 20-C ) :   1.1460 B( 17-C , 18-C ) :   1.6092
B( 17-C , 33-H ) :   0.9625 B( 18-C , 19-C ) :   1.2432 B( 18-C , 21-H ) :   0.9802
B( 19-C , 20-C ) :   1.6145 B( 19-C , 22-C ) :   1.0432 B( 22-C , 23-H ) :   0.9265
B( 22-C , 24-H ) :   0.9319 B( 22-C , 25-C ) :   1.0588 B( 25-C , 26-H ) :   0.9573
B( 25-C , 27-H ) :   0.9561 B( 25-C , 28-C ) :   1.0767 B( 28-C , 29-H ) :   0.9784
B( 28-C , 30-H ) :   0.9740 B( 28-C , 31-H ) :   0.9775

Dispersion correction           -0.013557170
FINAL SINGLE POINT ENERGY     -1339.880351104213

DIPOLE MOMENT
-------------
                                X             Y             Z
Electronic contribution:      0.40946     -13.77753     -21.71111
Nuclear contribution   :     -0.28831      14.20288      22.13055
                        -----------------------------------------
Total Dipole Moment    :      0.12115       0.42534       0.41944
                        -----------------------------------------
Magnitude (a.u.)       :      0.60953
Magnitude (Debye)      :      1.54929

Rotational constants in cm-1:     0.017310     0.007643     0.006494
Rotational constants in MHz :   518.955129   229.124324   194.696505

                             ****ORCA TERMINATED NORMALLY****
TOTAL RUN TIME: 0 days 0 hours 0 minutes 20 seconds 864 msec
