                         Program Version 4.2.1 -  RELEASE  -
|  1> ! wB97X-D3 SP def2-SVP
|  2> %pal
|  3> nprocs 24
|  4> end
|  5>
|  6> * xyz 0 1
|  7> S 	 -110.555 	 56.6054 	 -89.2437
|  8> C 	 -110.551 	 57.8508 	 -88.0983
|  9> C 	 -109.75 	 57.4989 	 -87.021
| 10> C 	 -109.081 	 56.257 	 -87.1292
| 11> C 	 -109.392 	 55.6576 	 -88.3237
| 12> H 	 -108.36 	 55.7838 	 -86.4975
| 13> C 	 -109.594 	 58.3545 	 -85.7928
| 14> H 	 -109.618 	 57.7495 	 -84.8916
| 15> H 	 -110.398 	 59.0468 	 -85.7481
| 16> C 	 -108.327 	 59.2127 	 -85.6445
| 17> H 	 -108.516 	 59.8558 	 -84.8012
| 18> H 	 -107.467 	 58.5488 	 -85.5997
| 19> C 	 -108.027 	 60.135 	 -86.8603
| 20> H 	 -108.893 	 60.7602 	 -86.9406
| 21> H 	 -107.207 	 60.829 	 -86.6686
| 22> H 	 -107.826 	 59.612 	 -87.7738
| 23> S 	 -110.064 	 53.1281 	 -89.2325
| 24> C 	 -108.747 	 52.104 	 -89.9396
| 25> C 	 -107.525 	 52.7138 	 -89.7978
| 26> C 	 -107.637 	 53.9929 	 -89.1823
| 27> C 	 -108.933 	 54.3391 	 -88.9089
| 28> H 	 -106.679 	 52.2947 	 -90.0924
| 29> C 	 -106.455 	 54.858 	 -88.8663
| 30> H 	 -105.984 	 54.4119 	 -87.9989
| 31> H 	 -106.758 	 55.8688 	 -88.6821
| 32> C 	 -105.394 	 55.0811 	 -89.9791
| 33> H 	 -104.81 	 54.1999 	 -90.2514
| 34> H 	 -104.661 	 55.7464 	 -89.566
| 35> C 	 -105.995 	 55.7882 	 -91.2363
| 36> H 	 -105.305 	 56.1412 	 -91.8964
| 37> H 	 -106.533 	 56.7117 	 -90.9822
| 38> H 	 -106.654 	 55.0457 	 -91.7103
| 39> H 	 -111.282 	 58.7362 	 -88.1658
| 40> H 	 -108.872 	 51.1283 	 -90.3302
| 41> *
| 42>
| 43>                          ****END OF INPUT****

CARTESIAN COORDINATES (ANGSTROEM)
---------------------------------
  S    -110.555000   56.605400  -89.243700
  C    -110.551000   57.850800  -88.098300
  C    -109.750000   57.498900  -87.021000
  C    -109.081000   56.257000  -87.129200
  C    -109.392000   55.657600  -88.323700
  H    -108.360000   55.783800  -86.497500
  C    -109.594000   58.354500  -85.792800
  H    -109.618000   57.749500  -84.891600
  H    -110.398000   59.046800  -85.748100
  C    -108.327000   59.212700  -85.644500
  H    -108.516000   59.855800  -84.801200
  H    -107.467000   58.548800  -85.599700
  C    -108.027000   60.135000  -86.860300
  H    -108.893000   60.760200  -86.940600
  H    -107.207000   60.829000  -86.668600
  H    -107.826000   59.612000  -87.773800
  S    -110.064000   53.128100  -89.232500
  C    -108.747000   52.104000  -89.939600
  C    -107.525000   52.713800  -89.797800
  C    -107.637000   53.992900  -89.182300
  C    -108.933000   54.339100  -88.908900
  H    -106.679000   52.294700  -90.092400
  C    -106.455000   54.858000  -88.866300
  H    -105.984000   54.411900  -87.998900
  H    -106.758000   55.868800  -88.682100
  C    -105.394000   55.081100  -89.979100
  H    -104.810000   54.199900  -90.251400
  H    -104.661000   55.746400  -89.566000
  C    -105.995000   55.788200  -91.236300
  H    -105.305000   56.141200  -91.896400
  H    -106.533000   56.711700  -90.982200
  H    -106.654000   55.045700  -91.710300
  H    -111.282000   58.736200  -88.165800
  H    -108.872000   51.128300  -90.330200

 Total Charge           Charge          ....    0
 Multiplicity           Mult            ....    1
 Number of Electrons    NEL             ....  134
 Basis Dimension        Dim             ....  322

ORBITAL ENERGIES
----------------

  NO   OCC          E(Eh)            E(eV)
   0   2.0000     -88.966302     -2420.8961
   1   2.0000     -88.963607     -2420.8228
   2   2.0000     -10.330070      -281.0955
   3   2.0000     -10.321038      -280.8497
   4   2.0000     -10.318164      -280.7715
   5   2.0000     -10.316462      -280.7252
   6   2.0000     -10.298928      -280.2481
   7   2.0000     -10.295123      -280.1445
   8   2.0000     -10.292961      -280.0857
   9   2.0000     -10.286169      -279.9009
  10   2.0000     -10.285633      -279.8863
  11   2.0000     -10.285198      -279.8745
  12   2.0000     -10.283330      -279.8236
  13   2.0000     -10.282607      -279.8040
  14   2.0000     -10.269043      -279.4349
  15   2.0000     -10.268673      -279.4248
  16   2.0000      -8.081263      -219.9023
  17   2.0000      -8.079388      -219.8513
  18   2.0000      -6.039795      -164.3512
  19   2.0000      -6.037685      -164.2938
  20   2.0000      -6.035785      -164.2421
  21   2.0000      -6.033569      -164.1817
  22   2.0000      -6.031937      -164.1373
  23   2.0000      -6.030499      -164.0982
  24   2.0000      -1.010889       -27.5077
  25   2.0000      -0.990137       -26.9430
  26   2.0000      -0.909976       -24.7617
  27   2.0000      -0.906249       -24.6603
  28   2.0000      -0.868812       -23.6416
  29   2.0000      -0.852834       -23.2068
  30   2.0000      -0.845056       -22.9951
  31   2.0000      -0.819297       -22.2942
  32   2.0000      -0.782970       -21.3057
  33   2.0000      -0.771947       -21.0057
  34   2.0000      -0.704808       -19.1788
  35   2.0000      -0.697432       -18.9781
  36   2.0000      -0.687490       -18.7076
  37   2.0000      -0.667456       -18.1624
  38   2.0000      -0.646155       -17.5828
  39   2.0000      -0.622722       -16.9451
  40   2.0000      -0.597912       -16.2700
  41   2.0000      -0.571308       -15.5461
  42   2.0000      -0.561567       -15.2810
  43   2.0000      -0.556146       -15.1335
  44   2.0000      -0.546871       -14.8811
  45   2.0000      -0.535917       -14.5830
  46   2.0000      -0.516876       -14.0649
  47   2.0000      -0.512600       -13.9485
  48   2.0000      -0.500633       -13.6229
  49   2.0000      -0.493987       -13.4421
  50   2.0000      -0.486976       -13.2513
  51   2.0000      -0.473864       -12.8945
  52   2.0000      -0.471005       -12.8167
  53   2.0000      -0.469115       -12.7653
  54   2.0000      -0.460568       -12.5327
  55   2.0000      -0.447626       -12.1805
  56   2.0000      -0.446688       -12.1550
  57   2.0000      -0.439057       -11.9474
  58   2.0000      -0.432906       -11.7800
  59   2.0000      -0.424874       -11.5614
  60   2.0000      -0.422420       -11.4946
  61   2.0000      -0.414292       -11.2735
  62   2.0000      -0.408180       -11.1071
  63   2.0000      -0.348453        -9.4819
  64   2.0000      -0.334115        -9.0917
  65   2.0000      -0.325610        -8.8603
  66   2.0000      -0.297003        -8.0819
  67   0.0000       0.040006         1.0886
  68   0.0000       0.070258         1.9118
  69   0.0000       0.112621         3.0646
  70   0.0000       0.125195         3.4067
  71   0.0000       0.133049         3.6205

MULLIKEN ATOMIC CHARGES
-----------------------
   0 S :    0.117356
   1 C :   -0.145074
   2 C :   -0.100777
   3 C :    0.063090
   4 C :   -0.186818
   5 H :    0.010243
   6 C :    0.086391
   7 H :    0.026436
   8 H :   -0.001837
   9 C :   -0.068632
  10 H :    0.033005
  11 H :    0.024909
  12 C :   -0.051159
  13 H :    0.009223
  14 H :    0.030427
  15 H :    0.042336
  16 S :    0.113289
  17 C :   -0.083627
  18 C :    0.043605
  19 C :   -0.039097
  20 C :   -0.160522
  21 H :   -0.044735
  22 C :    0.081834
  23 H :    0.037721
  24 H :    0.024229
  25 C :   -0.089078
  26 H :    0.025853
  27 H :    0.019232
  28 C :   -0.028108
  29 H :    0.011699
  30 H :    0.027360
  31 H :    0.045396
  32 H :    0.083319
  33 H :    0.042511
Sum of atomic charges:    0.0000000

LOEWDIN ATOMIC CHARGES
----------------------
   0 S :    0.426771
   1 C :   -0.230305
   2 C :   -0.068813
   3 C :   -0.059770
   4 C :   -0.181582
   5 H :    0.034188
   6 C :   -0.031319
   7 H :    0.031916
   8 H :    0.020029
   9 C :   -0.032320
  10 H :    0.025301
  11 H :    0.018538
  12 C :   -0.064676
  13 H :    0.017065
  14 H :    0.025881
  15 H :    0.022491
  16 S :    0.407374
  17 C :   -0.155970
  18 C :   -0.043592
  19 C :   -0.061144
  20 C :   -0.223385
  21 H :    0.007676
  22 C :   -0.028357
  23 H :    0.033347
  24 H :    0.029106
  25 C :   -0.038491
  26 H :    0.017689
  27 H :    0.020815
  28 C :   -0.058789
  29 H :    0.011001
  30 H :    0.029128
  31 H :    0.030639
  32 H :    0.048243
  33 H :    0.021315

  Mayer bond orders larger than 0.100000
B(  0-S ,  1-C ) :   1.1556 B(  0-S ,  4-C ) :   1.1837 B(  1-C ,  2-C ) :   1.5857
B(  1-C , 32-H ) :   0.9576 B(  2-C ,  3-C ) :   1.2318 B(  2-C ,  6-C ) :   1.0392
B(  3-C ,  4-C ) :   1.5689 B(  3-C ,  5-H ) :   1.0067 B(  4-C , 20-C ) :   0.9737
B(  6-C ,  7-H ) :   0.9397 B(  6-C ,  8-H ) :   0.9361 B(  6-C ,  9-C ) :   1.0745
B(  9-C , 10-H ) :   0.9578 B(  9-C , 11-H ) :   0.9579 B(  9-C , 12-C ) :   1.0793
B( 12-C , 13-H ) :   0.9761 B( 12-C , 14-H ) :   0.9749 B( 12-C , 15-H ) :   0.9748
B( 16-S , 17-C ) :   1.1352 B( 16-S , 20-C ) :   1.1584 B( 17-C , 18-C ) :   1.6097
B( 17-C , 33-H ) :   0.9737 B( 18-C , 19-C ) :   1.2296 B( 18-C , 21-H ) :   1.0137
B( 19-C , 20-C ) :   1.6118 B( 19-C , 22-C ) :   1.0470 B( 22-C , 23-H ) :   0.9289
B( 22-C , 24-H ) :   0.9295 B( 22-C , 25-C ) :   1.0789 B( 25-C , 26-H ) :   0.9543
B( 25-C , 27-H ) :   0.9555 B( 25-C , 28-C ) :   1.0734 B( 28-C , 29-H ) :   0.9748
B( 28-C , 30-H ) :   0.9726 B( 28-C , 31-H ) :   0.9759

Dispersion correction           -0.015169253
FINAL SINGLE POINT ENERGY     -1339.875853244113

DIPOLE MOMENT
-------------
                                X             Y             Z
Electronic contribution:    -19.44752     -17.50848      -5.01837
Nuclear contribution   :     19.95420      17.67101       5.26413
                        -----------------------------------------
Total Dipole Moment    :      0.50669       0.16253       0.24576
                        -----------------------------------------
Magnitude (a.u.)       :      0.58613
Magnitude (Debye)      :      1.48982

Rotational constants in cm-1:     0.020185     0.009034     0.007320
Rotational constants in MHz :   605.123083   270.841085   219.449872

                             ****ORCA TERMINATED NORMALLY****
TOTAL RUN TIME: 0 days 0 hours 0 minutes 22 seconds 230 msec
