                         Program Version 4.2.1 -  RELEASE  -
|  1> ! wB97X-D3 SP def2-SVP
|  2> %pal
|  3> nprocs 24
|  4> end
|  5>
|  6> * xyz 0 1
|  7> S 	 39.6026 	 -31.4651 	 -118.067
|  8> C 	 39.2822 	 -30.8801 	 -119.623
|  9> C 	 39.2306 	 -31.8701 	 -120.546
| 10> C 	 39.5396 	 -33.1581 	 -119.986
| 11> C 	 39.8588 	 -33.076 	 -118.656
| 12> H 	 39.4993 	 -34.1196 	 -120.483
| 13> C 	 39.0533 	 -31.5328 	 -122.021
| 14> H 	 38.7751 	 -30.4507 	 -122.163
| 15> H 	 38.201 	 -32.1894 	 -122.38
| 16> C 	 40.3178 	 -31.7606 	 -122.821
| 17> H 	 40.485 	 -31.024 	 -123.66
| 18> H 	 41.1126 	 -31.6584 	 -122.06
| 19> C 	 40.4981 	 -33.1426 	 -123.435
| 20> H 	 40.2299 	 -34.0414 	 -122.879
| 21> H 	 40.0083 	 -33.1685 	 -124.452
| 22> H 	 41.5248 	 -33.4212 	 -123.612
| 23> S 	 41.7512 	 -35.0425 	 -118.143
| 24> C 	 41.6458 	 -35.8593 	 -116.555
| 25> C 	 40.4598 	 -35.6095 	 -115.892
| 26> C 	 39.6213 	 -34.7128 	 -116.612
| 27> C 	 40.2109 	 -34.193 	 -117.753
| 28> H 	 40.2 	 -36.2006 	 -115.009
| 29> C 	 38.3443 	 -34.2541 	 -115.99
| 30> H 	 38.3854 	 -33.2021 	 -115.988
| 31> H 	 38.4251 	 -34.5602 	 -114.952
| 32> C 	 37.063 	 -34.661 	 -116.672
| 33> H 	 37.1451 	 -34.4703 	 -117.685
| 34> H 	 36.1672 	 -34.1209 	 -116.207
| 35> C 	 36.759 	 -36.1703 	 -116.584
| 36> H 	 37.3574 	 -36.723 	 -117.287
| 37> H 	 35.7323 	 -36.4711 	 -116.731
| 38> H 	 36.9973 	 -36.6299 	 -115.568
| 39> H 	 39.1824 	 -29.8096 	 -119.871
| 40> H 	 42.3529 	 -36.6848 	 -116.285
| 41> *
| 42>
| 43>                          ****END OF INPUT****

CARTESIAN COORDINATES (ANGSTROEM)
---------------------------------
  S     39.602600  -31.465100  -118.067000
  C     39.282200  -30.880100  -119.623000
  C     39.230600  -31.870100  -120.546000
  C     39.539600  -33.158100  -119.986000
  C     39.858800  -33.076000  -118.656000
  H     39.499300  -34.119600  -120.483000
  C     39.053300  -31.532800  -122.021000
  H     38.775100  -30.450700  -122.163000
  H     38.201000  -32.189400  -122.380000
  C     40.317800  -31.760600  -122.821000
  H     40.485000  -31.024000  -123.660000
  H     41.112600  -31.658400  -122.060000
  C     40.498100  -33.142600  -123.435000
  H     40.229900  -34.041400  -122.879000
  H     40.008300  -33.168500  -124.452000
  H     41.524800  -33.421200  -123.612000
  S     41.751200  -35.042500  -118.143000
  C     41.645800  -35.859300  -116.555000
  C     40.459800  -35.609500  -115.892000
  C     39.621300  -34.712800  -116.612000
  C     40.210900  -34.193000  -117.753000
  H     40.200000  -36.200600  -115.009000
  C     38.344300  -34.254100  -115.990000
  H     38.385400  -33.202100  -115.988000
  H     38.425100  -34.560200  -114.952000
  C     37.063000  -34.661000  -116.672000
  H     37.145100  -34.470300  -117.685000
  H     36.167200  -34.120900  -116.207000
  C     36.759000  -36.170300  -116.584000
  H     37.357400  -36.723000  -117.287000
  H     35.732300  -36.471100  -116.731000
  H     36.997300  -36.629900  -115.568000
  H     39.182400  -29.809600  -119.871000
  H     42.352900  -36.684800  -116.285000

 Total Charge           Charge          ....    0
 Multiplicity           Mult            ....    1
 Number of Electrons    NEL             ....  134
 Basis Dimension        Dim             ....  322

ORBITAL ENERGIES
----------------

  NO   OCC          E(Eh)            E(eV)
   0   2.0000     -88.966065     -2420.8897
   1   2.0000     -88.965504     -2420.8744
   2   2.0000     -10.330345      -281.1030
   3   2.0000     -10.329398      -281.0772
   4   2.0000     -10.324082      -280.9326
   5   2.0000     -10.308983      -280.5217
   6   2.0000     -10.302325      -280.3405
   7   2.0000     -10.298347      -280.2323
   8   2.0000     -10.298151      -280.2269
   9   2.0000     -10.296415      -280.1797
  10   2.0000     -10.296235      -280.1748
  11   2.0000     -10.289031      -279.9788
  12   2.0000     -10.283088      -279.8171
  13   2.0000     -10.281095      -279.7628
  14   2.0000     -10.277224      -279.6575
  15   2.0000     -10.274247      -279.5765
  16   2.0000      -8.081526      -219.9095
  17   2.0000      -8.079567      -219.8562
  18   2.0000      -6.039907      -164.3542
  19   2.0000      -6.038093      -164.3049
  20   2.0000      -6.035831      -164.2433
  21   2.0000      -6.034440      -164.2055
  22   2.0000      -6.032375      -164.1493
  23   2.0000      -6.030201      -164.0901
  24   2.0000      -1.012058       -27.5395
  25   2.0000      -0.984497       -26.7895
  26   2.0000      -0.912479       -24.8298
  27   2.0000      -0.911117       -24.7927
  28   2.0000      -0.869789       -23.6682
  29   2.0000      -0.849489       -23.1158
  30   2.0000      -0.844562       -22.9817
  31   2.0000      -0.816720       -22.2241
  32   2.0000      -0.784601       -21.3501
  33   2.0000      -0.771061       -20.9816
  34   2.0000      -0.709197       -19.2982
  35   2.0000      -0.693047       -18.8588
  36   2.0000      -0.685525       -18.6541
  37   2.0000      -0.663472       -18.0540
  38   2.0000      -0.645325       -17.5602
  39   2.0000      -0.615887       -16.7591
  40   2.0000      -0.592929       -16.1344
  41   2.0000      -0.573158       -15.5964
  42   2.0000      -0.553601       -15.0642
  43   2.0000      -0.550368       -14.9763
  44   2.0000      -0.543021       -14.7763
  45   2.0000      -0.538897       -14.6641
  46   2.0000      -0.518264       -14.1027
  47   2.0000      -0.509387       -13.8611
  48   2.0000      -0.502817       -13.6823
  49   2.0000      -0.493012       -13.4155
  50   2.0000      -0.484901       -13.1948
  51   2.0000      -0.478816       -13.0293
  52   2.0000      -0.474565       -12.9136
  53   2.0000      -0.466922       -12.7056
  54   2.0000      -0.458478       -12.4758
  55   2.0000      -0.445648       -12.1267
  56   2.0000      -0.441074       -12.0022
  57   2.0000      -0.431448       -11.7403
  58   2.0000      -0.431026       -11.7288
  59   2.0000      -0.423153       -11.5146
  60   2.0000      -0.421614       -11.4727
  61   2.0000      -0.413961       -11.2644
  62   2.0000      -0.407292       -11.0830
  63   2.0000      -0.344720        -9.3803
  64   2.0000      -0.333988        -9.0883
  65   2.0000      -0.329424        -8.9641
  66   2.0000      -0.298807        -8.1309
  67   0.0000       0.033075         0.9000
  68   0.0000       0.063744         1.7346
  69   0.0000       0.102094         2.7781
  70   0.0000       0.121224         3.2987
  71   0.0000       0.129129         3.5138

MULLIKEN ATOMIC CHARGES
-----------------------
   0 S :    0.124580
   1 C :   -0.128851
   2 C :   -0.096107
   3 C :    0.029507
   4 C :   -0.153811
   5 H :    0.017249
   6 C :    0.055558
   7 H :    0.028762
   8 H :    0.042901
   9 C :   -0.074366
  10 H :    0.044576
  11 H :    0.041041
  12 C :   -0.073719
  13 H :    0.023164
  14 H :    0.037583
  15 H :    0.023214
  16 S :    0.093628
  17 C :   -0.111173
  18 C :   -0.040190
  19 C :   -0.050112
  20 C :   -0.173338
  21 H :    0.033423
  22 C :    0.114333
  23 H :    0.012081
  24 H :    0.011899
  25 C :   -0.035332
  26 H :    0.022952
  27 H :    0.043505
  28 C :   -0.077985
  29 H :    0.032114
  30 H :    0.030631
  31 H :    0.019601
  32 H :    0.057694
  33 H :    0.074989
Sum of atomic charges:    0.0000000

LOEWDIN ATOMIC CHARGES
----------------------
   0 S :    0.435468
   1 C :   -0.214668
   2 C :   -0.070080
   3 C :   -0.064124
   4 C :   -0.200583
   5 H :    0.032616
   6 C :   -0.035733
   7 H :    0.035797
   8 H :    0.035818
   9 C :   -0.050940
  10 H :    0.033625
  11 H :    0.029766
  12 C :   -0.079360
  13 H :    0.022046
  14 H :    0.030237
  15 H :    0.025603
  16 S :    0.368940
  17 C :   -0.174421
  18 C :   -0.074359
  19 C :   -0.054902
  20 C :   -0.183004
  21 H :    0.038143
  22 C :   -0.029256
  23 H :    0.022978
  24 H :    0.029056
  25 C :   -0.031841
  26 H :    0.018430
  27 H :    0.035081
  28 C :   -0.072434
  29 H :    0.021792
  30 H :    0.023050
  31 H :    0.024897
  32 H :    0.035696
  33 H :    0.036669

  Mayer bond orders larger than 0.100000
B(  0-S ,  1-C ) :   1.1483 B(  0-S ,  4-C ) :   1.1650 B(  1-C ,  2-C ) :   1.6245
B(  1-C , 32-H ) :   0.9621 B(  2-C ,  3-C ) :   1.2235 B(  2-C ,  6-C ) :   1.0373
B(  3-C ,  4-C ) :   1.5767 B(  3-C ,  5-H ) :   0.9989 B(  4-C , 20-C ) :   1.0121
B(  6-C ,  7-H ) :   0.9429 B(  6-C ,  8-H ) :   0.9403 B(  6-C ,  9-C ) :   1.0385
B(  9-C , 10-H ) :   0.9584 B(  9-C , 11-H ) :   0.9603 B(  9-C , 12-C ) :   1.0770
B( 12-C , 13-H ) :   0.9736 B( 12-C , 14-H ) :   0.9750 B( 12-C , 15-H ) :   0.9716
B( 16-S , 17-C ) :   1.1442 B( 16-S , 20-C ) :   1.1248 B( 17-C , 18-C ) :   1.6316
B( 17-C , 20-C ) :   0.1026 B( 17-C , 33-H ) :   0.9571 B( 18-C , 19-C ) :   1.2278
B( 18-C , 21-H ) :   0.9830 B( 19-C , 20-C ) :   1.6080 B( 19-C , 22-C ) :   1.0315
B( 22-C , 23-H ) :   0.9233 B( 22-C , 24-H ) :   0.9351 B( 22-C , 25-C ) :   1.0739
B( 25-C , 26-H ) :   0.9571 B( 25-C , 27-H ) :   0.9565 B( 25-C , 28-C ) :   1.0657
B( 28-C , 29-H ) :   0.9764 B( 28-C , 30-H ) :   0.9772 B( 28-C , 31-H ) :   0.9771

Dispersion correction           -0.015049042
FINAL SINGLE POINT ENERGY     -1339.877225913144

DIPOLE MOMENT
-------------
                                X             Y             Z
Electronic contribution:     12.00684       4.64091      10.64343
Nuclear contribution   :    -12.26362      -4.73274     -10.80119
                        -----------------------------------------
Total Dipole Moment    :     -0.25678      -0.09183      -0.15777
                        -----------------------------------------
Magnitude (a.u.)       :      0.31505
Magnitude (Debye)      :      0.80080

Rotational constants in cm-1:     0.020131     0.008428     0.007460
Rotational constants in MHz :   603.499762   252.657428   223.656469

                             ****ORCA TERMINATED NORMALLY****
TOTAL RUN TIME: 0 days 0 hours 0 minutes 22 seconds 1 msec
