                         Program Version 4.2.1 -  RELEASE  -
|  1> ! wB97X-D3 SP def2-SVP
|  2> %pal
|  3> nprocs 24
|  4> end
|  5>
|  6> * xyz 0 1
|  7> S 	 -83.1648 	 -11.0625 	 -58.536
|  8> C 	 -82.519 	 -9.56876 	 -59.1739
|  9> C 	 -81.9224 	 -9.77117 	 -60.3828
| 10> C 	 -81.8251 	 -11.1865 	 -60.7185
| 11> C 	 -82.4926 	 -12.0466 	 -59.8893
| 12> H 	 -81.26 	 -11.4982 	 -61.5904
| 13> C 	 -81.1456 	 -8.74168 	 -61.1083
| 14> H 	 -81.8384 	 -8.01298 	 -61.4435
| 15> H 	 -80.6738 	 -9.10933 	 -62.0983
| 16> C 	 -79.9561 	 -8.07111 	 -60.3454
| 17> H 	 -80.1323 	 -7.73637 	 -59.3638
| 18> H 	 -79.1383 	 -8.84722 	 -60.2593
| 19> C 	 -79.3602 	 -6.8351 	 -61.1344
| 20> H 	 -78.6904 	 -7.23731 	 -61.8827
| 21> H 	 -80.2064 	 -6.38134 	 -61.5663
| 22> H 	 -78.8325 	 -6.05969 	 -60.5924
| 23> S 	 -81.9315 	 -14.3404 	 -58.5423
| 24> C 	 -82.2557 	 -15.9316 	 -59.2423
| 25> C 	 -82.8666 	 -15.8543 	 -60.4309
| 26> C 	 -83.0305 	 -14.4635 	 -60.8766
| 27> C 	 -82.5031 	 -13.5193 	 -59.9687
| 28> H 	 -83.143 	 -16.8131 	 -60.8608
| 29> C 	 -83.8034 	 -14.1175 	 -62.162
| 30> H 	 -83.8888 	 -13.0459 	 -62.2098
| 31> H 	 -84.8331 	 -14.4525 	 -62.0938
| 32> C 	 -83.1484 	 -14.6122 	 -63.4852
| 33> H 	 -83.9183 	 -14.592 	 -64.2694
| 34> H 	 -82.9728 	 -15.7087 	 -63.3755
| 35> C 	 -81.873 	 -13.7367 	 -63.7893
| 36> H 	 -81.2577 	 -13.9045 	 -62.8765
| 37> H 	 -82.1686 	 -12.7014 	 -64.0971
| 38> H 	 -81.2713 	 -14.1741 	 -64.5451
| 39> H 	 -82.5868 	 -8.61581 	 -58.6589
| 40> H 	 -81.8795 	 -16.8507 	 -58.8831
| 41> *
| 42>
| 43>                          ****END OF INPUT****

CARTESIAN COORDINATES (ANGSTROEM)
---------------------------------
  S    -83.164800  -11.062500  -58.536000
  C    -82.519000   -9.568760  -59.173900
  C    -81.922400   -9.771170  -60.382800
  C    -81.825100  -11.186500  -60.718500
  C    -82.492600  -12.046600  -59.889300
  H    -81.260000  -11.498200  -61.590400
  C    -81.145600   -8.741680  -61.108300
  H    -81.838400   -8.012980  -61.443500
  H    -80.673800   -9.109330  -62.098300
  C    -79.956100   -8.071110  -60.345400
  H    -80.132300   -7.736370  -59.363800
  H    -79.138300   -8.847220  -60.259300
  C    -79.360200   -6.835100  -61.134400
  H    -78.690400   -7.237310  -61.882700
  H    -80.206400   -6.381340  -61.566300
  H    -78.832500   -6.059690  -60.592400
  S    -81.931500  -14.340400  -58.542300
  C    -82.255700  -15.931600  -59.242300
  C    -82.866600  -15.854300  -60.430900
  C    -83.030500  -14.463500  -60.876600
  C    -82.503100  -13.519300  -59.968700
  H    -83.143000  -16.813100  -60.860800
  C    -83.803400  -14.117500  -62.162000
  H    -83.888800  -13.045900  -62.209800
  H    -84.833100  -14.452500  -62.093800
  C    -83.148400  -14.612200  -63.485200
  H    -83.918300  -14.592000  -64.269400
  H    -82.972800  -15.708700  -63.375500
  C    -81.873000  -13.736700  -63.789300
  H    -81.257700  -13.904500  -62.876500
  H    -82.168600  -12.701400  -64.097100
  H    -81.271300  -14.174100  -64.545100
  H    -82.586800   -8.615810  -58.658900
  H    -81.879500  -16.850700  -58.883100

 Total Charge           Charge          ....    0
 Multiplicity           Mult            ....    1
 Number of Electrons    NEL             ....  134
 Basis Dimension        Dim             ....  322

ORBITAL ENERGIES
----------------

  NO   OCC          E(Eh)            E(eV)
   0   2.0000     -88.964775     -2420.8546
   1   2.0000     -88.961902     -2420.7764
   2   2.0000     -10.335319      -281.2383
   3   2.0000     -10.333999      -281.2024
   4   2.0000     -10.315664      -280.7035
   5   2.0000     -10.314584      -280.6741
   6   2.0000     -10.312394      -280.6145
   7   2.0000     -10.298845      -280.2458
   8   2.0000     -10.296500      -280.1820
   9   2.0000     -10.295604      -280.1576
  10   2.0000     -10.295375      -280.1514
  11   2.0000     -10.292390      -280.0702
  12   2.0000     -10.291040      -280.0334
  13   2.0000     -10.287840      -279.9464
  14   2.0000     -10.283210      -279.8204
  15   2.0000     -10.274963      -279.5960
  16   2.0000      -8.078825      -219.8360
  17   2.0000      -8.076884      -219.7832
  18   2.0000      -6.037625      -164.2921
  19   2.0000      -6.035548      -164.2356
  20   2.0000      -6.033358      -164.1760
  21   2.0000      -6.031304      -164.1201
  22   2.0000      -6.029359      -164.0672
  23   2.0000      -6.027500      -164.0166
  24   2.0000      -1.002470       -27.2786
  25   2.0000      -0.982678       -26.7400
  26   2.0000      -0.907642       -24.6982
  27   2.0000      -0.900653       -24.5080
  28   2.0000      -0.872901       -23.7528
  29   2.0000      -0.845261       -23.0007
  30   2.0000      -0.837637       -22.7933
  31   2.0000      -0.821885       -22.3646
  32   2.0000      -0.777130       -21.1468
  33   2.0000      -0.769160       -20.9299
  34   2.0000      -0.708461       -19.2782
  35   2.0000      -0.705636       -19.2013
  36   2.0000      -0.694105       -18.8876
  37   2.0000      -0.653753       -17.7895
  38   2.0000      -0.640552       -17.4303
  39   2.0000      -0.621834       -16.9210
  40   2.0000      -0.594690       -16.1824
  41   2.0000      -0.575851       -15.6697
  42   2.0000      -0.560377       -15.2486
  43   2.0000      -0.550056       -14.9678
  44   2.0000      -0.538821       -14.6621
  45   2.0000      -0.523746       -14.2519
  46   2.0000      -0.516816       -14.0633
  47   2.0000      -0.512592       -13.9483
  48   2.0000      -0.508856       -13.8467
  49   2.0000      -0.501991       -13.6599
  50   2.0000      -0.479572       -13.0498
  51   2.0000      -0.478177       -13.0119
  52   2.0000      -0.470083       -12.7916
  53   2.0000      -0.465140       -12.6571
  54   2.0000      -0.455827       -12.4037
  55   2.0000      -0.442818       -12.0497
  56   2.0000      -0.438838       -11.9414
  57   2.0000      -0.432012       -11.7556
  58   2.0000      -0.431347       -11.7375
  59   2.0000      -0.423811       -11.5325
  60   2.0000      -0.420465       -11.4414
  61   2.0000      -0.417780       -11.3684
  62   2.0000      -0.412912       -11.2359
  63   2.0000      -0.350759        -9.5446
  64   2.0000      -0.328568        -8.9408
  65   2.0000      -0.326463        -8.8835
  66   2.0000      -0.299604        -8.1526
  67   0.0000       0.032786         0.8922
  68   0.0000       0.065547         1.7836
  69   0.0000       0.114518         3.1162
  70   0.0000       0.121620         3.3094
  71   0.0000       0.125865         3.4250

MULLIKEN ATOMIC CHARGES
-----------------------
   0 S :    0.102436
   1 C :   -0.135136
   2 C :   -0.051220
   3 C :    0.032087
   4 C :   -0.128637
   5 H :    0.011614
   6 C :    0.030171
   7 H :    0.024773
   8 H :    0.032391
   9 C :   -0.084687
  10 H :    0.020332
  11 H :    0.038772
  12 C :   -0.041759
  13 H :    0.034435
  14 H :    0.016936
  15 H :    0.037010
  16 S :    0.092189
  17 C :   -0.071620
  18 C :   -0.032888
  19 C :   -0.052396
  20 C :   -0.156430
  21 H :    0.025731
  22 C :    0.074695
  23 H :    0.013092
  24 H :    0.033671
  25 C :   -0.097508
  26 H :    0.026286
  27 H :    0.029613
  28 C :   -0.053325
  29 H :    0.052008
  30 H :    0.053950
  31 H :    0.024674
  32 H :    0.056758
  33 H :    0.041984
Sum of atomic charges:   -0.0000000

LOEWDIN ATOMIC CHARGES
----------------------
   0 S :    0.380932
   1 C :   -0.184174
   2 C :   -0.072599
   3 C :   -0.053315
   4 C :   -0.185452
   5 H :    0.031133
   6 C :   -0.039161
   7 H :    0.025165
   8 H :    0.039618
   9 C :   -0.034352
  10 H :    0.011605
  11 H :    0.029746
  12 C :   -0.062681
  13 H :    0.025205
  14 H :    0.016911
  15 H :    0.026737
  16 S :    0.396097
  17 C :   -0.168017
  18 C :   -0.073425
  19 C :   -0.049273
  20 C :   -0.198163
  21 H :    0.037179
  22 C :   -0.032969
  23 H :    0.025226
  24 H :    0.032079
  25 C :   -0.042835
  26 H :    0.020363
  27 H :    0.022988
  28 C :   -0.069153
  29 H :    0.035424
  30 H :    0.034201
  31 H :    0.018995
  32 H :    0.032351
  33 H :    0.023615

  Mayer bond orders larger than 0.100000
B(  0-S ,  1-C ) :   1.1362 B(  0-S ,  4-C ) :   1.1207 B(  1-C ,  2-C ) :   1.6149
B(  1-C , 32-H ) :   0.9695 B(  2-C ,  3-C ) :   1.2314 B(  2-C ,  6-C ) :   1.0355
B(  3-C ,  4-C ) :   1.6003 B(  3-C ,  5-H ) :   0.9914 B(  4-C , 20-C ) :   1.0328
B(  6-C ,  7-H ) :   0.9286 B(  6-C ,  8-H ) :   0.9487 B(  6-C ,  9-C ) :   1.0532
B(  9-C , 10-H ) :   0.9640 B(  9-C , 11-H ) :   0.9635 B(  9-C , 12-C ) :   1.0582
B( 12-C , 13-H ) :   0.9807 B( 12-C , 14-H ) :   0.9785 B( 12-C , 15-H ) :   0.9784
B( 16-S , 17-C ) :   1.1362 B( 16-S , 20-C ) :   1.1386 B( 17-C , 18-C ) :   1.6704
B( 17-C , 33-H ) :   0.9656 B( 18-C , 19-C ) :   1.1857 B( 18-C , 21-H ) :   0.9905
B( 19-C , 20-C ) :   1.6063 B( 19-C , 22-C ) :   1.0449 B( 22-C , 23-H ) :   0.9349
B( 22-C , 24-H ) :   0.9383 B( 22-C , 25-C ) :   1.0604 B( 25-C , 26-H ) :   0.9580
B( 25-C , 27-H ) :   0.9618 B( 25-C , 28-C ) :   1.0586 B( 28-C , 29-H ) :   0.9713
B( 28-C , 30-H ) :   0.9729 B( 28-C , 31-H ) :   0.9732

Dispersion correction           -0.014324456
FINAL SINGLE POINT ENERGY     -1339.870145582471

DIPOLE MOMENT
-------------
                                X             Y             Z
Electronic contribution:     -9.16259     -12.31593      22.24405
Nuclear contribution   :      9.32135      12.36103     -22.81544
                        -----------------------------------------
Total Dipole Moment    :      0.15876       0.04510      -0.57139
                        -----------------------------------------
Magnitude (a.u.)       :      0.59475
Magnitude (Debye)      :      1.51173

Rotational constants in cm-1:     0.020359     0.007770     0.006374
Rotational constants in MHz :   610.360831   232.931189   191.091260

                             ****ORCA TERMINATED NORMALLY****
TOTAL RUN TIME: 0 days 0 hours 0 minutes 21 seconds 357 msec
