                         Program Version 4.2.1 -  RELEASE  -
|  1> ! wB97X-D3 SP def2-SVP
|  2> %pal
|  3> nprocs 24
|  4> end
|  5>
|  6> * xyz 0 1
|  7> S 	 -83.1347 	 -4.58126 	 6.18242
|  8> C 	 -83.293 	 -4.58236 	 4.49723
|  9> C 	 -82.6624 	 -5.60026 	 3.86143
| 10> C 	 -81.8488 	 -6.36451 	 4.76898
| 11> C 	 -82.0835 	 -6.04037 	 6.09599
| 12> H 	 -81.2109 	 -7.21135 	 4.55685
| 13> C 	 -82.566 	 -5.73254 	 2.35721
| 14> H 	 -83.4933 	 -5.29398 	 1.95306
| 15> H 	 -82.6054 	 -6.70186 	 1.93083
| 16> C 	 -81.3616 	 -5.08097 	 1.65778
| 17> H 	 -81.6266 	 -4.96871 	 0.634038
| 18> H 	 -81.2382 	 -4.10524 	 2.14004
| 19> C 	 -80.0113 	 -5.87844 	 1.76418
| 20> H 	 -79.8849 	 -6.8629 	 1.35318
| 21> H 	 -79.1935 	 -5.38602 	 1.21335
| 22> H 	 -79.6555 	 -5.98785 	 2.81602
| 23> S 	 -82.3497 	 -7.47591 	 8.44083
| 24> C 	 -80.9333 	 -7.86254 	 9.34544
| 25> C 	 -79.7633 	 -7.50194 	 8.64686
| 26> C 	 -80.0245 	 -6.90328 	 7.41184
| 27> C 	 -81.3781 	 -6.68152 	 7.20929
| 28> H 	 -78.8156 	 -7.74521 	 9.06942
| 29> C 	 -78.9215 	 -6.35185 	 6.52829
| 30> H 	 -78.1505 	 -5.89329 	 7.24384
| 31> H 	 -79.3423 	 -5.57047 	 5.87311
| 32> C 	 -78.259 	 -7.36702 	 5.59066
| 33> H 	 -78.9101 	 -7.714 	 4.73894
| 34> H 	 -78.1328 	 -8.24675 	 6.09813
| 35> C 	 -76.8427 	 -6.99282 	 5.07845
| 36> H 	 -76.1536 	 -7.07073 	 5.9586
| 37> H 	 -76.7048 	 -5.99646 	 4.58705
| 38> H 	 -76.4832 	 -7.79518 	 4.41329
| 39> H 	 -83.8787 	 -3.92137 	 3.92505
| 40> H 	 -80.9167 	 -8.29938 	 10.3054
| 41> *
| 42>
| 43>                          ****END OF INPUT****

CARTESIAN COORDINATES (ANGSTROEM)
---------------------------------
  S    -83.134700   -4.581260    6.182420
  C    -83.293000   -4.582360    4.497230
  C    -82.662400   -5.600260    3.861430
  C    -81.848800   -6.364510    4.768980
  C    -82.083500   -6.040370    6.095990
  H    -81.210900   -7.211350    4.556850
  C    -82.566000   -5.732540    2.357210
  H    -83.493300   -5.293980    1.953060
  H    -82.605400   -6.701860    1.930830
  C    -81.361600   -5.080970    1.657780
  H    -81.626600   -4.968710    0.634038
  H    -81.238200   -4.105240    2.140040
  C    -80.011300   -5.878440    1.764180
  H    -79.884900   -6.862900    1.353180
  H    -79.193500   -5.386020    1.213350
  H    -79.655500   -5.987850    2.816020
  S    -82.349700   -7.475910    8.440830
  C    -80.933300   -7.862540    9.345440
  C    -79.763300   -7.501940    8.646860
  C    -80.024500   -6.903280    7.411840
  C    -81.378100   -6.681520    7.209290
  H    -78.815600   -7.745210    9.069420
  C    -78.921500   -6.351850    6.528290
  H    -78.150500   -5.893290    7.243840
  H    -79.342300   -5.570470    5.873110
  C    -78.259000   -7.367020    5.590660
  H    -78.910100   -7.714000    4.738940
  H    -78.132800   -8.246750    6.098130
  C    -76.842700   -6.992820    5.078450
  H    -76.153600   -7.070730    5.958600
  H    -76.704800   -5.996460    4.587050
  H    -76.483200   -7.795180    4.413290
  H    -83.878700   -3.921370    3.925050
  H    -80.916700   -8.299380   10.305400

 Total Charge           Charge          ....    0
 Multiplicity           Mult            ....    1
 Number of Electrons    NEL             ....  134
 Basis Dimension        Dim             ....  322

ORBITAL ENERGIES
----------------

  NO   OCC          E(Eh)            E(eV)
   0   2.0000     -88.968948     -2420.9682
   1   2.0000     -88.966450     -2420.9002
   2   2.0000     -10.329776      -281.0875
   3   2.0000     -10.324548      -280.9452
   4   2.0000     -10.314344      -280.6676
   5   2.0000     -10.306900      -280.4650
   6   2.0000     -10.300517      -280.2913
   7   2.0000     -10.297422      -280.2071
   8   2.0000     -10.296736      -280.1884
   9   2.0000     -10.294701      -280.1331
  10   2.0000     -10.291202      -280.0378
  11   2.0000     -10.290013      -280.0055
  12   2.0000     -10.288109      -279.9537
  13   2.0000     -10.287279      -279.9311
  14   2.0000     -10.285040      -279.8702
  15   2.0000     -10.281504      -279.7739
  16   2.0000      -8.083805      -219.9715
  17   2.0000      -8.081403      -219.9062
  18   2.0000      -6.042303      -164.4194
  19   2.0000      -6.039720      -164.3491
  20   2.0000      -6.038350      -164.3118
  21   2.0000      -6.035812      -164.2428
  22   2.0000      -6.034507      -164.2073
  23   2.0000      -6.032440      -164.1510
  24   2.0000      -1.007427       -27.4135
  25   2.0000      -0.988521       -26.8990
  26   2.0000      -0.908153       -24.7121
  27   2.0000      -0.907424       -24.6923
  28   2.0000      -0.870470       -23.6867
  29   2.0000      -0.853341       -23.2206
  30   2.0000      -0.845060       -22.9952
  31   2.0000      -0.813479       -22.1359
  32   2.0000      -0.783726       -21.3263
  33   2.0000      -0.772415       -21.0185
  34   2.0000      -0.705444       -19.1961
  35   2.0000      -0.702560       -19.1176
  36   2.0000      -0.696104       -18.9420
  37   2.0000      -0.665493       -18.1090
  38   2.0000      -0.645873       -17.5751
  39   2.0000      -0.617048       -16.7907
  40   2.0000      -0.597519       -16.2593
  41   2.0000      -0.578387       -15.7387
  42   2.0000      -0.559970       -15.2376
  43   2.0000      -0.543967       -14.8021
  44   2.0000      -0.534770       -14.5518
  45   2.0000      -0.522251       -14.2112
  46   2.0000      -0.513210       -13.9652
  47   2.0000      -0.510152       -13.8819
  48   2.0000      -0.505373       -13.7519
  49   2.0000      -0.496332       -13.5059
  50   2.0000      -0.490500       -13.3472
  51   2.0000      -0.483980       -13.1698
  52   2.0000      -0.469096       -12.7648
  53   2.0000      -0.467912       -12.7325
  54   2.0000      -0.462607       -12.5882
  55   2.0000      -0.448893       -12.2150
  56   2.0000      -0.444840       -12.1047
  57   2.0000      -0.437055       -11.8929
  58   2.0000      -0.433017       -11.7830
  59   2.0000      -0.425675       -11.5832
  60   2.0000      -0.422664       -11.5013
  61   2.0000      -0.418068       -11.3762
  62   2.0000      -0.413406       -11.2493
  63   2.0000      -0.343964        -9.3597
  64   2.0000      -0.334401        -9.0995
  65   2.0000      -0.329374        -8.9627
  66   2.0000      -0.295112        -8.0304
  67   0.0000       0.032931         0.8961
  68   0.0000       0.066174         1.8007
  69   0.0000       0.114559         3.1173
  70   0.0000       0.120816         3.2876
  71   0.0000       0.129874         3.5340

MULLIKEN ATOMIC CHARGES
-----------------------
   0 S :    0.128186
   1 C :   -0.084377
   2 C :   -0.071708
   3 C :    0.022482
   4 C :   -0.148900
   5 H :    0.012663
   6 C :    0.060043
   7 H :    0.013171
   8 H :    0.011498
   9 C :   -0.027365
  10 H :    0.029034
  11 H :    0.029695
  12 C :   -0.082557
  13 H :    0.021755
  14 H :    0.029944
  15 H :    0.034325
  16 S :    0.121885
  17 C :   -0.084120
  18 C :   -0.038119
  19 C :    0.007127
  20 C :   -0.193599
  21 H :    0.006169
  22 C :    0.038195
  23 H :    0.041628
  24 H :    0.040001
  25 C :   -0.053230
  26 H :    0.029498
  27 H :   -0.001763
  28 C :   -0.076021
  29 H :    0.031722
  30 H :    0.049507
  31 H :    0.035950
  32 H :    0.024113
  33 H :    0.043168
Sum of atomic charges:   -0.0000000

LOEWDIN ATOMIC CHARGES
----------------------
   0 S :    0.411425
   1 C :   -0.198705
   2 C :   -0.068255
   3 C :   -0.049331
   4 C :   -0.189016
   5 H :    0.030515
   6 C :   -0.035363
   7 H :    0.031405
   8 H :    0.023897
   9 C :   -0.027965
  10 H :    0.022390
  11 H :    0.027339
  12 C :   -0.081223
  13 H :    0.020773
  14 H :    0.029953
  15 H :    0.027787
  16 S :    0.421143
  17 C :   -0.187244
  18 C :   -0.067990
  19 C :   -0.058871
  20 C :   -0.199630
  21 H :    0.026757
  22 C :   -0.032122
  23 H :    0.040844
  24 H :    0.033458
  25 C :   -0.044493
  26 H :    0.025354
  27 H :    0.011150
  28 C :   -0.071412
  29 H :    0.027947
  30 H :    0.028588
  31 H :    0.029198
  32 H :    0.021026
  33 H :    0.020671

  Mayer bond orders larger than 0.100000
B(  0-S ,  1-C ) :   1.1478 B(  0-S ,  4-C ) :   1.1288 B(  1-C ,  2-C ) :   1.6299
B(  1-C , 32-H ) :   0.9617 B(  2-C ,  3-C ) :   1.2164 B(  2-C ,  6-C ) :   1.0456
B(  3-C ,  4-C ) :   1.5883 B(  3-C ,  5-H ) :   0.9954 B(  4-C , 20-C ) :   1.0374
B(  6-C ,  7-H ) :   0.9345 B(  6-C ,  8-H ) :   0.9390 B(  6-C ,  9-C ) :   1.0673
B(  9-C , 10-H ) :   0.9554 B(  9-C , 11-H ) :   0.9539 B(  9-C , 12-C ) :   1.0732
B( 12-C , 13-H ) :   0.9756 B( 12-C , 14-H ) :   0.9720 B( 12-C , 15-H ) :   0.9736
B( 16-S , 17-C ) :   1.1746 B( 16-S , 20-C ) :   1.1556 B( 17-C , 18-C ) :   1.5736
B( 17-C , 20-C ) :   0.1092 B( 17-C , 33-H ) :   0.9737 B( 18-C , 19-C ) :   1.2616
B( 18-C , 21-H ) :   0.9972 B( 19-C , 20-C ) :   1.5715 B( 19-C , 22-C ) :   1.0389
B( 22-C , 23-H ) :   0.9447 B( 22-C , 24-H ) :   0.9301 B( 22-C , 25-C ) :   1.0571
B( 25-C , 26-H ) :   0.9447 B( 25-C , 27-H ) :   0.9511 B( 25-C , 28-C ) :   1.0820
B( 28-C , 29-H ) :   0.9754 B( 28-C , 30-H ) :   0.9769 B( 28-C , 31-H ) :   0.9731

Dispersion correction           -0.015495510
FINAL SINGLE POINT ENERGY     -1339.879905067156

DIPOLE MOMENT
-------------
                                X             Y             Z
Electronic contribution:    -22.65780       1.64504      23.27677
Nuclear contribution   :     23.14269      -1.78077     -23.72055
                        -----------------------------------------
Total Dipole Moment    :      0.48488      -0.13573      -0.44378
                        -----------------------------------------
Magnitude (a.u.)       :      0.67117
Magnitude (Debye)      :      1.70599

Rotational constants in cm-1:     0.016449     0.010698     0.007047
Rotational constants in MHz :   493.123041   320.705221   211.278171

                             ****ORCA TERMINATED NORMALLY****
TOTAL RUN TIME: 0 days 0 hours 0 minutes 22 seconds 581 msec
