                         Program Version 4.2.1 -  RELEASE  -
|  1> ! wB97X-D3 SP def2-SVP
|  2> %pal
|  3> nprocs 24
|  4> end
|  5>
|  6> * xyz 0 1
|  7> S 	 -83.0041 	 -2.23652 	 -64.4964
|  8> C 	 -82.9081 	 -0.717176 	 -65.3849
|  9> C 	 -84.1314 	 -0.0312741 	 -65.278
| 10> C 	 -85.1316 	 -0.709276 	 -64.4954
| 11> C 	 -84.6748 	 -1.9763 	 -64.1803
| 12> H 	 -86.1428 	 -0.478954 	 -64.3219
| 13> C 	 -84.3799 	 1.22725 	 -66.0194
| 14> H 	 -84.6482 	 0.909062 	 -67.0249
| 15> H 	 -83.4413 	 1.71784 	 -66.1285
| 16> C 	 -85.4873 	 2.23614 	 -65.57
| 17> H 	 -85.6653 	 2.91697 	 -66.3953
| 18> H 	 -86.4191 	 1.74693 	 -65.3361
| 19> C 	 -85.0851 	 3.00724 	 -64.2787
| 20> H 	 -84.2509 	 3.68425 	 -64.3934
| 21> H 	 -85.8703 	 3.69358 	 -63.8488
| 22> H 	 -84.8678 	 2.3034 	 -63.4743
| 23> S 	 -84.8403 	 -3.87683 	 -62.1519
| 24> C 	 -86.3982 	 -4.68923 	 -61.9353
| 25> C 	 -87.2556 	 -4.50837 	 -62.9889
| 26> C 	 -86.7337 	 -3.51728 	 -63.868
| 27> C 	 -85.4593 	 -3.03903 	 -63.584
| 28> H 	 -88.2247 	 -4.97158 	 -62.917
| 29> C 	 -87.7198 	 -2.9735 	 -64.9394
| 30> H 	 -88.198 	 -3.8692 	 -65.3361
| 31> H 	 -87.0245 	 -2.54928 	 -65.6503
| 32> C 	 -88.7449 	 -1.91577 	 -64.4272
| 33> H 	 -89.1724 	 -1.36296 	 -65.3458
| 34> H 	 -88.2175 	 -1.1201 	 -63.8461
| 35> C 	 -89.8417 	 -2.34477 	 -63.4933
| 36> H 	 -89.4925 	 -2.92782 	 -62.705
| 37> H 	 -90.5951 	 -2.98945 	 -64.0547
| 38> H 	 -90.3445 	 -1.42673 	 -63.1696
| 39> H 	 -82.1477 	 -0.416508 	 -66.0492
| 40> H 	 -86.7191 	 -5.35582 	 -61.0984
| 41> *
| 42>
| 43>                          ****END OF INPUT****

CARTESIAN COORDINATES (ANGSTROEM)
---------------------------------
  S    -83.004100   -2.236520  -64.496400
  C    -82.908100   -0.717176  -65.384900
  C    -84.131400   -0.031274  -65.278000
  C    -85.131600   -0.709276  -64.495400
  C    -84.674800   -1.976300  -64.180300
  H    -86.142800   -0.478954  -64.321900
  C    -84.379900    1.227250  -66.019400
  H    -84.648200    0.909062  -67.024900
  H    -83.441300    1.717840  -66.128500
  C    -85.487300    2.236140  -65.570000
  H    -85.665300    2.916970  -66.395300
  H    -86.419100    1.746930  -65.336100
  C    -85.085100    3.007240  -64.278700
  H    -84.250900    3.684250  -64.393400
  H    -85.870300    3.693580  -63.848800
  H    -84.867800    2.303400  -63.474300
  S    -84.840300   -3.876830  -62.151900
  C    -86.398200   -4.689230  -61.935300
  C    -87.255600   -4.508370  -62.988900
  C    -86.733700   -3.517280  -63.868000
  C    -85.459300   -3.039030  -63.584000
  H    -88.224700   -4.971580  -62.917000
  C    -87.719800   -2.973500  -64.939400
  H    -88.198000   -3.869200  -65.336100
  H    -87.024500   -2.549280  -65.650300
  C    -88.744900   -1.915770  -64.427200
  H    -89.172400   -1.362960  -65.345800
  H    -88.217500   -1.120100  -63.846100
  C    -89.841700   -2.344770  -63.493300
  H    -89.492500   -2.927820  -62.705000
  H    -90.595100   -2.989450  -64.054700
  H    -90.344500   -1.426730  -63.169600
  H    -82.147700   -0.416508  -66.049200
  H    -86.719100   -5.355820  -61.098400

 Total Charge           Charge          ....    0
 Multiplicity           Mult            ....    1
 Number of Electrons    NEL             ....  134
 Basis Dimension        Dim             ....  322

ORBITAL ENERGIES
----------------

  NO   OCC          E(Eh)            E(eV)
   0   2.0000     -88.967322     -2420.9239
   1   2.0000     -88.966525     -2420.9022
   2   2.0000     -10.329288      -281.0742
   3   2.0000     -10.327177      -281.0168
   4   2.0000     -10.321579      -280.8644
   5   2.0000     -10.310376      -280.5596
   6   2.0000     -10.304760      -280.4068
   7   2.0000     -10.304710      -280.4054
   8   2.0000     -10.298086      -280.2252
   9   2.0000     -10.293010      -280.0871
  10   2.0000     -10.292911      -280.0844
  11   2.0000     -10.292574      -280.0752
  12   2.0000     -10.292317      -280.0682
  13   2.0000     -10.288209      -279.9564
  14   2.0000     -10.279257      -279.7128
  15   2.0000     -10.278965      -279.7049
  16   2.0000      -8.082382      -219.9328
  17   2.0000      -8.080706      -219.8872
  18   2.0000      -6.040876      -164.3806
  19   2.0000      -6.039353      -164.3391
  20   2.0000      -6.036859      -164.2713
  21   2.0000      -6.035340      -164.2300
  22   2.0000      -6.033126      -164.1697
  23   2.0000      -6.031290      -164.1197
  24   2.0000      -1.008000       -27.4291
  25   2.0000      -0.983237       -26.7552
  26   2.0000      -0.911757       -24.8102
  27   2.0000      -0.904993       -24.6261
  28   2.0000      -0.870191       -23.6791
  29   2.0000      -0.851965       -23.1831
  30   2.0000      -0.845070       -22.9955
  31   2.0000      -0.820894       -22.3377
  32   2.0000      -0.784809       -21.3557
  33   2.0000      -0.770244       -20.9594
  34   2.0000      -0.714271       -19.4363
  35   2.0000      -0.699583       -19.0366
  36   2.0000      -0.686417       -18.6784
  37   2.0000      -0.660232       -17.9658
  38   2.0000      -0.643900       -17.5214
  39   2.0000      -0.623882       -16.9767
  40   2.0000      -0.582746       -15.8573
  41   2.0000      -0.572007       -15.5651
  42   2.0000      -0.552628       -15.0378
  43   2.0000      -0.549631       -14.9562
  44   2.0000      -0.546339       -14.8666
  45   2.0000      -0.539444       -14.6790
  46   2.0000      -0.523405       -14.2426
  47   2.0000      -0.516967       -14.0674
  48   2.0000      -0.504277       -13.7221
  49   2.0000      -0.500226       -13.6118
  50   2.0000      -0.492282       -13.3957
  51   2.0000      -0.473726       -12.8907
  52   2.0000      -0.470446       -12.8015
  53   2.0000      -0.468704       -12.7541
  54   2.0000      -0.461745       -12.5647
  55   2.0000      -0.452632       -12.3168
  56   2.0000      -0.442893       -12.0517
  57   2.0000      -0.437780       -11.9126
  58   2.0000      -0.431475       -11.7410
  59   2.0000      -0.426930       -11.6174
  60   2.0000      -0.423676       -11.5288
  61   2.0000      -0.419874       -11.4254
  62   2.0000      -0.403050       -10.9675
  63   2.0000      -0.349165        -9.5013
  64   2.0000      -0.332462        -9.0468
  65   2.0000      -0.328633        -8.9426
  66   2.0000      -0.287234        -7.8160
  67   0.0000       0.028862         0.7854
  68   0.0000       0.064292         1.7495
  69   0.0000       0.104051         2.8314
  70   0.0000       0.122086         3.3221
  71   0.0000       0.129214         3.5161

MULLIKEN ATOMIC CHARGES
-----------------------
   0 S :    0.116658
   1 C :   -0.104647
   2 C :   -0.094273
   3 C :    0.066142
   4 C :   -0.155819
   5 H :   -0.029449
   6 C :    0.059252
   7 H :    0.039601
   8 H :    0.015230
   9 C :   -0.042517
  10 H :    0.031652
  11 H :    0.027503
  12 C :   -0.082442
  13 H :    0.027323
  14 H :    0.035398
  15 H :    0.039679
  16 S :    0.101510
  17 C :   -0.108035
  18 C :   -0.036805
  19 C :   -0.072360
  20 C :   -0.138081
  21 H :    0.026677
  22 C :    0.085146
  23 H :    0.029318
  24 H :    0.030501
  25 C :   -0.114991
  26 H :    0.044575
  27 H :    0.038809
  28 C :   -0.032474
  29 H :    0.026709
  30 H :    0.029609
  31 H :    0.041377
  32 H :    0.032664
  33 H :    0.066555
Sum of atomic charges:   -0.0000000

LOEWDIN ATOMIC CHARGES
----------------------
   0 S :    0.414696
   1 C :   -0.202880
   2 C :   -0.048541
   3 C :   -0.062246
   4 C :   -0.187952
   5 H :    0.021689
   6 C :   -0.035078
   7 H :    0.038404
   8 H :    0.027221
   9 C :   -0.033441
  10 H :    0.026811
  11 H :    0.021686
  12 C :   -0.074278
  13 H :    0.020588
  14 H :    0.030092
  15 H :    0.026755
  16 S :    0.383583
  17 C :   -0.177007
  18 C :   -0.079092
  19 C :   -0.053762
  20 C :   -0.201007
  21 H :    0.034544
  22 C :   -0.030464
  23 H :    0.030414
  24 H :    0.029381
  25 C :   -0.049316
  26 H :    0.033369
  27 H :    0.024317
  28 C :   -0.063521
  29 H :    0.013916
  30 H :    0.028387
  31 H :    0.033136
  32 H :    0.020628
  33 H :    0.038967

  Mayer bond orders larger than 0.100000
B(  0-S ,  1-C ) :   1.1144 B(  0-S ,  4-C ) :   1.1751 B(  1-C ,  2-C ) :   1.6145
B(  1-C , 32-H ) :   0.9770 B(  2-C ,  3-C ) :   1.2084 B(  2-C ,  6-C ) :   1.0242
B(  3-C ,  4-C ) :   1.5600 B(  3-C ,  5-H ) :   1.0024 B(  4-C , 20-C ) :   1.0370
B(  6-C ,  7-H ) :   0.9286 B(  6-C ,  8-H ) :   0.9386 B(  6-C ,  9-C ) :   1.0797
B(  9-C , 10-H ) :   0.9547 B(  9-C , 11-H ) :   0.9534 B(  9-C , 12-C ) :   1.0704
B( 12-C , 13-H ) :   0.9774 B( 12-C , 14-H ) :   0.9763 B( 12-C , 15-H ) :   0.9779
B( 16-S , 17-C ) :   1.1501 B( 16-S , 20-C ) :   1.1111 B( 17-C , 18-C ) :   1.6433
B( 17-C , 33-H ) :   0.9558 B( 18-C , 19-C ) :   1.2133 B( 18-C , 21-H ) :   0.9876
B( 19-C , 20-C ) :   1.6288 B( 19-C , 22-C ) :   1.0307 B( 22-C , 23-H ) :   0.9404
B( 22-C , 24-H ) :   0.9300 B( 22-C , 25-C ) :   1.0593 B( 25-C , 26-H ) :   0.9552
B( 25-C , 27-H ) :   0.9488 B( 25-C , 28-C ) :   1.0837 B( 28-C , 29-H ) :   0.9689
B( 28-C , 30-H ) :   0.9733 B( 28-C , 31-H ) :   0.9701

Dispersion correction           -0.014968949
FINAL SINGLE POINT ENERGY     -1339.871722628121

DIPOLE MOMENT
-------------
                                X             Y             Z
Electronic contribution:     20.16346     -19.98073       6.99012
Nuclear contribution   :    -20.81323      20.31696      -7.28222
                        -----------------------------------------
Total Dipole Moment    :     -0.64978       0.33622      -0.29209
                        -----------------------------------------
Magnitude (a.u.)       :      0.78776
Magnitude (Debye)      :      2.00233

Rotational constants in cm-1:     0.017738     0.009697     0.007063
Rotational constants in MHz :   531.775264   290.694958   211.728826

                             ****ORCA TERMINATED NORMALLY****
TOTAL RUN TIME: 0 days 0 hours 0 minutes 22 seconds 350 msec
