                         Program Version 4.2.1 -  RELEASE  -
|  1> ! wB97X-D3 SP def2-SVP
|  2> %pal
|  3> nprocs 24
|  4> end
|  5>
|  6> * xyz 0 1
|  7> S 	 24.1282 	 1.35028 	 -108.733
|  8> C 	 23.2872 	 -0.184239 	 -108.435
|  9> C 	 22.868 	 -0.771106 	 -109.614
| 10> C 	 23.3062 	 -0.0272451 	 -110.764
| 11> C 	 24.1083 	 1.04833 	 -110.46
| 12> H 	 23.0423 	 -0.321982 	 -111.797
| 13> C 	 22.0446 	 -2.12228 	 -109.721
| 14> H 	 21.4184 	 -1.96282 	 -110.616
| 15> H 	 21.3276 	 -2.17408 	 -108.923
| 16> C 	 22.7377 	 -3.5601 	 -109.911
| 17> H 	 22.0762 	 -4.33822 	 -110.269
| 18> H 	 23.4136 	 -3.41589 	 -110.811
| 19> C 	 23.5472 	 -3.99875 	 -108.729
| 20> H 	 24.0633 	 -4.90034 	 -108.94
| 21> H 	 24.1804 	 -3.14074 	 -108.479
| 22> H 	 22.7741 	 -4.10311 	 -107.967
| 23> S 	 24.2585 	 3.65741 	 -111.353
| 24> C 	 24.976 	 4.01953 	 -112.858
| 25> C 	 25.4723 	 2.84358 	 -113.455
| 26> C 	 25.2723 	 1.63434 	 -112.692
| 27> C 	 24.7069 	 1.96124 	 -111.427
| 28> H 	 25.9268 	 3.05941 	 -114.399
| 29> C 	 25.4917 	 0.224995 	 -113.242
| 30> H 	 25.1087 	 0.286355 	 -114.232
| 31> H 	 24.795 	 -0.448565 	 -112.739
| 32> C 	 26.9403 	 -0.337862 	 -113.276
| 33> H 	 27.3523 	 -0.362014 	 -112.309
| 34> H 	 27.6025 	 0.261356 	 -113.914
| 35> C 	 26.9288 	 -1.72412 	 -113.89
| 36> H 	 26.6646 	 -1.5139 	 -114.967
| 37> H 	 26.268 	 -2.4162 	 -113.452
| 38> H 	 27.9487 	 -2.18528 	 -113.807
| 39> H 	 23.1641 	 -0.53585 	 -107.43
| 40> H 	 25.0824 	 4.9931 	 -113.396
| 41> *
| 42>
| 43>                          ****END OF INPUT****

CARTESIAN COORDINATES (ANGSTROEM)
---------------------------------
  S     24.128200    1.350280  -108.733000
  C     23.287200   -0.184239  -108.435000
  C     22.868000   -0.771106  -109.614000
  C     23.306200   -0.027245  -110.764000
  C     24.108300    1.048330  -110.460000
  H     23.042300   -0.321982  -111.797000
  C     22.044600   -2.122280  -109.721000
  H     21.418400   -1.962820  -110.616000
  H     21.327600   -2.174080  -108.923000
  C     22.737700   -3.560100  -109.911000
  H     22.076200   -4.338220  -110.269000
  H     23.413600   -3.415890  -110.811000
  C     23.547200   -3.998750  -108.729000
  H     24.063300   -4.900340  -108.940000
  H     24.180400   -3.140740  -108.479000
  H     22.774100   -4.103110  -107.967000
  S     24.258500    3.657410  -111.353000
  C     24.976000    4.019530  -112.858000
  C     25.472300    2.843580  -113.455000
  C     25.272300    1.634340  -112.692000
  C     24.706900    1.961240  -111.427000
  H     25.926800    3.059410  -114.399000
  C     25.491700    0.224995  -113.242000
  H     25.108700    0.286355  -114.232000
  H     24.795000   -0.448565  -112.739000
  C     26.940300   -0.337862  -113.276000
  H     27.352300   -0.362014  -112.309000
  H     27.602500    0.261356  -113.914000
  C     26.928800   -1.724120  -113.890000
  H     26.664600   -1.513900  -114.967000
  H     26.268000   -2.416200  -113.452000
  H     27.948700   -2.185280  -113.807000
  H     23.164100   -0.535850  -107.430000
  H     25.082400    4.993100  -113.396000

 Total Charge           Charge          ....    0
 Multiplicity           Mult            ....    1
 Number of Electrons    NEL             ....  134
 Basis Dimension        Dim             ....  322

ORBITAL ENERGIES
----------------

  NO   OCC          E(Eh)            E(eV)
   0   2.0000     -88.968125     -2420.9458
   1   2.0000     -88.967029     -2420.9159
   2   2.0000     -10.331188      -281.1259
   3   2.0000     -10.328690      -281.0579
   4   2.0000     -10.319233      -280.8006
   5   2.0000     -10.318104      -280.7699
   6   2.0000     -10.312094      -280.6064
   7   2.0000     -10.310963      -280.5756
   8   2.0000     -10.302203      -280.3372
   9   2.0000     -10.298451      -280.2351
  10   2.0000     -10.294543      -280.1288
  11   2.0000     -10.292778      -280.0807
  12   2.0000     -10.291501      -280.0460
  13   2.0000     -10.282754      -279.8080
  14   2.0000     -10.279256      -279.7128
  15   2.0000     -10.273084      -279.5448
  16   2.0000      -8.083136      -219.9533
  17   2.0000      -8.081544      -219.9100
  18   2.0000      -6.041565      -164.3993
  19   2.0000      -6.040059      -164.3584
  20   2.0000      -6.037480      -164.2882
  21   2.0000      -6.036182      -164.2529
  22   2.0000      -6.034085      -164.1958
  23   2.0000      -6.032214      -164.1449
  24   2.0000      -1.005256       -27.3544
  25   2.0000      -0.981522       -26.7086
  26   2.0000      -0.910079       -24.7645
  27   2.0000      -0.902906       -24.5693
  28   2.0000      -0.869604       -23.6631
  29   2.0000      -0.855344       -23.2751
  30   2.0000      -0.845674       -23.0120
  31   2.0000      -0.810915       -22.0661
  32   2.0000      -0.783420       -21.3179
  33   2.0000      -0.771585       -20.9959
  34   2.0000      -0.706072       -19.2132
  35   2.0000      -0.695934       -18.9373
  36   2.0000      -0.692826       -18.8528
  37   2.0000      -0.656050       -17.8520
  38   2.0000      -0.638561       -17.3761
  39   2.0000      -0.623178       -16.9575
  40   2.0000      -0.589179       -16.0324
  41   2.0000      -0.572972       -15.5914
  42   2.0000      -0.564369       -15.3573
  43   2.0000      -0.553332       -15.0569
  44   2.0000      -0.542986       -14.7754
  45   2.0000      -0.527300       -14.3486
  46   2.0000      -0.519340       -14.1320
  47   2.0000      -0.513021       -13.9600
  48   2.0000      -0.500205       -13.6113
  49   2.0000      -0.494469       -13.4552
  50   2.0000      -0.488106       -13.2820
  51   2.0000      -0.483094       -13.1456
  52   2.0000      -0.470104       -12.7922
  53   2.0000      -0.464049       -12.6274
  54   2.0000      -0.460833       -12.5399
  55   2.0000      -0.448409       -12.2018
  56   2.0000      -0.438017       -11.9190
  57   2.0000      -0.435993       -11.8640
  58   2.0000      -0.434213       -11.8155
  59   2.0000      -0.428304       -11.6547
  60   2.0000      -0.422732       -11.5031
  61   2.0000      -0.417383       -11.3576
  62   2.0000      -0.410406       -11.1677
  63   2.0000      -0.348775        -9.4906
  64   2.0000      -0.332925        -9.0593
  65   2.0000      -0.329290        -8.9604
  66   2.0000      -0.290134        -7.8950
  67   0.0000       0.026761         0.7282
  68   0.0000       0.069012         1.8779
  69   0.0000       0.106591         2.9005
  70   0.0000       0.113013         3.0752
  71   0.0000       0.127639         3.4732

MULLIKEN ATOMIC CHARGES
-----------------------
   0 S :    0.101111
   1 C :   -0.125466
   2 C :   -0.081304
   3 C :    0.010682
   4 C :   -0.154553
   5 H :    0.035748
   6 C :    0.046843
   7 H :    0.026574
   8 H :    0.022157
   9 C :   -0.093343
  10 H :    0.031832
  11 H :    0.019458
  12 C :   -0.014888
  13 H :    0.038719
  14 H :    0.040605
  15 H :    0.022127
  16 S :    0.119231
  17 C :   -0.118394
  18 C :   -0.051060
  19 C :   -0.030843
  20 C :   -0.129325
  21 H :    0.008997
  22 C :    0.075009
  23 H :    0.012774
  24 H :    0.003723
  25 C :   -0.032468
  26 H :    0.025321
  27 H :    0.027941
  28 C :   -0.061873
  29 H :    0.034770
  30 H :    0.025961
  31 H :    0.041958
  32 H :    0.047664
  33 H :    0.074313
Sum of atomic charges:   -0.0000000

LOEWDIN ATOMIC CHARGES
----------------------
   0 S :    0.391158
   1 C :   -0.181534
   2 C :   -0.062919
   3 C :   -0.066268
   4 C :   -0.191667
   5 H :    0.035949
   6 C :   -0.030235
   7 H :    0.034023
   8 H :    0.022269
   9 C :   -0.043562
  10 H :    0.021790
  11 H :    0.021514
  12 C :   -0.062209
  13 H :    0.023454
  14 H :    0.030753
  15 H :    0.024949
  16 S :    0.428920
  17 C :   -0.214418
  18 C :   -0.075936
  19 C :   -0.046417
  20 C :   -0.206234
  21 H :    0.026645
  22 C :   -0.029708
  23 H :    0.028257
  24 H :    0.027618
  25 C :   -0.030884
  26 H :    0.017701
  27 H :    0.026323
  28 C :   -0.065041
  29 H :    0.031403
  30 H :    0.014378
  31 H :    0.032163
  32 H :    0.023649
  33 H :    0.044119

  Mayer bond orders larger than 0.100000
B(  0-S ,  1-C ) :   1.1315 B(  0-S ,  4-C ) :   1.1474 B(  1-C ,  2-C ) :   1.6130
B(  1-C , 32-H ) :   0.9771 B(  2-C ,  3-C ) :   1.2436 B(  2-C ,  6-C ) :   1.0069
B(  3-C ,  4-C ) :   1.5783 B(  3-C ,  5-H ) :   0.9757 B(  4-C , 20-C ) :   1.0339
B(  6-C ,  7-H ) :   0.9417 B(  6-C ,  8-H ) :   0.9509 B(  6-C ,  9-C ) :   1.0530
B(  9-C , 10-H ) :   0.9573 B(  9-C , 11-H ) :   0.9550 B(  9-C , 12-C ) :   1.0742
B( 12-C , 13-H ) :   0.9720 B( 12-C , 14-H ) :   0.9749 B( 12-C , 15-H ) :   0.9764
B( 16-S , 17-C ) :   1.1702 B( 16-S , 20-C ) :   1.1603 B( 17-C , 18-C ) :   1.5984
B( 17-C , 20-C ) :   0.1011 B( 17-C , 33-H ) :   0.9612 B( 18-C , 19-C ) :   1.2456
B( 18-C , 21-H ) :   0.9959 B( 19-C , 20-C ) :   1.5520 B( 19-C , 22-C ) :   1.0363
B( 22-C , 23-H ) :   0.9291 B( 22-C , 24-H ) :   0.9291 B( 22-C , 25-C ) :   1.0664
B( 25-C , 26-H ) :   0.9549 B( 25-C , 27-H ) :   0.9568 B( 25-C , 28-C ) :   1.0815
B( 28-C , 29-H ) :   0.9767 B( 28-C , 30-H ) :   0.9766 B( 28-C , 31-H ) :   0.9731

Dispersion correction           -0.013878805
FINAL SINGLE POINT ENERGY     -1339.869948549096

DIPOLE MOMENT
-------------
                                X             Y             Z
Electronic contribution:     -3.54822      29.81419       9.18275
Nuclear contribution   :      3.45096     -30.34277      -9.66131
                        -----------------------------------------
Total Dipole Moment    :     -0.09726      -0.52858      -0.47856
                        -----------------------------------------
Magnitude (a.u.)       :      0.71963
Magnitude (Debye)      :      1.82916

Rotational constants in cm-1:     0.017126     0.009234     0.006583
Rotational constants in MHz :   513.422990   276.818908   197.367952

                             ****ORCA TERMINATED NORMALLY****
TOTAL RUN TIME: 0 days 0 hours 0 minutes 21 seconds 468 msec
