                         Program Version 4.2.1 -  RELEASE  -
|  1> ! wB97X-D3 SP def2-SVP
|  2> %pal
|  3> nprocs 24
|  4> end
|  5>
|  6> * xyz 0 1
|  7> S 	 37.249 	 -34.9497 	 -115.448
|  8> C 	 36.5871 	 -35.9919 	 -116.565
|  9> C 	 37.4158 	 -36.1121 	 -117.676
| 10> C 	 38.6667 	 -35.4269 	 -117.541
| 11> C 	 38.7049 	 -34.6352 	 -116.413
| 12> H 	 39.5688 	 -35.4268 	 -118.162
| 13> C 	 37.0655 	 -36.8433 	 -118.896
| 14> H 	 36.5329 	 -37.7155 	 -118.624
| 15> H 	 38.018 	 -37.1107 	 -119.4
| 16> C 	 36.2758 	 -36.0848 	 -119.892
| 17> H 	 35.7806 	 -36.8424 	 -120.38
| 18> H 	 35.4863 	 -35.3379 	 -119.472
| 19> C 	 37.1169 	 -35.378 	 -120.92
| 20> H 	 37.6014 	 -36.1278 	 -121.547
| 21> H 	 36.3961 	 -34.7993 	 -121.556
| 22> H 	 37.784 	 -34.6463 	 -120.488
| 23> S 	 40.1705 	 -32.3448 	 -116.55
| 24> C 	 41.4553 	 -31.9383 	 -115.376
| 25> C 	 41.7163 	 -33.0264 	 -114.576
| 26> C 	 40.7244 	 -34.1124 	 -114.775
| 27> C 	 39.8283 	 -33.8955 	 -115.833
| 28> H 	 42.6346 	 -33.0528 	 -113.889
| 29> C 	 40.9377 	 -35.4075 	 -114.099
| 30> H 	 40.0108 	 -35.5868 	 -113.528
| 31> H 	 41.7576 	 -35.1361 	 -113.396
| 32> C 	 41.2544 	 -36.5822 	 -115.076
| 33> H 	 40.5094 	 -36.7596 	 -115.898
| 34> H 	 41.4359 	 -37.4735 	 -114.627
| 35> C 	 42.5787 	 -36.376 	 -115.852
| 36> H 	 42.662 	 -37.0382 	 -116.719
| 37> H 	 43.4487 	 -36.5398 	 -115.224
| 38> H 	 42.7386 	 -35.3738 	 -116.161
| 39> H 	 35.5732 	 -36.2629 	 -116.472
| 40> H 	 42.2185 	 -31.209 	 -115.563
| 41> *
| 42>
| 43>                          ****END OF INPUT****

CARTESIAN COORDINATES (ANGSTROEM)
---------------------------------
  S     37.249000  -34.949700  -115.448000
  C     36.587100  -35.991900  -116.565000
  C     37.415800  -36.112100  -117.676000
  C     38.666700  -35.426900  -117.541000
  C     38.704900  -34.635200  -116.413000
  H     39.568800  -35.426800  -118.162000
  C     37.065500  -36.843300  -118.896000
  H     36.532900  -37.715500  -118.624000
  H     38.018000  -37.110700  -119.400000
  C     36.275800  -36.084800  -119.892000
  H     35.780600  -36.842400  -120.380000
  H     35.486300  -35.337900  -119.472000
  C     37.116900  -35.378000  -120.920000
  H     37.601400  -36.127800  -121.547000
  H     36.396100  -34.799300  -121.556000
  H     37.784000  -34.646300  -120.488000
  S     40.170500  -32.344800  -116.550000
  C     41.455300  -31.938300  -115.376000
  C     41.716300  -33.026400  -114.576000
  C     40.724400  -34.112400  -114.775000
  C     39.828300  -33.895500  -115.833000
  H     42.634600  -33.052800  -113.889000
  C     40.937700  -35.407500  -114.099000
  H     40.010800  -35.586800  -113.528000
  H     41.757600  -35.136100  -113.396000
  C     41.254400  -36.582200  -115.076000
  H     40.509400  -36.759600  -115.898000
  H     41.435900  -37.473500  -114.627000
  C     42.578700  -36.376000  -115.852000
  H     42.662000  -37.038200  -116.719000
  H     43.448700  -36.539800  -115.224000
  H     42.738600  -35.373800  -116.161000
  H     35.573200  -36.262900  -116.472000
  H     42.218500  -31.209000  -115.563000

 Total Charge           Charge          ....    0
 Multiplicity           Mult            ....    1
 Number of Electrons    NEL             ....  134
 Basis Dimension        Dim             ....  322

ORBITAL ENERGIES
----------------

  NO   OCC          E(Eh)            E(eV)
   0   2.0000     -88.964435     -2420.8454
   1   2.0000     -88.961416     -2420.7632
   2   2.0000     -10.330991      -281.1206
   3   2.0000     -10.328167      -281.0437
   4   2.0000     -10.317755      -280.7604
   5   2.0000     -10.308548      -280.5099
   6   2.0000     -10.306550      -280.4555
   7   2.0000     -10.305665      -280.4314
   8   2.0000     -10.299925      -280.2752
   9   2.0000     -10.299463      -280.2626
  10   2.0000     -10.291577      -280.0480
  11   2.0000     -10.280347      -279.7425
  12   2.0000     -10.280160      -279.7374
  13   2.0000     -10.278262      -279.6857
  14   2.0000     -10.276409      -279.6353
  15   2.0000     -10.266573      -279.3677
  16   2.0000      -8.080419      -219.8794
  17   2.0000      -8.075854      -219.7551
  18   2.0000      -6.038682      -164.3209
  19   2.0000      -6.034529      -164.2079
  20   2.0000      -6.034521      -164.2077
  21   2.0000      -6.031574      -164.1275
  22   2.0000      -6.030267      -164.0919
  23   2.0000      -6.026581      -163.9916
  24   2.0000      -1.009949       -27.4821
  25   2.0000      -0.984303       -26.7842
  26   2.0000      -0.926279       -25.2053
  27   2.0000      -0.904885       -24.6232
  28   2.0000      -0.875261       -23.8171
  29   2.0000      -0.854615       -23.2553
  30   2.0000      -0.842629       -22.9291
  31   2.0000      -0.821896       -22.3649
  32   2.0000      -0.780704       -21.2440
  33   2.0000      -0.764177       -20.7943
  34   2.0000      -0.710237       -19.3265
  35   2.0000      -0.699291       -19.0287
  36   2.0000      -0.689015       -18.7490
  37   2.0000      -0.661753       -18.0072
  38   2.0000      -0.654110       -17.7992
  39   2.0000      -0.612559       -16.6686
  40   2.0000      -0.583361       -15.8740
  41   2.0000      -0.575412       -15.6578
  42   2.0000      -0.561303       -15.2738
  43   2.0000      -0.552985       -15.0475
  44   2.0000      -0.548583       -14.9277
  45   2.0000      -0.542511       -14.7625
  46   2.0000      -0.519806       -14.1446
  47   2.0000      -0.514777       -14.0078
  48   2.0000      -0.511617       -13.9218
  49   2.0000      -0.493867       -13.4388
  50   2.0000      -0.484995       -13.1974
  51   2.0000      -0.479412       -13.0455
  52   2.0000      -0.470246       -12.7960
  53   2.0000      -0.465808       -12.6753
  54   2.0000      -0.460659       -12.5352
  55   2.0000      -0.439849       -11.9689
  56   2.0000      -0.437941       -11.9170
  57   2.0000      -0.432775       -11.7764
  58   2.0000      -0.429194       -11.6790
  59   2.0000      -0.423272       -11.5178
  60   2.0000      -0.419306       -11.4099
  61   2.0000      -0.414294       -11.2735
  62   2.0000      -0.410254       -11.1636
  63   2.0000      -0.344720        -9.3803
  64   2.0000      -0.332652        -9.0519
  65   2.0000      -0.315701        -8.5907
  66   2.0000      -0.303575        -8.2607
  67   0.0000       0.034545         0.9400
  68   0.0000       0.057855         1.5743
  69   0.0000       0.105783         2.8785
  70   0.0000       0.120631         3.2825
  71   0.0000       0.125057         3.4030

MULLIKEN ATOMIC CHARGES
-----------------------
   0 S :    0.122786
   1 C :   -0.095922
   2 C :   -0.104616
   3 C :    0.045880
   4 C :   -0.168432
   5 H :    0.026874
   6 C :    0.090435
   7 H :    0.011534
   8 H :    0.017106
   9 C :   -0.056121
  10 H :    0.003796
  11 H :    0.042405
  12 C :   -0.057763
  13 H :    0.032964
  14 H :    0.033337
  15 H :    0.038502
  16 S :    0.088521
  17 C :   -0.076789
  18 C :   -0.081210
  19 C :   -0.078474
  20 C :   -0.172771
  21 H :    0.060248
  22 C :    0.078030
  23 H :    0.041757
  24 H :    0.021885
  25 C :   -0.020725
  26 H :    0.048303
  27 H :    0.008502
  28 C :   -0.071939
  29 H :    0.031365
  30 H :    0.014831
  31 H :    0.022801
  32 H :    0.041539
  33 H :    0.061360
Sum of atomic charges:   -0.0000000

LOEWDIN ATOMIC CHARGES
----------------------
   0 S :    0.441280
   1 C :   -0.213116
   2 C :   -0.064911
   3 C :   -0.060063
   4 C :   -0.197980
   5 H :    0.038751
   6 C :   -0.034676
   7 H :    0.026122
   8 H :    0.035838
   9 C :   -0.043810
  10 H :    0.014429
  11 H :    0.033995
  12 C :   -0.063738
  13 H :    0.024088
  14 H :    0.031872
  15 H :    0.022439
  16 S :    0.396431
  17 C :   -0.182917
  18 C :   -0.079384
  19 C :   -0.060249
  20 C :   -0.208576
  21 H :    0.047493
  22 C :   -0.037186
  23 H :    0.037338
  24 H :    0.034092
  25 C :   -0.030699
  26 H :    0.035736
  27 H :    0.010218
  28 C :   -0.065485
  29 H :    0.025543
  30 H :    0.019483
  31 H :    0.016627
  32 H :    0.021933
  33 H :    0.029080

  Mayer bond orders larger than 0.100000
B(  0-S ,  1-C ) :   1.1775 B(  0-S ,  4-C ) :   1.1677 B(  1-C ,  2-C ) :   1.5604
B(  1-C ,  4-C ) :   0.1009 B(  1-C , 32-H ) :   0.9762 B(  2-C ,  3-C ) :   1.2527
B(  2-C ,  6-C ) :   1.0501 B(  3-C ,  4-C ) :   1.5684 B(  3-C ,  5-H ) :   0.9867
B(  4-C , 20-C ) :   1.0038 B(  6-C ,  7-H ) :   0.9320 B(  6-C ,  8-H ) :   0.9306
B(  6-C ,  9-C ) :   1.0650 B(  9-C , 10-H ) :   0.9475 B(  9-C , 11-H ) :   0.9553
B(  9-C , 12-C ) :   1.0956 B( 12-C , 13-H ) :   0.9723 B( 12-C , 14-H ) :   0.9713
B( 12-C , 15-H ) :   0.9754 B( 16-S , 17-C ) :   1.1470 B( 16-S , 20-C ) :   1.1449
B( 17-C , 18-C ) :   1.6404 B( 17-C , 33-H ) :   0.9594 B( 18-C , 19-C ) :   1.2295
B( 18-C , 21-H ) :   0.9660 B( 19-C , 20-C ) :   1.5904 B( 19-C , 22-C ) :   1.0490
B( 22-C , 23-H ) :   0.9210 B( 22-C , 24-H ) :   0.9400 B( 22-C , 25-C ) :   1.0637
B( 25-C , 26-H ) :   0.9583 B( 25-C , 27-H ) :   0.9574 B( 25-C , 28-C ) :   1.0608
B( 28-C , 29-H ) :   0.9762 B( 28-C , 30-H ) :   0.9762 B( 28-C , 31-H ) :   0.9787

Dispersion correction           -0.015809500
FINAL SINGLE POINT ENERGY     -1339.854942635557

DIPOLE MOMENT
-------------
                                X             Y             Z
Electronic contribution:     -4.71572      14.75981      12.20123
Nuclear contribution   :      4.87464     -15.27362     -12.45632
                        -----------------------------------------
Total Dipole Moment    :      0.15892      -0.51381      -0.25510
                        -----------------------------------------
Magnitude (a.u.)       :      0.59526
Magnitude (Debye)      :      1.51302

Rotational constants in cm-1:     0.021236     0.008443     0.007921
Rotational constants in MHz :   636.652441   253.103844   237.458252

                             ****ORCA TERMINATED NORMALLY****
TOTAL RUN TIME: 0 days 0 hours 0 minutes 22 seconds 441 msec
