                         Program Version 4.2.1 -  RELEASE  -
|  1> ! wB97X-D3 SP def2-SVP
|  2> %pal
|  3> nprocs 24
|  4> end
|  5>
|  6> * xyz 0 1
|  7> S 	 -126.075 	 24.6759 	 -110.467
|  8> C 	 -124.394 	 24.3185 	 -110.115
|  9> C 	 -123.551 	 24.8984 	 -111.073
| 10> C 	 -124.284 	 25.6123 	 -112.045
| 11> C 	 -125.691 	 25.5264 	 -111.911
| 12> H 	 -123.692 	 25.9929 	 -112.934
| 13> C 	 -122.06 	 24.7705 	 -111.099
| 14> H 	 -121.776 	 24.6682 	 -112.141
| 15> H 	 -121.748 	 23.8726 	 -110.529
| 16> C 	 -121.233 	 25.8588 	 -110.342
| 17> H 	 -121.452 	 25.8143 	 -109.281
| 18> H 	 -120.177 	 25.6562 	 -110.443
| 19> C 	 -121.267 	 27.3775 	 -110.935
| 20> H 	 -120.732 	 27.4845 	 -111.913
| 21> H 	 -122.201 	 27.945 	 -111.086
| 22> H 	 -120.693 	 28.0052 	 -110.283
| 23> S 	 -128.281 	 25.1343 	 -112.863
| 24> C 	 -128.913 	 25.8665 	 -114.335
| 25> C 	 -127.912 	 26.6585 	 -114.897
| 26> C 	 -126.687 	 26.6195 	 -114.104
| 27> C 	 -126.671 	 25.8167 	 -112.97
| 28> H 	 -128.153 	 27.2172 	 -115.781
| 29> C 	 -125.556 	 27.4654 	 -114.498
| 30> H 	 -125.584 	 27.8277 	 -115.532
| 31> H 	 -124.668 	 26.8146 	 -114.618
| 32> C 	 -125.123 	 28.6071 	 -113.517
| 33> H 	 -125.203 	 28.4626 	 -112.45
| 34> H 	 -125.831 	 29.4214 	 -113.658
| 35> C 	 -123.685 	 29.0477 	 -113.732
| 36> H 	 -123.337 	 29.8936 	 -113.056
| 37> H 	 -123.435 	 29.3448 	 -114.767
| 38> H 	 -122.985 	 28.2856 	 -113.511
| 39> H 	 -123.956 	 23.8125 	 -109.276
| 40> H 	 -129.848 	 25.72 	 -114.885
| 41> *
| 42>
| 43>                          ****END OF INPUT****

CARTESIAN COORDINATES (ANGSTROEM)
---------------------------------
  S    -126.075000   24.675900  -110.467000
  C    -124.394000   24.318500  -110.115000
  C    -123.551000   24.898400  -111.073000
  C    -124.284000   25.612300  -112.045000
  C    -125.691000   25.526400  -111.911000
  H    -123.692000   25.992900  -112.934000
  C    -122.060000   24.770500  -111.099000
  H    -121.776000   24.668200  -112.141000
  H    -121.748000   23.872600  -110.529000
  C    -121.233000   25.858800  -110.342000
  H    -121.452000   25.814300  -109.281000
  H    -120.177000   25.656200  -110.443000
  C    -121.267000   27.377500  -110.935000
  H    -120.732000   27.484500  -111.913000
  H    -122.201000   27.945000  -111.086000
  H    -120.693000   28.005200  -110.283000
  S    -128.281000   25.134300  -112.863000
  C    -128.913000   25.866500  -114.335000
  C    -127.912000   26.658500  -114.897000
  C    -126.687000   26.619500  -114.104000
  C    -126.671000   25.816700  -112.970000
  H    -128.153000   27.217200  -115.781000
  C    -125.556000   27.465400  -114.498000
  H    -125.584000   27.827700  -115.532000
  H    -124.668000   26.814600  -114.618000
  C    -125.123000   28.607100  -113.517000
  H    -125.203000   28.462600  -112.450000
  H    -125.831000   29.421400  -113.658000
  C    -123.685000   29.047700  -113.732000
  H    -123.337000   29.893600  -113.056000
  H    -123.435000   29.344800  -114.767000
  H    -122.985000   28.285600  -113.511000
  H    -123.956000   23.812500  -109.276000
  H    -129.848000   25.720000  -114.885000

 Total Charge           Charge          ....    0
 Multiplicity           Mult            ....    1
 Number of Electrons    NEL             ....  134
 Basis Dimension        Dim             ....  322

ORBITAL ENERGIES
----------------

  NO   OCC          E(Eh)            E(eV)
   0   2.0000     -88.975603     -2421.1492
   1   2.0000     -88.963860     -2420.8297
   2   2.0000     -10.340239      -281.3722
   3   2.0000     -10.333618      -281.1920
   4   2.0000     -10.321811      -280.8708
   5   2.0000     -10.317020      -280.7404
   6   2.0000     -10.303878      -280.3828
   7   2.0000     -10.301186      -280.3095
   8   2.0000     -10.300712      -280.2966
   9   2.0000     -10.300156      -280.2815
  10   2.0000     -10.298704      -280.2420
  11   2.0000     -10.297096      -280.1982
  12   2.0000     -10.289298      -279.9860
  13   2.0000     -10.285022      -279.8697
  14   2.0000     -10.283417      -279.8260
  15   2.0000     -10.278167      -279.6831
  16   2.0000      -8.090051      -220.1415
  17   2.0000      -8.078310      -219.8220
  18   2.0000      -6.048612      -164.5911
  19   2.0000      -6.044462      -164.4782
  20   2.0000      -6.040903      -164.3813
  21   2.0000      -6.037051      -164.2765
  22   2.0000      -6.032679      -164.1575
  23   2.0000      -6.028989      -164.0571
  24   2.0000      -1.008842       -27.4520
  25   2.0000      -0.984961       -26.8022
  26   2.0000      -0.909336       -24.7443
  27   2.0000      -0.906053       -24.6549
  28   2.0000      -0.866431       -23.5768
  29   2.0000      -0.850348       -23.1391
  30   2.0000      -0.843117       -22.9424
  31   2.0000      -0.816303       -22.2127
  32   2.0000      -0.784381       -21.3441
  33   2.0000      -0.768106       -20.9012
  34   2.0000      -0.712575       -19.3902
  35   2.0000      -0.709764       -19.3137
  36   2.0000      -0.696928       -18.9644
  37   2.0000      -0.664469       -18.0811
  38   2.0000      -0.630291       -17.1511
  39   2.0000      -0.624818       -17.0022
  40   2.0000      -0.592747       -16.1295
  41   2.0000      -0.574783       -15.6407
  42   2.0000      -0.558416       -15.1953
  43   2.0000      -0.546812       -14.8795
  44   2.0000      -0.533644       -14.5212
  45   2.0000      -0.525029       -14.2868
  46   2.0000      -0.518204       -14.1011
  47   2.0000      -0.513311       -13.9679
  48   2.0000      -0.503349       -13.6968
  49   2.0000      -0.501626       -13.6499
  50   2.0000      -0.492047       -13.3893
  51   2.0000      -0.479152       -13.0384
  52   2.0000      -0.469740       -12.7823
  53   2.0000      -0.468951       -12.7608
  54   2.0000      -0.460999       -12.5444
  55   2.0000      -0.448091       -12.1932
  56   2.0000      -0.443895       -12.0790
  57   2.0000      -0.436849       -11.8873
  58   2.0000      -0.428703       -11.6656
  59   2.0000      -0.424711       -11.5570
  60   2.0000      -0.421050       -11.4574
  61   2.0000      -0.414054       -11.2670
  62   2.0000      -0.404774       -11.0144
  63   2.0000      -0.361324        -9.8321
  64   2.0000      -0.336357        -9.1527
  65   2.0000      -0.323922        -8.8144
  66   2.0000      -0.282374        -7.6838
  67   0.0000       0.014881         0.4049
  68   0.0000       0.083217         2.2645
  69   0.0000       0.104579         2.8457
  70   0.0000       0.116333         3.1656
  71   0.0000       0.128630         3.5002

MULLIKEN ATOMIC CHARGES
-----------------------
   0 S :    0.126908
   1 C :   -0.102410
   2 C :   -0.104171
   3 C :   -0.015637
   4 C :   -0.098313
   5 H :    0.026449
   6 C :    0.062439
   7 H :    0.029361
   8 H :    0.026559
   9 C :   -0.055448
  10 H :    0.034519
  11 H :    0.035010
  12 C :   -0.098099
  13 H :    0.033799
  14 H :    0.045912
  15 H :    0.024323
  16 S :    0.078622
  17 C :   -0.092348
  18 C :   -0.025434
  19 C :   -0.052708
  20 C :   -0.086541
  21 H :    0.019048
  22 C :    0.017771
  23 H :    0.015173
  24 H :    0.020543
  25 C :   -0.036953
  26 H :    0.038233
  27 H :    0.024472
  28 C :   -0.063135
  29 H :    0.039024
  30 H :    0.025059
  31 H :    0.003759
  32 H :    0.037559
  33 H :    0.066657
Sum of atomic charges:   -0.0000000

LOEWDIN ATOMIC CHARGES
----------------------
   0 S :    0.433130
   1 C :   -0.198857
   2 C :   -0.064981
   3 C :   -0.071231
   4 C :   -0.201441
   5 H :    0.038478
   6 C :   -0.032931
   7 H :    0.030977
   8 H :    0.037697
   9 C :   -0.028446
  10 H :    0.024213
  11 H :    0.027049
  12 C :   -0.083484
  13 H :    0.027289
  14 H :    0.025121
  15 H :    0.022798
  16 S :    0.395859
  17 C :   -0.188116
  18 C :   -0.069796
  19 C :   -0.065445
  20 C :   -0.187780
  21 H :    0.031593
  22 C :   -0.041588
  23 H :    0.031847
  24 H :    0.028743
  25 C :   -0.039971
  26 H :    0.027944
  27 H :    0.024440
  28 C :   -0.070516
  29 H :    0.034290
  30 H :    0.022869
  31 H :    0.012186
  32 H :    0.027388
  33 H :    0.040671

  Mayer bond orders larger than 0.100000
B(  0-S ,  1-C ) :   1.1420 B(  0-S ,  4-C ) :   1.1698 B(  1-C ,  2-C ) :   1.5722
B(  1-C ,  4-C ) :   0.1026 B(  1-C , 32-H ) :   0.9664 B(  2-C ,  3-C ) :   1.3215
B(  2-C ,  6-C ) :   1.0317 B(  3-C ,  4-C ) :   1.4790 B(  3-C ,  5-H ) :   0.9712
B(  4-C , 20-C ) :   1.0893 B(  6-C ,  7-H ) :   0.9401 B(  6-C ,  8-H ) :   0.9372
B(  6-C ,  9-C ) :   1.0721 B(  9-C , 10-H ) :   0.9598 B(  9-C , 11-H ) :   0.9570
B(  9-C , 12-C ) :   1.0554 B( 12-C , 13-H ) :   0.9770 B( 12-C , 14-H ) :   0.9779
B( 12-C , 15-H ) :   0.9730 B( 16-S , 17-C ) :   1.1572 B( 16-S , 20-C ) :   1.1144
B( 17-C , 18-C ) :   1.6007 B( 17-C , 33-H ) :   0.9635 B( 18-C , 19-C ) :   1.2498
B( 18-C , 21-H ) :   0.9946 B( 19-C , 20-C ) :   1.5633 B( 19-C , 22-C ) :   1.0641
B( 22-C , 23-H ) :   0.9295 B( 22-C , 24-H ) :   0.9382 B( 22-C , 25-C ) :   1.0313
B( 25-C , 26-H ) :   0.9604 B( 25-C , 27-H ) :   0.9524 B( 25-C , 28-C ) :   1.0811
B( 28-C , 29-H ) :   0.9706 B( 28-C , 30-H ) :   0.9712 B( 28-C , 31-H ) :   0.9709

Dispersion correction           -0.015643239
FINAL SINGLE POINT ENERGY     -1339.865541437397

DIPOLE MOMENT
-------------
                                X             Y             Z
Electronic contribution:    -27.80286     -16.86658       3.93654
Nuclear contribution   :     28.46255      17.07024      -4.17975
                        -----------------------------------------
Total Dipole Moment    :      0.65969       0.20366      -0.24321
                        -----------------------------------------
Magnitude (a.u.)       :      0.73200
Magnitude (Debye)      :      1.86059

Rotational constants in cm-1:     0.019853     0.009887     0.006997
Rotational constants in MHz :   595.177348   296.393122   209.758166

                             ****ORCA TERMINATED NORMALLY****
TOTAL RUN TIME: 0 days 0 hours 0 minutes 22 seconds 655 msec
