                         Program Version 4.2.1 -  RELEASE  -
|  1> ! wB97X-D3 SP def2-SVP
|  2> %pal
|  3> nprocs 24
|  4> end
|  5>
|  6> * xyz 0 1
|  7> S 	 -131.854 	 68.5276 	 -65.3512
|  8> C 	 -132.191 	 67.5612 	 -66.8014
|  9> C 	 -133.534 	 67.6968 	 -67.1769
| 10> C 	 -134.245 	 68.5746 	 -66.3389
| 11> C 	 -133.558 	 69.0337 	 -65.2023
| 12> H 	 -135.279 	 68.7165 	 -66.4327
| 13> C 	 -134.041 	 67.0495 	 -68.3933
| 14> H 	 -135.058 	 66.837 	 -68.1819
| 15> H 	 -133.637 	 66.0781 	 -68.5445
| 16> C 	 -133.883 	 67.9163 	 -69.6699
| 17> H 	 -132.83 	 68.1921 	 -69.8162
| 18> H 	 -134.106 	 67.3329 	 -70.5269
| 19> C 	 -134.662 	 69.1839 	 -69.5858
| 20> H 	 -134.346 	 69.9205 	 -70.3086
| 21> H 	 -135.69 	 69.1069 	 -69.8459
| 22> H 	 -134.57 	 69.6694 	 -68.6193
| 23> S 	 -135.322 	 69.3258 	 -63.1862
| 24> C 	 -135.351 	 70.792 	 -62.2169
| 25> C 	 -134.402 	 71.6848 	 -62.7094
| 26> C 	 -133.529 	 71.1637 	 -63.6997
| 27> C 	 -134.024 	 69.9147 	 -64.1761
| 28> H 	 -134.319 	 72.5823 	 -62.1476
| 29> C 	 -132.274 	 71.8759 	 -64.1915
| 30> H 	 -131.512 	 71.1683 	 -64.5432
| 31> H 	 -131.843 	 72.2219 	 -63.2912
| 32> C 	 -132.444 	 73.0466 	 -65.1569
| 33> H 	 -131.499 	 73.4348 	 -65.5075
| 34> H 	 -133.03 	 73.8807 	 -64.7585
| 35> C 	 -133.2 	 72.725 	 -66.455
| 36> H 	 -134.277 	 72.4869 	 -66.4263
| 37> H 	 -132.721 	 71.9384 	 -66.9989
| 38> H 	 -133.074 	 73.5944 	 -67.0262
| 39> H 	 -131.417 	 67.0695 	 -67.3706
| 40> H 	 -135.958 	 70.9762 	 -61.337
| 41> *
| 42>
| 43>                          ****END OF INPUT****

CARTESIAN COORDINATES (ANGSTROEM)
---------------------------------
  S    -131.854000   68.527600  -65.351200
  C    -132.191000   67.561200  -66.801400
  C    -133.534000   67.696800  -67.176900
  C    -134.245000   68.574600  -66.338900
  C    -133.558000   69.033700  -65.202300
  H    -135.279000   68.716500  -66.432700
  C    -134.041000   67.049500  -68.393300
  H    -135.058000   66.837000  -68.181900
  H    -133.637000   66.078100  -68.544500
  C    -133.883000   67.916300  -69.669900
  H    -132.830000   68.192100  -69.816200
  H    -134.106000   67.332900  -70.526900
  C    -134.662000   69.183900  -69.585800
  H    -134.346000   69.920500  -70.308600
  H    -135.690000   69.106900  -69.845900
  H    -134.570000   69.669400  -68.619300
  S    -135.322000   69.325800  -63.186200
  C    -135.351000   70.792000  -62.216900
  C    -134.402000   71.684800  -62.709400
  C    -133.529000   71.163700  -63.699700
  C    -134.024000   69.914700  -64.176100
  H    -134.319000   72.582300  -62.147600
  C    -132.274000   71.875900  -64.191500
  H    -131.512000   71.168300  -64.543200
  H    -131.843000   72.221900  -63.291200
  C    -132.444000   73.046600  -65.156900
  H    -131.499000   73.434800  -65.507500
  H    -133.030000   73.880700  -64.758500
  C    -133.200000   72.725000  -66.455000
  H    -134.277000   72.486900  -66.426300
  H    -132.721000   71.938400  -66.998900
  H    -133.074000   73.594400  -67.026200
  H    -131.417000   67.069500  -67.370600
  H    -135.958000   70.976200  -61.337000

 Total Charge           Charge          ....    0
 Multiplicity           Mult            ....    1
 Number of Electrons    NEL             ....  134
 Basis Dimension        Dim             ....  322

ORBITAL ENERGIES
----------------

  NO   OCC          E(Eh)            E(eV)
   0   2.0000     -88.967670     -2420.9334
   1   2.0000     -88.966451     -2420.9002
   2   2.0000     -10.332259      -281.1551
   3   2.0000     -10.327066      -281.0137
   4   2.0000     -10.318896      -280.7914
   5   2.0000     -10.314661      -280.6762
   6   2.0000     -10.309417      -280.5335
   7   2.0000     -10.296828      -280.1909
   8   2.0000     -10.293147      -280.0908
   9   2.0000     -10.291422      -280.0438
  10   2.0000     -10.287957      -279.9495
  11   2.0000     -10.283873      -279.8384
  12   2.0000     -10.281798      -279.7819
  13   2.0000     -10.281464      -279.7728
  14   2.0000     -10.264937      -279.3231
  15   2.0000     -10.262378      -279.2535
  16   2.0000      -8.082215      -219.9283
  17   2.0000      -8.079736      -219.8608
  18   2.0000      -6.040659      -164.3747
  19   2.0000      -6.038203      -164.3078
  20   2.0000      -6.036565      -164.2633
  21   2.0000      -6.034351      -164.2030
  22   2.0000      -6.033231      -164.1726
  23   2.0000      -6.030740      -164.1048
  24   2.0000      -1.003453       -27.3054
  25   2.0000      -0.980386       -26.6777
  26   2.0000      -0.916971       -24.9520
  27   2.0000      -0.907144       -24.6846
  28   2.0000      -0.870306       -23.6822
  29   2.0000      -0.851238       -23.1634
  30   2.0000      -0.844370       -22.9765
  31   2.0000      -0.816416       -22.2158
  32   2.0000      -0.788238       -21.4491
  33   2.0000      -0.771824       -21.0024
  34   2.0000      -0.708234       -19.2720
  35   2.0000      -0.707723       -19.2581
  36   2.0000      -0.691571       -18.8186
  37   2.0000      -0.660951       -17.9854
  38   2.0000      -0.639902       -17.4126
  39   2.0000      -0.620133       -16.8747
  40   2.0000      -0.595104       -16.1936
  41   2.0000      -0.575510       -15.6604
  42   2.0000      -0.553280       -15.0555
  43   2.0000      -0.550840       -14.9891
  44   2.0000      -0.546493       -14.8708
  45   2.0000      -0.539394       -14.6777
  46   2.0000      -0.521237       -14.1836
  47   2.0000      -0.513451       -13.9717
  48   2.0000      -0.500866       -13.6292
  49   2.0000      -0.497691       -13.5429
  50   2.0000      -0.493933       -13.4406
  51   2.0000      -0.481468       -13.1014
  52   2.0000      -0.467422       -12.7192
  53   2.0000      -0.465070       -12.6552
  54   2.0000      -0.454283       -12.3617
  55   2.0000      -0.442537       -12.0420
  56   2.0000      -0.442111       -12.0304
  57   2.0000      -0.439456       -11.9582
  58   2.0000      -0.432878       -11.7792
  59   2.0000      -0.425600       -11.5812
  60   2.0000      -0.420065       -11.4305
  61   2.0000      -0.414939       -11.2911
  62   2.0000      -0.408029       -11.1030
  63   2.0000      -0.341492        -9.2925
  64   2.0000      -0.334062        -9.0903
  65   2.0000      -0.327580        -8.9139
  66   2.0000      -0.288152        -7.8410
  67   0.0000       0.025817         0.7025
  68   0.0000       0.063320         1.7230
  69   0.0000       0.112157         3.0519
  70   0.0000       0.118428         3.2226
  71   0.0000       0.126216         3.4345

MULLIKEN ATOMIC CHARGES
-----------------------
   0 S :    0.098842
   1 C :   -0.124864
   2 C :   -0.108821
   3 C :    0.052312
   4 C :   -0.146681
   5 H :   -0.002947
   6 C :    0.103930
   7 H :    0.007572
   8 H :    0.012677
   9 C :   -0.024606
  10 H :    0.020620
  11 H :    0.018364
  12 C :   -0.045611
  13 H :    0.018515
  14 H :    0.017222
  15 H :    0.038458
  16 S :    0.120719
  17 C :   -0.109006
  18 C :   -0.032018
  19 C :   -0.037813
  20 C :   -0.172169
  21 H :    0.009445
  22 C :    0.117548
  23 H :    0.021740
  24 H :    0.010651
  25 C :   -0.058800
  26 H :    0.025742
  27 H :    0.026062
  28 C :   -0.049423
  29 H :    0.044086
  30 H :    0.021787
  31 H :    0.013023
  32 H :    0.050185
  33 H :    0.063258
Sum of atomic charges:   -0.0000000

LOEWDIN ATOMIC CHARGES
----------------------
   0 S :    0.393189
   1 C :   -0.186816
   2 C :   -0.063061
   3 C :   -0.059921
   4 C :   -0.185485
   5 H :    0.021669
   6 C :   -0.028630
   7 H :    0.026430
   8 H :    0.028510
   9 C :   -0.030822
  10 H :    0.025851
  11 H :    0.019265
  12 C :   -0.068288
  13 H :    0.026562
  14 H :    0.020266
  15 H :    0.029272
  16 S :    0.423482
  17 C :   -0.189586
  18 C :   -0.068274
  19 C :   -0.047586
  20 C :   -0.209626
  21 H :    0.026961
  22 C :   -0.035144
  23 H :    0.025531
  24 H :    0.028630
  25 C :   -0.034280
  26 H :    0.026104
  27 H :    0.024978
  28 C :   -0.064539
  29 H :    0.027728
  30 H :    0.019208
  31 H :    0.018941
  32 H :    0.026635
  33 H :    0.032844

  Mayer bond orders larger than 0.100000
B(  0-S ,  1-C ) :   1.1469 B(  0-S ,  4-C ) :   1.1443 B(  1-C ,  2-C ) :   1.5677
B(  1-C ,  4-C ) :   0.1095 B(  1-C , 32-H ) :   0.9703 B(  2-C ,  3-C ) :   1.2810
B(  2-C ,  6-C ) :   1.0376 B(  3-C ,  4-C ) :   1.5375 B(  3-C ,  5-H ) :   0.9885
B(  4-C , 20-C ) :   1.0613 B(  6-C ,  7-H ) :   0.9315 B(  6-C ,  8-H ) :   0.9340
B(  6-C ,  9-C ) :   1.0663 B(  9-C , 10-H ) :   0.9562 B(  9-C , 11-H ) :   0.9536
B(  9-C , 12-C ) :   1.0841 B( 12-C , 13-H ) :   0.9671 B( 12-C , 14-H ) :   0.9712
B( 12-C , 15-H ) :   0.9698 B( 16-S , 17-C ) :   1.1581 B( 16-S , 20-C ) :   1.1694
B( 17-C , 18-C ) :   1.5933 B( 17-C , 20-C ) :   0.1105 B( 17-C , 33-H ) :   0.9687
B( 18-C , 19-C ) :   1.2621 B( 18-C , 21-H ) :   0.9899 B( 19-C , 20-C ) :   1.5222
B( 19-C , 22-C ) :   1.0371 B( 22-C , 23-H ) :   0.9309 B( 22-C , 24-H ) :   0.9198
B( 22-C , 25-C ) :   1.0815 B( 25-C , 26-H ) :   0.9540 B( 25-C , 27-H ) :   0.9568
B( 25-C , 28-C ) :   1.0790 B( 28-C , 29-H ) :   0.9749 B( 28-C , 30-H ) :   0.9755
B( 28-C , 31-H ) :   0.9726

Dispersion correction           -0.015760249
FINAL SINGLE POINT ENERGY     -1339.879124179946

DIPOLE MOMENT
-------------
                                X             Y             Z
Electronic contribution:     -0.36890     -10.39518      20.96637
Nuclear contribution   :      0.38617      10.65721     -21.26767
                        -----------------------------------------
Total Dipole Moment    :      0.01727       0.26203      -0.30130
                        -----------------------------------------
Magnitude (a.u.)       :      0.39967
Magnitude (Debye)      :      1.01588

Rotational constants in cm-1:     0.019872     0.009126     0.008139
Rotational constants in MHz :   595.748142   273.599977   243.987329

                             ****ORCA TERMINATED NORMALLY****
TOTAL RUN TIME: 0 days 0 hours 0 minutes 21 seconds 476 msec
