                         Program Version 4.2.1 -  RELEASE  -
|  1> ! wB97X-D3 SP def2-SVP
|  2> %pal
|  3> nprocs 24
|  4> end
|  5>
|  6> * xyz 0 1
|  7> S 	 -102.837 	 59.3383 	 -13.5618
|  8> C 	 -102.61 	 60.5778 	 -12.2865
|  9> C 	 -101.303 	 61.0868 	 -12.2772
| 10> C 	 -100.498 	 60.4587 	 -13.3294
| 11> C 	 -101.185 	 59.5785 	 -14.1322
| 12> H 	 -99.4817 	 60.7307 	 -13.4799
| 13> C 	 -100.696 	 62.1715 	 -11.3663
| 14> H 	 -100.05 	 62.7995 	 -11.9777
| 15> H 	 -99.866 	 61.6831 	 -10.8962
| 16> C 	 -101.568 	 63.028 	 -10.4316
| 17> H 	 -102.338 	 62.4686 	 -9.82787
| 18> H 	 -100.887 	 63.6358 	 -9.8072
| 19> C 	 -102.184 	 64.1194 	 -11.2246
| 20> H 	 -101.507 	 64.8252 	 -11.7862
| 21> H 	 -102.929 	 63.7395 	 -11.9067
| 22> H 	 -102.762 	 64.8866 	 -10.6331
| 23> S 	 -101.791 	 59.054 	 -16.662
| 24> C 	 -100.631 	 58.2896 	 -17.7642
| 25> C 	 -99.4831 	 57.9892 	 -17.085
| 26> C 	 -99.5325 	 58.2342 	 -15.6653
| 27> C 	 -100.697 	 58.9244 	 -15.2985
| 28> H 	 -98.67 	 57.512 	 -17.6414
| 29> C 	 -98.3446 	 57.8825 	 -14.8395
| 30> H 	 -98.1074 	 58.4877 	 -13.9808
| 31> H 	 -97.4763 	 58.0878 	 -15.5027
| 32> C 	 -98.3553 	 56.3777 	 -14.4372
| 33> H 	 -97.4583 	 56.1312 	 -13.953
| 34> H 	 -98.3006 	 55.8354 	 -15.3303
| 35> C 	 -99.661 	 55.8345 	 -13.6611
| 36> H 	 -100.536 	 56.4253 	 -13.9149
| 37> H 	 -99.5319 	 56.1851 	 -12.6045
| 38> H 	 -99.7914 	 54.6894 	 -13.8045
| 39> H 	 -103.366 	 60.9224 	 -11.5922
| 40> H 	 -100.725 	 58.1452 	 -18.8278
| 41> *
| 42>
| 43>                          ****END OF INPUT****

CARTESIAN COORDINATES (ANGSTROEM)
---------------------------------
  S    -102.837000   59.338300  -13.561800
  C    -102.610000   60.577800  -12.286500
  C    -101.303000   61.086800  -12.277200
  C    -100.498000   60.458700  -13.329400
  C    -101.185000   59.578500  -14.132200
  H    -99.481700   60.730700  -13.479900
  C    -100.696000   62.171500  -11.366300
  H    -100.050000   62.799500  -11.977700
  H    -99.866000   61.683100  -10.896200
  C    -101.568000   63.028000  -10.431600
  H    -102.338000   62.468600   -9.827870
  H    -100.887000   63.635800   -9.807200
  C    -102.184000   64.119400  -11.224600
  H    -101.507000   64.825200  -11.786200
  H    -102.929000   63.739500  -11.906700
  H    -102.762000   64.886600  -10.633100
  S    -101.791000   59.054000  -16.662000
  C    -100.631000   58.289600  -17.764200
  C    -99.483100   57.989200  -17.085000
  C    -99.532500   58.234200  -15.665300
  C    -100.697000   58.924400  -15.298500
  H    -98.670000   57.512000  -17.641400
  C    -98.344600   57.882500  -14.839500
  H    -98.107400   58.487700  -13.980800
  H    -97.476300   58.087800  -15.502700
  C    -98.355300   56.377700  -14.437200
  H    -97.458300   56.131200  -13.953000
  H    -98.300600   55.835400  -15.330300
  C    -99.661000   55.834500  -13.661100
  H    -100.536000   56.425300  -13.914900
  H    -99.531900   56.185100  -12.604500
  H    -99.791400   54.689400  -13.804500
  H    -103.366000   60.922400  -11.592200
  H    -100.725000   58.145200  -18.827800

 Total Charge           Charge          ....    0
 Multiplicity           Mult            ....    1
 Number of Electrons    NEL             ....  134
 Basis Dimension        Dim             ....  322

ORBITAL ENERGIES
----------------

  NO   OCC          E(Eh)            E(eV)
   0   2.0000     -88.967920     -2420.9402
   1   2.0000     -88.962954     -2420.8050
   2   2.0000     -10.331104      -281.1236
   3   2.0000     -10.327938      -281.0375
   4   2.0000     -10.318807      -280.7890
   5   2.0000     -10.317145      -280.7438
   6   2.0000     -10.311240      -280.5831
   7   2.0000     -10.307240      -280.4743
   8   2.0000     -10.298393      -280.2335
   9   2.0000     -10.297661      -280.2136
  10   2.0000     -10.295209      -280.1469
  11   2.0000     -10.294900      -280.1385
  12   2.0000     -10.292863      -280.0830
  13   2.0000     -10.284952      -279.8678
  14   2.0000     -10.280035      -279.7340
  15   2.0000     -10.279294      -279.7138
  16   2.0000      -8.081562      -219.9105
  17   2.0000      -8.077509      -219.8002
  18   2.0000      -6.040345      -164.3661
  19   2.0000      -6.036270      -164.2553
  20   2.0000      -6.036190      -164.2531
  21   2.0000      -6.032036      -164.1400
  22   2.0000      -6.031906      -164.1365
  23   2.0000      -6.028204      -164.0358
  24   2.0000      -1.005024       -27.3481
  25   2.0000      -0.976523       -26.5725
  26   2.0000      -0.917214       -24.9587
  27   2.0000      -0.903794       -24.5935
  28   2.0000      -0.873432       -23.7673
  29   2.0000      -0.849075       -23.1045
  30   2.0000      -0.836640       -22.7661
  31   2.0000      -0.811908       -22.0931
  32   2.0000      -0.782485       -21.2925
  33   2.0000      -0.772122       -21.0105
  34   2.0000      -0.711598       -19.3636
  35   2.0000      -0.704156       -19.1611
  36   2.0000      -0.693886       -18.8816
  37   2.0000      -0.662255       -18.0209
  38   2.0000      -0.637156       -17.3379
  39   2.0000      -0.616173       -16.7669
  40   2.0000      -0.598937       -16.2979
  41   2.0000      -0.580234       -15.7890
  42   2.0000      -0.551591       -15.0096
  43   2.0000      -0.545808       -14.8522
  44   2.0000      -0.544143       -14.8069
  45   2.0000      -0.529914       -14.4197
  46   2.0000      -0.515893       -14.0382
  47   2.0000      -0.506957       -13.7950
  48   2.0000      -0.504965       -13.7408
  49   2.0000      -0.496767       -13.5177
  50   2.0000      -0.491373       -13.3709
  51   2.0000      -0.473580       -12.8868
  52   2.0000      -0.465659       -12.6712
  53   2.0000      -0.463463       -12.6115
  54   2.0000      -0.460551       -12.5322
  55   2.0000      -0.445889       -12.1332
  56   2.0000      -0.439833       -11.9685
  57   2.0000      -0.436637       -11.8815
  58   2.0000      -0.435413       -11.8482
  59   2.0000      -0.425474       -11.5777
  60   2.0000      -0.417017       -11.3476
  61   2.0000      -0.413956       -11.2643
  62   2.0000      -0.408465       -11.1149
  63   2.0000      -0.350670        -9.5422
  64   2.0000      -0.328119        -8.9286
  65   2.0000      -0.326012        -8.8712
  66   2.0000      -0.290554        -7.9064
  67   0.0000       0.027350         0.7442
  68   0.0000       0.071785         1.9534
  69   0.0000       0.104015         2.8304
  70   0.0000       0.115167         3.1338
  71   0.0000       0.131008         3.5649

MULLIKEN ATOMIC CHARGES
-----------------------
   0 S :    0.108151
   1 C :   -0.136533
   2 C :   -0.084692
   3 C :    0.026586
   4 C :   -0.119084
   5 H :   -0.001084
   6 C :    0.070154
   7 H :    0.009987
   8 H :    0.019200
   9 C :   -0.025059
  10 H :    0.053022
  11 H :    0.031772
  12 C :   -0.095394
  13 H :    0.036418
  14 H :    0.028792
  15 H :    0.029957
  16 S :    0.091521
  17 C :   -0.078551
  18 C :   -0.052550
  19 C :   -0.020351
  20 C :   -0.157009
  21 H :    0.028536
  22 C :    0.044473
  23 H :    0.019884
  24 H :    0.027523
  25 C :   -0.032008
  26 H :    0.015908
  27 H :    0.004878
  28 C :   -0.087007
  29 H :    0.040335
  30 H :    0.035169
  31 H :    0.065552
  32 H :    0.046986
  33 H :    0.054517
Sum of atomic charges:   -0.0000000

LOEWDIN ATOMIC CHARGES
----------------------
   0 S :    0.379326
   1 C :   -0.196907
   2 C :   -0.048739
   3 C :   -0.056168
   4 C :   -0.190541
   5 H :    0.024240
   6 C :   -0.037484
   7 H :    0.035178
   8 H :    0.032632
   9 C :   -0.046035
  10 H :    0.035376
  11 H :    0.036586
  12 C :   -0.078140
  13 H :    0.030463
  14 H :    0.018765
  15 H :    0.027193
  16 S :    0.395695
  17 C :   -0.178140
  18 C :   -0.071021
  19 C :   -0.054687
  20 C :   -0.194928
  21 H :    0.034640
  22 C :   -0.033464
  23 H :    0.023477
  24 H :    0.038193
  25 C :   -0.031106
  26 H :    0.015132
  27 H :    0.012781
  28 C :   -0.076810
  29 H :    0.025044
  30 H :    0.029993
  31 H :    0.041660
  32 H :    0.026334
  33 H :    0.031461

  Mayer bond orders larger than 0.100000
B(  0-S ,  1-C ) :   1.1032 B(  0-S ,  4-C ) :   1.1257 B(  1-C ,  2-C ) :   1.6519
B(  1-C , 32-H ) :   0.9640 B(  2-C ,  3-C ) :   1.2121 B(  2-C ,  6-C ) :   1.0035
B(  3-C ,  4-C ) :   1.5980 B(  3-C ,  5-H ) :   1.0000 B(  4-C , 20-C ) :   1.0673
B(  6-C ,  7-H ) :   0.9326 B(  6-C ,  8-H ) :   0.9282 B(  6-C ,  9-C ) :   1.0697
B(  9-C , 10-H ) :   0.9540 B(  9-C , 11-H ) :   0.9464 B(  9-C , 12-C ) :   1.0754
B( 12-C , 13-H ) :   0.9723 B( 12-C , 14-H ) :   0.9771 B( 12-C , 15-H ) :   0.9730
B( 16-S , 17-C ) :   1.1345 B( 16-S , 20-C ) :   1.1333 B( 17-C , 18-C ) :   1.6397
B( 17-C , 33-H ) :   0.9677 B( 18-C , 19-C ) :   1.2231 B( 18-C , 21-H ) :   0.9797
B( 19-C , 20-C ) :   1.5786 B( 19-C , 22-C ) :   1.0444 B( 22-C , 23-H ) :   0.9462
B( 22-C , 24-H ) :   0.9339 B( 22-C , 25-C ) :   1.0678 B( 25-C , 26-H ) :   0.9586
B( 25-C , 27-H ) :   0.9570 B( 25-C , 28-C ) :   1.0521 B( 28-C , 29-H ) :   0.9760
B( 28-C , 30-H ) :   0.9760 B( 28-C , 31-H ) :   0.9756

Dispersion correction           -0.014542703
FINAL SINGLE POINT ENERGY     -1339.862754421829

DIPOLE MOMENT
-------------
                                X             Y             Z
Electronic contribution:    -11.55962      -5.18263     -15.52616
Nuclear contribution   :     12.25938       5.46194      15.72882
                        -----------------------------------------
Total Dipole Moment    :      0.69976       0.27931       0.20266
                        -----------------------------------------
Magnitude (a.u.)       :      0.78022
Magnitude (Debye)      :      1.98316

Rotational constants in cm-1:     0.023107     0.007516     0.006745
Rotational constants in MHz :   692.718097   225.318101   202.207567

                             ****ORCA TERMINATED NORMALLY****
TOTAL RUN TIME: 0 days 0 hours 0 minutes 21 seconds 517 msec
