                         Program Version 4.2.1 -  RELEASE  -
|  1> ! wB97X-D3 SP def2-SVP
|  2> %pal
|  3> nprocs 24
|  4> end
|  5>
|  6> * xyz 0 1
|  7> S 	 -86.8394 	 -30.9561 	 -60.6771
|  8> C 	 -88.1582 	 -29.9597 	 -61.2491
|  9> C 	 -89.2558 	 -30.0508 	 -60.3852
| 10> C 	 -89.023 	 -31.0896 	 -59.4505
| 11> C 	 -87.7907 	 -31.7118 	 -59.4755
| 12> H 	 -89.7812 	 -31.3953 	 -58.658
| 13> C 	 -90.5446 	 -29.2563 	 -60.6557
| 14> H 	 -90.3404 	 -28.3675 	 -61.3721
| 15> H 	 -90.8136 	 -28.9594 	 -59.6233
| 16> C 	 -91.5033 	 -30.2599 	 -61.2778
| 17> H 	 -91.3851 	 -30.3142 	 -62.3476
| 18> H 	 -91.3547 	 -31.3357 	 -60.9051
| 19> C 	 -93.0448 	 -29.8327 	 -61.0293
| 20> H 	 -93.582 	 -30.5806 	 -61.603
| 21> H 	 -93.2719 	 -29.9594 	 -59.9594
| 22> H 	 -93.3394 	 -28.8378 	 -61.3109
| 23> S 	 -88.3587 	 -34.2204 	 -58.5341
| 24> C 	 -87.3176 	 -34.9372 	 -57.3147
| 25> C 	 -86.2517 	 -34.0583 	 -57.0416
| 26> C 	 -86.3409 	 -32.798 	 -57.5996
| 27> C 	 -87.3607 	 -32.7795 	 -58.5707
| 28> H 	 -85.5294 	 -34.362 	 -56.314
| 29> C 	 -85.2602 	 -31.7849 	 -57.2433
| 30> H 	 -85.4553 	 -30.9037 	 -57.8562
| 31> H 	 -84.2731 	 -32.1494 	 -57.5721
| 32> C 	 -85.2293 	 -31.2014 	 -55.791
| 33> H 	 -84.5356 	 -30.3738 	 -55.6948
| 34> H 	 -84.8982 	 -31.9483 	 -55.1205
| 35> C 	 -86.6754 	 -30.7304 	 -55.4879
| 36> H 	 -87.0528 	 -30.0481 	 -56.3032
| 37> H 	 -86.6549 	 -30.067 	 -54.612
| 38> H 	 -87.2595 	 -31.6203 	 -55.2998
| 39> H 	 -88.1598 	 -29.1118 	 -61.9793
| 40> H 	 -87.3763 	 -35.9913 	 -56.9439
| 41> *
| 42>
| 43>                          ****END OF INPUT****

CARTESIAN COORDINATES (ANGSTROEM)
---------------------------------
  S    -86.839400  -30.956100  -60.677100
  C    -88.158200  -29.959700  -61.249100
  C    -89.255800  -30.050800  -60.385200
  C    -89.023000  -31.089600  -59.450500
  C    -87.790700  -31.711800  -59.475500
  H    -89.781200  -31.395300  -58.658000
  C    -90.544600  -29.256300  -60.655700
  H    -90.340400  -28.367500  -61.372100
  H    -90.813600  -28.959400  -59.623300
  C    -91.503300  -30.259900  -61.277800
  H    -91.385100  -30.314200  -62.347600
  H    -91.354700  -31.335700  -60.905100
  C    -93.044800  -29.832700  -61.029300
  H    -93.582000  -30.580600  -61.603000
  H    -93.271900  -29.959400  -59.959400
  H    -93.339400  -28.837800  -61.310900
  S    -88.358700  -34.220400  -58.534100
  C    -87.317600  -34.937200  -57.314700
  C    -86.251700  -34.058300  -57.041600
  C    -86.340900  -32.798000  -57.599600
  C    -87.360700  -32.779500  -58.570700
  H    -85.529400  -34.362000  -56.314000
  C    -85.260200  -31.784900  -57.243300
  H    -85.455300  -30.903700  -57.856200
  H    -84.273100  -32.149400  -57.572100
  C    -85.229300  -31.201400  -55.791000
  H    -84.535600  -30.373800  -55.694800
  H    -84.898200  -31.948300  -55.120500
  C    -86.675400  -30.730400  -55.487900
  H    -87.052800  -30.048100  -56.303200
  H    -86.654900  -30.067000  -54.612000
  H    -87.259500  -31.620300  -55.299800
  H    -88.159800  -29.111800  -61.979300
  H    -87.376300  -35.991300  -56.943900

 Total Charge           Charge          ....    0
 Multiplicity           Mult            ....    1
 Number of Electrons    NEL             ....  134
 Basis Dimension        Dim             ....  322

ORBITAL ENERGIES
----------------

  NO   OCC          E(Eh)            E(eV)
   0   2.0000     -88.971715     -2421.0435
   1   2.0000     -88.967130     -2420.9187
   2   2.0000     -10.331559      -281.1360
   3   2.0000     -10.325458      -280.9700
   4   2.0000     -10.321930      -280.8740
   5   2.0000     -10.313027      -280.6317
   6   2.0000     -10.305532      -280.4278
   7   2.0000     -10.302913      -280.3565
   8   2.0000     -10.299931      -280.2754
   9   2.0000     -10.295134      -280.1448
  10   2.0000     -10.295009      -280.1414
  11   2.0000     -10.292440      -280.0715
  12   2.0000     -10.288883      -279.9747
  13   2.0000     -10.284577      -279.8576
  14   2.0000     -10.279401      -279.7167
  15   2.0000     -10.276698      -279.6432
  16   2.0000      -8.085746      -220.0243
  17   2.0000      -8.081861      -219.9186
  18   2.0000      -6.044145      -164.4696
  19   2.0000      -6.040303      -164.3650
  20   2.0000      -6.040255      -164.3637
  21   2.0000      -6.036768      -164.2688
  22   2.0000      -6.036252      -164.2548
  23   2.0000      -6.032796      -164.1607
  24   2.0000      -1.008688       -27.4478
  25   2.0000      -0.986508       -26.8443
  26   2.0000      -0.909422       -24.7466
  27   2.0000      -0.906618       -24.6703
  28   2.0000      -0.863580       -23.4992
  29   2.0000      -0.849714       -23.1219
  30   2.0000      -0.839179       -22.8352
  31   2.0000      -0.806388       -21.9429
  32   2.0000      -0.779193       -21.2029
  33   2.0000      -0.768310       -20.9068
  34   2.0000      -0.705778       -19.2052
  35   2.0000      -0.697046       -18.9676
  36   2.0000      -0.689593       -18.7648
  37   2.0000      -0.662739       -18.0340
  38   2.0000      -0.628549       -17.1037
  39   2.0000      -0.616703       -16.7813
  40   2.0000      -0.594345       -16.1729
  41   2.0000      -0.562814       -15.3149
  42   2.0000      -0.553247       -15.0546
  43   2.0000      -0.551026       -14.9942
  44   2.0000      -0.548202       -14.9173
  45   2.0000      -0.525982       -14.3127
  46   2.0000      -0.517300       -14.0765
  47   2.0000      -0.506135       -13.7726
  48   2.0000      -0.496950       -13.5227
  49   2.0000      -0.489536       -13.3210
  50   2.0000      -0.488563       -13.2945
  51   2.0000      -0.473426       -12.8826
  52   2.0000      -0.466439       -12.6924
  53   2.0000      -0.465217       -12.6592
  54   2.0000      -0.458628       -12.4799
  55   2.0000      -0.450826       -12.2676
  56   2.0000      -0.443699       -12.0737
  57   2.0000      -0.435606       -11.8534
  58   2.0000      -0.428669       -11.6647
  59   2.0000      -0.428275       -11.6539
  60   2.0000      -0.425991       -11.5918
  61   2.0000      -0.415637       -11.3101
  62   2.0000      -0.400646       -10.9021
  63   2.0000      -0.337798        -9.1920
  64   2.0000      -0.337110        -9.1732
  65   2.0000      -0.327100        -8.9008
  66   2.0000      -0.293178        -7.9778
  67   0.0000       0.032408         0.8819
  68   0.0000       0.065960         1.7949
  69   0.0000       0.107748         2.9320
  70   0.0000       0.121553         3.3076
  71   0.0000       0.128138         3.4868

MULLIKEN ATOMIC CHARGES
-----------------------
   0 S :    0.127234
   1 C :   -0.131707
   2 C :   -0.129492
   3 C :   -0.010058
   4 C :   -0.149566
   5 H :    0.030679
   6 C :    0.071674
   7 H :    0.049303
   8 H :    0.040125
   9 C :   -0.116524
  10 H :    0.031221
  11 H :    0.057935
  12 C :   -0.053509
  13 H :    0.033658
  14 H :    0.035462
  15 H :    0.034751
  16 S :    0.126810
  17 C :   -0.125195
  18 C :   -0.026130
  19 C :   -0.021158
  20 C :   -0.177836
  21 H :    0.011551
  22 C :    0.044639
  23 H :    0.012423
  24 H :    0.042745
  25 C :   -0.051347
  26 H :    0.031487
  27 H :    0.019904
  28 C :   -0.072779
  29 H :    0.043766
  30 H :    0.029145
  31 H :    0.054548
  32 H :    0.058257
  33 H :    0.077981
Sum of atomic charges:    0.0000000

LOEWDIN ATOMIC CHARGES
----------------------
   0 S :    0.430887
   1 C :   -0.219886
   2 C :   -0.066054
   3 C :   -0.082491
   4 C :   -0.219283
   5 H :    0.036370
   6 C :   -0.033148
   7 H :    0.043628
   8 H :    0.034741
   9 C :   -0.041276
  10 H :    0.022481
  11 H :    0.037924
  12 C :   -0.066620
  13 H :    0.024876
  14 H :    0.024289
  15 H :    0.020005
  16 S :    0.421931
  17 C :   -0.201035
  18 C :   -0.067484
  19 C :   -0.059479
  20 C :   -0.193917
  21 H :    0.026672
  22 C :   -0.032918
  23 H :    0.023458
  24 H :    0.033061
  25 C :   -0.032207
  26 H :    0.024642
  27 H :    0.013314
  28 C :   -0.065621
  29 H :    0.033550
  30 H :    0.023311
  31 H :    0.028463
  32 H :    0.037251
  33 H :    0.040567

  Mayer bond orders larger than 0.100000
B(  0-S ,  1-C ) :   1.1523 B(  0-S ,  4-C ) :   1.1603 B(  1-C ,  2-C ) :   1.5875
B(  1-C , 32-H ) :   0.9566 B(  2-C ,  3-C ) :   1.2780 B(  2-C ,  6-C ) :   1.0137
B(  3-C ,  4-C ) :   1.5539 B(  3-C ,  5-H ) :   0.9800 B(  4-C , 20-C ) :   1.0197
B(  6-C ,  7-H ) :   0.9411 B(  6-C ,  8-H ) :   0.9429 B(  6-C ,  9-C ) :   1.0462
B(  9-C , 10-H ) :   0.9561 B(  9-C , 11-H ) :   0.9631 B(  9-C , 12-C ) :   1.0605
B( 12-C , 13-H ) :   0.9779 B( 12-C , 14-H ) :   0.9818 B( 12-C , 15-H ) :   0.9780
B( 16-S , 17-C ) :   1.1592 B( 16-S , 20-C ) :   1.1736 B( 17-C , 18-C ) :   1.5735
B( 17-C , 20-C ) :   0.1166 B( 17-C , 33-H ) :   0.9622 B( 18-C , 19-C ) :   1.2740
B( 18-C , 21-H ) :   0.9893 B( 19-C , 20-C ) :   1.5406 B( 19-C , 22-C ) :   1.0364
B( 22-C , 23-H ) :   0.9318 B( 22-C , 24-H ) :   0.9448 B( 22-C , 25-C ) :   1.0643
B( 25-C , 26-H ) :   0.9601 B( 25-C , 27-H ) :   0.9577 B( 25-C , 28-C ) :   1.0724
B( 28-C , 29-H ) :   0.9763 B( 28-C , 30-H ) :   0.9748 B( 28-C , 31-H ) :   0.9707

Dispersion correction           -0.014732893
FINAL SINGLE POINT ENERGY     -1339.867438469993

DIPOLE MOMENT
-------------
                                X             Y             Z
Electronic contribution:      9.84942     -13.35336      -7.02124
Nuclear contribution   :     -9.96316      13.60027       7.29782
                        -----------------------------------------
Total Dipole Moment    :     -0.11374       0.24690       0.27658
                        -----------------------------------------
Magnitude (a.u.)       :      0.38781
Magnitude (Debye)      :      0.98573

Rotational constants in cm-1:     0.020960     0.007754     0.007037
Rotational constants in MHz :   628.367551   232.456005   210.953812

                             ****ORCA TERMINATED NORMALLY****
TOTAL RUN TIME: 0 days 0 hours 0 minutes 20 seconds 421 msec
