                         Program Version 4.2.1 -  RELEASE  -
|  1> ! wB97X-D3 SP def2-SVP
|  2> %pal
|  3> nprocs 24
|  4> end
|  5>
|  6> * xyz 0 1
|  7> S 	 -123.26 	 61.0028 	 -35.484
|  8> C 	 -122.68 	 62.4054 	 -36.3374
|  9> C 	 -121.424 	 62.7902 	 -35.8886
| 10> C 	 -120.809 	 61.7531 	 -35.0354
| 11> C 	 -121.678 	 60.7634 	 -34.6949
| 12> H 	 -119.799 	 61.9147 	 -34.707
| 13> C 	 -120.821 	 64.1233 	 -36.3725
| 14> H 	 -121.418 	 64.3942 	 -37.2449
| 15> H 	 -119.852 	 63.8178 	 -36.8437
| 16> C 	 -120.648 	 65.2436 	 -35.3354
| 17> H 	 -120.354 	 66.1564 	 -35.8923
| 18> H 	 -121.571 	 65.434 	 -34.8482
| 19> C 	 -119.69 	 65.0173 	 -34.1757
| 20> H 	 -119.694 	 65.8384 	 -33.4927
| 21> H 	 -120.067 	 64.1743 	 -33.6642
| 22> H 	 -118.672 	 64.8014 	 -34.5895
| 23> S 	 -122.412 	 58.2871 	 -34.0404
| 24> C 	 -121.491 	 57.2973 	 -32.9239
| 25> C 	 -120.675 	 58.1135 	 -32.101
| 26> C 	 -120.53 	 59.4239 	 -32.7004
| 27> C 	 -121.392 	 59.6491 	 -33.7804
| 28> H 	 -120.071 	 57.6045 	 -31.2314
| 29> C 	 -119.705 	 60.5233 	 -32.087
| 30> H 	 -119.722 	 60.3701 	 -31.0274
| 31> H 	 -120.158 	 61.4941 	 -32.2468
| 32> C 	 -118.264 	 60.6738 	 -32.5761
| 33> H 	 -118.227 	 60.925 	 -33.6505
| 34> H 	 -117.873 	 59.7265 	 -32.7246
| 35> C 	 -117.345 	 61.6251 	 -31.8886
| 36> H 	 -116.355 	 61.607 	 -32.3654
| 37> H 	 -117.261 	 61.2683 	 -30.8407
| 38> H 	 -117.695 	 62.6063 	 -31.9418
| 39> H 	 -123.35 	 63.0425 	 -36.9072
| 40> H 	 -121.706 	 56.2967 	 -32.7304
| 41> *
| 42>
| 43>                          ****END OF INPUT****

CARTESIAN COORDINATES (ANGSTROEM)
---------------------------------
  S    -123.260000   61.002800  -35.484000
  C    -122.680000   62.405400  -36.337400
  C    -121.424000   62.790200  -35.888600
  C    -120.809000   61.753100  -35.035400
  C    -121.678000   60.763400  -34.694900
  H    -119.799000   61.914700  -34.707000
  C    -120.821000   64.123300  -36.372500
  H    -121.418000   64.394200  -37.244900
  H    -119.852000   63.817800  -36.843700
  C    -120.648000   65.243600  -35.335400
  H    -120.354000   66.156400  -35.892300
  H    -121.571000   65.434000  -34.848200
  C    -119.690000   65.017300  -34.175700
  H    -119.694000   65.838400  -33.492700
  H    -120.067000   64.174300  -33.664200
  H    -118.672000   64.801400  -34.589500
  S    -122.412000   58.287100  -34.040400
  C    -121.491000   57.297300  -32.923900
  C    -120.675000   58.113500  -32.101000
  C    -120.530000   59.423900  -32.700400
  C    -121.392000   59.649100  -33.780400
  H    -120.071000   57.604500  -31.231400
  C    -119.705000   60.523300  -32.087000
  H    -119.722000   60.370100  -31.027400
  H    -120.158000   61.494100  -32.246800
  C    -118.264000   60.673800  -32.576100
  H    -118.227000   60.925000  -33.650500
  H    -117.873000   59.726500  -32.724600
  C    -117.345000   61.625100  -31.888600
  H    -116.355000   61.607000  -32.365400
  H    -117.261000   61.268300  -30.840700
  H    -117.695000   62.606300  -31.941800
  H    -123.350000   63.042500  -36.907200
  H    -121.706000   56.296700  -32.730400

 Total Charge           Charge          ....    0
 Multiplicity           Mult            ....    1
 Number of Electrons    NEL             ....  134
 Basis Dimension        Dim             ....  322

ORBITAL ENERGIES
----------------

  NO   OCC          E(Eh)            E(eV)
   0   2.0000     -88.966347     -2420.8974
   1   2.0000     -88.964716     -2420.8530
   2   2.0000     -10.336134      -281.2605
   3   2.0000     -10.328828      -281.0617
   4   2.0000     -10.318909      -280.7918
   5   2.0000     -10.313742      -280.6512
   6   2.0000     -10.312380      -280.6141
   7   2.0000     -10.309995      -280.5492
   8   2.0000     -10.305303      -280.4215
   9   2.0000     -10.298961      -280.2490
  10   2.0000     -10.296610      -280.1850
  11   2.0000     -10.286835      -279.9190
  12   2.0000     -10.286502      -279.9100
  13   2.0000     -10.277179      -279.6563
  14   2.0000     -10.275838      -279.6198
  15   2.0000     -10.275130      -279.6005
  16   2.0000      -8.080811      -219.8901
  17   2.0000      -8.080203      -219.8735
  18   2.0000      -6.039585      -164.3454
  19   2.0000      -6.038649      -164.3200
  20   2.0000      -6.035455      -164.2331
  21   2.0000      -6.034579      -164.2092
  22   2.0000      -6.031206      -164.1175
  23   2.0000      -6.031007      -164.1120
  24   2.0000      -1.007271       -27.4092
  25   2.0000      -0.981541       -26.7091
  26   2.0000      -0.914939       -24.8968
  27   2.0000      -0.910378       -24.7727
  28   2.0000      -0.871000       -23.7011
  29   2.0000      -0.857431       -23.3319
  30   2.0000      -0.844379       -22.9767
  31   2.0000      -0.820824       -22.3358
  32   2.0000      -0.783620       -21.3234
  33   2.0000      -0.772456       -21.0196
  34   2.0000      -0.707221       -19.2445
  35   2.0000      -0.699747       -19.0411
  36   2.0000      -0.696404       -18.9501
  37   2.0000      -0.665506       -18.1093
  38   2.0000      -0.636811       -17.3285
  39   2.0000      -0.623114       -16.9558
  40   2.0000      -0.597921       -16.2702
  41   2.0000      -0.572273       -15.5723
  42   2.0000      -0.563891       -15.3443
  43   2.0000      -0.550380       -14.9766
  44   2.0000      -0.539459       -14.6794
  45   2.0000      -0.527271       -14.3478
  46   2.0000      -0.516016       -14.0415
  47   2.0000      -0.515879       -14.0378
  48   2.0000      -0.510591       -13.8939
  49   2.0000      -0.501606       -13.6494
  50   2.0000      -0.492524       -13.4022
  51   2.0000      -0.488535       -13.2937
  52   2.0000      -0.474969       -12.9246
  53   2.0000      -0.463823       -12.6213
  54   2.0000      -0.460894       -12.5416
  55   2.0000      -0.450202       -12.2506
  56   2.0000      -0.447077       -12.1656
  57   2.0000      -0.442845       -12.0504
  58   2.0000      -0.435853       -11.8602
  59   2.0000      -0.425172       -11.5695
  60   2.0000      -0.419855       -11.4248
  61   2.0000      -0.411929       -11.2092
  62   2.0000      -0.402971       -10.9654
  63   2.0000      -0.361063        -9.8250
  64   2.0000      -0.333213        -9.0672
  65   2.0000      -0.324103        -8.8193
  66   2.0000      -0.285533        -7.7697
  67   0.0000       0.021248         0.5782
  68   0.0000       0.072827         1.9817
  69   0.0000       0.097846         2.6625
  70   0.0000       0.114912         3.1269
  71   0.0000       0.125980         3.4281

MULLIKEN ATOMIC CHARGES
-----------------------
   0 S :    0.095756
   1 C :   -0.114059
   2 C :   -0.142050
   3 C :    0.007040
   4 C :   -0.059647
   5 H :   -0.006740
   6 C :    0.058147
   7 H :    0.020384
   8 H :    0.031857
   9 C :   -0.049409
  10 H :    0.033956
  11 H :    0.018540
  12 C :   -0.040632
  13 H :    0.035412
  14 H :    0.025704
  15 H :    0.033055
  16 S :    0.093538
  17 C :   -0.078674
  18 C :   -0.063840
  19 C :   -0.064686
  20 C :   -0.121919
  21 H :    0.068140
  22 C :    0.069156
  23 H :    0.012361
  24 H :    0.020470
  25 C :   -0.063922
  26 H :    0.004670
  27 H :   -0.006906
  28 C :   -0.001508
  29 H :    0.037002
  30 H :    0.032636
  31 H :    0.020564
  32 H :    0.055509
  33 H :    0.040094
Sum of atomic charges:   -0.0000000

LOEWDIN ATOMIC CHARGES
----------------------
   0 S :    0.381577
   1 C :   -0.201994
   2 C :   -0.059158
   3 C :   -0.067051
   4 C :   -0.175556
   5 H :    0.026145
   6 C :   -0.035007
   7 H :    0.033059
   8 H :    0.033982
   9 C :   -0.039355
  10 H :    0.027345
  11 H :    0.020777
  12 C :   -0.058945
  13 H :    0.026126
  14 H :    0.018019
  15 H :    0.026961
  16 S :    0.418020
  17 C :   -0.175974
  18 C :   -0.077454
  19 C :   -0.058433
  20 C :   -0.195647
  21 H :    0.054868
  22 C :   -0.029670
  23 H :    0.027981
  24 H :    0.027212
  25 C :   -0.049828
  26 H :    0.022139
  27 H :    0.013391
  28 C :   -0.055413
  29 H :    0.033863
  30 H :    0.028624
  31 H :    0.016585
  32 H :    0.028400
  33 H :    0.014412

  Mayer bond orders larger than 0.100000
B(  0-S ,  1-C ) :   1.1192 B(  0-S ,  4-C ) :   1.1260 B(  1-C ,  2-C ) :   1.6508
B(  1-C , 32-H ) :   0.9614 B(  2-C ,  3-C ) :   1.2065 B(  2-C ,  6-C ) :   1.0165
B(  3-C ,  4-C ) :   1.5855 B(  3-C ,  5-H ) :   0.9957 B(  4-C , 20-C ) :   1.0608
B(  6-C ,  7-H ) :   0.9420 B(  6-C ,  8-H ) :   0.9401 B(  6-C ,  9-C ) :   1.0597
B(  9-C , 10-H ) :   0.9547 B(  9-C , 11-H ) :   0.9535 B(  9-C , 12-C ) :   1.0844
B( 12-C , 13-H ) :   0.9702 B( 12-C , 14-H ) :   0.9719 B( 12-C , 15-H ) :   0.9753
B( 16-S , 17-C ) :   1.1729 B( 16-S , 20-C ) :   1.1451 B( 17-C , 18-C ) :   1.5879
B( 17-C , 20-C ) :   0.1029 B( 17-C , 33-H ) :   0.9765 B( 18-C , 19-C ) :   1.2491
B( 18-C , 21-H ) :   0.9701 B( 19-C , 20-C ) :   1.5694 B( 19-C , 22-C ) :   1.0498
B( 22-C , 23-H ) :   0.9325 B( 22-C , 24-H ) :   0.9358 B( 22-C , 25-C ) :   1.0566
B( 25-C , 26-H ) :   0.9377 B( 25-C , 27-H ) :   0.9406 B( 25-C , 28-C ) :   1.0916
B( 28-C , 29-H ) :   0.9688 B( 28-C , 30-H ) :   0.9731 B( 28-C , 31-H ) :   0.9723

Dispersion correction           -0.015020006
FINAL SINGLE POINT ENERGY     -1339.866565965955

DIPOLE MOMENT
-------------
                                X             Y             Z
Electronic contribution:    -23.05294     -21.56966      -7.37810
Nuclear contribution   :     23.51559      21.98788       7.64250
                        -----------------------------------------
Total Dipole Moment    :      0.46265       0.41822       0.26441
                        -----------------------------------------
Magnitude (a.u.)       :      0.67739
Magnitude (Debye)      :      1.72179

Rotational constants in cm-1:     0.016792     0.010735     0.006802
Rotational constants in MHz :   503.415302   321.817720   203.924828

                             ****ORCA TERMINATED NORMALLY****
TOTAL RUN TIME: 0 days 0 hours 0 minutes 22 seconds 400 msec
