                         Program Version 4.2.1 -  RELEASE  -
|  1> ! wB97X-D3 SP def2-SVP
|  2> %pal
|  3> nprocs 24
|  4> end
|  5>
|  6> * xyz 0 1
|  7> S 	 -53.1714 	 14.4857 	 23.5416
|  8> C 	 -54.1552 	 13.2438 	 22.9862
|  9> C 	 -55.4219 	 13.7417 	 22.6713
| 10> C 	 -55.4588 	 15.1964 	 22.755
| 11> C 	 -54.2379 	 15.7507 	 23.0982
| 12> H 	 -56.3138 	 15.8184 	 22.5693
| 13> C 	 -56.6743 	 12.9458 	 22.4336
| 14> H 	 -57.347 	 13.169 	 23.215
| 15> H 	 -56.4545 	 11.9032 	 22.5236
| 16> C 	 -57.3757 	 13.1819 	 21.094
| 17> H 	 -57.5601 	 14.2329 	 21.1142
| 18> H 	 -56.7354 	 13.0412 	 20.3049
| 19> C 	 -58.5937 	 12.3256 	 20.7872
| 20> H 	 -58.1903 	 11.3663 	 20.5071
| 21> H 	 -59.2124 	 12.3301 	 21.6773
| 22> H 	 -59.1244 	 12.5729 	 19.913
| 23> S 	 -53.9537 	 17.7191 	 25.0541
| 24> C 	 -53.282 	 19.2784 	 24.607
| 25> C 	 -53.2109 	 19.393 	 23.2377
| 26> C 	 -53.7026 	 18.2969 	 22.5583
| 27> C 	 -53.9271 	 17.1882 	 23.3743
| 28> H 	 -52.7735 	 20.2878 	 22.7138
| 29> C 	 -53.5996 	 18.3075 	 21.0359
| 30> H 	 -53.4932 	 17.2135 	 20.8503
| 31> H 	 -52.7552 	 18.8488 	 20.6618
| 32> C 	 -54.8992 	 18.7869 	 20.3157
| 33> H 	 -55.7285 	 18.2569 	 20.6949
| 34> H 	 -54.8374 	 18.5857 	 19.2627
| 35> C 	 -55.2755 	 20.2872 	 20.4316
| 36> H 	 -54.6409 	 21.038 	 19.9048
| 37> H 	 -55.3005 	 20.5538 	 21.4835
| 38> H 	 -56.285 	 20.4509 	 19.9432
| 39> H 	 -53.9516 	 12.2547 	 23.1707
| 40> H 	 -53.0884 	 20.0565 	 25.3558
| 41> *
| 42>
| 43>                          ****END OF INPUT****

CARTESIAN COORDINATES (ANGSTROEM)
---------------------------------
  S    -53.171400   14.485700   23.541600
  C    -54.155200   13.243800   22.986200
  C    -55.421900   13.741700   22.671300
  C    -55.458800   15.196400   22.755000
  C    -54.237900   15.750700   23.098200
  H    -56.313800   15.818400   22.569300
  C    -56.674300   12.945800   22.433600
  H    -57.347000   13.169000   23.215000
  H    -56.454500   11.903200   22.523600
  C    -57.375700   13.181900   21.094000
  H    -57.560100   14.232900   21.114200
  H    -56.735400   13.041200   20.304900
  C    -58.593700   12.325600   20.787200
  H    -58.190300   11.366300   20.507100
  H    -59.212400   12.330100   21.677300
  H    -59.124400   12.572900   19.913000
  S    -53.953700   17.719100   25.054100
  C    -53.282000   19.278400   24.607000
  C    -53.210900   19.393000   23.237700
  C    -53.702600   18.296900   22.558300
  C    -53.927100   17.188200   23.374300
  H    -52.773500   20.287800   22.713800
  C    -53.599600   18.307500   21.035900
  H    -53.493200   17.213500   20.850300
  H    -52.755200   18.848800   20.661800
  C    -54.899200   18.786900   20.315700
  H    -55.728500   18.256900   20.694900
  H    -54.837400   18.585700   19.262700
  C    -55.275500   20.287200   20.431600
  H    -54.640900   21.038000   19.904800
  H    -55.300500   20.553800   21.483500
  H    -56.285000   20.450900   19.943200
  H    -53.951600   12.254700   23.170700
  H    -53.088400   20.056500   25.355800

 Total Charge           Charge          ....    0
 Multiplicity           Mult            ....    1
 Number of Electrons    NEL             ....  134
 Basis Dimension        Dim             ....  322

ORBITAL ENERGIES
----------------

  NO   OCC          E(Eh)            E(eV)
   0   2.0000     -88.965381     -2420.8711
   1   2.0000     -88.964342     -2420.8428
   2   2.0000     -10.331011      -281.1211
   3   2.0000     -10.329734      -281.0863
   4   2.0000     -10.318851      -280.7902
   5   2.0000     -10.307232      -280.4740
   6   2.0000     -10.304062      -280.3878
   7   2.0000     -10.299415      -280.2613
   8   2.0000     -10.295992      -280.1682
   9   2.0000     -10.292177      -280.0644
  10   2.0000     -10.290478      -280.0181
  11   2.0000     -10.284455      -279.8542
  12   2.0000     -10.281731      -279.7801
  13   2.0000     -10.281054      -279.7617
  14   2.0000     -10.272937      -279.5408
  15   2.0000     -10.272451      -279.5276
  16   2.0000      -8.081094      -219.8978
  17   2.0000      -8.079941      -219.8664
  18   2.0000      -6.039472      -164.3424
  19   2.0000      -6.038372      -164.3125
  20   2.0000      -6.035152      -164.2248
  21   2.0000      -6.034440      -164.2055
  22   2.0000      -6.032009      -164.1393
  23   2.0000      -6.030832      -164.1073
  24   2.0000      -1.012299       -27.5460
  25   2.0000      -0.992046       -26.9949
  26   2.0000      -0.917300       -24.9610
  27   2.0000      -0.902670       -24.5629
  28   2.0000      -0.870655       -23.6917
  29   2.0000      -0.852292       -23.1920
  30   2.0000      -0.847525       -23.0623
  31   2.0000      -0.816662       -22.2225
  32   2.0000      -0.783789       -21.3280
  33   2.0000      -0.772525       -21.0215
  34   2.0000      -0.709865       -19.3164
  35   2.0000      -0.700846       -19.0710
  36   2.0000      -0.688281       -18.7291
  37   2.0000      -0.660560       -17.9748
  38   2.0000      -0.653890       -17.7932
  39   2.0000      -0.620028       -16.8718
  40   2.0000      -0.594368       -16.1736
  41   2.0000      -0.579623       -15.7724
  42   2.0000      -0.566172       -15.4063
  43   2.0000      -0.551124       -14.9969
  44   2.0000      -0.542098       -14.7512
  45   2.0000      -0.530513       -14.4360
  46   2.0000      -0.516941       -14.0667
  47   2.0000      -0.511447       -13.9172
  48   2.0000      -0.505399       -13.7526
  49   2.0000      -0.500351       -13.6153
  50   2.0000      -0.496912       -13.5217
  51   2.0000      -0.477528       -12.9942
  52   2.0000      -0.472098       -12.8464
  53   2.0000      -0.469349       -12.7716
  54   2.0000      -0.466063       -12.6822
  55   2.0000      -0.448942       -12.2163
  56   2.0000      -0.445713       -12.1285
  57   2.0000      -0.437106       -11.8943
  58   2.0000      -0.427448       -11.6314
  59   2.0000      -0.424737       -11.5577
  60   2.0000      -0.421345       -11.4654
  61   2.0000      -0.414789       -11.2870
  62   2.0000      -0.409741       -11.1496
  63   2.0000      -0.340333        -9.2609
  64   2.0000      -0.331047        -9.0082
  65   2.0000      -0.322203        -8.7676
  66   2.0000      -0.306378        -8.3370
  67   0.0000       0.037564         1.0222
  68   0.0000       0.058290         1.5862
  69   0.0000       0.113427         3.0865
  70   0.0000       0.123682         3.3656
  71   0.0000       0.129042         3.5114

MULLIKEN ATOMIC CHARGES
-----------------------
   0 S :    0.123712
   1 C :   -0.068578
   2 C :   -0.123236
   3 C :    0.042704
   4 C :   -0.172185
   5 H :    0.014779
   6 C :    0.104562
   7 H :    0.023317
   8 H :   -0.002160
   9 C :   -0.064058
  10 H :    0.010344
  11 H :    0.003550
  12 C :   -0.001831
  13 H :    0.019818
  14 H :    0.031678
  15 H :    0.024220
  16 S :    0.109113
  17 C :   -0.105067
  18 C :   -0.047381
  19 C :   -0.011185
  20 C :   -0.183850
  21 H :    0.040412
  22 C :    0.054794
  23 H :    0.037954
  24 H :    0.026019
  25 C :   -0.032010
  26 H :    0.015259
  27 H :    0.026983
  28 C :   -0.098139
  29 H :    0.031690
  30 H :    0.038688
  31 H :    0.040365
  32 H :    0.022640
  33 H :    0.067078
Sum of atomic charges:   -0.0000000

LOEWDIN ATOMIC CHARGES
----------------------
   0 S :    0.458995
   1 C :   -0.206838
   2 C :   -0.056998
   3 C :   -0.057468
   4 C :   -0.218954
   5 H :    0.028066
   6 C :   -0.026157
   7 H :    0.028461
   8 H :    0.022115
   9 C :   -0.034517
  10 H :    0.015429
  11 H :    0.012886
  12 C :   -0.054472
  13 H :    0.026412
  14 H :    0.025046
  15 H :    0.023070
  16 S :    0.403510
  17 C :   -0.184026
  18 C :   -0.081407
  19 C :   -0.061241
  20 C :   -0.199922
  21 H :    0.042345
  22 C :   -0.024509
  23 H :    0.039874
  24 H :    0.025600
  25 C :   -0.033822
  26 H :    0.018882
  27 H :    0.022052
  28 C :   -0.077017
  29 H :    0.023295
  30 H :    0.021737
  31 H :    0.033679
  32 H :    0.013222
  33 H :    0.032672

  Mayer bond orders larger than 0.100000
B(  0-S ,  1-C ) :   1.1740 B(  0-S ,  4-C ) :   1.1839 B(  1-C ,  2-C ) :   1.5717
B(  1-C , 32-H ) :   0.9787 B(  2-C ,  3-C ) :   1.2538 B(  2-C ,  6-C ) :   1.0407
B(  3-C ,  4-C ) :   1.5562 B(  3-C ,  5-H ) :   0.9979 B(  4-C , 20-C ) :   0.9926
B(  6-C ,  7-H ) :   0.9312 B(  6-C ,  8-H ) :   0.9361 B(  6-C ,  9-C ) :   1.0583
B(  9-C , 10-H ) :   0.9559 B(  9-C , 11-H ) :   0.9556 B(  9-C , 12-C ) :   1.0878
B( 12-C , 13-H ) :   0.9731 B( 12-C , 14-H ) :   0.9763 B( 12-C , 15-H ) :   0.9715
B( 16-S , 17-C ) :   1.1626 B( 16-S , 20-C ) :   1.1647 B( 17-C , 18-C ) :   1.5720
B( 17-C , 20-C ) :   0.1161 B( 17-C , 33-H ) :   0.9673 B( 18-C , 19-C ) :   1.2745
B( 18-C , 21-H ) :   0.9811 B( 19-C , 20-C ) :   1.5796 B( 19-C , 22-C ) :   1.0278
B( 22-C , 23-H ) :   0.9327 B( 22-C , 24-H ) :   0.9519 B( 22-C , 25-C ) :   1.0713
B( 25-C , 26-H ) :   0.9532 B( 25-C , 27-H ) :   0.9575 B( 25-C , 28-C ) :   1.0741
B( 28-C , 29-H ) :   0.9766 B( 28-C , 30-H ) :   0.9754 B( 28-C , 31-H ) :   0.9732

Dispersion correction           -0.013911810
FINAL SINGLE POINT ENERGY     -1339.867470217378

DIPOLE MOMENT
-------------
                                X             Y             Z
Electronic contribution:     18.07931       0.14876      21.26763
Nuclear contribution   :    -18.43237      -0.14978     -21.58910
                        -----------------------------------------
Total Dipole Moment    :     -0.35306      -0.00101      -0.32147
                        -----------------------------------------
Magnitude (a.u.)       :      0.47749
Magnitude (Debye)      :      1.21367

Rotational constants in cm-1:     0.018474     0.008159     0.006392
Rotational constants in MHz :   553.843844   244.608036   191.637962

                             ****ORCA TERMINATED NORMALLY****
TOTAL RUN TIME: 0 days 0 hours 0 minutes 21 seconds 402 msec
