                         Program Version 4.2.1 -  RELEASE  -
|  1> ! wB97X-D3 SP def2-SVP
|  2> %pal
|  3> nprocs 24
|  4> end
|  5>
|  6> * xyz 0 1
|  7> S 	 -113.621 	 38.4971 	 -122.511
|  8> C 	 -113.895 	 36.9936 	 -121.848
|  9> C 	 -115.207 	 36.7733 	 -121.558
| 10> C 	 -116.026 	 37.9034 	 -121.821
| 11> C 	 -115.331 	 38.9503 	 -122.391
| 12> H 	 -117.063 	 38.0742 	 -121.63
| 13> C 	 -115.781 	 35.4732 	 -120.97
| 14> H 	 -114.999 	 34.7114 	 -121.028
| 15> H 	 -116.541 	 35.139 	 -121.714
| 16> C 	 -116.408 	 35.468 	 -119.557
| 17> H 	 -116.463 	 34.4425 	 -119.217
| 18> H 	 -115.738 	 36.0597 	 -118.897
| 19> C 	 -117.781 	 36.0684 	 -119.518
| 20> H 	 -118.265 	 35.9778 	 -118.515
| 21> H 	 -117.639 	 37.1609 	 -119.545
| 22> H 	 -118.51 	 35.8077 	 -120.249
| 23> S 	 -116.489 	 40.3202 	 -124.48
| 24> C 	 -117.079 	 41.8732 	 -124.227
| 25> C 	 -117.134 	 42.2225 	 -122.902
| 26> C 	 -116.429 	 41.2243 	 -122.123
| 27> C 	 -115.902 	 40.1849 	 -122.856
| 28> H 	 -117.445 	 43.1518 	 -122.564
| 29> C 	 -116.422 	 41.2133 	 -120.634
| 30> H 	 -116.24 	 42.2286 	 -120.299
| 31> H 	 -115.581 	 40.5199 	 -120.265
| 32> C 	 -117.674 	 40.7676 	 -119.843
| 33> H 	 -117.378 	 40.7829 	 -118.696
| 34> H 	 -117.923 	 39.7978 	 -120.192
| 35> C 	 -118.828 	 41.6604 	 -120.08
| 36> H 	 -119.041 	 41.8282 	 -121.086
| 37> H 	 -118.559 	 42.6123 	 -119.695
| 38> H 	 -119.742 	 41.3486 	 -119.571
| 39> H 	 -113.169 	 36.3109 	 -121.504
| 40> H 	 -117.53 	 42.4231 	 -125.028
| 41> *
| 42>
| 43>                          ****END OF INPUT****

CARTESIAN COORDINATES (ANGSTROEM)
---------------------------------
  S    -113.621000   38.497100  -122.511000
  C    -113.895000   36.993600  -121.848000
  C    -115.207000   36.773300  -121.558000
  C    -116.026000   37.903400  -121.821000
  C    -115.331000   38.950300  -122.391000
  H    -117.063000   38.074200  -121.630000
  C    -115.781000   35.473200  -120.970000
  H    -114.999000   34.711400  -121.028000
  H    -116.541000   35.139000  -121.714000
  C    -116.408000   35.468000  -119.557000
  H    -116.463000   34.442500  -119.217000
  H    -115.738000   36.059700  -118.897000
  C    -117.781000   36.068400  -119.518000
  H    -118.265000   35.977800  -118.515000
  H    -117.639000   37.160900  -119.545000
  H    -118.510000   35.807700  -120.249000
  S    -116.489000   40.320200  -124.480000
  C    -117.079000   41.873200  -124.227000
  C    -117.134000   42.222500  -122.902000
  C    -116.429000   41.224300  -122.123000
  C    -115.902000   40.184900  -122.856000
  H    -117.445000   43.151800  -122.564000
  C    -116.422000   41.213300  -120.634000
  H    -116.240000   42.228600  -120.299000
  H    -115.581000   40.519900  -120.265000
  C    -117.674000   40.767600  -119.843000
  H    -117.378000   40.782900  -118.696000
  H    -117.923000   39.797800  -120.192000
  C    -118.828000   41.660400  -120.080000
  H    -119.041000   41.828200  -121.086000
  H    -118.559000   42.612300  -119.695000
  H    -119.742000   41.348600  -119.571000
  H    -113.169000   36.310900  -121.504000
  H    -117.530000   42.423100  -125.028000

 Total Charge           Charge          ....    0
 Multiplicity           Mult            ....    1
 Number of Electrons    NEL             ....  134
 Basis Dimension        Dim             ....  322

ORBITAL ENERGIES
----------------

  NO   OCC          E(Eh)            E(eV)
   0   2.0000     -88.964935     -2420.8590
   1   2.0000     -88.961684     -2420.7705
   2   2.0000     -10.324690      -280.9491
   3   2.0000     -10.317534      -280.7544
   4   2.0000     -10.312856      -280.6271
   5   2.0000     -10.304373      -280.3962
   6   2.0000     -10.300603      -280.2937
   7   2.0000     -10.296551      -280.1834
   8   2.0000     -10.294191      -280.1192
   9   2.0000     -10.291092      -280.0348
  10   2.0000     -10.290410      -280.0163
  11   2.0000     -10.288951      -279.9766
  12   2.0000     -10.288723      -279.9704
  13   2.0000     -10.287906      -279.9482
  14   2.0000     -10.276600      -279.6405
  15   2.0000     -10.263403      -279.2814
  16   2.0000      -8.080846      -219.8910
  17   2.0000      -8.078498      -219.8271
  18   2.0000      -6.039186      -164.3346
  19   2.0000      -6.036772      -164.2689
  20   2.0000      -6.035078      -164.2228
  21   2.0000      -6.032742      -164.1592
  22   2.0000      -6.031817      -164.1341
  23   2.0000      -6.029341      -164.0667
  24   2.0000      -1.016321       -27.6555
  25   2.0000      -0.996528       -27.1169
  26   2.0000      -0.915623       -24.9154
  27   2.0000      -0.910235       -24.7687
  28   2.0000      -0.880400       -23.9569
  29   2.0000      -0.853451       -23.2236
  30   2.0000      -0.850791       -23.1512
  31   2.0000      -0.820409       -22.3245
  32   2.0000      -0.784926       -21.3589
  33   2.0000      -0.772154       -21.0114
  34   2.0000      -0.708147       -19.2697
  35   2.0000      -0.698087       -18.9959
  36   2.0000      -0.690469       -18.7886
  37   2.0000      -0.667867       -18.1736
  38   2.0000      -0.650942       -17.7130
  39   2.0000      -0.615509       -16.7488
  40   2.0000      -0.597802       -16.2670
  41   2.0000      -0.579042       -15.7565
  42   2.0000      -0.557914       -15.1816
  43   2.0000      -0.549557       -14.9542
  44   2.0000      -0.543796       -14.7975
  45   2.0000      -0.541712       -14.7407
  46   2.0000      -0.522787       -14.2258
  47   2.0000      -0.515015       -14.0143
  48   2.0000      -0.509583       -13.8664
  49   2.0000      -0.496772       -13.5179
  50   2.0000      -0.496043       -13.4980
  51   2.0000      -0.484985       -13.1971
  52   2.0000      -0.478000       -13.0070
  53   2.0000      -0.472529       -12.8582
  54   2.0000      -0.462146       -12.5756
  55   2.0000      -0.442887       -12.0516
  56   2.0000      -0.439959       -11.9719
  57   2.0000      -0.430295       -11.7089
  58   2.0000      -0.427264       -11.6264
  59   2.0000      -0.425813       -11.5870
  60   2.0000      -0.421582       -11.4718
  61   2.0000      -0.417935       -11.3726
  62   2.0000      -0.413201       -11.2438
  63   2.0000      -0.341260        -9.2862
  64   2.0000      -0.327534        -8.9126
  65   2.0000      -0.320047        -8.7089
  66   2.0000      -0.311457        -8.4752
  67   0.0000       0.045602         1.2409
  68   0.0000       0.058278         1.5858
  69   0.0000       0.109542         2.9808
  70   0.0000       0.127167         3.4604
  71   0.0000       0.132801         3.6137

MULLIKEN ATOMIC CHARGES
-----------------------
   0 S :    0.133845
   1 C :   -0.089409
   2 C :   -0.094306
   3 C :    0.053622
   4 C :   -0.207815
   5 H :    0.003865
   6 C :    0.051621
   7 H :    0.010223
   8 H :    0.035905
   9 C :   -0.039910
  10 H :    0.032618
  11 H :    0.035904
  12 C :   -0.067904
  13 H :    0.032173
  14 H :    0.026038
  15 H :    0.033218
  16 S :    0.121064
  17 C :   -0.078695
  18 C :    0.001398
  19 C :   -0.048235
  20 C :   -0.154097
  21 H :   -0.002265
  22 C :    0.019296
  23 H :    0.010553
  24 H :    0.049888
  25 C :   -0.059913
  26 H :    0.050949
  27 H :    0.012059
  28 C :   -0.008276
  29 H :    0.019498
  30 H :    0.000699
  31 H :    0.032004
  32 H :    0.031041
  33 H :    0.053345
Sum of atomic charges:   -0.0000000

LOEWDIN ATOMIC CHARGES
----------------------
   0 S :    0.435172
   1 C :   -0.214292
   2 C :   -0.071371
   3 C :   -0.050724
   4 C :   -0.198386
   5 H :    0.027246
   6 C :   -0.032995
   7 H :    0.025892
   8 H :    0.035316
   9 C :   -0.039229
  10 H :    0.024056
  11 H :    0.031502
  12 C :   -0.075253
  13 H :    0.031964
  14 H :    0.027082
  15 H :    0.019662
  16 S :    0.443247
  17 C :   -0.190144
  18 C :   -0.069770
  19 C :   -0.050782
  20 C :   -0.219332
  21 H :    0.020073
  22 C :   -0.041095
  23 H :    0.023370
  24 H :    0.042253
  25 C :   -0.036078
  26 H :    0.040514
  27 H :    0.010274
  28 C :   -0.062483
  29 H :    0.016983
  30 H :    0.018317
  31 H :    0.028522
  32 H :    0.024985
  33 H :    0.025504

  Mayer bond orders larger than 0.100000
B(  0-S ,  1-C ) :   1.1658 B(  0-S ,  4-C ) :   1.1465 B(  1-C ,  2-C ) :   1.6106
B(  1-C , 32-H ) :   0.9643 B(  2-C ,  3-C ) :   1.2396 B(  2-C ,  6-C ) :   1.0205
B(  3-C ,  4-C ) :   1.5796 B(  3-C ,  5-H ) :   0.9972 B(  4-C , 20-C ) :   1.0270
B(  6-C ,  7-H ) :   0.9398 B(  6-C ,  8-H ) :   0.9406 B(  6-C ,  9-C ) :   1.0610
B(  9-C , 10-H ) :   0.9559 B(  9-C , 11-H ) :   0.9546 B(  9-C , 12-C ) :   1.0864
B( 12-C , 13-H ) :   0.9664 B( 12-C , 14-H ) :   0.9698 B( 12-C , 15-H ) :   0.9758
B( 16-S , 17-C ) :   1.1988 B( 16-S , 20-C ) :   1.1429 B( 17-C , 18-C ) :   1.5711
B( 17-C , 33-H ) :   0.9676 B( 18-C , 19-C ) :   1.2409 B( 18-C , 21-H ) :   1.0005
B( 19-C , 20-C ) :   1.5960 B( 19-C , 22-C ) :   1.0731 B( 22-C , 23-H ) :   0.9295
B( 22-C , 24-H ) :   0.9258 B( 22-C , 25-C ) :   1.0696 B( 25-C , 26-H ) :   0.9531
B( 25-C , 27-H ) :   0.9440 B( 25-C , 28-C ) :   1.0912 B( 28-C , 29-H ) :   0.9665
B( 28-C , 30-H ) :   0.9686 B( 28-C , 31-H ) :   0.9675

Dispersion correction           -0.015771332
FINAL SINGLE POINT ENERGY     -1339.875943182971

DIPOLE MOMENT
-------------
                                X             Y             Z
Electronic contribution:     16.18183       5.47405     -22.77219
Nuclear contribution   :    -16.62407      -5.56463      23.23491
                        -----------------------------------------
Total Dipole Moment    :     -0.44223      -0.09058       0.46271
                        -----------------------------------------
Magnitude (a.u.)       :      0.64644
Magnitude (Debye)      :      1.64311

Rotational constants in cm-1:     0.017900     0.010183     0.007622
Rotational constants in MHz :   536.622327   305.286688   228.496218

                             ****ORCA TERMINATED NORMALLY****
TOTAL RUN TIME: 0 days 0 hours 0 minutes 23 seconds 129 msec
