                         Program Version 4.2.1 -  RELEASE  -
|  1> ! wB97X-D3 SP def2-SVP
|  2> %pal
|  3> nprocs 24
|  4> end
|  5>
|  6> * xyz 0 1
|  7> S 	 -112.611 	 20.7652 	 -110.378
|  8> C 	 -111.728 	 21.967 	 -111.36
|  9> C 	 -111.854 	 21.7311 	 -112.714
| 10> C 	 -112.786 	 20.6635 	 -112.983
| 11> C 	 -113.317 	 20.0983 	 -111.811
| 12> H 	 -113.168 	 20.4105 	 -113.941
| 13> C 	 -111.291 	 22.4469 	 -113.799
| 14> H 	 -110.696 	 23.3182 	 -113.597
| 15> H 	 -111.993 	 22.7781 	 -114.462
| 16> C 	 -110.309 	 21.6601 	 -114.608
| 17> H 	 -109.737 	 21.0212 	 -113.984
| 18> H 	 -110.89 	 20.9987 	 -115.205
| 19> C 	 -109.383 	 22.4734 	 -115.562
| 20> H 	 -108.779 	 21.8407 	 -116.175
| 21> H 	 -109.841 	 23.2535 	 -116.174
| 22> H 	 -108.688 	 23.0812 	 -114.989
| 23> S 	 -115.949 	 19.5663 	 -111.25
| 24> C 	 -116.548 	 17.9144 	 -111.499
| 25> C 	 -115.583 	 17.1002 	 -111.985
| 26> C 	 -114.291 	 17.7869 	 -112.194
| 27> C 	 -114.341 	 19.0199 	 -111.674
| 28> H 	 -115.912 	 16.0684 	 -112.204
| 29> C 	 -113.142 	 17.0023 	 -112.805
| 30> H 	 -112.474 	 17.7214 	 -113.352
| 31> H 	 -113.519 	 16.5086 	 -113.619
| 32> C 	 -112.247 	 16.1447 	 -111.861
| 33> H 	 -111.431 	 15.5632 	 -112.365
| 34> H 	 -112.884 	 15.3146 	 -111.387
| 35> C 	 -111.551 	 17.0546 	 -110.865
| 36> H 	 -110.979 	 17.9047 	 -111.262
| 37> H 	 -110.97 	 16.3841 	 -110.189
| 38> H 	 -112.34 	 17.5162 	 -110.369
| 39> H 	 -111.005 	 22.6868 	 -110.917
| 40> H 	 -117.526 	 17.5495 	 -111.285
| 41> *
| 42>
| 43>                          ****END OF INPUT****

CARTESIAN COORDINATES (ANGSTROEM)
---------------------------------
  S    -112.611000   20.765200  -110.378000
  C    -111.728000   21.967000  -111.360000
  C    -111.854000   21.731100  -112.714000
  C    -112.786000   20.663500  -112.983000
  C    -113.317000   20.098300  -111.811000
  H    -113.168000   20.410500  -113.941000
  C    -111.291000   22.446900  -113.799000
  H    -110.696000   23.318200  -113.597000
  H    -111.993000   22.778100  -114.462000
  C    -110.309000   21.660100  -114.608000
  H    -109.737000   21.021200  -113.984000
  H    -110.890000   20.998700  -115.205000
  C    -109.383000   22.473400  -115.562000
  H    -108.779000   21.840700  -116.175000
  H    -109.841000   23.253500  -116.174000
  H    -108.688000   23.081200  -114.989000
  S    -115.949000   19.566300  -111.250000
  C    -116.548000   17.914400  -111.499000
  C    -115.583000   17.100200  -111.985000
  C    -114.291000   17.786900  -112.194000
  C    -114.341000   19.019900  -111.674000
  H    -115.912000   16.068400  -112.204000
  C    -113.142000   17.002300  -112.805000
  H    -112.474000   17.721400  -113.352000
  H    -113.519000   16.508600  -113.619000
  C    -112.247000   16.144700  -111.861000
  H    -111.431000   15.563200  -112.365000
  H    -112.884000   15.314600  -111.387000
  C    -111.551000   17.054600  -110.865000
  H    -110.979000   17.904700  -111.262000
  H    -110.970000   16.384100  -110.189000
  H    -112.340000   17.516200  -110.369000
  H    -111.005000   22.686800  -110.917000
  H    -117.526000   17.549500  -111.285000

 Total Charge           Charge          ....    0
 Multiplicity           Mult            ....    1
 Number of Electrons    NEL             ....  134
 Basis Dimension        Dim             ....  322

ORBITAL ENERGIES
----------------

  NO   OCC          E(Eh)            E(eV)
   0   2.0000     -88.967086     -2420.9175
   1   2.0000     -88.963345     -2420.8157
   2   2.0000     -10.332141      -281.1519
   3   2.0000     -10.325305      -280.9658
   4   2.0000     -10.317833      -280.7625
   5   2.0000     -10.314331      -280.6672
   6   2.0000     -10.306433      -280.4523
   7   2.0000     -10.298977      -280.2494
   8   2.0000     -10.295961      -280.1673
   9   2.0000     -10.295560      -280.1564
  10   2.0000     -10.294043      -280.1151
  11   2.0000     -10.288724      -279.9704
  12   2.0000     -10.279551      -279.7208
  13   2.0000     -10.279408      -279.7169
  14   2.0000     -10.273222      -279.5486
  15   2.0000     -10.266217      -279.3580
  16   2.0000      -8.081425      -219.9068
  17   2.0000      -8.078083      -219.8158
  18   2.0000      -6.039896      -164.3539
  19   2.0000      -6.036825      -164.2704
  20   2.0000      -6.035959      -164.2468
  21   2.0000      -6.032777      -164.1602
  22   2.0000      -6.032282      -164.1467
  23   2.0000      -6.028396      -164.0410
  24   2.0000      -1.006431       -27.3864
  25   2.0000      -0.984658       -26.7939
  26   2.0000      -0.928334       -25.2613
  27   2.0000      -0.905873       -24.6500
  28   2.0000      -0.868042       -23.6206
  29   2.0000      -0.849911       -23.1273
  30   2.0000      -0.844616       -22.9832
  31   2.0000      -0.814477       -22.1631
  32   2.0000      -0.788944       -21.4683
  33   2.0000      -0.777448       -21.1554
  34   2.0000      -0.712195       -19.3798
  35   2.0000      -0.698239       -19.0001
  36   2.0000      -0.689664       -18.7667
  37   2.0000      -0.658076       -17.9072
  38   2.0000      -0.647526       -17.6201
  39   2.0000      -0.626078       -17.0364
  40   2.0000      -0.593458       -16.1488
  41   2.0000      -0.581647       -15.8274
  42   2.0000      -0.562490       -15.3061
  43   2.0000      -0.557246       -15.1634
  44   2.0000      -0.538143       -14.6436
  45   2.0000      -0.525800       -14.3077
  46   2.0000      -0.518567       -14.1109
  47   2.0000      -0.510439       -13.8898
  48   2.0000      -0.502216       -13.6660
  49   2.0000      -0.498649       -13.5689
  50   2.0000      -0.488723       -13.2988
  51   2.0000      -0.478819       -13.0293
  52   2.0000      -0.470595       -12.8055
  53   2.0000      -0.465754       -12.6738
  54   2.0000      -0.457340       -12.4449
  55   2.0000      -0.449743       -12.2381
  56   2.0000      -0.441156       -12.0045
  57   2.0000      -0.439066       -11.9476
  58   2.0000      -0.432444       -11.7674
  59   2.0000      -0.431344       -11.7375
  60   2.0000      -0.422083       -11.4855
  61   2.0000      -0.411560       -11.1991
  62   2.0000      -0.404282       -11.0011
  63   2.0000      -0.339624        -9.2416
  64   2.0000      -0.331630        -9.0241
  65   2.0000      -0.326164        -8.8754
  66   2.0000      -0.308251        -8.3879
  67   0.0000       0.039931         1.0866
  68   0.0000       0.065706         1.7880
  69   0.0000       0.110307         3.0016
  70   0.0000       0.113395         3.0856
  71   0.0000       0.122744         3.3400

MULLIKEN ATOMIC CHARGES
-----------------------
   0 S :    0.109428
   1 C :   -0.135670
   2 C :   -0.068297
   3 C :    0.057690
   4 C :   -0.186777
   5 H :    0.005131
   6 C :    0.136678
   7 H :   -0.003078
   8 H :    0.003141
   9 C :   -0.081280
  10 H :    0.020121
  11 H :    0.009404
  12 C :   -0.036612
  13 H :    0.032397
  14 H :    0.026763
  15 H :    0.018609
  16 S :    0.104647
  17 C :   -0.076015
  18 C :   -0.044897
  19 C :   -0.045832
  20 C :   -0.146683
  21 H :    0.029645
  22 C :    0.111022
  23 H :    0.014819
  24 H :   -0.002071
  25 C :   -0.090435
  26 H :    0.034291
  27 H :    0.037585
  28 C :   -0.026557
  29 H :    0.040775
  30 H :    0.038829
  31 H :    0.011429
  32 H :    0.059269
  33 H :    0.042531
Sum of atomic charges:    0.0000000

LOEWDIN ATOMIC CHARGES
----------------------
   0 S :    0.405096
   1 C :   -0.193031
   2 C :   -0.057945
   3 C :   -0.053313
   4 C :   -0.193286
   5 H :    0.026023
   6 C :   -0.034134
   7 H :    0.028624
   8 H :    0.024435
   9 C :   -0.026379
  10 H :    0.020025
  11 H :    0.014232
  12 C :   -0.064485
  13 H :    0.025167
  14 H :    0.025940
  15 H :    0.022661
  16 S :    0.386886
  17 C :   -0.169772
  18 C :   -0.070469
  19 C :   -0.051133
  20 C :   -0.203378
  21 H :    0.037766
  22 C :   -0.032250
  23 H :    0.035177
  24 H :    0.017674
  25 C :   -0.041923
  26 H :    0.026020
  27 H :    0.029112
  28 C :   -0.066063
  29 H :    0.029904
  30 H :    0.030965
  31 H :    0.012011
  32 H :    0.034577
  33 H :    0.025265

  Mayer bond orders larger than 0.100000
B(  0-S ,  1-C ) :   1.1214 B(  0-S ,  4-C ) :   1.1726 B(  1-C ,  2-C ) :   1.6214
B(  1-C , 32-H ) :   0.9631 B(  2-C ,  3-C ) :   1.2046 B(  2-C ,  6-C ) :   1.0679
B(  3-C ,  4-C ) :   1.5855 B(  3-C ,  5-H ) :   1.0001 B(  4-C , 20-C ) :   0.9768
B(  6-C ,  7-H ) :   0.9370 B(  6-C ,  8-H ) :   0.9167 B(  6-C ,  9-C ) :   1.0449
B(  9-C , 10-H ) :   0.9574 B(  9-C , 11-H ) :   0.9534 B(  9-C , 12-C ) :   1.0874
B( 12-C , 13-H ) :   0.9751 B( 12-C , 14-H ) :   0.9746 B( 12-C , 15-H ) :   0.9715
B( 16-S , 17-C ) :   1.1163 B( 16-S , 20-C ) :   1.1305 B( 17-C , 18-C ) :   1.7008
B( 17-C , 33-H ) :   0.9668 B( 18-C , 19-C ) :   1.1512 B( 18-C , 21-H ) :   0.9841
B( 19-C , 20-C ) :   1.6775 B( 19-C , 22-C ) :   1.0429 B( 22-C , 23-H ) :   0.9283
B( 22-C , 24-H ) :   0.9252 B( 22-C , 25-C ) :   1.0644 B( 25-C , 26-H ) :   0.9570
B( 25-C , 27-H ) :   0.9568 B( 25-C , 28-C ) :   1.0643 B( 28-C , 29-H ) :   0.9719
B( 28-C , 30-H ) :   0.9712 B( 28-C , 31-H ) :   0.9744

Dispersion correction           -0.015361108
FINAL SINGLE POINT ENERGY     -1339.858910890904

DIPOLE MOMENT
-------------
                                X             Y             Z
Electronic contribution:    -20.83691       3.70730      15.29889
Nuclear contribution   :     21.08588      -3.89889     -15.90036
                        -----------------------------------------
Total Dipole Moment    :      0.24896      -0.19159      -0.60147
                        -----------------------------------------
Magnitude (a.u.)       :      0.67857
Magnitude (Debye)      :      1.72479

Rotational constants in cm-1:     0.020291     0.008344     0.007444
Rotational constants in MHz :   608.314713   250.139351   223.177911

                             ****ORCA TERMINATED NORMALLY****
TOTAL RUN TIME: 0 days 0 hours 0 minutes 22 seconds 338 msec
