                         Program Version 4.2.1 -  RELEASE  -
|  1> ! wB97X-D3 SP def2-SVP
|  2> %pal
|  3> nprocs 24
|  4> end
|  5>
|  6> * xyz 0 1
|  7> S 	 24.4465 	 -23.1005 	 -122.803
|  8> C 	 24.475 	 -24.3707 	 -124.065
|  9> C 	 24.262 	 -25.7112 	 -123.649
| 10> C 	 24.2929 	 -25.7239 	 -122.213
| 11> C 	 24.3601 	 -24.4559 	 -121.639
| 12> H 	 24.2917 	 -26.6006 	 -121.569
| 13> C 	 23.9293 	 -26.95 	 -124.438
| 14> H 	 23.6865 	 -26.6269 	 -125.403
| 15> H 	 23.0213 	 -27.303 	 -124.129
| 16> C 	 25.0001 	 -28.012 	 -124.508
| 17> H 	 25.9315 	 -27.7383 	 -124.982
| 18> H 	 25.1888 	 -28.2655 	 -123.46
| 19> C 	 24.6353 	 -29.2742 	 -125.322
| 20> H 	 24.2951 	 -28.9836 	 -126.294
| 21> H 	 25.4602 	 -30.0077 	 -125.443
| 22> H 	 23.7864 	 -29.7573 	 -124.917
| 23> S 	 25.6925 	 -23.0706 	 -119.696
| 24> C 	 25.3691 	 -23.3163 	 -117.995
| 25> C 	 24.4204 	 -24.2634 	 -117.839
| 26> C 	 23.889 	 -24.7285 	 -119.103
| 27> C 	 24.447 	 -24.1584 	 -120.214
| 28> H 	 24.0954 	 -24.5766 	 -116.903
| 29> C 	 22.7615 	 -25.7517 	 -119.18
| 30> H 	 23.2052 	 -26.7674 	 -119.105
| 31> H 	 22.2935 	 -25.5598 	 -120.215
| 32> C 	 21.6696 	 -25.551 	 -118.146
| 33> H 	 21.9963 	 -25.5833 	 -117.093
| 34> H 	 21.1098 	 -26.454 	 -118.231
| 35> C 	 20.6967 	 -24.3779 	 -118.304
| 36> H 	 19.8908 	 -24.4171 	 -117.563
| 37> H 	 20.0893 	 -24.5612 	 -119.186
| 38> H 	 21.2405 	 -23.4424 	 -118.415
| 39> H 	 24.3818 	 -24.1281 	 -125.073
| 40> H 	 25.8852 	 -22.7865 	 -117.157
| 41> *
| 42>
| 43>                          ****END OF INPUT****

CARTESIAN COORDINATES (ANGSTROEM)
---------------------------------
  S     24.446500  -23.100500  -122.803000
  C     24.475000  -24.370700  -124.065000
  C     24.262000  -25.711200  -123.649000
  C     24.292900  -25.723900  -122.213000
  C     24.360100  -24.455900  -121.639000
  H     24.291700  -26.600600  -121.569000
  C     23.929300  -26.950000  -124.438000
  H     23.686500  -26.626900  -125.403000
  H     23.021300  -27.303000  -124.129000
  C     25.000100  -28.012000  -124.508000
  H     25.931500  -27.738300  -124.982000
  H     25.188800  -28.265500  -123.460000
  C     24.635300  -29.274200  -125.322000
  H     24.295100  -28.983600  -126.294000
  H     25.460200  -30.007700  -125.443000
  H     23.786400  -29.757300  -124.917000
  S     25.692500  -23.070600  -119.696000
  C     25.369100  -23.316300  -117.995000
  C     24.420400  -24.263400  -117.839000
  C     23.889000  -24.728500  -119.103000
  C     24.447000  -24.158400  -120.214000
  H     24.095400  -24.576600  -116.903000
  C     22.761500  -25.751700  -119.180000
  H     23.205200  -26.767400  -119.105000
  H     22.293500  -25.559800  -120.215000
  C     21.669600  -25.551000  -118.146000
  H     21.996300  -25.583300  -117.093000
  H     21.109800  -26.454000  -118.231000
  C     20.696700  -24.377900  -118.304000
  H     19.890800  -24.417100  -117.563000
  H     20.089300  -24.561200  -119.186000
  H     21.240500  -23.442400  -118.415000
  H     24.381800  -24.128100  -125.073000
  H     25.885200  -22.786500  -117.157000

 Total Charge           Charge          ....    0
 Multiplicity           Mult            ....    1
 Number of Electrons    NEL             ....  134
 Basis Dimension        Dim             ....  322

ORBITAL ENERGIES
----------------

  NO   OCC          E(Eh)            E(eV)
   0   2.0000     -88.973619     -2421.0953
   1   2.0000     -88.956828     -2420.6383
   2   2.0000     -10.333570      -281.1907
   3   2.0000     -10.318753      -280.7875
   4   2.0000     -10.317408      -280.7510
   5   2.0000     -10.316547      -280.7275
   6   2.0000     -10.309041      -280.5233
   7   2.0000     -10.298129      -280.2263
   8   2.0000     -10.296493      -280.1818
   9   2.0000     -10.296376      -280.1786
  10   2.0000     -10.287706      -279.9427
  11   2.0000     -10.286219      -279.9022
  12   2.0000     -10.285802      -279.8909
  13   2.0000     -10.280753      -279.7535
  14   2.0000     -10.277293      -279.6593
  15   2.0000     -10.274683      -279.5883
  16   2.0000      -8.086864      -220.0547
  17   2.0000      -8.072429      -219.6620
  18   2.0000      -6.045322      -164.5016
  19   2.0000      -6.041922      -164.4091
  20   2.0000      -6.037429      -164.2868
  21   2.0000      -6.031078      -164.1140
  22   2.0000      -6.026730      -163.9957
  23   2.0000      -6.023051      -163.8955
  24   2.0000      -1.005561       -27.3627
  25   2.0000      -0.978764       -26.6335
  26   2.0000      -0.919229       -25.0135
  27   2.0000      -0.907443       -24.6928
  28   2.0000      -0.870500       -23.6875
  29   2.0000      -0.853559       -23.2265
  30   2.0000      -0.841479       -22.8978
  31   2.0000      -0.816708       -22.2237
  32   2.0000      -0.787419       -21.4268
  33   2.0000      -0.772889       -21.0314
  34   2.0000      -0.711449       -19.3595
  35   2.0000      -0.701485       -19.0884
  36   2.0000      -0.693225       -18.8636
  37   2.0000      -0.657333       -17.8869
  38   2.0000      -0.643270       -17.5043
  39   2.0000      -0.622408       -16.9366
  40   2.0000      -0.593211       -16.1421
  41   2.0000      -0.576285       -15.6815
  42   2.0000      -0.563264       -15.3272
  43   2.0000      -0.558271       -15.1913
  44   2.0000      -0.538334       -14.6488
  45   2.0000      -0.533224       -14.5098
  46   2.0000      -0.517844       -14.0912
  47   2.0000      -0.513232       -13.9658
  48   2.0000      -0.503946       -13.7131
  49   2.0000      -0.496393       -13.5076
  50   2.0000      -0.490684       -13.3522
  51   2.0000      -0.477056       -12.9813
  52   2.0000      -0.468708       -12.7542
  53   2.0000      -0.458961       -12.4890
  54   2.0000      -0.456739       -12.4285
  55   2.0000      -0.451281       -12.2800
  56   2.0000      -0.446409       -12.1474
  57   2.0000      -0.445022       -12.1097
  58   2.0000      -0.436469       -11.8769
  59   2.0000      -0.430522       -11.7151
  60   2.0000      -0.419323       -11.4104
  61   2.0000      -0.415965       -11.3190
  62   2.0000      -0.400943       -10.9102
  63   2.0000      -0.351497        -9.5647
  64   2.0000      -0.335306        -9.1241
  65   2.0000      -0.323807        -8.8112
  66   2.0000      -0.289404        -7.8751
  67   0.0000       0.027591         0.7508
  68   0.0000       0.075641         2.0583
  69   0.0000       0.093118         2.5339
  70   0.0000       0.121015         3.2930
  71   0.0000       0.139373         3.7925

MULLIKEN ATOMIC CHARGES
-----------------------
   0 S :    0.114436
   1 C :   -0.079637
   2 C :   -0.109875
   3 C :    0.012450
   4 C :   -0.154975
   5 H :    0.021644
   6 C :    0.158552
   7 H :   -0.017112
   8 H :    0.006315
   9 C :   -0.074792
  10 H :    0.032944
  11 H :    0.026344
  12 C :   -0.032301
  13 H :    0.014844
  14 H :    0.047975
  15 H :    0.012452
  16 S :    0.083765
  17 C :   -0.097281
  18 C :    0.007779
  19 C :   -0.083912
  20 C :   -0.120529
  21 H :   -0.013057
  22 C :    0.028199
  23 H :    0.048833
  24 H :    0.047511
  25 C :   -0.079819
  26 H :    0.025066
  27 H :    0.009300
  28 C :   -0.026890
  29 H :    0.030634
  30 H :    0.015982
  31 H :    0.051256
  32 H :    0.020267
  33 H :    0.073631
Sum of atomic charges:    0.0000000

LOEWDIN ATOMIC CHARGES
----------------------
   0 S :    0.380110
   1 C :   -0.172398
   2 C :   -0.046347
   3 C :   -0.054075
   4 C :   -0.177416
   5 H :    0.032710
   6 C :   -0.022386
   7 H :    0.023289
   8 H :    0.024959
   9 C :   -0.033992
  10 H :    0.027634
  11 H :    0.022667
  12 C :   -0.061932
  13 H :    0.020222
  14 H :    0.033361
  15 H :    0.015813
  16 S :    0.399625
  17 C :   -0.184694
  18 C :   -0.067656
  19 C :   -0.067792
  20 C :   -0.211219
  21 H :    0.019135
  22 C :   -0.038298
  23 H :    0.035407
  24 H :    0.042753
  25 C :   -0.050529
  26 H :    0.020934
  27 H :    0.021181
  28 C :   -0.064052
  29 H :    0.030133
  30 H :    0.024156
  31 H :    0.028768
  32 H :    0.007719
  33 H :    0.042209

  Mayer bond orders larger than 0.100000
B(  0-S ,  1-C ) :   1.1283 B(  0-S ,  4-C ) :   1.1326 B(  1-C ,  2-C ) :   1.6402
B(  1-C , 32-H ) :   0.9650 B(  2-C ,  3-C ) :   1.2075 B(  2-C ,  6-C ) :   1.0247
B(  3-C ,  4-C ) :   1.6060 B(  3-C ,  5-H ) :   0.9844 B(  4-C , 20-C ) :   1.0351
B(  6-C ,  7-H ) :   0.9168 B(  6-C ,  8-H ) :   0.9327 B(  6-C ,  9-C ) :   1.0594
B(  9-C , 10-H ) :   0.9582 B(  9-C , 11-H ) :   0.9594 B(  9-C , 12-C ) :   1.0803
B( 12-C , 13-H ) :   0.9720 B( 12-C , 14-H ) :   0.9769 B( 12-C , 15-H ) :   0.9738
B( 16-S , 17-C ) :   1.1489 B( 16-S , 20-C ) :   1.1267 B( 17-C , 18-C ) :   1.6125
B( 17-C , 33-H ) :   0.9610 B( 18-C , 19-C ) :   1.2253 B( 18-C , 21-H ) :   1.0063
B( 19-C , 20-C ) :   1.6253 B( 19-C , 22-C ) :   1.0289 B( 22-C , 23-H ) :   0.9285
B( 22-C , 24-H ) :   0.9400 B( 22-C , 25-C ) :   1.0768 B( 25-C , 26-H ) :   0.9509
B( 25-C , 27-H ) :   0.9475 B( 25-C , 28-C ) :   1.0837 B( 28-C , 29-H ) :   0.9706
B( 28-C , 30-H ) :   0.9692 B( 28-C , 31-H ) :   0.9766

Dispersion correction           -0.013802648
FINAL SINGLE POINT ENERGY     -1339.867505240579

DIPOLE MOMENT
-------------
                                X             Y             Z
Electronic contribution:     13.39037      22.79898       3.00990
Nuclear contribution   :    -13.80047     -23.50345      -3.01276
                        -----------------------------------------
Total Dipole Moment    :     -0.41009      -0.70447      -0.00286
                        -----------------------------------------
Magnitude (a.u.)       :      0.81515
Magnitude (Debye)      :      2.07194

Rotational constants in cm-1:     0.019040     0.007727     0.006522
Rotational constants in MHz :   570.797645   231.652865   195.512766

                             ****ORCA TERMINATED NORMALLY****
TOTAL RUN TIME: 0 days 0 hours 0 minutes 21 seconds 396 msec
