                         Program Version 4.2.1 -  RELEASE  -
|  1> ! wB97X-D3 SP def2-SVP
|  2> %pal
|  3> nprocs 24
|  4> end
|  5>
|  6> * xyz 0 1
|  7> S 	 -53.0574 	 6.45931 	 -100.277
|  8> C 	 -54.1048 	 5.81015 	 -101.594
|  9> C 	 -55.3768 	 5.58755 	 -101.124
| 10> C 	 -55.4674 	 5.73358 	 -99.6837
| 11> C 	 -54.2862 	 6.22215 	 -99.0921
| 12> H 	 -56.3996 	 5.6086 	 -99.045
| 13> C 	 -56.5056 	 4.92446 	 -101.931
| 14> H 	 -57.0065 	 4.23937 	 -101.284
| 15> H 	 -56.0172 	 4.3331 	 -102.779
| 16> C 	 -57.5789 	 5.82251 	 -102.534
| 17> H 	 -57.8634 	 6.54818 	 -101.805
| 18> H 	 -57.0205 	 6.24649 	 -103.393
| 19> C 	 -58.7659 	 4.98571 	 -102.976
| 20> H 	 -59.4397 	 5.5853 	 -103.577
| 21> H 	 -58.3594 	 4.20991 	 -103.676
| 22> H 	 -59.243 	 4.49298 	 -102.166
| 23> S 	 -52.7332 	 5.77709 	 -96.8791
| 24> C 	 -53.1983 	 6.41387 	 -95.3357
| 25> C 	 -54.3811 	 7.09436 	 -95.4216
| 26> C 	 -54.9644 	 7.10275 	 -96.7298
| 27> C 	 -54.1318 	 6.44391 	 -97.6535
| 28> H 	 -54.6865 	 7.65013 	 -94.5142
| 29> C 	 -56.1654 	 7.93026 	 -96.961
| 30> H 	 -56.5509 	 7.53991 	 -97.8632
| 31> H 	 -55.789 	 8.86617 	 -97.2738
| 32> C 	 -57.0632 	 8.1852 	 -95.7851
| 33> H 	 -56.6547 	 8.82874 	 -94.9846
| 34> H 	 -57.4033 	 7.26459 	 -95.3025
| 35> C 	 -58.3593 	 8.95789 	 -96.126
| 36> H 	 -58.127 	 9.83195 	 -96.7873
| 37> H 	 -58.7883 	 9.38815 	 -95.2226
| 38> H 	 -59.1137 	 8.32972 	 -96.7169
| 39> H 	 -53.7975 	 5.54273 	 -102.568
| 40> H 	 -52.555 	 6.49435 	 -94.4751
| 41> *
| 42>
| 43>                          ****END OF INPUT****

CARTESIAN COORDINATES (ANGSTROEM)
---------------------------------
  S    -53.057400    6.459310  -100.277000
  C    -54.104800    5.810150  -101.594000
  C    -55.376800    5.587550  -101.124000
  C    -55.467400    5.733580  -99.683700
  C    -54.286200    6.222150  -99.092100
  H    -56.399600    5.608600  -99.045000
  C    -56.505600    4.924460  -101.931000
  H    -57.006500    4.239370  -101.284000
  H    -56.017200    4.333100  -102.779000
  C    -57.578900    5.822510  -102.534000
  H    -57.863400    6.548180  -101.805000
  H    -57.020500    6.246490  -103.393000
  C    -58.765900    4.985710  -102.976000
  H    -59.439700    5.585300  -103.577000
  H    -58.359400    4.209910  -103.676000
  H    -59.243000    4.492980  -102.166000
  S    -52.733200    5.777090  -96.879100
  C    -53.198300    6.413870  -95.335700
  C    -54.381100    7.094360  -95.421600
  C    -54.964400    7.102750  -96.729800
  C    -54.131800    6.443910  -97.653500
  H    -54.686500    7.650130  -94.514200
  C    -56.165400    7.930260  -96.961000
  H    -56.550900    7.539910  -97.863200
  H    -55.789000    8.866170  -97.273800
  C    -57.063200    8.185200  -95.785100
  H    -56.654700    8.828740  -94.984600
  H    -57.403300    7.264590  -95.302500
  C    -58.359300    8.957890  -96.126000
  H    -58.127000    9.831950  -96.787300
  H    -58.788300    9.388150  -95.222600
  H    -59.113700    8.329720  -96.716900
  H    -53.797500    5.542730  -102.568000
  H    -52.555000    6.494350  -94.475100

 Total Charge           Charge          ....    0
 Multiplicity           Mult            ....    1
 Number of Electrons    NEL             ....  134
 Basis Dimension        Dim             ....  322

ORBITAL ENERGIES
----------------

  NO   OCC          E(Eh)            E(eV)
   0   2.0000     -88.968848     -2420.9654
   1   2.0000     -88.963848     -2420.8294
   2   2.0000     -10.332526      -281.1623
   3   2.0000     -10.327014      -281.0123
   4   2.0000     -10.315662      -280.7034
   5   2.0000     -10.311563      -280.5919
   6   2.0000     -10.304840      -280.4089
   7   2.0000     -10.303770      -280.3798
   8   2.0000     -10.301519      -280.3186
   9   2.0000     -10.293654      -280.1046
  10   2.0000     -10.291679      -280.0508
  11   2.0000     -10.290721      -280.0248
  12   2.0000     -10.287796      -279.9452
  13   2.0000     -10.283764      -279.8354
  14   2.0000     -10.282747      -279.8078
  15   2.0000     -10.279109      -279.7088
  16   2.0000      -8.083011      -219.9499
  17   2.0000      -8.079254      -219.8477
  18   2.0000      -6.041667      -164.4021
  19   2.0000      -6.037769      -164.2960
  20   2.0000      -6.037544      -164.2899
  21   2.0000      -6.033696      -164.1852
  22   2.0000      -6.033527      -164.1806
  23   2.0000      -6.030113      -164.0877
  24   2.0000      -1.006901       -27.3992
  25   2.0000      -0.982637       -26.7389
  26   2.0000      -0.919451       -25.0195
  27   2.0000      -0.915520       -24.9126
  28   2.0000      -0.871856       -23.7244
  29   2.0000      -0.853650       -23.2290
  30   2.0000      -0.843384       -22.9496
  31   2.0000      -0.812848       -22.1187
  32   2.0000      -0.782127       -21.2828
  33   2.0000      -0.773777       -21.0555
  34   2.0000      -0.707667       -19.2566
  35   2.0000      -0.701838       -19.0980
  36   2.0000      -0.696819       -18.9614
  37   2.0000      -0.651102       -17.7174
  38   2.0000      -0.636515       -17.3204
  39   2.0000      -0.616357       -16.7719
  40   2.0000      -0.598288       -16.2802
  41   2.0000      -0.576171       -15.6784
  42   2.0000      -0.572580       -15.5807
  43   2.0000      -0.567902       -15.4534
  44   2.0000      -0.539807       -14.6889
  45   2.0000      -0.520978       -14.1765
  46   2.0000      -0.519874       -14.1465
  47   2.0000      -0.511343       -13.9143
  48   2.0000      -0.502343       -13.6695
  49   2.0000      -0.496420       -13.5083
  50   2.0000      -0.495790       -13.4911
  51   2.0000      -0.476994       -12.9797
  52   2.0000      -0.471557       -12.8317
  53   2.0000      -0.463607       -12.6154
  54   2.0000      -0.457052       -12.4370
  55   2.0000      -0.452171       -12.3042
  56   2.0000      -0.448302       -12.1989
  57   2.0000      -0.436778       -11.8853
  58   2.0000      -0.429839       -11.6965
  59   2.0000      -0.425187       -11.5699
  60   2.0000      -0.422674       -11.5015
  61   2.0000      -0.419569       -11.4170
  62   2.0000      -0.416568       -11.3354
  63   2.0000      -0.345542        -9.4027
  64   2.0000      -0.331491        -9.0203
  65   2.0000      -0.327736        -8.9182
  66   2.0000      -0.291318        -7.9272
  67   0.0000       0.025969         0.7066
  68   0.0000       0.078184         2.1275
  69   0.0000       0.113873         3.0986
  70   0.0000       0.119319         3.2468
  71   0.0000       0.124855         3.3975

MULLIKEN ATOMIC CHARGES
-----------------------
   0 S :    0.112522
   1 C :   -0.115592
   2 C :   -0.050978
   3 C :   -0.003500
   4 C :   -0.158172
   5 H :    0.045308
   6 C :    0.004470
   7 H :    0.013671
   8 H :    0.032899
   9 C :   -0.056006
  10 H :    0.027136
  11 H :    0.032284
  12 C :   -0.030512
  13 H :    0.036820
  14 H :    0.025567
  15 H :    0.032188
  16 S :    0.112122
  17 C :   -0.080649
  18 C :   -0.072105
  19 C :   -0.056166
  20 C :   -0.160579
  21 H :    0.031494
  22 C :    0.180561
  23 H :   -0.017848
  24 H :    0.022134
  25 C :   -0.104938
  26 H :    0.039662
  27 H :    0.035942
  28 C :   -0.071206
  29 H :    0.028145
  30 H :    0.036806
  31 H :    0.043456
  32 H :    0.031998
  33 H :    0.053065
Sum of atomic charges:    0.0000000

LOEWDIN ATOMIC CHARGES
----------------------
   0 S :    0.397375
   1 C :   -0.178830
   2 C :   -0.059923
   3 C :   -0.075822
   4 C :   -0.204490
   5 H :    0.040492
   6 C :   -0.032058
   7 H :    0.020791
   8 H :    0.034557
   9 C :   -0.039859
  10 H :    0.018897
  11 H :    0.029377
  12 C :   -0.060386
  13 H :    0.026541
  14 H :    0.030493
  15 H :    0.020424
  16 S :    0.421533
  17 C :   -0.192005
  18 C :   -0.077847
  19 C :   -0.048802
  20 C :   -0.212132
  21 H :    0.037924
  22 C :   -0.032719
  23 H :    0.025352
  24 H :    0.038655
  25 C :   -0.044657
  26 H :    0.030668
  27 H :    0.026244
  28 C :   -0.069947
  29 H :    0.025342
  30 H :    0.025078
  31 H :    0.029460
  32 H :    0.020900
  33 H :    0.029376

  Mayer bond orders larger than 0.100000
B(  0-S ,  1-C ) :   1.1156 B(  0-S ,  4-C ) :   1.1591 B(  1-C ,  2-C ) :   1.6238
B(  1-C , 32-H ) :   0.9743 B(  2-C ,  3-C ) :   1.2371 B(  2-C ,  6-C ) :   1.0152
B(  3-C ,  4-C ) :   1.5696 B(  3-C ,  5-H ) :   0.9723 B(  4-C , 20-C ) :   1.0430
B(  6-C ,  7-H ) :   0.9497 B(  6-C ,  8-H ) :   0.9483 B(  6-C ,  9-C ) :   1.0528
B(  9-C , 10-H ) :   0.9576 B(  9-C , 11-H ) :   0.9549 B(  9-C , 12-C ) :   1.0877
B( 12-C , 13-H ) :   0.9732 B( 12-C , 14-H ) :   0.9707 B( 12-C , 15-H ) :   0.9745
B( 16-S , 17-C ) :   1.1585 B( 16-S , 20-C ) :   1.1536 B( 17-C , 18-C ) :   1.6175
B( 17-C , 33-H ) :   0.9618 B( 18-C , 19-C ) :   1.2452 B( 18-C , 21-H ) :   0.9814
B( 19-C , 20-C ) :   1.5621 B( 19-C , 22-C ) :   1.0462 B( 22-C , 23-H ) :   0.9151
B( 22-C , 24-H ) :   0.9004 B( 22-C , 25-C ) :   1.0743 B( 25-C , 26-H ) :   0.9408
B( 25-C , 27-H ) :   0.9609 B( 25-C , 28-C ) :   1.0841 B( 28-C , 29-H ) :   0.9721
B( 28-C , 30-H ) :   0.9762 B( 28-C , 31-H ) :   0.9754

Dispersion correction           -0.013170746
FINAL SINGLE POINT ENERGY     -1339.874599608529

DIPOLE MOMENT
-------------
                                X             Y             Z
Electronic contribution:     30.53072      -4.75550       5.61185
Nuclear contribution   :    -31.14195       4.97638      -5.55416
                        -----------------------------------------
Total Dipole Moment    :     -0.61123       0.22089       0.05769
                        -----------------------------------------
Magnitude (a.u.)       :      0.65247
Magnitude (Debye)      :      1.65845

Rotational constants in cm-1:     0.016447     0.008462     0.005986
Rotational constants in MHz :   493.061866   253.680286   179.441845

                             ****ORCA TERMINATED NORMALLY****
TOTAL RUN TIME: 0 days 0 hours 0 minutes 20 seconds 711 msec
