                         Program Version 4.2.1 -  RELEASE  -
|  1> ! wB97X-D3 SP def2-SVP
|  2> %pal
|  3> nprocs 24
|  4> end
|  5>
|  6> * xyz 0 1
|  7> S 	 -112.12 	 21.2284 	 -109.266
|  8> C 	 -111.47 	 22.4338 	 -110.332
|  9> C 	 -111.31 	 21.9275 	 -111.613
| 10> C 	 -111.925 	 20.6644 	 -111.77
| 11> C 	 -112.456 	 20.1352 	 -110.637
| 12> H 	 -112.106 	 20.0329 	 -112.64
| 13> C 	 -110.796 	 22.7243 	 -112.77
| 14> H 	 -110.661 	 22.0592 	 -113.614
| 15> H 	 -109.833 	 23.1485 	 -112.556
| 16> C 	 -111.784 	 23.8228 	 -113.186
| 17> H 	 -112.734 	 23.4876 	 -113.615
| 18> H 	 -112.104 	 24.4007 	 -112.322
| 19> C 	 -111.055 	 24.6933 	 -114.2
| 20> H 	 -111.73 	 25.4756 	 -114.644
| 21> H 	 -110.158 	 25.2143 	 -113.694
| 22> H 	 -110.546 	 24.2656 	 -115.057
| 23> S 	 -114.955 	 19.0796 	 -110.179
| 24> C 	 -115.156 	 17.3145 	 -110.116
| 25> C 	 -113.971 	 16.656 	 -110.381
| 26> C 	 -112.866 	 17.5467 	 -110.724
| 27> C 	 -113.199 	 18.8898 	 -110.523
| 28> H 	 -113.941 	 15.5668 	 -110.3
| 29> C 	 -111.407 	 17.1379 	 -110.797
| 30> H 	 -110.68 	 18.0187 	 -110.913
| 31> H 	 -111.363 	 16.6443 	 -111.776
| 32> C 	 -110.87 	 16.1326 	 -109.704
| 33> H 	 -109.827 	 15.8505 	 -110.049
| 34> H 	 -111.506 	 15.2178 	 -109.809
| 35> C 	 -110.716 	 16.8201 	 -108.391
| 36> H 	 -110.137 	 17.6906 	 -108.413
| 37> H 	 -110.299 	 16.1681 	 -107.64
| 38> H 	 -111.655 	 17.1047 	 -108.029
| 39> H 	 -111.199 	 23.4419 	 -110.12
| 40> H 	 -115.975 	 16.8208 	 -109.886
| 41> *
| 42>
| 43>                          ****END OF INPUT****

CARTESIAN COORDINATES (ANGSTROEM)
---------------------------------
  S    -112.120000   21.228400  -109.266000
  C    -111.470000   22.433800  -110.332000
  C    -111.310000   21.927500  -111.613000
  C    -111.925000   20.664400  -111.770000
  C    -112.456000   20.135200  -110.637000
  H    -112.106000   20.032900  -112.640000
  C    -110.796000   22.724300  -112.770000
  H    -110.661000   22.059200  -113.614000
  H    -109.833000   23.148500  -112.556000
  C    -111.784000   23.822800  -113.186000
  H    -112.734000   23.487600  -113.615000
  H    -112.104000   24.400700  -112.322000
  C    -111.055000   24.693300  -114.200000
  H    -111.730000   25.475600  -114.644000
  H    -110.158000   25.214300  -113.694000
  H    -110.546000   24.265600  -115.057000
  S    -114.955000   19.079600  -110.179000
  C    -115.156000   17.314500  -110.116000
  C    -113.971000   16.656000  -110.381000
  C    -112.866000   17.546700  -110.724000
  C    -113.199000   18.889800  -110.523000
  H    -113.941000   15.566800  -110.300000
  C    -111.407000   17.137900  -110.797000
  H    -110.680000   18.018700  -110.913000
  H    -111.363000   16.644300  -111.776000
  C    -110.870000   16.132600  -109.704000
  H    -109.827000   15.850500  -110.049000
  H    -111.506000   15.217800  -109.809000
  C    -110.716000   16.820100  -108.391000
  H    -110.137000   17.690600  -108.413000
  H    -110.299000   16.168100  -107.640000
  H    -111.655000   17.104700  -108.029000
  H    -111.199000   23.441900  -110.120000
  H    -115.975000   16.820800  -109.886000

 Total Charge           Charge          ....    0
 Multiplicity           Mult            ....    1
 Number of Electrons    NEL             ....  134
 Basis Dimension        Dim             ....  322

ORBITAL ENERGIES
----------------

  NO   OCC          E(Eh)            E(eV)
   0   2.0000     -88.965919     -2420.8857
   1   2.0000     -88.962934     -2420.8045
   2   2.0000     -10.329893      -281.0907
   3   2.0000     -10.325366      -280.9675
   4   2.0000     -10.312686      -280.6225
   5   2.0000     -10.311833      -280.5992
   6   2.0000     -10.310481      -280.5625
   7   2.0000     -10.300881      -280.3012
   8   2.0000     -10.297320      -280.2043
   9   2.0000     -10.295870      -280.1649
  10   2.0000     -10.294389      -280.1246
  11   2.0000     -10.290552      -280.0202
  12   2.0000     -10.288375      -279.9609
  13   2.0000     -10.288014      -279.9511
  14   2.0000     -10.285126      -279.8725
  15   2.0000     -10.261055      -279.2175
  16   2.0000      -8.080158      -219.8723
  17   2.0000      -8.076687      -219.7778
  18   2.0000      -6.038698      -164.3213
  19   2.0000      -6.035326      -164.2296
  20   2.0000      -6.034731      -164.2134
  21   2.0000      -6.031356      -164.1215
  22   2.0000      -6.030906      -164.1093
  23   2.0000      -6.027332      -164.0120
  24   2.0000      -1.002977       -27.2924
  25   2.0000      -0.978541       -26.6275
  26   2.0000      -0.915524       -24.9127
  27   2.0000      -0.904512       -24.6130
  28   2.0000      -0.871375       -23.7113
  29   2.0000      -0.849667       -23.1206
  30   2.0000      -0.845423       -23.0051
  31   2.0000      -0.817577       -22.2474
  32   2.0000      -0.779059       -21.1993
  33   2.0000      -0.767762       -20.8919
  34   2.0000      -0.709405       -19.3039
  35   2.0000      -0.705457       -19.1965
  36   2.0000      -0.697940       -18.9919
  37   2.0000      -0.655838       -17.8463
  38   2.0000      -0.648291       -17.6409
  39   2.0000      -0.614882       -16.7318
  40   2.0000      -0.594822       -16.1859
  41   2.0000      -0.572569       -15.5804
  42   2.0000      -0.558162       -15.1884
  43   2.0000      -0.548848       -14.9349
  44   2.0000      -0.542167       -14.7531
  45   2.0000      -0.527344       -14.3498
  46   2.0000      -0.518395       -14.1063
  47   2.0000      -0.513591       -13.9755
  48   2.0000      -0.507179       -13.8010
  49   2.0000      -0.496268       -13.5041
  50   2.0000      -0.491297       -13.3689
  51   2.0000      -0.474935       -12.9236
  52   2.0000      -0.470389       -12.7999
  53   2.0000      -0.468049       -12.7362
  54   2.0000      -0.455635       -12.3985
  55   2.0000      -0.452830       -12.3221
  56   2.0000      -0.440892       -11.9973
  57   2.0000      -0.436370       -11.8742
  58   2.0000      -0.433257       -11.7895
  59   2.0000      -0.422327       -11.4921
  60   2.0000      -0.418460       -11.3869
  61   2.0000      -0.412973       -11.2376
  62   2.0000      -0.407385       -11.0855
  63   2.0000      -0.341187        -9.2842
  64   2.0000      -0.326898        -8.8953
  65   2.0000      -0.325359        -8.8535
  66   2.0000      -0.300984        -8.1902
  67   0.0000       0.031028         0.8443
  68   0.0000       0.062834         1.7098
  69   0.0000       0.115272         3.1367
  70   0.0000       0.119897         3.2626
  71   0.0000       0.122784         3.3411

MULLIKEN ATOMIC CHARGES
-----------------------
   0 S :    0.118676
   1 C :   -0.108623
   2 C :   -0.074100
   3 C :    0.047016
   4 C :   -0.179229
   5 H :    0.014830
   6 C :    0.075493
   7 H :    0.018975
   8 H :    0.022645
   9 C :   -0.045326
  10 H :    0.032292
  11 H :    0.026189
  12 C :   -0.085704
  13 H :    0.040369
  14 H :    0.029655
  15 H :    0.029391
  16 S :    0.094735
  17 C :   -0.016692
  18 C :   -0.055958
  19 C :    0.013064
  20 C :   -0.187324
  21 H :    0.029200
  22 C :   -0.012647
  23 H :    0.048572
  24 H :    0.028033
  25 C :   -0.088959
  26 H :    0.032811
  27 H :    0.037448
  28 C :    0.024475
  29 H :    0.017572
  30 H :    0.026838
  31 H :    0.016463
  32 H :    0.035999
  33 H :   -0.006180
Sum of atomic charges:    0.0000000

LOEWDIN ATOMIC CHARGES
----------------------
   0 S :    0.397285
   1 C :   -0.194364
   2 C :   -0.066116
   3 C :   -0.059298
   4 C :   -0.194770
   5 H :    0.037739
   6 C :   -0.027757
   7 H :    0.030710
   8 H :    0.028128
   9 C :   -0.035802
  10 H :    0.027720
  11 H :    0.024056
  12 C :   -0.079545
  13 H :    0.028760
  14 H :    0.030037
  15 H :    0.022153
  16 S :    0.372932
  17 C :   -0.146675
  18 C :   -0.068320
  19 C :   -0.053684
  20 C :   -0.184510
  21 H :    0.033461
  22 C :   -0.042656
  23 H :    0.038541
  24 H :    0.030620
  25 C :   -0.040081
  26 H :    0.030088
  27 H :    0.026095
  28 C :   -0.057563
  29 H :    0.022901
  30 H :    0.026704
  31 H :    0.020628
  32 H :    0.024437
  33 H :   -0.001854

  Mayer bond orders larger than 0.100000
B(  0-S ,  1-C ) :   1.1451 B(  0-S ,  4-C ) :   1.1312 B(  1-C ,  2-C ) :   1.5978
B(  1-C , 32-H ) :   0.9722 B(  2-C ,  3-C ) :   1.2242 B(  2-C ,  6-C ) :   1.0323
B(  3-C ,  4-C ) :   1.6049 B(  3-C ,  5-H ) :   0.9952 B(  4-C , 20-C ) :   1.0325
B(  6-C ,  7-H ) :   0.9394 B(  6-C ,  8-H ) :   0.9388 B(  6-C ,  9-C ) :   1.0613
B(  9-C , 10-H ) :   0.9541 B(  9-C , 11-H ) :   0.9566 B(  9-C , 12-C ) :   1.0719
B( 12-C , 13-H ) :   0.9732 B( 12-C , 14-H ) :   0.9742 B( 12-C , 15-H ) :   0.9752
B( 16-S , 17-C ) :   1.1364 B( 16-S , 20-C ) :   1.1242 B( 17-C , 18-C ) :   1.6538
B( 17-C , 33-H ) :   0.9819 B( 18-C , 19-C ) :   1.1888 B( 18-C , 21-H ) :   0.9829
B( 19-C , 20-C ) :   1.6098 B( 19-C , 22-C ) :   1.0406 B( 22-C , 23-H ) :   0.9449
B( 22-C , 24-H ) :   0.9232 B( 22-C , 25-C ) :   1.0766 B( 25-C , 26-H ) :   0.9520
B( 25-C , 27-H ) :   0.9527 B( 25-C , 28-C ) :   1.0745 B( 28-C , 29-H ) :   0.9680
B( 28-C , 30-H ) :   0.9701 B( 28-C , 31-H ) :   0.9727

Dispersion correction           -0.014577900
FINAL SINGLE POINT ENERGY     -1339.865191097570

DIPOLE MOMENT
-------------
                                X             Y             Z
Electronic contribution:    -15.49657      -2.51837      10.46494
Nuclear contribution   :     15.81539       2.36041     -10.81556
                        -----------------------------------------
Total Dipole Moment    :      0.31881      -0.15795      -0.35061
                        -----------------------------------------
Magnitude (a.u.)       :      0.49952
Magnitude (Debye)      :      1.26968

Rotational constants in cm-1:     0.022864     0.007289     0.006673
Rotational constants in MHz :   685.442320   218.506068   200.042784

                             ****ORCA TERMINATED NORMALLY****
TOTAL RUN TIME: 0 days 0 hours 0 minutes 21 seconds 505 msec
