                         Program Version 4.2.1 -  RELEASE  -
|  1> ! wB97X-D3 SP def2-SVP
|  2> %pal
|  3> nprocs 24
|  4> end
|  5>
|  6> * xyz 0 1
|  7> S 	 -102.817 	 -2.40894 	 -105.93
|  8> C 	 -104.198 	 -2.8718 	 -105.09
|  9> C 	 -105.285 	 -2.11181 	 -105.443
| 10> C 	 -104.868 	 -1.01155 	 -106.207
| 11> C 	 -103.562 	 -0.911921 	 -106.511
| 12> H 	 -105.591 	 -0.229017 	 -106.503
| 13> C 	 -106.71 	 -2.50661 	 -104.985
| 14> H 	 -106.69 	 -2.75206 	 -103.941
| 15> H 	 -106.896 	 -3.39578 	 -105.549
| 16> C 	 -107.874 	 -1.58191 	 -105.365
| 17> H 	 -107.702 	 -0.559419 	 -104.867
| 18> H 	 -107.768 	 -1.53279 	 -106.424
| 19> C 	 -109.228 	 -2.2142 	 -104.797
| 20> H 	 -109.461 	 -3.11063 	 -105.296
| 21> H 	 -109.225 	 -2.2859 	 -103.656
| 22> H 	 -110.101 	 -1.55124 	 -105.023
| 23> S 	 -101.696 	 -0.458818 	 -108.554
| 24> C 	 -101.389 	 1.21744 	 -108.95
| 25> C 	 -102.33 	 2.05968 	 -108.402
| 26> C 	 -103.149 	 1.42948 	 -107.476
| 27> C 	 -102.922 	 0.083025 	 -107.368
| 28> H 	 -102.341 	 3.09806 	 -108.611
| 29> C 	 -104.252 	 2.20687 	 -106.799
| 30> H 	 -103.706 	 3.0975 	 -106.387
| 31> H 	 -104.682 	 1.65474 	 -105.96
| 32> C 	 -105.446 	 2.60616 	 -107.657
| 33> H 	 -105.838 	 1.72928 	 -108.208
| 34> H 	 -105.111 	 3.24826 	 -108.461
| 35> C 	 -106.584 	 3.3504 	 -106.777
| 36> H 	 -106.146 	 4.16839 	 -106.284
| 37> H 	 -107.123 	 2.67077 	 -106.053
| 38> H 	 -107.395 	 3.73855 	 -107.418
| 39> H 	 -104.284 	 -3.81468 	 -104.619
| 40> H 	 -100.569 	 1.52768 	 -109.649
| 41> *
| 42>
| 43>                          ****END OF INPUT****

CARTESIAN COORDINATES (ANGSTROEM)
---------------------------------
  S    -102.817000   -2.408940  -105.930000
  C    -104.198000   -2.871800  -105.090000
  C    -105.285000   -2.111810  -105.443000
  C    -104.868000   -1.011550  -106.207000
  C    -103.562000   -0.911921  -106.511000
  H    -105.591000   -0.229017  -106.503000
  C    -106.710000   -2.506610  -104.985000
  H    -106.690000   -2.752060  -103.941000
  H    -106.896000   -3.395780  -105.549000
  C    -107.874000   -1.581910  -105.365000
  H    -107.702000   -0.559419  -104.867000
  H    -107.768000   -1.532790  -106.424000
  C    -109.228000   -2.214200  -104.797000
  H    -109.461000   -3.110630  -105.296000
  H    -109.225000   -2.285900  -103.656000
  H    -110.101000   -1.551240  -105.023000
  S    -101.696000   -0.458818  -108.554000
  C    -101.389000    1.217440  -108.950000
  C    -102.330000    2.059680  -108.402000
  C    -103.149000    1.429480  -107.476000
  C    -102.922000    0.083025  -107.368000
  H    -102.341000    3.098060  -108.611000
  C    -104.252000    2.206870  -106.799000
  H    -103.706000    3.097500  -106.387000
  H    -104.682000    1.654740  -105.960000
  C    -105.446000    2.606160  -107.657000
  H    -105.838000    1.729280  -108.208000
  H    -105.111000    3.248260  -108.461000
  C    -106.584000    3.350400  -106.777000
  H    -106.146000    4.168390  -106.284000
  H    -107.123000    2.670770  -106.053000
  H    -107.395000    3.738550  -107.418000
  H    -104.284000   -3.814680  -104.619000
  H    -100.569000    1.527680  -109.649000

 Total Charge           Charge          ....    0
 Multiplicity           Mult            ....    1
 Number of Electrons    NEL             ....  134
 Basis Dimension        Dim             ....  322

ORBITAL ENERGIES
----------------

  NO   OCC          E(Eh)            E(eV)
   0   2.0000     -88.965523     -2420.8750
   1   2.0000     -88.962490     -2420.7924
   2   2.0000     -10.327214      -281.0178
   3   2.0000     -10.325035      -280.9585
   4   2.0000     -10.320108      -280.8244
   5   2.0000     -10.302358      -280.3414
   6   2.0000     -10.298360      -280.2326
   7   2.0000     -10.295472      -280.1540
   8   2.0000     -10.295454      -280.1535
   9   2.0000     -10.294768      -280.1349
  10   2.0000     -10.292112      -280.0626
  11   2.0000     -10.291810      -280.0544
  12   2.0000     -10.289619      -279.9948
  13   2.0000     -10.288351      -279.9603
  14   2.0000     -10.288092      -279.9532
  15   2.0000     -10.287223      -279.9296
  16   2.0000      -8.079879      -219.8647
  17   2.0000      -8.078247      -219.8203
  18   2.0000      -6.038313      -164.3109
  19   2.0000      -6.036634      -164.2652
  20   2.0000      -6.034683      -164.2121
  21   2.0000      -6.032625      -164.1561
  22   2.0000      -6.030506      -164.0984
  23   2.0000      -6.029056      -164.0590
  24   2.0000      -1.013132       -27.5687
  25   2.0000      -0.991608       -26.9830
  26   2.0000      -0.909046       -24.7364
  27   2.0000      -0.905746       -24.6466
  28   2.0000      -0.872335       -23.7374
  29   2.0000      -0.849958       -23.1285
  30   2.0000      -0.843144       -22.9431
  31   2.0000      -0.815186       -22.1824
  32   2.0000      -0.781826       -21.2746
  33   2.0000      -0.771270       -20.9873
  34   2.0000      -0.713656       -19.4196
  35   2.0000      -0.701292       -19.0831
  36   2.0000      -0.690145       -18.7798
  37   2.0000      -0.662522       -18.0281
  38   2.0000      -0.641537       -17.4571
  39   2.0000      -0.624401       -16.9908
  40   2.0000      -0.597287       -16.2530
  41   2.0000      -0.579352       -15.7650
  42   2.0000      -0.565695       -15.3934
  43   2.0000      -0.558805       -15.2059
  44   2.0000      -0.522901       -14.2289
  45   2.0000      -0.519277       -14.1302
  46   2.0000      -0.512747       -13.9526
  47   2.0000      -0.507309       -13.8046
  48   2.0000      -0.499271       -13.5858
  49   2.0000      -0.497554       -13.5391
  50   2.0000      -0.494406       -13.4535
  51   2.0000      -0.479678       -13.0527
  52   2.0000      -0.470377       -12.7996
  53   2.0000      -0.469828       -12.7847
  54   2.0000      -0.464272       -12.6335
  55   2.0000      -0.452084       -12.3018
  56   2.0000      -0.446857       -12.1596
  57   2.0000      -0.441932       -12.0256
  58   2.0000      -0.437399       -11.9022
  59   2.0000      -0.425864       -11.5884
  60   2.0000      -0.421969       -11.4824
  61   2.0000      -0.416316       -11.3285
  62   2.0000      -0.412148       -11.2151
  63   2.0000      -0.357039        -9.7155
  64   2.0000      -0.334437        -9.1005
  65   2.0000      -0.328089        -8.9278
  66   2.0000      -0.284988        -7.7549
  67   0.0000       0.026022         0.7081
  68   0.0000       0.076749         2.0885
  69   0.0000       0.103768         2.8237
  70   0.0000       0.123257         3.3540
  71   0.0000       0.139536         3.7970

MULLIKEN ATOMIC CHARGES
-----------------------
   0 S :    0.109172
   1 C :   -0.105800
   2 C :   -0.091112
   3 C :   -0.023274
   4 C :   -0.113049
   5 H :    0.011534
   6 C :    0.069197
   7 H :    0.030962
   8 H :    0.027138
   9 C :   -0.112273
  10 H :    0.048537
  11 H :    0.037946
  12 C :   -0.053016
  13 H :    0.029499
  14 H :    0.050926
  15 H :    0.037044
  16 S :    0.100267
  17 C :   -0.110572
  18 C :   -0.019013
  19 C :   -0.026862
  20 C :   -0.143686
  21 H :    0.005239
  22 C :    0.036784
  23 H :    0.033495
  24 H :    0.021673
  25 C :   -0.073534
  26 H :    0.036465
  27 H :    0.022288
  28 C :   -0.056696
  29 H :    0.029735
  30 H :    0.043427
  31 H :    0.038712
  32 H :    0.034555
  33 H :    0.074290
Sum of atomic charges:   -0.0000000

LOEWDIN ATOMIC CHARGES
----------------------
   0 S :    0.424174
   1 C :   -0.207363
   2 C :   -0.069262
   3 C :   -0.073549
   4 C :   -0.190121
   5 H :    0.032620
   6 C :   -0.030152
   7 H :    0.026866
   8 H :    0.030859
   9 C :   -0.042448
  10 H :    0.030261
  11 H :    0.021256
  12 C :   -0.066365
  13 H :    0.017438
  14 H :    0.037279
  15 H :    0.030317
  16 S :    0.383846
  17 C :   -0.182821
  18 C :   -0.069101
  19 C :   -0.062162
  20 C :   -0.176721
  21 H :    0.027628
  22 C :   -0.036681
  23 H :    0.035947
  24 H :    0.026799
  25 C :   -0.038724
  26 H :    0.026156
  27 H :    0.019949
  28 C :   -0.064262
  29 H :    0.017924
  30 H :    0.031041
  31 H :    0.029666
  32 H :    0.021338
  33 H :    0.038370

  Mayer bond orders larger than 0.100000
B(  0-S ,  1-C ) :   1.1727 B(  0-S ,  4-C ) :   1.1419 B(  1-C ,  2-C ) :   1.5883
B(  1-C , 32-H ) :   0.9718 B(  2-C ,  3-C ) :   1.3011 B(  2-C ,  6-C ) :   0.9851
B(  3-C ,  4-C ) :   1.5344 B(  3-C ,  5-H ) :   0.9855 B(  4-C , 20-C ) :   1.0644
B(  6-C ,  7-H ) :   0.9479 B(  6-C ,  8-H ) :   0.9366 B(  6-C ,  9-C ) :   1.0727
B(  9-C , 10-H ) :   0.9571 B(  9-C , 11-H ) :   0.9520 B(  9-C , 12-C ) :   1.0736
B( 12-C , 13-H ) :   0.9765 B( 12-C , 14-H ) :   0.9752 B( 12-C , 15-H ) :   0.9754
B( 16-S , 17-C ) :   1.1532 B( 16-S , 20-C ) :   1.1245 B( 17-C , 18-C ) :   1.5949
B( 17-C , 20-C ) :   0.1001 B( 17-C , 33-H ) :   0.9621 B( 18-C , 19-C ) :   1.2455
B( 18-C , 21-H ) :   0.9980 B( 19-C , 20-C ) :   1.6108 B( 19-C , 22-C ) :   1.0481
B( 22-C , 23-H ) :   0.9257 B( 22-C , 24-H ) :   0.9356 B( 22-C , 25-C ) :   1.0615
B( 25-C , 26-H ) :   0.9539 B( 25-C , 27-H ) :   0.9528 B( 25-C , 28-C ) :   1.0666
B( 28-C , 29-H ) :   0.9776 B( 28-C , 30-H ) :   0.9774 B( 28-C , 31-H ) :   0.9769

Dispersion correction           -0.014056330
FINAL SINGLE POINT ENERGY     -1339.873820620079

DIPOLE MOMENT
-------------
                                X             Y             Z
Electronic contribution:     30.99484     -11.16078      -7.46788
Nuclear contribution   :    -31.71548      11.43206       7.46886
                        -----------------------------------------
Total Dipole Moment    :     -0.72064       0.27128       0.00098
                        -----------------------------------------
Magnitude (a.u.)       :      0.77001
Magnitude (Debye)      :      1.95722

Rotational constants in cm-1:     0.016865     0.009482     0.006386
Rotational constants in MHz :   505.606532   284.268549   191.433273

                             ****ORCA TERMINATED NORMALLY****
TOTAL RUN TIME: 0 days 0 hours 0 minutes 20 seconds 582 msec
