                         Program Version 4.2.1 -  RELEASE  -
|  1> ! wB97X-D3 SP def2-SVP
|  2> %pal
|  3> nprocs 24
|  4> end
|  5>
|  6> * xyz 0 1
|  7> S 	 -56.2589 	 14.2823 	 -89.013
|  8> C 	 -55.1146 	 14.5447 	 -90.3582
|  9> C 	 -55.3381 	 15.6212 	 -91.1473
| 10> C 	 -56.5188 	 16.3015 	 -90.6095
| 11> C 	 -57.0172 	 15.7846 	 -89.4252
| 12> H 	 -56.8967 	 17.2452 	 -90.9533
| 13> C 	 -54.4847 	 16.1738 	 -92.2866
| 14> H 	 -53.4667 	 15.7101 	 -92.1128
| 15> H 	 -54.4343 	 17.255 	 -92.1429
| 16> C 	 -54.8979 	 15.8152 	 -93.6939
| 17> H 	 -54.9782 	 14.7689 	 -93.8703
| 18> H 	 -55.8266 	 16.3377 	 -94.091
| 19> C 	 -53.851 	 16.4114 	 -94.7049
| 20> H 	 -54.0626 	 16.2438 	 -95.8293
| 21> H 	 -53.7266 	 17.5349 	 -94.5973
| 22> H 	 -52.8762 	 15.978 	 -94.589
| 23> S 	 -59.3902 	 15.4415 	 -87.9938
| 24> C 	 -60.1558 	 16.8866 	 -87.3468
| 25> C 	 -59.3822 	 18.0188 	 -87.4039
| 26> C 	 -58.099 	 17.7317 	 -88.0225
| 27> C 	 -58.0093 	 16.4391 	 -88.5151
| 28> H 	 -59.6963 	 18.8838 	 -86.9938
| 29> C 	 -57.1854 	 18.8603 	 -88.3718
| 30> H 	 -56.2931 	 18.5128 	 -88.8168
| 31> H 	 -57.01 	 19.3707 	 -87.3784
| 32> C 	 -57.8691 	 19.8906 	 -89.2502
| 33> H 	 -58.8336 	 20.1686 	 -88.9237
| 34> H 	 -57.9982 	 19.3579 	 -90.2554
| 35> C 	 -57.0606 	 21.102 	 -89.5506
| 36> H 	 -57.3367 	 21.6636 	 -90.4584
| 37> H 	 -55.9497 	 20.966 	 -89.5907
| 38> H 	 -57.1938 	 21.8351 	 -88.7149
| 39> H 	 -54.2013 	 13.9605 	 -90.3524
| 40> H 	 -61.0346 	 16.8605 	 -86.7057
| 41> *
| 42>
| 43>                          ****END OF INPUT****

CARTESIAN COORDINATES (ANGSTROEM)
---------------------------------
  S    -56.258900   14.282300  -89.013000
  C    -55.114600   14.544700  -90.358200
  C    -55.338100   15.621200  -91.147300
  C    -56.518800   16.301500  -90.609500
  C    -57.017200   15.784600  -89.425200
  H    -56.896700   17.245200  -90.953300
  C    -54.484700   16.173800  -92.286600
  H    -53.466700   15.710100  -92.112800
  H    -54.434300   17.255000  -92.142900
  C    -54.897900   15.815200  -93.693900
  H    -54.978200   14.768900  -93.870300
  H    -55.826600   16.337700  -94.091000
  C    -53.851000   16.411400  -94.704900
  H    -54.062600   16.243800  -95.829300
  H    -53.726600   17.534900  -94.597300
  H    -52.876200   15.978000  -94.589000
  S    -59.390200   15.441500  -87.993800
  C    -60.155800   16.886600  -87.346800
  C    -59.382200   18.018800  -87.403900
  C    -58.099000   17.731700  -88.022500
  C    -58.009300   16.439100  -88.515100
  H    -59.696300   18.883800  -86.993800
  C    -57.185400   18.860300  -88.371800
  H    -56.293100   18.512800  -88.816800
  H    -57.010000   19.370700  -87.378400
  C    -57.869100   19.890600  -89.250200
  H    -58.833600   20.168600  -88.923700
  H    -57.998200   19.357900  -90.255400
  C    -57.060600   21.102000  -89.550600
  H    -57.336700   21.663600  -90.458400
  H    -55.949700   20.966000  -89.590700
  H    -57.193800   21.835100  -88.714900
  H    -54.201300   13.960500  -90.352400
  H    -61.034600   16.860500  -86.705700

 Total Charge           Charge          ....    0
 Multiplicity           Mult            ....    1
 Number of Electrons    NEL             ....  134
 Basis Dimension        Dim             ....  322

ORBITAL ENERGIES
----------------

  NO   OCC          E(Eh)            E(eV)
   0   2.0000     -88.965642     -2420.8782
   1   2.0000     -88.963389     -2420.8169
   2   2.0000     -10.330938      -281.1191
   3   2.0000     -10.330113      -281.0967
   4   2.0000     -10.317784      -280.7612
   5   2.0000     -10.314812      -280.6803
   6   2.0000     -10.306095      -280.4431
   7   2.0000     -10.305990      -280.4403
   8   2.0000     -10.304361      -280.3959
   9   2.0000     -10.295584      -280.1571
  10   2.0000     -10.295539      -280.1559
  11   2.0000     -10.289846      -280.0009
  12   2.0000     -10.289749      -279.9983
  13   2.0000     -10.289147      -279.9819
  14   2.0000     -10.286359      -279.9061
  15   2.0000     -10.282877      -279.8113
  16   2.0000      -8.080565      -219.8834
  17   2.0000      -8.077869      -219.8100
  18   2.0000      -6.039082      -164.3318
  19   2.0000      -6.036484      -164.2611
  20   2.0000      -6.035254      -164.2276
  21   2.0000      -6.032560      -164.1543
  22   2.0000      -6.031106      -164.1148
  23   2.0000      -6.028402      -164.0412
  24   2.0000      -1.002511       -27.2797
  25   2.0000      -0.981872       -26.7181
  26   2.0000      -0.918027       -24.9808
  27   2.0000      -0.913709       -24.8633
  28   2.0000      -0.867363       -23.6022
  29   2.0000      -0.853248       -23.2181
  30   2.0000      -0.844407       -22.9775
  31   2.0000      -0.814747       -22.1704
  32   2.0000      -0.782269       -21.2866
  33   2.0000      -0.771325       -20.9888
  34   2.0000      -0.703501       -19.1432
  35   2.0000      -0.699302       -19.0290
  36   2.0000      -0.691935       -18.8285
  37   2.0000      -0.666477       -18.1358
  38   2.0000      -0.643166       -17.5014
  39   2.0000      -0.619935       -16.8693
  40   2.0000      -0.598222       -16.2784
  41   2.0000      -0.578358       -15.7379
  42   2.0000      -0.571798       -15.5594
  43   2.0000      -0.558867       -15.2075
  44   2.0000      -0.528578       -14.3833
  45   2.0000      -0.523143       -14.2354
  46   2.0000      -0.514576       -14.0023
  47   2.0000      -0.512762       -13.9530
  48   2.0000      -0.508008       -13.8236
  49   2.0000      -0.499598       -13.5948
  50   2.0000      -0.486879       -13.2487
  51   2.0000      -0.476669       -12.9708
  52   2.0000      -0.464633       -12.6433
  53   2.0000      -0.463554       -12.6139
  54   2.0000      -0.457590       -12.4517
  55   2.0000      -0.452512       -12.3135
  56   2.0000      -0.446921       -12.1613
  57   2.0000      -0.442214       -12.0332
  58   2.0000      -0.437777       -11.9125
  59   2.0000      -0.431670       -11.7463
  60   2.0000      -0.424896       -11.5620
  61   2.0000      -0.415462       -11.3053
  62   2.0000      -0.404926       -11.0186
  63   2.0000      -0.345708        -9.4072
  64   2.0000      -0.332508        -9.0480
  65   2.0000      -0.327857        -8.9214
  66   2.0000      -0.295887        -8.0515
  67   0.0000       0.034775         0.9463
  68   0.0000       0.067687         1.8419
  69   0.0000       0.100217         2.7271
  70   0.0000       0.116630         3.1737
  71   0.0000       0.124857         3.3975

MULLIKEN ATOMIC CHARGES
-----------------------
   0 S :    0.103237
   1 C :   -0.137966
   2 C :   -0.055076
   3 C :    0.032139
   4 C :   -0.136905
   5 H :   -0.010417
   6 C :    0.054449
   7 H :    0.032368
   8 H :    0.034352
   9 C :   -0.048795
  10 H :    0.035032
  11 H :    0.045709
  12 C :   -0.109722
  13 H :    0.046949
  14 H :    0.038710
  15 H :    0.024184
  16 S :    0.089583
  17 C :   -0.075221
  18 C :   -0.008475
  19 C :   -0.019041
  20 C :   -0.155037
  21 H :   -0.021970
  22 C :    0.072141
  23 H :    0.019225
  24 H :    0.029511
  25 C :   -0.076328
  26 H :    0.021253
  27 H :    0.029988
  28 C :   -0.058305
  29 H :    0.040556
  30 H :    0.032646
  31 H :    0.025656
  32 H :    0.046821
  33 H :    0.058749
Sum of atomic charges:   -0.0000000

LOEWDIN ATOMIC CHARGES
----------------------
   0 S :    0.387709
   1 C :   -0.178800
   2 C :   -0.061168
   3 C :   -0.059826
   4 C :   -0.195503
   5 H :    0.021759
   6 C :   -0.029312
   7 H :    0.040788
   8 H :    0.034616
   9 C :   -0.039394
  10 H :    0.023456
  11 H :    0.035356
  12 C :   -0.080488
  13 H :    0.034243
  14 H :    0.028709
  15 H :    0.014324
  16 S :    0.376927
  17 C :   -0.170983
  18 C :   -0.055311
  19 C :   -0.048435
  20 C :   -0.187740
  21 H :    0.012331
  22 C :   -0.027387
  23 H :    0.022646
  24 H :    0.037190
  25 C :   -0.043201
  26 H :    0.018219
  27 H :    0.028471
  28 C :   -0.075738
  29 H :    0.029386
  30 H :    0.028671
  31 H :    0.026244
  32 H :    0.022707
  33 H :    0.029533

  Mayer bond orders larger than 0.100000
B(  0-S ,  1-C ) :   1.1214 B(  0-S ,  4-C ) :   1.1434 B(  1-C ,  2-C ) :   1.6730
B(  1-C , 32-H ) :   0.9608 B(  2-C ,  3-C ) :   1.1874 B(  2-C ,  6-C ) :   1.0118
B(  3-C ,  4-C ) :   1.6225 B(  3-C ,  5-H ) :   0.9966 B(  4-C , 20-C ) :   1.0028
B(  6-C ,  7-H ) :   0.9407 B(  6-C ,  8-H ) :   0.9388 B(  6-C ,  9-C ) :   1.0724
B(  9-C , 10-H ) :   0.9563 B(  9-C , 11-H ) :   0.9563 B(  9-C , 12-C ) :   1.0639
B( 12-C , 13-H ) :   0.9766 B( 12-C , 14-H ) :   0.9755 B( 12-C , 15-H ) :   0.9764
B( 16-S , 17-C ) :   1.1425 B( 16-S , 20-C ) :   1.1150 B( 17-C , 18-C ) :   1.6507
B( 17-C , 33-H ) :   0.9609 B( 18-C , 19-C ) :   1.1846 B( 18-C , 21-H ) :   1.0055
B( 19-C , 20-C ) :   1.6427 B( 19-C , 22-C ) :   1.0654 B( 22-C , 23-H ) :   0.9328
B( 22-C , 24-H ) :   0.9219 B( 22-C , 25-C ) :   1.0721 B( 25-C , 26-H ) :   0.9513
B( 25-C , 27-H ) :   0.9497 B( 25-C , 28-C ) :   1.0838 B( 28-C , 29-H ) :   0.9736
B( 28-C , 30-H ) :   0.9717 B( 28-C , 31-H ) :   0.9712

Dispersion correction           -0.013764662
FINAL SINGLE POINT ENERGY     -1339.869500705705

DIPOLE MOMENT
-------------
                                X             Y             Z
Electronic contribution:    -13.19055     -21.86646      19.97928
Nuclear contribution   :     13.51305      22.55607     -20.23593
                        -----------------------------------------
Total Dipole Moment    :      0.32250       0.68961      -0.25664
                        -----------------------------------------
Magnitude (a.u.)       :      0.80339
Magnitude (Debye)      :      2.04205

Rotational constants in cm-1:     0.017539     0.008453     0.006208
Rotational constants in MHz :   525.793816   253.426235   186.106700

                             ****ORCA TERMINATED NORMALLY****
TOTAL RUN TIME: 0 days 0 hours 0 minutes 21 seconds 277 msec
