                         Program Version 4.2.1 -  RELEASE  -
|  1> ! wB97X-D3 SP def2-SVP
|  2> %pal
|  3> nprocs 24
|  4> end
|  5>
|  6> * xyz 0 1
|  7> S 	 -128.824 	 6.7315 	 -7.91253
|  8> C 	 -127.128 	 6.38163 	 -7.82591
|  9> C 	 -126.357 	 7.40708 	 -7.28861
| 10> C 	 -127.208 	 8.56176 	 -7.05998
| 11> C 	 -128.551 	 8.34469 	 -7.27203
| 12> H 	 -126.811 	 9.48312 	 -6.65931
| 13> C 	 -124.828 	 7.40545 	 -6.99555
| 14> H 	 -124.424 	 7.76361 	 -7.99657
| 15> H 	 -124.551 	 6.36583 	 -6.78019
| 16> C 	 -124.356 	 8.32482 	 -5.80328
| 17> H 	 -123.253 	 8.5222 	 -5.7224
| 18> H 	 -124.722 	 9.35 	 -5.77501
| 19> C 	 -124.694 	 7.75113 	 -4.42849
| 20> H 	 -124.469 	 6.66884 	 -4.37072
| 21> H 	 -124.217 	 8.29797 	 -3.69029
| 22> H 	 -125.803 	 7.89531 	 -4.32796
| 23> S 	 -129.607 	 10.1005 	 -5.49905
| 24> C 	 -131.185 	 10.7004 	 -5.77359
| 25> C 	 -131.721 	 10.4564 	 -7.01066
| 26> C 	 -130.828 	 9.56109 	 -7.75044
| 27> C 	 -129.695 	 9.25944 	 -6.99207
| 28> H 	 -132.65 	 10.898 	 -7.26067
| 29> C 	 -131.192 	 8.79682 	 -9.04475
| 30> H 	 -131.6 	 7.83504 	 -8.69647
| 31> H 	 -130.249 	 8.57227 	 -9.51896
| 32> C 	 -132.215 	 9.40684 	 -9.98335
| 33> H 	 -131.668 	 10.1581 	 -10.5787
| 34> H 	 -132.995 	 9.92058 	 -9.44417
| 35> C 	 -132.853 	 8.43274 	 -11.0326
| 36> H 	 -133.834 	 8.70039 	 -11.4138
| 37> H 	 -132.994 	 7.46921 	 -10.5349
| 38> H 	 -132.145 	 8.13456 	 -11.8199
| 39> H 	 -126.834 	 5.35346 	 -8.00155
| 40> H 	 -131.767 	 11.3601 	 -5.08583
| 41> *
| 42>
| 43>                          ****END OF INPUT****

CARTESIAN COORDINATES (ANGSTROEM)
---------------------------------
  S    -128.824000    6.731500   -7.912530
  C    -127.128000    6.381630   -7.825910
  C    -126.357000    7.407080   -7.288610
  C    -127.208000    8.561760   -7.059980
  C    -128.551000    8.344690   -7.272030
  H    -126.811000    9.483120   -6.659310
  C    -124.828000    7.405450   -6.995550
  H    -124.424000    7.763610   -7.996570
  H    -124.551000    6.365830   -6.780190
  C    -124.356000    8.324820   -5.803280
  H    -123.253000    8.522200   -5.722400
  H    -124.722000    9.350000   -5.775010
  C    -124.694000    7.751130   -4.428490
  H    -124.469000    6.668840   -4.370720
  H    -124.217000    8.297970   -3.690290
  H    -125.803000    7.895310   -4.327960
  S    -129.607000   10.100500   -5.499050
  C    -131.185000   10.700400   -5.773590
  C    -131.721000   10.456400   -7.010660
  C    -130.828000    9.561090   -7.750440
  C    -129.695000    9.259440   -6.992070
  H    -132.650000   10.898000   -7.260670
  C    -131.192000    8.796820   -9.044750
  H    -131.600000    7.835040   -8.696470
  H    -130.249000    8.572270   -9.518960
  C    -132.215000    9.406840   -9.983350
  H    -131.668000   10.158100  -10.578700
  H    -132.995000    9.920580   -9.444170
  C    -132.853000    8.432740  -11.032600
  H    -133.834000    8.700390  -11.413800
  H    -132.994000    7.469210  -10.534900
  H    -132.145000    8.134560  -11.819900
  H    -126.834000    5.353460   -8.001550
  H    -131.767000   11.360100   -5.085830

 Total Charge           Charge          ....    0
 Multiplicity           Mult            ....    1
 Number of Electrons    NEL             ....  134
 Basis Dimension        Dim             ....  322

ORBITAL ENERGIES
----------------

  NO   OCC          E(Eh)            E(eV)
   0   2.0000     -88.967952     -2420.9411
   1   2.0000     -88.965371     -2420.8708
   2   2.0000     -10.330978      -281.1202
   3   2.0000     -10.323676      -280.9215
   4   2.0000     -10.314142      -280.6621
   5   2.0000     -10.311958      -280.6026
   6   2.0000     -10.310289      -280.5572
   7   2.0000     -10.309337      -280.5313
   8   2.0000     -10.307830      -280.4903
   9   2.0000     -10.293810      -280.1088
  10   2.0000     -10.293749      -280.1071
  11   2.0000     -10.293381      -280.0971
  12   2.0000     -10.291332      -280.0414
  13   2.0000     -10.287604      -279.9399
  14   2.0000     -10.279998      -279.7330
  15   2.0000     -10.273841      -279.5654
  16   2.0000      -8.083853      -219.9728
  17   2.0000      -8.079988      -219.8677
  18   2.0000      -6.042203      -164.4167
  19   2.0000      -6.038507      -164.3161
  20   2.0000      -6.038377      -164.3126
  21   2.0000      -6.034548      -164.2084
  22   2.0000      -6.034507      -164.2073
  23   2.0000      -6.030779      -164.1058
  24   2.0000      -1.008078       -27.4312
  25   2.0000      -0.984556       -26.7911
  26   2.0000      -0.906800       -24.6753
  27   2.0000      -0.904058       -24.6007
  28   2.0000      -0.867711       -23.6116
  29   2.0000      -0.851789       -23.1783
  30   2.0000      -0.843320       -22.9479
  31   2.0000      -0.815620       -22.1941
  32   2.0000      -0.781762       -21.2728
  33   2.0000      -0.768885       -20.9224
  34   2.0000      -0.705890       -19.2083
  35   2.0000      -0.700359       -19.0577
  36   2.0000      -0.683582       -18.6012
  37   2.0000      -0.656584       -17.8666
  38   2.0000      -0.635666       -17.2973
  39   2.0000      -0.622071       -16.9274
  40   2.0000      -0.594892       -16.1878
  41   2.0000      -0.566799       -15.4234
  42   2.0000      -0.562669       -15.3110
  43   2.0000      -0.554377       -15.0854
  44   2.0000      -0.533874       -14.5274
  45   2.0000      -0.524018       -14.2593
  46   2.0000      -0.515509       -14.0277
  47   2.0000      -0.513635       -13.9767
  48   2.0000      -0.505958       -13.7678
  49   2.0000      -0.492079       -13.3901
  50   2.0000      -0.479167       -13.0388
  51   2.0000      -0.473831       -12.8936
  52   2.0000      -0.469722       -12.7818
  53   2.0000      -0.464183       -12.6311
  54   2.0000      -0.459912       -12.5148
  55   2.0000      -0.455705       -12.4004
  56   2.0000      -0.444764       -12.1027
  57   2.0000      -0.441498       -12.0138
  58   2.0000      -0.435581       -11.8528
  59   2.0000      -0.431165       -11.7326
  60   2.0000      -0.421471       -11.4688
  61   2.0000      -0.415098       -11.2954
  62   2.0000      -0.406657       -11.0657
  63   2.0000      -0.350860        -9.5474
  64   2.0000      -0.331618        -9.0238
  65   2.0000      -0.326231        -8.8772
  66   2.0000      -0.288852        -7.8601
  67   0.0000       0.035624         0.9694
  68   0.0000       0.075359         2.0506
  69   0.0000       0.109239         2.9725
  70   0.0000       0.117148         3.1878
  71   0.0000       0.131285         3.5724

MULLIKEN ATOMIC CHARGES
-----------------------
   0 S :    0.098055
   1 C :   -0.135213
   2 C :   -0.103030
   3 C :    0.009763
   4 C :   -0.140713
   5 H :    0.004560
   6 C :    0.078656
   7 H :    0.066940
   8 H :    0.036467
   9 C :   -0.117107
  10 H :    0.033749
  11 H :    0.030507
  12 C :   -0.046463
  13 H :    0.035459
  14 H :    0.023018
  15 H :    0.040402
  16 S :    0.131630
  17 C :   -0.097671
  18 C :   -0.038440
  19 C :   -0.035321
  20 C :   -0.146447
  21 H :    0.010795
  22 C :    0.044807
  23 H :    0.040421
  24 H :    0.034059
  25 C :   -0.069812
  26 H :    0.035454
  27 H :    0.027354
  28 C :   -0.050838
  29 H :    0.040690
  30 H :    0.014505
  31 H :    0.036323
  32 H :    0.048369
  33 H :    0.059072
Sum of atomic charges:   -0.0000000

LOEWDIN ATOMIC CHARGES
----------------------
   0 S :    0.415677
   1 C :   -0.207554
   2 C :   -0.061098
   3 C :   -0.075313
   4 C :   -0.186708
   5 H :    0.024930
   6 C :   -0.026845
   7 H :    0.047947
   8 H :    0.033081
   9 C :   -0.053213
  10 H :    0.029803
  11 H :    0.022698
  12 C :   -0.060873
  13 H :    0.025946
  14 H :    0.014779
  15 H :    0.030789
  16 S :    0.439280
  17 C :   -0.201080
  18 C :   -0.070433
  19 C :   -0.047901
  20 C :   -0.214011
  21 H :    0.026975
  22 C :   -0.038874
  23 H :    0.031254
  24 H :    0.024169
  25 C :   -0.041614
  26 H :    0.028952
  27 H :    0.020550
  28 C :   -0.068548
  29 H :    0.027488
  30 H :    0.022696
  31 H :    0.029178
  32 H :    0.022759
  33 H :    0.035112

  Mayer bond orders larger than 0.100000
B(  0-S ,  1-C ) :   1.1456 B(  0-S ,  4-C ) :   1.1527 B(  1-C ,  2-C ) :   1.6206
B(  1-C , 32-H ) :   0.9682 B(  2-C ,  3-C ) :   1.2357 B(  2-C ,  6-C ) :   0.9927
B(  3-C ,  4-C ) :   1.5916 B(  3-C ,  5-H ) :   0.9894 B(  4-C , 20-C ) :   1.0089
B(  6-C ,  7-H ) :   0.9408 B(  6-C ,  8-H ) :   0.9511 B(  6-C ,  9-C ) :   1.0555
B(  9-C , 10-H ) :   0.9604 B(  9-C , 11-H ) :   0.9564 B(  9-C , 12-C ) :   1.0756
B( 12-C , 13-H ) :   0.9758 B( 12-C , 14-H ) :   0.9744 B( 12-C , 15-H ) :   0.9774
B( 16-S , 17-C ) :   1.1607 B( 16-S , 20-C ) :   1.1475 B( 17-C , 18-C ) :   1.6482
B( 17-C , 33-H ) :   0.9551 B( 18-C , 19-C ) :   1.2033 B( 18-C , 21-H ) :   0.9952
B( 19-C , 20-C ) :   1.6015 B( 19-C , 22-C ) :   1.0336 B( 22-C , 23-H ) :   0.9377
B( 22-C , 24-H ) :   0.9270 B( 22-C , 25-C ) :   1.0665 B( 25-C , 26-H ) :   0.9575
B( 25-C , 27-H ) :   0.9572 B( 25-C , 28-C ) :   1.0774 B( 28-C , 29-H ) :   0.9769
B( 28-C , 30-H ) :   0.9750 B( 28-C , 31-H ) :   0.9755

Dispersion correction           -0.013874627
FINAL SINGLE POINT ENERGY     -1339.878477748829

DIPOLE MOMENT
-------------
                                X             Y             Z
Electronic contribution:     -4.38516       1.36843       6.37746
Nuclear contribution   :      4.47218      -1.29712      -6.39514
                        -----------------------------------------
Total Dipole Moment    :      0.08702       0.07131      -0.01768
                        -----------------------------------------
Magnitude (a.u.)       :      0.11389
Magnitude (Debye)      :      0.28948

Rotational constants in cm-1:     0.022230     0.007905     0.006183
Rotational constants in MHz :   666.426998   236.978065   185.374321

                             ****ORCA TERMINATED NORMALLY****
TOTAL RUN TIME: 0 days 0 hours 0 minutes 21 seconds 4 msec
