                         Program Version 4.2.1 -  RELEASE  -
|  1> ! wB97X-D3 SP def2-SVP
|  2> %pal
|  3> nprocs 24
|  4> end
|  5>
|  6> * xyz 0 1
|  7> S 	 -74.7888 	 -4.97903 	 5.57603
|  8> C 	 -73.6542 	 -3.6885 	 5.06058
|  9> C 	 -73.5905 	 -3.64705 	 3.67721
| 10> C 	 -74.3413 	 -4.72152 	 3.03013
| 11> C 	 -75.0685 	 -5.54842 	 3.903
| 12> H 	 -74.4054 	 -5.07207 	 1.99006
| 13> C 	 -72.7777 	 -2.60465 	 2.85991
| 14> H 	 -72.3518 	 -1.82048 	 3.45242
| 15> H 	 -73.4069 	 -2.18418 	 2.01687
| 16> C 	 -71.5528 	 -3.17886 	 2.21421
| 17> H 	 -70.9424 	 -2.4256 	 1.8011
| 18> H 	 -70.7986 	 -3.58319 	 2.92923
| 19> C 	 -71.8663 	 -4.2447 	 1.13637
| 20> H 	 -71.0258 	 -4.3954 	 0.43336
| 21> H 	 -72.0536 	 -5.27696 	 1.56376
| 22> H 	 -72.7735 	 -4.06953 	 0.556265
| 23> S 	 -77.4262 	 -5.96959 	 2.66615
| 24> C 	 -78.1552 	 -7.58236 	 2.81905
| 25> C 	 -77.3186 	 -8.47697 	 3.51757
| 26> C 	 -76.1375 	 -7.85245 	 4.0024
| 27> C 	 -76.0624 	 -6.56359 	 3.58938
| 28> H 	 -77.6568 	 -9.4784 	 3.66192
| 29> C 	 -75.0889 	 -8.56418 	 4.84728
| 30> H 	 -75.6324 	 -9.179 	 5.56333
| 31> H 	 -74.477 	 -7.87818 	 5.40723
| 32> C 	 -74.1367 	 -9.39104 	 3.94657
| 33> H 	 -73.7788 	 -8.82963 	 3.08075
| 34> H 	 -74.7337 	 -10.129 	 3.42401
| 35> C 	 -72.941 	 -9.94924 	 4.79442
| 36> H 	 -73.164 	 -10.8393 	 5.3452
| 37> H 	 -72.7716 	 -9.17786 	 5.57705
| 38> H 	 -71.9549 	 -9.99984 	 4.31062
| 39> H 	 -72.9409 	 -3.14872 	 5.71979
| 40> H 	 -79.098 	 -7.91811 	 2.44407
| 41> *
| 42>
| 43>                          ****END OF INPUT****

CARTESIAN COORDINATES (ANGSTROEM)
---------------------------------
  S    -74.788800   -4.979030    5.576030
  C    -73.654200   -3.688500    5.060580
  C    -73.590500   -3.647050    3.677210
  C    -74.341300   -4.721520    3.030130
  C    -75.068500   -5.548420    3.903000
  H    -74.405400   -5.072070    1.990060
  C    -72.777700   -2.604650    2.859910
  H    -72.351800   -1.820480    3.452420
  H    -73.406900   -2.184180    2.016870
  C    -71.552800   -3.178860    2.214210
  H    -70.942400   -2.425600    1.801100
  H    -70.798600   -3.583190    2.929230
  C    -71.866300   -4.244700    1.136370
  H    -71.025800   -4.395400    0.433360
  H    -72.053600   -5.276960    1.563760
  H    -72.773500   -4.069530    0.556265
  S    -77.426200   -5.969590    2.666150
  C    -78.155200   -7.582360    2.819050
  C    -77.318600   -8.476970    3.517570
  C    -76.137500   -7.852450    4.002400
  C    -76.062400   -6.563590    3.589380
  H    -77.656800   -9.478400    3.661920
  C    -75.088900   -8.564180    4.847280
  H    -75.632400   -9.179000    5.563330
  H    -74.477000   -7.878180    5.407230
  C    -74.136700   -9.391040    3.946570
  H    -73.778800   -8.829630    3.080750
  H    -74.733700  -10.129000    3.424010
  C    -72.941000   -9.949240    4.794420
  H    -73.164000  -10.839300    5.345200
  H    -72.771600   -9.177860    5.577050
  H    -71.954900   -9.999840    4.310620
  H    -72.940900   -3.148720    5.719790
  H    -79.098000   -7.918110    2.444070

 Total Charge           Charge          ....    0
 Multiplicity           Mult            ....    1
 Number of Electrons    NEL             ....  134
 Basis Dimension        Dim             ....  322

ORBITAL ENERGIES
----------------

  NO   OCC          E(Eh)            E(eV)
   0   2.0000     -88.971802     -2421.0458
   1   2.0000     -88.962643     -2420.7966
   2   2.0000     -10.332281      -281.1557
   3   2.0000     -10.322939      -280.9014
   4   2.0000     -10.321842      -280.8716
   5   2.0000     -10.321362      -280.8585
   6   2.0000     -10.311221      -280.5826
   7   2.0000     -10.302772      -280.3527
   8   2.0000     -10.300155      -280.2815
   9   2.0000     -10.297149      -280.1997
  10   2.0000     -10.296515      -280.1824
  11   2.0000     -10.291636      -280.0496
  12   2.0000     -10.287461      -279.9360
  13   2.0000     -10.283057      -279.8162
  14   2.0000     -10.280089      -279.7354
  15   2.0000     -10.279148      -279.7098
  16   2.0000      -8.085770      -220.0250
  17   2.0000      -8.075785      -219.7533
  18   2.0000      -6.044259      -164.4726
  19   2.0000      -6.040487      -164.3700
  20   2.0000      -6.036474      -164.2608
  21   2.0000      -6.034457      -164.2059
  22   2.0000      -6.030458      -164.0971
  23   2.0000      -6.026500      -163.9894
  24   2.0000      -1.003832       -27.3157
  25   2.0000      -0.973999       -26.5039
  26   2.0000      -0.911001       -24.7896
  27   2.0000      -0.906523       -24.6677
  28   2.0000      -0.867568       -23.6077
  29   2.0000      -0.849461       -23.1150
  30   2.0000      -0.831191       -22.6178
  31   2.0000      -0.811961       -22.0946
  32   2.0000      -0.782691       -21.2981
  33   2.0000      -0.771689       -20.9987
  34   2.0000      -0.707382       -19.2488
  35   2.0000      -0.700470       -19.0608
  36   2.0000      -0.696744       -18.9594
  37   2.0000      -0.669084       -18.2067
  38   2.0000      -0.638108       -17.3638
  39   2.0000      -0.608120       -16.5478
  40   2.0000      -0.595363       -16.2007
  41   2.0000      -0.568622       -15.4730
  42   2.0000      -0.560765       -15.2592
  43   2.0000      -0.548765       -14.9326
  44   2.0000      -0.533354       -14.5133
  45   2.0000      -0.521963       -14.2033
  46   2.0000      -0.517132       -14.0719
  47   2.0000      -0.508978       -13.8500
  48   2.0000      -0.506568       -13.7844
  49   2.0000      -0.491030       -13.3616
  50   2.0000      -0.485710       -13.2168
  51   2.0000      -0.482744       -13.1361
  52   2.0000      -0.467995       -12.7348
  53   2.0000      -0.460855       -12.5405
  54   2.0000      -0.458700       -12.4819
  55   2.0000      -0.449898       -12.2423
  56   2.0000      -0.441156       -12.0045
  57   2.0000      -0.436715       -11.8836
  58   2.0000      -0.432836       -11.7781
  59   2.0000      -0.427089       -11.6217
  60   2.0000      -0.421954       -11.4819
  61   2.0000      -0.415341       -11.3020
  62   2.0000      -0.404098       -10.9961
  63   2.0000      -0.338456        -9.2099
  64   2.0000      -0.334077        -9.0907
  65   2.0000      -0.325934        -8.8691
  66   2.0000      -0.299372        -8.1463
  67   0.0000       0.030872         0.8401
  68   0.0000       0.063436         1.7262
  69   0.0000       0.102740         2.7957
  70   0.0000       0.117413         3.1950
  71   0.0000       0.123834         3.3697

MULLIKEN ATOMIC CHARGES
-----------------------
   0 S :    0.089993
   1 C :   -0.136380
   2 C :   -0.071331
   3 C :    0.010258
   4 C :   -0.161279
   5 H :    0.022337
   6 C :    0.071300
   7 H :    0.015600
   8 H :    0.050357
   9 C :   -0.059858
  10 H :    0.015050
  11 H :    0.024473
  12 C :   -0.090220
  13 H :    0.034836
  14 H :    0.045235
  15 H :    0.029743
  16 S :    0.135200
  17 C :   -0.085214
  18 C :   -0.039235
  19 C :   -0.027103
  20 C :   -0.178780
  21 H :    0.011040
  22 C :    0.102012
  23 H :    0.029616
  24 H :    0.012964
  25 C :   -0.073765
  26 H :    0.030149
  27 H :    0.016795
  28 C :   -0.033505
  29 H :    0.033430
  30 H :    0.020291
  31 H :    0.041537
  32 H :    0.069604
  33 H :    0.044849
Sum of atomic charges:    0.0000000

LOEWDIN ATOMIC CHARGES
----------------------
   0 S :    0.368822
   1 C :   -0.193250
   2 C :   -0.057048
   3 C :   -0.075318
   4 C :   -0.180753
   5 H :    0.035505
   6 C :   -0.029200
   7 H :    0.028162
   8 H :    0.041624
   9 C :   -0.046559
  10 H :    0.017460
  11 H :    0.029375
  12 C :   -0.077503
  13 H :    0.027138
  14 H :    0.031323
  15 H :    0.019747
  16 S :    0.410482
  17 C :   -0.172651
  18 C :   -0.062031
  19 C :   -0.050529
  20 C :   -0.205819
  21 H :    0.027971
  22 C :   -0.022425
  23 H :    0.031746
  24 H :    0.018200
  25 C :   -0.038291
  26 H :    0.028017
  27 H :    0.019465
  28 C :   -0.069846
  29 H :    0.022533
  30 H :    0.029193
  31 H :    0.030054
  32 H :    0.040616
  33 H :    0.023790

  Mayer bond orders larger than 0.100000
B(  0-S ,  1-C ) :   1.1226 B(  0-S ,  4-C ) :   1.1269 B(  1-C ,  2-C ) :   1.6460
B(  1-C , 32-H ) :   0.9604 B(  2-C ,  3-C ) :   1.1932 B(  2-C ,  6-C ) :   1.0235
B(  3-C ,  4-C ) :   1.6003 B(  3-C ,  5-H ) :   0.9873 B(  4-C , 20-C ) :   1.0408
B(  6-C ,  7-H ) :   0.9406 B(  6-C ,  8-H ) :   0.9439 B(  6-C ,  9-C ) :   1.0822
B(  9-C , 10-H ) :   0.9569 B(  9-C , 11-H ) :   0.9466 B(  9-C , 12-C ) :   1.0743
B( 12-C , 13-H ) :   0.9717 B( 12-C , 14-H ) :   0.9702 B( 12-C , 15-H ) :   0.9736
B( 16-S , 17-C ) :   1.1465 B( 16-S , 20-C ) :   1.1363 B( 17-C , 18-C ) :   1.6239
B( 17-C , 33-H ) :   0.9690 B( 18-C , 19-C ) :   1.2212 B( 18-C , 21-H ) :   0.9929
B( 19-C , 20-C ) :   1.6109 B( 19-C , 22-C ) :   1.0466 B( 22-C , 23-H ) :   0.9328
B( 22-C , 24-H ) :   0.9239 B( 22-C , 25-C ) :   1.0582 B( 25-C , 26-H ) :   0.9591
B( 25-C , 27-H ) :   0.9578 B( 25-C , 28-C ) :   1.0603 B( 28-C , 29-H ) :   0.9765
B( 28-C , 30-H ) :   0.9754 B( 28-C , 31-H ) :   0.9777

Dispersion correction           -0.014595470
FINAL SINGLE POINT ENERGY     -1339.874011414804

DIPOLE MOMENT
-------------
                                X             Y             Z
Electronic contribution:    -21.24743       6.89702       6.06807
Nuclear contribution   :     21.59801      -7.11637      -6.27427
                        -----------------------------------------
Total Dipole Moment    :      0.35058      -0.21934      -0.20620
                        -----------------------------------------
Magnitude (a.u.)       :      0.46210
Magnitude (Debye)      :      1.17456

Rotational constants in cm-1:     0.017351     0.008951     0.007737
Rotational constants in MHz :   520.179635   268.333613   231.952633

                             ****ORCA TERMINATED NORMALLY****
TOTAL RUN TIME: 0 days 0 hours 0 minutes 20 seconds 593 msec
