                         Program Version 4.2.1 -  RELEASE  -
|  1> ! wB97X-D3 SP def2-SVP
|  2> %pal
|  3> nprocs 24
|  4> end
|  5>
|  6> * xyz 0 1
|  7> S 	 -40.069 	 -49.506 	 -70.5949
|  8> C 	 -39.9389 	 -49.0311 	 -68.9594
|  9> C 	 -40.715 	 -49.8047 	 -68.1071
| 10> C 	 -41.6535 	 -50.5749 	 -68.8748
| 11> C 	 -41.3211 	 -50.6583 	 -70.2219
| 12> H 	 -42.5229 	 -51.0578 	 -68.5403
| 13> C 	 -40.7186 	 -49.8005 	 -66.6233
| 14> H 	 -40.6778 	 -48.7783 	 -66.2561
| 15> H 	 -39.7485 	 -50.2839 	 -66.3727
| 16> C 	 -41.9059 	 -50.4321 	 -65.8576
| 17> H 	 -42.1578 	 -51.3377 	 -66.3044
| 18> H 	 -41.5871 	 -50.5748 	 -64.8527
| 19> C 	 -43.0963 	 -49.4384 	 -66.0373
| 20> H 	 -43.0408 	 -49.0241 	 -67.0557
| 21> H 	 -44.0222 	 -49.9071 	 -65.9058
| 22> H 	 -42.8748 	 -48.6861 	 -65.2958
| 23> S 	 -43.0125 	 -50.5054 	 -72.4352
| 24> C 	 -43.7188 	 -51.9692 	 -73.0118
| 25> C 	 -43.2792 	 -53.0588 	 -72.3171
| 26> C 	 -42.3467 	 -52.7045 	 -71.3132
| 27> C 	 -41.9807 	 -51.352 	 -71.2974
| 28> H 	 -43.6362 	 -54.0528 	 -72.5608
| 29> C 	 -41.7871 	 -53.7666 	 -70.3528
| 30> H 	 -42.55 	 -53.8849 	 -69.6035
| 31> H 	 -40.9242 	 -53.2896 	 -69.8241
| 32> C 	 -41.5065 	 -55.1632 	 -70.7583
| 33> H 	 -40.733 	 -55.3266 	 -71.5208
| 34> H 	 -42.4515 	 -55.652 	 -71.0793
| 35> C 	 -41.0701 	 -56.0866 	 -69.5542
| 36> H 	 -41.0863 	 -57.132 	 -69.7168
| 37> H 	 -41.8261 	 -55.965 	 -68.8057
| 38> H 	 -40.2111 	 -55.8654 	 -68.9806
| 39> H 	 -39.3477 	 -48.2174 	 -68.6393
| 40> H 	 -44.4939 	 -52.0076 	 -73.8158
| 41> *
| 42>
| 43>                          ****END OF INPUT****

CARTESIAN COORDINATES (ANGSTROEM)
---------------------------------
  S    -40.069000  -49.506000  -70.594900
  C    -39.938900  -49.031100  -68.959400
  C    -40.715000  -49.804700  -68.107100
  C    -41.653500  -50.574900  -68.874800
  C    -41.321100  -50.658300  -70.221900
  H    -42.522900  -51.057800  -68.540300
  C    -40.718600  -49.800500  -66.623300
  H    -40.677800  -48.778300  -66.256100
  H    -39.748500  -50.283900  -66.372700
  C    -41.905900  -50.432100  -65.857600
  H    -42.157800  -51.337700  -66.304400
  H    -41.587100  -50.574800  -64.852700
  C    -43.096300  -49.438400  -66.037300
  H    -43.040800  -49.024100  -67.055700
  H    -44.022200  -49.907100  -65.905800
  H    -42.874800  -48.686100  -65.295800
  S    -43.012500  -50.505400  -72.435200
  C    -43.718800  -51.969200  -73.011800
  C    -43.279200  -53.058800  -72.317100
  C    -42.346700  -52.704500  -71.313200
  C    -41.980700  -51.352000  -71.297400
  H    -43.636200  -54.052800  -72.560800
  C    -41.787100  -53.766600  -70.352800
  H    -42.550000  -53.884900  -69.603500
  H    -40.924200  -53.289600  -69.824100
  C    -41.506500  -55.163200  -70.758300
  H    -40.733000  -55.326600  -71.520800
  H    -42.451500  -55.652000  -71.079300
  C    -41.070100  -56.086600  -69.554200
  H    -41.086300  -57.132000  -69.716800
  H    -41.826100  -55.965000  -68.805700
  H    -40.211100  -55.865400  -68.980600
  H    -39.347700  -48.217400  -68.639300
  H    -44.493900  -52.007600  -73.815800

 Total Charge           Charge          ....    0
 Multiplicity           Mult            ....    1
 Number of Electrons    NEL             ....  134
 Basis Dimension        Dim             ....  322

ORBITAL ENERGIES
----------------

  NO   OCC          E(Eh)            E(eV)
   0   2.0000     -88.963688     -2420.8250
   1   2.0000     -88.962385     -2420.7896
   2   2.0000     -10.323435      -280.9149
   3   2.0000     -10.321503      -280.8624
   4   2.0000     -10.319675      -280.8126
   5   2.0000     -10.306789      -280.4620
   6   2.0000     -10.304731      -280.4060
   7   2.0000     -10.300703      -280.2964
   8   2.0000     -10.291846      -280.0554
   9   2.0000     -10.291676      -280.0507
  10   2.0000     -10.290979      -280.0318
  11   2.0000     -10.290291      -280.0131
  12   2.0000     -10.288949      -279.9765
  13   2.0000     -10.281957      -279.7863
  14   2.0000     -10.274365      -279.5797
  15   2.0000     -10.270280      -279.4685
  16   2.0000      -8.078950      -219.8394
  17   2.0000      -8.078145      -219.8175
  18   2.0000      -6.037418      -164.2865
  19   2.0000      -6.036386      -164.2584
  20   2.0000      -6.033268      -164.1736
  21   2.0000      -6.032487      -164.1523
  22   2.0000      -6.029826      -164.0799
  23   2.0000      -6.029153      -164.0616
  24   2.0000      -1.009889       -27.4805
  25   2.0000      -0.988707       -26.9041
  26   2.0000      -0.917859       -24.9762
  27   2.0000      -0.910842       -24.7853
  28   2.0000      -0.873351       -23.7651
  29   2.0000      -0.850672       -23.1480
  30   2.0000      -0.845360       -23.0034
  31   2.0000      -0.815942       -22.2029
  32   2.0000      -0.785565       -21.3763
  33   2.0000      -0.772322       -21.0159
  34   2.0000      -0.715343       -19.4655
  35   2.0000      -0.702140       -19.1062
  36   2.0000      -0.693576       -18.8732
  37   2.0000      -0.652760       -17.7625
  38   2.0000      -0.645622       -17.5683
  39   2.0000      -0.627383       -17.0720
  40   2.0000      -0.599114       -16.3027
  41   2.0000      -0.575234       -15.6529
  42   2.0000      -0.568606       -15.4725
  43   2.0000      -0.559470       -15.2239
  44   2.0000      -0.541351       -14.7309
  45   2.0000      -0.523875       -14.2554
  46   2.0000      -0.517735       -14.0883
  47   2.0000      -0.510258       -13.8848
  48   2.0000      -0.506862       -13.7924
  49   2.0000      -0.498085       -13.5536
  50   2.0000      -0.486888       -13.2489
  51   2.0000      -0.483572       -13.1587
  52   2.0000      -0.473223       -12.8771
  53   2.0000      -0.469216       -12.7680
  54   2.0000      -0.457885       -12.4597
  55   2.0000      -0.457207       -12.4412
  56   2.0000      -0.448563       -12.2060
  57   2.0000      -0.433469       -11.7953
  58   2.0000      -0.429776       -11.6948
  59   2.0000      -0.427285       -11.6270
  60   2.0000      -0.422597       -11.4995
  61   2.0000      -0.419897       -11.4260
  62   2.0000      -0.411219       -11.1898
  63   2.0000      -0.342752        -9.3268
  64   2.0000      -0.326582        -8.8868
  65   2.0000      -0.323566        -8.8047
  66   2.0000      -0.296026        -8.0553
  67   0.0000       0.033327         0.9069
  68   0.0000       0.066964         1.8222
  69   0.0000       0.122666         3.3379
  70   0.0000       0.124794         3.3958
  71   0.0000       0.128481         3.4962

MULLIKEN ATOMIC CHARGES
-----------------------
   0 S :    0.119407
   1 C :   -0.106111
   2 C :   -0.096445
   3 C :    0.040246
   4 C :   -0.193623
   5 H :   -0.002083
   6 C :    0.022764
   7 H :    0.021052
   8 H :    0.047514
   9 C :   -0.026940
  10 H :    0.012055
  11 H :    0.029341
  12 C :   -0.049909
  13 H :    0.048882
  14 H :    0.027290
  15 H :    0.032664
  16 S :    0.108794
  17 C :   -0.101327
  18 C :   -0.034140
  19 C :   -0.042126
  20 C :   -0.117939
  21 H :    0.018322
  22 C :    0.063752
  23 H :    0.019505
  24 H :    0.041371
  25 C :   -0.067709
  26 H :    0.042020
  27 H :    0.028913
  28 C :   -0.032038
  29 H :    0.024882
  30 H :   -0.002617
  31 H :    0.021926
  32 H :    0.031263
  33 H :    0.071044
Sum of atomic charges:   -0.0000000

LOEWDIN ATOMIC CHARGES
----------------------
   0 S :    0.428980
   1 C :   -0.203985
   2 C :   -0.062878
   3 C :   -0.052836
   4 C :   -0.203453
   5 H :    0.022601
   6 C :   -0.037355
   7 H :    0.029538
   8 H :    0.039530
   9 C :   -0.027036
  10 H :    0.009411
  11 H :    0.023433
  12 C :   -0.054944
  13 H :    0.031902
  14 H :    0.016181
  15 H :    0.026629
  16 S :    0.417646
  17 C :   -0.187537
  18 C :   -0.081217
  19 C :   -0.043241
  20 C :   -0.222815
  21 H :    0.032587
  22 C :   -0.040699
  23 H :    0.031990
  24 H :    0.036982
  25 C :   -0.037549
  26 H :    0.024765
  27 H :    0.027442
  28 C :   -0.064078
  29 H :    0.022910
  30 H :    0.019578
  31 H :    0.019457
  32 H :    0.018927
  33 H :    0.039131

  Mayer bond orders larger than 0.100000
B(  0-S ,  1-C ) :   1.1642 B(  0-S ,  4-C ) :   1.1595 B(  1-C ,  2-C ) :   1.5846
B(  1-C , 32-H ) :   0.9789 B(  2-C ,  3-C ) :   1.2436 B(  2-C ,  6-C ) :   1.0155
B(  3-C ,  4-C ) :   1.5641 B(  3-C ,  5-H ) :   0.9960 B(  4-C , 20-C ) :   1.0265
B(  6-C ,  7-H ) :   0.9386 B(  6-C ,  8-H ) :   0.9269 B(  6-C ,  9-C ) :   1.0890
B(  9-C , 10-H ) :   0.9510 B(  9-C , 11-H ) :   0.9570 B(  9-C , 12-C ) :   1.0573
B( 12-C , 13-H ) :   0.9799 B( 12-C , 14-H ) :   0.9771 B( 12-C , 15-H ) :   0.9768
B( 16-S , 17-C ) :   1.1846 B( 16-S , 20-C ) :   1.1320 B( 17-C , 18-C ) :   1.5804
B( 17-C , 33-H ) :   0.9589 B( 18-C , 19-C ) :   1.2595 B( 18-C , 21-H ) :   0.9960
B( 19-C , 20-C ) :   1.5755 B( 19-C , 22-C ) :   1.0362 B( 22-C , 23-H ) :   0.9207
B( 22-C , 24-H ) :   0.9369 B( 22-C , 25-C ) :   1.0764 B( 25-C , 26-H ) :   0.9608
B( 25-C , 27-H ) :   0.9419 B( 25-C , 28-C ) :   1.0732 B( 28-C , 29-H ) :   0.9759
B( 28-C , 30-H ) :   0.9689 B( 28-C , 31-H ) :   0.9774

Dispersion correction           -0.014063265
FINAL SINGLE POINT ENERGY     -1339.866528165242

DIPOLE MOMENT
-------------
                                X             Y             Z
Electronic contribution:      2.27179      16.05245     -22.23477
Nuclear contribution   :     -2.56121     -16.45614      22.84449
                        -----------------------------------------
Total Dipole Moment    :     -0.28942      -0.40368       0.60972
                        -----------------------------------------
Magnitude (a.u.)       :      0.78644
Magnitude (Debye)      :      1.99897

Rotational constants in cm-1:     0.015702     0.009314     0.007348
Rotational constants in MHz :   470.720869   279.216960   220.276131

                             ****ORCA TERMINATED NORMALLY****
TOTAL RUN TIME: 0 days 0 hours 0 minutes 21 seconds 961 msec
