                         Program Version 4.2.1 -  RELEASE  -
|  1> ! wB97X-D3 SP def2-SVP
|  2> %pal
|  3> nprocs 24
|  4> end
|  5>
|  6> * xyz 0 1
|  7> S 	 -129.775 	 64.3859 	 -56.1303
|  8> C 	 -131.394 	 65.0249 	 -55.9357
|  9> C 	 -131.543 	 66.2208 	 -56.5823
| 10> C 	 -130.454 	 66.5301 	 -57.4044
| 11> C 	 -129.549 	 65.4964 	 -57.4531
| 12> H 	 -130.275 	 67.4488 	 -58.0164
| 13> C 	 -132.707 	 67.1748 	 -56.4954
| 14> H 	 -132.3 	 68.1488 	 -56.5999
| 15> H 	 -133.093 	 66.9522 	 -55.5278
| 16> C 	 -133.749 	 66.7832 	 -57.6419
| 17> H 	 -133.244 	 66.5523 	 -58.5985
| 18> H 	 -134.332 	 65.9547 	 -57.3458
| 19> C 	 -134.583 	 68.0368 	 -57.8424
| 20> H 	 -133.955 	 68.9276 	 -57.8164
| 21> H 	 -135.221 	 67.8816 	 -58.7089
| 22> H 	 -135.298 	 68.1902 	 -57.0105
| 23> S 	 -126.811 	 65.0711 	 -57.7441
| 24> C 	 -126.249 	 65.0216 	 -59.4167
| 25> C 	 -127.165 	 65.3001 	 -60.3612
| 26> C 	 -128.492 	 65.5137 	 -59.7597
| 27> C 	 -128.436 	 65.4015 	 -58.3554
| 28> H 	 -126.814 	 65.3927 	 -61.3475
| 29> C 	 -129.651 	 65.7114 	 -60.5772
| 30> H 	 -129.386 	 66.5277 	 -61.3384
| 31> H 	 -130.598 	 66.0521 	 -60.0538
| 32> C 	 -130.008 	 64.4446 	 -61.3145
| 33> H 	 -130.133 	 63.6504 	 -60.4837
| 34> H 	 -129.171 	 64.0146 	 -62.0201
| 35> C 	 -131.27 	 64.6693 	 -62.188
| 36> H 	 -131.184 	 65.5858 	 -62.669
| 37> H 	 -132.131 	 64.7743 	 -61.563
| 38> H 	 -131.476 	 63.8441 	 -62.9002
| 39> H 	 -132.126 	 64.588 	 -55.2581
| 40> H 	 -125.219 	 64.783 	 -59.727
| 41> *
| 42>
| 43>                          ****END OF INPUT****

CARTESIAN COORDINATES (ANGSTROEM)
---------------------------------
  S    -129.775000   64.385900  -56.130300
  C    -131.394000   65.024900  -55.935700
  C    -131.543000   66.220800  -56.582300
  C    -130.454000   66.530100  -57.404400
  C    -129.549000   65.496400  -57.453100
  H    -130.275000   67.448800  -58.016400
  C    -132.707000   67.174800  -56.495400
  H    -132.300000   68.148800  -56.599900
  H    -133.093000   66.952200  -55.527800
  C    -133.749000   66.783200  -57.641900
  H    -133.244000   66.552300  -58.598500
  H    -134.332000   65.954700  -57.345800
  C    -134.583000   68.036800  -57.842400
  H    -133.955000   68.927600  -57.816400
  H    -135.221000   67.881600  -58.708900
  H    -135.298000   68.190200  -57.010500
  S    -126.811000   65.071100  -57.744100
  C    -126.249000   65.021600  -59.416700
  C    -127.165000   65.300100  -60.361200
  C    -128.492000   65.513700  -59.759700
  C    -128.436000   65.401500  -58.355400
  H    -126.814000   65.392700  -61.347500
  C    -129.651000   65.711400  -60.577200
  H    -129.386000   66.527700  -61.338400
  H    -130.598000   66.052100  -60.053800
  C    -130.008000   64.444600  -61.314500
  H    -130.133000   63.650400  -60.483700
  H    -129.171000   64.014600  -62.020100
  C    -131.270000   64.669300  -62.188000
  H    -131.184000   65.585800  -62.669000
  H    -132.131000   64.774300  -61.563000
  H    -131.476000   63.844100  -62.900200
  H    -132.126000   64.588000  -55.258100
  H    -125.219000   64.783000  -59.727000

 Total Charge           Charge          ....    0
 Multiplicity           Mult            ....    1
 Number of Electrons    NEL             ....  134
 Basis Dimension        Dim             ....  322

ORBITAL ENERGIES
----------------

  NO   OCC          E(Eh)            E(eV)
   0   2.0000     -88.964861     -2420.8570
   1   2.0000     -88.962727     -2420.7989
   2   2.0000     -10.324085      -280.9326
   3   2.0000     -10.321567      -280.8641
   4   2.0000     -10.314654      -280.6760
   5   2.0000     -10.307595      -280.4839
   6   2.0000     -10.304418      -280.3975
   7   2.0000     -10.297149      -280.1997
   8   2.0000     -10.293423      -280.0983
   9   2.0000     -10.291899      -280.0568
  10   2.0000     -10.290329      -280.0141
  11   2.0000     -10.289122      -279.9812
  12   2.0000     -10.288994      -279.9778
  13   2.0000     -10.288719      -279.9703
  14   2.0000     -10.277703      -279.6705
  15   2.0000     -10.272597      -279.5316
  16   2.0000      -8.079242      -219.8474
  17   2.0000      -8.077897      -219.8108
  18   2.0000      -6.037866      -164.2987
  19   2.0000      -6.036316      -164.2565
  20   2.0000      -6.034083      -164.1958
  21   2.0000      -6.032727      -164.1588
  22   2.0000      -6.029644      -164.0749
  23   2.0000      -6.028362      -164.0401
  24   2.0000      -1.008585       -27.4450
  25   2.0000      -0.983636       -26.7661
  26   2.0000      -0.916168       -24.9302
  27   2.0000      -0.913090       -24.8465
  28   2.0000      -0.871429       -23.7128
  29   2.0000      -0.852724       -23.2038
  30   2.0000      -0.846760       -23.0415
  31   2.0000      -0.816441       -22.2165
  32   2.0000      -0.780766       -21.2457
  33   2.0000      -0.764122       -20.7928
  34   2.0000      -0.705586       -19.2000
  35   2.0000      -0.703289       -19.1375
  36   2.0000      -0.687351       -18.7038
  37   2.0000      -0.657589       -17.8939
  38   2.0000      -0.637182       -17.3386
  39   2.0000      -0.620612       -16.8877
  40   2.0000      -0.597544       -16.2600
  41   2.0000      -0.574956       -15.6453
  42   2.0000      -0.565203       -15.3800
  43   2.0000      -0.554027       -15.0758
  44   2.0000      -0.530313       -14.4305
  45   2.0000      -0.524869       -14.2824
  46   2.0000      -0.522428       -14.2160
  47   2.0000      -0.511368       -13.9150
  48   2.0000      -0.501648       -13.6505
  49   2.0000      -0.493092       -13.4177
  50   2.0000      -0.489205       -13.3119
  51   2.0000      -0.481526       -13.1030
  52   2.0000      -0.464754       -12.6466
  53   2.0000      -0.464634       -12.6433
  54   2.0000      -0.456259       -12.4155
  55   2.0000      -0.455191       -12.3864
  56   2.0000      -0.450573       -12.2607
  57   2.0000      -0.439050       -11.9472
  58   2.0000      -0.436605       -11.8806
  59   2.0000      -0.426828       -11.6146
  60   2.0000      -0.425153       -11.5690
  61   2.0000      -0.413390       -11.2489
  62   2.0000      -0.408407       -11.1133
  63   2.0000      -0.346090        -9.4176
  64   2.0000      -0.328767        -8.9462
  65   2.0000      -0.325387        -8.8542
  66   2.0000      -0.283011        -7.7011
  67   0.0000       0.028325         0.7708
  68   0.0000       0.073301         1.9946
  69   0.0000       0.100200         2.7266
  70   0.0000       0.117814         3.2059
  71   0.0000       0.128292         3.4910

MULLIKEN ATOMIC CHARGES
-----------------------
   0 S :    0.111484
   1 C :   -0.133168
   2 C :   -0.103712
   3 C :    0.003422
   4 C :   -0.165104
   5 H :    0.036305
   6 C :    0.106642
   7 H :    0.021970
   8 H :    0.018494
   9 C :   -0.069436
  10 H :    0.042438
  11 H :    0.026547
  12 C :   -0.037078
  13 H :    0.031784
  14 H :    0.032933
  15 H :    0.022895
  16 S :    0.101162
  17 C :   -0.089783
  18 C :   -0.010844
  19 C :   -0.018088
  20 C :   -0.146257
  21 H :    0.004031
  22 C :    0.025692
  23 H :    0.036638
  24 H :    0.038220
  25 C :   -0.165837
  26 H :    0.051198
  27 H :    0.047118
  28 C :    0.015319
  29 H :    0.009181
  30 H :    0.017920
  31 H :    0.042827
  32 H :    0.039517
  33 H :    0.055571
Sum of atomic charges:    0.0000000

LOEWDIN ATOMIC CHARGES
----------------------
   0 S :    0.399287
   1 C :   -0.204648
   2 C :   -0.065297
   3 C :   -0.070045
   4 C :   -0.190035
   5 H :    0.041229
   6 C :   -0.014583
   7 H :    0.025703
   8 H :    0.027657
   9 C :   -0.026230
  10 H :    0.025673
  11 H :    0.020072
  12 C :   -0.068994
  13 H :    0.023770
  14 H :    0.023774
  15 H :    0.026205
  16 S :    0.375854
  17 C :   -0.174272
  18 C :   -0.062029
  19 C :   -0.048075
  20 C :   -0.196601
  21 H :    0.028118
  22 C :   -0.053486
  23 H :    0.039145
  24 H :    0.037265
  25 C :   -0.048761
  26 H :    0.034661
  27 H :    0.030853
  28 C :   -0.062578
  29 H :    0.015217
  30 H :    0.021582
  31 H :    0.031485
  32 H :    0.025529
  33 H :    0.032553

  Mayer bond orders larger than 0.100000
B(  0-S ,  1-C ) :   1.1211 B(  0-S ,  4-C ) :   1.1537 B(  1-C ,  2-C ) :   1.6195
B(  1-C ,  4-C ) :   0.1016 B(  1-C , 32-H ) :   0.9703 B(  2-C ,  3-C ) :   1.2289
B(  2-C ,  6-C ) :   1.0155 B(  3-C ,  4-C ) :   1.5604 B(  3-C ,  5-H ) :   0.9918
B(  4-C , 20-C ) :   1.0766 B(  6-C ,  7-H ) :   0.9505 B(  6-C ,  8-H ) :   0.9293
B(  6-C ,  9-C ) :   1.0542 B(  9-C , 10-H ) :   0.9654 B(  9-C , 11-H ) :   0.9527
B(  9-C , 12-C ) :   1.0818 B( 12-C , 13-H ) :   0.9791 B( 12-C , 14-H ) :   0.9729
B( 12-C , 15-H ) :   0.9701 B( 16-S , 17-C ) :   1.1199 B( 16-S , 20-C ) :   1.1103
B( 17-C , 18-C ) :   1.6959 B( 17-C , 33-H ) :   0.9570 B( 18-C , 19-C ) :   1.1603
B( 18-C , 21-H ) :   0.9956 B( 19-C , 20-C ) :   1.6182 B( 19-C , 22-C ) :   1.0828
B( 22-C , 23-H ) :   0.9110 B( 22-C , 24-H ) :   0.9288 B( 22-C , 25-C ) :   1.0508
B( 25-C , 26-H ) :   0.9546 B( 25-C , 27-H ) :   0.9551 B( 25-C , 28-C ) :   1.0694
B( 28-C , 29-H ) :   0.9682 B( 28-C , 30-H ) :   0.9715 B( 28-C , 31-H ) :   0.9751

Dispersion correction           -0.014460658
FINAL SINGLE POINT ENERGY     -1339.859654412796

DIPOLE MOMENT
-------------
                                X             Y             Z
Electronic contribution:     25.34138      -8.49603      16.65732
Nuclear contribution   :    -25.80979       8.81308     -17.11880
                        -----------------------------------------
Total Dipole Moment    :     -0.46841       0.31705      -0.46148
                        -----------------------------------------
Magnitude (a.u.)       :      0.73000
Magnitude (Debye)      :      1.85551

Rotational constants in cm-1:     0.017748     0.009550     0.006995
Rotational constants in MHz :   532.071866   286.309199   209.700896

                             ****ORCA TERMINATED NORMALLY****
TOTAL RUN TIME: 0 days 0 hours 0 minutes 22 seconds 352 msec
