                         Program Version 4.2.1 -  RELEASE  -
|  1> ! wB97X-D3 SP def2-SVP
|  2> %pal
|  3> nprocs 24
|  4> end
|  5>
|  6> * xyz 0 1
|  7> S 	 -50.0132 	 12.5046 	 23.2622
|  8> C 	 -50.0997 	 13.5459 	 24.6271
|  9> C 	 -50.5485 	 14.8123 	 24.3621
| 10> C 	 -50.7873 	 14.967 	 22.9373
| 11> C 	 -50.6155 	 13.7769 	 22.201
| 12> H 	 -51.1588 	 15.8658 	 22.4764
| 13> C 	 -50.5792 	 15.974 	 25.3113
| 14> H 	 -50.4354 	 16.9185 	 24.8412
| 15> H 	 -49.8695 	 15.7563 	 26.1339
| 16> C 	 -51.9157 	 16.2358 	 26.047
| 17> H 	 -52.2066 	 15.3113 	 26.5172
| 18> H 	 -51.6565 	 16.9594 	 26.8244
| 19> C 	 -53.0497 	 16.8444 	 25.1841
| 20> H 	 -52.8178 	 16.9127 	 24.0663
| 21> H 	 -54.0698 	 16.4519 	 25.3037
| 22> H 	 -53.0345 	 17.8953 	 25.4565
| 23> S 	 -50.8074 	 12.018 	 20.0204
| 24> C 	 -50.5237 	 12.5665 	 18.4563
| 25> C 	 -50.1781 	 13.8707 	 18.4716
| 26> C 	 -50.2844 	 14.5469 	 19.705
| 27> C 	 -50.5092 	 13.6332 	 20.7514
| 28> H 	 -49.9037 	 14.4116 	 17.56
| 29> C 	 -49.9949 	 16.0481 	 19.9539
| 30> H 	 -49.172 	 16.3315 	 19.2746
| 31> H 	 -49.5372 	 16.3023 	 20.9244
| 32> C 	 -51.1394 	 16.9538 	 19.7356
| 33> H 	 -52.0202 	 16.7663 	 20.3169
| 34> H 	 -51.5532 	 16.7205 	 18.7738
| 35> C 	 -50.6313 	 18.3466 	 19.9175
| 36> H 	 -51.2133 	 19.0692 	 19.3199
| 37> H 	 -49.6801 	 18.5484 	 19.5761
| 38> H 	 -50.5389 	 18.6724 	 20.9073
| 39> H 	 -49.6318 	 13.2738 	 25.5644
| 40> H 	 -50.5079 	 11.9597 	 17.6046
| 41> *
| 42>
| 43>                          ****END OF INPUT****

CARTESIAN COORDINATES (ANGSTROEM)
---------------------------------
  S    -50.013200   12.504600   23.262200
  C    -50.099700   13.545900   24.627100
  C    -50.548500   14.812300   24.362100
  C    -50.787300   14.967000   22.937300
  C    -50.615500   13.776900   22.201000
  H    -51.158800   15.865800   22.476400
  C    -50.579200   15.974000   25.311300
  H    -50.435400   16.918500   24.841200
  H    -49.869500   15.756300   26.133900
  C    -51.915700   16.235800   26.047000
  H    -52.206600   15.311300   26.517200
  H    -51.656500   16.959400   26.824400
  C    -53.049700   16.844400   25.184100
  H    -52.817800   16.912700   24.066300
  H    -54.069800   16.451900   25.303700
  H    -53.034500   17.895300   25.456500
  S    -50.807400   12.018000   20.020400
  C    -50.523700   12.566500   18.456300
  C    -50.178100   13.870700   18.471600
  C    -50.284400   14.546900   19.705000
  C    -50.509200   13.633200   20.751400
  H    -49.903700   14.411600   17.560000
  C    -49.994900   16.048100   19.953900
  H    -49.172000   16.331500   19.274600
  H    -49.537200   16.302300   20.924400
  C    -51.139400   16.953800   19.735600
  H    -52.020200   16.766300   20.316900
  H    -51.553200   16.720500   18.773800
  C    -50.631300   18.346600   19.917500
  H    -51.213300   19.069200   19.319900
  H    -49.680100   18.548400   19.576100
  H    -50.538900   18.672400   20.907300
  H    -49.631800   13.273800   25.564400
  H    -50.507900   11.959700   17.604600

 Total Charge           Charge          ....    0
 Multiplicity           Mult            ....    1
 Number of Electrons    NEL             ....  134
 Basis Dimension        Dim             ....  322

ORBITAL ENERGIES
----------------

  NO   OCC          E(Eh)            E(eV)
   0   2.0000     -88.967240     -2420.9217
   1   2.0000     -88.961996     -2420.7790
   2   2.0000     -10.333407      -281.1863
   3   2.0000     -10.331575      -281.1364
   4   2.0000     -10.311513      -280.5905
   5   2.0000     -10.307221      -280.4738
   6   2.0000     -10.304041      -280.3872
   7   2.0000     -10.301520      -280.3186
   8   2.0000     -10.298120      -280.2261
   9   2.0000     -10.293246      -280.0935
  10   2.0000     -10.292330      -280.0685
  11   2.0000     -10.289101      -279.9807
  12   2.0000     -10.286601      -279.9126
  13   2.0000     -10.283653      -279.8324
  14   2.0000     -10.278196      -279.6839
  15   2.0000     -10.267620      -279.3961
  16   2.0000      -8.082355      -219.9320
  17   2.0000      -8.077577      -219.8020
  18   2.0000      -6.040905      -164.3814
  19   2.0000      -6.036818      -164.2702
  20   2.0000      -6.036002      -164.2480
  21   2.0000      -6.033047      -164.1676
  22   2.0000      -6.031912      -164.1367
  23   2.0000      -6.028442      -164.0423
  24   2.0000      -1.007670       -27.4201
  25   2.0000      -0.988175       -26.8896
  26   2.0000      -0.924692       -25.1621
  27   2.0000      -0.913025       -24.8447
  28   2.0000      -0.870747       -23.6942
  29   2.0000      -0.855420       -23.2772
  30   2.0000      -0.843852       -22.9624
  31   2.0000      -0.812397       -22.1064
  32   2.0000      -0.787444       -21.4274
  33   2.0000      -0.776274       -21.1235
  34   2.0000      -0.715329       -19.4651
  35   2.0000      -0.701544       -19.0900
  36   2.0000      -0.698638       -19.0109
  37   2.0000      -0.662912       -18.0387
  38   2.0000      -0.637957       -17.3597
  39   2.0000      -0.620287       -16.8789
  40   2.0000      -0.605270       -16.4702
  41   2.0000      -0.580759       -15.8033
  42   2.0000      -0.566471       -15.4145
  43   2.0000      -0.544446       -14.8151
  44   2.0000      -0.540214       -14.7000
  45   2.0000      -0.528157       -14.3719
  46   2.0000      -0.527243       -14.3470
  47   2.0000      -0.513490       -13.9728
  48   2.0000      -0.504355       -13.7242
  49   2.0000      -0.498197       -13.5566
  50   2.0000      -0.493565       -13.4306
  51   2.0000      -0.484133       -13.1739
  52   2.0000      -0.474361       -12.9080
  53   2.0000      -0.468866       -12.7585
  54   2.0000      -0.462432       -12.5834
  55   2.0000      -0.456558       -12.4236
  56   2.0000      -0.442906       -12.0521
  57   2.0000      -0.436113       -11.8672
  58   2.0000      -0.431847       -11.7511
  59   2.0000      -0.427219       -11.6252
  60   2.0000      -0.419573       -11.4172
  61   2.0000      -0.418580       -11.3901
  62   2.0000      -0.401611       -10.9284
  63   2.0000      -0.359916        -9.7938
  64   2.0000      -0.333145        -9.0653
  65   2.0000      -0.329784        -8.9739
  66   2.0000      -0.281777        -7.6675
  67   0.0000       0.022904         0.6232
  68   0.0000       0.078372         2.1326
  69   0.0000       0.104641         2.8474
  70   0.0000       0.123137         3.3507
  71   0.0000       0.126795         3.4503

MULLIKEN ATOMIC CHARGES
-----------------------
   0 S :    0.108104
   1 C :   -0.124594
   2 C :   -0.049530
   3 C :   -0.018434
   4 C :   -0.090768
   5 H :    0.004811
   6 C :    0.056202
   7 H :    0.015465
   8 H :    0.029152
   9 C :   -0.063342
  10 H :    0.024666
  11 H :    0.034178
  12 C :   -0.082256
  13 H :    0.033322
  14 H :    0.053719
  15 H :    0.025997
  16 S :    0.091268
  17 C :   -0.046569
  18 C :   -0.036087
  19 C :   -0.030291
  20 C :   -0.143918
  21 H :    0.013913
  22 C :   -0.005996
  23 H :    0.023114
  24 H :    0.029055
  25 C :   -0.022716
  26 H :    0.021701
  27 H :    0.008615
  28 C :    0.021027
  29 H :    0.027387
  30 H :   -0.005841
  31 H :    0.012854
  32 H :    0.047334
  33 H :    0.038457
Sum of atomic charges:    0.0000000

LOEWDIN ATOMIC CHARGES
----------------------
   0 S :    0.415378
   1 C :   -0.202929
   2 C :   -0.063776
   3 C :   -0.058569
   4 C :   -0.188129
   5 H :    0.024552
   6 C :   -0.027557
   7 H :    0.025245
   8 H :    0.036661
   9 C :   -0.036705
  10 H :    0.018567
  11 H :    0.025035
  12 C :   -0.080749
  13 H :    0.030288
  14 H :    0.032014
  15 H :    0.026392
  16 S :    0.407900
  17 C :   -0.195668
  18 C :   -0.078732
  19 C :   -0.055716
  20 C :   -0.179681
  21 H :    0.031618
  22 C :   -0.032733
  23 H :    0.032425
  24 H :    0.029691
  25 C :   -0.043492
  26 H :    0.022988
  27 H :    0.023163
  28 C :   -0.056539
  29 H :    0.032466
  30 H :    0.015835
  31 H :    0.020706
  32 H :    0.026810
  33 H :    0.023241

  Mayer bond orders larger than 0.100000
B(  0-S ,  1-C ) :   1.1507 B(  0-S ,  4-C ) :   1.1471 B(  1-C ,  2-C ) :   1.6136
B(  1-C , 32-H ) :   0.9604 B(  2-C ,  3-C ) :   1.2386 B(  2-C ,  6-C ) :   1.0388
B(  3-C ,  4-C ) :   1.5615 B(  3-C ,  5-H ) :   0.9909 B(  4-C , 20-C ) :   1.0653
B(  6-C ,  7-H ) :   0.9449 B(  6-C ,  8-H ) :   0.9376 B(  6-C ,  9-C ) :   1.0732
B(  9-C , 10-H ) :   0.9588 B(  9-C , 11-H ) :   0.9672 B(  9-C , 12-C ) :   1.0463
B( 12-C , 13-H ) :   0.9810 B( 12-C , 14-H ) :   0.9783 B( 12-C , 15-H ) :   0.9765
B( 16-S , 17-C ) :   1.1649 B( 16-S , 20-C ) :   1.1388 B( 17-C , 18-C ) :   1.5820
B( 17-C , 33-H ) :   0.9735 B( 18-C , 19-C ) :   1.2811 B( 18-C , 21-H ) :   0.9858
B( 19-C , 20-C ) :   1.5681 B( 19-C , 22-C ) :   1.0128 B( 22-C , 23-H ) :   0.9368
B( 22-C , 24-H ) :   0.9462 B( 22-C , 25-C ) :   1.0655 B( 25-C , 26-H ) :   0.9459
B( 25-C , 27-H ) :   0.9464 B( 25-C , 28-C ) :   1.0788 B( 28-C , 29-H ) :   0.9688
B( 28-C , 30-H ) :   0.9648 B( 28-C , 31-H ) :   0.9684

Dispersion correction           -0.014208108
FINAL SINGLE POINT ENERGY     -1339.868081599315

DIPOLE MOMENT
-------------
                                X             Y             Z
Electronic contribution:      6.13240     -30.46861      -6.55256
Nuclear contribution   :     -5.98930      31.24801       6.57650
                        -----------------------------------------
Total Dipole Moment    :      0.14310       0.77940       0.02394
                        -----------------------------------------
Magnitude (a.u.)       :      0.79278
Magnitude (Debye)      :      2.01510

Rotational constants in cm-1:     0.017281     0.009709     0.006768
Rotational constants in MHz :   518.068381   291.081620   202.905061

                             ****ORCA TERMINATED NORMALLY****
TOTAL RUN TIME: 0 days 0 hours 0 minutes 22 seconds 150 msec
