                         Program Version 4.2.1 -  RELEASE  -
|  1> ! wB97X-D3 SP def2-SVP
|  2> %pal
|  3> nprocs 24
|  4> end
|  5>
|  6> * xyz 0 1
|  7> S 	 -117.57 	 24.6489 	 -19.4183
|  8> C 	 -116.801 	 25.7594 	 -20.4207
|  9> C 	 -116.234 	 26.8369 	 -19.7338
| 10> C 	 -116.664 	 26.8204 	 -18.3628
| 11> C 	 -117.44 	 25.7025 	 -18.0169
| 12> H 	 -116.456 	 27.5452 	 -17.5641
| 13> C 	 -115.423 	 27.9238 	 -20.3054
| 14> H 	 -114.998 	 28.3983 	 -19.4815
| 15> H 	 -116.058 	 28.6661 	 -20.6863
| 16> C 	 -114.323 	 27.5476 	 -21.3648
| 17> H 	 -113.723 	 26.6202 	 -20.996
| 18> H 	 -114.624 	 27.1771 	 -22.278
| 19> C 	 -113.429 	 28.7077 	 -21.6923
| 20> H 	 -113.107 	 29.4126 	 -20.9056
| 21> H 	 -112.55 	 28.3185 	 -22.1884
| 22> H 	 -113.964 	 29.2615 	 -22.4626
| 23> S 	 -117.877 	 23.8188 	 -16.0028
| 24> C 	 -118.376 	 24.4389 	 -14.4585
| 25> C 	 -118.961 	 25.6571 	 -14.5911
| 26> C 	 -118.813 	 26.2669 	 -15.8921
| 27> C 	 -118.079 	 25.4407 	 -16.7673
| 28> H 	 -119.431 	 26.0702 	 -13.7916
| 29> C 	 -119.276 	 27.725 	 -16.1428
| 30> H 	 -118.501 	 28.5352 	 -16.2081
| 31> H 	 -119.85 	 28.1539 	 -15.323
| 32> C 	 -120.022 	 28.0381 	 -17.477
| 33> H 	 -119.489 	 27.5123 	 -18.3583
| 34> H 	 -119.804 	 29.099 	 -17.7233
| 35> C 	 -121.491 	 27.6863 	 -17.3838
| 36> H 	 -121.642 	 26.6972 	 -17.012
| 37> H 	 -122.011 	 27.748 	 -18.319
| 38> H 	 -122.116 	 28.3473 	 -16.7632
| 39> H 	 -116.529 	 25.734 	 -21.4765
| 40> H 	 -118.277 	 24.0253 	 -13.4198
| 41> *
| 42>
| 43>                          ****END OF INPUT****

CARTESIAN COORDINATES (ANGSTROEM)
---------------------------------
  S    -117.570000   24.648900  -19.418300
  C    -116.801000   25.759400  -20.420700
  C    -116.234000   26.836900  -19.733800
  C    -116.664000   26.820400  -18.362800
  C    -117.440000   25.702500  -18.016900
  H    -116.456000   27.545200  -17.564100
  C    -115.423000   27.923800  -20.305400
  H    -114.998000   28.398300  -19.481500
  H    -116.058000   28.666100  -20.686300
  C    -114.323000   27.547600  -21.364800
  H    -113.723000   26.620200  -20.996000
  H    -114.624000   27.177100  -22.278000
  C    -113.429000   28.707700  -21.692300
  H    -113.107000   29.412600  -20.905600
  H    -112.550000   28.318500  -22.188400
  H    -113.964000   29.261500  -22.462600
  S    -117.877000   23.818800  -16.002800
  C    -118.376000   24.438900  -14.458500
  C    -118.961000   25.657100  -14.591100
  C    -118.813000   26.266900  -15.892100
  C    -118.079000   25.440700  -16.767300
  H    -119.431000   26.070200  -13.791600
  C    -119.276000   27.725000  -16.142800
  H    -118.501000   28.535200  -16.208100
  H    -119.850000   28.153900  -15.323000
  C    -120.022000   28.038100  -17.477000
  H    -119.489000   27.512300  -18.358300
  H    -119.804000   29.099000  -17.723300
  C    -121.491000   27.686300  -17.383800
  H    -121.642000   26.697200  -17.012000
  H    -122.011000   27.748000  -18.319000
  H    -122.116000   28.347300  -16.763200
  H    -116.529000   25.734000  -21.476500
  H    -118.277000   24.025300  -13.419800

 Total Charge           Charge          ....    0
 Multiplicity           Mult            ....    1
 Number of Electrons    NEL             ....  134
 Basis Dimension        Dim             ....  322

ORBITAL ENERGIES
----------------

  NO   OCC          E(Eh)            E(eV)
   0   2.0000     -88.968718     -2420.9619
   1   2.0000     -88.964571     -2420.8491
   2   2.0000     -10.332534      -281.1625
   3   2.0000     -10.328576      -281.0548
   4   2.0000     -10.318599      -280.7833
   5   2.0000     -10.313394      -280.6417
   6   2.0000     -10.308888      -280.5191
   7   2.0000     -10.298166      -280.2274
   8   2.0000     -10.297380      -280.2060
   9   2.0000     -10.297012      -280.1959
  10   2.0000     -10.290896      -280.0295
  11   2.0000     -10.289470      -279.9907
  12   2.0000     -10.285168      -279.8737
  13   2.0000     -10.284646      -279.8595
  14   2.0000     -10.278175      -279.6834
  15   2.0000     -10.266821      -279.3744
  16   2.0000      -8.084127      -219.9803
  17   2.0000      -8.078980      -219.8402
  18   2.0000      -6.042607      -164.4277
  19   2.0000      -6.038448      -164.3145
  20   2.0000      -6.037681      -164.2936
  21   2.0000      -6.034978      -164.2201
  22   2.0000      -6.033678      -164.1847
  23   2.0000      -6.029404      -164.0684
  24   2.0000      -1.006602       -27.3910
  25   2.0000      -0.984156       -26.7802
  26   2.0000      -0.916646       -24.9432
  27   2.0000      -0.900464       -24.5029
  28   2.0000      -0.873987       -23.7824
  29   2.0000      -0.858591       -23.3634
  30   2.0000      -0.843739       -22.9593
  31   2.0000      -0.814280       -22.1577
  32   2.0000      -0.785016       -21.3614
  33   2.0000      -0.772926       -21.0324
  34   2.0000      -0.715637       -19.4735
  35   2.0000      -0.705649       -19.2017
  36   2.0000      -0.684116       -18.6157
  37   2.0000      -0.661128       -17.9902
  38   2.0000      -0.637135       -17.3373
  39   2.0000      -0.614024       -16.7084
  40   2.0000      -0.595481       -16.2039
  41   2.0000      -0.574630       -15.6365
  42   2.0000      -0.566903       -15.4262
  43   2.0000      -0.546470       -14.8702
  44   2.0000      -0.530823       -14.4444
  45   2.0000      -0.527208       -14.3461
  46   2.0000      -0.519282       -14.1304
  47   2.0000      -0.510239       -13.8843
  48   2.0000      -0.506655       -13.7868
  49   2.0000      -0.503179       -13.6922
  50   2.0000      -0.486368       -13.2348
  51   2.0000      -0.481506       -13.1024
  52   2.0000      -0.475311       -12.9339
  53   2.0000      -0.470712       -12.8087
  54   2.0000      -0.460980       -12.5439
  55   2.0000      -0.455687       -12.3999
  56   2.0000      -0.440026       -11.9737
  57   2.0000      -0.432622       -11.7722
  58   2.0000      -0.430758       -11.7215
  59   2.0000      -0.423653       -11.5282
  60   2.0000      -0.415329       -11.3017
  61   2.0000      -0.412129       -11.2146
  62   2.0000      -0.407927       -11.1003
  63   2.0000      -0.351179        -9.5561
  64   2.0000      -0.330430        -8.9915
  65   2.0000      -0.326556        -8.8860
  66   2.0000      -0.282231        -7.6799
  67   0.0000       0.023971         0.6523
  68   0.0000       0.062161         1.6915
  69   0.0000       0.110120         2.9965
  70   0.0000       0.119083         3.2404
  71   0.0000       0.136218         3.7067

MULLIKEN ATOMIC CHARGES
-----------------------
   0 S :    0.136801
   1 C :   -0.095744
   2 C :   -0.126262
   3 C :    0.007721
   4 C :   -0.167190
   5 H :    0.019729
   6 C :    0.145023
   7 H :   -0.003243
   8 H :    0.025439
   9 C :   -0.096493
  10 H :    0.037077
  11 H :    0.009822
  12 C :   -0.045771
  13 H :    0.041091
  14 H :    0.030463
  15 H :    0.026421
  16 S :    0.100007
  17 C :   -0.092488
  18 C :   -0.011270
  19 C :    0.029346
  20 C :   -0.160410
  21 H :   -0.022104
  22 C :    0.019428
  23 H :    0.033341
  24 H :    0.013192
  25 C :   -0.107973
  26 H :    0.060540
  27 H :    0.022091
  28 C :   -0.014224
  29 H :    0.028660
  30 H :    0.020841
  31 H :    0.019189
  32 H :    0.042006
  33 H :    0.074945
Sum of atomic charges:   -0.0000000

LOEWDIN ATOMIC CHARGES
----------------------
   0 S :    0.436080
   1 C :   -0.225523
   2 C :   -0.064206
   3 C :   -0.060222
   4 C :   -0.202088
   5 H :    0.034499
   6 C :   -0.026854
   7 H :    0.026812
   8 H :    0.030988
   9 C :   -0.040143
  10 H :    0.031741
  11 H :    0.011288
  12 C :   -0.066397
  13 H :    0.027187
  14 H :    0.028570
  15 H :    0.026352
  16 S :    0.381583
  17 C :   -0.190630
  18 C :   -0.064388
  19 C :   -0.046880
  20 C :   -0.180302
  21 H :    0.013821
  22 C :   -0.043270
  23 H :    0.036998
  24 H :    0.028502
  25 C :   -0.048763
  26 H :    0.038515
  27 H :    0.023171
  28 C :   -0.069674
  29 H :    0.024508
  30 H :    0.022692
  31 H :    0.024408
  32 H :    0.033451
  33 H :    0.048175

  Mayer bond orders larger than 0.100000
B(  0-S ,  1-C ) :   1.1596 B(  0-S ,  4-C ) :   1.1437 B(  1-C ,  2-C ) :   1.5884
B(  1-C , 32-H ) :   0.9620 B(  2-C ,  3-C ) :   1.2547 B(  2-C ,  6-C ) :   1.0321
B(  3-C ,  4-C ) :   1.5528 B(  3-C ,  5-H ) :   0.9922 B(  4-C , 20-C ) :   1.0827
B(  6-C ,  7-H ) :   0.9295 B(  6-C ,  8-H ) :   0.9228 B(  6-C ,  9-C ) :   1.0478
B(  9-C , 10-H ) :   0.9640 B(  9-C , 11-H ) :   0.9508 B(  9-C , 12-C ) :   1.0855
B( 12-C , 13-H ) :   0.9777 B( 12-C , 14-H ) :   0.9709 B( 12-C , 15-H ) :   0.9755
B( 16-S , 17-C ) :   1.1385 B( 16-S , 20-C ) :   1.1125 B( 17-C , 18-C ) :   1.6443
B( 17-C , 33-H ) :   0.9576 B( 18-C , 19-C ) :   1.2108 B( 18-C , 21-H ) :   1.0040
B( 19-C , 20-C ) :   1.5814 B( 19-C , 22-C ) :   1.0346 B( 22-C , 23-H ) :   0.9430
B( 22-C , 24-H ) :   0.9413 B( 22-C , 25-C ) :   1.0563 B( 25-C , 26-H ) :   0.9539
B( 25-C , 27-H ) :   0.9580 B( 25-C , 28-C ) :   1.0745 B( 28-C , 29-H ) :   0.9762
B( 28-C , 30-H ) :   0.9720 B( 28-C , 31-H ) :   0.9718

Dispersion correction           -0.014421615
FINAL SINGLE POINT ENERGY     -1339.848501042020

DIPOLE MOMENT
-------------
                                X             Y             Z
Electronic contribution:     -2.71643     -23.95316      10.29786
Nuclear contribution   :      2.87174      24.71871     -10.30983
                        -----------------------------------------
Total Dipole Moment    :      0.15531       0.76555      -0.01197
                        -----------------------------------------
Magnitude (a.u.)       :      0.78123
Magnitude (Debye)      :      1.98574

Rotational constants in cm-1:     0.021064     0.007595     0.006602
Rotational constants in MHz :   631.472068   227.701655   197.924924

                             ****ORCA TERMINATED NORMALLY****
TOTAL RUN TIME: 0 days 0 hours 0 minutes 21 seconds 460 msec
