                         Program Version 4.2.1 -  RELEASE  -
|  1> ! wB97X-D3 SP def2-SVP
|  2> %pal
|  3> nprocs 24
|  4> end
|  5>
|  6> * xyz 0 1
|  7> S 	 36.5176 	 -8.10259 	 -113.431
|  8> C 	 38.0266 	 -8.0098 	 -114.421
|  9> C 	 38.1502 	 -6.74176 	 -114.997
| 10> C 	 37.1338 	 -5.87671 	 -114.549
| 11> C 	 36.2021 	 -6.38758 	 -113.655
| 12> H 	 36.9761 	 -4.78857 	 -114.861
| 13> C 	 39.3461 	 -6.37298 	 -115.945
| 14> H 	 40.2448 	 -7.10916 	 -115.897
| 15> H 	 39.5822 	 -5.40478 	 -115.505
| 16> C 	 38.8991 	 -6.31457 	 -117.407
| 17> H 	 38.7313 	 -7.29346 	 -117.869
| 18> H 	 37.9806 	 -5.7429 	 -117.376
| 19> C 	 39.9962 	 -5.62457 	 -118.26
| 20> H 	 40.0432 	 -4.52539 	 -118.102
| 21> H 	 40.9129 	 -6.04732 	 -117.992
| 22> H 	 39.864 	 -5.79082 	 -119.352
| 23> S 	 33.6303 	 -5.62192 	 -113.923
| 24> C 	 32.7711 	 -4.88333 	 -112.601
| 25> C 	 33.6811 	 -4.40853 	 -111.679
| 26> C 	 35.0598 	 -4.89273 	 -111.938
| 27> C 	 35.1158 	 -5.70464 	 -113.009
| 28> H 	 33.4326 	 -3.68704 	 -110.932
| 29> C 	 36.1149 	 -4.69123 	 -110.864
| 30> H 	 35.8198 	 -3.92603 	 -110.144
| 31> H 	 37.0243 	 -4.38297 	 -111.273
| 32> C 	 36.4632 	 -5.92101 	 -109.968
| 33> H 	 37.474 	 -5.77748 	 -109.635
| 34> H 	 36.6203 	 -6.82586 	 -110.495
| 35> C 	 35.4154 	 -5.93651 	 -108.81
| 36> H 	 34.425 	 -6.30322 	 -109.109
| 37> H 	 35.201 	 -4.95653 	 -108.379
| 38> H 	 35.9319 	 -6.6181 	 -108.079
| 39> H 	 38.572 	 -8.96389 	 -114.549
| 40> H 	 31.7659 	 -4.75278 	 -112.496
| 41> *
| 42>
| 43>                          ****END OF INPUT****

CARTESIAN COORDINATES (ANGSTROEM)
---------------------------------
  S     36.517600   -8.102590  -113.431000
  C     38.026600   -8.009800  -114.421000
  C     38.150200   -6.741760  -114.997000
  C     37.133800   -5.876710  -114.549000
  C     36.202100   -6.387580  -113.655000
  H     36.976100   -4.788570  -114.861000
  C     39.346100   -6.372980  -115.945000
  H     40.244800   -7.109160  -115.897000
  H     39.582200   -5.404780  -115.505000
  C     38.899100   -6.314570  -117.407000
  H     38.731300   -7.293460  -117.869000
  H     37.980600   -5.742900  -117.376000
  C     39.996200   -5.624570  -118.260000
  H     40.043200   -4.525390  -118.102000
  H     40.912900   -6.047320  -117.992000
  H     39.864000   -5.790820  -119.352000
  S     33.630300   -5.621920  -113.923000
  C     32.771100   -4.883330  -112.601000
  C     33.681100   -4.408530  -111.679000
  C     35.059800   -4.892730  -111.938000
  C     35.115800   -5.704640  -113.009000
  H     33.432600   -3.687040  -110.932000
  C     36.114900   -4.691230  -110.864000
  H     35.819800   -3.926030  -110.144000
  H     37.024300   -4.382970  -111.273000
  C     36.463200   -5.921010  -109.968000
  H     37.474000   -5.777480  -109.635000
  H     36.620300   -6.825860  -110.495000
  C     35.415400   -5.936510  -108.810000
  H     34.425000   -6.303220  -109.109000
  H     35.201000   -4.956530  -108.379000
  H     35.931900   -6.618100  -108.079000
  H     38.572000   -8.963890  -114.549000
  H     31.765900   -4.752780  -112.496000

 Total Charge           Charge          ....    0
 Multiplicity           Mult            ....    1
 Number of Electrons    NEL             ....  134
 Basis Dimension        Dim             ....  322

ORBITAL ENERGIES
----------------

  NO   OCC          E(Eh)            E(eV)
   0   2.0000     -88.964333     -2420.8426
   1   2.0000     -88.959538     -2420.7121
   2   2.0000     -10.329408      -281.0775
   3   2.0000     -10.323770      -280.9241
   4   2.0000     -10.319271      -280.8016
   5   2.0000     -10.311499      -280.5902
   6   2.0000     -10.309835      -280.5449
   7   2.0000     -10.306296      -280.4486
   8   2.0000     -10.303065      -280.3607
   9   2.0000     -10.302617      -280.3485
  10   2.0000     -10.294428      -280.1256
  11   2.0000     -10.288043      -279.9519
  12   2.0000     -10.282463      -279.8000
  13   2.0000     -10.279522      -279.7200
  14   2.0000     -10.279016      -279.7062
  15   2.0000     -10.278412      -279.6898
  16   2.0000      -8.078056      -219.8151
  17   2.0000      -8.074992      -219.7317
  18   2.0000      -6.036456      -164.2603
  19   2.0000      -6.033702      -164.1854
  20   2.0000      -6.032637      -164.1564
  21   2.0000      -6.029499      -164.0710
  22   2.0000      -6.029040      -164.0585
  23   2.0000      -6.025378      -163.9589
  24   2.0000      -1.006615       -27.3914
  25   2.0000      -0.980622       -26.6841
  26   2.0000      -0.910175       -24.7671
  27   2.0000      -0.904156       -24.6033
  28   2.0000      -0.871262       -23.7082
  29   2.0000      -0.843940       -22.9648
  30   2.0000      -0.840031       -22.8584
  31   2.0000      -0.811537       -22.0831
  32   2.0000      -0.778666       -21.1886
  33   2.0000      -0.770154       -20.9570
  34   2.0000      -0.711077       -19.3494
  35   2.0000      -0.698817       -19.0158
  36   2.0000      -0.694345       -18.8941
  37   2.0000      -0.668835       -18.1999
  38   2.0000      -0.643007       -17.4971
  39   2.0000      -0.616276       -16.7697
  40   2.0000      -0.594417       -16.1749
  41   2.0000      -0.566826       -15.4241
  42   2.0000      -0.561909       -15.2903
  43   2.0000      -0.550823       -14.9887
  44   2.0000      -0.536964       -14.6115
  45   2.0000      -0.523476       -14.2445
  46   2.0000      -0.519821       -14.1450
  47   2.0000      -0.513231       -13.9657
  48   2.0000      -0.506263       -13.7761
  49   2.0000      -0.493632       -13.4324
  50   2.0000      -0.486951       -13.2506
  51   2.0000      -0.480111       -13.0645
  52   2.0000      -0.473657       -12.8889
  53   2.0000      -0.467159       -12.7120
  54   2.0000      -0.460837       -12.5400
  55   2.0000      -0.444108       -12.0848
  56   2.0000      -0.440456       -11.9854
  57   2.0000      -0.437083       -11.8936
  58   2.0000      -0.430124       -11.7043
  59   2.0000      -0.428136       -11.6502
  60   2.0000      -0.411683       -11.2025
  61   2.0000      -0.410377       -11.1669
  62   2.0000      -0.404724       -11.0131
  63   2.0000      -0.334807        -9.1106
  64   2.0000      -0.323555        -8.8044
  65   2.0000      -0.319275        -8.6879
  66   2.0000      -0.315246        -8.5783
  67   0.0000       0.040180         1.0933
  68   0.0000       0.050827         1.3831
  69   0.0000       0.107069         2.9135
  70   0.0000       0.116583         3.1724
  71   0.0000       0.128809         3.5051

MULLIKEN ATOMIC CHARGES
-----------------------
   0 S :    0.094954
   1 C :   -0.161459
   2 C :   -0.051810
   3 C :    0.021440
   4 C :   -0.187214
   5 H :    0.038477
   6 C :    0.023365
   7 H :    0.046252
   8 H :    0.037471
   9 C :   -0.065518
  10 H :    0.038766
  11 H :    0.029347
  12 C :   -0.041290
  13 H :    0.037103
  14 H :    0.013420
  15 H :    0.039006
  16 S :    0.105677
  17 C :   -0.040371
  18 C :   -0.042597
  19 C :    0.010723
  20 C :   -0.186608
  21 H :    0.015788
  22 C :    0.081826
  23 H :    0.009105
  24 H :    0.005151
  25 C :   -0.038146
  26 H :    0.012757
  27 H :    0.013551
  28 C :   -0.066716
  29 H :    0.045538
  30 H :    0.025464
  31 H :    0.043823
  32 H :    0.070578
  33 H :    0.022148
Sum of atomic charges:   -0.0000000

LOEWDIN ATOMIC CHARGES
----------------------
   0 S :    0.383374
   1 C :   -0.180750
   2 C :   -0.066852
   3 C :   -0.073085
   4 C :   -0.200168
   5 H :    0.044207
   6 C :   -0.028444
   7 H :    0.039358
   8 H :    0.032124
   9 C :   -0.039790
  10 H :    0.028982
  11 H :    0.022781
  12 C :   -0.065078
  13 H :    0.028267
  14 H :    0.013544
  15 H :    0.029363
  16 S :    0.404878
  17 C :   -0.166844
  18 C :   -0.065212
  19 C :   -0.045960
  20 C :   -0.207693
  21 H :    0.025701
  22 C :   -0.026883
  23 H :    0.028016
  24 H :    0.020221
  25 C :   -0.030770
  26 H :    0.021925
  27 H :    0.015458
  28 C :   -0.067819
  29 H :    0.028004
  30 H :    0.020972
  31 H :    0.033032
  32 H :    0.033031
  33 H :    0.012111

  Mayer bond orders larger than 0.100000
B(  0-S ,  1-C ) :   1.1466 B(  0-S ,  4-C ) :   1.1507 B(  1-C ,  2-C ) :   1.5843
B(  1-C ,  4-C ) :   0.1127 B(  1-C , 32-H ) :   0.9718 B(  2-C ,  3-C ) :   1.2496
B(  2-C ,  6-C ) :   0.9892 B(  3-C ,  4-C ) :   1.5954 B(  3-C ,  5-H ) :   0.9785
B(  4-C , 20-C ) :   1.0148 B(  6-C ,  7-H ) :   0.9479 B(  6-C ,  8-H ) :   0.9469
B(  6-C ,  9-C ) :   1.0629 B(  9-C , 10-H ) :   0.9559 B(  9-C , 11-H ) :   0.9602
B(  9-C , 12-C ) :   1.0755 B( 12-C , 13-H ) :   0.9776 B( 12-C , 14-H ) :   0.9720
B( 12-C , 15-H ) :   0.9767 B( 16-S , 17-C ) :   1.1431 B( 16-S , 20-C ) :   1.1306
B( 17-C , 18-C ) :   1.6317 B( 17-C , 33-H ) :   0.9818 B( 18-C , 19-C ) :   1.1960
B( 18-C , 21-H ) :   0.9903 B( 19-C , 20-C ) :   1.6430 B( 19-C , 22-C ) :   1.0650
B( 22-C , 23-H ) :   0.9419 B( 22-C , 24-H ) :   0.9219 B( 22-C , 25-C ) :   1.0779
B( 25-C , 26-H ) :   0.9558 B( 25-C , 27-H ) :   0.9531 B( 25-C , 28-C ) :   1.0584
B( 28-C , 29-H ) :   0.9781 B( 28-C , 30-H ) :   0.9775 B( 28-C , 31-H ) :   0.9766

Dispersion correction           -0.014414376
FINAL SINGLE POINT ENERGY     -1339.854111592633

DIPOLE MOMENT
-------------
                                X             Y             Z
Electronic contribution:    -16.53296      -6.10054      -0.88102
Nuclear contribution   :     16.95699       6.40464       0.88018
                        -----------------------------------------
Total Dipole Moment    :      0.42403       0.30410      -0.00084
                        -----------------------------------------
Magnitude (a.u.)       :      0.52180
Magnitude (Debye)      :      1.32632

Rotational constants in cm-1:     0.022330     0.007369     0.006569
Rotational constants in MHz :   669.429310   220.906424   196.931130

                             ****ORCA TERMINATED NORMALLY****
TOTAL RUN TIME: 0 days 0 hours 0 minutes 20 seconds 91 msec
