                         Program Version 4.2.1 -  RELEASE  -
|  1> ! wB97X-D3 SP def2-SVP
|  2> %pal
|  3> nprocs 24
|  4> end
|  5>
|  6> * xyz 0 1
|  7> S 	 39.5707 	 -25.3879 	 -119.68
|  8> C 	 37.8533 	 -25.5276 	 -119.377
|  9> C 	 37.1858 	 -26.3425 	 -120.317
| 10> C 	 38.1373 	 -26.7973 	 -121.319
| 11> C 	 39.4689 	 -26.4943 	 -121.025
| 12> H 	 37.9533 	 -27.3697 	 -122.225
| 13> C 	 35.7226 	 -26.7325 	 -120.282
| 14> H 	 35.2179 	 -26.5293 	 -119.359
| 15> H 	 35.6631 	 -27.7604 	 -120.316
| 16> C 	 34.8536 	 -26.1931 	 -121.395
| 17> H 	 35.1165 	 -26.6967 	 -122.288
| 18> H 	 33.8699 	 -26.4615 	 -121.16
| 19> C 	 34.8607 	 -24.6541 	 -121.451
| 20> H 	 34.28 	 -24.3053 	 -122.27
| 21> H 	 34.5679 	 -24.1879 	 -120.52
| 22> H 	 35.8461 	 -24.3538 	 -121.706
| 23> S 	 41.3532 	 -25.7285 	 -122.882
| 24> C 	 42.5831 	 -26.8937 	 -123.43
| 25> C 	 42.4388 	 -28.0568 	 -122.74
| 26> C 	 41.3577 	 -28.0952 	 -121.809
| 27> C 	 40.6668 	 -26.8653 	 -121.756
| 28> H 	 43.0658 	 -28.9014 	 -122.989
| 29> C 	 41.0687 	 -29.3612 	 -120.973
| 30> H 	 40.1691 	 -29.223 	 -120.352
| 31> H 	 41.9252 	 -29.5515 	 -120.313
| 32> C 	 40.7664 	 -30.6087 	 -121.774
| 33> H 	 41.5323 	 -30.8852 	 -122.525
| 34> H 	 39.8117 	 -30.4227 	 -122.348
| 35> C 	 40.3874 	 -31.7852 	 -120.864
| 36> H 	 39.745 	 -31.3943 	 -120.009
| 37> H 	 41.2404 	 -32.2201 	 -120.314
| 38> H 	 39.8456 	 -32.5457 	 -121.421
| 39> H 	 37.3048 	 -25.1356 	 -118.474
| 40> H 	 43.3046 	 -26.6836 	 -124.221
| 41> *
| 42>
| 43>                          ****END OF INPUT****

CARTESIAN COORDINATES (ANGSTROEM)
---------------------------------
  S     39.570700  -25.387900  -119.680000
  C     37.853300  -25.527600  -119.377000
  C     37.185800  -26.342500  -120.317000
  C     38.137300  -26.797300  -121.319000
  C     39.468900  -26.494300  -121.025000
  H     37.953300  -27.369700  -122.225000
  C     35.722600  -26.732500  -120.282000
  H     35.217900  -26.529300  -119.359000
  H     35.663100  -27.760400  -120.316000
  C     34.853600  -26.193100  -121.395000
  H     35.116500  -26.696700  -122.288000
  H     33.869900  -26.461500  -121.160000
  C     34.860700  -24.654100  -121.451000
  H     34.280000  -24.305300  -122.270000
  H     34.567900  -24.187900  -120.520000
  H     35.846100  -24.353800  -121.706000
  S     41.353200  -25.728500  -122.882000
  C     42.583100  -26.893700  -123.430000
  C     42.438800  -28.056800  -122.740000
  C     41.357700  -28.095200  -121.809000
  C     40.666800  -26.865300  -121.756000
  H     43.065800  -28.901400  -122.989000
  C     41.068700  -29.361200  -120.973000
  H     40.169100  -29.223000  -120.352000
  H     41.925200  -29.551500  -120.313000
  C     40.766400  -30.608700  -121.774000
  H     41.532300  -30.885200  -122.525000
  H     39.811700  -30.422700  -122.348000
  C     40.387400  -31.785200  -120.864000
  H     39.745000  -31.394300  -120.009000
  H     41.240400  -32.220100  -120.314000
  H     39.845600  -32.545700  -121.421000
  H     37.304800  -25.135600  -118.474000
  H     43.304600  -26.683600  -124.221000

 Total Charge           Charge          ....    0
 Multiplicity           Mult            ....    1
 Number of Electrons    NEL             ....  134
 Basis Dimension        Dim             ....  322

ORBITAL ENERGIES
----------------

  NO   OCC          E(Eh)            E(eV)
   0   2.0000     -88.966695     -2420.9068
   1   2.0000     -88.963461     -2420.8189
   2   2.0000     -10.328492      -281.0525
   3   2.0000     -10.327242      -281.0186
   4   2.0000     -10.319954      -280.8202
   5   2.0000     -10.319861      -280.8177
   6   2.0000     -10.307711      -280.4871
   7   2.0000     -10.307342      -280.4770
   8   2.0000     -10.299923      -280.2752
   9   2.0000     -10.293626      -280.1038
  10   2.0000     -10.292366      -280.0695
  11   2.0000     -10.290186      -280.0102
  12   2.0000     -10.283557      -279.8298
  13   2.0000     -10.282441      -279.7994
  14   2.0000     -10.275816      -279.6192
  15   2.0000     -10.266136      -279.3558
  16   2.0000      -8.081397      -219.9060
  17   2.0000      -8.078066      -219.8153
  18   2.0000      -6.039854      -164.3528
  19   2.0000      -6.036586      -164.2639
  20   2.0000      -6.035844      -164.2437
  21   2.0000      -6.032503      -164.1528
  22   2.0000      -6.032274      -164.1465
  23   2.0000      -6.028897      -164.0546
  24   2.0000      -1.002799       -27.2876
  25   2.0000      -0.979702       -26.6590
  26   2.0000      -0.917930       -24.9782
  27   2.0000      -0.908657       -24.7258
  28   2.0000      -0.868514       -23.6335
  29   2.0000      -0.845102       -22.9964
  30   2.0000      -0.843960       -22.9653
  31   2.0000      -0.812507       -22.1094
  32   2.0000      -0.787582       -21.4312
  33   2.0000      -0.769377       -20.9358
  34   2.0000      -0.709071       -19.2948
  35   2.0000      -0.693537       -18.8721
  36   2.0000      -0.690581       -18.7917
  37   2.0000      -0.655102       -17.8262
  38   2.0000      -0.641592       -17.4586
  39   2.0000      -0.618492       -16.8300
  40   2.0000      -0.600278       -16.3344
  41   2.0000      -0.568742       -15.4763
  42   2.0000      -0.563655       -15.3378
  43   2.0000      -0.560133       -15.2420
  44   2.0000      -0.543840       -14.7986
  45   2.0000      -0.526296       -14.3212
  46   2.0000      -0.512817       -13.9545
  47   2.0000      -0.509897       -13.8750
  48   2.0000      -0.508653       -13.8412
  49   2.0000      -0.490753       -13.3541
  50   2.0000      -0.489740       -13.3265
  51   2.0000      -0.477524       -12.9941
  52   2.0000      -0.466581       -12.6963
  53   2.0000      -0.464309       -12.6345
  54   2.0000      -0.456500       -12.4220
  55   2.0000      -0.447180       -12.1684
  56   2.0000      -0.441596       -12.0164
  57   2.0000      -0.437161       -11.8958
  58   2.0000      -0.435235       -11.8433
  59   2.0000      -0.429482       -11.6868
  60   2.0000      -0.421004       -11.4561
  61   2.0000      -0.418279       -11.3819
  62   2.0000      -0.412474       -11.2240
  63   2.0000      -0.339293        -9.2326
  64   2.0000      -0.328093        -8.9279
  65   2.0000      -0.321648        -8.7525
  66   2.0000      -0.305526        -8.3138
  67   0.0000       0.043911         1.1949
  68   0.0000       0.053261         1.4493
  69   0.0000       0.120283         3.2731
  70   0.0000       0.124201         3.3797
  71   0.0000       0.127915         3.4807

MULLIKEN ATOMIC CHARGES
-----------------------
   0 S :    0.123990
   1 C :   -0.132167
   2 C :   -0.104276
   3 C :    0.051259
   4 C :   -0.201306
   5 H :    0.016923
   6 C :    0.109225
   7 H :    0.002466
   8 H :    0.008198
   9 C :   -0.051728
  10 H :    0.019104
  11 H :    0.011123
  12 C :   -0.018627
  13 H :    0.022703
  14 H :    0.027085
  15 H :    0.027374
  16 S :    0.104989
  17 C :   -0.102207
  18 C :   -0.024363
  19 C :   -0.003072
  20 C :   -0.178132
  21 H :    0.019138
  22 C :    0.069431
  23 H :    0.030906
  24 H :    0.039001
  25 C :   -0.117235
  26 H :    0.038681
  27 H :    0.032763
  28 C :   -0.057334
  29 H :    0.028668
  30 H :    0.032342
  31 H :    0.043263
  32 H :    0.066378
  33 H :    0.065440
Sum of atomic charges:    0.0000000

LOEWDIN ATOMIC CHARGES
----------------------
   0 S :    0.413866
   1 C :   -0.209144
   2 C :   -0.058571
   3 C :   -0.056659
   4 C :   -0.205182
   5 H :    0.032549
   6 C :   -0.027253
   7 H :    0.027022
   8 H :    0.023726
   9 C :   -0.027923
  10 H :    0.017317
  11 H :    0.017584
  12 C :   -0.054961
  13 H :    0.022299
  14 H :    0.024610
  15 H :    0.021973
  16 S :    0.398502
  17 C :   -0.174281
  18 C :   -0.074045
  19 C :   -0.050039
  20 C :   -0.213885
  21 H :    0.031287
  22 C :   -0.032615
  23 H :    0.033918
  24 H :    0.033348
  25 C :   -0.050159
  26 H :    0.022262
  27 H :    0.030421
  28 C :   -0.070963
  29 H :    0.031194
  30 H :    0.023862
  31 H :    0.026272
  32 H :    0.039351
  33 H :    0.034317

  Mayer bond orders larger than 0.100000
B(  0-S ,  1-C ) :   1.1482 B(  0-S ,  4-C ) :   1.1555 B(  1-C ,  2-C ) :   1.6103
B(  1-C , 32-H ) :   0.9574 B(  2-C ,  3-C ) :   1.2155 B(  2-C ,  6-C ) :   1.0270
B(  3-C ,  4-C ) :   1.6002 B(  3-C ,  5-H ) :   0.9913 B(  4-C , 20-C ) :   1.0144
B(  6-C ,  7-H ) :   0.9375 B(  6-C ,  8-H ) :   0.9304 B(  6-C ,  9-C ) :   1.0870
B(  9-C , 10-H ) :   0.9564 B(  9-C , 11-H ) :   0.9520 B(  9-C , 12-C ) :   1.0775
B( 12-C , 13-H ) :   0.9730 B( 12-C , 14-H ) :   0.9754 B( 12-C , 15-H ) :   0.9732
B( 16-S , 17-C ) :   1.1452 B( 16-S , 20-C ) :   1.1561 B( 17-C , 18-C ) :   1.6139
B( 17-C , 33-H ) :   0.9686 B( 18-C , 19-C ) :   1.2413 B( 18-C , 21-H ) :   0.9886
B( 19-C , 20-C ) :   1.5906 B( 19-C , 22-C ) :   1.0404 B( 22-C , 23-H ) :   0.9308
B( 22-C , 24-H ) :   0.9392 B( 22-C , 25-C ) :   1.0650 B( 25-C , 26-H ) :   0.9548
B( 25-C , 27-H ) :   0.9531 B( 25-C , 28-C ) :   1.0823 B( 28-C , 29-H ) :   0.9700
B( 28-C , 30-H ) :   0.9731 B( 28-C , 31-H ) :   0.9762

Dispersion correction           -0.014100889
FINAL SINGLE POINT ENERGY     -1339.887196575832

DIPOLE MOMENT
-------------
                                X             Y             Z
Electronic contribution:     17.19116      16.74448      -0.77292
Nuclear contribution   :    -17.52054     -17.33851       0.68243
                        -----------------------------------------
Total Dipole Moment    :     -0.32938      -0.59403      -0.09049
                        -----------------------------------------
Magnitude (a.u.)       :      0.68524
Magnitude (Debye)      :      1.74175

Rotational constants in cm-1:     0.017906     0.008296     0.006793
Rotational constants in MHz :   536.817476   248.703796   203.643526

                             ****ORCA TERMINATED NORMALLY****
TOTAL RUN TIME: 0 days 0 hours 0 minutes 21 seconds 250 msec
