                         Program Version 4.2.1 -  RELEASE  -
|  1> ! wB97X-D3 SP def2-SVP
|  2> %pal
|  3> nprocs 24
|  4> end
|  5>
|  6> * xyz 0 1
|  7> S 	 -38.7944 	 -43.6228 	 -74.4093
|  8> C 	 -40.3614 	 -42.8509 	 -74.021
|  9> C 	 -40.5292 	 -41.6994 	 -74.7791
| 10> C 	 -39.4517 	 -41.5728 	 -75.7382
| 11> C 	 -38.4118 	 -42.4634 	 -75.5827
| 12> H 	 -39.4241 	 -40.7921 	 -76.4689
| 13> C 	 -41.7276 	 -40.722 	 -74.6706
| 14> H 	 -41.9277 	 -40.5966 	 -75.7564
| 15> H 	 -41.3537 	 -39.7746 	 -74.2852
| 16> C 	 -43.015 	 -41.2147 	 -74.0576
| 17> H 	 -43.3578 	 -42.1833 	 -74.4656
| 18> H 	 -42.9157 	 -41.4122 	 -73.0366
| 19> C 	 -44.1169 	 -40.1664 	 -74.0405
| 20> H 	 -45.0541 	 -40.5342 	 -73.6732
| 21> H 	 -43.818 	 -39.3093 	 -73.4723
| 22> H 	 -44.2798 	 -39.7925 	 -75.0578
| 23> S 	 -35.7027 	 -42.4606 	 -75.2677
| 24> C 	 -34.7007 	 -42.4026 	 -76.7032
| 25> C 	 -35.3907 	 -42.1368 	 -77.8312
| 26> C 	 -36.7861 	 -42.1899 	 -77.6282
| 27> C 	 -37.0993 	 -42.4132 	 -76.3074
| 28> H 	 -34.769 	 -41.9752 	 -78.7061
| 29> C 	 -37.6415 	 -41.824 	 -78.8184
| 30> H 	 -37.5657 	 -40.7279 	 -79.0258
| 31> H 	 -38.7158 	 -42.0083 	 -78.6344
| 32> C 	 -37.3627 	 -42.7275 	 -80.1254
| 33> H 	 -37.7799 	 -43.697 	 -79.9842
| 34> H 	 -36.2943 	 -42.9159 	 -80.2381
| 35> C 	 -37.9674 	 -42.0564 	 -81.4438
| 36> H 	 -39.0718 	 -42.1288 	 -81.4703
| 37> H 	 -37.5881 	 -42.6003 	 -82.3404
| 38> H 	 -37.5795 	 -41.0468 	 -81.5606
| 39> H 	 -40.9803 	 -43.298 	 -73.3681
| 40> H 	 -33.618 	 -42.5131 	 -76.7086
| 41> *
| 42>
| 43>                          ****END OF INPUT****

CARTESIAN COORDINATES (ANGSTROEM)
---------------------------------
  S    -38.794400  -43.622800  -74.409300
  C    -40.361400  -42.850900  -74.021000
  C    -40.529200  -41.699400  -74.779100
  C    -39.451700  -41.572800  -75.738200
  C    -38.411800  -42.463400  -75.582700
  H    -39.424100  -40.792100  -76.468900
  C    -41.727600  -40.722000  -74.670600
  H    -41.927700  -40.596600  -75.756400
  H    -41.353700  -39.774600  -74.285200
  C    -43.015000  -41.214700  -74.057600
  H    -43.357800  -42.183300  -74.465600
  H    -42.915700  -41.412200  -73.036600
  C    -44.116900  -40.166400  -74.040500
  H    -45.054100  -40.534200  -73.673200
  H    -43.818000  -39.309300  -73.472300
  H    -44.279800  -39.792500  -75.057800
  S    -35.702700  -42.460600  -75.267700
  C    -34.700700  -42.402600  -76.703200
  C    -35.390700  -42.136800  -77.831200
  C    -36.786100  -42.189900  -77.628200
  C    -37.099300  -42.413200  -76.307400
  H    -34.769000  -41.975200  -78.706100
  C    -37.641500  -41.824000  -78.818400
  H    -37.565700  -40.727900  -79.025800
  H    -38.715800  -42.008300  -78.634400
  C    -37.362700  -42.727500  -80.125400
  H    -37.779900  -43.697000  -79.984200
  H    -36.294300  -42.915900  -80.238100
  C    -37.967400  -42.056400  -81.443800
  H    -39.071800  -42.128800  -81.470300
  H    -37.588100  -42.600300  -82.340400
  H    -37.579500  -41.046800  -81.560600
  H    -40.980300  -43.298000  -73.368100
  H    -33.618000  -42.513100  -76.708600

 Total Charge           Charge          ....    0
 Multiplicity           Mult            ....    1
 Number of Electrons    NEL             ....  134
 Basis Dimension        Dim             ....  322

ORBITAL ENERGIES
----------------

  NO   OCC          E(Eh)            E(eV)
   0   2.0000     -88.964827     -2420.8560
   1   2.0000     -88.961749     -2420.7723
   2   2.0000     -10.328471      -281.0520
   3   2.0000     -10.327060      -281.0136
   4   2.0000     -10.310629      -280.5665
   5   2.0000     -10.308050      -280.4963
   6   2.0000     -10.306672      -280.4588
   7   2.0000     -10.301404      -280.3155
   8   2.0000     -10.299463      -280.2626
   9   2.0000     -10.299317      -280.2587
  10   2.0000     -10.291776      -280.0535
  11   2.0000     -10.290500      -280.0187
  12   2.0000     -10.287044      -279.9247
  13   2.0000     -10.286655      -279.9141
  14   2.0000     -10.283937      -279.8402
  15   2.0000     -10.275810      -279.6190
  16   2.0000      -8.079945      -219.8665
  17   2.0000      -8.077140      -219.7902
  18   2.0000      -6.038420      -164.3137
  19   2.0000      -6.035608      -164.2372
  20   2.0000      -6.034607      -164.2100
  21   2.0000      -6.031481      -164.1249
  22   2.0000      -6.030514      -164.0986
  23   2.0000      -6.027986      -164.0298
  24   2.0000      -1.009122       -27.4596
  25   2.0000      -0.986384       -26.8409
  26   2.0000      -0.916380       -24.9360
  27   2.0000      -0.896668       -24.3996
  28   2.0000      -0.869331       -23.6557
  29   2.0000      -0.847722       -23.0677
  30   2.0000      -0.845317       -23.0023
  31   2.0000      -0.814665       -22.1682
  32   2.0000      -0.783248       -21.3132
  33   2.0000      -0.770530       -20.9672
  34   2.0000      -0.712800       -19.3963
  35   2.0000      -0.704336       -19.1660
  36   2.0000      -0.691348       -18.8125
  37   2.0000      -0.659370       -17.9424
  38   2.0000      -0.646025       -17.5792
  39   2.0000      -0.616373       -16.7724
  40   2.0000      -0.596234       -16.2244
  41   2.0000      -0.574999       -15.6465
  42   2.0000      -0.569668       -15.5014
  43   2.0000      -0.553583       -15.0638
  44   2.0000      -0.530494       -14.4355
  45   2.0000      -0.522308       -14.2127
  46   2.0000      -0.517576       -14.0839
  47   2.0000      -0.507829       -13.8187
  48   2.0000      -0.505150       -13.7458
  49   2.0000      -0.494890       -13.4666
  50   2.0000      -0.491252       -13.3677
  51   2.0000      -0.481085       -13.0910
  52   2.0000      -0.469597       -12.7784
  53   2.0000      -0.461688       -12.5632
  54   2.0000      -0.456403       -12.4194
  55   2.0000      -0.450396       -12.2559
  56   2.0000      -0.447133       -12.1671
  57   2.0000      -0.443793       -12.0762
  58   2.0000      -0.438714       -11.9380
  59   2.0000      -0.426112       -11.5951
  60   2.0000      -0.425238       -11.5713
  61   2.0000      -0.414207       -11.2711
  62   2.0000      -0.410814       -11.1788
  63   2.0000      -0.346332        -9.4242
  64   2.0000      -0.332260        -9.0412
  65   2.0000      -0.326048        -8.8722
  66   2.0000      -0.294025        -8.0008
  67   0.0000       0.036326         0.9885
  68   0.0000       0.077824         2.1177
  69   0.0000       0.108430         2.9505
  70   0.0000       0.123576         3.3627
  71   0.0000       0.133524         3.6334

MULLIKEN ATOMIC CHARGES
-----------------------
   0 S :    0.099116
   1 C :   -0.104426
   2 C :   -0.078239
   3 C :    0.023426
   4 C :   -0.128866
   5 H :   -0.004298
   6 C :    0.061816
   7 H :    0.032628
   8 H :    0.045624
   9 C :   -0.066091
  10 H :    0.030872
  11 H :    0.015327
  12 C :   -0.021184
  13 H :    0.030847
  14 H :    0.023389
  15 H :    0.017497
  16 S :    0.108673
  17 C :   -0.094738
  18 C :   -0.046486
  19 C :    0.001141
  20 C :   -0.151941
  21 H :    0.025963
  22 C :    0.024832
  23 H :    0.052499
  24 H :    0.028122
  25 C :   -0.088871
  26 H :    0.031512
  27 H :    0.029193
  28 C :   -0.070141
  29 H :    0.046722
  30 H :    0.036463
  31 H :    0.035807
  32 H :    0.003408
  33 H :    0.050402
Sum of atomic charges:   -0.0000000

LOEWDIN ATOMIC CHARGES
----------------------
   0 S :    0.409443
   1 C :   -0.171550
   2 C :   -0.052473
   3 C :   -0.069510
   4 C :   -0.210776
   5 H :    0.022696
   6 C :   -0.029455
   7 H :    0.038649
   8 H :    0.035623
   9 C :   -0.045140
  10 H :    0.029282
  11 H :    0.016288
  12 C :   -0.054281
  13 H :    0.024776
  14 H :    0.022668
  15 H :    0.021839
  16 S :    0.403952
  17 C :   -0.179920
  18 C :   -0.071844
  19 C :   -0.064399
  20 C :   -0.190729
  21 H :    0.037098
  22 C :   -0.035992
  23 H :    0.037036
  24 H :    0.029763
  25 C :   -0.032565
  26 H :    0.021906
  27 H :    0.018241
  28 C :   -0.070120
  29 H :    0.028496
  30 H :    0.030120
  31 H :    0.023431
  32 H :   -0.000613
  33 H :    0.028060

  Mayer bond orders larger than 0.100000
B(  0-S ,  1-C ) :   1.1271 B(  0-S ,  4-C ) :   1.1727 B(  1-C ,  2-C ) :   1.5955
B(  1-C , 32-H ) :   0.9918 B(  2-C ,  3-C ) :   1.2520 B(  2-C ,  6-C ) :   0.9909
B(  3-C ,  4-C ) :   1.5676 B(  3-C ,  5-H ) :   0.9991 B(  4-C , 20-C ) :   0.9938
B(  6-C ,  7-H ) :   0.9422 B(  6-C ,  8-H ) :   0.9384 B(  6-C ,  9-C ) :   1.0834
B(  9-C , 10-H ) :   0.9530 B(  9-C , 11-H ) :   0.9446 B(  9-C , 12-C ) :   1.0891
B( 12-C , 13-H ) :   0.9726 B( 12-C , 14-H ) :   0.9739 B( 12-C , 15-H ) :   0.9755
B( 16-S , 17-C ) :   1.1371 B( 16-S , 20-C ) :   1.1501 B( 17-C , 18-C ) :   1.6626
B( 17-C , 33-H ) :   0.9633 B( 18-C , 19-C ) :   1.1951 B( 18-C , 21-H ) :   0.9883
B( 19-C , 20-C ) :   1.6322 B( 19-C , 22-C ) :   1.0502 B( 22-C , 23-H ) :   0.9474
B( 22-C , 24-H ) :   0.9346 B( 22-C , 25-C ) :   1.0340 B( 25-C , 26-H ) :   0.9579
B( 25-C , 27-H ) :   0.9674 B( 25-C , 28-C ) :   1.0700 B( 28-C , 29-H ) :   0.9781
B( 28-C , 30-H ) :   0.9758 B( 28-C , 31-H ) :   0.9786

Dispersion correction           -0.013107919
FINAL SINGLE POINT ENERGY     -1339.873019257262

DIPOLE MOMENT
-------------
                                X             Y             Z
Electronic contribution:     20.75281     -10.47041      16.03127
Nuclear contribution   :    -21.07673      10.85741     -16.44731
                        -----------------------------------------
Total Dipole Moment    :     -0.32393       0.38700      -0.41604
                        -----------------------------------------
Magnitude (a.u.)       :      0.65406
Magnitude (Debye)      :      1.66249

Rotational constants in cm-1:     0.018799     0.007195     0.005637
Rotational constants in MHz :   563.577540   215.686762   168.997618

                             ****ORCA TERMINATED NORMALLY****
TOTAL RUN TIME: 0 days 0 hours 0 minutes 21 seconds 631 msec
