                         Program Version 4.2.1 -  RELEASE  -
|  1> ! wB97X-D3 SP def2-SVP
|  2> %pal
|  3> nprocs 24
|  4> end
|  5>
|  6> * xyz 0 1
|  7> S 	 -100.866 	 -1.45665 	 -108.069
|  8> C 	 -99.5199 	 -1.75041 	 -109.164
|  9> C 	 -99.527 	 -3.05451 	 -109.594
| 10> C 	 -100.627 	 -3.81741 	 -109.054
| 11> C 	 -101.347 	 -3.11758 	 -108.141
| 12> H 	 -101.036 	 -4.73459 	 -109.359
| 13> C 	 -98.7812 	 -3.62811 	 -110.718
| 14> H 	 -98.8382 	 -2.86412 	 -111.534
| 15> H 	 -99.2671 	 -4.52064 	 -111.091
| 16> C 	 -97.2539 	 -3.92526 	 -110.592
| 17> H 	 -97.0666 	 -4.60115 	 -109.752
| 18> H 	 -96.9887 	 -4.27748 	 -111.536
| 19> C 	 -96.5422 	 -2.5622 	 -110.392
| 20> H 	 -96.896 	 -1.88109 	 -111.169
| 21> H 	 -96.7435 	 -2.00236 	 -109.456
| 22> H 	 -95.4701 	 -2.47355 	 -110.372
| 23> S 	 -104.065 	 -2.80128 	 -107.698
| 24> C 	 -104.921 	 -3.96064 	 -106.744
| 25> C 	 -104.181 	 -4.99477 	 -106.348
| 26> C 	 -102.801 	 -4.89802 	 -106.846
| 27> C 	 -102.532 	 -3.67 	 -107.495
| 28> H 	 -104.598 	 -5.72676 	 -105.735
| 29> C 	 -101.749 	 -5.94112 	 -106.542
| 30> H 	 -101.3 	 -6.25093 	 -107.468
| 31> H 	 -102.251 	 -6.84097 	 -106.13
| 32> C 	 -100.698 	 -5.50253 	 -105.476
| 33> H 	 -101.247 	 -5.36349 	 -104.561
| 34> H 	 -100.225 	 -4.59991 	 -105.751
| 35> C 	 -99.6866 	 -6.63732 	 -105.214
| 36> H 	 -100.18 	 -7.56792 	 -104.9
| 37> H 	 -99.0366 	 -6.3129 	 -104.454
| 38> H 	 -99.0681 	 -6.86729 	 -106.052
| 39> H 	 -98.9266 	 -0.979951 	 -109.646
| 40> H 	 -105.892 	 -3.73845 	 -106.497
| 41> *
| 42>
| 43>                          ****END OF INPUT****

CARTESIAN COORDINATES (ANGSTROEM)
---------------------------------
  S    -100.866000   -1.456650  -108.069000
  C    -99.519900   -1.750410  -109.164000
  C    -99.527000   -3.054510  -109.594000
  C    -100.627000   -3.817410  -109.054000
  C    -101.347000   -3.117580  -108.141000
  H    -101.036000   -4.734590  -109.359000
  C    -98.781200   -3.628110  -110.718000
  H    -98.838200   -2.864120  -111.534000
  H    -99.267100   -4.520640  -111.091000
  C    -97.253900   -3.925260  -110.592000
  H    -97.066600   -4.601150  -109.752000
  H    -96.988700   -4.277480  -111.536000
  C    -96.542200   -2.562200  -110.392000
  H    -96.896000   -1.881090  -111.169000
  H    -96.743500   -2.002360  -109.456000
  H    -95.470100   -2.473550  -110.372000
  S    -104.065000   -2.801280  -107.698000
  C    -104.921000   -3.960640  -106.744000
  C    -104.181000   -4.994770  -106.348000
  C    -102.801000   -4.898020  -106.846000
  C    -102.532000   -3.670000  -107.495000
  H    -104.598000   -5.726760  -105.735000
  C    -101.749000   -5.941120  -106.542000
  H    -101.300000   -6.250930  -107.468000
  H    -102.251000   -6.840970  -106.130000
  C    -100.698000   -5.502530  -105.476000
  H    -101.247000   -5.363490  -104.561000
  H    -100.225000   -4.599910  -105.751000
  C    -99.686600   -6.637320  -105.214000
  H    -100.180000   -7.567920  -104.900000
  H    -99.036600   -6.312900  -104.454000
  H    -99.068100   -6.867290  -106.052000
  H    -98.926600   -0.979951  -109.646000
  H    -105.892000   -3.738450  -106.497000

 Total Charge           Charge          ....    0
 Multiplicity           Mult            ....    1
 Number of Electrons    NEL             ....  134
 Basis Dimension        Dim             ....  322

ORBITAL ENERGIES
----------------

  NO   OCC          E(Eh)            E(eV)
   0   2.0000     -88.967640     -2420.9326
   1   2.0000     -88.957957     -2420.6691
   2   2.0000     -10.327777      -281.0331
   3   2.0000     -10.324664      -280.9484
   4   2.0000     -10.314454      -280.6706
   5   2.0000     -10.308923      -280.5201
   6   2.0000     -10.305728      -280.4331
   7   2.0000     -10.299218      -280.2560
   8   2.0000     -10.290563      -280.0205
   9   2.0000     -10.290092      -280.0076
  10   2.0000     -10.289516      -279.9920
  11   2.0000     -10.288889      -279.9749
  12   2.0000     -10.286612      -279.9130
  13   2.0000     -10.279299      -279.7140
  14   2.0000     -10.277932      -279.6768
  15   2.0000     -10.269346      -279.4431
  16   2.0000      -8.082448      -219.9346
  17   2.0000      -8.073426      -219.6891
  18   2.0000      -6.041034      -164.3849
  19   2.0000      -6.036976      -164.2745
  20   2.0000      -6.033083      -164.1685
  21   2.0000      -6.031899      -164.1363
  22   2.0000      -6.027846      -164.0260
  23   2.0000      -6.024179      -163.9262
  24   2.0000      -1.008371       -27.4392
  25   2.0000      -0.985213       -26.8090
  26   2.0000      -0.916422       -24.9371
  27   2.0000      -0.905047       -24.6276
  28   2.0000      -0.872263       -23.7355
  29   2.0000      -0.852374       -23.1943
  30   2.0000      -0.844982       -22.9931
  31   2.0000      -0.818073       -22.2609
  32   2.0000      -0.781994       -21.2791
  33   2.0000      -0.771876       -21.0038
  34   2.0000      -0.712250       -19.3813
  35   2.0000      -0.706553       -19.2263
  36   2.0000      -0.694098       -18.8874
  37   2.0000      -0.664644       -18.0859
  38   2.0000      -0.645942       -17.5770
  39   2.0000      -0.616902       -16.7868
  40   2.0000      -0.597813       -16.2673
  41   2.0000      -0.577658       -15.7189
  42   2.0000      -0.567586       -15.4448
  43   2.0000      -0.556326       -15.1384
  44   2.0000      -0.541985       -14.7482
  45   2.0000      -0.523524       -14.2458
  46   2.0000      -0.514727       -14.0064
  47   2.0000      -0.509852       -13.8738
  48   2.0000      -0.504184       -13.7195
  49   2.0000      -0.500449       -13.6179
  50   2.0000      -0.494045       -13.4437
  51   2.0000      -0.483543       -13.1579
  52   2.0000      -0.469443       -12.7742
  53   2.0000      -0.460757       -12.5378
  54   2.0000      -0.456874       -12.4322
  55   2.0000      -0.450242       -12.2517
  56   2.0000      -0.446570       -12.1518
  57   2.0000      -0.437651       -11.9091
  58   2.0000      -0.431372       -11.7382
  59   2.0000      -0.427989       -11.6462
  60   2.0000      -0.422839       -11.5060
  61   2.0000      -0.421011       -11.4563
  62   2.0000      -0.415755       -11.3133
  63   2.0000      -0.348379        -9.4799
  64   2.0000      -0.328359        -8.9351
  65   2.0000      -0.325711        -8.8630
  66   2.0000      -0.294841        -8.0230
  67   0.0000       0.028157         0.7662
  68   0.0000       0.073892         2.0107
  69   0.0000       0.112738         3.0678
  70   0.0000       0.121663         3.3106
  71   0.0000       0.129253         3.5171

MULLIKEN ATOMIC CHARGES
-----------------------
   0 S :    0.114895
   1 C :   -0.118593
   2 C :   -0.038559
   3 C :    0.014149
   4 C :   -0.138108
   5 H :    0.005779
   6 C :   -0.011139
   7 H :    0.033132
   8 H :    0.021730
   9 C :    0.024060
  10 H :    0.041735
  11 H :    0.021595
  12 C :   -0.098366
  13 H :    0.015512
  14 H :    0.034692
  15 H :    0.028339
  16 S :    0.081899
  17 C :   -0.048973
  18 C :    0.005672
  19 C :   -0.053663
  20 C :   -0.153534
  21 H :   -0.003347
  22 C :    0.058656
  23 H :    0.016414
  24 H :    0.011207
  25 C :   -0.049858
  26 H :    0.022907
  27 H :    0.034385
  28 C :   -0.021356
  29 H :    0.025712
  30 H :    0.023297
  31 H :    0.021897
  32 H :    0.052336
  33 H :    0.025496
Sum of atomic charges:    0.0000000

LOEWDIN ATOMIC CHARGES
----------------------
   0 S :    0.409919
   1 C :   -0.195605
   2 C :   -0.062373
   3 C :   -0.055360
   4 C :   -0.201843
   5 H :    0.025954
   6 C :   -0.034989
   7 H :    0.035334
   8 H :    0.027681
   9 C :   -0.018984
  10 H :    0.027428
  11 H :    0.019551
  12 C :   -0.080156
  13 H :    0.020690
  14 H :    0.028492
  15 H :    0.021998
  16 S :    0.391053
  17 C :   -0.165504
  18 C :   -0.065728
  19 C :   -0.047179
  20 C :   -0.191882
  21 H :    0.024993
  22 C :   -0.034720
  23 H :    0.022626
  24 H :    0.030079
  25 C :   -0.023578
  26 H :    0.024073
  27 H :    0.019655
  28 C :   -0.059206
  29 H :    0.025625
  30 H :    0.021034
  31 H :    0.019902
  32 H :    0.030339
  33 H :    0.010682

  Mayer bond orders larger than 0.100000
B(  0-S ,  1-C ) :   1.1220 B(  0-S ,  4-C ) :   1.1483 B(  1-C ,  2-C ) :   1.6247
B(  1-C , 32-H ) :   0.9628 B(  2-C ,  3-C ) :   1.2160 B(  2-C ,  6-C ) :   1.0229
B(  3-C ,  4-C ) :   1.5904 B(  3-C ,  5-H ) :   1.0016 B(  4-C , 20-C ) :   1.0423
B(  6-C ,  7-H ) :   0.9433 B(  6-C ,  8-H ) :   0.9452 B(  6-C ,  9-C ) :   1.0714
B(  9-C , 10-H ) :   0.9572 B(  9-C , 11-H ) :   0.9519 B(  9-C , 12-C ) :   1.0666
B( 12-C , 13-H ) :   0.9748 B( 12-C , 14-H ) :   0.9698 B( 12-C , 15-H ) :   0.9742
B( 16-S , 17-C ) :   1.1545 B( 16-S , 20-C ) :   1.1326 B( 17-C , 18-C ) :   1.6255
B( 17-C , 33-H ) :   0.9752 B( 18-C , 19-C ) :   1.2094 B( 18-C , 21-H ) :   1.0062
B( 19-C , 20-C ) :   1.5996 B( 19-C , 22-C ) :   1.0543 B( 22-C , 23-H ) :   0.9317
B( 22-C , 24-H ) :   0.9339 B( 22-C , 25-C ) :   1.0633 B( 25-C , 26-H ) :   0.9539
B( 25-C , 27-H ) :   0.9589 B( 25-C , 28-C ) :   1.0895 B( 28-C , 29-H ) :   0.9736
B( 28-C , 30-H ) :   0.9730 B( 28-C , 31-H ) :   0.9751

Dispersion correction           -0.014372866
FINAL SINGLE POINT ENERGY     -1339.872768345132

DIPOLE MOMENT
-------------
                                X             Y             Z
Electronic contribution:    -23.06188      14.87494       1.35421
Nuclear contribution   :     23.29923     -15.35178      -1.52391
                        -----------------------------------------
Total Dipole Moment    :      0.23734      -0.47685      -0.16969
                        -----------------------------------------
Magnitude (a.u.)       :      0.55903
Magnitude (Debye)      :      1.42093

Rotational constants in cm-1:     0.019583     0.008728     0.006794
Rotational constants in MHz :   587.069647   261.662252   203.664680

                             ****ORCA TERMINATED NORMALLY****
TOTAL RUN TIME: 0 days 0 hours 0 minutes 21 seconds 962 msec
