                         Program Version 4.2.1 -  RELEASE  -
|  1> ! wB97X-D3 SP def2-SVP
|  2> %pal
|  3> nprocs 24
|  4> end
|  5>
|  6> * xyz 0 1
|  7> S 	 -100.505 	 0.761998 	 -107.62
|  8> C 	 -101.831 	 0.72039 	 -106.511
|  9> C 	 -101.393 	 0.993362 	 -105.205
| 10> C 	 -99.9776 	 1.17644 	 -105.195
| 11> C 	 -99.2885 	 0.99785 	 -106.38
| 12> H 	 -99.3523 	 1.44469 	 -104.354
| 13> C 	 -102.183 	 0.76029 	 -103.904
| 14> H 	 -103.287 	 1.05175 	 -103.955
| 15> H 	 -101.738 	 1.46406 	 -103.163
| 16> C 	 -102.019 	 -0.676665 	 -103.455
| 17> H 	 -102.427 	 -1.42288 	 -104.215
| 18> H 	 -100.878 	 -0.749519 	 -103.463
| 19> C 	 -102.472 	 -0.999414 	 -101.973
| 20> H 	 -101.798 	 -1.79699 	 -101.676
| 21> H 	 -102.417 	 -0.133623 	 -101.287
| 22> H 	 -103.477 	 -1.41671 	 -101.822
| 23> S 	 -97.2251 	 -0.272913 	 -107.867
| 24> C 	 -95.6255 	 0.352857 	 -107.754
| 25> C 	 -95.5533 	 1.39045 	 -106.816
| 26> C 	 -96.8434 	 1.79992 	 -106.238
| 27> C 	 -97.8454 	 0.998191 	 -106.684
| 28> H 	 -94.6013 	 1.84988 	 -106.581
| 29> C 	 -96.9511 	 3.09264 	 -105.398
| 30> H 	 -97.9037 	 3.59243 	 -105.622
| 31> H 	 -96.179 	 3.84334 	 -105.645
| 32> C 	 -96.8431 	 2.96491 	 -103.894
| 33> H 	 -95.8062 	 2.91388 	 -103.377
| 34> H 	 -97.3824 	 2.09158 	 -103.571
| 35> C 	 -97.7788 	 3.93015 	 -103.12
| 36> H 	 -97.5567 	 5.03283 	 -103.342
| 37> H 	 -97.7044 	 3.80704 	 -102.02
| 38> H 	 -98.7872 	 3.79407 	 -103.516
| 39> H 	 -102.864 	 0.424699 	 -106.824
| 40> H 	 -94.8177 	 -0.287549 	 -108.073
| 41> *
| 42>
| 43>                          ****END OF INPUT****

CARTESIAN COORDINATES (ANGSTROEM)
---------------------------------
  S    -100.505000    0.761998  -107.620000
  C    -101.831000    0.720390  -106.511000
  C    -101.393000    0.993362  -105.205000
  C    -99.977600    1.176440  -105.195000
  C    -99.288500    0.997850  -106.380000
  H    -99.352300    1.444690  -104.354000
  C    -102.183000    0.760290  -103.904000
  H    -103.287000    1.051750  -103.955000
  H    -101.738000    1.464060  -103.163000
  C    -102.019000   -0.676665  -103.455000
  H    -102.427000   -1.422880  -104.215000
  H    -100.878000   -0.749519  -103.463000
  C    -102.472000   -0.999414  -101.973000
  H    -101.798000   -1.796990  -101.676000
  H    -102.417000   -0.133623  -101.287000
  H    -103.477000   -1.416710  -101.822000
  S    -97.225100   -0.272913  -107.867000
  C    -95.625500    0.352857  -107.754000
  C    -95.553300    1.390450  -106.816000
  C    -96.843400    1.799920  -106.238000
  C    -97.845400    0.998191  -106.684000
  H    -94.601300    1.849880  -106.581000
  C    -96.951100    3.092640  -105.398000
  H    -97.903700    3.592430  -105.622000
  H    -96.179000    3.843340  -105.645000
  C    -96.843100    2.964910  -103.894000
  H    -95.806200    2.913880  -103.377000
  H    -97.382400    2.091580  -103.571000
  C    -97.778800    3.930150  -103.120000
  H    -97.556700    5.032830  -103.342000
  H    -97.704400    3.807040  -102.020000
  H    -98.787200    3.794070  -103.516000
  H    -102.864000    0.424699  -106.824000
  H    -94.817700   -0.287549  -108.073000

 Total Charge           Charge          ....    0
 Multiplicity           Mult            ....    1
 Number of Electrons    NEL             ....  134
 Basis Dimension        Dim             ....  322

ORBITAL ENERGIES
----------------

  NO   OCC          E(Eh)            E(eV)
   0   2.0000     -88.966499     -2420.9015
   1   2.0000     -88.964950     -2420.8594
   2   2.0000     -10.339152      -281.3426
   3   2.0000     -10.332942      -281.1736
   4   2.0000     -10.321027      -280.8494
   5   2.0000     -10.320912      -280.8463
   6   2.0000     -10.314162      -280.6626
   7   2.0000     -10.307600      -280.4841
   8   2.0000     -10.302675      -280.3501
   9   2.0000     -10.302639      -280.3491
  10   2.0000     -10.301990      -280.3314
  11   2.0000     -10.298878      -280.2467
  12   2.0000     -10.296548      -280.1833
  13   2.0000     -10.293398      -280.0976
  14   2.0000     -10.289136      -279.9816
  15   2.0000     -10.283695      -279.8336
  16   2.0000      -8.080720      -219.8876
  17   2.0000      -8.079965      -219.8670
  18   2.0000      -6.039386      -164.3401
  19   2.0000      -6.038484      -164.3155
  20   2.0000      -6.035308      -164.2291
  21   2.0000      -6.034199      -164.1989
  22   2.0000      -6.031321      -164.1206
  23   2.0000      -6.030929      -164.1099
  24   2.0000      -1.004667       -27.3384
  25   2.0000      -0.982342       -26.7309
  26   2.0000      -0.913190       -24.8492
  27   2.0000      -0.907449       -24.6930
  28   2.0000      -0.868314       -23.6280
  29   2.0000      -0.850182       -23.1346
  30   2.0000      -0.842034       -22.9129
  31   2.0000      -0.810187       -22.0463
  32   2.0000      -0.784264       -21.3409
  33   2.0000      -0.773634       -21.0517
  34   2.0000      -0.699593       -19.0369
  35   2.0000      -0.691349       -18.8126
  36   2.0000      -0.690090       -18.7783
  37   2.0000      -0.665929       -18.1208
  38   2.0000      -0.644430       -17.5358
  39   2.0000      -0.618549       -16.8316
  40   2.0000      -0.601193       -16.3593
  41   2.0000      -0.569744       -15.5035
  42   2.0000      -0.563259       -15.3270
  43   2.0000      -0.550503       -14.9799
  44   2.0000      -0.530253       -14.4289
  45   2.0000      -0.523175       -14.2363
  46   2.0000      -0.516725       -14.0608
  47   2.0000      -0.511204       -13.9106
  48   2.0000      -0.505844       -13.7647
  49   2.0000      -0.499494       -13.5919
  50   2.0000      -0.492828       -13.4105
  51   2.0000      -0.476637       -12.9700
  52   2.0000      -0.473094       -12.8735
  53   2.0000      -0.463346       -12.6083
  54   2.0000      -0.456946       -12.4341
  55   2.0000      -0.451093       -12.2749
  56   2.0000      -0.443904       -12.0792
  57   2.0000      -0.440546       -11.9879
  58   2.0000      -0.431051       -11.7295
  59   2.0000      -0.422587       -11.4992
  60   2.0000      -0.416793       -11.3415
  61   2.0000      -0.406914       -11.0727
  62   2.0000      -0.405351       -11.0301
  63   2.0000      -0.356584        -9.7031
  64   2.0000      -0.333961        -9.0875
  65   2.0000      -0.328924        -8.9505
  66   2.0000      -0.293476        -7.9859
  67   0.0000       0.023362         0.6357
  68   0.0000       0.066642         1.8134
  69   0.0000       0.106197         2.8898
  70   0.0000       0.117868         3.2074
  71   0.0000       0.121877         3.3164

MULLIKEN ATOMIC CHARGES
-----------------------
   0 S :    0.106764
   1 C :   -0.141457
   2 C :   -0.064944
   3 C :    0.019136
   4 C :   -0.149543
   5 H :   -0.018949
   6 C :    0.029118
   7 H :    0.039728
   8 H :    0.031168
   9 C :   -0.112439
  10 H :    0.049715
  11 H :    0.039057
  12 C :   -0.046056
  13 H :    0.038363
  14 H :    0.035022
  15 H :    0.036676
  16 S :    0.092127
  17 C :   -0.087796
  18 C :   -0.040104
  19 C :   -0.011938
  20 C :   -0.148043
  21 H :    0.022284
  22 C :    0.061345
  23 H :    0.037433
  24 H :    0.038709
  25 C :   -0.087129
  26 H :    0.051015
  27 H :    0.025254
  28 C :   -0.110812
  29 H :    0.032058
  30 H :    0.050595
  31 H :    0.036780
  32 H :    0.072884
  33 H :    0.073978
Sum of atomic charges:   -0.0000000

LOEWDIN ATOMIC CHARGES
----------------------
   0 S :    0.414634
   1 C :   -0.206083
   2 C :   -0.068173
   3 C :   -0.071034
   4 C :   -0.194388
   5 H :    0.024718
   6 C :   -0.041888
   7 H :    0.032278
   8 H :    0.031877
   9 C :   -0.050247
  10 H :    0.034506
  11 H :    0.033162
  12 C :   -0.074245
  13 H :    0.029858
  14 H :    0.027690
  15 H :    0.025788
  16 S :    0.377138
  17 C :   -0.192196
  18 C :   -0.065043
  19 C :   -0.049610
  20 C :   -0.165626
  21 H :    0.028644
  22 C :   -0.031821
  23 H :    0.038114
  24 H :    0.039834
  25 C :   -0.055801
  26 H :    0.034901
  27 H :    0.018561
  28 C :   -0.071707
  29 H :    0.023278
  30 H :    0.030570
  31 H :    0.020795
  32 H :    0.039750
  33 H :    0.031767

  Mayer bond orders larger than 0.100000
B(  0-S ,  1-C ) :   1.1661 B(  0-S ,  4-C ) :   1.1528 B(  1-C ,  2-C ) :   1.5666
B(  1-C ,  4-C ) :   0.1012 B(  1-C , 32-H ) :   0.9652 B(  2-C ,  3-C ) :   1.2586
B(  2-C ,  6-C ) :   1.0334 B(  3-C ,  4-C ) :   1.5707 B(  3-C ,  5-H ) :   0.9901
B(  4-C , 20-C ) :   1.0392 B(  6-C ,  7-H ) :   0.9426 B(  6-C ,  8-H ) :   0.9380
B(  6-C ,  9-C ) :   1.0598 B(  9-C , 10-H ) :   0.9537 B(  9-C , 11-H ) :   0.9607
B(  9-C , 12-C ) :   1.0549 B( 12-C , 13-H ) :   0.9789 B( 12-C , 14-H ) :   0.9767
B( 12-C , 15-H ) :   0.9772 B( 16-S , 17-C ) :   1.1511 B( 16-S , 20-C ) :   1.1144
B( 17-C , 18-C ) :   1.6286 B( 17-C , 33-H ) :   0.9633 B( 18-C , 19-C ) :   1.2043
B( 18-C , 21-H ) :   0.9874 B( 19-C , 20-C ) :   1.6476 B( 19-C , 22-C ) :   1.0381
B( 22-C , 23-H ) :   0.9402 B( 22-C , 24-H ) :   0.9366 B( 22-C , 25-C ) :   1.0497
B( 25-C , 26-H ) :   0.9514 B( 25-C , 27-H ) :   0.9606 B( 25-C , 28-C ) :   1.0635
B( 28-C , 29-H ) :   0.9742 B( 28-C , 30-H ) :   0.9752 B( 28-C , 31-H ) :   0.9748

Dispersion correction           -0.014294633
FINAL SINGLE POINT ENERGY     -1339.867526277603

DIPOLE MOMENT
-------------
                                X             Y             Z
Electronic contribution:      6.27718      -6.91824     -28.60552
Nuclear contribution   :     -6.17416       7.00369      29.24820
                        -----------------------------------------
Total Dipole Moment    :      0.10302       0.08545       0.64269
                        -----------------------------------------
Magnitude (a.u.)       :      0.65648
Magnitude (Debye)      :      1.66863

Rotational constants in cm-1:     0.016946     0.008940     0.006900
Rotational constants in MHz :   508.014336   268.027556   206.862797

                             ****ORCA TERMINATED NORMALLY****
TOTAL RUN TIME: 0 days 0 hours 0 minutes 20 seconds 441 msec
