                         Program Version 4.2.1 -  RELEASE  -
|  1> ! wB97X-D3 SP def2-SVP
|  2> %pal
|  3> nprocs 24
|  4> end
|  5>
|  6> * xyz 0 1
|  7> S 	 -108.816 	 68.3716 	 -5.54259
|  8> C 	 -108.143 	 68.7855 	 -7.15849
|  9> C 	 -107.784 	 67.6484 	 -7.83916
| 10> C 	 -108.07 	 66.4249 	 -7.05777
| 11> C 	 -108.585 	 66.6323 	 -5.80284
| 12> H 	 -107.828 	 65.4116 	 -7.48284
| 13> C 	 -107.072 	 67.5668 	 -9.20648
| 14> H 	 -107.203 	 68.511 	 -9.70973
| 15> H 	 -107.423 	 66.8536 	 -9.92497
| 16> C 	 -105.532 	 67.4867 	 -8.9568
| 17> H 	 -105.238 	 68.2341 	 -8.21726
| 18> H 	 -105.375 	 66.5214 	 -8.42724
| 19> C 	 -104.782 	 67.7394 	 -10.27
| 20> H 	 -104.655 	 66.8685 	 -10.9102
| 21> H 	 -105.029 	 68.6526 	 -10.8366
| 22> H 	 -103.769 	 67.9328 	 -9.97575
| 23> S 	 -108.011 	 65.7378 	 -3.33367
| 24> C 	 -108.84 	 64.399 	 -2.62583
| 25> C 	 -109.74 	 63.829 	 -3.53411
| 26> C 	 -109.724 	 64.5291 	 -4.78612
| 27> C 	 -108.905 	 65.6331 	 -4.79764
| 28> H 	 -110.367 	 62.9687 	 -3.26667
| 29> C 	 -110.589 	 64.2175 	 -5.95624
| 30> H 	 -110.815 	 63.171 	 -6.07851
| 31> H 	 -110.012 	 64.5516 	 -6.87255
| 32> C 	 -112.028 	 64.8183 	 -5.90215
| 33> H 	 -112.728 	 64.3499 	 -5.19545
| 34> H 	 -112.507 	 64.673 	 -6.88376
| 35> C 	 -111.983 	 66.3297 	 -5.66714
| 36> H 	 -112.951 	 66.8084 	 -5.69819
| 37> H 	 -111.23 	 66.7923 	 -6.31282
| 38> H 	 -111.63 	 66.4751 	 -4.65332
| 39> H 	 -107.872 	 69.7478 	 -7.49807
| 40> H 	 -108.67 	 63.951 	 -1.65191
| 41> *
| 42>
| 43>                          ****END OF INPUT****

CARTESIAN COORDINATES (ANGSTROEM)
---------------------------------
  S    -108.816000   68.371600   -5.542590
  C    -108.143000   68.785500   -7.158490
  C    -107.784000   67.648400   -7.839160
  C    -108.070000   66.424900   -7.057770
  C    -108.585000   66.632300   -5.802840
  H    -107.828000   65.411600   -7.482840
  C    -107.072000   67.566800   -9.206480
  H    -107.203000   68.511000   -9.709730
  H    -107.423000   66.853600   -9.924970
  C    -105.532000   67.486700   -8.956800
  H    -105.238000   68.234100   -8.217260
  H    -105.375000   66.521400   -8.427240
  C    -104.782000   67.739400  -10.270000
  H    -104.655000   66.868500  -10.910200
  H    -105.029000   68.652600  -10.836600
  H    -103.769000   67.932800   -9.975750
  S    -108.011000   65.737800   -3.333670
  C    -108.840000   64.399000   -2.625830
  C    -109.740000   63.829000   -3.534110
  C    -109.724000   64.529100   -4.786120
  C    -108.905000   65.633100   -4.797640
  H    -110.367000   62.968700   -3.266670
  C    -110.589000   64.217500   -5.956240
  H    -110.815000   63.171000   -6.078510
  H    -110.012000   64.551600   -6.872550
  C    -112.028000   64.818300   -5.902150
  H    -112.728000   64.349900   -5.195450
  H    -112.507000   64.673000   -6.883760
  C    -111.983000   66.329700   -5.667140
  H    -112.951000   66.808400   -5.698190
  H    -111.230000   66.792300   -6.312820
  H    -111.630000   66.475100   -4.653320
  H    -107.872000   69.747800   -7.498070
  H    -108.670000   63.951000   -1.651910

 Total Charge           Charge          ....    0
 Multiplicity           Mult            ....    1
 Number of Electrons    NEL             ....  134
 Basis Dimension        Dim             ....  322

ORBITAL ENERGIES
----------------

  NO   OCC          E(Eh)            E(eV)
   0   2.0000     -88.966695     -2420.9069
   1   2.0000     -88.966048     -2420.8892
   2   2.0000     -10.334408      -281.2135
   3   2.0000     -10.321853      -280.8719
   4   2.0000     -10.318384      -280.7775
   5   2.0000     -10.316605      -280.7291
   6   2.0000     -10.308039      -280.4960
   7   2.0000     -10.302250      -280.3385
   8   2.0000     -10.301085      -280.3068
   9   2.0000     -10.298056      -280.2243
  10   2.0000     -10.292279      -280.0672
  11   2.0000     -10.292076      -280.0616
  12   2.0000     -10.289080      -279.9801
  13   2.0000     -10.282440      -279.7994
  14   2.0000     -10.279596      -279.7220
  15   2.0000     -10.259967      -279.1879
  16   2.0000      -8.081653      -219.9130
  17   2.0000      -8.080025      -219.8687
  18   2.0000      -6.040069      -164.3586
  19   2.0000      -6.038871      -164.3260
  20   2.0000      -6.035874      -164.2445
  21   2.0000      -6.034732      -164.2134
  22   2.0000      -6.032606      -164.1556
  23   2.0000      -6.030475      -164.0976
  24   2.0000      -1.009818       -27.4786
  25   2.0000      -0.979980       -26.6666
  26   2.0000      -0.909796       -24.7568
  27   2.0000      -0.906048       -24.6548
  28   2.0000      -0.870659       -23.6918
  29   2.0000      -0.845311       -23.0021
  30   2.0000      -0.839146       -22.8343
  31   2.0000      -0.814466       -22.1628
  32   2.0000      -0.781977       -21.2787
  33   2.0000      -0.771170       -20.9846
  34   2.0000      -0.705936       -19.2095
  35   2.0000      -0.700926       -19.0732
  36   2.0000      -0.691487       -18.8163
  37   2.0000      -0.660448       -17.9717
  38   2.0000      -0.641962       -17.4687
  39   2.0000      -0.618143       -16.8205
  40   2.0000      -0.589176       -16.0323
  41   2.0000      -0.571550       -15.5527
  42   2.0000      -0.560053       -15.2398
  43   2.0000      -0.550023       -14.9669
  44   2.0000      -0.540594       -14.7103
  45   2.0000      -0.517059       -14.0699
  46   2.0000      -0.516097       -14.0437
  47   2.0000      -0.512888       -13.9564
  48   2.0000      -0.503617       -13.7041
  49   2.0000      -0.501590       -13.6490
  50   2.0000      -0.498562       -13.5666
  51   2.0000      -0.475802       -12.9472
  52   2.0000      -0.471013       -12.8169
  53   2.0000      -0.461667       -12.5626
  54   2.0000      -0.453226       -12.3329
  55   2.0000      -0.449305       -12.2262
  56   2.0000      -0.440766       -11.9939
  57   2.0000      -0.435824       -11.8594
  58   2.0000      -0.429964       -11.6999
  59   2.0000      -0.422801       -11.5050
  60   2.0000      -0.416151       -11.3240
  61   2.0000      -0.412044       -11.2123
  62   2.0000      -0.406411       -11.0590
  63   2.0000      -0.343525        -9.3478
  64   2.0000      -0.330800        -9.0015
  65   2.0000      -0.326028        -8.8717
  66   2.0000      -0.301199        -8.1960
  67   0.0000       0.033690         0.9168
  68   0.0000       0.067096         1.8258
  69   0.0000       0.113160         3.0793
  70   0.0000       0.118046         3.2122
  71   0.0000       0.127420         3.4673

MULLIKEN ATOMIC CHARGES
-----------------------
   0 S :    0.101817
   1 C :   -0.095577
   2 C :   -0.105488
   3 C :    0.036017
   4 C :   -0.167630
   5 H :    0.037220
   6 C :    0.072259
   7 H :    0.003495
   8 H :    0.032558
   9 C :   -0.094885
  10 H :    0.031898
  11 H :    0.034718
  12 C :   -0.030427
  13 H :    0.037598
  14 H :    0.040215
  15 H :    0.018012
  16 S :    0.126190
  17 C :   -0.093156
  18 C :   -0.049639
  19 C :   -0.023853
  20 C :   -0.169594
  21 H :    0.028368
  22 C :    0.063328
  23 H :    0.016899
  24 H :    0.031496
  25 C :   -0.082459
  26 H :    0.029009
  27 H :    0.027584
  28 C :   -0.049288
  29 H :    0.029160
  30 H :    0.042204
  31 H :    0.030228
  32 H :    0.032266
  33 H :    0.059457
Sum of atomic charges:   -0.0000000

LOEWDIN ATOMIC CHARGES
----------------------
   0 S :    0.378055
   1 C :   -0.177832
   2 C :   -0.054303
   3 C :   -0.068269
   4 C :   -0.190453
   5 H :    0.037750
   6 C :   -0.030690
   7 H :    0.023977
   8 H :    0.027715
   9 C :   -0.037337
  10 H :    0.025928
  11 H :    0.028339
  12 C :   -0.073916
  13 H :    0.027893
  14 H :    0.031371
  15 H :    0.026280
  16 S :    0.439128
  17 C :   -0.194510
  18 C :   -0.071816
  19 C :   -0.057186
  20 C :   -0.215336
  21 H :    0.036509
  22 C :   -0.037203
  23 H :    0.028536
  24 H :    0.038418
  25 C :   -0.039175
  26 H :    0.021990
  27 H :    0.023782
  28 C :   -0.069576
  29 H :    0.022328
  30 H :    0.023808
  31 H :    0.021578
  32 H :    0.022011
  33 H :    0.032207

  Mayer bond orders larger than 0.100000
B(  0-S ,  1-C ) :   1.1068 B(  0-S ,  4-C ) :   1.1301 B(  1-C ,  2-C ) :   1.6633
B(  1-C , 32-H ) :   0.9687 B(  2-C ,  3-C ) :   1.2045 B(  2-C ,  6-C ) :   1.0283
B(  3-C ,  4-C ) :   1.6167 B(  3-C ,  5-H ) :   0.9768 B(  4-C , 20-C ) :   1.0171
B(  6-C ,  7-H ) :   0.9409 B(  6-C ,  8-H ) :   0.9498 B(  6-C ,  9-C ) :   1.0476
B(  9-C , 10-H ) :   0.9600 B(  9-C , 11-H ) :   0.9580 B(  9-C , 12-C ) :   1.0759
B( 12-C , 13-H ) :   0.9737 B( 12-C , 14-H ) :   0.9722 B( 12-C , 15-H ) :   0.9706
B( 16-S , 17-C ) :   1.1746 B( 16-S , 20-C ) :   1.1575 B( 17-C , 18-C ) :   1.5830
B( 17-C , 20-C ) :   0.1015 B( 17-C , 33-H ) :   0.9680 B( 18-C , 19-C ) :   1.2481
B( 18-C , 21-H ) :   0.9906 B( 19-C , 20-C ) :   1.5790 B( 19-C , 22-C ) :   1.0609
B( 22-C , 23-H ) :   0.9274 B( 22-C , 24-H ) :   0.9314 B( 22-C , 25-C ) :   1.0678
B( 25-C , 26-H ) :   0.9574 B( 25-C , 27-H ) :   0.9555 B( 25-C , 28-C ) :   1.0829
B( 28-C , 29-H ) :   0.9724 B( 28-C , 30-H ) :   0.9717 B( 28-C , 31-H ) :   0.9693

Dispersion correction           -0.015481432
FINAL SINGLE POINT ENERGY     -1339.884838997006

DIPOLE MOMENT
-------------
                                X             Y             Z
Electronic contribution:      0.31141       2.04219      20.67121
Nuclear contribution   :     -0.13991      -2.35771     -21.12991
                        -----------------------------------------
Total Dipole Moment    :      0.17150      -0.31552      -0.45870
                        -----------------------------------------
Magnitude (a.u.)       :      0.58256
Magnitude (Debye)      :      1.48075

Rotational constants in cm-1:     0.022207     0.007848     0.007317
Rotational constants in MHz :   665.740355   235.269314   219.356275

                             ****ORCA TERMINATED NORMALLY****
TOTAL RUN TIME: 0 days 0 hours 0 minutes 21 seconds 146 msec
