                         Program Version 4.2.1 -  RELEASE  -
|  1> ! wB97X-D3 SP def2-SVP
|  2> %pal
|  3> nprocs 24
|  4> end
|  5>
|  6> * xyz 0 1
|  7> S 	 33.1772 	 -31.9292 	 -130.871
|  8> C 	 34.2097 	 -30.7724 	 -130.012
|  9> C 	 34.4423 	 -31.1982 	 -128.715
| 10> C 	 33.6746 	 -32.3226 	 -128.343
| 11> C 	 32.8752 	 -32.8164 	 -129.373
| 12> H 	 33.6098 	 -32.7878 	 -127.344
| 13> C 	 35.4655 	 -30.4972 	 -127.815
| 14> H 	 34.9445 	 -30.1295 	 -126.955
| 15> H 	 35.7933 	 -29.5966 	 -128.325
| 16> C 	 36.6571 	 -31.3835 	 -127.42
| 17> H 	 36.4425 	 -32.2181 	 -126.703
| 18> H 	 37.2331 	 -31.8041 	 -128.18
| 19> C 	 37.7177 	 -30.4975 	 -126.723
| 20> H 	 37.3419 	 -29.8208 	 -125.845
| 21> H 	 38.5212 	 -31.1996 	 -126.289
| 22> H 	 38.2297 	 -29.6952 	 -127.263
| 23> S 	 32.6254 	 -35.449 	 -130.344
| 24> C 	 31.3411 	 -36.4982 	 -129.702
| 25> C 	 30.6497 	 -35.7799 	 -128.695
| 26> C 	 31.1252 	 -34.469 	 -128.447
| 27> C 	 32.1241 	 -34.0993 	 -129.338
| 28> H 	 29.8718 	 -36.2772 	 -128.2
| 29> C 	 30.5084 	 -33.5374 	 -127.395
| 30> H 	 29.4047 	 -33.8448 	 -127.447
| 31> H 	 30.5759 	 -32.5755 	 -127.822
| 32> C 	 31.121 	 -33.5802 	 -126.026
| 33> H 	 30.3684 	 -33.0857 	 -125.416
| 34> H 	 31.9608 	 -32.9032 	 -125.909
| 35> C 	 31.3928 	 -34.996 	 -125.559
| 36> H 	 30.531 	 -35.5652 	 -125.798
| 37> H 	 31.6394 	 -35.046 	 -124.478
| 38> H 	 32.2901 	 -35.427 	 -126.007
| 39> H 	 34.6892 	 -29.9673 	 -130.475
| 40> H 	 31.0914 	 -37.5058 	 -130.049
| 41> *
| 42>
| 43>                          ****END OF INPUT****

CARTESIAN COORDINATES (ANGSTROEM)
---------------------------------
  S     33.177200  -31.929200  -130.871000
  C     34.209700  -30.772400  -130.012000
  C     34.442300  -31.198200  -128.715000
  C     33.674600  -32.322600  -128.343000
  C     32.875200  -32.816400  -129.373000
  H     33.609800  -32.787800  -127.344000
  C     35.465500  -30.497200  -127.815000
  H     34.944500  -30.129500  -126.955000
  H     35.793300  -29.596600  -128.325000
  C     36.657100  -31.383500  -127.420000
  H     36.442500  -32.218100  -126.703000
  H     37.233100  -31.804100  -128.180000
  C     37.717700  -30.497500  -126.723000
  H     37.341900  -29.820800  -125.845000
  H     38.521200  -31.199600  -126.289000
  H     38.229700  -29.695200  -127.263000
  S     32.625400  -35.449000  -130.344000
  C     31.341100  -36.498200  -129.702000
  C     30.649700  -35.779900  -128.695000
  C     31.125200  -34.469000  -128.447000
  C     32.124100  -34.099300  -129.338000
  H     29.871800  -36.277200  -128.200000
  C     30.508400  -33.537400  -127.395000
  H     29.404700  -33.844800  -127.447000
  H     30.575900  -32.575500  -127.822000
  C     31.121000  -33.580200  -126.026000
  H     30.368400  -33.085700  -125.416000
  H     31.960800  -32.903200  -125.909000
  C     31.392800  -34.996000  -125.559000
  H     30.531000  -35.565200  -125.798000
  H     31.639400  -35.046000  -124.478000
  H     32.290100  -35.427000  -126.007000
  H     34.689200  -29.967300  -130.475000
  H     31.091400  -37.505800  -130.049000

 Total Charge           Charge          ....    0
 Multiplicity           Mult            ....    1
 Number of Electrons    NEL             ....  134
 Basis Dimension        Dim             ....  322

ORBITAL ENERGIES
----------------

  NO   OCC          E(Eh)            E(eV)
   0   2.0000     -88.967397     -2420.9259
   1   2.0000     -88.966118     -2420.8912
   2   2.0000     -10.333560      -281.1905
   3   2.0000     -10.326643      -281.0022
   4   2.0000     -10.322448      -280.8881
   5   2.0000     -10.312830      -280.6264
   6   2.0000     -10.301519      -280.3186
   7   2.0000     -10.298883      -280.2469
   8   2.0000     -10.297891      -280.2199
   9   2.0000     -10.295018      -280.1417
  10   2.0000     -10.292063      -280.0613
  11   2.0000     -10.291717      -280.0519
  12   2.0000     -10.291314      -280.0409
  13   2.0000     -10.290599      -280.0214
  14   2.0000     -10.283416      -279.8260
  15   2.0000     -10.274868      -279.5934
  16   2.0000      -8.081375      -219.9054
  17   2.0000      -8.079957      -219.8668
  18   2.0000      -6.039879      -164.3535
  19   2.0000      -6.038543      -164.3171
  20   2.0000      -6.035966      -164.2470
  21   2.0000      -6.034477      -164.2065
  22   2.0000      -6.032214      -164.1449
  23   2.0000      -6.030804      -164.1065
  24   2.0000      -1.000748       -27.2317
  25   2.0000      -0.979408       -26.6510
  26   2.0000      -0.914389       -24.8818
  27   2.0000      -0.910073       -24.7643
  28   2.0000      -0.864280       -23.5182
  29   2.0000      -0.848006       -23.0754
  30   2.0000      -0.843687       -22.9579
  31   2.0000      -0.812980       -22.1223
  32   2.0000      -0.783282       -21.3142
  33   2.0000      -0.769473       -20.9384
  34   2.0000      -0.710086       -19.3224
  35   2.0000      -0.702284       -19.1101
  36   2.0000      -0.691764       -18.8239
  37   2.0000      -0.661915       -18.0116
  38   2.0000      -0.645285       -17.5591
  39   2.0000      -0.616502       -16.7759
  40   2.0000      -0.581918       -15.8348
  41   2.0000      -0.569550       -15.4982
  42   2.0000      -0.568349       -15.4656
  43   2.0000      -0.557407       -15.1678
  44   2.0000      -0.546275       -14.8649
  45   2.0000      -0.530885       -14.4461
  46   2.0000      -0.515925       -14.0390
  47   2.0000      -0.508668       -13.8416
  48   2.0000      -0.505018       -13.7422
  49   2.0000      -0.497061       -13.5257
  50   2.0000      -0.486708       -13.2440
  51   2.0000      -0.476622       -12.9695
  52   2.0000      -0.470540       -12.8040
  53   2.0000      -0.467247       -12.7144
  54   2.0000      -0.451233       -12.2787
  55   2.0000      -0.446594       -12.1524
  56   2.0000      -0.445254       -12.1160
  57   2.0000      -0.443243       -12.0613
  58   2.0000      -0.432956       -11.7813
  59   2.0000      -0.430192       -11.7061
  60   2.0000      -0.422046       -11.4845
  61   2.0000      -0.410112       -11.1597
  62   2.0000      -0.403311       -10.9746
  63   2.0000      -0.341711        -9.2984
  64   2.0000      -0.331125        -9.0104
  65   2.0000      -0.329505        -8.9663
  66   2.0000      -0.294674        -8.0185
  67   0.0000       0.029600         0.8055
  68   0.0000       0.063863         1.7378
  69   0.0000       0.116267         3.1638
  70   0.0000       0.124180         3.3791
  71   0.0000       0.128297         3.4911

MULLIKEN ATOMIC CHARGES
-----------------------
   0 S :    0.104894
   1 C :   -0.101569
   2 C :   -0.086379
   3 C :    0.033293
   4 C :   -0.175727
   5 H :    0.020875
   6 C :    0.100734
   7 H :    0.027068
   8 H :    0.010447
   9 C :   -0.030301
  10 H :    0.044945
  11 H :    0.027819
  12 C :   -0.137224
  13 H :    0.028592
  14 H :    0.045980
  15 H :    0.036141
  16 S :    0.109779
  17 C :   -0.117038
  18 C :   -0.025364
  19 C :   -0.057977
  20 C :   -0.147730
  21 H :   -0.000394
  22 C :    0.060132
  23 H :    0.039971
  24 H :    0.025293
  25 C :   -0.046280
  26 H :    0.023901
  27 H :    0.019361
  28 C :   -0.025716
  29 H :    0.020459
  30 H :    0.034207
  31 H :    0.042406
  32 H :    0.028625
  33 H :    0.066777
Sum of atomic charges:    0.0000000

LOEWDIN ATOMIC CHARGES
----------------------
   0 S :    0.393471
   1 C :   -0.181941
   2 C :   -0.062800
   3 C :   -0.061839
   4 C :   -0.188463
   5 H :    0.035731
   6 C :   -0.023306
   7 H :    0.030301
   8 H :    0.029880
   9 C :   -0.035998
  10 H :    0.034435
  11 H :    0.022388
  12 C :   -0.086681
  13 H :    0.027665
  14 H :    0.033046
  15 H :    0.020826
  16 S :    0.396776
  17 C :   -0.186580
  18 C :   -0.065390
  19 C :   -0.062116
  20 C :   -0.200990
  21 H :    0.019474
  22 C :   -0.030055
  23 H :    0.040697
  24 H :    0.027969
  25 C :   -0.043932
  26 H :    0.028455
  27 H :    0.019513
  28 C :   -0.061253
  29 H :    0.019940
  30 H :    0.029917
  31 H :    0.029978
  32 H :    0.016387
  33 H :    0.034496

  Mayer bond orders larger than 0.100000
B(  0-S ,  1-C ) :   1.1339 B(  0-S ,  4-C ) :   1.1558 B(  1-C ,  2-C ) :   1.6052
B(  1-C , 32-H ) :   0.9763 B(  2-C ,  3-C ) :   1.2495 B(  2-C ,  6-C ) :   1.0240
B(  3-C ,  4-C ) :   1.5634 B(  3-C ,  5-H ) :   0.9853 B(  4-C , 20-C ) :   1.0201
B(  6-C ,  7-H ) :   0.9335 B(  6-C ,  8-H ) :   0.9444 B(  6-C ,  9-C ) :   1.0612
B(  9-C , 10-H ) :   0.9542 B(  9-C , 11-H ) :   0.9566 B(  9-C , 12-C ) :   1.0669
B( 12-C , 13-H ) :   0.9728 B( 12-C , 14-H ) :   0.9757 B( 12-C , 15-H ) :   0.9775
B( 16-S , 17-C ) :   1.1508 B( 16-S , 20-C ) :   1.1532 B( 17-C , 18-C ) :   1.5870
B( 17-C , 20-C ) :   0.1070 B( 17-C , 33-H ) :   0.9683 B( 18-C , 19-C ) :   1.2539
B( 18-C , 21-H ) :   0.9962 B( 19-C , 20-C ) :   1.5823 B( 19-C , 22-C ) :   1.0229
B( 22-C , 23-H ) :   0.9396 B( 22-C , 24-H ) :   0.9268 B( 22-C , 25-C ) :   1.0801
B( 25-C , 26-H ) :   0.9458 B( 25-C , 27-H ) :   0.9458 B( 25-C , 28-C ) :   1.0896
B( 28-C , 29-H ) :   0.9733 B( 28-C , 30-H ) :   0.9707 B( 28-C , 31-H ) :   0.9651

Dispersion correction           -0.014863417
FINAL SINGLE POINT ENERGY     -1339.873441599362

DIPOLE MOMENT
-------------
                                X             Y             Z
Electronic contribution:     -8.43333      -7.18999     -25.50504
Nuclear contribution   :      8.55137       7.33181      26.13615
                        -----------------------------------------
Total Dipole Moment    :      0.11804       0.14182       0.63111
                        -----------------------------------------
Magnitude (a.u.)       :      0.65753
Magnitude (Debye)      :      1.67131

Rotational constants in cm-1:     0.018978     0.008518     0.006984
Rotational constants in MHz :   568.960367   255.352217   209.387557

                             ****ORCA TERMINATED NORMALLY****
TOTAL RUN TIME: 0 days 0 hours 0 minutes 20 seconds 776 msec
