                         Program Version 4.2.1 -  RELEASE  -
|  1> ! wB97X-D3 SP def2-SVP
|  2> %pal
|  3> nprocs 24
|  4> end
|  5>
|  6> * xyz 0 1
|  7> S 	 -110.912 	 49.2535 	 -84.4253
|  8> C 	 -109.831 	 48.114 	 -85.1921
|  9> C 	 -109.41 	 48.6271 	 -86.4402
| 10> C 	 -110.022 	 49.8546 	 -86.8365
| 11> C 	 -110.859 	 50.2773 	 -85.8688
| 12> H 	 -110.05 	 50.2749 	 -87.8921
| 13> C 	 -108.225 	 47.9999 	 -87.2113
| 14> H 	 -108.503 	 48.2474 	 -88.2844
| 15> H 	 -108.322 	 46.9915 	 -86.9285
| 16> C 	 -106.925 	 48.6827 	 -86.9337
| 17> H 	 -107.005 	 49.7729 	 -87.0147
| 18> H 	 -106.722 	 48.5503 	 -85.8913
| 19> C 	 -105.793 	 48.1502 	 -87.8815
| 20> H 	 -105.49 	 47.1299 	 -87.6622
| 21> H 	 -105.963 	 48.2084 	 -88.9926
| 22> H 	 -104.92 	 48.7528 	 -87.6896
| 23> S 	 -113.524 	 51.2407 	 -85.4986
| 24> C 	 -113.923 	 52.7885 	 -86.1824
| 25> C 	 -112.772 	 53.5055 	 -86.5844
| 26> C 	 -111.637 	 52.7026 	 -86.6122
| 27> C 	 -111.826 	 51.4022 	 -86.0914
| 28> H 	 -112.887 	 54.5547 	 -86.9131
| 29> C 	 -110.383 	 53.2505 	 -87.0493
| 30> H 	 -110.651 	 54.2528 	 -87.3539
| 31> H 	 -110.129 	 52.7237 	 -87.9804
| 32> C 	 -109.233 	 53.1481 	 -86.0704
| 33> H 	 -108.463 	 53.7242 	 -86.5331
| 34> H 	 -108.918 	 52.1229 	 -85.889
| 35> C 	 -109.507 	 53.6311 	 -84.6851
| 36> H 	 -110.107 	 52.8669 	 -84.1638
| 37> H 	 -110.061 	 54.5332 	 -84.6787
| 38> H 	 -108.649 	 53.8602 	 -84.1204
| 39> H 	 -109.167 	 47.5082 	 -84.6084
| 40> H 	 -114.853 	 53.3491 	 -85.9696
| 41> *
| 42>
| 43>                          ****END OF INPUT****

CARTESIAN COORDINATES (ANGSTROEM)
---------------------------------
  S    -110.912000   49.253500  -84.425300
  C    -109.831000   48.114000  -85.192100
  C    -109.410000   48.627100  -86.440200
  C    -110.022000   49.854600  -86.836500
  C    -110.859000   50.277300  -85.868800
  H    -110.050000   50.274900  -87.892100
  C    -108.225000   47.999900  -87.211300
  H    -108.503000   48.247400  -88.284400
  H    -108.322000   46.991500  -86.928500
  C    -106.925000   48.682700  -86.933700
  H    -107.005000   49.772900  -87.014700
  H    -106.722000   48.550300  -85.891300
  C    -105.793000   48.150200  -87.881500
  H    -105.490000   47.129900  -87.662200
  H    -105.963000   48.208400  -88.992600
  H    -104.920000   48.752800  -87.689600
  S    -113.524000   51.240700  -85.498600
  C    -113.923000   52.788500  -86.182400
  C    -112.772000   53.505500  -86.584400
  C    -111.637000   52.702600  -86.612200
  C    -111.826000   51.402200  -86.091400
  H    -112.887000   54.554700  -86.913100
  C    -110.383000   53.250500  -87.049300
  H    -110.651000   54.252800  -87.353900
  H    -110.129000   52.723700  -87.980400
  C    -109.233000   53.148100  -86.070400
  H    -108.463000   53.724200  -86.533100
  H    -108.918000   52.122900  -85.889000
  C    -109.507000   53.631100  -84.685100
  H    -110.107000   52.866900  -84.163800
  H    -110.061000   54.533200  -84.678700
  H    -108.649000   53.860200  -84.120400
  H    -109.167000   47.508200  -84.608400
  H    -114.853000   53.349100  -85.969600

 Total Charge           Charge          ....    0
 Multiplicity           Mult            ....    1
 Number of Electrons    NEL             ....  134
 Basis Dimension        Dim             ....  322

ORBITAL ENERGIES
----------------

  NO   OCC          E(Eh)            E(eV)
   0   2.0000     -88.970448     -2421.0090
   1   2.0000     -88.969262     -2420.9767
   2   2.0000     -10.336588      -281.2729
   3   2.0000     -10.331127      -281.1243
   4   2.0000     -10.319363      -280.8041
   5   2.0000     -10.312987      -280.6307
   6   2.0000     -10.306502      -280.4542
   7   2.0000     -10.298239      -280.2293
   8   2.0000     -10.296754      -280.1889
   9   2.0000     -10.294765      -280.1348
  10   2.0000     -10.290570      -280.0207
  11   2.0000     -10.289110      -279.9809
  12   2.0000     -10.283866      -279.8382
  13   2.0000     -10.282563      -279.8028
  14   2.0000     -10.273801      -279.5643
  15   2.0000     -10.260371      -279.1989
  16   2.0000      -8.084683      -219.9954
  17   2.0000      -8.082847      -219.9454
  18   2.0000      -6.043298      -164.4465
  19   2.0000      -6.041258      -164.3910
  20   2.0000      -6.039274      -164.3370
  21   2.0000      -6.037515      -164.2891
  22   2.0000      -6.035347      -164.2302
  23   2.0000      -6.033795      -164.1879
  24   2.0000      -1.005188       -27.3526
  25   2.0000      -0.984176       -26.7808
  26   2.0000      -0.920136       -25.0382
  27   2.0000      -0.913382       -24.8544
  28   2.0000      -0.864337       -23.5198
  29   2.0000      -0.857356       -23.3298
  30   2.0000      -0.848452       -23.0876
  31   2.0000      -0.812893       -22.1199
  32   2.0000      -0.785222       -21.3670
  33   2.0000      -0.768487       -20.9116
  34   2.0000      -0.711178       -19.3521
  35   2.0000      -0.705357       -19.1937
  36   2.0000      -0.685707       -18.6590
  37   2.0000      -0.661033       -17.9876
  38   2.0000      -0.638017       -17.3613
  39   2.0000      -0.618543       -16.8314
  40   2.0000      -0.591138       -16.0857
  41   2.0000      -0.570069       -15.5124
  42   2.0000      -0.562013       -15.2932
  43   2.0000      -0.555962       -15.1285
  44   2.0000      -0.547917       -14.9096
  45   2.0000      -0.528224       -14.3737
  46   2.0000      -0.522464       -14.2170
  47   2.0000      -0.506325       -13.7778
  48   2.0000      -0.500603       -13.6221
  49   2.0000      -0.494476       -13.4554
  50   2.0000      -0.485585       -13.2134
  51   2.0000      -0.477698       -12.9988
  52   2.0000      -0.472857       -12.8671
  53   2.0000      -0.463195       -12.6042
  54   2.0000      -0.460898       -12.5417
  55   2.0000      -0.456406       -12.4194
  56   2.0000      -0.446235       -12.1427
  57   2.0000      -0.440871       -11.9967
  58   2.0000      -0.435359       -11.8467
  59   2.0000      -0.423893       -11.5347
  60   2.0000      -0.416647       -11.3375
  61   2.0000      -0.412567       -11.2265
  62   2.0000      -0.408253       -11.1091
  63   2.0000      -0.354855        -9.6561
  64   2.0000      -0.332879        -9.0581
  65   2.0000      -0.328814        -8.9475
  66   2.0000      -0.285407        -7.7663
  67   0.0000       0.018782         0.5111
  68   0.0000       0.062454         1.6995
  69   0.0000       0.102058         2.7771
  70   0.0000       0.117777         3.2049
  71   0.0000       0.128809         3.5051

MULLIKEN ATOMIC CHARGES
-----------------------
   0 S :    0.101858
   1 C :   -0.090888
   2 C :   -0.160149
   3 C :   -0.005129
   4 C :   -0.137992
   5 H :    0.057763
   6 C :    0.072986
   7 H :    0.027613
   8 H :    0.023795
   9 C :   -0.050408
  10 H :    0.029255
  11 H :    0.013219
  12 C :   -0.046956
  13 H :    0.031465
  14 H :    0.042279
  15 H :    0.027397
  16 S :    0.111055
  17 C :   -0.100367
  18 C :   -0.076981
  19 C :   -0.055925
  20 C :   -0.161314
  21 H :    0.035713
  22 C :    0.101821
  23 H :    0.000678
  24 H :    0.028946
  25 C :   -0.057770
  26 H :    0.017824
  27 H :    0.044910
  28 C :   -0.009516
  29 H :    0.034551
  30 H :    0.003896
  31 H :    0.021207
  32 H :    0.056010
  33 H :    0.069155
Sum of atomic charges:    0.0000000

LOEWDIN ATOMIC CHARGES
----------------------
   0 S :    0.394270
   1 C :   -0.219001
   2 C :   -0.047413
   3 C :   -0.080608
   4 C :   -0.172959
   5 H :    0.051639
   6 C :   -0.029543
   7 H :    0.035805
   8 H :    0.024217
   9 C :   -0.039010
  10 H :    0.027421
  11 H :    0.021316
  12 C :   -0.068288
  13 H :    0.024200
  14 H :    0.031976
  15 H :    0.024110
  16 S :    0.399469
  17 C :   -0.198264
  18 C :   -0.077695
  19 C :   -0.061364
  20 C :   -0.188822
  21 H :    0.038705
  22 C :   -0.034480
  23 H :    0.028756
  24 H :    0.037275
  25 C :   -0.039060
  26 H :    0.020655
  27 H :    0.028459
  28 C :   -0.058445
  29 H :    0.029825
  30 H :    0.015754
  31 H :    0.021345
  32 H :    0.024662
  33 H :    0.035093

  Mayer bond orders larger than 0.100000
B(  0-S ,  1-C ) :   1.1107 B(  0-S ,  4-C ) :   1.1589 B(  1-C ,  2-C ) :   1.6289
B(  1-C , 32-H ) :   0.9582 B(  2-C ,  3-C ) :   1.2394 B(  2-C ,  6-C ) :   1.0175
B(  3-C ,  4-C ) :   1.5818 B(  3-C ,  5-H ) :   0.9729 B(  4-C , 20-C ) :   1.0406
B(  6-C ,  7-H ) :   0.9382 B(  6-C ,  8-H ) :   0.9414 B(  6-C ,  9-C ) :   1.0712
B(  9-C , 10-H ) :   0.9543 B(  9-C , 11-H ) :   0.9507 B(  9-C , 12-C ) :   1.0711
B( 12-C , 13-H ) :   0.9763 B( 12-C , 14-H ) :   0.9768 B( 12-C , 15-H ) :   0.9749
B( 16-S , 17-C ) :   1.1814 B( 16-S , 20-C ) :   1.1365 B( 17-C , 18-C ) :   1.5694
B( 17-C , 20-C ) :   0.1114 B( 17-C , 33-H ) :   0.9566 B( 18-C , 19-C ) :   1.2996
B( 18-C , 21-H ) :   0.9793 B( 19-C , 20-C ) :   1.5269 B( 19-C , 22-C ) :   1.0512
B( 22-C , 23-H ) :   0.9227 B( 22-C , 24-H ) :   0.9127 B( 22-C , 25-C ) :   1.0808
B( 25-C , 26-H ) :   0.9507 B( 25-C , 27-H ) :   0.9462 B( 25-C , 28-C ) :   1.0926
B( 28-C , 29-H ) :   0.9661 B( 28-C , 30-H ) :   0.9733 B( 28-C , 31-H ) :   0.9702

Dispersion correction           -0.015705245
FINAL SINGLE POINT ENERGY     -1339.857703156691

DIPOLE MOMENT
-------------
                                X             Y             Z
Electronic contribution:    -26.00230      -3.93705       8.88954
Nuclear contribution   :     26.62555       4.29258      -9.17804
                        -----------------------------------------
Total Dipole Moment    :      0.62325       0.35553      -0.28851
                        -----------------------------------------
Magnitude (a.u.)       :      0.77336
Magnitude (Debye)      :      1.96571

Rotational constants in cm-1:     0.022122     0.008681     0.007250
Rotational constants in MHz :   663.204112   260.245672   217.345220

                             ****ORCA TERMINATED NORMALLY****
TOTAL RUN TIME: 0 days 0 hours 0 minutes 22 seconds 970 msec
