                         Program Version 4.2.1 -  RELEASE  -
|  1> ! wB97X-D3 SP def2-SVP
|  2> %pal
|  3> nprocs 24
|  4> end
|  5>
|  6> * xyz 0 1
|  7> S 	 -102.73 	 1.5559 	 -106.354
|  8> C 	 -103.419 	 1.74985 	 -104.739
|  9> C 	 -102.45 	 1.93377 	 -103.774
| 10> C 	 -101.112 	 1.80278 	 -104.336
| 11> C 	 -101.108 	 1.60453 	 -105.694
| 12> H 	 -100.254 	 1.77817 	 -103.751
| 13> C 	 -102.671 	 2.13623 	 -102.263
| 14> H 	 -103.091 	 3.10782 	 -102.042
| 15> H 	 -101.685 	 2.21653 	 -101.725
| 16> C 	 -103.674 	 1.12807 	 -101.637
| 17> H 	 -104.505 	 0.943253 	 -102.347
| 18> H 	 -103.148 	 0.204326 	 -101.403
| 19> C 	 -104.214 	 1.74667 	 -100.245
| 20> H 	 -105.041 	 1.19519 	 -99.7229
| 21> H 	 -103.372 	 1.90971 	 -99.5315
| 22> H 	 -104.681 	 2.70907 	 -100.411
| 23> S 	 -100.405 	 0.522405 	 -108.067
| 24> C 	 -98.8058 	 0.792337 	 -108.769
| 25> C 	 -98.0632 	 1.67095 	 -107.994
| 26> C 	 -98.6438 	 1.97668 	 -106.715
| 27> C 	 -99.9794 	 1.54346 	 -106.625
| 28> H 	 -97.1157 	 1.94468 	 -108.401
| 29> C 	 -97.977 	 2.78406 	 -105.667
| 30> H 	 -98.6702 	 3.43232 	 -105.272
| 31> H 	 -97.1751 	 3.34307 	 -106.116
| 32> C 	 -97.2723 	 1.94754 	 -104.649
| 33> H 	 -96.6848 	 1.18948 	 -105.1
| 34> H 	 -98.0372 	 1.35129 	 -104.123
| 35> C 	 -96.5872 	 2.8188 	 -103.522
| 36> H 	 -95.7089 	 3.30254 	 -103.888
| 37> H 	 -96.363 	 2.21208 	 -102.617
| 38> H 	 -97.3303 	 3.46346 	 -103.14
| 39> H 	 -104.483 	 1.81565 	 -104.422
| 40> H 	 -98.3946 	 0.445587 	 -109.691
| 41> *
| 42>
| 43>                          ****END OF INPUT****

CARTESIAN COORDINATES (ANGSTROEM)
---------------------------------
  S    -102.730000    1.555900  -106.354000
  C    -103.419000    1.749850  -104.739000
  C    -102.450000    1.933770  -103.774000
  C    -101.112000    1.802780  -104.336000
  C    -101.108000    1.604530  -105.694000
  H    -100.254000    1.778170  -103.751000
  C    -102.671000    2.136230  -102.263000
  H    -103.091000    3.107820  -102.042000
  H    -101.685000    2.216530  -101.725000
  C    -103.674000    1.128070  -101.637000
  H    -104.505000    0.943253  -102.347000
  H    -103.148000    0.204326  -101.403000
  C    -104.214000    1.746670  -100.245000
  H    -105.041000    1.195190  -99.722900
  H    -103.372000    1.909710  -99.531500
  H    -104.681000    2.709070  -100.411000
  S    -100.405000    0.522405  -108.067000
  C    -98.805800    0.792337  -108.769000
  C    -98.063200    1.670950  -107.994000
  C    -98.643800    1.976680  -106.715000
  C    -99.979400    1.543460  -106.625000
  H    -97.115700    1.944680  -108.401000
  C    -97.977000    2.784060  -105.667000
  H    -98.670200    3.432320  -105.272000
  H    -97.175100    3.343070  -106.116000
  C    -97.272300    1.947540  -104.649000
  H    -96.684800    1.189480  -105.100000
  H    -98.037200    1.351290  -104.123000
  C    -96.587200    2.818800  -103.522000
  H    -95.708900    3.302540  -103.888000
  H    -96.363000    2.212080  -102.617000
  H    -97.330300    3.463460  -103.140000
  H    -104.483000    1.815650  -104.422000
  H    -98.394600    0.445587  -109.691000

 Total Charge           Charge          ....    0
 Multiplicity           Mult            ....    1
 Number of Electrons    NEL             ....  134
 Basis Dimension        Dim             ....  322

ORBITAL ENERGIES
----------------

  NO   OCC          E(Eh)            E(eV)
   0   2.0000     -88.970308     -2421.0052
   1   2.0000     -88.964512     -2420.8474
   2   2.0000     -10.335404      -281.2406
   3   2.0000     -10.333531      -281.1897
   4   2.0000     -10.317466      -280.7525
   5   2.0000     -10.317017      -280.7403
   6   2.0000     -10.309438      -280.5341
   7   2.0000     -10.304879      -280.4100
   8   2.0000     -10.299635      -280.2673
   9   2.0000     -10.299246      -280.2567
  10   2.0000     -10.294931      -280.1393
  11   2.0000     -10.291399      -280.0432
  12   2.0000     -10.289658      -279.9958
  13   2.0000     -10.284595      -279.8581
  14   2.0000     -10.280219      -279.7390
  15   2.0000     -10.280007      -279.7332
  16   2.0000      -8.084489      -219.9901
  17   2.0000      -8.078045      -219.8148
  18   2.0000      -6.043298      -164.4465
  19   2.0000      -6.039129      -164.3331
  20   2.0000      -6.036732      -164.2678
  21   2.0000      -6.034875      -164.2173
  22   2.0000      -6.032716      -164.1585
  23   2.0000      -6.028685      -164.0489
  24   2.0000      -1.003525       -27.3073
  25   2.0000      -0.977767       -26.6064
  26   2.0000      -0.918544       -24.9949
  27   2.0000      -0.905439       -24.6383
  28   2.0000      -0.865265       -23.5451
  29   2.0000      -0.850928       -23.1549
  30   2.0000      -0.841533       -22.8993
  31   2.0000      -0.813709       -22.1422
  32   2.0000      -0.782371       -21.2894
  33   2.0000      -0.771329       -20.9889
  34   2.0000      -0.712217       -19.3804
  35   2.0000      -0.707211       -19.2442
  36   2.0000      -0.697783       -18.9876
  37   2.0000      -0.666857       -18.1461
  38   2.0000      -0.636150       -17.3105
  39   2.0000      -0.623700       -16.9717
  40   2.0000      -0.596721       -16.2376
  41   2.0000      -0.576427       -15.6854
  42   2.0000      -0.570598       -15.5268
  43   2.0000      -0.552921       -15.0457
  44   2.0000      -0.525722       -14.3056
  45   2.0000      -0.521598       -14.1934
  46   2.0000      -0.515520       -14.0280
  47   2.0000      -0.511633       -13.9222
  48   2.0000      -0.505677       -13.7602
  49   2.0000      -0.501253       -13.6398
  50   2.0000      -0.489059       -13.3080
  51   2.0000      -0.486706       -13.2439
  52   2.0000      -0.472625       -12.8608
  53   2.0000      -0.458909       -12.4875
  54   2.0000      -0.457831       -12.4582
  55   2.0000      -0.453411       -12.3379
  56   2.0000      -0.445783       -12.1304
  57   2.0000      -0.440003       -11.9731
  58   2.0000      -0.434919       -11.8347
  59   2.0000      -0.431771       -11.7491
  60   2.0000      -0.422248       -11.4899
  61   2.0000      -0.420899       -11.4532
  62   2.0000      -0.410199       -11.1621
  63   2.0000      -0.356661        -9.7052
  64   2.0000      -0.333427        -9.0730
  65   2.0000      -0.329046        -8.9538
  66   2.0000      -0.284135        -7.7317
  67   0.0000       0.020269         0.5515
  68   0.0000       0.070998         1.9320
  69   0.0000       0.098397         2.6775
  70   0.0000       0.120975         3.2919
  71   0.0000       0.130190         3.5427

MULLIKEN ATOMIC CHARGES
-----------------------
   0 S :    0.112656
   1 C :   -0.127751
   2 C :   -0.084481
   3 C :    0.014504
   4 C :   -0.076526
   5 H :   -0.029622
   6 C :    0.055383
   7 H :    0.026219
   8 H :    0.028682
   9 C :   -0.080039
  10 H :    0.042046
  11 H :    0.045822
  12 C :   -0.101209
  13 H :    0.045414
  14 H :    0.043436
  15 H :    0.028880
  16 S :    0.070431
  17 C :   -0.064600
  18 C :   -0.036165
  19 C :   -0.059698
  20 C :   -0.127141
  21 H :    0.008396
  22 C :    0.124139
  23 H :    0.009470
  24 H :    0.004520
  25 C :   -0.084730
  26 H :    0.018585
  27 H :    0.012196
  28 C :   -0.015535
  29 H :    0.039793
  30 H :    0.034884
  31 H :    0.018296
  32 H :    0.058705
  33 H :    0.045040
Sum of atomic charges:   -0.0000000

LOEWDIN ATOMIC CHARGES
----------------------
   0 S :    0.401115
   1 C :   -0.204814
   2 C :   -0.057573
   3 C :   -0.063435
   4 C :   -0.186269
   5 H :    0.015941
   6 C :   -0.037707
   7 H :    0.028907
   8 H :    0.034621
   9 C :   -0.031884
  10 H :    0.026174
  11 H :    0.026741
  12 C :   -0.079402
  13 H :    0.030734
  14 H :    0.029135
  15 H :    0.019766
  16 S :    0.365694
  17 C :   -0.174656
  18 C :   -0.068325
  19 C :   -0.046584
  20 C :   -0.165927
  21 H :    0.027959
  22 C :   -0.026669
  23 H :    0.020774
  24 H :    0.030213
  25 C :   -0.034318
  26 H :    0.019479
  27 H :    0.019531
  28 C :   -0.057985
  29 H :    0.021235
  30 H :    0.032614
  31 H :    0.020641
  32 H :    0.037098
  33 H :    0.027177

  Mayer bond orders larger than 0.100000
B(  0-S ,  1-C ) :   1.1141 B(  0-S ,  4-C ) :   1.1373 B(  1-C ,  2-C ) :   1.6533
B(  1-C , 32-H ) :   0.9564 B(  2-C ,  3-C ) :   1.2228 B(  2-C ,  6-C ) :   1.0129
B(  3-C ,  4-C ) :   1.5837 B(  3-C ,  5-H ) :   1.0086 B(  4-C , 20-C ) :   1.0497
B(  6-C ,  7-H ) :   0.9419 B(  6-C ,  8-H ) :   0.9444 B(  6-C ,  9-C ) :   1.0433
B(  9-C , 10-H ) :   0.9624 B(  9-C , 11-H ) :   0.9610 B(  9-C , 12-C ) :   1.0593
B( 12-C , 13-H ) :   0.9774 B( 12-C , 14-H ) :   0.9777 B( 12-C , 15-H ) :   0.9776
B( 16-S , 17-C ) :   1.1378 B( 16-S , 20-C ) :   1.1129 B( 17-C , 18-C ) :   1.6434
B( 17-C , 20-C ) :   0.1019 B( 17-C , 33-H ) :   0.9656 B( 18-C , 19-C ) :   1.2130
B( 18-C , 21-H ) :   0.9913 B( 19-C , 20-C ) :   1.5950 B( 19-C , 22-C ) :   1.0565
B( 22-C , 23-H ) :   0.9284 B( 22-C , 24-H ) :   0.9233 B( 22-C , 25-C ) :   1.0666
B( 25-C , 26-H ) :   0.9515 B( 25-C , 27-H ) :   0.9524 B( 25-C , 28-C ) :   1.0714
B( 28-C , 29-H ) :   0.9790 B( 28-C , 30-H ) :   0.9752 B( 28-C , 31-H ) :   0.9716

Dispersion correction           -0.013662626
FINAL SINGLE POINT ENERGY     -1339.867387124831

DIPOLE MOMENT
-------------
                                X             Y             Z
Electronic contribution:     -6.30108      -6.33718     -29.25891
Nuclear contribution   :      6.67363       6.59564      29.82180
                        -----------------------------------------
Total Dipole Moment    :      0.37255       0.25846       0.56289
                        -----------------------------------------
Magnitude (a.u.)       :      0.72280
Magnitude (Debye)      :      1.83721

Rotational constants in cm-1:     0.019085     0.008118     0.005916
Rotational constants in MHz :   572.140630   243.366558   177.355741

                             ****ORCA TERMINATED NORMALLY****
TOTAL RUN TIME: 0 days 0 hours 0 minutes 20 seconds 48 msec
