                         Program Version 4.2.1 -  RELEASE  -
|  1> ! wB97X-D3 SP def2-SVP
|  2> %pal
|  3> nprocs 24
|  4> end
|  5>
|  6> * xyz 0 1
|  7> S 	 -135.929 	 9.90771 	 -15.0957
|  8> C 	 -136.25 	 10.3292 	 -13.3504
|  9> C 	 -135.336 	 11.3399 	 -12.9298
| 10> C 	 -134.457 	 11.749 	 -13.9744
| 11> C 	 -134.664 	 11.1387 	 -15.1814
| 12> H 	 -133.742 	 12.5216 	 -13.887
| 13> C 	 -135.116 	 11.7999 	 -11.466
| 14> H 	 -134.123 	 12.2945 	 -11.5902
| 15> H 	 -135.005 	 10.8635 	 -10.8717
| 16> C 	 -136.113 	 12.8084 	 -10.9406
| 17> H 	 -135.735 	 13.4027 	 -10.0774
| 18> H 	 -136.247 	 13.5656 	 -11.7309
| 19> C 	 -137.549 	 12.2629 	 -10.6998
| 20> H 	 -138.058 	 11.9954 	 -11.6687
| 21> H 	 -137.614 	 11.3748 	 -10.0879
| 22> H 	 -138.274 	 13.0091 	 -10.284
| 23> S 	 -132.872 	 12.9547 	 -16.2558
| 24> C 	 -132.346 	 12.7347 	 -17.8912
| 25> C 	 -132.763 	 11.5346 	 -18.4475
| 26> C 	 -133.731 	 10.8455 	 -17.5968
| 27> C 	 -133.902 	 11.4854 	 -16.3718
| 28> H 	 -132.412 	 11.3571 	 -19.4297
| 29> C 	 -134.337 	 9.51094 	 -18.0231
| 30> H 	 -134.493 	 9.38665 	 -19.0865
| 31> H 	 -135.347 	 9.41193 	 -17.6927
| 32> C 	 -133.475 	 8.29964 	 -17.5153
| 33> H 	 -133.486 	 8.35526 	 -16.3656
| 34> H 	 -132.434 	 8.28336 	 -17.7397
| 35> C 	 -134.04 	 6.96228 	 -17.9438
| 36> H 	 -134.238 	 6.94091 	 -18.9968
| 37> H 	 -135.033 	 6.77204 	 -17.4145
| 38> H 	 -133.336 	 6.14789 	 -17.6929
| 39> H 	 -136.769 	 9.72864 	 -12.6976
| 40> H 	 -131.604 	 13.4048 	 -18.3549
| 41> *
| 42>
| 43>                          ****END OF INPUT****

CARTESIAN COORDINATES (ANGSTROEM)
---------------------------------
  S    -135.929000    9.907710  -15.095700
  C    -136.250000   10.329200  -13.350400
  C    -135.336000   11.339900  -12.929800
  C    -134.457000   11.749000  -13.974400
  C    -134.664000   11.138700  -15.181400
  H    -133.742000   12.521600  -13.887000
  C    -135.116000   11.799900  -11.466000
  H    -134.123000   12.294500  -11.590200
  H    -135.005000   10.863500  -10.871700
  C    -136.113000   12.808400  -10.940600
  H    -135.735000   13.402700  -10.077400
  H    -136.247000   13.565600  -11.730900
  C    -137.549000   12.262900  -10.699800
  H    -138.058000   11.995400  -11.668700
  H    -137.614000   11.374800  -10.087900
  H    -138.274000   13.009100  -10.284000
  S    -132.872000   12.954700  -16.255800
  C    -132.346000   12.734700  -17.891200
  C    -132.763000   11.534600  -18.447500
  C    -133.731000   10.845500  -17.596800
  C    -133.902000   11.485400  -16.371800
  H    -132.412000   11.357100  -19.429700
  C    -134.337000    9.510940  -18.023100
  H    -134.493000    9.386650  -19.086500
  H    -135.347000    9.411930  -17.692700
  C    -133.475000    8.299640  -17.515300
  H    -133.486000    8.355260  -16.365600
  H    -132.434000    8.283360  -17.739700
  C    -134.040000    6.962280  -17.943800
  H    -134.238000    6.940910  -18.996800
  H    -135.033000    6.772040  -17.414500
  H    -133.336000    6.147890  -17.692900
  H    -136.769000    9.728640  -12.697600
  H    -131.604000   13.404800  -18.354900

 Total Charge           Charge          ....    0
 Multiplicity           Mult            ....    1
 Number of Electrons    NEL             ....  134
 Basis Dimension        Dim             ....  322

ORBITAL ENERGIES
----------------

  NO   OCC          E(Eh)            E(eV)
   0   2.0000     -88.971948     -2421.0498
   1   2.0000     -88.967556     -2420.9303
   2   2.0000     -10.334003      -281.2025
   3   2.0000     -10.333462      -281.1878
   4   2.0000     -10.320589      -280.8375
   5   2.0000     -10.316413      -280.7239
   6   2.0000     -10.313928      -280.6562
   7   2.0000     -10.308819      -280.5172
   8   2.0000     -10.300908      -280.3020
   9   2.0000     -10.296996      -280.1955
  10   2.0000     -10.294674      -280.1323
  11   2.0000     -10.292970      -280.0860
  12   2.0000     -10.288963      -279.9769
  13   2.0000     -10.287008      -279.9237
  14   2.0000     -10.282294      -279.7954
  15   2.0000     -10.278446      -279.6907
  16   2.0000      -8.084299      -219.9850
  17   2.0000      -8.081843      -219.9181
  18   2.0000      -6.043038      -164.4394
  19   2.0000      -6.040481      -164.3698
  20   2.0000      -6.039159      -164.3339
  21   2.0000      -6.036548      -164.2628
  22   2.0000      -6.034962      -164.2197
  23   2.0000      -6.032396      -164.1498
  24   2.0000      -1.002083       -27.2681
  25   2.0000      -0.975827       -26.5536
  26   2.0000      -0.908880       -24.7319
  27   2.0000      -0.905543       -24.6411
  28   2.0000      -0.866587       -23.5810
  29   2.0000      -0.853448       -23.2235
  30   2.0000      -0.842292       -22.9199
  31   2.0000      -0.809466       -22.0267
  32   2.0000      -0.783327       -21.3154
  33   2.0000      -0.773535       -21.0489
  34   2.0000      -0.705038       -19.1851
  35   2.0000      -0.700180       -19.0529
  36   2.0000      -0.693001       -18.8575
  37   2.0000      -0.668702       -18.1963
  38   2.0000      -0.634161       -17.2564
  39   2.0000      -0.619097       -16.8465
  40   2.0000      -0.598913       -16.2972
  41   2.0000      -0.564016       -15.3477
  42   2.0000      -0.558326       -15.1928
  43   2.0000      -0.545902       -14.8548
  44   2.0000      -0.535935       -14.5835
  45   2.0000      -0.528334       -14.3767
  46   2.0000      -0.519090       -14.1252
  47   2.0000      -0.513805       -13.9813
  48   2.0000      -0.508880       -13.8473
  49   2.0000      -0.495969       -13.4960
  50   2.0000      -0.486106       -13.2276
  51   2.0000      -0.479294       -13.0423
  52   2.0000      -0.468361       -12.7447
  53   2.0000      -0.460713       -12.5366
  54   2.0000      -0.456034       -12.4093
  55   2.0000      -0.451924       -12.2975
  56   2.0000      -0.440531       -11.9875
  57   2.0000      -0.440261       -11.9801
  58   2.0000      -0.438226       -11.9247
  59   2.0000      -0.424459       -11.5501
  60   2.0000      -0.419241       -11.4081
  61   2.0000      -0.409995       -11.1565
  62   2.0000      -0.404671       -11.0116
  63   2.0000      -0.360848        -9.8192
  64   2.0000      -0.336663        -9.1611
  65   2.0000      -0.330313        -8.9883
  66   2.0000      -0.280376        -7.6294
  67   0.0000       0.013834         0.3765
  68   0.0000       0.079093         2.1522
  69   0.0000       0.097930         2.6648
  70   0.0000       0.107792         2.9332
  71   0.0000       0.128271         3.4904

MULLIKEN ATOMIC CHARGES
-----------------------
   0 S :    0.086578
   1 C :   -0.086571
   2 C :   -0.102945
   3 C :   -0.033556
   4 C :   -0.066471
   5 H :    0.008924
   6 C :    0.045152
   7 H :    0.030563
   8 H :    0.050788
   9 C :   -0.044925
  10 H :    0.042875
  11 H :    0.029602
  12 C :   -0.095765
  13 H :    0.041026
  14 H :    0.027981
  15 H :    0.041698
  16 S :    0.074123
  17 C :   -0.092803
  18 C :   -0.015274
  19 C :   -0.059905
  20 C :   -0.112592
  21 H :    0.009097
  22 C :    0.067202
  23 H :    0.016216
  24 H :    0.018893
  25 C :   -0.089502
  26 H :    0.037164
  27 H :    0.025650
  28 C :   -0.049281
  29 H :    0.023756
  30 H :    0.037975
  31 H :    0.041451
  32 H :    0.024427
  33 H :    0.068449
Sum of atomic charges:   -0.0000000

LOEWDIN ATOMIC CHARGES
----------------------
   0 S :    0.381398
   1 C :   -0.176377
   2 C :   -0.045855
   3 C :   -0.080609
   4 C :   -0.170897
   5 H :    0.014938
   6 C :   -0.032762
   7 H :    0.037906
   8 H :    0.036430
   9 C :   -0.047281
  10 H :    0.029284
  11 H :    0.031531
  12 C :   -0.080182
  13 H :    0.031626
  14 H :    0.017342
  15 H :    0.032565
  16 S :    0.392901
  17 C :   -0.185630
  18 C :   -0.065282
  19 C :   -0.047345
  20 C :   -0.173494
  21 H :    0.027768
  22 C :   -0.034147
  23 H :    0.029222
  24 H :    0.018606
  25 C :   -0.043080
  26 H :    0.029514
  27 H :    0.019272
  28 C :   -0.070113
  29 H :    0.017465
  30 H :    0.031882
  31 H :    0.030371
  32 H :    0.008666
  33 H :    0.034367

  Mayer bond orders larger than 0.100000
B(  0-S ,  1-C ) :   1.1093 B(  0-S ,  4-C ) :   1.1295 B(  1-C ,  2-C ) :   1.6034
B(  1-C , 32-H ) :   0.9734 B(  2-C ,  3-C ) :   1.2693 B(  2-C ,  6-C ) :   0.9976
B(  3-C ,  4-C ) :   1.5593 B(  3-C ,  5-H ) :   0.9789 B(  4-C , 20-C ) :   1.1103
B(  6-C ,  7-H ) :   0.9415 B(  6-C ,  8-H ) :   0.9479 B(  6-C ,  9-C ) :   1.0664
B(  9-C , 10-H ) :   0.9590 B(  9-C , 11-H ) :   0.9503 B(  9-C , 12-C ) :   1.0688
B( 12-C , 13-H ) :   0.9710 B( 12-C , 14-H ) :   0.9793 B( 12-C , 15-H ) :   0.9739
B( 16-S , 17-C ) :   1.1493 B( 16-S , 20-C ) :   1.1198 B( 17-C , 18-C ) :   1.6413
B( 17-C , 33-H ) :   0.9616 B( 18-C , 19-C ) :   1.2000 B( 18-C , 21-H ) :   0.9982
B( 19-C , 20-C ) :   1.5928 B( 19-C , 22-C ) :   1.0528 B( 22-C , 23-H ) :   0.9340
B( 22-C , 24-H ) :   0.9317 B( 22-C , 25-C ) :   1.0434 B( 25-C , 26-H ) :   0.9533
B( 25-C , 27-H ) :   0.9612 B( 25-C , 28-C ) :   1.0848 B( 28-C , 29-H ) :   0.9734
B( 28-C , 30-H ) :   0.9731 B( 28-C , 31-H ) :   0.9734

Dispersion correction           -0.014260906
FINAL SINGLE POINT ENERGY     -1339.876932004466

DIPOLE MOMENT
-------------
                                X             Y             Z
Electronic contribution:      5.86277       8.81316      -8.59700
Nuclear contribution   :     -5.61308      -8.90958       8.60346
                        -----------------------------------------
Total Dipole Moment    :      0.24969      -0.09642       0.00646
                        -----------------------------------------
Magnitude (a.u.)       :      0.26774
Magnitude (Debye)      :      0.68054

Rotational constants in cm-1:     0.021433     0.008104     0.006214
Rotational constants in MHz :   642.548279   242.938326   186.291018

                             ****ORCA TERMINATED NORMALLY****
TOTAL RUN TIME: 0 days 0 hours 0 minutes 20 seconds 121 msec
