                         Program Version 4.2.1 -  RELEASE  -
|  1> ! wB97X-D3 SP def2-SVP
|  2> %pal
|  3> nprocs 24
|  4> end
|  5>
|  6> * xyz 0 1
|  7> S 	 -111.18 	 53.9872 	 -78.2205
|  8> C 	 -112.016 	 53.0088 	 -79.4362
|  9> C 	 -112.853 	 52.0663 	 -78.8544
| 10> C 	 -112.747 	 52.0388 	 -77.4321
| 11> C 	 -111.959 	 53.0599 	 -76.9021
| 12> H 	 -113.326 	 51.4477 	 -76.7183
| 13> C 	 -113.685 	 51.1244 	 -79.6225
| 14> H 	 -114.042 	 51.6565 	 -80.487
| 15> H 	 -114.611 	 50.961 	 -79.0858
| 16> C 	 -113.059 	 49.7981 	 -79.9691
| 17> H 	 -112.814 	 49.2309 	 -79.0282
| 18> H 	 -113.813 	 49.1568 	 -80.5142
| 19> C 	 -111.78 	 49.7701 	 -80.8192
| 20> H 	 -111.958 	 50.0483 	 -81.8414
| 21> H 	 -110.921 	 50.3565 	 -80.5092
| 22> H 	 -111.327 	 48.7301 	 -80.8558
| 23> S 	 -109.78 	 52.4227 	 -75.3407
| 24> C 	 -109.925 	 52.2603 	 -73.6154
| 25> C 	 -111.157 	 52.7877 	 -73.2192
| 26> C 	 -111.938 	 53.2281 	 -74.2822
| 27> C 	 -111.415 	 53.0219 	 -75.5582
| 28> H 	 -111.419 	 52.8004 	 -72.163
| 29> C 	 -113.295 	 53.8887 	 -74.0983
| 30> H 	 -113.521 	 54.4718 	 -74.9351
| 31> H 	 -113.315 	 54.5238 	 -73.2855
| 32> C 	 -114.508 	 52.9083 	 -74.2108
| 33> H 	 -114.306 	 52.2395 	 -75.1123
| 34> H 	 -115.468 	 53.4608 	 -74.5028
| 35> C 	 -114.778 	 52.1135 	 -72.9249
| 36> H 	 -113.875 	 51.4784 	 -72.666
| 37> H 	 -115.509 	 51.4257 	 -72.9359
| 38> H 	 -115.044 	 52.7409 	 -72.1077
| 39> H 	 -112.129 	 53.2172 	 -80.4796
| 40> H 	 -109.226 	 51.9647 	 -72.9062
| 41> *
| 42>
| 43>                          ****END OF INPUT****

CARTESIAN COORDINATES (ANGSTROEM)
---------------------------------
  S    -111.180000   53.987200  -78.220500
  C    -112.016000   53.008800  -79.436200
  C    -112.853000   52.066300  -78.854400
  C    -112.747000   52.038800  -77.432100
  C    -111.959000   53.059900  -76.902100
  H    -113.326000   51.447700  -76.718300
  C    -113.685000   51.124400  -79.622500
  H    -114.042000   51.656500  -80.487000
  H    -114.611000   50.961000  -79.085800
  C    -113.059000   49.798100  -79.969100
  H    -112.814000   49.230900  -79.028200
  H    -113.813000   49.156800  -80.514200
  C    -111.780000   49.770100  -80.819200
  H    -111.958000   50.048300  -81.841400
  H    -110.921000   50.356500  -80.509200
  H    -111.327000   48.730100  -80.855800
  S    -109.780000   52.422700  -75.340700
  C    -109.925000   52.260300  -73.615400
  C    -111.157000   52.787700  -73.219200
  C    -111.938000   53.228100  -74.282200
  C    -111.415000   53.021900  -75.558200
  H    -111.419000   52.800400  -72.163000
  C    -113.295000   53.888700  -74.098300
  H    -113.521000   54.471800  -74.935100
  H    -113.315000   54.523800  -73.285500
  C    -114.508000   52.908300  -74.210800
  H    -114.306000   52.239500  -75.112300
  H    -115.468000   53.460800  -74.502800
  C    -114.778000   52.113500  -72.924900
  H    -113.875000   51.478400  -72.666000
  H    -115.509000   51.425700  -72.935900
  H    -115.044000   52.740900  -72.107700
  H    -112.129000   53.217200  -80.479600
  H    -109.226000   51.964700  -72.906200

 Total Charge           Charge          ....    0
 Multiplicity           Mult            ....    1
 Number of Electrons    NEL             ....  134
 Basis Dimension        Dim             ....  322

ORBITAL ENERGIES
----------------

  NO   OCC          E(Eh)            E(eV)
   0   2.0000     -88.970954     -2421.0227
   1   2.0000     -88.963599     -2420.8226
   2   2.0000     -10.334672      -281.2207
   3   2.0000     -10.325139      -280.9613
   4   2.0000     -10.318410      -280.7782
   5   2.0000     -10.313362      -280.6408
   6   2.0000     -10.301485      -280.3176
   7   2.0000     -10.300791      -280.2988
   8   2.0000     -10.298893      -280.2471
   9   2.0000     -10.296594      -280.1846
  10   2.0000     -10.296154      -280.1726
  11   2.0000     -10.290376      -280.0154
  12   2.0000     -10.288318      -279.9594
  13   2.0000     -10.277506      -279.6652
  14   2.0000     -10.277476      -279.6643
  15   2.0000     -10.266716      -279.3715
  16   2.0000      -8.084489      -219.9901
  17   2.0000      -8.078280      -219.8212
  18   2.0000      -6.043158      -164.4427
  19   2.0000      -6.039074      -164.3316
  20   2.0000      -6.036708      -164.2672
  21   2.0000      -6.035241      -164.2273
  22   2.0000      -6.032601      -164.1554
  23   2.0000      -6.029285      -164.0652
  24   2.0000      -1.006219       -27.3806
  25   2.0000      -0.984009       -26.7762
  26   2.0000      -0.916506       -24.9394
  27   2.0000      -0.904200       -24.6045
  28   2.0000      -0.869590       -23.6627
  29   2.0000      -0.848012       -23.0756
  30   2.0000      -0.844603       -22.9828
  31   2.0000      -0.817065       -22.2335
  32   2.0000      -0.788521       -21.4568
  33   2.0000      -0.778707       -21.1897
  34   2.0000      -0.713254       -19.4086
  35   2.0000      -0.698250       -19.0003
  36   2.0000      -0.691915       -18.8280
  37   2.0000      -0.663056       -18.0427
  38   2.0000      -0.644937       -17.5496
  39   2.0000      -0.617080       -16.7916
  40   2.0000      -0.595428       -16.2024
  41   2.0000      -0.573312       -15.6006
  42   2.0000      -0.552718       -15.0402
  43   2.0000      -0.547287       -14.8924
  44   2.0000      -0.545326       -14.8391
  45   2.0000      -0.537697       -14.6315
  46   2.0000      -0.520615       -14.1667
  47   2.0000      -0.514948       -14.0125
  48   2.0000      -0.510166       -13.8823
  49   2.0000      -0.498449       -13.5635
  50   2.0000      -0.490715       -13.3530
  51   2.0000      -0.476752       -12.9731
  52   2.0000      -0.471706       -12.8358
  53   2.0000      -0.466430       -12.6922
  54   2.0000      -0.460837       -12.5400
  55   2.0000      -0.444480       -12.0949
  56   2.0000      -0.438915       -11.9435
  57   2.0000      -0.435353       -11.8466
  58   2.0000      -0.428740       -11.6666
  59   2.0000      -0.421617       -11.4728
  60   2.0000      -0.418482       -11.3875
  61   2.0000      -0.416639       -11.3373
  62   2.0000      -0.409378       -11.1397
  63   2.0000      -0.344336        -9.3698
  64   2.0000      -0.329285        -8.9603
  65   2.0000      -0.327426        -8.9097
  66   2.0000      -0.298507        -8.1228
  67   0.0000       0.029942         0.8148
  68   0.0000       0.050935         1.3860
  69   0.0000       0.109825         2.9885
  70   0.0000       0.122802         3.3416
  71   0.0000       0.129332         3.5193

MULLIKEN ATOMIC CHARGES
-----------------------
   0 S :    0.107307
   1 C :   -0.092027
   2 C :   -0.115570
   3 C :    0.044952
   4 C :   -0.178235
   5 H :    0.033847
   6 C :    0.108730
   7 H :    0.010537
   8 H :    0.018289
   9 C :   -0.079991
  10 H :    0.036886
  11 H :    0.040557
  12 C :   -0.069355
  13 H :    0.021047
  14 H :    0.038985
  15 H :    0.036447
  16 S :    0.117948
  17 C :   -0.069356
  18 C :   -0.051371
  19 C :   -0.042130
  20 C :   -0.154888
  21 H :    0.021292
  22 C :    0.145363
  23 H :    0.007372
  24 H :    0.004281
  25 C :   -0.119752
  26 H :    0.018011
  27 H :    0.036893
  28 C :   -0.001520
  29 H :    0.029174
  30 H :   -0.001319
  31 H :    0.020166
  32 H :    0.043867
  33 H :    0.033566
Sum of atomic charges:   -0.0000000

LOEWDIN ATOMIC CHARGES
----------------------
   0 S :    0.388061
   1 C :   -0.182702
   2 C :   -0.063741
   3 C :   -0.044829
   4 C :   -0.192285
   5 H :    0.032876
   6 C :   -0.038812
   7 H :    0.028900
   8 H :    0.034455
   9 C :   -0.043865
  10 H :    0.030471
  11 H :    0.033087
  12 C :   -0.076271
  13 H :    0.017994
  14 H :    0.024642
  15 H :    0.036117
  16 S :    0.420790
  17 C :   -0.181628
  18 C :   -0.076981
  19 C :   -0.058219
  20 C :   -0.203984
  21 H :    0.033357
  22 C :   -0.019173
  23 H :    0.028177
  24 H :    0.018138
  25 C :   -0.039220
  26 H :    0.025612
  27 H :    0.028027
  28 C :   -0.067506
  29 H :    0.033182
  30 H :    0.006825
  31 H :    0.021880
  32 H :    0.026894
  33 H :    0.019731

  Mayer bond orders larger than 0.100000
B(  0-S ,  1-C ) :   1.1377 B(  0-S ,  4-C ) :   1.1409 B(  1-C ,  2-C ) :   1.6083
B(  1-C , 32-H ) :   0.9610 B(  2-C ,  3-C ) :   1.2442 B(  2-C ,  6-C ) :   1.0381
B(  3-C ,  4-C ) :   1.5755 B(  3-C ,  5-H ) :   0.9757 B(  4-C , 20-C ) :   1.0185
B(  6-C ,  7-H ) :   0.9306 B(  6-C ,  8-H ) :   0.9284 B(  6-C ,  9-C ) :   1.0752
B(  9-C , 10-H ) :   0.9552 B(  9-C , 11-H ) :   0.9522 B(  9-C , 12-C ) :   1.0776
B( 12-C , 13-H ) :   0.9753 B( 12-C , 14-H ) :   0.9731 B( 12-C , 15-H ) :   0.9726
B( 16-S , 17-C ) :   1.1797 B( 16-S , 20-C ) :   1.1471 B( 17-C , 18-C ) :   1.5579
B( 17-C , 20-C ) :   0.1122 B( 17-C , 33-H ) :   0.9748 B( 18-C , 19-C ) :   1.2881
B( 18-C , 21-H ) :   0.9923 B( 19-C , 20-C ) :   1.5660 B( 19-C , 22-C ) :   1.0493
B( 22-C , 23-H ) :   0.9218 B( 22-C , 24-H ) :   0.9444 B( 22-C , 25-C ) :   1.0542
B( 25-C , 26-H ) :   0.9512 B( 25-C , 27-H ) :   0.9565 B( 25-C , 28-C ) :   1.0776
B( 28-C , 29-H ) :   0.9706 B( 28-C , 30-H ) :   0.9712 B( 28-C , 31-H ) :   0.9736

Dispersion correction           -0.015042033
FINAL SINGLE POINT ENERGY     -1339.863208907041

DIPOLE MOMENT
-------------
                                X             Y             Z
Electronic contribution:     18.29669      12.74281       1.56014
Nuclear contribution   :    -18.84657     -13.04422      -1.54726
                        -----------------------------------------
Total Dipole Moment    :     -0.54989      -0.30141       0.01288
                        -----------------------------------------
Magnitude (a.u.)       :      0.62720
Magnitude (Debye)      :      1.59423

Rotational constants in cm-1:     0.019644     0.008510     0.007358
Rotational constants in MHz :   588.922685   255.125311   220.581014

                             ****ORCA TERMINATED NORMALLY****
TOTAL RUN TIME: 0 days 0 hours 0 minutes 22 seconds 84 msec
