                         Program Version 4.2.1 -  RELEASE  -
|  1> ! wB97X-D3 SP def2-SVP
|  2> %pal
|  3> nprocs 24
|  4> end
|  5>
|  6> * xyz 0 1
|  7> S 	 -126.652 	 58.8829 	 -60.2246
|  8> C 	 -127.805 	 60.1259 	 -60.4968
|  9> C 	 -128.858 	 60.043 	 -59.5586
| 10> C 	 -128.435 	 59.2353 	 -58.4607
| 11> C 	 -127.148 	 58.74 	 -58.5826
| 12> H 	 -129.049 	 58.975 	 -57.5875
| 13> C 	 -130.233 	 60.745 	 -59.6406
| 14> H 	 -130.929 	 59.9087 	 -59.8244
| 15> H 	 -130.334 	 61.4607 	 -60.4697
| 16> C 	 -130.536 	 61.5153 	 -58.3306
| 17> H 	 -130.547 	 60.7702 	 -57.5362
| 18> H 	 -129.791 	 62.269 	 -58.1095
| 19> C 	 -131.889 	 62.2033 	 -58.3091
| 20> H 	 -131.888 	 63.0612 	 -58.9949
| 21> H 	 -132.68 	 61.5416 	 -58.6792
| 22> H 	 -132.135 	 62.6168 	 -57.2953
| 23> S 	 -127.076 	 56.1722 	 -57.8847
| 24> C 	 -126.016 	 55.6374 	 -56.5843
| 25> C 	 -125.261 	 56.6354 	 -56.1223
| 26> C 	 -125.585 	 57.9178 	 -56.7097
| 27> C 	 -126.452 	 57.8313 	 -57.7555
| 28> H 	 -124.738 	 56.452 	 -55.2242
| 29> C 	 -124.985 	 59.1414 	 -56.1113
| 30> H 	 -123.92 	 59.0022 	 -56.2503
| 31> H 	 -125.179 	 59.1893 	 -54.9945
| 32> C 	 -125.423 	 60.58 	 -56.5689
| 33> H 	 -126.514 	 60.6568 	 -56.3617
| 34> H 	 -125.317 	 60.5938 	 -57.7005
| 35> C 	 -124.659 	 61.7621 	 -55.981
| 36> H 	 -125.092 	 62.747 	 -56.0498
| 37> H 	 -123.663 	 61.9233 	 -56.4608
| 38> H 	 -124.426 	 61.6238 	 -54.9516
| 39> H 	 -128.079 	 60.6343 	 -61.4757
| 40> H 	 -126.078 	 54.6745 	 -56.0934
| 41> *
| 42>
| 43>                          ****END OF INPUT****

CARTESIAN COORDINATES (ANGSTROEM)
---------------------------------
  S    -126.652000   58.882900  -60.224600
  C    -127.805000   60.125900  -60.496800
  C    -128.858000   60.043000  -59.558600
  C    -128.435000   59.235300  -58.460700
  C    -127.148000   58.740000  -58.582600
  H    -129.049000   58.975000  -57.587500
  C    -130.233000   60.745000  -59.640600
  H    -130.929000   59.908700  -59.824400
  H    -130.334000   61.460700  -60.469700
  C    -130.536000   61.515300  -58.330600
  H    -130.547000   60.770200  -57.536200
  H    -129.791000   62.269000  -58.109500
  C    -131.889000   62.203300  -58.309100
  H    -131.888000   63.061200  -58.994900
  H    -132.680000   61.541600  -58.679200
  H    -132.135000   62.616800  -57.295300
  S    -127.076000   56.172200  -57.884700
  C    -126.016000   55.637400  -56.584300
  C    -125.261000   56.635400  -56.122300
  C    -125.585000   57.917800  -56.709700
  C    -126.452000   57.831300  -57.755500
  H    -124.738000   56.452000  -55.224200
  C    -124.985000   59.141400  -56.111300
  H    -123.920000   59.002200  -56.250300
  H    -125.179000   59.189300  -54.994500
  C    -125.423000   60.580000  -56.568900
  H    -126.514000   60.656800  -56.361700
  H    -125.317000   60.593800  -57.700500
  C    -124.659000   61.762100  -55.981000
  H    -125.092000   62.747000  -56.049800
  H    -123.663000   61.923300  -56.460800
  H    -124.426000   61.623800  -54.951600
  H    -128.079000   60.634300  -61.475700
  H    -126.078000   54.674500  -56.093400

 Total Charge           Charge          ....    0
 Multiplicity           Mult            ....    1
 Number of Electrons    NEL             ....  134
 Basis Dimension        Dim             ....  322

ORBITAL ENERGIES
----------------

  NO   OCC          E(Eh)            E(eV)
   0   2.0000     -88.964294     -2420.8415
   1   2.0000     -88.957609     -2420.6596
   2   2.0000     -10.321489      -280.8620
   3   2.0000     -10.319751      -280.8147
   4   2.0000     -10.314116      -280.6614
   5   2.0000     -10.313839      -280.6538
   6   2.0000     -10.305860      -280.4367
   7   2.0000     -10.304312      -280.3946
   8   2.0000     -10.301028      -280.3052
   9   2.0000     -10.294994      -280.1410
  10   2.0000     -10.294626      -280.1310
  11   2.0000     -10.290347      -280.0146
  12   2.0000     -10.286350      -279.9058
  13   2.0000     -10.285527      -279.8834
  14   2.0000     -10.281204      -279.7658
  15   2.0000     -10.274705      -279.5889
  16   2.0000      -8.079948      -219.8666
  17   2.0000      -8.072469      -219.6630
  18   2.0000      -6.038260      -164.3094
  19   2.0000      -6.034632      -164.2107
  20   2.0000      -6.031195      -164.1172
  21   2.0000      -6.030526      -164.0990
  22   2.0000      -6.027038      -164.0041
  23   2.0000      -6.022894      -163.8913
  24   2.0000      -1.013537       -27.5797
  25   2.0000      -0.986910       -26.8552
  26   2.0000      -0.911540       -24.8043
  27   2.0000      -0.901297       -24.5255
  28   2.0000      -0.876892       -23.8614
  29   2.0000      -0.848173       -23.0800
  30   2.0000      -0.847192       -23.0533
  31   2.0000      -0.814233       -22.1564
  32   2.0000      -0.782551       -21.2943
  33   2.0000      -0.769605       -20.9420
  34   2.0000      -0.714195       -19.4342
  35   2.0000      -0.697027       -18.9671
  36   2.0000      -0.683587       -18.6013
  37   2.0000      -0.659572       -17.9479
  38   2.0000      -0.637826       -17.3561
  39   2.0000      -0.619284       -16.8516
  40   2.0000      -0.591375       -16.0921
  41   2.0000      -0.568991       -15.4830
  42   2.0000      -0.565850       -15.3976
  43   2.0000      -0.560918       -15.2634
  44   2.0000      -0.527855       -14.3637
  45   2.0000      -0.520976       -14.1765
  46   2.0000      -0.516816       -14.0633
  47   2.0000      -0.508211       -13.8291
  48   2.0000      -0.500500       -13.6193
  49   2.0000      -0.497363       -13.5339
  50   2.0000      -0.492968       -13.4143
  51   2.0000      -0.484183       -13.1753
  52   2.0000      -0.471861       -12.8400
  53   2.0000      -0.461773       -12.5655
  54   2.0000      -0.458768       -12.4837
  55   2.0000      -0.453223       -12.3328
  56   2.0000      -0.446244       -12.1429
  57   2.0000      -0.438619       -11.9354
  58   2.0000      -0.427400       -11.6302
  59   2.0000      -0.424397       -11.5484
  60   2.0000      -0.415446       -11.3049
  61   2.0000      -0.414362       -11.2754
  62   2.0000      -0.406685       -11.0665
  63   2.0000      -0.335856        -9.1391
  64   2.0000      -0.323950        -8.8151
  65   2.0000      -0.317775        -8.6471
  66   2.0000      -0.308294        -8.3891
  67   0.0000       0.037188         1.0119
  68   0.0000       0.057835         1.5738
  69   0.0000       0.103273         2.8102
  70   0.0000       0.118992         3.2379
  71   0.0000       0.131129         3.5682

MULLIKEN ATOMIC CHARGES
-----------------------
   0 S :    0.127683
   1 C :   -0.112921
   2 C :   -0.124661
   3 C :    0.032150
   4 C :   -0.183531
   5 H :    0.024234
   6 C :    0.064424
   7 H :    0.046695
   8 H :    0.022346
   9 C :   -0.092146
  10 H :    0.028544
  11 H :    0.039370
  12 C :   -0.053687
  13 H :    0.025327
  14 H :    0.028588
  15 H :    0.044188
  16 S :    0.086761
  17 C :   -0.080005
  18 C :   -0.008483
  19 C :    0.008979
  20 C :   -0.180829
  21 H :    0.007396
  22 C :    0.000756
  23 H :    0.037716
  24 H :    0.041587
  25 C :   -0.100114
  26 H :    0.039982
  27 H :    0.048897
  28 C :   -0.015124
  29 H :    0.032162
  30 H :    0.028014
  31 H :    0.012855
  32 H :    0.065385
  33 H :    0.057460
Sum of atomic charges:    0.0000000

LOEWDIN ATOMIC CHARGES
----------------------
   0 S :    0.439577
   1 C :   -0.228238
   2 C :   -0.061765
   3 C :   -0.061130
   4 C :   -0.212964
   5 H :    0.033034
   6 C :   -0.029164
   7 H :    0.038578
   8 H :    0.028244
   9 C :   -0.042690
  10 H :    0.020615
  11 H :    0.027473
  12 C :   -0.070393
  13 H :    0.022260
  14 H :    0.024024
  15 H :    0.032569
  16 S :    0.376729
  17 C :   -0.165987
  18 C :   -0.071701
  19 C :   -0.045637
  20 C :   -0.202663
  21 H :    0.028297
  22 C :   -0.039267
  23 H :    0.033795
  24 H :    0.038724
  25 C :   -0.049799
  26 H :    0.027566
  27 H :    0.030598
  28 C :   -0.070287
  29 H :    0.028287
  30 H :    0.031098
  31 H :    0.018022
  32 H :    0.040148
  33 H :    0.032047

  Mayer bond orders larger than 0.100000
B(  0-S ,  1-C ) :   1.1575 B(  0-S ,  4-C ) :   1.1634 B(  1-C ,  2-C ) :   1.5892
B(  1-C ,  4-C ) :   0.1106 B(  1-C , 32-H ) :   0.9559 B(  2-C ,  3-C ) :   1.2605
B(  2-C ,  6-C ) :   1.0188 B(  3-C ,  4-C ) :   1.5593 B(  3-C ,  5-H ) :   0.9936
B(  4-C , 20-C ) :   1.0278 B(  6-C ,  7-H ) :   0.9336 B(  6-C ,  8-H ) :   0.9487
B(  6-C ,  9-C ) :   1.0621 B(  9-C , 10-H ) :   0.9526 B(  9-C , 11-H ) :   0.9589
B(  9-C , 12-C ) :   1.0917 B( 12-C , 13-H ) :   0.9735 B( 12-C , 14-H ) :   0.9729
B( 12-C , 15-H ) :   0.9733 B( 16-S , 17-C ) :   1.1323 B( 16-S , 20-C ) :   1.1103
B( 17-C , 18-C ) :   1.6793 B( 17-C , 33-H ) :   0.9614 B( 18-C , 19-C ) :   1.1880
B( 18-C , 21-H ) :   0.9914 B( 19-C , 20-C ) :   1.6647 B( 19-C , 22-C ) :   1.0331
B( 22-C , 23-H ) :   0.9334 B( 22-C , 24-H ) :   0.9361 B( 22-C , 25-C ) :   1.0684
B( 25-C , 26-H ) :   0.9561 B( 25-C , 27-H ) :   0.9490 B( 25-C , 28-C ) :   1.0758
B( 28-C , 29-H ) :   0.9736 B( 28-C , 30-H ) :   0.9718 B( 28-C , 31-H ) :   0.9725

Dispersion correction           -0.014334202
FINAL SINGLE POINT ENERGY     -1339.863979774362

DIPOLE MOMENT
-------------
                                X             Y             Z
Electronic contribution:      8.50428     -23.93378     -10.52921
Nuclear contribution   :     -8.82645      24.21424      11.00807
                        -----------------------------------------
Total Dipole Moment    :     -0.32218       0.28046       0.47886
                        -----------------------------------------
Magnitude (a.u.)       :      0.64169
Magnitude (Debye)      :      1.63104

Rotational constants in cm-1:     0.017406     0.008705     0.007402
Rotational constants in MHz :   521.816922   260.971142   221.899533

                             ****ORCA TERMINATED NORMALLY****
TOTAL RUN TIME: 0 days 0 hours 0 minutes 20 seconds 529 msec
