                         Program Version 4.2.1 -  RELEASE  -
|  1> ! wB97X-D3 SP def2-SVP
|  2> %pal
|  3> nprocs 24
|  4> end
|  5>
|  6> * xyz 0 1
|  7> S 	 -119.269 	 54.696 	 -39.0113
|  8> C 	 -119.921 	 55.8456 	 -40.1427
|  9> C 	 -121.121 	 56.3602 	 -39.6607
| 10> C 	 -121.56 	 55.7107 	 -38.4741
| 11> C 	 -120.761 	 54.6968 	 -38.0232
| 12> H 	 -122.481 	 55.9978 	 -37.9588
| 13> C 	 -121.923 	 57.517 	 -40.293
| 14> H 	 -121.225 	 58.3034 	 -40.5507
| 15> H 	 -122.513 	 57.8196 	 -39.4603
| 16> C 	 -122.75 	 57.1708 	 -41.4743
| 17> H 	 -123.121 	 58.0764 	 -41.8223
| 18> H 	 -122.204 	 56.6545 	 -42.2666
| 19> C 	 -123.787 	 56.0697 	 -41.0555
| 20> H 	 -124.357 	 56.3418 	 -40.2192
| 21> H 	 -124.515 	 55.9967 	 -41.8717
| 22> H 	 -123.41 	 55.0677 	 -40.7299
| 23> S 	 -119.573 	 53.5053 	 -35.6951
| 24> C 	 -120.625 	 52.5889 	 -34.6924
| 25> C 	 -121.944 	 52.5342 	 -35.1038
| 26> C 	 -122.133 	 53.2893 	 -36.3171
| 27> C 	 -120.923 	 53.7337 	 -36.8798
| 28> H 	 -122.706 	 52.0275 	 -34.4425
| 29> C 	 -123.555 	 53.251 	 -37.0073
| 30> H 	 -123.63 	 52.3222 	 -37.6051
| 31> H 	 -123.491 	 53.9827 	 -37.852
| 32> C 	 -124.858 	 53.5428 	 -36.1106
| 33> H 	 -124.864 	 54.5928 	 -35.8224
| 34> H 	 -124.789 	 52.9168 	 -35.2119
| 35> C 	 -126.074 	 53.274 	 -36.898
| 36> H 	 -126.195 	 53.9597 	 -37.7386
| 37> H 	 -126.969 	 53.4055 	 -36.3497
| 38> H 	 -126.145 	 52.2776 	 -37.2661
| 39> H 	 -119.48 	 56.3251 	 -40.9894
| 40> H 	 -120.319 	 52.2127 	 -33.7048
| 41> *
| 42>
| 43>                          ****END OF INPUT****

CARTESIAN COORDINATES (ANGSTROEM)
---------------------------------
  S    -119.269000   54.696000  -39.011300
  C    -119.921000   55.845600  -40.142700
  C    -121.121000   56.360200  -39.660700
  C    -121.560000   55.710700  -38.474100
  C    -120.761000   54.696800  -38.023200
  H    -122.481000   55.997800  -37.958800
  C    -121.923000   57.517000  -40.293000
  H    -121.225000   58.303400  -40.550700
  H    -122.513000   57.819600  -39.460300
  C    -122.750000   57.170800  -41.474300
  H    -123.121000   58.076400  -41.822300
  H    -122.204000   56.654500  -42.266600
  C    -123.787000   56.069700  -41.055500
  H    -124.357000   56.341800  -40.219200
  H    -124.515000   55.996700  -41.871700
  H    -123.410000   55.067700  -40.729900
  S    -119.573000   53.505300  -35.695100
  C    -120.625000   52.588900  -34.692400
  C    -121.944000   52.534200  -35.103800
  C    -122.133000   53.289300  -36.317100
  C    -120.923000   53.733700  -36.879800
  H    -122.706000   52.027500  -34.442500
  C    -123.555000   53.251000  -37.007300
  H    -123.630000   52.322200  -37.605100
  H    -123.491000   53.982700  -37.852000
  C    -124.858000   53.542800  -36.110600
  H    -124.864000   54.592800  -35.822400
  H    -124.789000   52.916800  -35.211900
  C    -126.074000   53.274000  -36.898000
  H    -126.195000   53.959700  -37.738600
  H    -126.969000   53.405500  -36.349700
  H    -126.145000   52.277600  -37.266100
  H    -119.480000   56.325100  -40.989400
  H    -120.319000   52.212700  -33.704800

 Total Charge           Charge          ....    0
 Multiplicity           Mult            ....    1
 Number of Electrons    NEL             ....  134
 Basis Dimension        Dim             ....  322

ORBITAL ENERGIES
----------------

  NO   OCC          E(Eh)            E(eV)
   0   2.0000     -88.970102     -2420.9995
   1   2.0000     -88.964314     -2420.8421
   2   2.0000     -10.337437      -281.2960
   3   2.0000     -10.335133      -281.2333
   4   2.0000     -10.320066      -280.8233
   5   2.0000     -10.314539      -280.6729
   6   2.0000     -10.310235      -280.5558
   7   2.0000     -10.303098      -280.3615
   8   2.0000     -10.300165      -280.2817
   9   2.0000     -10.296603      -280.1848
  10   2.0000     -10.294603      -280.1304
  11   2.0000     -10.292549      -280.0745
  12   2.0000     -10.285291      -279.8770
  13   2.0000     -10.282489      -279.8007
  14   2.0000     -10.275828      -279.6195
  15   2.0000     -10.271376      -279.4984
  16   2.0000      -8.084476      -219.9898
  17   2.0000      -8.078480      -219.8266
  18   2.0000      -6.042954      -164.4371
  19   2.0000      -6.039162      -164.3340
  20   2.0000      -6.037129      -164.2786
  21   2.0000      -6.035155      -164.2249
  22   2.0000      -6.033058      -164.1679
  23   2.0000      -6.029136      -164.0611
  24   2.0000      -0.999740       -27.2043
  25   2.0000      -0.981653       -26.7121
  26   2.0000      -0.916159       -24.9300
  27   2.0000      -0.905539       -24.6410
  28   2.0000      -0.864490       -23.5240
  29   2.0000      -0.853963       -23.2375
  30   2.0000      -0.840628       -22.8746
  31   2.0000      -0.811864       -22.0919
  32   2.0000      -0.783623       -21.3235
  33   2.0000      -0.771723       -20.9996
  34   2.0000      -0.709847       -19.3159
  35   2.0000      -0.706519       -19.2254
  36   2.0000      -0.694293       -18.8927
  37   2.0000      -0.651520       -17.7288
  38   2.0000      -0.634448       -17.2642
  39   2.0000      -0.616762       -16.7830
  40   2.0000      -0.592863       -16.1326
  41   2.0000      -0.574468       -15.6321
  42   2.0000      -0.566790       -15.4231
  43   2.0000      -0.550674       -14.9846
  44   2.0000      -0.543123       -14.7791
  45   2.0000      -0.524875       -14.2826
  46   2.0000      -0.517553       -14.0833
  47   2.0000      -0.510138       -13.8816
  48   2.0000      -0.501207       -13.6385
  49   2.0000      -0.495651       -13.4874
  50   2.0000      -0.489969       -13.3327
  51   2.0000      -0.477681       -12.9984
  52   2.0000      -0.469922       -12.7872
  53   2.0000      -0.466168       -12.6851
  54   2.0000      -0.458822       -12.4852
  55   2.0000      -0.451440       -12.2843
  56   2.0000      -0.442882       -12.0514
  57   2.0000      -0.439322       -11.9546
  58   2.0000      -0.437209       -11.8971
  59   2.0000      -0.422914       -11.5081
  60   2.0000      -0.421586       -11.4719
  61   2.0000      -0.416332       -11.3290
  62   2.0000      -0.408076       -11.1043
  63   2.0000      -0.353063        -9.6073
  64   2.0000      -0.334274        -9.0961
  65   2.0000      -0.328567        -8.9408
  66   2.0000      -0.286754        -7.8030
  67   0.0000       0.024346         0.6625
  68   0.0000       0.069155         1.8818
  69   0.0000       0.103150         2.8069
  70   0.0000       0.122889         3.3440
  71   0.0000       0.124280         3.3818

MULLIKEN ATOMIC CHARGES
-----------------------
   0 S :    0.097776
   1 C :   -0.083406
   2 C :   -0.160559
   3 C :    0.013827
   4 C :   -0.153249
   5 H :    0.020678
   6 C :    0.079968
   7 H :    0.025040
   8 H :    0.012192
   9 C :   -0.000934
  10 H :    0.019110
  11 H :    0.031675
  12 C :   -0.079924
  13 H :    0.001782
  14 H :    0.032196
  15 H :    0.060908
  16 S :    0.106408
  17 C :   -0.094901
  18 C :   -0.051015
  19 C :   -0.041350
  20 C :   -0.097258
  21 H :    0.047083
  22 C :   -0.006250
  23 H :    0.049158
  24 H :    0.009002
  25 C :   -0.053672
  26 H :    0.035230
  27 H :    0.033397
  28 C :   -0.016324
  29 H :    0.025394
  30 H :    0.019006
  31 H :    0.021213
  32 H :    0.034534
  33 H :    0.063265
Sum of atomic charges:   -0.0000000

LOEWDIN ATOMIC CHARGES
----------------------
   0 S :    0.391494
   1 C :   -0.200718
   2 C :   -0.063771
   3 C :   -0.074742
   4 C :   -0.175882
   5 H :    0.031934
   6 C :   -0.026782
   7 H :    0.028431
   8 H :    0.025566
   9 C :   -0.029271
  10 H :    0.017861
  11 H :    0.028808
  12 C :   -0.067811
  13 H :    0.009707
  14 H :    0.026599
  15 H :    0.036139
  16 S :    0.398105
  17 C :   -0.190042
  18 C :   -0.084715
  19 C :   -0.048186
  20 C :   -0.189951
  21 H :    0.043807
  22 C :   -0.038514
  23 H :    0.037610
  24 H :    0.026842
  25 C :   -0.033771
  26 H :    0.028574
  27 H :    0.023093
  28 C :   -0.063143
  29 H :    0.027767
  30 H :    0.022973
  31 H :    0.022226
  32 H :    0.027105
  33 H :    0.032658

  Mayer bond orders larger than 0.100000
B(  0-S ,  1-C ) :   1.1372 B(  0-S ,  4-C ) :   1.1443 B(  1-C ,  2-C ) :   1.6184
B(  1-C , 32-H ) :   0.9673 B(  2-C ,  3-C ) :   1.2604 B(  2-C ,  6-C ) :   1.0020
B(  3-C ,  4-C ) :   1.5802 B(  3-C ,  5-H ) :   0.9806 B(  4-C , 20-C ) :   1.0226
B(  6-C ,  7-H ) :   0.9369 B(  6-C ,  8-H ) :   0.9426 B(  6-C ,  9-C ) :   1.0891
B(  9-C , 10-H ) :   0.9542 B(  9-C , 11-H ) :   0.9551 B(  9-C , 12-C ) :   1.0609
B( 12-C , 13-H ) :   0.9768 B( 12-C , 14-H ) :   0.9740 B( 12-C , 15-H ) :   0.9726
B( 16-S , 17-C ) :   1.1697 B( 16-S , 20-C ) :   1.1210 B( 17-C , 18-C ) :   1.6243
B( 17-C , 33-H ) :   0.9585 B( 18-C , 19-C ) :   1.2287 B( 18-C , 21-H ) :   0.9785
B( 19-C , 20-C ) :   1.6117 B( 19-C , 22-C ) :   1.0188 B( 22-C , 23-H ) :   0.9490
B( 22-C , 24-H ) :   0.9399 B( 22-C , 25-C ) :   1.0411 B( 25-C , 26-H ) :   0.9530
B( 25-C , 27-H ) :   0.9561 B( 25-C , 28-C ) :   1.1028 B( 28-C , 29-H ) :   0.9704
B( 28-C , 30-H ) :   0.9675 B( 28-C , 31-H ) :   0.9712

Dispersion correction           -0.014469761
FINAL SINGLE POINT ENERGY     -1339.864613654704

DIPOLE MOMENT
-------------
                                X             Y             Z
Electronic contribution:     30.26346      -5.72847       9.62735
Nuclear contribution   :    -31.07799       5.99482      -9.56102
                        -----------------------------------------
Total Dipole Moment    :     -0.81453       0.26636       0.06633
                        -----------------------------------------
Magnitude (a.u.)       :      0.85954
Magnitude (Debye)      :      2.18478

Rotational constants in cm-1:     0.015947     0.010117     0.006491
Rotational constants in MHz :   478.091773   303.291805   194.585749

                             ****ORCA TERMINATED NORMALLY****
TOTAL RUN TIME: 0 days 0 hours 0 minutes 21 seconds 839 msec
