                         Program Version 4.2.1 -  RELEASE  -
|  1> ! wB97X-D3 SP def2-SVP
|  2> %pal
|  3> nprocs 24
|  4> end
|  5>
|  6> * xyz 0 1
|  7> S 	 -107.257 	 54.7533 	 -94.2218
|  8> C 	 -108.268 	 54.8333 	 -95.6271
|  9> C 	 -109.568 	 55.0933 	 -95.3032
| 10> C 	 -109.756 	 55.1685 	 -93.8518
| 11> C 	 -108.577 	 55.0145 	 -93.0801
| 12> H 	 -110.651 	 55.3591 	 -93.3122
| 13> C 	 -110.811 	 55.2054 	 -96.2346
| 14> H 	 -111.324 	 54.2129 	 -96.0825
| 15> H 	 -110.508 	 55.2667 	 -97.2782
| 16> C 	 -111.771 	 56.3933 	 -95.9595
| 17> H 	 -112.1 	 56.4005 	 -94.9735
| 18> H 	 -111.352 	 57.3189 	 -96.2772
| 19> C 	 -113.013 	 56.3369 	 -96.7755
| 20> H 	 -113.607 	 55.5273 	 -96.3244
| 21> H 	 -113.489 	 57.3342 	 -96.7844
| 22> H 	 -112.786 	 56.0944 	 -97.8146
| 23> S 	 -107.256 	 56.3232 	 -90.999
| 24> C 	 -107.561 	 55.895 	 -89.3145
| 25> C 	 -108.391 	 54.7473 	 -89.2465
| 26> C 	 -108.852 	 54.4037 	 -90.5788
| 27> C 	 -108.303 	 55.0605 	 -91.6364
| 28> H 	 -108.673 	 54.3329 	 -88.3304
| 29> C 	 -109.768 	 53.2139 	 -90.7621
| 30> H 	 -109.113 	 52.3383 	 -90.615
| 31> H 	 -110.119 	 53.2414 	 -91.8149
| 32> C 	 -111.01 	 53.0745 	 -89.917
| 33> H 	 -111.682 	 52.3026 	 -90.3443
| 34> H 	 -111.708 	 54.0038 	 -89.9873
| 35> C 	 -110.719 	 52.5585 	 -88.4439
| 36> H 	 -110.128 	 51.6608 	 -88.4876
| 37> H 	 -111.61 	 52.4285 	 -87.8788
| 38> H 	 -110.154 	 53.1872 	 -87.8083
| 39> H 	 -107.936 	 54.5959 	 -96.6275
| 40> H 	 -107.218 	 56.4341 	 -88.451
| 41> *
| 42>
| 43>                          ****END OF INPUT****

CARTESIAN COORDINATES (ANGSTROEM)
---------------------------------
  S    -107.257000   54.753300  -94.221800
  C    -108.268000   54.833300  -95.627100
  C    -109.568000   55.093300  -95.303200
  C    -109.756000   55.168500  -93.851800
  C    -108.577000   55.014500  -93.080100
  H    -110.651000   55.359100  -93.312200
  C    -110.811000   55.205400  -96.234600
  H    -111.324000   54.212900  -96.082500
  H    -110.508000   55.266700  -97.278200
  C    -111.771000   56.393300  -95.959500
  H    -112.100000   56.400500  -94.973500
  H    -111.352000   57.318900  -96.277200
  C    -113.013000   56.336900  -96.775500
  H    -113.607000   55.527300  -96.324400
  H    -113.489000   57.334200  -96.784400
  H    -112.786000   56.094400  -97.814600
  S    -107.256000   56.323200  -90.999000
  C    -107.561000   55.895000  -89.314500
  C    -108.391000   54.747300  -89.246500
  C    -108.852000   54.403700  -90.578800
  C    -108.303000   55.060500  -91.636400
  H    -108.673000   54.332900  -88.330400
  C    -109.768000   53.213900  -90.762100
  H    -109.113000   52.338300  -90.615000
  H    -110.119000   53.241400  -91.814900
  C    -111.010000   53.074500  -89.917000
  H    -111.682000   52.302600  -90.344300
  H    -111.708000   54.003800  -89.987300
  C    -110.719000   52.558500  -88.443900
  H    -110.128000   51.660800  -88.487600
  H    -111.610000   52.428500  -87.878800
  H    -110.154000   53.187200  -87.808300
  H    -107.936000   54.595900  -96.627500
  H    -107.218000   56.434100  -88.451000

 Total Charge           Charge          ....    0
 Multiplicity           Mult            ....    1
 Number of Electrons    NEL             ....  134
 Basis Dimension        Dim             ....  322

ORBITAL ENERGIES
----------------

  NO   OCC          E(Eh)            E(eV)
   0   2.0000     -88.964193     -2420.8388
   1   2.0000     -88.962728     -2420.7989
   2   2.0000     -10.337532      -281.2985
   3   2.0000     -10.327324      -281.0208
   4   2.0000     -10.325291      -280.9654
   5   2.0000     -10.313565      -280.6464
   6   2.0000     -10.307097      -280.4704
   7   2.0000     -10.303451      -280.3712
   8   2.0000     -10.302486      -280.3449
   9   2.0000     -10.299839      -280.2729
  10   2.0000     -10.299085      -280.2524
  11   2.0000     -10.296727      -280.1882
  12   2.0000     -10.288584      -279.9666
  13   2.0000     -10.277333      -279.6604
  14   2.0000     -10.277150      -279.6555
  15   2.0000     -10.275454      -279.6093
  16   2.0000      -8.078615      -219.8303
  17   2.0000      -8.077656      -219.8042
  18   2.0000      -6.037269      -164.2825
  19   2.0000      -6.036246      -164.2546
  20   2.0000      -6.033035      -164.1672
  21   2.0000      -6.031982      -164.1386
  22   2.0000      -6.029342      -164.0667
  23   2.0000      -6.028461      -164.0428
  24   2.0000      -1.002584       -27.2817
  25   2.0000      -0.981276       -26.7019
  26   2.0000      -0.915015       -24.8988
  27   2.0000      -0.905284       -24.6340
  28   2.0000      -0.873278       -23.7631
  29   2.0000      -0.847788       -23.0695
  30   2.0000      -0.840698       -22.8765
  31   2.0000      -0.816523       -22.2187
  32   2.0000      -0.784356       -21.3434
  33   2.0000      -0.773263       -21.0416
  34   2.0000      -0.708544       -19.2805
  35   2.0000      -0.696307       -18.9475
  36   2.0000      -0.690732       -18.7958
  37   2.0000      -0.667118       -18.1532
  38   2.0000      -0.645683       -17.5699
  39   2.0000      -0.618032       -16.8175
  40   2.0000      -0.587712       -15.9925
  41   2.0000      -0.581851       -15.8330
  42   2.0000      -0.572711       -15.5843
  43   2.0000      -0.553885       -15.0720
  44   2.0000      -0.535423       -14.5696
  45   2.0000      -0.529297       -14.4029
  46   2.0000      -0.514361       -13.9965
  47   2.0000      -0.512444       -13.9443
  48   2.0000      -0.508926       -13.8486
  49   2.0000      -0.505714       -13.7612
  50   2.0000      -0.498119       -13.5545
  51   2.0000      -0.474883       -12.9222
  52   2.0000      -0.472988       -12.8707
  53   2.0000      -0.468781       -12.7562
  54   2.0000      -0.459994       -12.5171
  55   2.0000      -0.449688       -12.2366
  56   2.0000      -0.443319       -12.0633
  57   2.0000      -0.431016       -11.7285
  58   2.0000      -0.429854       -11.6969
  59   2.0000      -0.426375       -11.6023
  60   2.0000      -0.418495       -11.3878
  61   2.0000      -0.412728       -11.2309
  62   2.0000      -0.405439       -11.0326
  63   2.0000      -0.345582        -9.4038
  64   2.0000      -0.328255        -8.9323
  65   2.0000      -0.325467        -8.8564
  66   2.0000      -0.298842        -8.1319
  67   0.0000       0.035938         0.9779
  68   0.0000       0.061203         1.6654
  69   0.0000       0.119478         3.2512
  70   0.0000       0.122263         3.3269
  71   0.0000       0.125990         3.4284

MULLIKEN ATOMIC CHARGES
-----------------------
   0 S :    0.100798
   1 C :   -0.116720
   2 C :   -0.072417
   3 C :    0.049821
   4 C :   -0.188449
   5 H :    0.001939
   6 C :    0.037153
   7 H :    0.048379
   8 H :    0.018416
   9 C :   -0.038405
  10 H :    0.019425
  11 H :    0.025481
  12 C :   -0.060955
  13 H :    0.030397
  14 H :    0.043636
  15 H :    0.022353
  16 S :    0.103856
  17 C :   -0.090524
  18 C :    0.002862
  19 C :   -0.043254
  20 C :   -0.121657
  21 H :   -0.008979
  22 C :    0.046182
  23 H :    0.043986
  24 H :    0.027226
  25 C :   -0.097196
  26 H :    0.035987
  27 H :    0.040792
  28 C :   -0.028720
  29 H :    0.025446
  30 H :    0.026132
  31 H :    0.011500
  32 H :    0.046194
  33 H :    0.059313
Sum of atomic charges:    0.0000000

LOEWDIN ATOMIC CHARGES
----------------------
   0 S :    0.406012
   1 C :   -0.201943
   2 C :   -0.065303
   3 C :   -0.058993
   4 C :   -0.187532
   5 H :    0.022455
   6 C :   -0.028636
   7 H :    0.039527
   8 H :    0.026582
   9 C :   -0.036340
  10 H :    0.015162
  11 H :    0.024115
  12 C :   -0.061221
  13 H :    0.024995
  14 H :    0.031511
  15 H :    0.020454
  16 S :    0.399642
  17 C :   -0.168328
  18 C :   -0.062838
  19 C :   -0.052322
  20 C :   -0.210987
  21 H :    0.019384
  22 C :   -0.040642
  23 H :    0.037917
  24 H :    0.034039
  25 C :   -0.047306
  26 H :    0.029849
  27 H :    0.032689
  28 C :   -0.064502
  29 H :    0.025505
  30 H :    0.024119
  31 H :    0.013505
  32 H :    0.030298
  33 H :    0.029135

  Mayer bond orders larger than 0.100000
B(  0-S ,  1-C ) :   1.1388 B(  0-S ,  4-C ) :   1.1578 B(  1-C ,  2-C ) :   1.6316
B(  1-C , 32-H ) :   0.9694 B(  2-C ,  3-C ) :   1.2196 B(  2-C ,  6-C ) :   1.0075
B(  3-C ,  4-C ) :   1.5848 B(  3-C ,  5-H ) :   0.9957 B(  4-C , 20-C ) :   1.0129
B(  6-C ,  7-H ) :   0.9442 B(  6-C ,  8-H ) :   0.9443 B(  6-C ,  9-C ) :   1.0708
B(  9-C , 10-H ) :   0.9551 B(  9-C , 11-H ) :   0.9563 B(  9-C , 12-C ) :   1.0884
B( 12-C , 13-H ) :   0.9776 B( 12-C , 14-H ) :   0.9748 B( 12-C , 15-H ) :   0.9722
B( 16-S , 17-C ) :   1.1727 B( 16-S , 20-C ) :   1.1165 B( 17-C , 18-C ) :   1.5902
B( 17-C , 33-H ) :   0.9686 B( 18-C , 19-C ) :   1.2211 B( 18-C , 21-H ) :   1.0024
B( 19-C , 20-C ) :   1.6259 B( 19-C , 22-C ) :   1.0473 B( 22-C , 23-H ) :   0.9361
B( 22-C , 24-H ) :   0.9288 B( 22-C , 25-C ) :   1.0752 B( 25-C , 26-H ) :   0.9553
B( 25-C , 27-H ) :   0.9549 B( 25-C , 28-C ) :   1.0598 B( 28-C , 29-H ) :   0.9741
B( 28-C , 30-H ) :   0.9685 B( 28-C , 31-H ) :   0.9771

Dispersion correction           -0.013583230
FINAL SINGLE POINT ENERGY     -1339.867987865656

DIPOLE MOMENT
-------------
                                X             Y             Z
Electronic contribution:     26.54521       6.66260       1.83317
Nuclear contribution   :    -27.23639      -6.85695      -1.76957
                        -----------------------------------------
Total Dipole Moment    :     -0.69118      -0.19435       0.06361
                        -----------------------------------------
Magnitude (a.u.)       :      0.72080
Magnitude (Debye)      :      1.83212

Rotational constants in cm-1:     0.018255     0.007722     0.006290
Rotational constants in MHz :   547.276152   231.503125   188.557345

                             ****ORCA TERMINATED NORMALLY****
TOTAL RUN TIME: 0 days 0 hours 0 minutes 20 seconds 908 msec
