                         Program Version 4.2.1 -  RELEASE  -
|  1> ! wB97X-D3 SP def2-SVP
|  2> %pal
|  3> nprocs 24
|  4> end
|  5>
|  6> * xyz 0 1
|  7> S 	 -57.0474 	 19.7481 	 20.5994
|  8> C 	 -57.8545 	 19.0699 	 22.0252
|  9> C 	 -56.9604 	 18.7144 	 23.0157
| 10> C 	 -55.6527 	 19.104 	 22.6507
| 11> C 	 -55.4865 	 19.5593 	 21.3238
| 12> H 	 -54.7977 	 19.0047 	 23.2644
| 13> C 	 -57.3262 	 18.0586 	 24.3392
| 14> H 	 -57.5528 	 18.8288 	 25.0149
| 15> H 	 -56.3366 	 17.6656 	 24.6723
| 16> C 	 -58.3744 	 16.9174 	 24.4549
| 17> H 	 -59.309 	 17.332 	 24.0951
| 18> H 	 -58.0921 	 16.0805 	 23.8179
| 19> C 	 -58.511 	 16.4078 	 25.8697
| 20> H 	 -57.5288 	 16.1102 	 26.1966
| 21> H 	 -58.9366 	 17.1776 	 26.5743
| 22> H 	 -59.1239 	 15.5686 	 26.0649
| 23> S 	 -53.9175 	 18.6543 	 19.2157
| 24> C 	 -52.4071 	 19.4529 	 19.0245
| 25> C 	 -52.1694 	 20.3676 	 20.0135
| 26> C 	 -53.1552 	 20.5168 	 21.0189
| 27> C 	 -54.2783 	 19.7763 	 20.6015
| 28> H 	 -51.1946 	 20.9052 	 19.9261
| 29> C 	 -53.0239 	 21.3837 	 22.2494
| 30> H 	 -54.0135 	 21.5439 	 22.6268
| 31> H 	 -52.8173 	 22.4424 	 21.9691
| 32> C 	 -52.0664 	 20.9336 	 23.3948
| 33> H 	 -52.3444 	 19.8854 	 23.7971
| 34> H 	 -52.1804 	 21.639 	 24.239
| 35> C 	 -50.5447 	 21.0007 	 22.9159
| 36> H 	 -50.3976 	 20.2014 	 22.1576
| 37> H 	 -49.8375 	 20.918 	 23.7486
| 38> H 	 -50.1948 	 21.928 	 22.4101
| 39> H 	 -58.9417 	 19.0659 	 22.0226
| 40> H 	 -51.6402 	 19.3513 	 18.2809
| 41> *
| 42>
| 43>                          ****END OF INPUT****

CARTESIAN COORDINATES (ANGSTROEM)
---------------------------------
  S    -57.047400   19.748100   20.599400
  C    -57.854500   19.069900   22.025200
  C    -56.960400   18.714400   23.015700
  C    -55.652700   19.104000   22.650700
  C    -55.486500   19.559300   21.323800
  H    -54.797700   19.004700   23.264400
  C    -57.326200   18.058600   24.339200
  H    -57.552800   18.828800   25.014900
  H    -56.336600   17.665600   24.672300
  C    -58.374400   16.917400   24.454900
  H    -59.309000   17.332000   24.095100
  H    -58.092100   16.080500   23.817900
  C    -58.511000   16.407800   25.869700
  H    -57.528800   16.110200   26.196600
  H    -58.936600   17.177600   26.574300
  H    -59.123900   15.568600   26.064900
  S    -53.917500   18.654300   19.215700
  C    -52.407100   19.452900   19.024500
  C    -52.169400   20.367600   20.013500
  C    -53.155200   20.516800   21.018900
  C    -54.278300   19.776300   20.601500
  H    -51.194600   20.905200   19.926100
  C    -53.023900   21.383700   22.249400
  H    -54.013500   21.543900   22.626800
  H    -52.817300   22.442400   21.969100
  C    -52.066400   20.933600   23.394800
  H    -52.344400   19.885400   23.797100
  H    -52.180400   21.639000   24.239000
  C    -50.544700   21.000700   22.915900
  H    -50.397600   20.201400   22.157600
  H    -49.837500   20.918000   23.748600
  H    -50.194800   21.928000   22.410100
  H    -58.941700   19.065900   22.022600
  H    -51.640200   19.351300   18.280900

 Total Charge           Charge          ....    0
 Multiplicity           Mult            ....    1
 Number of Electrons    NEL             ....  134
 Basis Dimension        Dim             ....  322

ORBITAL ENERGIES
----------------

  NO   OCC          E(Eh)            E(eV)
   0   2.0000     -88.968686     -2420.9610
   1   2.0000     -88.962663     -2420.7971
   2   2.0000     -10.328942      -281.0648
   3   2.0000     -10.324161      -280.9347
   4   2.0000     -10.314037      -280.6592
   5   2.0000     -10.310045      -280.5506
   6   2.0000     -10.307388      -280.4783
   7   2.0000     -10.307141      -280.4716
   8   2.0000     -10.302703      -280.3508
   9   2.0000     -10.295946      -280.1669
  10   2.0000     -10.293345      -280.0962
  11   2.0000     -10.292046      -280.0608
  12   2.0000     -10.290092      -280.0076
  13   2.0000     -10.289289      -279.9858
  14   2.0000     -10.286712      -279.9157
  15   2.0000     -10.278330      -279.6876
  16   2.0000      -8.082727      -219.9422
  17   2.0000      -8.077572      -219.8019
  18   2.0000      -6.041270      -164.3913
  19   2.0000      -6.037518      -164.2892
  20   2.0000      -6.035955      -164.2467
  21   2.0000      -6.033288      -164.1741
  22   2.0000      -6.031937      -164.1374
  23   2.0000      -6.028581      -164.0460
  24   2.0000      -1.004272       -27.3276
  25   2.0000      -0.981615       -26.7111
  26   2.0000      -0.912648       -24.8344
  27   2.0000      -0.902763       -24.5654
  28   2.0000      -0.871493       -23.7145
  29   2.0000      -0.850731       -23.1496
  30   2.0000      -0.842496       -22.9255
  31   2.0000      -0.808364       -21.9967
  32   2.0000      -0.787513       -21.4293
  33   2.0000      -0.772858       -21.0305
  34   2.0000      -0.710820       -19.3424
  35   2.0000      -0.707429       -19.2501
  36   2.0000      -0.693844       -18.8805
  37   2.0000      -0.654170       -17.8009
  38   2.0000      -0.638848       -17.3839
  39   2.0000      -0.614521       -16.7220
  40   2.0000      -0.594884       -16.1876
  41   2.0000      -0.573498       -15.6057
  42   2.0000      -0.563333       -15.3291
  43   2.0000      -0.544295       -14.8110
  44   2.0000      -0.540032       -14.6950
  45   2.0000      -0.522293       -14.2123
  46   2.0000      -0.515375       -14.0241
  47   2.0000      -0.510766       -13.8986
  48   2.0000      -0.497676       -13.5424
  49   2.0000      -0.497522       -13.5383
  50   2.0000      -0.491666       -13.3789
  51   2.0000      -0.479991       -13.0612
  52   2.0000      -0.473471       -12.8838
  53   2.0000      -0.465890       -12.6775
  54   2.0000      -0.458417       -12.4742
  55   2.0000      -0.448735       -12.2107
  56   2.0000      -0.440013       -11.9734
  57   2.0000      -0.436443       -11.8762
  58   2.0000      -0.431069       -11.7300
  59   2.0000      -0.430172       -11.7056
  60   2.0000      -0.425305       -11.5731
  61   2.0000      -0.415887       -11.3169
  62   2.0000      -0.414622       -11.2824
  63   2.0000      -0.338343        -9.2068
  64   2.0000      -0.335598        -9.1321
  65   2.0000      -0.329298        -8.9607
  66   2.0000      -0.288275        -7.8444
  67   0.0000       0.028012         0.7622
  68   0.0000       0.064323         1.7503
  69   0.0000       0.111467         3.0332
  70   0.0000       0.121302         3.3008
  71   0.0000       0.127947         3.4816

MULLIKEN ATOMIC CHARGES
-----------------------
   0 S :    0.106484
   1 C :   -0.152654
   2 C :   -0.055326
   3 C :    0.054257
   4 C :   -0.189815
   5 H :   -0.019320
   6 C :    0.053708
   7 H :    0.030228
   8 H :    0.017302
   9 C :   -0.043025
  10 H :    0.025743
  11 H :    0.036969
  12 C :   -0.043861
  13 H :    0.020815
  14 H :    0.033027
  15 H :    0.026311
  16 S :    0.121653
  17 C :   -0.064985
  18 C :   -0.075023
  19 C :    0.003607
  20 C :   -0.162192
  21 H :    0.024974
  22 C :    0.063399
  23 H :    0.014053
  24 H :    0.034900
  25 C :   -0.079419
  26 H :    0.053189
  27 H :    0.040969
  28 C :   -0.091543
  29 H :    0.048979
  30 H :    0.038593
  31 H :    0.032493
  32 H :    0.054375
  33 H :    0.041134
Sum of atomic charges:    0.0000000

LOEWDIN ATOMIC CHARGES
----------------------
   0 S :    0.408042
   1 C :   -0.189395
   2 C :   -0.064417
   3 C :   -0.055192
   4 C :   -0.209533
   5 H :    0.019909
   6 C :   -0.028418
   7 H :    0.027088
   8 H :    0.031869
   9 C :   -0.034430
  10 H :    0.020257
  11 H :    0.028773
  12 C :   -0.064911
  13 H :    0.023224
  14 H :    0.031109
  15 H :    0.022053
  16 S :    0.397511
  17 C :   -0.198866
  18 C :   -0.080143
  19 C :   -0.046824
  20 C :   -0.181342
  21 H :    0.035112
  22 C :   -0.039689
  23 H :    0.028261
  24 H :    0.039719
  25 C :   -0.035870
  26 H :    0.033347
  27 H :    0.027469
  28 C :   -0.079867
  29 H :    0.028796
  30 H :    0.025607
  31 H :    0.026597
  32 H :    0.024360
  33 H :    0.029791

  Mayer bond orders larger than 0.100000
B(  0-S ,  1-C ) :   1.1486 B(  0-S ,  4-C ) :   1.1678 B(  1-C ,  2-C ) :   1.5687
B(  1-C ,  4-C ) :   0.1035 B(  1-C , 32-H ) :   0.9754 B(  2-C ,  3-C ) :   1.2872
B(  2-C ,  6-C ) :   0.9998 B(  3-C ,  4-C ) :   1.5272 B(  3-C ,  5-H ) :   0.9986
B(  4-C , 20-C ) :   1.0621 B(  6-C ,  7-H ) :   0.9362 B(  6-C ,  8-H ) :   0.9421
B(  6-C ,  9-C ) :   1.0624 B(  9-C , 10-H ) :   0.9521 B(  9-C , 11-H ) :   0.9574
B(  9-C , 12-C ) :   1.0883 B( 12-C , 13-H ) :   0.9736 B( 12-C , 14-H ) :   0.9731
B( 12-C , 15-H ) :   0.9738 B( 16-S , 17-C ) :   1.1323 B( 16-S , 20-C ) :   1.1376
B( 17-C , 18-C ) :   1.6521 B( 17-C , 20-C ) :   0.1018 B( 17-C , 33-H ) :   0.9610
B( 18-C , 19-C ) :   1.2206 B( 18-C , 21-H ) :   0.9758 B( 19-C , 20-C ) :   1.5836
B( 19-C , 22-C ) :   1.0448 B( 22-C , 23-H ) :   0.9217 B( 22-C , 24-H ) :   0.9357
B( 22-C , 25-C ) :   1.0654 B( 25-C , 26-H ) :   0.9541 B( 25-C , 27-H ) :   0.9564
B( 25-C , 28-C ) :   1.0603 B( 28-C , 29-H ) :   0.9736 B( 28-C , 30-H ) :   0.9753
B( 28-C , 31-H ) :   0.9762

Dispersion correction           -0.014104557
FINAL SINGLE POINT ENERGY     -1339.873600648032

DIPOLE MOMENT
-------------
                                X             Y             Z
Electronic contribution:     -4.28718       1.99311     -26.16212
Nuclear contribution   :      4.48340      -1.95115      26.83938
                        -----------------------------------------
Total Dipole Moment    :      0.19621       0.04196       0.67726
                        -----------------------------------------
Magnitude (a.u.)       :      0.70636
Magnitude (Debye)      :      1.79543

Rotational constants in cm-1:     0.019887     0.007500     0.006143
Rotational constants in MHz :   596.201628   224.857751   184.149359

                             ****ORCA TERMINATED NORMALLY****
TOTAL RUN TIME: 0 days 0 hours 0 minutes 21 seconds 122 msec
