                         Program Version 4.2.1 -  RELEASE  -
|  1> ! wB97X-D3 SP def2-SVP
|  2> %pal
|  3> nprocs 24
|  4> end
|  5>
|  6> * xyz 0 1
|  7> S 	 -70.8465 	 7.16623 	 -102.186
|  8> C 	 -69.6268 	 8.45964 	 -102.223
|  9> C 	 -70.0993 	 9.6439 	 -102.863
| 10> C 	 -71.3508 	 9.38637 	 -103.442
| 11> C 	 -71.9731 	 8.1715 	 -103.125
| 12> H 	 -71.8462 	 10.1431 	 -103.974
| 13> C 	 -69.2883 	 10.8682 	 -103.11
| 14> H 	 -68.3272 	 10.8119 	 -102.709
| 15> H 	 -69.7452 	 11.5802 	 -102.372
| 16> C 	 -69.2754 	 11.3337 	 -104.571
| 17> H 	 -70.1458 	 11.1069 	 -105.084
| 18> H 	 -69.2404 	 12.4144 	 -104.613
| 19> C 	 -68.0026 	 10.9076 	 -105.363
| 20> H 	 -68.1485 	 11.3232 	 -106.39
| 21> H 	 -67.0772 	 11.3782 	 -104.974
| 22> H 	 -67.9794 	 9.85461 	 -105.454
| 23> S 	 -74.4446 	 8.97284 	 -102.796
| 24> C 	 -75.7795 	 7.97639 	 -103.203
| 25> C 	 -75.3898 	 6.72014 	 -103.621
| 26> C 	 -73.9663 	 6.54549 	 -103.63
| 27> C 	 -73.3587 	 7.7661 	 -103.319
| 28> H 	 -76.0446 	 5.94889 	 -103.933
| 29> C 	 -73.2563 	 5.2293 	 -104.02
| 30> H 	 -72.279 	 5.51209 	 -104.409
| 31> H 	 -73.8182 	 4.76131 	 -104.85
| 32> C 	 -73.1866 	 4.25537 	 -102.786
| 33> H 	 -74.2123 	 4.00625 	 -102.488
| 34> H 	 -72.6988 	 4.82163 	 -102
| 35> C 	 -72.3173 	 3.04368 	 -103.143
| 36> H 	 -71.2639 	 3.34131 	 -103.44
| 37> H 	 -72.7816 	 2.42055 	 -103.992
| 38> H 	 -72.1194 	 2.31946 	 -102.309
| 39> H 	 -68.5997 	 8.48696 	 -101.888
| 40> H 	 -76.8092 	 8.4172 	 -103.09
| 41> *
| 42>
| 43>                          ****END OF INPUT****

CARTESIAN COORDINATES (ANGSTROEM)
---------------------------------
  S    -70.846500    7.166230  -102.186000
  C    -69.626800    8.459640  -102.223000
  C    -70.099300    9.643900  -102.863000
  C    -71.350800    9.386370  -103.442000
  C    -71.973100    8.171500  -103.125000
  H    -71.846200   10.143100  -103.974000
  C    -69.288300   10.868200  -103.110000
  H    -68.327200   10.811900  -102.709000
  H    -69.745200   11.580200  -102.372000
  C    -69.275400   11.333700  -104.571000
  H    -70.145800   11.106900  -105.084000
  H    -69.240400   12.414400  -104.613000
  C    -68.002600   10.907600  -105.363000
  H    -68.148500   11.323200  -106.390000
  H    -67.077200   11.378200  -104.974000
  H    -67.979400    9.854610  -105.454000
  S    -74.444600    8.972840  -102.796000
  C    -75.779500    7.976390  -103.203000
  C    -75.389800    6.720140  -103.621000
  C    -73.966300    6.545490  -103.630000
  C    -73.358700    7.766100  -103.319000
  H    -76.044600    5.948890  -103.933000
  C    -73.256300    5.229300  -104.020000
  H    -72.279000    5.512090  -104.409000
  H    -73.818200    4.761310  -104.850000
  C    -73.186600    4.255370  -102.786000
  H    -74.212300    4.006250  -102.488000
  H    -72.698800    4.821630  -102.000000
  C    -72.317300    3.043680  -103.143000
  H    -71.263900    3.341310  -103.440000
  H    -72.781600    2.420550  -103.992000
  H    -72.119400    2.319460  -102.309000
  H    -68.599700    8.486960  -101.888000
  H    -76.809200    8.417200  -103.090000

 Total Charge           Charge          ....    0
 Multiplicity           Mult            ....    1
 Number of Electrons    NEL             ....  134
 Basis Dimension        Dim             ....  322

ORBITAL ENERGIES
----------------

  NO   OCC          E(Eh)            E(eV)
   0   2.0000     -88.969958     -2420.9956
   1   2.0000     -88.965095     -2420.8633
   2   2.0000     -10.331784      -281.1421
   3   2.0000     -10.321942      -280.8743
   4   2.0000     -10.317487      -280.7531
   5   2.0000     -10.314577      -280.6739
   6   2.0000     -10.304643      -280.4036
   7   2.0000     -10.299206      -280.2556
   8   2.0000     -10.297178      -280.2005
   9   2.0000     -10.292894      -280.0839
  10   2.0000     -10.290791      -280.0267
  11   2.0000     -10.290443      -280.0172
  12   2.0000     -10.289554      -279.9930
  13   2.0000     -10.288511      -279.9646
  14   2.0000     -10.283382      -279.8251
  15   2.0000     -10.280993      -279.7601
  16   2.0000      -8.082774      -219.9435
  17   2.0000      -8.081348      -219.9047
  18   2.0000      -6.041395      -164.3947
  19   2.0000      -6.039655      -164.3474
  20   2.0000      -6.037460      -164.2876
  21   2.0000      -6.035608      -164.2373
  22   2.0000      -6.033666      -164.1844
  23   2.0000      -6.032247      -164.1458
  24   2.0000      -1.009669       -27.4745
  25   2.0000      -0.980019       -26.6677
  26   2.0000      -0.913806       -24.8659
  27   2.0000      -0.904156       -24.6033
  28   2.0000      -0.866731       -23.5850
  29   2.0000      -0.851555       -23.1720
  30   2.0000      -0.843474       -22.9521
  31   2.0000      -0.810461       -22.0538
  32   2.0000      -0.781023       -21.2527
  33   2.0000      -0.766382       -20.8543
  34   2.0000      -0.712628       -19.3916
  35   2.0000      -0.697018       -18.9668
  36   2.0000      -0.688886       -18.7455
  37   2.0000      -0.668943       -18.2029
  38   2.0000      -0.631351       -17.1799
  39   2.0000      -0.625050       -17.0085
  40   2.0000      -0.598601       -16.2888
  41   2.0000      -0.567525       -15.4431
  42   2.0000      -0.563523       -15.3342
  43   2.0000      -0.553523       -15.0621
  44   2.0000      -0.534248       -14.5376
  45   2.0000      -0.518928       -14.1207
  46   2.0000      -0.513741       -13.9796
  47   2.0000      -0.510972       -13.9043
  48   2.0000      -0.506939       -13.7945
  49   2.0000      -0.489872       -13.3301
  50   2.0000      -0.484840       -13.1932
  51   2.0000      -0.474783       -12.9195
  52   2.0000      -0.468934       -12.7603
  53   2.0000      -0.466256       -12.6875
  54   2.0000      -0.456489       -12.4217
  55   2.0000      -0.452019       -12.3001
  56   2.0000      -0.446700       -12.1553
  57   2.0000      -0.438649       -11.9362
  58   2.0000      -0.434570       -11.8253
  59   2.0000      -0.431294       -11.7361
  60   2.0000      -0.424693       -11.5565
  61   2.0000      -0.419773       -11.4226
  62   2.0000      -0.409340       -11.1387
  63   2.0000      -0.342272        -9.3137
  64   2.0000      -0.333688        -9.0801
  65   2.0000      -0.328621        -8.9422
  66   2.0000      -0.285199        -7.7607
  67   0.0000       0.027311         0.7432
  68   0.0000       0.076160         2.0724
  69   0.0000       0.104891         2.8542
  70   0.0000       0.115625         3.1463
  71   0.0000       0.128687         3.5017

MULLIKEN ATOMIC CHARGES
-----------------------
   0 S :    0.106118
   1 C :   -0.103677
   2 C :   -0.123909
   3 C :    0.022054
   4 C :   -0.129959
   5 H :   -0.009040
   6 C :    0.100158
   7 H :   -0.008564
   8 H :    0.044379
   9 C :   -0.052366
  10 H :    0.017589
  11 H :    0.018791
  12 C :   -0.057281
  13 H :    0.034377
  14 H :    0.042640
  15 H :    0.037059
  16 S :    0.124528
  17 C :   -0.111975
  18 C :   -0.007731
  19 C :   -0.051216
  20 C :   -0.165470
  21 H :    0.002155
  22 C :    0.041008
  23 H :    0.028508
  24 H :    0.030921
  25 C :   -0.046027
  26 H :    0.035715
  27 H :    0.031068
  28 C :   -0.089197
  29 H :    0.041328
  30 H :    0.040717
  31 H :    0.043137
  32 H :    0.037318
  33 H :    0.076844
Sum of atomic charges:   -0.0000000

LOEWDIN ATOMIC CHARGES
----------------------
   0 S :    0.394373
   1 C :   -0.202393
   2 C :   -0.058061
   3 C :   -0.069802
   4 C :   -0.187019
   5 H :    0.017477
   6 C :   -0.032316
   7 H :    0.020949
   8 H :    0.046235
   9 C :   -0.032739
  10 H :    0.014774
  11 H :    0.025702
  12 C :   -0.058734
  13 H :    0.031989
  14 H :    0.028313
  15 H :    0.019115
  16 S :    0.452325
  17 C :   -0.204888
  18 C :   -0.067487
  19 C :   -0.054272
  20 C :   -0.217665
  21 H :    0.025176
  22 C :   -0.028294
  23 H :    0.026328
  24 H :    0.031414
  25 C :   -0.037006
  26 H :    0.026241
  27 H :    0.018814
  28 C :   -0.082463
  29 H :    0.031634
  30 H :    0.030927
  31 H :    0.028270
  32 H :    0.025928
  33 H :    0.037155

  Mayer bond orders larger than 0.100000
B(  0-S ,  1-C ) :   1.1385 B(  0-S ,  4-C ) :   1.1351 B(  1-C ,  2-C ) :   1.5833
B(  1-C ,  4-C ) :   0.1075 B(  1-C , 32-H ) :   0.9613 B(  2-C ,  3-C ) :   1.2803
B(  2-C ,  6-C ) :   1.0328 B(  3-C ,  4-C ) :   1.5391 B(  3-C ,  5-H ) :   0.9917
B(  4-C , 20-C ) :   1.0482 B(  6-C ,  7-H ) :   0.9387 B(  6-C ,  8-H ) :   0.9243
B(  6-C ,  9-C ) :   1.0528 B(  9-C , 10-H ) :   0.9623 B(  9-C , 11-H ) :   0.9507
B(  9-C , 12-C ) :   1.0823 B( 12-C , 13-H ) :   0.9731 B( 12-C , 14-H ) :   0.9760
B( 12-C , 15-H ) :   0.9800 B( 16-S , 17-C ) :   1.1726 B( 16-S , 20-C ) :   1.1754
B( 17-C , 18-C ) :   1.5631 B( 17-C , 33-H ) :   0.9646 B( 18-C , 19-C ) :   1.2653
B( 18-C , 21-H ) :   0.9988 B( 19-C , 20-C ) :   1.5546 B( 19-C , 22-C ) :   1.0380
B( 22-C , 23-H ) :   0.9395 B( 22-C , 24-H ) :   0.9393 B( 22-C , 25-C ) :   1.0497
B( 25-C , 26-H ) :   0.9574 B( 25-C , 27-H ) :   0.9534 B( 25-C , 28-C ) :   1.0783
B( 28-C , 29-H ) :   0.9725 B( 28-C , 30-H ) :   0.9728 B( 28-C , 31-H ) :   0.9748

Dispersion correction           -0.014255354
FINAL SINGLE POINT ENERGY     -1339.877319203577

DIPOLE MOMENT
-------------
                                X             Y             Z
Electronic contribution:    -13.03235       3.77654       9.00095
Nuclear contribution   :     13.10442      -3.59581      -9.20054
                        -----------------------------------------
Total Dipole Moment    :      0.07206       0.18073      -0.19958
                        -----------------------------------------
Magnitude (a.u.)       :      0.27873
Magnitude (Debye)      :      0.70848

Rotational constants in cm-1:     0.020263     0.008219     0.006588
Rotational constants in MHz :   607.459714   246.392028   197.506223

                             ****ORCA TERMINATED NORMALLY****
TOTAL RUN TIME: 0 days 0 hours 0 minutes 20 seconds 139 msec
