                         Program Version 4.2.1 -  RELEASE  -
|  1> ! wB97X-D3 SP def2-SVP
|  2> %pal
|  3> nprocs 24
|  4> end
|  5>
|  6> * xyz 0 1
|  7> S 	 -99.8201 	 1.89861 	 -123.138
|  8> C 	 -100.177 	 2.8367 	 -121.716
|  9> C 	 -99.998 	 2.08805 	 -120.557
| 10> C 	 -99.3689 	 0.786865 	 -120.783
| 11> C 	 -99.1945 	 0.580689 	 -122.113
| 12> H 	 -99.007 	 0.0382674 	 -120.066
| 13> C 	 -100.304 	 2.5925 	 -119.224
| 14> H 	 -100.512 	 3.63899 	 -119.395
| 15> H 	 -99.322 	 2.44066 	 -118.654
| 16> C 	 -101.296 	 1.92655 	 -118.33
| 17> H 	 -102.243 	 2.03965 	 -118.856
| 18> H 	 -101.151 	 0.862603 	 -118.309
| 19> C 	 -101.474 	 2.50779 	 -116.916
| 20> H 	 -102.065 	 1.82525 	 -116.234
| 21> H 	 -100.506 	 2.72527 	 -116.376
| 22> H 	 -102.075 	 3.43068 	 -117.138
| 23> S 	 -99.7806 	 -1.69152 	 -123.587
| 24> C 	 -98.5799 	 -2.94399 	 -123.79
| 25> C 	 -97.4802 	 -2.73647 	 -122.936
| 26> C 	 -97.5269 	 -1.41885 	 -122.325
| 27> C 	 -98.6548 	 -0.697254 	 -122.672
| 28> H 	 -96.727 	 -3.50592 	 -122.845
| 29> C 	 -96.4568 	 -0.916979 	 -121.431
| 30> H 	 -96.7918 	 -0.593544 	 -120.469
| 31> H 	 -96.1486 	 -0.0594464 	 -122.044
| 32> C 	 -95.2747 	 -1.91512 	 -121.252
| 33> H 	 -94.796 	 -2.21065 	 -122.181
| 34> H 	 -95.7256 	 -2.82708 	 -120.817
| 35> C 	 -94.2404 	 -1.36083 	 -120.308
| 36> H 	 -93.454 	 -2.16999 	 -120.236
| 37> H 	 -94.5046 	 -1.219 	 -119.274
| 38> H 	 -93.7792 	 -0.414561 	 -120.762
| 39> H 	 -100.717 	 3.80248 	 -121.718
| 40> H 	 -98.6379 	 -3.85228 	 -124.357
| 41> *
| 42>
| 43>                          ****END OF INPUT****

CARTESIAN COORDINATES (ANGSTROEM)
---------------------------------
  S    -99.820100    1.898610  -123.138000
  C    -100.177000    2.836700  -121.716000
  C    -99.998000    2.088050  -120.557000
  C    -99.368900    0.786865  -120.783000
  C    -99.194500    0.580689  -122.113000
  H    -99.007000    0.038267  -120.066000
  C    -100.304000    2.592500  -119.224000
  H    -100.512000    3.638990  -119.395000
  H    -99.322000    2.440660  -118.654000
  C    -101.296000    1.926550  -118.330000
  H    -102.243000    2.039650  -118.856000
  H    -101.151000    0.862603  -118.309000
  C    -101.474000    2.507790  -116.916000
  H    -102.065000    1.825250  -116.234000
  H    -100.506000    2.725270  -116.376000
  H    -102.075000    3.430680  -117.138000
  S    -99.780600   -1.691520  -123.587000
  C    -98.579900   -2.943990  -123.790000
  C    -97.480200   -2.736470  -122.936000
  C    -97.526900   -1.418850  -122.325000
  C    -98.654800   -0.697254  -122.672000
  H    -96.727000   -3.505920  -122.845000
  C    -96.456800   -0.916979  -121.431000
  H    -96.791800   -0.593544  -120.469000
  H    -96.148600   -0.059446  -122.044000
  C    -95.274700   -1.915120  -121.252000
  H    -94.796000   -2.210650  -122.181000
  H    -95.725600   -2.827080  -120.817000
  C    -94.240400   -1.360830  -120.308000
  H    -93.454000   -2.169990  -120.236000
  H    -94.504600   -1.219000  -119.274000
  H    -93.779200   -0.414561  -120.762000
  H    -100.717000    3.802480  -121.718000
  H    -98.637900   -3.852280  -124.357000

 Total Charge           Charge          ....    0
 Multiplicity           Mult            ....    1
 Number of Electrons    NEL             ....  134
 Basis Dimension        Dim             ....  322

ORBITAL ENERGIES
----------------

  NO   OCC          E(Eh)            E(eV)
   0   2.0000     -88.966990     -2420.9149
   1   2.0000     -88.964133     -2420.8371
   2   2.0000     -10.331716      -281.1403
   3   2.0000     -10.322883      -280.8999
   4   2.0000     -10.316683      -280.7312
   5   2.0000     -10.316576      -280.7283
   6   2.0000     -10.303158      -280.3632
   7   2.0000     -10.302470      -280.3444
   8   2.0000     -10.298163      -280.2273
   9   2.0000     -10.295585      -280.1571
  10   2.0000     -10.292994      -280.0866
  11   2.0000     -10.289427      -279.9895
  12   2.0000     -10.288823      -279.9731
  13   2.0000     -10.287745      -279.9438
  14   2.0000     -10.285499      -279.8827
  15   2.0000     -10.283047      -279.8159
  16   2.0000      -8.081351      -219.9047
  17   2.0000      -8.078606      -219.8300
  18   2.0000      -6.039973      -164.3560
  19   2.0000      -6.037138      -164.2789
  20   2.0000      -6.036036      -164.2489
  21   2.0000      -6.033189      -164.1714
  22   2.0000      -6.031888      -164.1360
  23   2.0000      -6.029325      -164.0663
  24   2.0000      -1.002855       -27.2891
  25   2.0000      -0.981585       -26.7103
  26   2.0000      -0.918356       -24.9898
  27   2.0000      -0.912952       -24.8427
  28   2.0000      -0.868279       -23.6271
  29   2.0000      -0.852939       -23.2096
  30   2.0000      -0.847665       -23.0661
  31   2.0000      -0.817313       -22.2402
  32   2.0000      -0.777380       -21.1536
  33   2.0000      -0.765716       -20.8362
  34   2.0000      -0.706453       -19.2236
  35   2.0000      -0.700998       -19.0751
  36   2.0000      -0.690554       -18.7909
  37   2.0000      -0.649161       -17.6646
  38   2.0000      -0.641404       -17.4535
  39   2.0000      -0.619020       -16.8444
  40   2.0000      -0.594952       -16.1895
  41   2.0000      -0.576421       -15.6852
  42   2.0000      -0.573290       -15.6000
  43   2.0000      -0.563029       -15.3208
  44   2.0000      -0.529841       -14.4177
  45   2.0000      -0.520338       -14.1591
  46   2.0000      -0.514377       -13.9969
  47   2.0000      -0.510697       -13.8968
  48   2.0000      -0.507247       -13.8029
  49   2.0000      -0.499632       -13.5957
  50   2.0000      -0.496316       -13.5055
  51   2.0000      -0.474165       -12.9027
  52   2.0000      -0.471559       -12.8318
  53   2.0000      -0.461709       -12.5637
  54   2.0000      -0.459572       -12.5056
  55   2.0000      -0.453574       -12.3424
  56   2.0000      -0.448876       -12.2145
  57   2.0000      -0.436128       -11.8676
  58   2.0000      -0.432091       -11.7578
  59   2.0000      -0.421858       -11.4793
  60   2.0000      -0.418603       -11.3908
  61   2.0000      -0.414896       -11.2899
  62   2.0000      -0.411658       -11.2018
  63   2.0000      -0.345321        -9.3967
  64   2.0000      -0.325761        -8.8644
  65   2.0000      -0.321264        -8.7420
  66   2.0000      -0.296568        -8.0700
  67   0.0000       0.033404         0.9090
  68   0.0000       0.066628         1.8130
  69   0.0000       0.109964         2.9923
  70   0.0000       0.115494         3.1428
  71   0.0000       0.127239         3.4624

MULLIKEN ATOMIC CHARGES
-----------------------
   0 S :    0.112008
   1 C :   -0.124447
   2 C :   -0.094595
   3 C :    0.031650
   4 C :   -0.168166
   5 H :    0.033205
   6 C :    0.057313
   7 H :    0.008363
   8 H :    0.029531
   9 C :   -0.056196
  10 H :    0.018215
  11 H :    0.018222
  12 C :   -0.082383
  13 H :    0.049487
  14 H :    0.044420
  15 H :    0.044518
  16 S :    0.110190
  17 C :   -0.069939
  18 C :   -0.064981
  19 C :   -0.062573
  20 C :   -0.141042
  21 H :    0.020914
  22 C :    0.087029
  23 H :    0.021295
  24 H :    0.045644
  25 C :   -0.111477
  26 H :    0.036799
  27 H :    0.030922
  28 C :   -0.044979
  29 H :    0.031964
  30 H :    0.033686
  31 H :    0.045535
  32 H :    0.062516
  33 H :    0.047351
Sum of atomic charges:   -0.0000000

LOEWDIN ATOMIC CHARGES
----------------------
   0 S :    0.391156
   1 C :   -0.210487
   2 C :   -0.059742
   3 C :   -0.056790
   4 C :   -0.181623
   5 H :    0.039927
   6 C :   -0.042183
   7 H :    0.027403
   8 H :    0.039358
   9 C :   -0.048647
  10 H :    0.023747
  11 H :    0.018161
  12 C :   -0.072820
  13 H :    0.034299
  14 H :    0.028865
  15 H :    0.033799
  16 S :    0.406134
  17 C :   -0.185420
  18 C :   -0.075137
  19 C :   -0.056930
  20 C :   -0.205399
  21 H :    0.030046
  22 C :   -0.033497
  23 H :    0.024353
  24 H :    0.046051
  25 C :   -0.044793
  26 H :    0.025333
  27 H :    0.024930
  28 C :   -0.071061
  29 H :    0.031748
  30 H :    0.020845
  31 H :    0.034758
  32 H :    0.036416
  33 H :    0.027196

  Mayer bond orders larger than 0.100000
B(  0-S ,  1-C ) :   1.1161 B(  0-S ,  4-C ) :   1.1391 B(  1-C ,  2-C ) :   1.6432
B(  1-C , 32-H ) :   0.9577 B(  2-C ,  3-C ) :   1.1789 B(  2-C ,  6-C ) :   1.0570
B(  3-C ,  4-C ) :   1.6247 B(  3-C ,  5-H ) :   0.9862 B(  4-C , 20-C ) :   1.0064
B(  6-C ,  7-H ) :   0.9360 B(  6-C ,  8-H ) :   0.9247 B(  6-C ,  9-C ) :   1.0653
B(  9-C , 10-H ) :   0.9517 B(  9-C , 11-H ) :   0.9517 B(  9-C , 12-C ) :   1.0711
B( 12-C , 13-H ) :   0.9743 B( 12-C , 14-H ) :   0.9755 B( 12-C , 15-H ) :   0.9777
B( 16-S , 17-C ) :   1.1636 B( 16-S , 20-C ) :   1.1407 B( 17-C , 18-C ) :   1.5952
B( 17-C , 33-H ) :   0.9639 B( 18-C , 19-C ) :   1.2407 B( 18-C , 21-H ) :   0.9870
B( 19-C , 20-C ) :   1.6118 B( 19-C , 22-C ) :   1.0248 B( 22-C , 23-H ) :   0.9316
B( 22-C , 24-H ) :   0.9211 B( 22-C , 25-C ) :   1.0977 B( 25-C , 26-H ) :   0.9480
B( 25-C , 27-H ) :   0.9455 B( 25-C , 28-C ) :   1.0926 B( 28-C , 29-H ) :   0.9704
B( 28-C , 30-H ) :   0.9732 B( 28-C , 31-H ) :   0.9709

Dispersion correction           -0.013407918
FINAL SINGLE POINT ENERGY     -1339.868944166909

DIPOLE MOMENT
-------------
                                X             Y             Z
Electronic contribution:    -10.47729      -2.08059     -25.85082
Nuclear contribution   :     10.71753       1.91394      26.50409
                        -----------------------------------------
Total Dipole Moment    :      0.24024      -0.16665       0.65328
                        -----------------------------------------
Magnitude (a.u.)       :      0.71572
Magnitude (Debye)      :      1.81922

Rotational constants in cm-1:     0.016702     0.007975     0.006399
Rotational constants in MHz :   500.722858   239.082267   191.842069

                             ****ORCA TERMINATED NORMALLY****
TOTAL RUN TIME: 0 days 0 hours 0 minutes 20 seconds 996 msec
