                         Program Version 4.2.1 -  RELEASE  -
|  1> ! wB97X-D3 SP def2-SVP
|  2> %pal
|  3> nprocs 24
|  4> end
|  5>
|  6> * xyz 0 1
|  7> S 	 -64.1778 	 17.3329 	 -118.596
|  8> C 	 -62.929 	 16.1452 	 -118.365
|  9> C 	 -63.3913 	 14.9477 	 -118.834
| 10> C 	 -64.8097 	 14.8922 	 -119.107
| 11> C 	 -65.385 	 16.1218 	 -118.871
| 12> H 	 -65.391 	 14.0979 	 -119.43
| 13> C 	 -62.4291 	 13.7979 	 -119.171
| 14> H 	 -63.0207 	 13.0114 	 -119.284
| 15> H 	 -61.8222 	 13.4426 	 -118.315
| 16> C 	 -61.7357 	 14.0989 	 -120.587
| 17> H 	 -62.5333 	 14.2495 	 -121.322
| 18> H 	 -61.0475 	 14.9509 	 -120.574
| 19> C 	 -60.9362 	 12.9665 	 -121.206
| 20> H 	 -61.621 	 12.1961 	 -121.425
| 21> H 	 -60.5793 	 13.2667 	 -122.198
| 22> H 	 -60.0976 	 12.611 	 -120.59
| 23> S 	 -67.0464 	 17.6385 	 -120.54
| 24> C 	 -68.7501 	 17.8298 	 -120.092
| 25> C 	 -69.0711 	 16.9563 	 -119.051
| 26> C 	 -67.9368 	 16.2536 	 -118.496
| 27> C 	 -66.758 	 16.5373 	 -119.159
| 28> H 	 -70.1393 	 16.8611 	 -118.823
| 29> C 	 -68.1588 	 15.3 	 -117.314
| 30> H 	 -68.6124 	 15.8619 	 -116.448
| 31> H 	 -67.1609 	 15.055 	 -116.973
| 32> C 	 -68.8343 	 14.071 	 -117.876
| 33> H 	 -68.3706 	 13.7428 	 -118.776
| 34> H 	 -69.8664 	 14.2579 	 -118.215
| 35> C 	 -68.8713 	 12.9387 	 -116.753
| 36> H 	 -69.7232 	 13.1299 	 -116.049
| 37> H 	 -67.9987 	 13.0099 	 -116.177
| 38> H 	 -68.8987 	 11.9029 	 -117.07
| 39> H 	 -61.9292 	 16.3474 	 -118.182
| 40> H 	 -69.4968 	 18.4421 	 -120.652
| 41> *
| 42>
| 43>                          ****END OF INPUT****

CARTESIAN COORDINATES (ANGSTROEM)
---------------------------------
  S    -64.177800   17.332900  -118.596000
  C    -62.929000   16.145200  -118.365000
  C    -63.391300   14.947700  -118.834000
  C    -64.809700   14.892200  -119.107000
  C    -65.385000   16.121800  -118.871000
  H    -65.391000   14.097900  -119.430000
  C    -62.429100   13.797900  -119.171000
  H    -63.020700   13.011400  -119.284000
  H    -61.822200   13.442600  -118.315000
  C    -61.735700   14.098900  -120.587000
  H    -62.533300   14.249500  -121.322000
  H    -61.047500   14.950900  -120.574000
  C    -60.936200   12.966500  -121.206000
  H    -61.621000   12.196100  -121.425000
  H    -60.579300   13.266700  -122.198000
  H    -60.097600   12.611000  -120.590000
  S    -67.046400   17.638500  -120.540000
  C    -68.750100   17.829800  -120.092000
  C    -69.071100   16.956300  -119.051000
  C    -67.936800   16.253600  -118.496000
  C    -66.758000   16.537300  -119.159000
  H    -70.139300   16.861100  -118.823000
  C    -68.158800   15.300000  -117.314000
  H    -68.612400   15.861900  -116.448000
  H    -67.160900   15.055000  -116.973000
  C    -68.834300   14.071000  -117.876000
  H    -68.370600   13.742800  -118.776000
  H    -69.866400   14.257900  -118.215000
  C    -68.871300   12.938700  -116.753000
  H    -69.723200   13.129900  -116.049000
  H    -67.998700   13.009900  -116.177000
  H    -68.898700   11.902900  -117.070000
  H    -61.929200   16.347400  -118.182000
  H    -69.496800   18.442100  -120.652000

 Total Charge           Charge          ....    0
 Multiplicity           Mult            ....    1
 Number of Electrons    NEL             ....  134
 Basis Dimension        Dim             ....  322

ORBITAL ENERGIES
----------------

  NO   OCC          E(Eh)            E(eV)
   0   2.0000     -88.963913     -2420.8311
   1   2.0000     -88.961813     -2420.7740
   2   2.0000     -10.327781      -281.0332
   3   2.0000     -10.327480      -281.0250
   4   2.0000     -10.322955      -280.9019
   5   2.0000     -10.305021      -280.4139
   6   2.0000     -10.304837      -280.4089
   7   2.0000     -10.300663      -280.2953
   8   2.0000     -10.296074      -280.1704
   9   2.0000     -10.294820      -280.1363
  10   2.0000     -10.293232      -280.0931
  11   2.0000     -10.290715      -280.0246
  12   2.0000     -10.289821      -280.0003
  13   2.0000     -10.287265      -279.9307
  14   2.0000     -10.277181      -279.6563
  15   2.0000     -10.273164      -279.5470
  16   2.0000      -8.077686      -219.8050
  17   2.0000      -8.077272      -219.7937
  18   2.0000      -6.036316      -164.2565
  19   2.0000      -6.035772      -164.2417
  20   2.0000      -6.032394      -164.1498
  21   2.0000      -6.031711      -164.1312
  22   2.0000      -6.028301      -164.0384
  23   2.0000      -6.027944      -164.0287
  24   2.0000      -1.006564       -27.3900
  25   2.0000      -0.979692       -26.6588
  26   2.0000      -0.908282       -24.7156
  27   2.0000      -0.905594       -24.6425
  28   2.0000      -0.868697       -23.6384
  29   2.0000      -0.850226       -23.1358
  30   2.0000      -0.839801       -22.8522
  31   2.0000      -0.816153       -22.2087
  32   2.0000      -0.781538       -21.2667
  33   2.0000      -0.770440       -20.9647
  34   2.0000      -0.708879       -19.2896
  35   2.0000      -0.700143       -19.0518
  36   2.0000      -0.696785       -18.9605
  37   2.0000      -0.657619       -17.8947
  38   2.0000      -0.650204       -17.6929
  39   2.0000      -0.614779       -16.7290
  40   2.0000      -0.589865       -16.0510
  41   2.0000      -0.569270       -15.4906
  42   2.0000      -0.563933       -15.3454
  43   2.0000      -0.556031       -15.1304
  44   2.0000      -0.527727       -14.3602
  45   2.0000      -0.524711       -14.2781
  46   2.0000      -0.520089       -14.1523
  47   2.0000      -0.511864       -13.9285
  48   2.0000      -0.511044       -13.9062
  49   2.0000      -0.502680       -13.6786
  50   2.0000      -0.492781       -13.4092
  51   2.0000      -0.474249       -12.9050
  52   2.0000      -0.466182       -12.6855
  53   2.0000      -0.462591       -12.5877
  54   2.0000      -0.456481       -12.4215
  55   2.0000      -0.451045       -12.2735
  56   2.0000      -0.446732       -12.1562
  57   2.0000      -0.436159       -11.8685
  58   2.0000      -0.430398       -11.7117
  59   2.0000      -0.423910       -11.5352
  60   2.0000      -0.420550       -11.4437
  61   2.0000      -0.415753       -11.3132
  62   2.0000      -0.412305       -11.2194
  63   2.0000      -0.339402        -9.2356
  64   2.0000      -0.330126        -8.9832
  65   2.0000      -0.323433        -8.8011
  66   2.0000      -0.300711        -8.1828
  67   0.0000       0.036262         0.9867
  68   0.0000       0.059763         1.6262
  69   0.0000       0.113194         3.0802
  70   0.0000       0.119570         3.2537
  71   0.0000       0.135923         3.6987

MULLIKEN ATOMIC CHARGES
-----------------------
   0 S :    0.106148
   1 C :   -0.065396
   2 C :   -0.137534
   3 C :    0.075731
   4 C :   -0.161893
   5 H :   -0.013660
   6 C :    0.142524
   7 H :   -0.039203
   8 H :    0.036266
   9 C :   -0.093901
  10 H :    0.033615
  11 H :    0.035009
  12 C :   -0.032073
  13 H :    0.013930
  14 H :    0.029913
  15 H :    0.038272
  16 S :    0.098280
  17 C :   -0.117882
  18 C :   -0.045994
  19 C :   -0.050350
  20 C :   -0.173391
  21 H :    0.030555
  22 C :    0.089851
  23 H :    0.051750
  24 H :    0.019949
  25 C :   -0.081577
  26 H :    0.025893
  27 H :    0.032862
  28 C :   -0.027736
  29 H :    0.036535
  30 H :    0.011918
  31 H :    0.033356
  32 H :    0.022500
  33 H :    0.075732
Sum of atomic charges:   -0.0000000

LOEWDIN ATOMIC CHARGES
----------------------
   0 S :    0.419462
   1 C :   -0.186078
   2 C :   -0.056292
   3 C :   -0.052218
   4 C :   -0.196027
   5 H :    0.021689
   6 C :   -0.026932
   7 H :    0.005430
   8 H :    0.036984
   9 C :   -0.032691
  10 H :    0.030166
  11 H :    0.021766
  12 C :   -0.066100
  13 H :    0.015926
  14 H :    0.029029
  15 H :    0.024828
  16 S :    0.374219
  17 C :   -0.184988
  18 C :   -0.077316
  19 C :   -0.051395
  20 C :   -0.196745
  21 H :    0.034630
  22 C :   -0.029419
  23 H :    0.041067
  24 H :    0.027107
  25 C :   -0.034004
  26 H :    0.021802
  27 H :    0.025592
  28 C :   -0.066356
  29 H :    0.031929
  30 H :    0.015028
  31 H :    0.024055
  32 H :    0.016193
  33 H :    0.039659

  Mayer bond orders larger than 0.100000
B(  0-S ,  1-C ) :   1.1346 B(  0-S ,  4-C ) :   1.1699 B(  1-C ,  2-C ) :   1.6112
B(  1-C , 32-H ) :   0.9824 B(  2-C ,  3-C ) :   1.2297 B(  2-C ,  6-C ) :   1.0307
B(  3-C ,  4-C ) :   1.5604 B(  3-C ,  5-H ) :   1.0111 B(  4-C , 20-C ) :   1.0205
B(  6-C ,  7-H ) :   0.9210 B(  6-C ,  8-H ) :   0.9412 B(  6-C ,  9-C ) :   1.0400
B(  9-C , 10-H ) :   0.9575 B(  9-C , 11-H ) :   0.9655 B(  9-C , 12-C ) :   1.0912
B( 12-C , 13-H ) :   0.9749 B( 12-C , 14-H ) :   0.9715 B( 12-C , 15-H ) :   0.9745
B( 16-S , 17-C ) :   1.1393 B( 16-S , 20-C ) :   1.1282 B( 17-C , 18-C ) :   1.6381
B( 17-C , 33-H ) :   0.9606 B( 18-C , 19-C ) :   1.2043 B( 18-C , 21-H ) :   0.9861
B( 19-C , 20-C ) :   1.6356 B( 19-C , 22-C ) :   1.0378 B( 22-C , 23-H ) :   0.9400
B( 22-C , 24-H ) :   0.9263 B( 22-C , 25-C ) :   1.0524 B( 25-C , 26-H ) :   0.9557
B( 25-C , 27-H ) :   0.9607 B( 25-C , 28-C ) :   1.0641 B( 28-C , 29-H ) :   0.9764
B( 28-C , 30-H ) :   0.9777 B( 28-C , 31-H ) :   0.9788

Dispersion correction           -0.013966335
FINAL SINGLE POINT ENERGY     -1339.856452080132

DIPOLE MOMENT
-------------
                                X             Y             Z
Electronic contribution:     -3.59480      24.36252      -2.91622
Nuclear contribution   :      3.50987     -24.96699       2.88109
                        -----------------------------------------
Total Dipole Moment    :     -0.08493      -0.60447      -0.03513
                        -----------------------------------------
Magnitude (a.u.)       :      0.61142
Magnitude (Debye)      :      1.55411

Rotational constants in cm-1:     0.018676     0.007869     0.006487
Rotational constants in MHz :   559.879066   235.899143   194.476996

                             ****ORCA TERMINATED NORMALLY****
TOTAL RUN TIME: 0 days 0 hours 0 minutes 19 seconds 960 msec
