                         Program Version 4.2.1 -  RELEASE  -
|  1> ! wB97X-D3 SP def2-SVP
|  2> %pal
|  3> nprocs 24
|  4> end
|  5>
|  6> * xyz 0 1
|  7> S 	 37.0867 	 -5.65387 	 -119.338
|  8> C 	 37.4688 	 -7.09826 	 -120.338
|  9> C 	 38.407 	 -6.81908 	 -121.333
| 10> C 	 38.6751 	 -5.43431 	 -121.376
| 11> C 	 37.9991 	 -4.68598 	 -120.436
| 12> H 	 39.2452 	 -4.95992 	 -122.15
| 13> C 	 39.0147 	 -7.80125 	 -122.347
| 14> H 	 38.4729 	 -8.68446 	 -122.134
| 15> H 	 40.0581 	 -7.96432 	 -122.05
| 16> C 	 38.9434 	 -7.25889 	 -123.943
| 17> H 	 37.9644 	 -7.4104 	 -124.288
| 18> H 	 39.0879 	 -6.24071 	 -124.013
| 19> C 	 39.9683 	 -8.10743 	 -124.74
| 20> H 	 40.1272 	 -7.6606 	 -125.709
| 21> H 	 40.9717 	 -8.07789 	 -124.275
| 22> H 	 39.6792 	 -9.24528 	 -124.811
| 23> S 	 39.5622 	 -2.56783 	 -120.746
| 24> C 	 38.9123 	 -0.9634 	 -120.723
| 25> C 	 37.5737 	 -0.954146 	 -120.277
| 26> C 	 37.1387 	 -2.24333 	 -119.832
| 27> C 	 38.0053 	 -3.22363 	 -120.36
| 28> H 	 36.9553 	 -0.0267915 	 -120.123
| 29> C 	 35.7754 	 -2.47887 	 -119.187
| 30> H 	 35.3661 	 -3.40344 	 -119.385
| 31> H 	 35.1535 	 -1.8031 	 -119.735
| 32> C 	 35.6781 	 -2.06699 	 -117.727
| 33> H 	 36.1029 	 -1.04258 	 -117.477
| 34> H 	 36.2581 	 -2.76931 	 -117.193
| 35> C 	 34.2964 	 -2.18756 	 -117.167
| 36> H 	 34.1985 	 -2.00597 	 -116.107
| 37> H 	 33.9196 	 -3.22488 	 -117.246
| 38> H 	 33.5049 	 -1.61913 	 -117.658
| 39> H 	 37.0734 	 -8.1264 	 -120.194
| 40> H 	 39.3791 	 -0.00914461 	 -120.945
| 41> *
| 42>
| 43>                          ****END OF INPUT****

CARTESIAN COORDINATES (ANGSTROEM)
---------------------------------
  S     37.086700   -5.653870  -119.338000
  C     37.468800   -7.098260  -120.338000
  C     38.407000   -6.819080  -121.333000
  C     38.675100   -5.434310  -121.376000
  C     37.999100   -4.685980  -120.436000
  H     39.245200   -4.959920  -122.150000
  C     39.014700   -7.801250  -122.347000
  H     38.472900   -8.684460  -122.134000
  H     40.058100   -7.964320  -122.050000
  C     38.943400   -7.258890  -123.943000
  H     37.964400   -7.410400  -124.288000
  H     39.087900   -6.240710  -124.013000
  C     39.968300   -8.107430  -124.740000
  H     40.127200   -7.660600  -125.709000
  H     40.971700   -8.077890  -124.275000
  H     39.679200   -9.245280  -124.811000
  S     39.562200   -2.567830  -120.746000
  C     38.912300   -0.963400  -120.723000
  C     37.573700   -0.954146  -120.277000
  C     37.138700   -2.243330  -119.832000
  C     38.005300   -3.223630  -120.360000
  H     36.955300   -0.026791  -120.123000
  C     35.775400   -2.478870  -119.187000
  H     35.366100   -3.403440  -119.385000
  H     35.153500   -1.803100  -119.735000
  C     35.678100   -2.066990  -117.727000
  H     36.102900   -1.042580  -117.477000
  H     36.258100   -2.769310  -117.193000
  C     34.296400   -2.187560  -117.167000
  H     34.198500   -2.005970  -116.107000
  H     33.919600   -3.224880  -117.246000
  H     33.504900   -1.619130  -117.658000
  H     37.073400   -8.126400  -120.194000
  H     39.379100   -0.009145  -120.945000

 Total Charge           Charge          ....    0
 Multiplicity           Mult            ....    1
 Number of Electrons    NEL             ....  134
 Basis Dimension        Dim             ....  322

ORBITAL ENERGIES
----------------

  NO   OCC          E(Eh)            E(eV)
   0   2.0000     -88.969547     -2420.9845
   1   2.0000     -88.968025     -2420.9430
   2   2.0000     -10.327929      -281.0372
   3   2.0000     -10.326459      -280.9972
   4   2.0000     -10.317456      -280.7522
   5   2.0000     -10.315764      -280.7062
   6   2.0000     -10.306516      -280.4546
   7   2.0000     -10.300864      -280.3007
   8   2.0000     -10.300254      -280.2842
   9   2.0000     -10.299586      -280.2660
  10   2.0000     -10.292477      -280.0725
  11   2.0000     -10.289998      -280.0051
  12   2.0000     -10.286134      -279.8999
  13   2.0000     -10.284268      -279.8492
  14   2.0000     -10.283276      -279.8222
  15   2.0000     -10.273747      -279.5629
  16   2.0000      -8.083442      -219.9616
  17   2.0000      -8.082801      -219.9442
  18   2.0000      -6.042011      -164.4115
  19   2.0000      -6.041363      -164.3938
  20   2.0000      -6.038180      -164.3072
  21   2.0000      -6.037332      -164.2842
  22   2.0000      -6.034102      -164.1963
  23   2.0000      -6.033476      -164.1792
  24   2.0000      -1.008089       -27.4315
  25   2.0000      -0.981932       -26.7197
  26   2.0000      -0.915612       -24.9151
  27   2.0000      -0.899135       -24.4667
  28   2.0000      -0.864592       -23.5267
  29   2.0000      -0.856513       -23.3069
  30   2.0000      -0.844312       -22.9749
  31   2.0000      -0.807402       -21.9705
  32   2.0000      -0.784451       -21.3460
  33   2.0000      -0.766588       -20.8599
  34   2.0000      -0.716334       -19.4924
  35   2.0000      -0.703371       -19.1397
  36   2.0000      -0.691164       -18.8075
  37   2.0000      -0.666152       -18.1269
  38   2.0000      -0.629014       -17.1163
  39   2.0000      -0.616361       -16.7720
  40   2.0000      -0.597906       -16.2699
  41   2.0000      -0.565589       -15.3905
  42   2.0000      -0.560142       -15.2422
  43   2.0000      -0.553648       -15.0655
  44   2.0000      -0.527625       -14.3574
  45   2.0000      -0.525498       -14.2995
  46   2.0000      -0.516754       -14.0616
  47   2.0000      -0.507278       -13.8037
  48   2.0000      -0.504219       -13.7205
  49   2.0000      -0.493984       -13.4420
  50   2.0000      -0.491996       -13.3879
  51   2.0000      -0.473111       -12.8740
  52   2.0000      -0.468828       -12.7575
  53   2.0000      -0.465348       -12.6628
  54   2.0000      -0.459331       -12.4990
  55   2.0000      -0.452805       -12.3215
  56   2.0000      -0.446866       -12.1598
  57   2.0000      -0.438546       -11.9334
  58   2.0000      -0.436428       -11.8758
  59   2.0000      -0.434133       -11.8134
  60   2.0000      -0.426041       -11.5932
  61   2.0000      -0.416099       -11.3226
  62   2.0000      -0.414076       -11.2676
  63   2.0000      -0.348070        -9.4715
  64   2.0000      -0.332325        -9.0430
  65   2.0000      -0.328914        -8.9502
  66   2.0000      -0.279569        -7.6075
  67   0.0000       0.021667         0.5896
  68   0.0000       0.083384         2.2690
  69   0.0000       0.105266         2.8644
  70   0.0000       0.112431         3.0594
  71   0.0000       0.123310         3.3554

MULLIKEN ATOMIC CHARGES
-----------------------
   0 S :    0.108052
   1 C :   -0.153261
   2 C :   -0.083144
   3 C :   -0.018460
   4 C :   -0.108532
   5 H :    0.008868
   6 C :    0.081086
   7 H :    0.009524
   8 H :    0.044980
   9 C :   -0.032760
  10 H :    0.030058
  11 H :    0.022235
  12 C :   -0.089674
  13 H :    0.034714
  14 H :    0.034566
  15 H :    0.055174
  16 S :    0.115096
  17 C :   -0.082075
  18 C :   -0.055815
  19 C :   -0.055253
  20 C :   -0.139497
  21 H :    0.038672
  22 C :    0.088112
  23 H :   -0.001798
  24 H :    0.010062
  25 C :   -0.047092
  26 H :    0.039563
  27 H :    0.015552
  28 C :   -0.049255
  29 H :    0.031342
  30 H :    0.019387
  31 H :    0.023773
  32 H :    0.051792
  33 H :    0.054010
Sum of atomic charges:   -0.0000000

LOEWDIN ATOMIC CHARGES
----------------------
   0 S :    0.402718
   1 C :   -0.200995
   2 C :   -0.059845
   3 C :   -0.079970
   4 C :   -0.196314
   5 H :    0.020822
   6 C :   -0.018590
   7 H :    0.022640
   8 H :    0.034883
   9 C :   -0.016235
  10 H :    0.021809
  11 H :    0.013012
  12 C :   -0.075163
  13 H :    0.022670
  14 H :    0.025497
  15 H :    0.040148
  16 S :    0.436547
  17 C :   -0.205110
  18 C :   -0.072586
  19 C :   -0.053229
  20 C :   -0.196282
  21 H :    0.039161
  22 C :   -0.026879
  23 H :    0.011028
  24 H :    0.029914
  25 C :   -0.039059
  26 H :    0.032100
  27 H :    0.020174
  28 C :   -0.071077
  29 H :    0.026334
  30 H :    0.027573
  31 H :    0.021745
  32 H :    0.031738
  33 H :    0.030823

  Mayer bond orders larger than 0.100000
B(  0-S ,  1-C ) :   1.1181 B(  0-S ,  4-C ) :   1.1426 B(  1-C ,  2-C ) :   1.6245
B(  1-C , 32-H ) :   0.9589 B(  2-C ,  3-C ) :   1.2457 B(  2-C ,  6-C ) :   1.0156
B(  3-C ,  4-C ) :   1.5541 B(  3-C ,  5-H ) :   0.9869 B(  4-C , 20-C ) :   1.0627
B(  6-C ,  7-H ) :   0.9403 B(  6-C ,  8-H ) :   0.9446 B(  6-C ,  9-C ) :   1.0309
B(  9-C , 10-H ) :   0.9580 B(  9-C , 11-H ) :   0.9666 B(  9-C , 12-C ) :   1.0749
B( 12-C , 13-H ) :   0.9740 B( 12-C , 14-H ) :   0.9780 B( 12-C , 15-H ) :   0.9755
B( 16-S , 17-C ) :   1.1515 B( 16-S , 20-C ) :   1.1583 B( 17-C , 18-C ) :   1.5962
B( 17-C , 20-C ) :   0.1014 B( 17-C , 33-H ) :   0.9683 B( 18-C , 19-C ) :   1.2589
B( 18-C , 21-H ) :   0.9737 B( 19-C , 20-C ) :   1.5395 B( 19-C , 22-C ) :   1.0392
B( 22-C , 23-H ) :   0.9392 B( 22-C , 24-H ) :   0.9321 B( 22-C , 25-C ) :   1.0530
B( 25-C , 26-H ) :   0.9567 B( 25-C , 27-H ) :   0.9467 B( 25-C , 28-C ) :   1.0929
B( 28-C , 29-H ) :   0.9725 B( 28-C , 30-H ) :   0.9679 B( 28-C , 31-H ) :   0.9741

Dispersion correction           -0.013547816
FINAL SINGLE POINT ENERGY     -1339.853582878986

DIPOLE MOMENT
-------------
                                X             Y             Z
Electronic contribution:      7.04481       5.86557       5.16902
Nuclear contribution   :     -7.19601      -5.90310      -5.40300
                        -----------------------------------------
Total Dipole Moment    :     -0.15119      -0.03753      -0.23398
                        -----------------------------------------
Magnitude (a.u.)       :      0.28109
Magnitude (Debye)      :      0.71448

Rotational constants in cm-1:     0.022352     0.007547     0.005997
Rotational constants in MHz :   670.094261   226.261581   179.796359

                             ****ORCA TERMINATED NORMALLY****
TOTAL RUN TIME: 0 days 0 hours 0 minutes 19 seconds 557 msec
