                         Program Version 4.2.1 -  RELEASE  -
|  1> ! wB97X-D3 SP def2-SVP
|  2> %pal
|  3> nprocs 24
|  4> end
|  5>
|  6> * xyz 0 1
|  7> S 	 -62.8766 	 15.749 	 -91.2174
|  8> C 	 -62.9383 	 17.1752 	 -92.2966
|  9> C 	 -62.7306 	 18.3863 	 -91.5799
| 10> C 	 -62.6292 	 18.1263 	 -90.1526
| 11> C 	 -62.5088 	 16.7807 	 -89.8364
| 12> H 	 -62.528 	 18.857 	 -89.3621
| 13> C 	 -62.925 	 19.7424 	 -92.2023
| 14> H 	 -63.1132 	 19.7148 	 -93.2748
| 15> H 	 -61.9082 	 20.178 	 -92.1036
| 16> C 	 -63.923 	 20.7529 	 -91.5616
| 17> H 	 -63.8884 	 20.8815 	 -90.4653
| 18> H 	 -63.6897 	 21.7658 	 -91.9037
| 19> C 	 -65.4117 	 20.3579 	 -91.8983
| 20> H 	 -65.7995 	 19.6341 	 -91.1897
| 21> H 	 -66.0454 	 21.1829 	 -91.9668
| 22> H 	 -65.4615 	 19.769 	 -92.83
| 23> S 	 -63.4503 	 15.175 	 -87.7444
| 24> C 	 -62.6338 	 15.0921 	 -86.2503
| 25> C 	 -61.5075 	 15.8263 	 -86.3358
| 26> C 	 -61.2641 	 16.5032 	 -87.6081
| 27> C 	 -62.3108 	 16.2656 	 -88.5086
| 28> H 	 -60.8272 	 15.8457 	 -85.472
| 29> C 	 -60.1117 	 17.5517 	 -87.8417
| 30> H 	 -59.5993 	 17.7625 	 -86.9313
| 31> H 	 -60.5313 	 18.4594 	 -88.3269
| 32> C 	 -59.0931 	 16.9742 	 -88.8397
| 33> H 	 -58.4158 	 17.7773 	 -89.0985
| 34> H 	 -59.6676 	 16.6365 	 -89.6939
| 35> C 	 -58.0992 	 15.8958 	 -88.3118
| 36> H 	 -58.5426 	 14.9779 	 -87.9704
| 37> H 	 -57.5323 	 16.2989 	 -87.4872
| 38> H 	 -57.4302 	 15.3712 	 -89.0994
| 39> H 	 -62.9684 	 17.1856 	 -93.3547
| 40> H 	 -62.8988 	 14.334 	 -85.5422
| 41> *
| 42>
| 43>                          ****END OF INPUT****

CARTESIAN COORDINATES (ANGSTROEM)
---------------------------------
  S    -62.876600   15.749000  -91.217400
  C    -62.938300   17.175200  -92.296600
  C    -62.730600   18.386300  -91.579900
  C    -62.629200   18.126300  -90.152600
  C    -62.508800   16.780700  -89.836400
  H    -62.528000   18.857000  -89.362100
  C    -62.925000   19.742400  -92.202300
  H    -63.113200   19.714800  -93.274800
  H    -61.908200   20.178000  -92.103600
  C    -63.923000   20.752900  -91.561600
  H    -63.888400   20.881500  -90.465300
  H    -63.689700   21.765800  -91.903700
  C    -65.411700   20.357900  -91.898300
  H    -65.799500   19.634100  -91.189700
  H    -66.045400   21.182900  -91.966800
  H    -65.461500   19.769000  -92.830000
  S    -63.450300   15.175000  -87.744400
  C    -62.633800   15.092100  -86.250300
  C    -61.507500   15.826300  -86.335800
  C    -61.264100   16.503200  -87.608100
  C    -62.310800   16.265600  -88.508600
  H    -60.827200   15.845700  -85.472000
  C    -60.111700   17.551700  -87.841700
  H    -59.599300   17.762500  -86.931300
  H    -60.531300   18.459400  -88.326900
  C    -59.093100   16.974200  -88.839700
  H    -58.415800   17.777300  -89.098500
  H    -59.667600   16.636500  -89.693900
  C    -58.099200   15.895800  -88.311800
  H    -58.542600   14.977900  -87.970400
  H    -57.532300   16.298900  -87.487200
  H    -57.430200   15.371200  -89.099400
  H    -62.968400   17.185600  -93.354700
  H    -62.898800   14.334000  -85.542200

 Total Charge           Charge          ....    0
 Multiplicity           Mult            ....    1
 Number of Electrons    NEL             ....  134
 Basis Dimension        Dim             ....  322

ORBITAL ENERGIES
----------------

  NO   OCC          E(Eh)            E(eV)
   0   2.0000     -88.971596     -2421.0402
   1   2.0000     -88.959713     -2420.7168
   2   2.0000     -10.333046      -281.1765
   3   2.0000     -10.327032      -281.0128
   4   2.0000     -10.320075      -280.8235
   5   2.0000     -10.311703      -280.5957
   6   2.0000     -10.311167      -280.5811
   7   2.0000     -10.309967      -280.5485
   8   2.0000     -10.301099      -280.3071
   9   2.0000     -10.299956      -280.2760
  10   2.0000     -10.296566      -280.1838
  11   2.0000     -10.296162      -280.1728
  12   2.0000     -10.294756      -280.1345
  13   2.0000     -10.281410      -279.7714
  14   2.0000     -10.277427      -279.6630
  15   2.0000     -10.272683      -279.5339
  16   2.0000      -8.085134      -220.0077
  17   2.0000      -8.075709      -219.7512
  18   2.0000      -6.043795      -164.4600
  19   2.0000      -6.039817      -164.3518
  20   2.0000      -6.035791      -164.2422
  21   2.0000      -6.034189      -164.1986
  22   2.0000      -6.029867      -164.0810
  23   2.0000      -6.026582      -163.9916
  24   2.0000      -1.006740       -27.3948
  25   2.0000      -0.980943       -26.6928
  26   2.0000      -0.908895       -24.7323
  27   2.0000      -0.902964       -24.5709
  28   2.0000      -0.869890       -23.6709
  29   2.0000      -0.845591       -23.0097
  30   2.0000      -0.836346       -22.7581
  31   2.0000      -0.815457       -22.1897
  32   2.0000      -0.783369       -21.3166
  33   2.0000      -0.774370       -21.0717
  34   2.0000      -0.714094       -19.4315
  35   2.0000      -0.700360       -19.0578
  36   2.0000      -0.687671       -18.7125
  37   2.0000      -0.658397       -17.9159
  38   2.0000      -0.641583       -17.4584
  39   2.0000      -0.620543       -16.8858
  40   2.0000      -0.594121       -16.1668
  41   2.0000      -0.565851       -15.3976
  42   2.0000      -0.561727       -15.2854
  43   2.0000      -0.554468       -15.0878
  44   2.0000      -0.534937       -14.5564
  45   2.0000      -0.532879       -14.5004
  46   2.0000      -0.513483       -13.9726
  47   2.0000      -0.511506       -13.9188
  48   2.0000      -0.509689       -13.8693
  49   2.0000      -0.493040       -13.4163
  50   2.0000      -0.486255       -13.2317
  51   2.0000      -0.479997       -13.0614
  52   2.0000      -0.470775       -12.8104
  53   2.0000      -0.464627       -12.6431
  54   2.0000      -0.458516       -12.4768
  55   2.0000      -0.453375       -12.3370
  56   2.0000      -0.436153       -11.8683
  57   2.0000      -0.434468       -11.8225
  58   2.0000      -0.433612       -11.7992
  59   2.0000      -0.426199       -11.5975
  60   2.0000      -0.418135       -11.3780
  61   2.0000      -0.417627       -11.3642
  62   2.0000      -0.403406       -10.9772
  63   2.0000      -0.345896        -9.4123
  64   2.0000      -0.329718        -8.9721
  65   2.0000      -0.326525        -8.8852
  66   2.0000      -0.296427        -8.0662
  67   0.0000       0.026316         0.7161
  68   0.0000       0.067165         1.8277
  69   0.0000       0.112369         3.0577
  70   0.0000       0.118410         3.2221
  71   0.0000       0.127249         3.4626

MULLIKEN ATOMIC CHARGES
-----------------------
   0 S :    0.118009
   1 C :   -0.104047
   2 C :   -0.077710
   3 C :    0.026467
   4 C :   -0.165992
   5 H :    0.023867
   6 C :    0.036660
   7 H :    0.028053
   8 H :    0.038780
   9 C :   -0.079025
  10 H :    0.034692
  11 H :    0.029103
  12 C :   -0.042080
  13 H :    0.039812
  14 H :    0.028457
  15 H :    0.021255
  16 S :    0.097242
  17 C :   -0.084971
  18 C :   -0.045415
  19 C :   -0.044811
  20 C :   -0.168176
  21 H :    0.024148
  22 C :    0.101414
  23 H :    0.010096
  24 H :    0.035110
  25 C :   -0.070494
  26 H :    0.028336
  27 H :    0.043552
  28 C :   -0.077677
  29 H :    0.020042
  30 H :    0.028515
  31 H :    0.043653
  32 H :    0.039291
  33 H :    0.063843
Sum of atomic charges:    0.0000000

LOEWDIN ATOMIC CHARGES
----------------------
   0 S :    0.391251
   1 C :   -0.185548
   2 C :   -0.055585
   3 C :   -0.054744
   4 C :   -0.191513
   5 H :    0.030228
   6 C :   -0.037401
   7 H :    0.031143
   8 H :    0.038543
   9 C :   -0.039569
  10 H :    0.026185
  11 H :    0.025399
  12 C :   -0.063532
  13 H :    0.029606
  14 H :    0.016641
  15 H :    0.025615
  16 S :    0.416578
  17 C :   -0.197205
  18 C :   -0.080537
  19 C :   -0.050236
  20 C :   -0.207116
  21 H :    0.032111
  22 C :   -0.020550
  23 H :    0.022339
  24 H :    0.035403
  25 C :   -0.037714
  26 H :    0.022903
  27 H :    0.025037
  28 C :   -0.079299
  29 H :    0.018381
  30 H :    0.020340
  31 H :    0.040128
  32 H :    0.020956
  33 H :    0.031762

  Mayer bond orders larger than 0.100000
B(  0-S ,  1-C ) :   1.1263 B(  0-S ,  4-C ) :   1.1351 B(  1-C ,  2-C ) :   1.6112
B(  1-C , 32-H ) :   0.9690 B(  2-C ,  3-C ) :   1.2161 B(  2-C ,  6-C ) :   1.0313
B(  3-C ,  4-C ) :   1.5900 B(  3-C ,  5-H ) :   0.9832 B(  4-C , 20-C ) :   1.0574
B(  6-C ,  7-H ) :   0.9490 B(  6-C ,  8-H ) :   0.9264 B(  6-C ,  9-C ) :   1.0761
B(  9-C , 10-H ) :   0.9580 B(  9-C , 11-H ) :   0.9585 B(  9-C , 12-C ) :   1.0543
B( 12-C , 13-H ) :   0.9776 B( 12-C , 14-H ) :   0.9786 B( 12-C , 15-H ) :   0.9798
B( 16-S , 17-C ) :   1.1621 B( 16-S , 20-C ) :   1.1498 B( 17-C , 18-C ) :   1.6000
B( 17-C , 33-H ) :   0.9702 B( 18-C , 19-C ) :   1.2527 B( 18-C , 21-H ) :   0.9866
B( 19-C , 20-C ) :   1.5742 B( 19-C , 22-C ) :   1.0303 B( 22-C , 23-H ) :   0.9378
B( 22-C , 24-H ) :   0.9393 B( 22-C , 25-C ) :   1.0671 B( 25-C , 26-H ) :   0.9570
B( 25-C , 27-H ) :   0.9604 B( 25-C , 28-C ) :   1.0661 B( 28-C , 29-H ) :   0.9756
B( 28-C , 30-H ) :   0.9760 B( 28-C , 31-H ) :   0.9735

Dispersion correction           -0.014843473
FINAL SINGLE POINT ENERGY     -1339.871215872224

DIPOLE MOMENT
-------------
                                X             Y             Z
Electronic contribution:     -9.37714     -18.12017       4.34977
Nuclear contribution   :      9.63593      18.67748      -4.31812
                        -----------------------------------------
Total Dipole Moment    :      0.25879       0.55730       0.03165
                        -----------------------------------------
Magnitude (a.u.)       :      0.61527
Magnitude (Debye)      :      1.56390

Rotational constants in cm-1:     0.019657     0.008323     0.007416
Rotational constants in MHz :   589.310993   249.509087   222.318335

                             ****ORCA TERMINATED NORMALLY****
TOTAL RUN TIME: 0 days 0 hours 0 minutes 20 seconds 747 msec
