                         Program Version 4.2.1 -  RELEASE  -
|  1> ! wB97X-D3 SP def2-SVP
|  2> %pal
|  3> nprocs 24
|  4> end
|  5>
|  6> * xyz 0 1
|  7> S 	 -124.704 	 68.1158 	 -42.8632
|  8> C 	 -126.251 	 68.1408 	 -42.1195
|  9> C 	 -126.291 	 68.9928 	 -41.0169
| 10> C 	 -125.02 	 69.6311 	 -40.9055
| 11> C 	 -124.088 	 69.3118 	 -41.8367
| 12> H 	 -124.812 	 70.3778 	 -40.2139
| 13> C 	 -127.437 	 69.3489 	 -40.1094
| 14> H 	 -128.278 	 68.6723 	 -40.4611
| 15> H 	 -127.76 	 70.4158 	 -40.3342
| 16> C 	 -127.237 	 69.1881 	 -38.6032
| 17> H 	 -127.07 	 68.212 	 -38.1608
| 18> H 	 -126.315 	 69.7435 	 -38.2715
| 19> C 	 -128.435 	 69.745 	 -37.8048
| 20> H 	 -128.656 	 70.7453 	 -38.131
| 21> H 	 -129.321 	 69.1957 	 -38.1479
| 22> H 	 -128.378 	 69.636 	 -36.7611
| 23> S 	 -121.933 	 70.0008 	 -40.3763
| 24> C 	 -120.524 	 70.5047 	 -41.3157
| 25> C 	 -120.565 	 70.2269 	 -42.6461
| 26> C 	 -121.86 	 69.6991 	 -43.0103
| 27> C 	 -122.716 	 69.7374 	 -41.9385
| 28> H 	 -119.713 	 70.528 	 -43.2476
| 29> C 	 -122.099 	 69.1871 	 -44.4551
| 30> H 	 -123.111 	 69.4227 	 -44.6785
| 31> H 	 -122.255 	 68.0711 	 -44.4653
| 32> C 	 -121.239 	 69.7981 	 -45.6492
| 33> H 	 -120.268 	 69.2574 	 -45.477
| 34> H 	 -121.103 	 70.8472 	 -45.5556
| 35> C 	 -121.714 	 69.3389 	 -47.0466
| 36> H 	 -122.78 	 69.4059 	 -47.202
| 37> H 	 -121.556 	 68.2922 	 -47.167
| 38> H 	 -121.233 	 69.9639 	 -47.8434
| 39> H 	 -127.112 	 67.6327 	 -42.4583
| 40> H 	 -119.732 	 71.0841 	 -40.9626
| 41> *
| 42>
| 43>                          ****END OF INPUT****

CARTESIAN COORDINATES (ANGSTROEM)
---------------------------------
  S    -124.704000   68.115800  -42.863200
  C    -126.251000   68.140800  -42.119500
  C    -126.291000   68.992800  -41.016900
  C    -125.020000   69.631100  -40.905500
  C    -124.088000   69.311800  -41.836700
  H    -124.812000   70.377800  -40.213900
  C    -127.437000   69.348900  -40.109400
  H    -128.278000   68.672300  -40.461100
  H    -127.760000   70.415800  -40.334200
  C    -127.237000   69.188100  -38.603200
  H    -127.070000   68.212000  -38.160800
  H    -126.315000   69.743500  -38.271500
  C    -128.435000   69.745000  -37.804800
  H    -128.656000   70.745300  -38.131000
  H    -129.321000   69.195700  -38.147900
  H    -128.378000   69.636000  -36.761100
  S    -121.933000   70.000800  -40.376300
  C    -120.524000   70.504700  -41.315700
  C    -120.565000   70.226900  -42.646100
  C    -121.860000   69.699100  -43.010300
  C    -122.716000   69.737400  -41.938500
  H    -119.713000   70.528000  -43.247600
  C    -122.099000   69.187100  -44.455100
  H    -123.111000   69.422700  -44.678500
  H    -122.255000   68.071100  -44.465300
  C    -121.239000   69.798100  -45.649200
  H    -120.268000   69.257400  -45.477000
  H    -121.103000   70.847200  -45.555600
  C    -121.714000   69.338900  -47.046600
  H    -122.780000   69.405900  -47.202000
  H    -121.556000   68.292200  -47.167000
  H    -121.233000   69.963900  -47.843400
  H    -127.112000   67.632700  -42.458300
  H    -119.732000   71.084100  -40.962600

 Total Charge           Charge          ....    0
 Multiplicity           Mult            ....    1
 Number of Electrons    NEL             ....  134
 Basis Dimension        Dim             ....  322

ORBITAL ENERGIES
----------------

  NO   OCC          E(Eh)            E(eV)
   0   2.0000     -88.966427     -2420.8996
   1   2.0000     -88.964253     -2420.8404
   2   2.0000     -10.324150      -280.9344
   3   2.0000     -10.317126      -280.7433
   4   2.0000     -10.308086      -280.4973
   5   2.0000     -10.307963      -280.4939
   6   2.0000     -10.307552      -280.4827
   7   2.0000     -10.304895      -280.4105
   8   2.0000     -10.299562      -280.2653
   9   2.0000     -10.297307      -280.2040
  10   2.0000     -10.295977      -280.1678
  11   2.0000     -10.291457      -280.0448
  12   2.0000     -10.290438      -280.0171
  13   2.0000     -10.280875      -279.7568
  14   2.0000     -10.279254      -279.7127
  15   2.0000     -10.272957      -279.5414
  16   2.0000      -8.080689      -219.8867
  17   2.0000      -8.080238      -219.8744
  18   2.0000      -6.039265      -164.3368
  19   2.0000      -6.038666      -164.3205
  20   2.0000      -6.035726      -164.2404
  21   2.0000      -6.034472      -164.2063
  22   2.0000      -6.031121      -164.1152
  23   2.0000      -6.030947      -164.1104
  24   2.0000      -1.015607       -27.6361
  25   2.0000      -0.986535       -26.8450
  26   2.0000      -0.912540       -24.8315
  27   2.0000      -0.900121       -24.4935
  28   2.0000      -0.873930       -23.7809
  29   2.0000      -0.856466       -23.3056
  30   2.0000      -0.845211       -22.9994
  31   2.0000      -0.816519       -22.2186
  32   2.0000      -0.783979       -21.3331
  33   2.0000      -0.772302       -21.0154
  34   2.0000      -0.710573       -19.3357
  35   2.0000      -0.706566       -19.2266
  36   2.0000      -0.692840       -18.8531
  37   2.0000      -0.664348       -18.0778
  38   2.0000      -0.638299       -17.3690
  39   2.0000      -0.621103       -16.9011
  40   2.0000      -0.596885       -16.2421
  41   2.0000      -0.574179       -15.6242
  42   2.0000      -0.562993       -15.3198
  43   2.0000      -0.555609       -15.1189
  44   2.0000      -0.533288       -14.5115
  45   2.0000      -0.525489       -14.2993
  46   2.0000      -0.523423       -14.2431
  47   2.0000      -0.508364       -13.8333
  48   2.0000      -0.501565       -13.6483
  49   2.0000      -0.498704       -13.5704
  50   2.0000      -0.482383       -13.1263
  51   2.0000      -0.478279       -13.0146
  52   2.0000      -0.474270       -12.9055
  53   2.0000      -0.465234       -12.6597
  54   2.0000      -0.457765       -12.4564
  55   2.0000      -0.453015       -12.3272
  56   2.0000      -0.450494       -12.2586
  57   2.0000      -0.444785       -12.1032
  58   2.0000      -0.437558       -11.9066
  59   2.0000      -0.429343       -11.6830
  60   2.0000      -0.423500       -11.5240
  61   2.0000      -0.410028       -11.1574
  62   2.0000      -0.403681       -10.9847
  63   2.0000      -0.352550        -9.5934
  64   2.0000      -0.332912        -9.0590
  65   2.0000      -0.328412        -8.9365
  66   2.0000      -0.285800        -7.7770
  67   0.0000       0.026982         0.7342
  68   0.0000       0.086564         2.3555
  69   0.0000       0.097685         2.6581
  70   0.0000       0.123527         3.3613
  71   0.0000       0.133318         3.6278

MULLIKEN ATOMIC CHARGES
-----------------------
   0 S :    0.095214
   1 C :   -0.094171
   2 C :   -0.065263
   3 C :   -0.002792
   4 C :   -0.125096
   5 H :   -0.020127
   6 C :    0.036496
   7 H :    0.025354
   8 H :    0.053851
   9 C :   -0.090945
  10 H :    0.031997
  11 H :    0.033963
  12 C :   -0.020928
  13 H :    0.016487
  14 H :    0.016366
  15 H :    0.034176
  16 S :    0.103223
  17 C :   -0.051619
  18 C :   -0.054572
  19 C :   -0.051739
  20 C :   -0.103858
  21 H :    0.025760
  22 C :    0.026382
  23 H :    0.007359
  24 H :    0.048890
  25 C :   -0.072300
  26 H :    0.044533
  27 H :    0.039562
  28 C :   -0.034203
  29 H :    0.024004
  30 H :    0.026592
  31 H :    0.047948
  32 H :    0.024119
  33 H :    0.025334
Sum of atomic charges:    0.0000000

LOEWDIN ATOMIC CHARGES
----------------------
   0 S :    0.455059
   1 C :   -0.204553
   2 C :   -0.060715
   3 C :   -0.071943
   4 C :   -0.209680
   5 H :    0.012759
   6 C :   -0.037337
   7 H :    0.035309
   8 H :    0.043982
   9 C :   -0.045220
  10 H :    0.026216
  11 H :    0.026312
  12 C :   -0.059431
  13 H :    0.019526
  14 H :    0.025338
  15 H :    0.020440
  16 S :    0.390243
  17 C :   -0.166586
  18 C :   -0.067559
  19 C :   -0.052193
  20 C :   -0.184833
  21 H :    0.036532
  22 C :   -0.050669
  23 H :    0.014282
  24 H :    0.037354
  25 C :   -0.035931
  26 H :    0.032023
  27 H :    0.020910
  28 C :   -0.064757
  29 H :    0.021988
  30 H :    0.023928
  31 H :    0.036347
  32 H :    0.018393
  33 H :    0.014465

  Mayer bond orders larger than 0.100000
B(  0-S ,  1-C ) :   1.1537 B(  0-S ,  4-C ) :   1.1520 B(  1-C ,  2-C ) :   1.5946
B(  1-C , 32-H ) :   0.9705 B(  2-C ,  3-C ) :   1.2517 B(  2-C ,  6-C ) :   1.0261
B(  3-C ,  4-C ) :   1.5520 B(  3-C ,  5-H ) :   1.0062 B(  4-C , 20-C ) :   1.0730
B(  6-C ,  7-H ) :   0.9371 B(  6-C ,  8-H ) :   0.9397 B(  6-C ,  9-C ) :   1.0533
B(  9-C , 10-H ) :   0.9571 B(  9-C , 11-H ) :   0.9552 B(  9-C , 12-C ) :   1.0829
B( 12-C , 13-H ) :   0.9740 B( 12-C , 14-H ) :   0.9717 B( 12-C , 15-H ) :   0.9754
B( 16-S , 17-C ) :   1.1180 B( 16-S , 20-C ) :   1.1187 B( 17-C , 18-C ) :   1.6859
B( 17-C , 33-H ) :   0.9629 B( 18-C , 19-C ) :   1.1799 B( 18-C , 21-H ) :   0.9872
B( 19-C , 20-C ) :   1.6323 B( 19-C , 22-C ) :   1.0278 B( 22-C , 23-H ) :   0.9215
B( 22-C , 24-H ) :   0.9323 B( 22-C , 25-C ) :   1.0457 B( 25-C , 26-H ) :   0.9527
B( 25-C , 27-H ) :   0.9635 B( 25-C , 28-C ) :   1.0775 B( 28-C , 29-H ) :   0.9767
B( 28-C , 30-H ) :   0.9751 B( 28-C , 31-H ) :   0.9738

Dispersion correction           -0.013183953
FINAL SINGLE POINT ENERGY     -1339.861846202530

DIPOLE MOMENT
-------------
                                X             Y             Z
Electronic contribution:      9.75973      -2.34328       4.18753
Nuclear contribution   :     -9.88647       2.48780      -4.37158
                        -----------------------------------------
Total Dipole Moment    :     -0.12675       0.14452      -0.18405
                        -----------------------------------------
Magnitude (a.u.)       :      0.26613
Magnitude (Debye)      :      0.67644

Rotational constants in cm-1:     0.023910     0.007179     0.005724
Rotational constants in MHz :   716.816081   215.211967   171.595641

                             ****ORCA TERMINATED NORMALLY****
TOTAL RUN TIME: 0 days 0 hours 0 minutes 19 seconds 741 msec
