                         Program Version 4.2.1 -  RELEASE  -
|  1> ! wB97X-D3 SP def2-SVP
|  2> %pal
|  3> nprocs 24
|  4> end
|  5>
|  6> * xyz 0 1
|  7> S 	 -143.6 	 28.811 	 -11.9333
|  8> C 	 -144.093 	 28.1115 	 -13.4625
|  9> C 	 -144.129 	 29.1258 	 -14.4474
| 10> C 	 -143.843 	 30.3575 	 -13.915
| 11> C 	 -143.599 	 30.3601 	 -12.6125
| 12> H 	 -143.824 	 31.3423 	 -14.3465
| 13> C 	 -144.462 	 28.9826 	 -15.9206
| 14> H 	 -143.713 	 28.4744 	 -16.4164
| 15> H 	 -144.49 	 29.9402 	 -16.336
| 16> C 	 -145.88 	 28.2919 	 -16.1391
| 17> H 	 -145.847 	 27.2599 	 -15.8425
| 18> H 	 -146.689 	 28.6663 	 -15.5162
| 19> C 	 -146.461 	 28.5278 	 -17.5733
| 20> H 	 -147.472 	 28.2125 	 -17.5949
| 21> H 	 -146.462 	 29.5729 	 -17.7882
| 22> H 	 -145.909 	 27.9458 	 -18.3603
| 23> S 	 -144.307 	 31.7507 	 -10.442
| 24> C 	 -143.417 	 33.1879 	 -10.2004
| 25> C 	 -142.505 	 33.4318 	 -11.1566
| 26> C 	 -142.416 	 32.4674 	 -12.1033
| 27> C 	 -143.343 	 31.5097 	 -11.8707
| 28> H 	 -141.97 	 34.4037 	 -11.2334
| 29> C 	 -141.401 	 32.425 	 -13.1605
| 30> H 	 -141.415 	 31.4994 	 -13.7071
| 31> H 	 -140.475 	 32.3138 	 -12.6284
| 32> C 	 -141.421 	 33.6496 	 -14.1417
| 33> H 	 -140.692 	 33.567 	 -14.9056
| 34> H 	 -140.869 	 34.4127 	 -13.5379
| 35> C 	 -142.763 	 34.285 	 -14.4005
| 36> H 	 -143.299 	 34.7627 	 -13.5462
| 37> H 	 -143.493 	 33.5178 	 -14.9067
| 38> H 	 -142.544 	 35.1074 	 -15.0667
| 39> H 	 -144.337 	 27.0632 	 -13.6026
| 40> H 	 -143.654 	 33.9216 	 -9.4827
| 41> *
| 42>
| 43>                          ****END OF INPUT****

CARTESIAN COORDINATES (ANGSTROEM)
---------------------------------
  S    -143.600000   28.811000  -11.933300
  C    -144.093000   28.111500  -13.462500
  C    -144.129000   29.125800  -14.447400
  C    -143.843000   30.357500  -13.915000
  C    -143.599000   30.360100  -12.612500
  H    -143.824000   31.342300  -14.346500
  C    -144.462000   28.982600  -15.920600
  H    -143.713000   28.474400  -16.416400
  H    -144.490000   29.940200  -16.336000
  C    -145.880000   28.291900  -16.139100
  H    -145.847000   27.259900  -15.842500
  H    -146.689000   28.666300  -15.516200
  C    -146.461000   28.527800  -17.573300
  H    -147.472000   28.212500  -17.594900
  H    -146.462000   29.572900  -17.788200
  H    -145.909000   27.945800  -18.360300
  S    -144.307000   31.750700  -10.442000
  C    -143.417000   33.187900  -10.200400
  C    -142.505000   33.431800  -11.156600
  C    -142.416000   32.467400  -12.103300
  C    -143.343000   31.509700  -11.870700
  H    -141.970000   34.403700  -11.233400
  C    -141.401000   32.425000  -13.160500
  H    -141.415000   31.499400  -13.707100
  H    -140.475000   32.313800  -12.628400
  C    -141.421000   33.649600  -14.141700
  H    -140.692000   33.567000  -14.905600
  H    -140.869000   34.412700  -13.537900
  C    -142.763000   34.285000  -14.400500
  H    -143.299000   34.762700  -13.546200
  H    -143.493000   33.517800  -14.906700
  H    -142.544000   35.107400  -15.066700
  H    -144.337000   27.063200  -13.602600
  H    -143.654000   33.921600   -9.482700

 Total Charge           Charge          ....    0
 Multiplicity           Mult            ....    1
 Number of Electrons    NEL             ....  134
 Basis Dimension        Dim             ....  322

ORBITAL ENERGIES
----------------

  NO   OCC          E(Eh)            E(eV)
   0   2.0000     -88.964609     -2420.8501
   1   2.0000     -88.961994     -2420.7789
   2   2.0000     -10.310438      -280.5613
   3   2.0000     -10.307633      -280.4850
   4   2.0000     -10.302956      -280.3577
   5   2.0000     -10.302614      -280.3484
   6   2.0000     -10.295416      -280.1525
   7   2.0000     -10.290510      -280.0190
   8   2.0000     -10.289743      -279.9982
   9   2.0000     -10.286479      -279.9093
  10   2.0000     -10.284468      -279.8546
  11   2.0000     -10.282935      -279.8129
  12   2.0000     -10.282699      -279.8065
  13   2.0000     -10.281024      -279.7609
  14   2.0000     -10.275997      -279.6241
  15   2.0000     -10.272304      -279.5236
  16   2.0000      -8.080613      -219.8847
  17   2.0000      -8.077801      -219.8081
  18   2.0000      -6.038785      -164.3237
  19   2.0000      -6.036122      -164.2512
  20   2.0000      -6.035167      -164.2252
  21   2.0000      -6.032125      -164.1425
  22   2.0000      -6.031435      -164.1237
  23   2.0000      -6.028747      -164.0505
  24   2.0000      -1.026141       -27.9227
  25   2.0000      -0.996912       -27.1273
  26   2.0000      -0.916008       -24.9258
  27   2.0000      -0.906705       -24.6727
  28   2.0000      -0.873182       -23.7605
  29   2.0000      -0.860000       -23.4018
  30   2.0000      -0.851357       -23.1666
  31   2.0000      -0.814461       -22.1626
  32   2.0000      -0.789948       -21.4956
  33   2.0000      -0.772210       -21.0129
  34   2.0000      -0.710856       -19.3434
  35   2.0000      -0.706246       -19.2179
  36   2.0000      -0.697762       -18.9871
  37   2.0000      -0.663886       -18.0653
  38   2.0000      -0.648233       -17.6393
  39   2.0000      -0.617191       -16.7946
  40   2.0000      -0.601145       -16.3580
  41   2.0000      -0.564143       -15.3511
  42   2.0000      -0.561087       -15.2680
  43   2.0000      -0.553927       -15.0731
  44   2.0000      -0.541636       -14.7387
  45   2.0000      -0.523628       -14.2486
  46   2.0000      -0.519467       -14.1354
  47   2.0000      -0.514220       -13.9926
  48   2.0000      -0.503400       -13.6982
  49   2.0000      -0.502215       -13.6660
  50   2.0000      -0.492373       -13.3982
  51   2.0000      -0.482076       -13.1180
  52   2.0000      -0.473547       -12.8859
  53   2.0000      -0.466110       -12.6835
  54   2.0000      -0.460964       -12.5435
  55   2.0000      -0.454369       -12.3640
  56   2.0000      -0.449096       -12.2205
  57   2.0000      -0.442125       -12.0308
  58   2.0000      -0.433562       -11.7978
  59   2.0000      -0.431760       -11.7488
  60   2.0000      -0.425109       -11.5678
  61   2.0000      -0.413924       -11.2634
  62   2.0000      -0.395368       -10.7585
  63   2.0000      -0.343495        -9.3470
  64   2.0000      -0.337461        -9.1828
  65   2.0000      -0.330659        -8.9977
  66   2.0000      -0.286158        -7.7868
  67   0.0000       0.038572         1.0496
  68   0.0000       0.076644         2.0856
  69   0.0000       0.116701         3.1756
  70   0.0000       0.128668         3.5012
  71   0.0000       0.132664         3.6100

MULLIKEN ATOMIC CHARGES
-----------------------
   0 S :    0.122338
   1 C :   -0.150186
   2 C :   -0.064152
   3 C :    0.023080
   4 C :   -0.157741
   5 H :   -0.028165
   6 C :    0.166205
   7 H :    0.021183
   8 H :   -0.006761
   9 C :   -0.112051
  10 H :    0.025024
  11 H :    0.031186
  12 C :   -0.042514
  13 H :    0.024555
  14 H :    0.027819
  15 H :    0.036980
  16 S :    0.130775
  17 C :   -0.057072
  18 C :   -0.067773
  19 C :   -0.013961
  20 C :   -0.202054
  21 H :    0.020552
  22 C :    0.106163
  23 H :    0.020400
  24 H :    0.027388
  25 C :   -0.082011
  26 H :    0.023193
  27 H :    0.014861
  28 C :   -0.054404
  29 H :    0.051686
  30 H :    0.053370
  31 H :    0.035079
  32 H :    0.047389
  33 H :    0.029617
Sum of atomic charges:    0.0000000

LOEWDIN ATOMIC CHARGES
----------------------
   0 S :    0.430117
   1 C :   -0.208834
   2 C :   -0.053134
   3 C :   -0.073340
   4 C :   -0.215649
   5 H :    0.029244
   6 C :   -0.012449
   7 H :    0.023919
   8 H :    0.020635
   9 C :   -0.035583
  10 H :    0.017335
  11 H :    0.026607
  12 C :   -0.062974
  13 H :    0.020787
  14 H :    0.020814
  15 H :    0.027523
  16 S :    0.426819
  17 C :   -0.187909
  18 C :   -0.074004
  19 C :   -0.062056
  20 C :   -0.196878
  21 H :    0.036767
  22 C :   -0.029511
  23 H :    0.026521
  24 H :    0.035423
  25 C :   -0.047380
  26 H :    0.022936
  27 H :    0.028312
  28 C :   -0.073850
  29 H :    0.035166
  30 H :    0.031759
  31 H :    0.028932
  32 H :    0.025385
  33 H :    0.018550

  Mayer bond orders larger than 0.100000
B(  0-S ,  1-C ) :   1.1443 B(  0-S ,  4-C ) :   1.1688 B(  1-C ,  2-C ) :   1.5512
B(  1-C ,  4-C ) :   0.1045 B(  1-C , 32-H ) :   0.9784 B(  2-C ,  3-C ) :   1.2607
B(  2-C ,  6-C ) :   1.0229 B(  3-C ,  4-C ) :   1.5701 B(  3-C ,  5-H ) :   1.0025
B(  4-C , 20-C ) :   1.0404 B(  6-C ,  7-H ) :   0.9284 B(  6-C ,  8-H ) :   0.9406
B(  6-C ,  9-C ) :   1.0488 B(  9-C , 10-H ) :   0.9587 B(  9-C , 11-H ) :   0.9641
B(  9-C , 12-C ) :   1.0837 B( 12-C , 13-H ) :   0.9766 B( 12-C , 14-H ) :   0.9763
B( 12-C , 15-H ) :   0.9762 B( 16-S , 17-C ) :   1.1512 B( 16-S , 20-C ) :   1.1521
B( 17-C , 18-C ) :   1.6146 B( 17-C , 20-C ) :   0.1011 B( 17-C , 33-H ) :   0.9676
B( 18-C , 19-C ) :   1.2593 B( 18-C , 21-H ) :   0.9821 B( 19-C , 20-C ) :   1.5857
B( 19-C , 22-C ) :   1.0457 B( 22-C , 23-H ) :   0.9223 B( 22-C , 24-H ) :   0.9313
B( 22-C , 25-C ) :   1.0481 B( 25-C , 26-H ) :   0.9603 B( 25-C , 27-H ) :   0.9439
B( 25-C , 28-C ) :   1.0857 B( 28-C , 29-H ) :   0.9605 B( 28-C , 30-H ) :   0.9679
B( 28-C , 31-H ) :   0.9672

Dispersion correction           -0.014997435
FINAL SINGLE POINT ENERGY     -1339.851552322837

DIPOLE MOMENT
-------------
                                X             Y             Z
Electronic contribution:      1.20215      -5.63426      26.86965
Nuclear contribution   :     -1.04364       6.03202     -27.39116
                        -----------------------------------------
Total Dipole Moment    :      0.15850       0.39776      -0.52151
                        -----------------------------------------
Magnitude (a.u.)       :      0.67476
Magnitude (Debye)      :      1.71511

Rotational constants in cm-1:     0.020205     0.008712     0.006995
Rotational constants in MHz :   605.731793   261.182985   209.695603

                             ****ORCA TERMINATED NORMALLY****
TOTAL RUN TIME: 0 days 0 hours 0 minutes 22 seconds 492 msec
