                         Program Version 4.2.1 -  RELEASE  -
|  1> ! wB97X-D3 SP def2-SVP
|  2> %pal
|  3> nprocs 24
|  4> end
|  5>
|  6> * xyz 0 1
|  7> S 	 -137.639 	 68.2243 	 -62.0961
|  8> C 	 -137.835 	 69.186 	 -63.5463
|  9> C 	 -138.236 	 70.4948 	 -63.233
| 10> C 	 -138.369 	 70.7107 	 -61.8125
| 11> C 	 -138.289 	 69.559 	 -61.0763
| 12> H 	 -138.711 	 71.5617 	 -61.2751
| 13> C 	 -138.566 	 71.6849 	 -64.1978
| 14> H 	 -138.204 	 71.3898 	 -65.1776
| 15> H 	 -138.029 	 72.6096 	 -63.885
| 16> C 	 -140.046 	 71.8918 	 -64.1302
| 17> H 	 -140.379 	 71.8595 	 -63.1045
| 18> H 	 -140.275 	 72.903 	 -64.3679
| 19> C 	 -140.864 	 70.8593 	 -64.9121
| 20> H 	 -140.697 	 69.7967 	 -64.5751
| 21> H 	 -141.943 	 71.1066 	 -64.6621
| 22> H 	 -140.673 	 70.8633 	 -66.0046
| 23> S 	 -139.742 	 68.6899 	 -58.956
| 24> C 	 -139.186 	 69.0071 	 -57.3099
| 25> C 	 -138.045 	 69.6994 	 -57.3268
| 26> C 	 -137.522 	 69.9601 	 -58.6378
| 27> C 	 -138.319 	 69.363 	 -59.6148
| 28> H 	 -137.603 	 69.8976 	 -56.3344
| 29> C 	 -136.226 	 70.6447 	 -58.8654
| 30> H 	 -135.929 	 70.5446 	 -59.9274
| 31> H 	 -135.622 	 70.0527 	 -58.2642
| 32> C 	 -136.068 	 72.0843 	 -58.3082
| 33> H 	 -135.016 	 72.2834 	 -58.4577
| 34> H 	 -136.181 	 72.0616 	 -57.2381
| 35> C 	 -136.993 	 73.0512 	 -59.0794
| 36> H 	 -138.061 	 72.8184 	 -58.9015
| 37> H 	 -136.818 	 73.0707 	 -60.144
| 38> H 	 -136.858 	 74.0841 	 -58.8591
| 39> H 	 -137.655 	 68.7757 	 -64.547
| 40> H 	 -139.584 	 68.5852 	 -56.3706
| 41> *
| 42>
| 43>                          ****END OF INPUT****

CARTESIAN COORDINATES (ANGSTROEM)
---------------------------------
  S    -137.639000   68.224300  -62.096100
  C    -137.835000   69.186000  -63.546300
  C    -138.236000   70.494800  -63.233000
  C    -138.369000   70.710700  -61.812500
  C    -138.289000   69.559000  -61.076300
  H    -138.711000   71.561700  -61.275100
  C    -138.566000   71.684900  -64.197800
  H    -138.204000   71.389800  -65.177600
  H    -138.029000   72.609600  -63.885000
  C    -140.046000   71.891800  -64.130200
  H    -140.379000   71.859500  -63.104500
  H    -140.275000   72.903000  -64.367900
  C    -140.864000   70.859300  -64.912100
  H    -140.697000   69.796700  -64.575100
  H    -141.943000   71.106600  -64.662100
  H    -140.673000   70.863300  -66.004600
  S    -139.742000   68.689900  -58.956000
  C    -139.186000   69.007100  -57.309900
  C    -138.045000   69.699400  -57.326800
  C    -137.522000   69.960100  -58.637800
  C    -138.319000   69.363000  -59.614800
  H    -137.603000   69.897600  -56.334400
  C    -136.226000   70.644700  -58.865400
  H    -135.929000   70.544600  -59.927400
  H    -135.622000   70.052700  -58.264200
  C    -136.068000   72.084300  -58.308200
  H    -135.016000   72.283400  -58.457700
  H    -136.181000   72.061600  -57.238100
  C    -136.993000   73.051200  -59.079400
  H    -138.061000   72.818400  -58.901500
  H    -136.818000   73.070700  -60.144000
  H    -136.858000   74.084100  -58.859100
  H    -137.655000   68.775700  -64.547000
  H    -139.584000   68.585200  -56.370600

 Total Charge           Charge          ....    0
 Multiplicity           Mult            ....    1
 Number of Electrons    NEL             ....  134
 Basis Dimension        Dim             ....  322

ORBITAL ENERGIES
----------------

  NO   OCC          E(Eh)            E(eV)
   0   2.0000     -88.960707     -2420.7439
   1   2.0000     -88.960554     -2420.7397
   2   2.0000     -10.329095      -281.0690
   3   2.0000     -10.320521      -280.8357
   4   2.0000     -10.319441      -280.8063
   5   2.0000     -10.314087      -280.6606
   6   2.0000     -10.307243      -280.4743
   7   2.0000     -10.301699      -280.3235
   8   2.0000     -10.295111      -280.1442
   9   2.0000     -10.293370      -280.0968
  10   2.0000     -10.290706      -280.0244
  11   2.0000     -10.289319      -279.9866
  12   2.0000     -10.284123      -279.8452
  13   2.0000     -10.282486      -279.8007
  14   2.0000     -10.278457      -279.6910
  15   2.0000     -10.276582      -279.6400
  16   2.0000      -8.076105      -219.7620
  17   2.0000      -8.074929      -219.7300
  18   2.0000      -6.034672      -164.2118
  19   2.0000      -6.033501      -164.1799
  20   2.0000      -6.030481      -164.0977
  21   2.0000      -6.029547      -164.0723
  22   2.0000      -6.026766      -163.9966
  23   2.0000      -6.025622      -163.9655
  24   2.0000      -1.006782       -27.3959
  25   2.0000      -0.980808       -26.6891
  26   2.0000      -0.912668       -24.8350
  27   2.0000      -0.911584       -24.8055
  28   2.0000      -0.869972       -23.6732
  29   2.0000      -0.846542       -23.0356
  30   2.0000      -0.839902       -22.8549
  31   2.0000      -0.816360       -22.2143
  32   2.0000      -0.781470       -21.2649
  33   2.0000      -0.771132       -20.9836
  34   2.0000      -0.712424       -19.3860
  35   2.0000      -0.699829       -19.0433
  36   2.0000      -0.687857       -18.7175
  37   2.0000      -0.652346       -17.7512
  38   2.0000      -0.646888       -17.6027
  39   2.0000      -0.619287       -16.8517
  40   2.0000      -0.592810       -16.1312
  41   2.0000      -0.567599       -15.4452
  42   2.0000      -0.557533       -15.1712
  43   2.0000      -0.547845       -14.9076
  44   2.0000      -0.540764       -14.7149
  45   2.0000      -0.530982       -14.4488
  46   2.0000      -0.519940       -14.1483
  47   2.0000      -0.516286       -14.0488
  48   2.0000      -0.503339       -13.6965
  49   2.0000      -0.490425       -13.3451
  50   2.0000      -0.488373       -13.2893
  51   2.0000      -0.476435       -12.9644
  52   2.0000      -0.466816       -12.7027
  53   2.0000      -0.458878       -12.4867
  54   2.0000      -0.458333       -12.4719
  55   2.0000      -0.445475       -12.1220
  56   2.0000      -0.441210       -12.0059
  57   2.0000      -0.437994       -11.9184
  58   2.0000      -0.434728       -11.8296
  59   2.0000      -0.428553       -11.6615
  60   2.0000      -0.425867       -11.5884
  61   2.0000      -0.417691       -11.3660
  62   2.0000      -0.405631       -11.0378
  63   2.0000      -0.341726        -9.2988
  64   2.0000      -0.330237        -8.9862
  65   2.0000      -0.316582        -8.6146
  66   2.0000      -0.305925        -8.3246
  67   0.0000       0.041098         1.1183
  68   0.0000       0.064247         1.7483
  69   0.0000       0.109006         2.9662
  70   0.0000       0.125907         3.4261
  71   0.0000       0.128940         3.5086

MULLIKEN ATOMIC CHARGES
-----------------------
   0 S :    0.087119
   1 C :   -0.122095
   2 C :   -0.117281
   3 C :    0.054190
   4 C :   -0.175542
   5 H :    0.009315
   6 C :    0.089886
   7 H :    0.015145
   8 H :    0.038211
   9 C :   -0.045713
  10 H :    0.022182
  11 H :    0.011218
  12 C :   -0.086959
  13 H :    0.049232
  14 H :    0.044222
  15 H :    0.038569
  16 S :    0.105418
  17 C :   -0.099697
  18 C :   -0.048214
  19 C :   -0.026433
  20 C :   -0.167201
  21 H :    0.026090
  22 C :    0.071767
  23 H :    0.039116
  24 H :    0.012491
  25 C :   -0.046414
  26 H :    0.026421
  27 H :    0.024494
  28 C :   -0.043596
  29 H :    0.048935
  30 H :    0.024087
  31 H :    0.020651
  32 H :    0.057841
  33 H :    0.062545
Sum of atomic charges:   -0.0000000

LOEWDIN ATOMIC CHARGES
----------------------
   0 S :    0.376354
   1 C :   -0.200829
   2 C :   -0.059058
   3 C :   -0.055432
   4 C :   -0.177807
   5 H :    0.028867
   6 C :   -0.025440
   7 H :    0.024276
   8 H :    0.035802
   9 C :   -0.046826
  10 H :    0.025458
  11 H :    0.018152
  12 C :   -0.071708
  13 H :    0.032202
  14 H :    0.034843
  15 H :    0.024146
  16 S :    0.412659
  17 C :   -0.182806
  18 C :   -0.080557
  19 C :   -0.051842
  20 C :   -0.227531
  21 H :    0.037191
  22 C :   -0.029003
  23 H :    0.036499
  24 H :    0.026989
  25 C :   -0.029635
  26 H :    0.025864
  27 H :    0.020937
  28 C :   -0.068133
  29 H :    0.030721
  30 H :    0.024869
  31 H :    0.020926
  32 H :    0.031445
  33 H :    0.038407

  Mayer bond orders larger than 0.100000
B(  0-S ,  1-C ) :   1.1383 B(  0-S ,  4-C ) :   1.1337 B(  1-C ,  2-C ) :   1.6214
B(  1-C , 32-H ) :   0.9691 B(  2-C ,  3-C ) :   1.2039 B(  2-C ,  6-C ) :   1.0160
B(  3-C ,  4-C ) :   1.6358 B(  3-C ,  5-H ) :   0.9900 B(  4-C , 20-C ) :   0.9775
B(  6-C ,  7-H ) :   0.9459 B(  6-C ,  8-H ) :   0.9429 B(  6-C ,  9-C ) :   1.0682
B(  9-C , 10-H ) :   0.9545 B(  9-C , 11-H ) :   0.9505 B(  9-C , 12-C ) :   1.0689
B( 12-C , 13-H ) :   0.9735 B( 12-C , 14-H ) :   0.9730 B( 12-C , 15-H ) :   0.9766
B( 16-S , 17-C ) :   1.1416 B( 16-S , 20-C ) :   1.1508 B( 17-C , 18-C ) :   1.6571
B( 17-C , 33-H ) :   0.9597 B( 18-C , 19-C ) :   1.2067 B( 18-C , 21-H ) :   0.9838
B( 19-C , 20-C ) :   1.5962 B( 19-C , 22-C ) :   1.0400 B( 22-C , 23-H ) :   0.9374
B( 22-C , 24-H ) :   0.9233 B( 22-C , 25-C ) :   1.0829 B( 25-C , 26-H ) :   0.9551
B( 25-C , 27-H ) :   0.9552 B( 25-C , 28-C ) :   1.0669 B( 28-C , 29-H ) :   0.9738
B( 28-C , 30-H ) :   0.9715 B( 28-C , 31-H ) :   0.9720

Dispersion correction           -0.015717174
FINAL SINGLE POINT ENERGY     -1339.878277633098

DIPOLE MOMENT
-------------
                                X             Y             Z
Electronic contribution:     -1.14865     -20.61471       7.35284
Nuclear contribution   :      1.39621      21.24231      -7.20861
                        -----------------------------------------
Total Dipole Moment    :      0.24756       0.62760       0.14423
                        -----------------------------------------
Magnitude (a.u.)       :      0.68991
Magnitude (Debye)      :      1.75360

Rotational constants in cm-1:     0.019614     0.008907     0.007774
Rotational constants in MHz :   588.026261   267.039018   233.046257

                             ****ORCA TERMINATED NORMALLY****
TOTAL RUN TIME: 0 days 0 hours 0 minutes 22 seconds 578 msec
