                         Program Version 4.2.1 -  RELEASE  -
|  1> ! wB97X-D3 SP def2-SVP
|  2> %pal
|  3> nprocs 24
|  4> end
|  5>
|  6> * xyz 0 1
|  7> S 	 -59.5717 	 8.26036 	 -98.1739
|  8> C 	 -59.2107 	 9.73994 	 -97.3029
|  9> C 	 -60.1297 	 10.7964 	 -97.5382
| 10> C 	 -61.1676 	 10.2831 	 -98.38
| 11> C 	 -61.0284 	 8.92883 	 -98.7696
| 12> H 	 -62.1497 	 10.7728 	 -98.6152
| 13> C 	 -59.9867 	 12.1245 	 -96.9367
| 14> H 	 -59.0492 	 12.5314 	 -97.4163
| 15> H 	 -59.7702 	 11.9 	 -95.804
| 16> C 	 -61.2182 	 12.963 	 -97.1009
| 17> H 	 -61.5341 	 12.874 	 -98.1257
| 18> H 	 -62.0364 	 12.56 	 -96.4708
| 19> C 	 -60.7962 	 14.4476 	 -96.7117
| 20> H 	 -59.8924 	 14.7325 	 -97.245
| 21> H 	 -61.5403 	 15.2021 	 -97.0258
| 22> H 	 -60.5131 	 14.5297 	 -95.6558
| 23> S 	 -61.6604 	 7.65311 	 -101.234
| 24> C 	 -63.2571 	 7.10701 	 -101.404
| 25> C 	 -64.0319 	 7.2458 	 -100.302
| 26> C 	 -63.3875 	 7.93757 	 -99.2348
| 27> C 	 -62.0091 	 8.19169 	 -99.5569
| 28> H 	 -65.0157 	 6.92085 	 -100.248
| 29> C 	 -64.0561 	 8.25897 	 -97.8529
| 30> H 	 -65.1614 	 8.22244 	 -97.9014
| 31> H 	 -63.837 	 9.33665 	 -97.6055
| 32> C 	 -63.5234 	 7.44436 	 -96.6178
| 33> H 	 -62.4516 	 7.67417 	 -96.5481
| 34> H 	 -63.695 	 6.38641 	 -96.7517
| 35> C 	 -64.2754 	 7.76306 	 -95.2782
| 36> H 	 -64.4133 	 8.82555 	 -95.208
| 37> H 	 -63.7138 	 7.32272 	 -94.4368
| 38> H 	 -65.1988 	 7.25138 	 -95.1912
| 39> H 	 -58.4742 	 9.81072 	 -96.5003
| 40> H 	 -63.5913 	 6.844 	 -102.356
| 41> *
| 42>
| 43>                          ****END OF INPUT****

CARTESIAN COORDINATES (ANGSTROEM)
---------------------------------
  S    -59.571700    8.260360  -98.173900
  C    -59.210700    9.739940  -97.302900
  C    -60.129700   10.796400  -97.538200
  C    -61.167600   10.283100  -98.380000
  C    -61.028400    8.928830  -98.769600
  H    -62.149700   10.772800  -98.615200
  C    -59.986700   12.124500  -96.936700
  H    -59.049200   12.531400  -97.416300
  H    -59.770200   11.900000  -95.804000
  C    -61.218200   12.963000  -97.100900
  H    -61.534100   12.874000  -98.125700
  H    -62.036400   12.560000  -96.470800
  C    -60.796200   14.447600  -96.711700
  H    -59.892400   14.732500  -97.245000
  H    -61.540300   15.202100  -97.025800
  H    -60.513100   14.529700  -95.655800
  S    -61.660400    7.653110  -101.234000
  C    -63.257100    7.107010  -101.404000
  C    -64.031900    7.245800  -100.302000
  C    -63.387500    7.937570  -99.234800
  C    -62.009100    8.191690  -99.556900
  H    -65.015700    6.920850  -100.248000
  C    -64.056100    8.258970  -97.852900
  H    -65.161400    8.222440  -97.901400
  H    -63.837000    9.336650  -97.605500
  C    -63.523400    7.444360  -96.617800
  H    -62.451600    7.674170  -96.548100
  H    -63.695000    6.386410  -96.751700
  C    -64.275400    7.763060  -95.278200
  H    -64.413300    8.825550  -95.208000
  H    -63.713800    7.322720  -94.436800
  H    -65.198800    7.251380  -95.191200
  H    -58.474200    9.810720  -96.500300
  H    -63.591300    6.844000  -102.356000

 Total Charge           Charge          ....    0
 Multiplicity           Mult            ....    1
 Number of Electrons    NEL             ....  134
 Basis Dimension        Dim             ....  322

ORBITAL ENERGIES
----------------

  NO   OCC          E(Eh)            E(eV)
   0   2.0000     -88.970082     -2420.9990
   1   2.0000     -88.965769     -2420.8816
   2   2.0000     -10.329888      -281.0905
   3   2.0000     -10.326186      -280.9898
   4   2.0000     -10.312390      -280.6144
   5   2.0000     -10.310988      -280.5762
   6   2.0000     -10.307009      -280.4680
   7   2.0000     -10.302351      -280.3412
   8   2.0000     -10.302156      -280.3359
   9   2.0000     -10.301229      -280.3107
  10   2.0000     -10.298795      -280.2445
  11   2.0000     -10.293110      -280.0898
  12   2.0000     -10.285624      -279.8861
  13   2.0000     -10.285478      -279.8821
  14   2.0000     -10.285147      -279.8731
  15   2.0000     -10.274261      -279.5768
  16   2.0000      -8.084799      -219.9986
  17   2.0000      -8.080935      -219.8934
  18   2.0000      -6.043047      -164.4397
  19   2.0000      -6.039207      -164.3352
  20   2.0000      -6.039191      -164.3347
  21   2.0000      -6.035965      -164.2470
  22   2.0000      -6.035386      -164.2312
  23   2.0000      -6.031928      -164.1371
  24   2.0000      -1.002642       -27.2833
  25   2.0000      -0.983405       -26.7598
  26   2.0000      -0.921511       -25.0756
  27   2.0000      -0.895939       -24.3797
  28   2.0000      -0.864405       -23.5217
  29   2.0000      -0.849145       -23.1064
  30   2.0000      -0.844116       -22.9696
  31   2.0000      -0.807587       -21.9756
  32   2.0000      -0.781590       -21.2682
  33   2.0000      -0.767783       -20.8924
  34   2.0000      -0.717018       -19.5111
  35   2.0000      -0.694730       -18.9046
  36   2.0000      -0.684859       -18.6359
  37   2.0000      -0.657160       -17.8822
  38   2.0000      -0.634120       -17.2553
  39   2.0000      -0.614436       -16.7197
  40   2.0000      -0.599608       -16.3162
  41   2.0000      -0.573045       -15.5934
  42   2.0000      -0.566791       -15.4232
  43   2.0000      -0.560151       -15.2425
  44   2.0000      -0.524856       -14.2821
  45   2.0000      -0.522055       -14.2058
  46   2.0000      -0.512700       -13.9513
  47   2.0000      -0.504493       -13.7280
  48   2.0000      -0.496490       -13.5102
  49   2.0000      -0.492578       -13.4037
  50   2.0000      -0.487233       -13.2583
  51   2.0000      -0.481505       -13.1024
  52   2.0000      -0.471518       -12.8307
  53   2.0000      -0.461233       -12.5508
  54   2.0000      -0.459115       -12.4931
  55   2.0000      -0.452534       -12.3141
  56   2.0000      -0.447885       -12.1876
  57   2.0000      -0.441956       -12.0262
  58   2.0000      -0.431645       -11.7457
  59   2.0000      -0.430397       -11.7117
  60   2.0000      -0.421506       -11.4698
  61   2.0000      -0.416294       -11.3279
  62   2.0000      -0.413412       -11.2495
  63   2.0000      -0.336799        -9.1648
  64   2.0000      -0.331098        -9.0096
  65   2.0000      -0.329252        -8.9594
  66   2.0000      -0.286990        -7.8094
  67   0.0000       0.034778         0.9463
  68   0.0000       0.055089         1.4990
  69   0.0000       0.117831         3.2063
  70   0.0000       0.123022         3.3476
  71   0.0000       0.128312         3.4916

MULLIKEN ATOMIC CHARGES
-----------------------
   0 S :    0.137622
   1 C :   -0.136338
   2 C :   -0.093267
   3 C :    0.005559
   4 C :   -0.191566
   5 H :    0.035483
   6 C :    0.002786
   7 H :    0.061017
   8 H :    0.053745
   9 C :   -0.086108
  10 H :    0.041716
  11 H :    0.044384
  12 C :   -0.035395
  13 H :    0.021407
  14 H :    0.040880
  15 H :    0.035199
  16 S :    0.116820
  17 C :   -0.065778
  18 C :    0.000784
  19 C :   -0.016832
  20 C :   -0.177466
  21 H :   -0.011099
  22 C :    0.038554
  23 H :    0.023076
  24 H :    0.026010
  25 C :   -0.078791
  26 H :    0.047533
  27 H :    0.030990
  28 C :   -0.039420
  29 H :    0.027703
  30 H :    0.036269
  31 H :    0.022385
  32 H :    0.045504
  33 H :    0.036636
Sum of atomic charges:    0.0000000

LOEWDIN ATOMIC CHARGES
----------------------
   0 S :    0.435290
   1 C :   -0.210481
   2 C :   -0.064864
   3 C :   -0.074263
   4 C :   -0.221813
   5 H :    0.036471
   6 C :   -0.047398
   7 H :    0.045947
   8 H :    0.048128
   9 C :   -0.040506
  10 H :    0.023317
  11 H :    0.031807
  12 C :   -0.065809
  13 H :    0.023573
  14 H :    0.027478
  15 H :    0.027848
  16 S :    0.415387
  17 C :   -0.186509
  18 C :   -0.068205
  19 C :   -0.042262
  20 C :   -0.199188
  21 H :    0.021544
  22 C :   -0.037507
  23 H :    0.027446
  24 H :    0.032490
  25 C :   -0.035512
  26 H :    0.026704
  27 H :    0.021610
  28 C :   -0.062944
  29 H :    0.019560
  30 H :    0.032581
  31 H :    0.019138
  32 H :    0.024790
  33 H :    0.016152

  Mayer bond orders larger than 0.100000
B(  0-S ,  1-C ) :   1.1601 B(  0-S ,  4-C ) :   1.1748 B(  1-C ,  2-C ) :   1.5688
B(  1-C ,  4-C ) :   0.1095 B(  1-C , 32-H ) :   0.9682 B(  2-C ,  3-C ) :   1.2782
B(  2-C ,  6-C ) :   1.0031 B(  3-C ,  4-C ) :   1.5358 B(  3-C ,  5-H ) :   0.9744
B(  4-C , 20-C ) :   1.0373 B(  6-C ,  7-H ) :   0.9358 B(  6-C ,  8-H ) :   0.9333
B(  6-C ,  9-C ) :   1.0870 B(  9-C , 10-H ) :   0.9465 B(  9-C , 11-H ) :   0.9532
B(  9-C , 12-C ) :   1.0735 B( 12-C , 13-H ) :   0.9769 B( 12-C , 14-H ) :   0.9760
B( 12-C , 15-H ) :   0.9742 B( 16-S , 17-C ) :   1.1777 B( 16-S , 20-C ) :   1.1507
B( 17-C , 18-C ) :   1.5737 B( 17-C , 20-C ) :   0.1003 B( 17-C , 33-H ) :   0.9728
B( 18-C , 19-C ) :   1.2713 B( 18-C , 21-H ) :   1.0033 B( 19-C , 20-C ) :   1.5583
B( 19-C , 22-C ) :   1.0361 B( 22-C , 23-H ) :   0.9440 B( 22-C , 24-H ) :   0.9297
B( 22-C , 25-C ) :   1.0590 B( 25-C , 26-H ) :   0.9572 B( 25-C , 27-H ) :   0.9601
B( 25-C , 28-C ) :   1.0785 B( 28-C , 29-H ) :   0.9777 B( 28-C , 30-H ) :   0.9733
B( 28-C , 31-H ) :   0.9765

Dispersion correction           -0.014408719
FINAL SINGLE POINT ENERGY     -1339.871875338554

DIPOLE MOMENT
-------------
                                X             Y             Z
Electronic contribution:     10.85756     -17.22366     -20.81068
Nuclear contribution   :    -11.23609      17.60465      21.20224
                        -----------------------------------------
Total Dipole Moment    :     -0.37853       0.38099       0.39156
                        -----------------------------------------
Magnitude (a.u.)       :      0.66465
Magnitude (Debye)      :      1.68941

Rotational constants in cm-1:     0.016907     0.008550     0.007371
Rotational constants in MHz :   506.864236   256.335674   220.971883

                             ****ORCA TERMINATED NORMALLY****
TOTAL RUN TIME: 0 days 0 hours 0 minutes 21 seconds 839 msec
