                         Program Version 4.2.1 -  RELEASE  -
|  1> ! wB97X-D3 SP def2-SVP
|  2> %pal
|  3> nprocs 24
|  4> end
|  5>
|  6> * xyz 0 1
|  7> S 	 -50.3923 	 18.2189 	 27.2123
|  8> C 	 -51.1842 	 19.1694 	 25.996
|  9> C 	 -50.4133 	 20.257 	 25.6666
| 10> C 	 -49.2459 	 20.4023 	 26.4754
| 11> C 	 -49.086 	 19.3286 	 27.3448
| 12> H 	 -48.5779 	 21.2047 	 26.3698
| 13> C 	 -50.7379 	 21.5059 	 24.8065
| 14> H 	 -50.4743 	 22.3686 	 25.4401
| 15> H 	 -51.8052 	 21.4688 	 24.7949
| 16> C 	 -50.1647 	 21.5356 	 23.3984
| 17> H 	 -50.3814 	 20.6748 	 22.7284
| 18> H 	 -50.5715 	 22.3477 	 22.8484
| 19> C 	 -48.6622 	 21.7809 	 23.31
| 20> H 	 -48.1423 	 21.0644 	 23.9335
| 21> H 	 -48.2864 	 21.9204 	 22.2672
| 22> H 	 -48.4532 	 22.7005 	 23.8661
| 23> S 	 -47.0264 	 20.575 	 28.6956
| 24> C 	 -45.9002 	 19.636 	 29.6258
| 25> C 	 -46.2768 	 18.3254 	 29.6713
| 26> C 	 -47.4207 	 18.0186 	 28.8399
| 27> C 	 -47.9266 	 19.1268 	 28.1749
| 28> H 	 -45.6722 	 17.6342 	 30.203
| 29> C 	 -47.9769 	 16.6022 	 28.6366
| 30> H 	 -48.0715 	 16.5024 	 27.5424
| 31> H 	 -49.0219 	 16.6043 	 29.0781
| 32> C 	 -47.146 	 15.3961 	 28.9526
| 33> H 	 -46.1944 	 15.5927 	 28.4629
| 34> H 	 -47.5723 	 14.4692 	 28.6176
| 35> C 	 -47.0539 	 15.1823 	 30.4625
| 36> H 	 -46.6514 	 16.0509 	 30.9513
| 37> H 	 -46.3157 	 14.3605 	 30.5656
| 38> H 	 -47.9662 	 14.9304 	 30.9568
| 39> H 	 -52.1129 	 18.9819 	 25.4017
| 40> H 	 -45.0322 	 19.9159 	 30.1101
| 41> *
| 42>
| 43>                          ****END OF INPUT****

CARTESIAN COORDINATES (ANGSTROEM)
---------------------------------
  S    -50.392300   18.218900   27.212300
  C    -51.184200   19.169400   25.996000
  C    -50.413300   20.257000   25.666600
  C    -49.245900   20.402300   26.475400
  C    -49.086000   19.328600   27.344800
  H    -48.577900   21.204700   26.369800
  C    -50.737900   21.505900   24.806500
  H    -50.474300   22.368600   25.440100
  H    -51.805200   21.468800   24.794900
  C    -50.164700   21.535600   23.398400
  H    -50.381400   20.674800   22.728400
  H    -50.571500   22.347700   22.848400
  C    -48.662200   21.780900   23.310000
  H    -48.142300   21.064400   23.933500
  H    -48.286400   21.920400   22.267200
  H    -48.453200   22.700500   23.866100
  S    -47.026400   20.575000   28.695600
  C    -45.900200   19.636000   29.625800
  C    -46.276800   18.325400   29.671300
  C    -47.420700   18.018600   28.839900
  C    -47.926600   19.126800   28.174900
  H    -45.672200   17.634200   30.203000
  C    -47.976900   16.602200   28.636600
  H    -48.071500   16.502400   27.542400
  H    -49.021900   16.604300   29.078100
  C    -47.146000   15.396100   28.952600
  H    -46.194400   15.592700   28.462900
  H    -47.572300   14.469200   28.617600
  C    -47.053900   15.182300   30.462500
  H    -46.651400   16.050900   30.951300
  H    -46.315700   14.360500   30.565600
  H    -47.966200   14.930400   30.956800
  H    -52.112900   18.981900   25.401700
  H    -45.032200   19.915900   30.110100

 Total Charge           Charge          ....    0
 Multiplicity           Mult            ....    1
 Number of Electrons    NEL             ....  134
 Basis Dimension        Dim             ....  322

ORBITAL ENERGIES
----------------

  NO   OCC          E(Eh)            E(eV)
   0   2.0000     -88.972865     -2421.0748
   1   2.0000     -88.964983     -2420.8603
   2   2.0000     -10.329556      -281.0815
   3   2.0000     -10.327842      -281.0349
   4   2.0000     -10.315007      -280.6856
   5   2.0000     -10.310809      -280.5714
   6   2.0000     -10.306348      -280.4500
   7   2.0000     -10.297126      -280.1990
   8   2.0000     -10.293976      -280.1133
   9   2.0000     -10.292501      -280.0732
  10   2.0000     -10.290625      -280.0221
  11   2.0000     -10.286309      -279.9047
  12   2.0000     -10.283633      -279.8319
  13   2.0000     -10.283483      -279.8278
  14   2.0000     -10.275406      -279.6080
  15   2.0000     -10.271848      -279.5112
  16   2.0000      -8.087245      -220.0651
  17   2.0000      -8.079252      -219.8476
  18   2.0000      -6.045876      -164.5166
  19   2.0000      -6.041617      -164.4008
  20   2.0000      -6.038079      -164.3045
  21   2.0000      -6.037971      -164.3015
  22   2.0000      -6.033824      -164.1887
  23   2.0000      -6.029838      -164.0802
  24   2.0000      -1.010967       -27.5098
  25   2.0000      -0.986178       -26.8353
  26   2.0000      -0.915263       -24.9056
  27   2.0000      -0.912088       -24.8192
  28   2.0000      -0.875796       -23.8316
  29   2.0000      -0.854232       -23.2448
  30   2.0000      -0.843622       -22.9561
  31   2.0000      -0.815456       -22.1897
  32   2.0000      -0.785230       -21.3672
  33   2.0000      -0.775998       -21.1160
  34   2.0000      -0.711206       -19.3529
  35   2.0000      -0.701819       -19.0975
  36   2.0000      -0.694704       -18.9039
  37   2.0000      -0.663388       -18.0517
  38   2.0000      -0.639006       -17.3882
  39   2.0000      -0.610741       -16.6191
  40   2.0000      -0.596823       -16.2404
  41   2.0000      -0.574157       -15.6236
  42   2.0000      -0.556472       -15.1424
  43   2.0000      -0.554060       -15.0767
  44   2.0000      -0.545398       -14.8410
  45   2.0000      -0.544836       -14.8257
  46   2.0000      -0.519690       -14.1415
  47   2.0000      -0.513540       -13.9741
  48   2.0000      -0.508935       -13.8488
  49   2.0000      -0.502043       -13.6613
  50   2.0000      -0.493650       -13.4329
  51   2.0000      -0.482417       -13.1272
  52   2.0000      -0.472717       -12.8633
  53   2.0000      -0.467674       -12.7261
  54   2.0000      -0.462300       -12.5798
  55   2.0000      -0.454221       -12.3600
  56   2.0000      -0.444640       -12.0993
  57   2.0000      -0.436142       -11.8680
  58   2.0000      -0.432651       -11.7730
  59   2.0000      -0.422362       -11.4931
  60   2.0000      -0.417630       -11.3643
  61   2.0000      -0.405007       -11.0208
  62   2.0000      -0.397899       -10.8274
  63   2.0000      -0.363836        -9.9005
  64   2.0000      -0.333038        -9.0624
  65   2.0000      -0.329485        -8.9657
  66   2.0000      -0.283119        -7.7041
  67   0.0000       0.020550         0.5592
  68   0.0000       0.087765         2.3882
  69   0.0000       0.113856         3.0982
  70   0.0000       0.119672         3.2564
  71   0.0000       0.128223         3.4891

MULLIKEN ATOMIC CHARGES
-----------------------
   0 S :    0.110677
   1 C :   -0.119791
   2 C :   -0.098338
   3 C :   -0.007635
   4 C :   -0.101088
   5 H :   -0.001879
   6 C :    0.055567
   7 H :    0.041005
   8 H :    0.011438
   9 C :   -0.036609
  10 H :    0.032821
  11 H :    0.017134
  12 C :   -0.068406
  13 H :    0.033710
  14 H :    0.050049
  15 H :    0.010801
  16 S :    0.088106
  17 C :   -0.031189
  18 C :   -0.048129
  19 C :   -0.071406
  20 C :   -0.111297
  21 H :    0.011594
  22 C :   -0.005015
  23 H :    0.045974
  24 H :    0.053761
  25 C :   -0.035502
  26 H :    0.033191
  27 H :    0.028453
  28 C :   -0.048048
  29 H :    0.017002
  30 H :    0.031147
  31 H :    0.030177
  32 H :    0.059859
  33 H :    0.021866
Sum of atomic charges:   -0.0000000

LOEWDIN ATOMIC CHARGES
----------------------
   0 S :    0.446518
   1 C :   -0.222734
   2 C :   -0.061731
   3 C :   -0.069019
   4 C :   -0.195699
   5 H :    0.016548
   6 C :   -0.024677
   7 H :    0.037870
   8 H :    0.026862
   9 C :   -0.044659
  10 H :    0.029773
  11 H :    0.019819
  12 C :   -0.070602
  13 H :    0.021865
  14 H :    0.033662
  15 H :    0.020290
  16 S :    0.397927
  17 C :   -0.174041
  18 C :   -0.072484
  19 C :   -0.058188
  20 C :   -0.180980
  21 H :    0.024829
  22 C :   -0.051992
  23 H :    0.034597
  24 H :    0.031102
  25 C :   -0.038998
  26 H :    0.028650
  27 H :    0.028446
  28 C :   -0.062938
  29 H :    0.015884
  30 H :    0.028702
  31 H :    0.022637
  32 H :    0.043668
  33 H :    0.019092

  Mayer bond orders larger than 0.100000
B(  0-S ,  1-C ) :   1.1274 B(  0-S ,  4-C ) :   1.1580 B(  1-C ,  2-C ) :   1.6307
B(  1-C , 32-H ) :   0.9549 B(  2-C ,  3-C ) :   1.2710 B(  2-C ,  6-C ) :   0.9924
B(  3-C ,  4-C ) :   1.5004 B(  3-C ,  5-H ) :   0.9984 B(  4-C , 20-C ) :   1.0990
B(  6-C ,  7-H ) :   0.9534 B(  6-C ,  8-H ) :   0.9388 B(  6-C ,  9-C ) :   1.0706
B(  9-C , 10-H ) :   0.9552 B(  9-C , 11-H ) :   0.9529 B(  9-C , 12-C ) :   1.0801
B( 12-C , 13-H ) :   0.9738 B( 12-C , 14-H ) :   0.9721 B( 12-C , 15-H ) :   0.9712
B( 16-S , 17-C ) :   1.1423 B( 16-S , 20-C ) :   1.1192 B( 17-C , 18-C ) :   1.6369
B( 17-C , 33-H ) :   0.9676 B( 18-C , 19-C ) :   1.2254 B( 18-C , 21-H ) :   0.9847
B( 19-C , 20-C ) :   1.6013 B( 19-C , 22-C ) :   1.0155 B( 22-C , 23-H ) :   0.9401
B( 22-C , 24-H ) :   0.9256 B( 22-C , 25-C ) :   1.0877 B( 25-C , 26-H ) :   0.9511
B( 25-C , 27-H ) :   0.9500 B( 25-C , 28-C ) :   1.0772 B( 28-C , 29-H ) :   0.9774
B( 28-C , 30-H ) :   0.9746 B( 28-C , 31-H ) :   0.9714

Dispersion correction           -0.014085100
FINAL SINGLE POINT ENERGY     -1339.869614889376

DIPOLE MOMENT
-------------
                                X             Y             Z
Electronic contribution:     -2.50516       4.60924       8.30087
Nuclear contribution   :      2.54910      -4.74120      -8.50003
                        -----------------------------------------
Total Dipole Moment    :      0.04395      -0.13196      -0.19916
                        -----------------------------------------
Magnitude (a.u.)       :      0.24291
Magnitude (Debye)      :      0.61744

Rotational constants in cm-1:     0.023897     0.007777     0.006446
Rotational constants in MHz :   716.415796   233.141750   193.232116

                             ****ORCA TERMINATED NORMALLY****
TOTAL RUN TIME: 0 days 0 hours 0 minutes 20 seconds 366 msec
