                         Program Version 4.2.1 -  RELEASE  -
|  1> ! wB97X-D3 SP def2-SVP
|  2> %pal
|  3> nprocs 24
|  4> end
|  5>
|  6> * xyz 0 1
|  7> S 	 -42.6242 	 14.5919 	 21.6429
|  8> C 	 -44.1814 	 15.3452 	 21.5319
|  9> C 	 -44.9498 	 14.9234 	 20.4296
| 10> C 	 -44.1759 	 13.9491 	 19.7686
| 11> C 	 -42.9274 	 13.608 	 20.284
| 12> H 	 -44.4224 	 13.4704 	 18.7967
| 13> C 	 -46.3234 	 15.3976 	 19.9919
| 14> H 	 -46.1716 	 16.3021 	 19.304
| 15> H 	 -46.7504 	 15.8747 	 20.8437
| 16> C 	 -47.2002 	 14.3278 	 19.3522
| 17> H 	 -46.6263 	 14.122 	 18.4216
| 18> H 	 -47.2573 	 13.458 	 19.9787
| 19> C 	 -48.6128 	 14.7749 	 19.063
| 20> H 	 -48.6917 	 15.6714 	 18.4414
| 21> H 	 -49.2112 	 13.9628 	 18.5791
| 22> H 	 -49.245 	 14.9881 	 19.9524
| 23> S 	 -41.5098 	 11.4578 	 21.1493
| 24> C 	 -40.5834 	 10.5609 	 19.9363
| 25> C 	 -40.7043 	 11.1093 	 18.6806
| 26> C 	 -41.4365 	 12.2891 	 18.6969
| 27> C 	 -42.0035 	 12.5821 	 19.8897
| 28> H 	 -40.1602 	 10.7146 	 17.8016
| 29> C 	 -41.6153 	 13.0689 	 17.4413
| 30> H 	 -40.6773 	 13.1345 	 16.8801
| 31> H 	 -41.9748 	 14.1083 	 17.6709
| 32> C 	 -42.7184 	 12.4853 	 16.4785
| 33> H 	 -43.6068 	 12.2892 	 17.0412
| 34> H 	 -42.4787 	 11.4013 	 16.2623
| 35> C 	 -42.9898 	 13.2807 	 15.2161
| 36> H 	 -42.2079 	 13.3067 	 14.4049
| 37> H 	 -43.2348 	 14.3127 	 15.41
| 38> H 	 -43.7698 	 12.8499 	 14.6562
| 39> H 	 -44.4836 	 15.942 	 22.3552
| 40> H 	 -39.8995 	 9.7802 	 20.3191
| 41> *
| 42>
| 43>                          ****END OF INPUT****

CARTESIAN COORDINATES (ANGSTROEM)
---------------------------------
  S    -42.624200   14.591900   21.642900
  C    -44.181400   15.345200   21.531900
  C    -44.949800   14.923400   20.429600
  C    -44.175900   13.949100   19.768600
  C    -42.927400   13.608000   20.284000
  H    -44.422400   13.470400   18.796700
  C    -46.323400   15.397600   19.991900
  H    -46.171600   16.302100   19.304000
  H    -46.750400   15.874700   20.843700
  C    -47.200200   14.327800   19.352200
  H    -46.626300   14.122000   18.421600
  H    -47.257300   13.458000   19.978700
  C    -48.612800   14.774900   19.063000
  H    -48.691700   15.671400   18.441400
  H    -49.211200   13.962800   18.579100
  H    -49.245000   14.988100   19.952400
  S    -41.509800   11.457800   21.149300
  C    -40.583400   10.560900   19.936300
  C    -40.704300   11.109300   18.680600
  C    -41.436500   12.289100   18.696900
  C    -42.003500   12.582100   19.889700
  H    -40.160200   10.714600   17.801600
  C    -41.615300   13.068900   17.441300
  H    -40.677300   13.134500   16.880100
  H    -41.974800   14.108300   17.670900
  C    -42.718400   12.485300   16.478500
  H    -43.606800   12.289200   17.041200
  H    -42.478700   11.401300   16.262300
  C    -42.989800   13.280700   15.216100
  H    -42.207900   13.306700   14.404900
  H    -43.234800   14.312700   15.410000
  H    -43.769800   12.849900   14.656200
  H    -44.483600   15.942000   22.355200
  H    -39.899500    9.780200   20.319100

 Total Charge           Charge          ....    0
 Multiplicity           Mult            ....    1
 Number of Electrons    NEL             ....  134
 Basis Dimension        Dim             ....  322

ORBITAL ENERGIES
----------------

  NO   OCC          E(Eh)            E(eV)
   0   2.0000     -88.964247     -2420.8402
   1   2.0000     -88.962980     -2420.8058
   2   2.0000     -10.321179      -280.8536
   3   2.0000     -10.320420      -280.8329
   4   2.0000     -10.319939      -280.8198
   5   2.0000     -10.311487      -280.5898
   6   2.0000     -10.304579      -280.4018
   7   2.0000     -10.297451      -280.2079
   8   2.0000     -10.294125      -280.1174
   9   2.0000     -10.293371      -280.0969
  10   2.0000     -10.293094      -280.0893
  11   2.0000     -10.291671      -280.0506
  12   2.0000     -10.290760      -280.0258
  13   2.0000     -10.290327      -280.0140
  14   2.0000     -10.284328      -279.8508
  15   2.0000     -10.278384      -279.6891
  16   2.0000      -8.080155      -219.8722
  17   2.0000      -8.077787      -219.8078
  18   2.0000      -6.038297      -164.3104
  19   2.0000      -6.036146      -164.2519
  20   2.0000      -6.034437      -164.2054
  21   2.0000      -6.032411      -164.1503
  22   2.0000      -6.031300      -164.1200
  23   2.0000      -6.028565      -164.0456
  24   2.0000      -1.013111       -27.5681
  25   2.0000      -0.988934       -26.9103
  26   2.0000      -0.916974       -24.9521
  27   2.0000      -0.905700       -24.6454
  28   2.0000      -0.872499       -23.7419
  29   2.0000      -0.855111       -23.2688
  30   2.0000      -0.847999       -23.0752
  31   2.0000      -0.811746       -22.0887
  32   2.0000      -0.785088       -21.3633
  33   2.0000      -0.773139       -21.0382
  34   2.0000      -0.711107       -19.3502
  35   2.0000      -0.702900       -19.1269
  36   2.0000      -0.690201       -18.7813
  37   2.0000      -0.665763       -18.1163
  38   2.0000      -0.646520       -17.5927
  39   2.0000      -0.618434       -16.8284
  40   2.0000      -0.601453       -16.3664
  41   2.0000      -0.574409       -15.6305
  42   2.0000      -0.560004       -15.2385
  43   2.0000      -0.552166       -15.0252
  44   2.0000      -0.526948       -14.3390
  45   2.0000      -0.524580       -14.2745
  46   2.0000      -0.520627       -14.1670
  47   2.0000      -0.510899       -13.9023
  48   2.0000      -0.503191       -13.6925
  49   2.0000      -0.498955       -13.5773
  50   2.0000      -0.493039       -13.4163
  51   2.0000      -0.478547       -13.0219
  52   2.0000      -0.471797       -12.8382
  53   2.0000      -0.467845       -12.7307
  54   2.0000      -0.458339       -12.4720
  55   2.0000      -0.452743       -12.3198
  56   2.0000      -0.449795       -12.2395
  57   2.0000      -0.437061       -11.8930
  58   2.0000      -0.432289       -11.7632
  59   2.0000      -0.430472       -11.7137
  60   2.0000      -0.423646       -11.5280
  61   2.0000      -0.414399       -11.2764
  62   2.0000      -0.409856       -11.1528
  63   2.0000      -0.341912        -9.3039
  64   2.0000      -0.332518        -9.0483
  65   2.0000      -0.330599        -8.9960
  66   2.0000      -0.291773        -7.9396
  67   0.0000       0.030907         0.8410
  68   0.0000       0.070927         1.9300
  69   0.0000       0.112535         3.0622
  70   0.0000       0.120316         3.2740
  71   0.0000       0.133993         3.6461

MULLIKEN ATOMIC CHARGES
-----------------------
   0 S :    0.121147
   1 C :   -0.139086
   2 C :   -0.065467
   3 C :    0.005908
   4 C :   -0.178013
   5 H :    0.000955
   6 C :    0.080082
   7 H :    0.049788
   8 H :    0.001802
   9 C :   -0.073268
  10 H :    0.045006
  11 H :    0.038616
  12 C :   -0.057167
  13 H :    0.029931
  14 H :    0.038593
  15 H :    0.032156
  16 S :    0.097553
  17 C :   -0.110360
  18 C :   -0.031507
  19 C :   -0.007319
  20 C :   -0.152022
  21 H :    0.032787
  22 C :    0.050768
  23 H :    0.028758
  24 H :    0.033456
  25 C :   -0.085396
  26 H :    0.017253
  27 H :    0.018458
  28 C :   -0.014058
  29 H :    0.030309
  30 H :    0.028815
  31 H :    0.019889
  32 H :    0.038821
  33 H :    0.072814
Sum of atomic charges:   -0.0000000

LOEWDIN ATOMIC CHARGES
----------------------
   0 S :    0.438889
   1 C :   -0.197851
   2 C :   -0.062031
   3 C :   -0.071413
   4 C :   -0.219107
   5 H :    0.028235
   6 C :   -0.033607
   7 H :    0.044323
   8 H :    0.022180
   9 C :   -0.041680
  10 H :    0.032174
  11 H :    0.028247
  12 C :   -0.073269
  13 H :    0.024067
  14 H :    0.032543
  15 H :    0.028646
  16 S :    0.390096
  17 C :   -0.172959
  18 C :   -0.071539
  19 C :   -0.064382
  20 C :   -0.195381
  21 H :    0.040490
  22 C :   -0.029710
  23 H :    0.030783
  24 H :    0.033740
  25 C :   -0.044480
  26 H :    0.017497
  27 H :    0.027019
  28 C :   -0.068831
  29 H :    0.031966
  30 H :    0.024094
  31 H :    0.023355
  32 H :    0.015596
  33 H :    0.032297

  Mayer bond orders larger than 0.100000
B(  0-S ,  1-C ) :   1.1780 B(  0-S ,  4-C ) :   1.1740 B(  1-C ,  2-C ) :   1.5464
B(  1-C ,  4-C ) :   0.1096 B(  1-C , 32-H ) :   0.9728 B(  2-C ,  3-C ) :   1.2872
B(  2-C ,  6-C ) :   1.0205 B(  3-C ,  4-C ) :   1.5496 B(  3-C ,  5-H ) :   0.9829
B(  4-C , 20-C ) :   1.0326 B(  6-C ,  7-H ) :   0.9295 B(  6-C ,  8-H ) :   0.9343
B(  6-C ,  9-C ) :   1.0614 B(  9-C , 10-H ) :   0.9435 B(  9-C , 11-H ) :   0.9601
B(  9-C , 12-C ) :   1.0945 B( 12-C , 13-H ) :   0.9724 B( 12-C , 14-H ) :   0.9726
B( 12-C , 15-H ) :   0.9717 B( 16-S , 17-C ) :   1.1563 B( 16-S , 20-C ) :   1.1316
B( 17-C , 18-C ) :   1.5911 B( 17-C , 20-C ) :   0.1051 B( 17-C , 33-H ) :   0.9658
B( 18-C , 19-C ) :   1.2381 B( 18-C , 21-H ) :   0.9870 B( 19-C , 20-C ) :   1.6145
B( 19-C , 22-C ) :   1.0671 B( 22-C , 23-H ) :   0.9342 B( 22-C , 24-H ) :   0.9278
B( 22-C , 25-C ) :   1.0537 B( 25-C , 26-H ) :   0.9504 B( 25-C , 27-H ) :   0.9477
B( 25-C , 28-C ) :   1.0825 B( 28-C , 29-H ) :   0.9723 B( 28-C , 30-H ) :   0.9726
B( 28-C , 31-H ) :   0.9692

Dispersion correction           -0.014131253
FINAL SINGLE POINT ENERGY     -1339.887116376654

DIPOLE MOMENT
-------------
                                X             Y             Z
Electronic contribution:     20.31615      -5.41707      23.50503
Nuclear contribution   :    -20.66414       5.46302     -24.03072
                        -----------------------------------------
Total Dipole Moment    :     -0.34799       0.04595      -0.52570
                        -----------------------------------------
Magnitude (a.u.)       :      0.63211
Magnitude (Debye)      :      1.60671

Rotational constants in cm-1:     0.016645     0.009288     0.006828
Rotational constants in MHz :   499.008015   278.443133   204.685911

                             ****ORCA TERMINATED NORMALLY****
TOTAL RUN TIME: 0 days 0 hours 0 minutes 21 seconds 666 msec
