                         Program Version 4.2.1 -  RELEASE  -
|  1> ! wB97X-D3 SP def2-SVP
|  2> %pal
|  3> nprocs 24
|  4> end
|  5>
|  6> * xyz 0 1
|  7> S 	 -49.0779 	 24.5338 	 27.8454
|  8> C 	 -49.2317 	 26.255 	 27.5014
|  9> C 	 -48.0922 	 26.9075 	 27.8753
| 10> C 	 -47.1228 	 26.0861 	 28.549
| 11> C 	 -47.5724 	 24.7564 	 28.6677
| 12> H 	 -46.1139 	 26.3866 	 28.816
| 13> C 	 -47.7067 	 28.2431 	 27.3173
| 14> H 	 -47.08 	 28.6658 	 28.1236
| 15> H 	 -48.5614 	 28.8606 	 27.1563
| 16> C 	 -46.9562 	 28.2147 	 25.9958
| 17> H 	 -45.9664 	 27.6065 	 26.0956
| 18> H 	 -47.6187 	 27.822 	 25.2221
| 19> C 	 -46.4567 	 29.6205 	 25.5228
| 20> H 	 -45.8337 	 29.9986 	 26.2565
| 21> H 	 -45.8372 	 29.4554 	 24.5958
| 22> H 	 -47.2592 	 30.3367 	 25.2936
| 23> S 	 -46.0134 	 22.6669 	 27.8233
| 24> C 	 -45.1425 	 21.6686 	 29.0382
| 25> C 	 -45.4072 	 22.0724 	 30.297
| 26> C 	 -46.318 	 23.2006 	 30.3487
| 27> C 	 -46.7406 	 23.6204 	 29.0932
| 28> H 	 -44.9269 	 21.6112 	 31.1348
| 29> C 	 -46.7216 	 23.8563 	 31.5972
| 30> H 	 -46.8404 	 24.9521 	 31.4255
| 31> H 	 -45.9295 	 23.6876 	 32.2682
| 32> C 	 -48.0137 	 23.3397 	 32.2586
| 33> H 	 -48.1042 	 23.8494 	 33.2464
| 34> H 	 -47.9622 	 22.21 	 32.3056
| 35> C 	 -49.3474 	 23.7789 	 31.6682
| 36> H 	 -49.3737 	 24.8072 	 31.2888
| 37> H 	 -50.2755 	 23.6047 	 32.3472
| 38> H 	 -49.5773 	 23.0467 	 30.8513
| 39> H 	 -49.9768 	 26.5927 	 26.908
| 40> H 	 -44.6125 	 20.6991 	 28.9184
| 41> *
| 42>
| 43>                          ****END OF INPUT****

CARTESIAN COORDINATES (ANGSTROEM)
---------------------------------
  S    -49.077900   24.533800   27.845400
  C    -49.231700   26.255000   27.501400
  C    -48.092200   26.907500   27.875300
  C    -47.122800   26.086100   28.549000
  C    -47.572400   24.756400   28.667700
  H    -46.113900   26.386600   28.816000
  C    -47.706700   28.243100   27.317300
  H    -47.080000   28.665800   28.123600
  H    -48.561400   28.860600   27.156300
  C    -46.956200   28.214700   25.995800
  H    -45.966400   27.606500   26.095600
  H    -47.618700   27.822000   25.222100
  C    -46.456700   29.620500   25.522800
  H    -45.833700   29.998600   26.256500
  H    -45.837200   29.455400   24.595800
  H    -47.259200   30.336700   25.293600
  S    -46.013400   22.666900   27.823300
  C    -45.142500   21.668600   29.038200
  C    -45.407200   22.072400   30.297000
  C    -46.318000   23.200600   30.348700
  C    -46.740600   23.620400   29.093200
  H    -44.926900   21.611200   31.134800
  C    -46.721600   23.856300   31.597200
  H    -46.840400   24.952100   31.425500
  H    -45.929500   23.687600   32.268200
  C    -48.013700   23.339700   32.258600
  H    -48.104200   23.849400   33.246400
  H    -47.962200   22.210000   32.305600
  C    -49.347400   23.778900   31.668200
  H    -49.373700   24.807200   31.288800
  H    -50.275500   23.604700   32.347200
  H    -49.577300   23.046700   30.851300
  H    -49.976800   26.592700   26.908000
  H    -44.612500   20.699100   28.918400

 Total Charge           Charge          ....    0
 Multiplicity           Mult            ....    1
 Number of Electrons    NEL             ....  134
 Basis Dimension        Dim             ....  322

ORBITAL ENERGIES
----------------

  NO   OCC          E(Eh)            E(eV)
   0   2.0000     -88.966844     -2420.9109
   1   2.0000     -88.964562     -2420.8488
   2   2.0000     -10.332915      -281.1729
   3   2.0000     -10.325190      -280.9627
   4   2.0000     -10.318903      -280.7916
   5   2.0000     -10.307722      -280.4874
   6   2.0000     -10.299925      -280.2752
   7   2.0000     -10.299904      -280.2747
   8   2.0000     -10.299564      -280.2654
   9   2.0000     -10.295206      -280.1468
  10   2.0000     -10.291679      -280.0508
  11   2.0000     -10.288681      -279.9693
  12   2.0000     -10.288127      -279.9542
  13   2.0000     -10.283632      -279.8318
  14   2.0000     -10.279109      -279.7088
  15   2.0000     -10.277663      -279.6694
  16   2.0000      -8.081625      -219.9122
  17   2.0000      -8.078649      -219.8312
  18   2.0000      -6.040023      -164.3574
  19   2.0000      -6.037334      -164.2842
  20   2.0000      -6.036106      -164.2508
  21   2.0000      -6.033275      -164.1738
  22   2.0000      -6.032509      -164.1529
  23   2.0000      -6.029214      -164.0632
  24   2.0000      -1.006073       -27.3766
  25   2.0000      -0.983644       -26.7663
  26   2.0000      -0.913471       -24.8568
  27   2.0000      -0.906795       -24.6752
  28   2.0000      -0.871347       -23.7106
  29   2.0000      -0.848113       -23.0783
  30   2.0000      -0.842956       -22.9380
  31   2.0000      -0.819159       -22.2905
  32   2.0000      -0.782038       -21.2803
  33   2.0000      -0.768215       -20.9042
  34   2.0000      -0.705371       -19.1941
  35   2.0000      -0.695542       -18.9267
  36   2.0000      -0.680499       -18.5173
  37   2.0000      -0.659902       -17.9569
  38   2.0000      -0.650430       -17.6991
  39   2.0000      -0.619424       -16.8554
  40   2.0000      -0.592194       -16.1144
  41   2.0000      -0.570752       -15.5309
  42   2.0000      -0.567276       -15.4364
  43   2.0000      -0.547079       -14.8868
  44   2.0000      -0.539720       -14.6865
  45   2.0000      -0.521241       -14.1837
  46   2.0000      -0.520597       -14.1662
  47   2.0000      -0.514122       -13.9900
  48   2.0000      -0.505552       -13.7568
  49   2.0000      -0.500080       -13.6079
  50   2.0000      -0.491927       -13.3860
  51   2.0000      -0.473788       -12.8924
  52   2.0000      -0.471842       -12.8395
  53   2.0000      -0.464108       -12.6290
  54   2.0000      -0.457546       -12.4505
  55   2.0000      -0.449429       -12.2296
  56   2.0000      -0.438797       -11.9403
  57   2.0000      -0.434787       -11.8311
  58   2.0000      -0.430272       -11.7083
  59   2.0000      -0.425751       -11.5853
  60   2.0000      -0.421645       -11.4736
  61   2.0000      -0.413804       -11.2602
  62   2.0000      -0.393138       -10.6978
  63   2.0000      -0.340968        -9.2782
  64   2.0000      -0.327685        -8.9168
  65   2.0000      -0.324363        -8.8264
  66   2.0000      -0.304596        -8.2885
  67   0.0000       0.036642         0.9971
  68   0.0000       0.058658         1.5962
  69   0.0000       0.111654         3.0383
  70   0.0000       0.116965         3.1828
  71   0.0000       0.127505         3.4696

MULLIKEN ATOMIC CHARGES
-----------------------
   0 S :    0.113640
   1 C :   -0.085038
   2 C :   -0.061091
   3 C :    0.043318
   4 C :   -0.178158
   5 H :    0.021493
   6 C :    0.061960
   7 H :    0.023142
   8 H :    0.014167
   9 C :   -0.101359
  10 H :    0.042886
  11 H :    0.032598
  12 C :   -0.041939
  13 H :    0.017059
  14 H :    0.044232
  15 H :    0.036465
  16 S :    0.106301
  17 C :   -0.092523
  18 C :   -0.030064
  19 C :   -0.046097
  20 C :   -0.166980
  21 H :    0.014266
  22 C :    0.104098
  23 H :    0.029824
  24 H :    0.004902
  25 C :   -0.083979
  26 H :    0.036001
  27 H :    0.037028
  28 C :   -0.093228
  29 H :    0.047255
  30 H :    0.042395
  31 H :    0.029776
  32 H :    0.010332
  33 H :    0.067319
Sum of atomic charges:   -0.0000000

LOEWDIN ATOMIC CHARGES
----------------------
   0 S :    0.421360
   1 C :   -0.174793
   2 C :   -0.062686
   3 C :   -0.055851
   4 C :   -0.203139
   5 H :    0.033682
   6 C :   -0.036248
   7 H :    0.030859
   8 H :    0.025449
   9 C :   -0.040065
  10 H :    0.034540
  11 H :    0.022962
  12 C :   -0.063696
  13 H :    0.012071
  14 H :    0.035178
  15 H :    0.024279
  16 S :    0.387116
  17 C :   -0.179148
  18 C :   -0.069679
  19 C :   -0.057263
  20 C :   -0.203402
  21 H :    0.030700
  22 C :   -0.035509
  23 H :    0.037092
  24 H :    0.025375
  25 C :   -0.045708
  26 H :    0.029134
  27 H :    0.029854
  28 C :   -0.083681
  29 H :    0.025549
  30 H :    0.034697
  31 H :    0.023225
  32 H :    0.005476
  33 H :    0.042272

  Mayer bond orders larger than 0.100000
B(  0-S ,  1-C ) :   1.1362 B(  0-S ,  4-C ) :   1.1796 B(  1-C ,  2-C ) :   1.5938
B(  1-C , 32-H ) :   0.9887 B(  2-C ,  3-C ) :   1.2409 B(  2-C ,  6-C ) :   1.0419
B(  3-C ,  4-C ) :   1.5547 B(  3-C ,  5-H ) :   0.9934 B(  4-C , 20-C ) :   1.0061
B(  6-C ,  7-H ) :   0.9347 B(  6-C ,  8-H ) :   0.9367 B(  6-C ,  9-C ) :   1.0703
B(  9-C , 10-H ) :   0.9544 B(  9-C , 11-H ) :   0.9551 B(  9-C , 12-C ) :   1.0764
B( 12-C , 13-H ) :   0.9768 B( 12-C , 14-H ) :   0.9755 B( 12-C , 15-H ) :   0.9755
B( 16-S , 17-C ) :   1.1259 B( 16-S , 20-C ) :   1.1351 B( 17-C , 18-C ) :   1.6651
B( 17-C , 33-H ) :   0.9545 B( 18-C , 19-C ) :   1.2156 B( 18-C , 21-H ) :   0.9874
B( 19-C , 20-C ) :   1.6211 B( 19-C , 22-C ) :   1.0569 B( 22-C , 23-H ) :   0.9262
B( 22-C , 24-H ) :   0.9176 B( 22-C , 25-C ) :   1.0818 B( 25-C , 26-H ) :   0.9557
B( 25-C , 27-H ) :   0.9540 B( 25-C , 28-C ) :   1.0737 B( 28-C , 29-H ) :   0.9709
B( 28-C , 30-H ) :   0.9737 B( 28-C , 31-H ) :   0.9744

Dispersion correction           -0.015116813
FINAL SINGLE POINT ENERGY     -1339.870637147359

DIPOLE MOMENT
-------------
                                X             Y             Z
Electronic contribution:      0.65550     -16.82564      -5.42014
Nuclear contribution   :     -0.42459      17.15853       5.52892
                        -----------------------------------------
Total Dipole Moment    :      0.23091       0.33289       0.10878
                        -----------------------------------------
Magnitude (a.u.)       :      0.41948
Magnitude (Debye)      :      1.06624

Rotational constants in cm-1:     0.021066     0.008191     0.007146
Rotational constants in MHz :   631.541588   245.548014   214.240609

                             ****ORCA TERMINATED NORMALLY****
TOTAL RUN TIME: 0 days 0 hours 0 minutes 21 seconds 845 msec
