                         Program Version 4.2.1 -  RELEASE  -
|  1> ! wB97X-D3 SP def2-SVP
|  2> %pal
|  3> nprocs 24
|  4> end
|  5>
|  6> * xyz 0 1
|  7> S 	 -89.354 	 -33.4532 	 -58.6492
|  8> C 	 -88.4949 	 -34.9349 	 -59.0195
|  9> C 	 -87.1922 	 -34.9704 	 -58.5285
| 10> C 	 -86.938 	 -33.8071 	 -57.6601
| 11> C 	 -88.0421 	 -32.9168 	 -57.6195
| 12> H 	 -85.9451 	 -33.6838 	 -57.2317
| 13> C 	 -86.0811 	 -35.9536 	 -58.8546
| 14> H 	 -85.1055 	 -35.4636 	 -58.7436
| 15> H 	 -86.0777 	 -36.0387 	 -59.9515
| 16> C 	 -85.9723 	 -37.4156 	 -58.2711
| 17> H 	 -86.8514 	 -37.9707 	 -58.5186
| 18> H 	 -85.1125 	 -37.8377 	 -58.7488
| 19> C 	 -85.8565 	 -37.4597 	 -56.7279
| 20> H 	 -85.6487 	 -38.5224 	 -56.3637
| 21> H 	 -84.9253 	 -36.9438 	 -56.4951
| 22> H 	 -86.6883 	 -36.8971 	 -56.1516
| 23> S 	 -88.6771 	 -30.242 	 -57.7675
| 24> C 	 -88.8537 	 -29.352 	 -56.3329
| 25> C 	 -88.3437 	 -30.0003 	 -55.2239
| 26> C 	 -87.9191 	 -31.3269 	 -55.5326
| 27> C 	 -88.1931 	 -31.6568 	 -56.8473
| 28> H 	 -88.3815 	 -29.5869 	 -54.2164
| 29> C 	 -87.4266 	 -32.2357 	 -54.5081
| 30> H 	 -87.1785 	 -31.5304 	 -53.6915
| 31> H 	 -86.4526 	 -32.5033 	 -54.9091
| 32> C 	 -88.3056 	 -33.4536 	 -54.2435
| 33> H 	 -88.1818 	 -34.2264 	 -54.9903
| 34> H 	 -89.3281 	 -33.0385 	 -54.3222
| 35> C 	 -88.0809 	 -34.0208 	 -52.817
| 36> H 	 -88.7362 	 -33.4755 	 -52.1522
| 37> H 	 -87.0187 	 -33.9696 	 -52.4306
| 38> H 	 -88.3583 	 -35.0659 	 -52.6572
| 39> H 	 -88.9619 	 -35.7161 	 -59.6719
| 40> H 	 -89.0964 	 -28.3147 	 -56.3403
| 41> *
| 42>
| 43>                          ****END OF INPUT****

CARTESIAN COORDINATES (ANGSTROEM)
---------------------------------
  S    -89.354000  -33.453200  -58.649200
  C    -88.494900  -34.934900  -59.019500
  C    -87.192200  -34.970400  -58.528500
  C    -86.938000  -33.807100  -57.660100
  C    -88.042100  -32.916800  -57.619500
  H    -85.945100  -33.683800  -57.231700
  C    -86.081100  -35.953600  -58.854600
  H    -85.105500  -35.463600  -58.743600
  H    -86.077700  -36.038700  -59.951500
  C    -85.972300  -37.415600  -58.271100
  H    -86.851400  -37.970700  -58.518600
  H    -85.112500  -37.837700  -58.748800
  C    -85.856500  -37.459700  -56.727900
  H    -85.648700  -38.522400  -56.363700
  H    -84.925300  -36.943800  -56.495100
  H    -86.688300  -36.897100  -56.151600
  S    -88.677100  -30.242000  -57.767500
  C    -88.853700  -29.352000  -56.332900
  C    -88.343700  -30.000300  -55.223900
  C    -87.919100  -31.326900  -55.532600
  C    -88.193100  -31.656800  -56.847300
  H    -88.381500  -29.586900  -54.216400
  C    -87.426600  -32.235700  -54.508100
  H    -87.178500  -31.530400  -53.691500
  H    -86.452600  -32.503300  -54.909100
  C    -88.305600  -33.453600  -54.243500
  H    -88.181800  -34.226400  -54.990300
  H    -89.328100  -33.038500  -54.322200
  C    -88.080900  -34.020800  -52.817000
  H    -88.736200  -33.475500  -52.152200
  H    -87.018700  -33.969600  -52.430600
  H    -88.358300  -35.065900  -52.657200
  H    -88.961900  -35.716100  -59.671900
  H    -89.096400  -28.314700  -56.340300

 Total Charge           Charge          ....    0
 Multiplicity           Mult            ....    1
 Number of Electrons    NEL             ....  134
 Basis Dimension        Dim             ....  322

ORBITAL ENERGIES
----------------

  NO   OCC          E(Eh)            E(eV)
   0   2.0000     -88.970071     -2420.9987
   1   2.0000     -88.963639     -2420.8237
   2   2.0000     -10.336269      -281.2642
   3   2.0000     -10.321987      -280.8755
   4   2.0000     -10.319133      -280.7979
   5   2.0000     -10.309518      -280.5363
   6   2.0000     -10.308325      -280.5038
   7   2.0000     -10.302326      -280.3405
   8   2.0000     -10.297541      -280.2103
   9   2.0000     -10.294750      -280.1344
  10   2.0000     -10.291232      -280.0387
  11   2.0000     -10.290519      -280.0193
  12   2.0000     -10.289366      -279.9879
  13   2.0000     -10.286095      -279.8989
  14   2.0000     -10.284232      -279.8482
  15   2.0000     -10.278749      -279.6990
  16   2.0000      -8.084496      -219.9903
  17   2.0000      -8.079414      -219.8520
  18   2.0000      -6.043009      -164.4386
  19   2.0000      -6.039039      -164.3306
  20   2.0000      -6.037726      -164.2949
  21   2.0000      -6.035287      -164.2285
  22   2.0000      -6.033834      -164.1890
  23   2.0000      -6.030279      -164.0922
  24   2.0000      -1.006658       -27.3926
  25   2.0000      -0.981252       -26.7012
  26   2.0000      -0.914607       -24.8877
  27   2.0000      -0.904441       -24.6111
  28   2.0000      -0.862316       -23.4648
  29   2.0000      -0.851437       -23.1688
  30   2.0000      -0.844128       -22.9699
  31   2.0000      -0.807708       -21.9788
  32   2.0000      -0.781445       -21.2642
  33   2.0000      -0.769412       -20.9368
  34   2.0000      -0.708933       -19.2910
  35   2.0000      -0.702276       -19.1099
  36   2.0000      -0.686949       -18.6928
  37   2.0000      -0.665132       -18.0992
  38   2.0000      -0.634026       -17.2527
  39   2.0000      -0.613566       -16.6960
  40   2.0000      -0.592895       -16.1335
  41   2.0000      -0.570774       -15.5316
  42   2.0000      -0.562906       -15.3174
  43   2.0000      -0.540858       -14.7175
  44   2.0000      -0.538891       -14.6640
  45   2.0000      -0.521716       -14.1966
  46   2.0000      -0.517214       -14.0741
  47   2.0000      -0.504584       -13.7304
  48   2.0000      -0.502722       -13.6798
  49   2.0000      -0.493093       -13.4177
  50   2.0000      -0.486679       -13.2432
  51   2.0000      -0.478144       -13.0110
  52   2.0000      -0.470136       -12.7931
  53   2.0000      -0.462463       -12.5843
  54   2.0000      -0.453485       -12.3400
  55   2.0000      -0.448973       -12.2172
  56   2.0000      -0.444146       -12.0858
  57   2.0000      -0.435905       -11.8616
  58   2.0000      -0.433317       -11.7911
  59   2.0000      -0.428527       -11.6608
  60   2.0000      -0.422076       -11.4853
  61   2.0000      -0.415208       -11.2984
  62   2.0000      -0.414356       -11.2752
  63   2.0000      -0.343055        -9.3350
  64   2.0000      -0.331161        -9.0114
  65   2.0000      -0.328381        -8.9357
  66   2.0000      -0.288035        -7.8378
  67   0.0000       0.028849         0.7850
  68   0.0000       0.067057         1.8247
  69   0.0000       0.106459         2.8969
  70   0.0000       0.120111         3.2684
  71   0.0000       0.125700         3.4205

MULLIKEN ATOMIC CHARGES
-----------------------
   0 S :    0.121607
   1 C :   -0.145833
   2 C :   -0.083869
   3 C :    0.026141
   4 C :   -0.151975
   5 H :    0.019509
   6 C :    0.012050
   7 H :    0.019361
   8 H :    0.032639
   9 C :   -0.020086
  10 H :    0.027392
  11 H :    0.030091
  12 C :   -0.104427
  13 H :    0.047494
  14 H :    0.017293
  15 H :    0.066622
  16 S :    0.113277
  17 C :   -0.074706
  18 C :   -0.048239
  19 C :   -0.078533
  20 C :   -0.166151
  21 H :    0.022095
  22 C :    0.097416
  23 H :    0.012051
  24 H :    0.019434
  25 C :   -0.048557
  26 H :    0.050396
  27 H :    0.041853
  28 C :   -0.066322
  29 H :    0.029303
  30 H :    0.039992
  31 H :    0.028953
  32 H :    0.065550
  33 H :    0.048180
Sum of atomic charges:    0.0000000

LOEWDIN ATOMIC CHARGES
----------------------
   0 S :    0.412900
   1 C :   -0.205987
   2 C :   -0.065300
   3 C :   -0.063854
   4 C :   -0.196014
   5 H :    0.031141
   6 C :   -0.043015
   7 H :    0.030719
   8 H :    0.037046
   9 C :   -0.031233
  10 H :    0.018911
  11 H :    0.025298
  12 C :   -0.082614
  13 H :    0.034278
  14 H :    0.018467
  15 H :    0.039409
  16 S :    0.424373
  17 C :   -0.195804
  18 C :   -0.076105
  19 C :   -0.058889
  20 C :   -0.204556
  21 H :    0.033172
  22 C :   -0.038811
  23 H :    0.034069
  24 H :    0.032875
  25 C :   -0.033265
  26 H :    0.027270
  27 H :    0.031809
  28 C :   -0.072831
  29 H :    0.023942
  30 H :    0.030360
  31 H :    0.024319
  32 H :    0.035281
  33 H :    0.022637

  Mayer bond orders larger than 0.100000
B(  0-S ,  1-C ) :   1.1387 B(  0-S ,  4-C ) :   1.1663 B(  1-C ,  2-C ) :   1.6141
B(  1-C , 32-H ) :   0.9624 B(  2-C ,  3-C ) :   1.2398 B(  2-C ,  6-C ) :   1.0144
B(  3-C ,  4-C ) :   1.5468 B(  3-C ,  5-H ) :   0.9933 B(  4-C , 20-C ) :   1.0261
B(  6-C ,  7-H ) :   0.9449 B(  6-C ,  8-H ) :   0.9382 B(  6-C ,  9-C ) :   1.0688
B(  9-C , 10-H ) :   0.9594 B(  9-C , 11-H ) :   0.9525 B(  9-C , 12-C ) :   1.0713
B( 12-C , 13-H ) :   0.9731 B( 12-C , 14-H ) :   0.9752 B( 12-C , 15-H ) :   0.9731
B( 16-S , 17-C ) :   1.1767 B( 16-S , 20-C ) :   1.1521 B( 17-C , 18-C ) :   1.5828
B( 17-C , 33-H ) :   0.9678 B( 18-C , 19-C ) :   1.2590 B( 18-C , 21-H ) :   0.9889
B( 19-C , 20-C ) :   1.5800 B( 19-C , 22-C ) :   1.0502 B( 22-C , 23-H ) :   0.9324
B( 22-C , 24-H ) :   0.9055 B( 22-C , 25-C ) :   1.0442 B( 25-C , 26-H ) :   0.9490
B( 25-C , 27-H ) :   0.9676 B( 25-C , 28-C ) :   1.0711 B( 28-C , 29-H ) :   0.9794
B( 28-C , 30-H ) :   0.9765 B( 28-C , 31-H ) :   0.9766

Dispersion correction           -0.014821361
FINAL SINGLE POINT ENERGY     -1339.875462345599

DIPOLE MOMENT
-------------
                                X             Y             Z
Electronic contribution:    -12.80834      21.96410     -16.38510
Nuclear contribution   :     13.23421     -22.28991      16.61222
                        -----------------------------------------
Total Dipole Moment    :      0.42587      -0.32581       0.22712
                        -----------------------------------------
Magnitude (a.u.)       :      0.58232
Magnitude (Debye)      :      1.48015

Rotational constants in cm-1:     0.018844     0.009235     0.006920
Rotational constants in MHz :   564.923353   276.855719   207.464873

                             ****ORCA TERMINATED NORMALLY****
TOTAL RUN TIME: 0 days 0 hours 0 minutes 22 seconds 95 msec
