                         Program Version 4.2.1 -  RELEASE  -
|  1> ! wB97X-D3 SP def2-SVP
|  2> %pal
|  3> nprocs 24
|  4> end
|  5>
|  6> * xyz 0 1
|  7> S 	 -108.755 	 45.2088 	 -8.0501
|  8> C 	 -110.022 	 46.1214 	 -7.22167
|  9> C 	 -110.965 	 46.5097 	 -8.13463
| 10> C 	 -110.589 	 46.234 	 -9.51677
| 11> C 	 -109.521 	 45.4162 	 -9.60666
| 12> H 	 -111.169 	 46.4717 	 -10.3586
| 13> C 	 -112.309 	 47.1392 	 -7.88756
| 14> H 	 -112.999 	 46.3247 	 -7.54441
| 15> H 	 -112.789 	 47.3978 	 -8.83146
| 16> C 	 -112.297 	 48.2581 	 -6.87077
| 17> H 	 -113.333 	 48.3885 	 -6.44776
| 18> H 	 -111.715 	 48.0291 	 -6.02687
| 19> C 	 -111.713 	 49.6081 	 -7.43623
| 20> H 	 -110.676 	 49.5481 	 -7.85306
| 21> H 	 -112.356 	 49.9301 	 -8.31526
| 22> H 	 -111.778 	 50.5123 	 -6.77472
| 23> S 	 -108.381 	 43.0601 	 -10.3338
| 24> C 	 -108.107 	 42.7132 	 -11.9959
| 25> C 	 -108.328 	 43.8091 	 -12.8173
| 26> C 	 -108.853 	 44.896 	 -12.0982
| 27> C 	 -108.954 	 44.6477 	 -10.7452
| 28> H 	 -108.089 	 43.7107 	 -13.8889
| 29> C 	 -109.169 	 46.2016 	 -12.7833
| 30> H 	 -108.484 	 46.3692 	 -13.5789
| 31> H 	 -108.915 	 46.8565 	 -11.9945
| 32> C 	 -110.614 	 46.3319 	 -13.3117
| 33> H 	 -111.277 	 46.1567 	 -12.4307
| 34> H 	 -110.927 	 45.6056 	 -14.0766
| 35> C 	 -110.865 	 47.741 	 -13.7743
| 36> H 	 -111.916 	 47.8703 	 -13.6467
| 37> H 	 -110.586 	 47.9192 	 -14.8096
| 38> H 	 -110.392 	 48.504 	 -13.1239
| 39> H 	 -110.131 	 46.3471 	 -6.18195
| 40> H 	 -107.71 	 41.7663 	 -12.3503
| 41> *
| 42>
| 43>                          ****END OF INPUT****

CARTESIAN COORDINATES (ANGSTROEM)
---------------------------------
  S    -108.755000   45.208800   -8.050100
  C    -110.022000   46.121400   -7.221670
  C    -110.965000   46.509700   -8.134630
  C    -110.589000   46.234000   -9.516770
  C    -109.521000   45.416200   -9.606660
  H    -111.169000   46.471700  -10.358600
  C    -112.309000   47.139200   -7.887560
  H    -112.999000   46.324700   -7.544410
  H    -112.789000   47.397800   -8.831460
  C    -112.297000   48.258100   -6.870770
  H    -113.333000   48.388500   -6.447760
  H    -111.715000   48.029100   -6.026870
  C    -111.713000   49.608100   -7.436230
  H    -110.676000   49.548100   -7.853060
  H    -112.356000   49.930100   -8.315260
  H    -111.778000   50.512300   -6.774720
  S    -108.381000   43.060100  -10.333800
  C    -108.107000   42.713200  -11.995900
  C    -108.328000   43.809100  -12.817300
  C    -108.853000   44.896000  -12.098200
  C    -108.954000   44.647700  -10.745200
  H    -108.089000   43.710700  -13.888900
  C    -109.169000   46.201600  -12.783300
  H    -108.484000   46.369200  -13.578900
  H    -108.915000   46.856500  -11.994500
  C    -110.614000   46.331900  -13.311700
  H    -111.277000   46.156700  -12.430700
  H    -110.927000   45.605600  -14.076600
  C    -110.865000   47.741000  -13.774300
  H    -111.916000   47.870300  -13.646700
  H    -110.586000   47.919200  -14.809600
  H    -110.392000   48.504000  -13.123900
  H    -110.131000   46.347100   -6.181950
  H    -107.710000   41.766300  -12.350300

 Total Charge           Charge          ....    0
 Multiplicity           Mult            ....    1
 Number of Electrons    NEL             ....  134
 Basis Dimension        Dim             ....  322

ORBITAL ENERGIES
----------------

  NO   OCC          E(Eh)            E(eV)
   0   2.0000     -88.966293     -2420.8959
   1   2.0000     -88.963254     -2420.8132
   2   2.0000     -10.330260      -281.1007
   3   2.0000     -10.325347      -280.9670
   4   2.0000     -10.313951      -280.6569
   5   2.0000     -10.310977      -280.5760
   6   2.0000     -10.300354      -280.2869
   7   2.0000     -10.298104      -280.2257
   8   2.0000     -10.294397      -280.1248
   9   2.0000     -10.292363      -280.0694
  10   2.0000     -10.291677      -280.0508
  11   2.0000     -10.290565      -280.0205
  12   2.0000     -10.288596      -279.9669
  13   2.0000     -10.287663      -279.9415
  14   2.0000     -10.283405      -279.8257
  15   2.0000     -10.274947      -279.5955
  16   2.0000      -8.081771      -219.9162
  17   2.0000      -8.077899      -219.8108
  18   2.0000      -6.040116      -164.3599
  19   2.0000      -6.036681      -164.2664
  20   2.0000      -6.036173      -164.2526
  21   2.0000      -6.032660      -164.1570
  22   2.0000      -6.032431      -164.1508
  23   2.0000      -6.028356      -164.0399
  24   2.0000      -1.011906       -27.5354
  25   2.0000      -0.987596       -26.8739
  26   2.0000      -0.915408       -24.9095
  27   2.0000      -0.912153       -24.8209
  28   2.0000      -0.864860       -23.5340
  29   2.0000      -0.859893       -23.3989
  30   2.0000      -0.842190       -22.9172
  31   2.0000      -0.815532       -22.1918
  32   2.0000      -0.782044       -21.2805
  33   2.0000      -0.772687       -21.0259
  34   2.0000      -0.711199       -19.3527
  35   2.0000      -0.701846       -19.0982
  36   2.0000      -0.692389       -18.8409
  37   2.0000      -0.666994       -18.1498
  38   2.0000      -0.639642       -17.4055
  39   2.0000      -0.616356       -16.7719
  40   2.0000      -0.595495       -16.2043
  41   2.0000      -0.575529       -15.6609
  42   2.0000      -0.569614       -15.5000
  43   2.0000      -0.548650       -14.9295
  44   2.0000      -0.534528       -14.5452
  45   2.0000      -0.531881       -14.4732
  46   2.0000      -0.516146       -14.0451
  47   2.0000      -0.513118       -13.9626
  48   2.0000      -0.510369       -13.8879
  49   2.0000      -0.497622       -13.5410
  50   2.0000      -0.491228       -13.3670
  51   2.0000      -0.480133       -13.0651
  52   2.0000      -0.469963       -12.7883
  53   2.0000      -0.468660       -12.7529
  54   2.0000      -0.460461       -12.5298
  55   2.0000      -0.450441       -12.2571
  56   2.0000      -0.444906       -12.1065
  57   2.0000      -0.439005       -11.9459
  58   2.0000      -0.431460       -11.7406
  59   2.0000      -0.425068       -11.5667
  60   2.0000      -0.420238       -11.4353
  61   2.0000      -0.414167       -11.2701
  62   2.0000      -0.412275       -11.2186
  63   2.0000      -0.355120        -9.6633
  64   2.0000      -0.334009        -9.0888
  65   2.0000      -0.326185        -8.8759
  66   2.0000      -0.288679        -7.8554
  67   0.0000       0.030764         0.8371
  68   0.0000       0.073123         1.9898
  69   0.0000       0.112304         3.0559
  70   0.0000       0.124429         3.3859
  71   0.0000       0.130505         3.5512

MULLIKEN ATOMIC CHARGES
-----------------------
   0 S :    0.088828
   1 C :   -0.106455
   2 C :   -0.104976
   3 C :    0.030683
   4 C :   -0.095281
   5 H :   -0.030583
   6 C :    0.062180
   7 H :    0.048641
   8 H :    0.016595
   9 C :   -0.048879
  10 H :    0.032609
  11 H :    0.017158
  12 C :   -0.104301
  13 H :    0.053454
  14 H :    0.025997
  15 H :    0.044320
  16 S :    0.114422
  17 C :   -0.095643
  18 C :   -0.044850
  19 C :   -0.051199
  20 C :   -0.141758
  21 H :    0.026897
  22 C :    0.094755
  23 H :    0.011338
  24 H :    0.021014
  25 C :   -0.087116
  26 H :    0.022472
  27 H :    0.037561
  28 C :   -0.020310
  29 H :    0.022950
  30 H :    0.037438
  31 H :    0.030758
  32 H :    0.038126
  33 H :    0.053153
Sum of atomic charges:   -0.0000000

LOEWDIN ATOMIC CHARGES
----------------------
   0 S :    0.388408
   1 C :   -0.197236
   2 C :   -0.055065
   3 C :   -0.069921
   4 C :   -0.175546
   5 H :    0.018153
   6 C :   -0.037156
   7 H :    0.044123
   8 H :    0.028325
   9 C :   -0.039964
  10 H :    0.031213
  11 H :    0.014575
  12 C :   -0.081144
  13 H :    0.031944
  14 H :    0.026021
  15 H :    0.029498
  16 S :    0.426584
  17 C :   -0.192639
  18 C :   -0.074315
  19 C :   -0.058422
  20 C :   -0.205288
  21 H :    0.038240
  22 C :   -0.025524
  23 H :    0.025714
  24 H :    0.029020
  25 C :   -0.038725
  26 H :    0.022471
  27 H :    0.029479
  28 C :   -0.064536
  29 H :    0.024152
  30 H :    0.024696
  31 H :    0.029353
  32 H :    0.026429
  33 H :    0.027084

  Mayer bond orders larger than 0.100000
B(  0-S ,  1-C ) :   1.0982 B(  0-S ,  4-C ) :   1.1429 B(  1-C ,  2-C ) :   1.6586
B(  1-C , 32-H ) :   0.9703 B(  2-C ,  3-C ) :   1.1976 B(  2-C ,  6-C ) :   1.0183
B(  3-C ,  4-C ) :   1.6140 B(  3-C ,  5-H ) :   1.0009 B(  4-C , 20-C ) :   1.0088
B(  6-C ,  7-H ) :   0.9297 B(  6-C ,  8-H ) :   0.9457 B(  6-C ,  9-C ) :   1.0745
B(  9-C , 10-H ) :   0.9531 B(  9-C , 11-H ) :   0.9589 B(  9-C , 12-C ) :   1.0583
B( 12-C , 13-H ) :   0.9767 B( 12-C , 14-H ) :   0.9762 B( 12-C , 15-H ) :   0.9775
B( 16-S , 17-C ) :   1.1726 B( 16-S , 20-C ) :   1.1478 B( 17-C , 18-C ) :   1.5880
B( 17-C , 20-C ) :   0.1015 B( 17-C , 33-H ) :   0.9670 B( 18-C , 19-C ) :   1.2527
B( 18-C , 21-H ) :   0.9923 B( 19-C , 20-C ) :   1.5949 B( 19-C , 22-C ) :   1.0301
B( 22-C , 23-H ) :   0.9338 B( 22-C , 24-H ) :   0.9318 B( 22-C , 25-C ) :   1.0678
B( 25-C , 26-H ) :   0.9568 B( 25-C , 27-H ) :   0.9496 B( 25-C , 28-C ) :   1.0843
B( 28-C , 29-H ) :   0.9746 B( 28-C , 30-H ) :   0.9745 B( 28-C , 31-H ) :   0.9715

Dispersion correction           -0.014314002
FINAL SINGLE POINT ENERGY     -1339.881501824227

DIPOLE MOMENT
-------------
                                X             Y             Z
Electronic contribution:     17.20053     -23.71351       6.91473
Nuclear contribution   :    -17.65940      23.98794      -7.30575
                        -----------------------------------------
Total Dipole Moment    :     -0.45887       0.27443      -0.39102
                        -----------------------------------------
Magnitude (a.u.)       :      0.66239
Magnitude (Debye)      :      1.68367

Rotational constants in cm-1:     0.018724     0.009187     0.006540
Rotational constants in MHz :   561.341285   275.410606   196.075394

                             ****ORCA TERMINATED NORMALLY****
TOTAL RUN TIME: 0 days 0 hours 0 minutes 21 seconds 970 msec
