                         Program Version 4.2.1 -  RELEASE  -
|  1> ! wB97X-D3 SP def2-SVP
|  2> %pal
|  3> nprocs 24
|  4> end
|  5>
|  6> * xyz 0 1
|  7> S 	 -107.884 	 3.22112 	 -107.516
|  8> C 	 -107.407 	 4.89881 	 -107.668
|  9> C 	 -106.128 	 5.09283 	 -107.23
| 10> C 	 -105.634 	 3.93922 	 -106.591
| 11> C 	 -106.483 	 2.86742 	 -106.488
| 12> H 	 -104.709 	 3.82512 	 -106.104
| 13> C 	 -105.469 	 6.45917 	 -107.113
| 14> H 	 -104.577 	 6.36974 	 -106.471
| 15> H 	 -106.049 	 7.1859 	 -106.613
| 16> C 	 -105.127 	 7.0786 	 -108.517
| 17> H 	 -104.795 	 6.22702 	 -109.155
| 18> H 	 -106.018 	 7.51498 	 -109.026
| 19> C 	 -103.931 	 8.06435 	 -108.304
| 20> H 	 -103.972 	 8.84032 	 -109.073
| 21> H 	 -103.932 	 8.42661 	 -107.231
| 22> H 	 -103.006 	 7.44502 	 -108.32
| 23> S 	 -104.963 	 1.76321 	 -104.557
| 24> C 	 -105.336 	 0.161139 	 -103.973
| 25> C 	 -106.292 	 -0.453739 	 -104.716
| 26> C 	 -106.868 	 0.463568 	 -105.644
| 27> C 	 -106.281 	 1.69033 	 -105.674
| 28> H 	 -106.564 	 -1.45101 	 -104.456
| 29> C 	 -108.133 	 -0.0165883 	 -106.395
| 30> H 	 -108.884 	 0.788873 	 -106.227
| 31> H 	 -108.398 	 -1.02768 	 -106.015
| 32> C 	 -107.975 	 -0.182356 	 -107.915
| 33> H 	 -107.508 	 -1.08867 	 -108.241
| 34> H 	 -107.358 	 0.607797 	 -108.315
| 35> C 	 -109.222 	 -0.0884699 	 -108.824
| 36> H 	 -110.059 	 -0.758675 	 -108.708
| 37> H 	 -108.939 	 0.0146844 	 -109.908
| 38> H 	 -109.698 	 0.889398 	 -108.636
| 39> H 	 -107.981 	 5.63204 	 -108.152
| 40> H 	 -104.673 	 -0.274726 	 -103.289
| 41> *
| 42>
| 43>                          ****END OF INPUT****

CARTESIAN COORDINATES (ANGSTROEM)
---------------------------------
  S    -107.884000    3.221120  -107.516000
  C    -107.407000    4.898810  -107.668000
  C    -106.128000    5.092830  -107.230000
  C    -105.634000    3.939220  -106.591000
  C    -106.483000    2.867420  -106.488000
  H    -104.709000    3.825120  -106.104000
  C    -105.469000    6.459170  -107.113000
  H    -104.577000    6.369740  -106.471000
  H    -106.049000    7.185900  -106.613000
  C    -105.127000    7.078600  -108.517000
  H    -104.795000    6.227020  -109.155000
  H    -106.018000    7.514980  -109.026000
  C    -103.931000    8.064350  -108.304000
  H    -103.972000    8.840320  -109.073000
  H    -103.932000    8.426610  -107.231000
  H    -103.006000    7.445020  -108.320000
  S    -104.963000    1.763210  -104.557000
  C    -105.336000    0.161139  -103.973000
  C    -106.292000   -0.453739  -104.716000
  C    -106.868000    0.463568  -105.644000
  C    -106.281000    1.690330  -105.674000
  H    -106.564000   -1.451010  -104.456000
  C    -108.133000   -0.016588  -106.395000
  H    -108.884000    0.788873  -106.227000
  H    -108.398000   -1.027680  -106.015000
  C    -107.975000   -0.182356  -107.915000
  H    -107.508000   -1.088670  -108.241000
  H    -107.358000    0.607797  -108.315000
  C    -109.222000   -0.088470  -108.824000
  H    -110.059000   -0.758675  -108.708000
  H    -108.939000    0.014684  -109.908000
  H    -109.698000    0.889398  -108.636000
  H    -107.981000    5.632040  -108.152000
  H    -104.673000   -0.274726  -103.289000

 Total Charge           Charge          ....    0
 Multiplicity           Mult            ....    1
 Number of Electrons    NEL             ....  134
 Basis Dimension        Dim             ....  322

ORBITAL ENERGIES
----------------

  NO   OCC          E(Eh)            E(eV)
   0   2.0000     -88.967526     -2420.9295
   1   2.0000     -88.964120     -2420.8368
   2   2.0000     -10.331218      -281.1267
   3   2.0000     -10.326045      -280.9860
   4   2.0000     -10.312976      -280.6303
   5   2.0000     -10.309257      -280.5291
   6   2.0000     -10.303403      -280.3699
   7   2.0000     -10.299381      -280.2604
   8   2.0000     -10.298386      -280.2333
   9   2.0000     -10.293554      -280.1018
  10   2.0000     -10.292752      -280.0800
  11   2.0000     -10.292385      -280.0700
  12   2.0000     -10.288024      -279.9514
  13   2.0000     -10.286820      -279.9186
  14   2.0000     -10.278809      -279.7006
  15   2.0000     -10.274981      -279.5965
  16   2.0000      -8.081208      -219.9009
  17   2.0000      -8.079780      -219.8620
  18   2.0000      -6.039832      -164.3522
  19   2.0000      -6.038273      -164.3098
  20   2.0000      -6.035911      -164.2455
  21   2.0000      -6.034243      -164.2001
  22   2.0000      -6.031881      -164.1358
  23   2.0000      -6.030441      -164.0966
  24   2.0000      -1.015491       -27.6329
  25   2.0000      -0.991271       -26.9739
  26   2.0000      -0.908570       -24.7234
  27   2.0000      -0.903484       -24.5850
  28   2.0000      -0.877617       -23.8812
  29   2.0000      -0.852006       -23.1843
  30   2.0000      -0.844690       -22.9852
  31   2.0000      -0.818155       -22.2631
  32   2.0000      -0.780655       -21.2427
  33   2.0000      -0.769585       -20.9415
  34   2.0000      -0.710088       -19.3225
  35   2.0000      -0.699448       -19.0329
  36   2.0000      -0.690405       -18.7869
  37   2.0000      -0.679966       -18.5028
  38   2.0000      -0.640799       -17.4370
  39   2.0000      -0.621111       -16.9013
  40   2.0000      -0.597354       -16.2548
  41   2.0000      -0.573956       -15.6181
  42   2.0000      -0.567967       -15.4552
  43   2.0000      -0.559302       -15.2194
  44   2.0000      -0.527733       -14.3603
  45   2.0000      -0.522632       -14.2215
  46   2.0000      -0.516939       -14.0666
  47   2.0000      -0.515086       -14.0162
  48   2.0000      -0.501408       -13.6440
  49   2.0000      -0.501048       -13.6342
  50   2.0000      -0.488291       -13.2871
  51   2.0000      -0.486248       -13.2315
  52   2.0000      -0.472505       -12.8575
  53   2.0000      -0.472174       -12.8485
  54   2.0000      -0.465059       -12.6549
  55   2.0000      -0.451434       -12.2842
  56   2.0000      -0.444433       -12.0936
  57   2.0000      -0.433734       -11.8025
  58   2.0000      -0.425494       -11.5783
  59   2.0000      -0.419576       -11.4172
  60   2.0000      -0.414884       -11.2896
  61   2.0000      -0.412192       -11.2163
  62   2.0000      -0.407043       -11.0762
  63   2.0000      -0.367577       -10.0023
  64   2.0000      -0.334369        -9.0986
  65   2.0000      -0.330716        -8.9992
  66   2.0000      -0.283483        -7.7140
  67   0.0000       0.018410         0.5009
  68   0.0000       0.080553         2.1920
  69   0.0000       0.107619         2.9285
  70   0.0000       0.118050         3.2123
  71   0.0000       0.127110         3.4588

MULLIKEN ATOMIC CHARGES
-----------------------
   0 S :    0.091498
   1 C :   -0.103520
   2 C :   -0.024818
   3 C :   -0.027343
   4 C :   -0.097879
   5 H :   -0.003137
   6 C :    0.043939
   7 H :    0.023880
   8 H :    0.033440
   9 C :   -0.121920
  10 H :    0.045528
  11 H :    0.043319
  12 C :   -0.068716
  13 H :    0.047117
  14 H :    0.040928
  15 H :    0.042914
  16 S :    0.072080
  17 C :   -0.063567
  18 C :   -0.016947
  19 C :   -0.086654
  20 C :   -0.091524
  21 H :    0.013803
  22 C :    0.073550
  23 H :    0.044102
  24 H :    0.030479
  25 C :   -0.066560
  26 H :    0.022500
  27 H :    0.025717
  28 C :   -0.073887
  29 H :    0.030919
  30 H :    0.040497
  31 H :    0.011480
  32 H :    0.029056
  33 H :    0.039727
Sum of atomic charges:    0.0000000

LOEWDIN ATOMIC CHARGES
----------------------
   0 S :    0.403563
   1 C :   -0.180003
   2 C :   -0.062613
   3 C :   -0.071950
   4 C :   -0.173102
   5 H :    0.013082
   6 C :   -0.027978
   7 H :    0.030302
   8 H :    0.027521
   9 C :   -0.045530
  10 H :    0.026752
  11 H :    0.023800
  12 C :   -0.071096
  13 H :    0.026059
  14 H :    0.029602
  15 H :    0.032194
  16 S :    0.414836
  17 C :   -0.165006
  18 C :   -0.064035
  19 C :   -0.058690
  20 C :   -0.194577
  21 H :    0.031917
  22 C :   -0.030142
  23 H :    0.033642
  24 H :    0.035942
  25 C :   -0.050392
  26 H :    0.020261
  27 H :    0.016727
  28 C :   -0.075666
  29 H :    0.017544
  30 H :    0.035183
  31 H :    0.017774
  32 H :    0.018014
  33 H :    0.016064

  Mayer bond orders larger than 0.100000
B(  0-S ,  1-C ) :   1.1357 B(  0-S ,  4-C ) :   1.1169 B(  1-C ,  2-C ) :   1.6013
B(  1-C , 32-H ) :   0.9756 B(  2-C ,  3-C ) :   1.2433 B(  2-C ,  6-C ) :   1.0197
B(  3-C ,  4-C ) :   1.5719 B(  3-C ,  5-H ) :   0.9885 B(  4-C , 20-C ) :   1.1042
B(  6-C ,  7-H ) :   0.9534 B(  6-C ,  8-H ) :   0.9439 B(  6-C ,  9-C ) :   1.0343
B(  9-C , 10-H ) :   0.9694 B(  9-C , 11-H ) :   0.9621 B(  9-C , 12-C ) :   1.0558
B( 12-C , 13-H ) :   0.9759 B( 12-C , 14-H ) :   0.9768 B( 12-C , 15-H ) :   0.9782
B( 16-S , 17-C ) :   1.1559 B( 16-S , 20-C ) :   1.1289 B( 17-C , 18-C ) :   1.6204
B( 17-C , 33-H ) :   0.9722 B( 18-C , 19-C ) :   1.2307 B( 18-C , 21-H ) :   0.9983
B( 19-C , 20-C ) :   1.5952 B( 19-C , 22-C ) :   1.0318 B( 22-C , 23-H ) :   0.9398
B( 22-C , 24-H ) :   0.9346 B( 22-C , 25-C ) :   1.0540 B( 25-C , 26-H ) :   0.9552
B( 25-C , 27-H ) :   0.9563 B( 25-C , 28-C ) :   1.0752 B( 28-C , 29-H ) :   0.9780
B( 28-C , 30-H ) :   0.9737 B( 28-C , 31-H ) :   0.9701

Dispersion correction           -0.013920893
FINAL SINGLE POINT ENERGY     -1339.867466863827

DIPOLE MOMENT
-------------
                                X             Y             Z
Electronic contribution:      1.15200      -8.27001      13.50149
Nuclear contribution   :     -1.01487       8.35021     -13.49853
                        -----------------------------------------
Total Dipole Moment    :      0.13713       0.08020       0.00296
                        -----------------------------------------
Magnitude (a.u.)       :      0.15889
Magnitude (Debye)      :      0.40386

Rotational constants in cm-1:     0.020907     0.008154     0.006138
Rotational constants in MHz :   626.770156   244.446273   184.025774

                             ****ORCA TERMINATED NORMALLY****
TOTAL RUN TIME: 0 days 0 hours 0 minutes 21 seconds 229 msec
