                         Program Version 4.2.1 -  RELEASE  -
|  1> ! wB97X-D3 SP def2-SVP
|  2> %pal
|  3> nprocs 24
|  4> end
|  5>
|  6> * xyz 0 1
|  7> S 	 -112.105 	 55.0812 	 -91.9279
|  8> C 	 -111.748 	 56.3757 	 -90.7798
|  9> C 	 -111.424 	 57.5976 	 -91.3773
| 10> C 	 -111.506 	 57.4861 	 -92.7864
| 11> C 	 -111.857 	 56.218 	 -93.2425
| 12> H 	 -111.24 	 58.2993 	 -93.4375
| 13> C 	 -111.103 	 58.8627 	 -90.5923
| 14> H 	 -110.396 	 59.4196 	 -91.2606
| 15> H 	 -110.528 	 58.6005 	 -89.7436
| 16> C 	 -112.236 	 59.7895 	 -90.1962
| 17> H 	 -111.706 	 60.6166 	 -89.8608
| 18> H 	 -112.77 	 60.2636 	 -91.0257
| 19> C 	 -113.044 	 59.3091 	 -89.0095
| 20> H 	 -113.671 	 58.3872 	 -89.3044
| 21> H 	 -112.432 	 59.0059 	 -88.1657
| 22> H 	 -113.833 	 60.013 	 -88.662
| 23> S 	 -113.321 	 56.4172 	 -95.533
| 24> C 	 -112.599 	 56.0233 	 -97.0525
| 25> C 	 -111.301 	 55.5741 	 -96.9028
| 26> C 	 -110.893 	 55.477 	 -95.5062
| 27> C 	 -111.907 	 55.8698 	 -94.6781
| 28> H 	 -110.665 	 55.3455 	 -97.8347
| 29> C 	 -109.475 	 55.1186 	 -95.2132
| 30> H 	 -109.01 	 54.4587 	 -96.0081
| 31> H 	 -109.595 	 54.5429 	 -94.3689
| 32> C 	 -108.555 	 56.3432 	 -94.9032
| 33> H 	 -109.039 	 56.9652 	 -94.1519
| 34> H 	 -108.545 	 56.9821 	 -95.7829
| 35> C 	 -107.143 	 55.8485 	 -94.4909
| 36> H 	 -106.536 	 56.7227 	 -94.2659
| 37> H 	 -106.846 	 55.2783 	 -95.3801
| 38> H 	 -107.092 	 55.2034 	 -93.6599
| 39> H 	 -111.856 	 56.2277 	 -89.7887
| 40> H 	 -112.927 	 56.4537 	 -97.9706
| 41> *
| 42>
| 43>                          ****END OF INPUT****

CARTESIAN COORDINATES (ANGSTROEM)
---------------------------------
  S    -112.105000   55.081200  -91.927900
  C    -111.748000   56.375700  -90.779800
  C    -111.424000   57.597600  -91.377300
  C    -111.506000   57.486100  -92.786400
  C    -111.857000   56.218000  -93.242500
  H    -111.240000   58.299300  -93.437500
  C    -111.103000   58.862700  -90.592300
  H    -110.396000   59.419600  -91.260600
  H    -110.528000   58.600500  -89.743600
  C    -112.236000   59.789500  -90.196200
  H    -111.706000   60.616600  -89.860800
  H    -112.770000   60.263600  -91.025700
  C    -113.044000   59.309100  -89.009500
  H    -113.671000   58.387200  -89.304400
  H    -112.432000   59.005900  -88.165700
  H    -113.833000   60.013000  -88.662000
  S    -113.321000   56.417200  -95.533000
  C    -112.599000   56.023300  -97.052500
  C    -111.301000   55.574100  -96.902800
  C    -110.893000   55.477000  -95.506200
  C    -111.907000   55.869800  -94.678100
  H    -110.665000   55.345500  -97.834700
  C    -109.475000   55.118600  -95.213200
  H    -109.010000   54.458700  -96.008100
  H    -109.595000   54.542900  -94.368900
  C    -108.555000   56.343200  -94.903200
  H    -109.039000   56.965200  -94.151900
  H    -108.545000   56.982100  -95.782900
  C    -107.143000   55.848500  -94.490900
  H    -106.536000   56.722700  -94.265900
  H    -106.846000   55.278300  -95.380100
  H    -107.092000   55.203400  -93.659900
  H    -111.856000   56.227700  -89.788700
  H    -112.927000   56.453700  -97.970600

 Total Charge           Charge          ....    0
 Multiplicity           Mult            ....    1
 Number of Electrons    NEL             ....  134
 Basis Dimension        Dim             ....  322

ORBITAL ENERGIES
----------------

  NO   OCC          E(Eh)            E(eV)
   0   2.0000     -88.969218     -2420.9755
   1   2.0000     -88.961735     -2420.7719
   2   2.0000     -10.329014      -281.0668
   3   2.0000     -10.320831      -280.8441
   4   2.0000     -10.309147      -280.5261
   5   2.0000     -10.307639      -280.4851
   6   2.0000     -10.299964      -280.2763
   7   2.0000     -10.299903      -280.2746
   8   2.0000     -10.297248      -280.2024
   9   2.0000     -10.295015      -280.1416
  10   2.0000     -10.293130      -280.0903
  11   2.0000     -10.285705      -279.8883
  12   2.0000     -10.285360      -279.8789
  13   2.0000     -10.284966      -279.8682
  14   2.0000     -10.282369      -279.7975
  15   2.0000     -10.275035      -279.5979
  16   2.0000      -8.083313      -219.9581
  17   2.0000      -8.077182      -219.7913
  18   2.0000      -6.041697      -164.4029
  19   2.0000      -6.037922      -164.3002
  20   2.0000      -6.035691      -164.2395
  21   2.0000      -6.034249      -164.2003
  22   2.0000      -6.031565      -164.1272
  23   2.0000      -6.027932      -164.0284
  24   2.0000      -1.004427       -27.3318
  25   2.0000      -0.981785       -26.7157
  26   2.0000      -0.916063       -24.9273
  27   2.0000      -0.907246       -24.6874
  28   2.0000      -0.864622       -23.5276
  29   2.0000      -0.850937       -23.1552
  30   2.0000      -0.848626       -23.0923
  31   2.0000      -0.809370       -22.0241
  32   2.0000      -0.783658       -21.3244
  33   2.0000      -0.772129       -21.0107
  34   2.0000      -0.708771       -19.2866
  35   2.0000      -0.704684       -19.1754
  36   2.0000      -0.692997       -18.8574
  37   2.0000      -0.658680       -17.9236
  38   2.0000      -0.644582       -17.5400
  39   2.0000      -0.619136       -16.8476
  40   2.0000      -0.592017       -16.1096
  41   2.0000      -0.566447       -15.4138
  42   2.0000      -0.561350       -15.2751
  43   2.0000      -0.551345       -15.0029
  44   2.0000      -0.539509       -14.6808
  45   2.0000      -0.525363       -14.2958
  46   2.0000      -0.517958       -14.0943
  47   2.0000      -0.513653       -13.9772
  48   2.0000      -0.500115       -13.6088
  49   2.0000      -0.488989       -13.3061
  50   2.0000      -0.485039       -13.1986
  51   2.0000      -0.482359       -13.1257
  52   2.0000      -0.472812       -12.8659
  53   2.0000      -0.465699       -12.6723
  54   2.0000      -0.461567       -12.5599
  55   2.0000      -0.448878       -12.2146
  56   2.0000      -0.444367       -12.0918
  57   2.0000      -0.440266       -11.9802
  58   2.0000      -0.434872       -11.8335
  59   2.0000      -0.432120       -11.7586
  60   2.0000      -0.419997       -11.4287
  61   2.0000      -0.414552       -11.2805
  62   2.0000      -0.406590       -11.0639
  63   2.0000      -0.337212        -9.1760
  64   2.0000      -0.326388        -8.8815
  65   2.0000      -0.319450        -8.6927
  66   2.0000      -0.308438        -8.3930
  67   0.0000       0.043853         1.1933
  68   0.0000       0.056511         1.5378
  69   0.0000       0.111386         3.0310
  70   0.0000       0.120259         3.2724
  71   0.0000       0.129711         3.5296

MULLIKEN ATOMIC CHARGES
-----------------------
   0 S :    0.119336
   1 C :   -0.088933
   2 C :   -0.077863
   3 C :    0.056940
   4 C :   -0.186652
   5 H :    0.010566
   6 C :    0.054191
   7 H :    0.022948
   8 H :    0.015031
   9 C :    0.004077
  10 H :    0.006553
  11 H :    0.027883
  12 C :   -0.085692
  13 H :    0.041712
  14 H :    0.030530
  15 H :    0.043203
  16 S :    0.109490
  17 C :   -0.078229
  18 C :   -0.084195
  19 C :   -0.024990
  20 C :   -0.193640
  21 H :    0.049554
  22 C :    0.097495
  23 H :    0.029202
  24 H :    0.001438
  25 C :   -0.079777
  26 H :    0.024191
  27 H :    0.021517
  28 C :   -0.010872
  29 H :    0.037773
  30 H :    0.027972
  31 H :    0.027019
  32 H :   -0.001061
  33 H :    0.053283
Sum of atomic charges:   -0.0000000

LOEWDIN ATOMIC CHARGES
----------------------
   0 S :    0.403882
   1 C :   -0.173406
   2 C :   -0.060544
   3 C :   -0.055770
   4 C :   -0.202063
   5 H :    0.029151
   6 C :   -0.025385
   7 H :    0.036139
   8 H :    0.026569
   9 C :   -0.042655
  10 H :    0.020175
  11 H :    0.030343
  12 C :   -0.073880
  13 H :    0.032518
  14 H :    0.023234
  15 H :    0.031522
  16 S :    0.419657
  17 C :   -0.198201
  18 C :   -0.079064
  19 C :   -0.051457
  20 C :   -0.210874
  21 H :    0.044419
  22 C :   -0.030267
  23 H :    0.035454
  24 H :    0.019633
  25 C :   -0.032335
  26 H :    0.020886
  27 H :    0.021407
  28 C :   -0.058160
  29 H :    0.028158
  30 H :    0.028404
  31 H :    0.019264
  32 H :   -0.001460
  33 H :    0.024705

  Mayer bond orders larger than 0.100000
B(  0-S ,  1-C ) :   1.1488 B(  0-S ,  4-C ) :   1.1575 B(  1-C ,  2-C ) :   1.5872
B(  1-C ,  4-C ) :   0.1002 B(  1-C , 32-H ) :   0.9828 B(  2-C ,  3-C ) :   1.2676
B(  2-C ,  6-C ) :   1.0177 B(  3-C ,  4-C ) :   1.5634 B(  3-C ,  5-H ) :   0.9908
B(  4-C , 20-C ) :   0.9999 B(  6-C ,  7-H ) :   0.9369 B(  6-C ,  8-H ) :   0.9371
B(  6-C ,  9-C ) :   1.0838 B(  9-C , 10-H ) :   0.9411 B(  9-C , 11-H ) :   0.9507
B(  9-C , 12-C ) :   1.0765 B( 12-C , 13-H ) :   0.9738 B( 12-C , 14-H ) :   0.9725
B( 12-C , 15-H ) :   0.9724 B( 16-S , 17-C ) :   1.1588 B( 16-S , 20-C ) :   1.1480
B( 17-C , 18-C ) :   1.6304 B( 17-C , 33-H ) :   0.9633 B( 18-C , 19-C ) :   1.2290
B( 18-C , 21-H ) :   0.9745 B( 19-C , 20-C ) :   1.6240 B( 19-C , 22-C ) :   1.0418
B( 22-C , 23-H ) :   0.9376 B( 22-C , 24-H ) :   0.9149 B( 22-C , 25-C ) :   1.0597
B( 25-C , 26-H ) :   0.9529 B( 25-C , 27-H ) :   0.9566 B( 25-C , 28-C ) :   1.0720
B( 28-C , 29-H ) :   0.9740 B( 28-C , 30-H ) :   0.9742 B( 28-C , 31-H ) :   0.9785

Dispersion correction           -0.014915854
FINAL SINGLE POINT ENERGY     -1339.869387801430

DIPOLE MOMENT
-------------
                                X             Y             Z
Electronic contribution:    -15.70756     -12.47880      -9.75779
Nuclear contribution   :     16.22563      13.06961       9.90549
                        -----------------------------------------
Total Dipole Moment    :      0.51807       0.59080       0.14770
                        -----------------------------------------
Magnitude (a.u.)       :      0.79954
Magnitude (Debye)      :      2.03227

Rotational constants in cm-1:     0.018999     0.008416     0.007112
Rotational constants in MHz :   569.578266   252.295650   213.210980

                             ****ORCA TERMINATED NORMALLY****
TOTAL RUN TIME: 0 days 0 hours 0 minutes 21 seconds 789 msec
