                         Program Version 4.2.1 -  RELEASE  -
|  1> ! wB97X-D3 SP def2-SVP
|  2> %pal
|  3> nprocs 24
|  4> end
|  5>
|  6> * xyz 0 1
|  7> S 	 -39.9717 	 -0.140463 	 -5.62042
|  8> C 	 -39.28 	 0.882741 	 -4.32744
|  9> C 	 -38.7818 	 2.03036 	 -4.85665
| 10> C 	 -38.8956 	 2.13484 	 -6.25071
| 11> C 	 -39.4828 	 1.01846 	 -6.88026
| 12> H 	 -38.5417 	 2.97283 	 -6.74132
| 13> C 	 -38.319 	 3.09724 	 -3.92889
| 14> H 	 -38.7943 	 2.87951 	 -3.02217
| 15> H 	 -38.8113 	 4.0073 	 -4.36604
| 16> C 	 -36.84 	 3.31233 	 -3.83939
| 17> H 	 -36.4454 	 2.39563 	 -3.48844
| 18> H 	 -36.4397 	 3.37266 	 -4.84935
| 19> C 	 -36.3352 	 4.40892 	 -2.88886
| 20> H 	 -36.7858 	 5.33938 	 -3.08676
| 21> H 	 -36.5164 	 4.29329 	 -1.84826
| 22> H 	 -35.2585 	 4.48694 	 -2.92211
| 23> S 	 -38.5672 	 0.0987576 	 -9.19462
| 24> C 	 -39.5808 	 0.131402 	 -10.6066
| 25> C 	 -40.7488 	 0.807754 	 -10.3863
| 26> C 	 -40.9383 	 1.04687 	 -9.0012
| 27> C 	 -39.8119 	 0.785277 	 -8.27071
| 28> H 	 -41.4013 	 0.923941 	 -11.1994
| 29> C 	 -42.1804 	 1.67142 	 -8.42022
| 30> H 	 -42.6864 	 2.23167 	 -9.15623
| 31> H 	 -41.7572 	 2.30812 	 -7.64968
| 32> C 	 -43.1707 	 0.702829 	 -7.63422
| 33> H 	 -42.6678 	 -0.106716 	 -7.18569
| 34> H 	 -43.8622 	 0.198085 	 -8.32433
| 35> C 	 -44.1732 	 1.49822 	 -6.75891
| 36> H 	 -44.8457 	 2.28808 	 -7.24464
| 37> H 	 -43.6632 	 1.92383 	 -5.8713
| 38> H 	 -44.8669 	 0.758905 	 -6.34951
| 39> H 	 -39.3065 	 0.619675 	 -3.27532
| 40> H 	 -39.396 	 -0.273419 	 -11.6228
| 41> *
| 42>
| 43>                          ****END OF INPUT****

CARTESIAN COORDINATES (ANGSTROEM)
---------------------------------
  S    -39.971700   -0.140463   -5.620420
  C    -39.280000    0.882741   -4.327440
  C    -38.781800    2.030360   -4.856650
  C    -38.895600    2.134840   -6.250710
  C    -39.482800    1.018460   -6.880260
  H    -38.541700    2.972830   -6.741320
  C    -38.319000    3.097240   -3.928890
  H    -38.794300    2.879510   -3.022170
  H    -38.811300    4.007300   -4.366040
  C    -36.840000    3.312330   -3.839390
  H    -36.445400    2.395630   -3.488440
  H    -36.439700    3.372660   -4.849350
  C    -36.335200    4.408920   -2.888860
  H    -36.785800    5.339380   -3.086760
  H    -36.516400    4.293290   -1.848260
  H    -35.258500    4.486940   -2.922110
  S    -38.567200    0.098758   -9.194620
  C    -39.580800    0.131402  -10.606600
  C    -40.748800    0.807754  -10.386300
  C    -40.938300    1.046870   -9.001200
  C    -39.811900    0.785277   -8.270710
  H    -41.401300    0.923941  -11.199400
  C    -42.180400    1.671420   -8.420220
  H    -42.686400    2.231670   -9.156230
  H    -41.757200    2.308120   -7.649680
  C    -43.170700    0.702829   -7.634220
  H    -42.667800   -0.106716   -7.185690
  H    -43.862200    0.198085   -8.324330
  C    -44.173200    1.498220   -6.758910
  H    -44.845700    2.288080   -7.244640
  H    -43.663200    1.923830   -5.871300
  H    -44.866900    0.758905   -6.349510
  H    -39.306500    0.619675   -3.275320
  H    -39.396000   -0.273419  -11.622800

 Total Charge           Charge          ....    0
 Multiplicity           Mult            ....    1
 Number of Electrons    NEL             ....  134
 Basis Dimension        Dim             ....  322

ORBITAL ENERGIES
----------------

  NO   OCC          E(Eh)            E(eV)
   0   2.0000     -88.964623     -2420.8505
   1   2.0000     -88.964153     -2420.8377
   2   2.0000     -10.334602      -281.2188
   3   2.0000     -10.315009      -280.6857
   4   2.0000     -10.313917      -280.6559
   5   2.0000     -10.313616      -280.6478
   6   2.0000     -10.297932      -280.2210
   7   2.0000     -10.292850      -280.0827
   8   2.0000     -10.292257      -280.0666
   9   2.0000     -10.285666      -279.8872
  10   2.0000     -10.285181      -279.8740
  11   2.0000     -10.283998      -279.8418
  12   2.0000     -10.283920      -279.8397
  13   2.0000     -10.282094      -279.7900
  14   2.0000     -10.281608      -279.7768
  15   2.0000     -10.272004      -279.5154
  16   2.0000      -8.080557      -219.8831
  17   2.0000      -8.077683      -219.8049
  18   2.0000      -6.038987      -164.3292
  19   2.0000      -6.036245      -164.2546
  20   2.0000      -6.034863      -164.2170
  21   2.0000      -6.032247      -164.1458
  22   2.0000      -6.031352      -164.1214
  23   2.0000      -6.028571      -164.0458
  24   2.0000      -1.012937       -27.5634
  25   2.0000      -0.986772       -26.8514
  26   2.0000      -0.917900       -24.9773
  27   2.0000      -0.899905       -24.4877
  28   2.0000      -0.873996       -23.7826
  29   2.0000      -0.850397       -23.1405
  30   2.0000      -0.846638       -23.0382
  31   2.0000      -0.820441       -22.3253
  32   2.0000      -0.785317       -21.3696
  33   2.0000      -0.767411       -20.8823
  34   2.0000      -0.715799       -19.4779
  35   2.0000      -0.701863       -19.0987
  36   2.0000      -0.695315       -18.9205
  37   2.0000      -0.664895       -18.0927
  38   2.0000      -0.642932       -17.4951
  39   2.0000      -0.626841       -17.0572
  40   2.0000      -0.589906       -16.0521
  41   2.0000      -0.573705       -15.6113
  42   2.0000      -0.564235       -15.3536
  43   2.0000      -0.554427       -15.0867
  44   2.0000      -0.530923       -14.4471
  45   2.0000      -0.521005       -14.1773
  46   2.0000      -0.516494       -14.0545
  47   2.0000      -0.513575       -13.9751
  48   2.0000      -0.507973       -13.8227
  49   2.0000      -0.499570       -13.5940
  50   2.0000      -0.494045       -13.4436
  51   2.0000      -0.478665       -13.0251
  52   2.0000      -0.475071       -12.9273
  53   2.0000      -0.466751       -12.7009
  54   2.0000      -0.462502       -12.5853
  55   2.0000      -0.449165       -12.2224
  56   2.0000      -0.447121       -12.1668
  57   2.0000      -0.440887       -11.9972
  58   2.0000      -0.431420       -11.7395
  59   2.0000      -0.427081       -11.6215
  60   2.0000      -0.421591       -11.4721
  61   2.0000      -0.408774       -11.1233
  62   2.0000      -0.406537       -11.0624
  63   2.0000      -0.336985        -9.1698
  64   2.0000      -0.330914        -9.0046
  65   2.0000      -0.318163        -8.6577
  66   2.0000      -0.309453        -8.4206
  67   0.0000       0.044132         1.2009
  68   0.0000       0.054067         1.4712
  69   0.0000       0.111046         3.0217
  70   0.0000       0.122670         3.3380
  71   0.0000       0.134594         3.6625

MULLIKEN ATOMIC CHARGES
-----------------------
   0 S :    0.097859
   1 C :   -0.139736
   2 C :   -0.098375
   3 C :    0.099314
   4 C :   -0.171864
   5 H :   -0.022657
   6 C :    0.086697
   7 H :    0.000021
   8 H :    0.024347
   9 C :   -0.035074
  10 H :    0.005315
  11 H :    0.022682
  12 C :    0.000570
  13 H :    0.013022
  14 H :    0.015315
  15 H :    0.030833
  16 S :    0.136534
  17 C :   -0.101297
  18 C :   -0.030222
  19 C :   -0.013487
  20 C :   -0.192339
  21 H :   -0.000811
  22 C :    0.103231
  23 H :    0.009352
  24 H :    0.027790
  25 C :   -0.045738
  26 H :    0.018608
  27 H :    0.019504
  28 C :   -0.088812
  29 H :    0.048754
  30 H :    0.039899
  31 H :    0.029539
  32 H :    0.051736
  33 H :    0.059487
Sum of atomic charges:   -0.0000000

LOEWDIN ATOMIC CHARGES
----------------------
   0 S :    0.382418
   1 C :   -0.182640
   2 C :   -0.068987
   3 C :   -0.048192
   4 C :   -0.184311
   5 H :    0.019560
   6 C :   -0.026249
   7 H :    0.020897
   8 H :    0.034916
   9 C :   -0.037976
  10 H :    0.019810
  11 H :    0.026706
  12 C :   -0.059237
  13 H :    0.017882
  14 H :    0.022843
  15 H :    0.029664
  16 S :    0.442632
  17 C :   -0.192399
  18 C :   -0.068151
  19 C :   -0.050508
  20 C :   -0.234266
  21 H :    0.024865
  22 C :   -0.024674
  23 H :    0.022524
  24 H :    0.033620
  25 C :   -0.033376
  26 H :    0.013264
  27 H :    0.023647
  28 C :   -0.076174
  29 H :    0.034689
  30 H :    0.024675
  31 H :    0.026013
  32 H :    0.029583
  33 H :    0.036935

  Mayer bond orders larger than 0.100000
B(  0-S ,  1-C ) :   1.1307 B(  0-S ,  4-C ) :   1.1567 B(  1-C ,  2-C ) :   1.6056
B(  1-C ,  4-C ) :   0.1046 B(  1-C , 32-H ) :   0.9695 B(  2-C ,  3-C ) :   1.2606
B(  2-C ,  6-C ) :   1.0171 B(  3-C ,  4-C ) :   1.5541 B(  3-C ,  5-H ) :   1.0068
B(  4-C , 20-C ) :   1.0026 B(  6-C ,  7-H ) :   0.9395 B(  6-C ,  8-H ) :   0.9316
B(  6-C ,  9-C ) :   1.0669 B(  9-C , 10-H ) :   0.9468 B(  9-C , 11-H ) :   0.9546
B(  9-C , 12-C ) :   1.0822 B( 12-C , 13-H ) :   0.9742 B( 12-C , 14-H ) :   0.9720
B( 12-C , 15-H ) :   0.9729 B( 16-S , 17-C ) :   1.1601 B( 16-S , 20-C ) :   1.1635
B( 17-C , 18-C ) :   1.6233 B( 17-C , 33-H ) :   0.9604 B( 18-C , 19-C ) :   1.2336
B( 18-C , 21-H ) :   0.9987 B( 19-C , 20-C ) :   1.5970 B( 19-C , 22-C ) :   1.0450
B( 22-C , 23-H ) :   0.9349 B( 22-C , 24-H ) :   0.9344 B( 22-C , 25-C ) :   1.0514
B( 25-C , 26-H ) :   0.9576 B( 25-C , 27-H ) :   0.9554 B( 25-C , 28-C ) :   1.0740
B( 28-C , 29-H ) :   0.9752 B( 28-C , 30-H ) :   0.9762 B( 28-C , 31-H ) :   0.9742

Dispersion correction           -0.014319933
FINAL SINGLE POINT ENERGY     -1339.867353346997

DIPOLE MOMENT
-------------
                                X             Y             Z
Electronic contribution:      6.00700     -16.03876     -13.96055
Nuclear contribution   :     -6.15125      16.45560      14.08234
                        -----------------------------------------
Total Dipole Moment    :     -0.14424       0.41684       0.12179
                        -----------------------------------------
Magnitude (a.u.)       :      0.45760
Magnitude (Debye)      :      1.16312

Rotational constants in cm-1:     0.019542     0.007988     0.006619
Rotational constants in MHz :   585.854064   239.475645   198.422292

                             ****ORCA TERMINATED NORMALLY****
TOTAL RUN TIME: 0 days 0 hours 0 minutes 21 seconds 419 msec
