                         Program Version 4.2.1 -  RELEASE  -
|  1> ! wB97X-D3 SP def2-SVP
|  2> %pal
|  3> nprocs 24
|  4> end
|  5>
|  6> * xyz 0 1
|  7> S 	 -70.0678 	 -0.619311 	 14.0001
|  8> C 	 -70.6719 	 0.510035 	 12.7906
|  9> C 	 -71.9887 	 0.793944 	 13.0557
| 10> C 	 -72.4427 	 0.281064 	 14.2923
| 11> C 	 -71.4884 	 -0.444304 	 14.9958
| 12> H 	 -73.4109 	 0.42341 	 14.7942
| 13> C 	 -72.8907 	 1.73861 	 12.2412
| 14> H 	 -73.8064 	 1.17655 	 11.9814
| 15> H 	 -72.3235 	 2.00774 	 11.2526
| 16> C 	 -73.282 	 3.09159 	 12.9343
| 17> H 	 -72.4576 	 3.73476 	 13.0871
| 18> H 	 -73.7529 	 3.58056 	 12.105
| 19> C 	 -74.174 	 3.09788 	 14.1976
| 20> H 	 -74.2443 	 4.14993 	 14.5274
| 21> H 	 -75.1813 	 2.84746 	 13.9359
| 22> H 	 -73.7487 	 2.47006 	 14.9853
| 23> S 	 -71.4498 	 -2.9285 	 16.4374
| 24> C 	 -71.7691 	 -2.85093 	 18.1286
| 25> C 	 -72.1363 	 -1.56838 	 18.5607
| 26> C 	 -72.0601 	 -0.625442 	 17.5193
| 27> C 	 -71.7081 	 -1.16847 	 16.277
| 28> H 	 -72.5 	 -1.54401 	 19.6135
| 29> C 	 -72.5171 	 0.803814 	 17.6883
| 30> H 	 -73.1692 	 0.713162 	 18.5249
| 31> H 	 -73.1671 	 1.27904 	 16.9242
| 32> C 	 -71.4293 	 1.82636 	 17.9068
| 33> H 	 -71.1278 	 2.24633 	 16.9505
| 34> H 	 -70.5418 	 1.35989 	 18.3221
| 35> C 	 -71.8352 	 2.93665 	 18.9762
| 36> H 	 -71.0296 	 3.37311 	 19.6265
| 37> H 	 -72.5764 	 2.4284 	 19.6314
| 38> H 	 -72.3616 	 3.74834 	 18.4301
| 39> H 	 -69.9834 	 0.843391 	 12.0221
| 40> H 	 -71.9939 	 -3.74775 	 18.6966
| 41> *
| 42>
| 43>                          ****END OF INPUT****

CARTESIAN COORDINATES (ANGSTROEM)
---------------------------------
  S    -70.067800   -0.619311   14.000100
  C    -70.671900    0.510035   12.790600
  C    -71.988700    0.793944   13.055700
  C    -72.442700    0.281064   14.292300
  C    -71.488400   -0.444304   14.995800
  H    -73.410900    0.423410   14.794200
  C    -72.890700    1.738610   12.241200
  H    -73.806400    1.176550   11.981400
  H    -72.323500    2.007740   11.252600
  C    -73.282000    3.091590   12.934300
  H    -72.457600    3.734760   13.087100
  H    -73.752900    3.580560   12.105000
  C    -74.174000    3.097880   14.197600
  H    -74.244300    4.149930   14.527400
  H    -75.181300    2.847460   13.935900
  H    -73.748700    2.470060   14.985300
  S    -71.449800   -2.928500   16.437400
  C    -71.769100   -2.850930   18.128600
  C    -72.136300   -1.568380   18.560700
  C    -72.060100   -0.625442   17.519300
  C    -71.708100   -1.168470   16.277000
  H    -72.500000   -1.544010   19.613500
  C    -72.517100    0.803814   17.688300
  H    -73.169200    0.713162   18.524900
  H    -73.167100    1.279040   16.924200
  C    -71.429300    1.826360   17.906800
  H    -71.127800    2.246330   16.950500
  H    -70.541800    1.359890   18.322100
  C    -71.835200    2.936650   18.976200
  H    -71.029600    3.373110   19.626500
  H    -72.576400    2.428400   19.631400
  H    -72.361600    3.748340   18.430100
  H    -69.983400    0.843391   12.022100
  H    -71.993900   -3.747750   18.696600

 Total Charge           Charge          ....    0
 Multiplicity           Mult            ....    1
 Number of Electrons    NEL             ....  134
 Basis Dimension        Dim             ....  322

ORBITAL ENERGIES
----------------

  NO   OCC          E(Eh)            E(eV)
   0   2.0000     -88.969182     -2420.9745
   1   2.0000     -88.962853     -2420.8023
   2   2.0000     -10.331676      -281.1392
   3   2.0000     -10.331145      -281.1248
   4   2.0000     -10.317670      -280.7581
   5   2.0000     -10.316432      -280.7244
   6   2.0000     -10.306032      -280.4414
   7   2.0000     -10.305828      -280.4358
   8   2.0000     -10.302246      -280.3384
   9   2.0000     -10.300229      -280.2835
  10   2.0000     -10.293484      -280.0999
  11   2.0000     -10.287373      -279.9337
  12   2.0000     -10.285877      -279.8929
  13   2.0000     -10.284913      -279.8667
  14   2.0000     -10.282868      -279.8111
  15   2.0000     -10.281287      -279.7680
  16   2.0000      -8.083631      -219.9668
  17   2.0000      -8.077762      -219.8071
  18   2.0000      -6.041991      -164.4109
  19   2.0000      -6.038134      -164.3060
  20   2.0000      -6.036188      -164.2530
  21   2.0000      -6.034615      -164.2102
  22   2.0000      -6.032205      -164.1446
  23   2.0000      -6.028635      -164.0475
  24   2.0000      -1.004616       -27.3370
  25   2.0000      -0.985729       -26.8230
  26   2.0000      -0.909220       -24.7411
  27   2.0000      -0.904204       -24.6046
  28   2.0000      -0.866153       -23.5692
  29   2.0000      -0.848356       -23.0849
  30   2.0000      -0.843289       -22.9471
  31   2.0000      -0.812479       -22.1087
  32   2.0000      -0.783615       -21.3233
  33   2.0000      -0.770330       -20.9617
  34   2.0000      -0.705947       -19.2098
  35   2.0000      -0.702434       -19.1142
  36   2.0000      -0.690243       -18.7825
  37   2.0000      -0.657640       -17.8953
  38   2.0000      -0.644965       -17.5504
  39   2.0000      -0.617684       -16.8080
  40   2.0000      -0.597589       -16.2612
  41   2.0000      -0.572007       -15.5651
  42   2.0000      -0.558404       -15.1949
  43   2.0000      -0.538486       -14.6529
  44   2.0000      -0.535969       -14.5845
  45   2.0000      -0.521344       -14.1865
  46   2.0000      -0.518992       -14.1225
  47   2.0000      -0.513841       -13.9823
  48   2.0000      -0.505569       -13.7572
  49   2.0000      -0.497910       -13.5488
  50   2.0000      -0.489110       -13.3094
  51   2.0000      -0.483545       -13.1579
  52   2.0000      -0.470629       -12.8065
  53   2.0000      -0.468664       -12.7530
  54   2.0000      -0.461545       -12.5593
  55   2.0000      -0.445587       -12.1250
  56   2.0000      -0.437700       -11.9104
  57   2.0000      -0.436124       -11.8675
  58   2.0000      -0.432977       -11.7819
  59   2.0000      -0.427182       -11.6242
  60   2.0000      -0.414038       -11.2666
  61   2.0000      -0.410003       -11.1567
  62   2.0000      -0.409787       -11.1509
  63   2.0000      -0.344082        -9.3629
  64   2.0000      -0.336387        -9.1535
  65   2.0000      -0.329767        -8.9734
  66   2.0000      -0.292244        -7.9524
  67   0.0000       0.030889         0.8405
  68   0.0000       0.061038         1.6609
  69   0.0000       0.111972         3.0469
  70   0.0000       0.121520         3.3067
  71   0.0000       0.126731         3.4485

MULLIKEN ATOMIC CHARGES
-----------------------
   0 S :    0.099807
   1 C :   -0.150473
   2 C :   -0.029704
   3 C :   -0.001852
   4 C :   -0.147801
   5 H :    0.028524
   6 C :    0.014910
   7 H :    0.042025
   8 H :    0.037567
   9 C :   -0.057041
  10 H :    0.016938
  11 H :    0.018772
  12 C :   -0.040647
  13 H :    0.035124
  14 H :    0.028911
  15 H :    0.042886
  16 S :    0.117991
  17 C :   -0.110875
  18 C :   -0.064282
  19 C :   -0.007616
  20 C :   -0.165930
  21 H :    0.042360
  22 C :    0.058268
  23 H :    0.005559
  24 H :    0.023044
  25 C :   -0.052162
  26 H :    0.038960
  27 H :    0.029700
  28 C :   -0.098371
  29 H :    0.053770
  30 H :    0.029806
  31 H :    0.038676
  32 H :    0.058103
  33 H :    0.065053
Sum of atomic charges:   -0.0000000

LOEWDIN ATOMIC CHARGES
----------------------
   0 S :    0.400896
   1 C :   -0.190402
   2 C :   -0.071082
   3 C :   -0.070668
   4 C :   -0.193954
   5 H :    0.035063
   6 C :   -0.033903
   7 H :    0.033781
   8 H :    0.040315
   9 C :   -0.040609
  10 H :    0.018713
  11 H :    0.024324
  12 C :   -0.064006
  13 H :    0.033988
  14 H :    0.022281
  15 H :    0.022990
  16 S :    0.410685
  17 C :   -0.196151
  18 C :   -0.079451
  19 C :   -0.053825
  20 C :   -0.191374
  21 H :    0.044445
  22 C :   -0.035478
  23 H :    0.023699
  24 H :    0.031763
  25 C :   -0.038035
  26 H :    0.024457
  27 H :    0.023188
  28 C :   -0.073800
  29 H :    0.032053
  30 H :    0.024261
  31 H :    0.026041
  32 H :    0.030107
  33 H :    0.029687

  Mayer bond orders larger than 0.100000
B(  0-S ,  1-C ) :   1.1407 B(  0-S ,  4-C ) :   1.1626 B(  1-C ,  2-C ) :   1.5868
B(  1-C ,  4-C ) :   0.1010 B(  1-C , 32-H ) :   0.9777 B(  2-C ,  3-C ) :   1.2410
B(  2-C ,  6-C ) :   1.0199 B(  3-C ,  4-C ) :   1.5626 B(  3-C ,  5-H ) :   0.9866
B(  4-C , 20-C ) :   1.0381 B(  6-C ,  7-H ) :   0.9403 B(  6-C ,  8-H ) :   0.9463
B(  6-C ,  9-C ) :   1.0623 B(  9-C , 10-H ) :   0.9573 B(  9-C , 11-H ) :   0.9526
B(  9-C , 12-C ) :   1.0792 B( 12-C , 13-H ) :   0.9677 B( 12-C , 14-H ) :   0.9738
B( 12-C , 15-H ) :   0.9698 B( 16-S , 17-C ) :   1.1831 B( 16-S , 20-C ) :   1.1458
B( 17-C , 18-C ) :   1.5886 B( 17-C , 20-C ) :   0.1054 B( 17-C , 33-H ) :   0.9607
B( 18-C , 19-C ) :   1.2638 B( 18-C , 21-H ) :   0.9843 B( 19-C , 20-C ) :   1.5715
B( 19-C , 22-C ) :   1.0324 B( 22-C , 23-H ) :   0.9336 B( 22-C , 24-H ) :   0.9419
B( 22-C , 25-C ) :   1.0483 B( 25-C , 26-H ) :   0.9592 B( 25-C , 27-H ) :   0.9641
B( 25-C , 28-C ) :   1.0531 B( 28-C , 29-H ) :   0.9798 B( 28-C , 30-H ) :   0.9814
B( 28-C , 31-H ) :   0.9795

Dispersion correction           -0.015202008
FINAL SINGLE POINT ENERGY     -1339.870566584657

DIPOLE MOMENT
-------------
                                X             Y             Z
Electronic contribution:     12.88938     -27.49972      -4.66887
Nuclear contribution   :    -13.39070      28.01034       4.73844
                        -----------------------------------------
Total Dipole Moment    :     -0.50132       0.51062       0.06957
                        -----------------------------------------
Magnitude (a.u.)       :      0.71895
Magnitude (Debye)      :      1.82744

Rotational constants in cm-1:     0.016519     0.010353     0.007432
Rotational constants in MHz :   495.215705   310.374341   222.792934

                             ****ORCA TERMINATED NORMALLY****
TOTAL RUN TIME: 0 days 0 hours 0 minutes 22 seconds 544 msec
