                         Program Version 4.2.1 -  RELEASE  -
|  1> ! wB97X-D3 SP def2-SVP
|  2> %pal
|  3> nprocs 24
|  4> end
|  5>
|  6> * xyz 0 1
|  7> S 	 -113.565 	 54.69 	 -38.3532
|  8> C 	 -112.42 	 54.3509 	 -39.6727
|  9> C 	 -112.95 	 54.7071 	 -40.8702
| 10> C 	 -114.259 	 55.2566 	 -40.7742
| 11> C 	 -114.637 	 55.5957 	 -39.4591
| 12> H 	 -114.83 	 55.724 	 -41.6367
| 13> C 	 -112.149 	 54.5854 	 -42.1867
| 14> H 	 -112.869 	 54.2556 	 -42.9825
| 15> H 	 -111.379 	 53.8501 	 -42.1361
| 16> C 	 -111.616 	 55.8822 	 -42.7369
| 17> H 	 -111.064 	 55.6242 	 -43.6697
| 18> H 	 -112.476 	 56.4453 	 -43.128
| 19> C 	 -110.764 	 56.6135 	 -41.6764
| 20> H 	 -110.146 	 57.3952 	 -42.1703
| 21> H 	 -111.4 	 57.161 	 -40.9963
| 22> H 	 -110.108 	 55.852 	 -41.2799
| 23> S 	 -116.682 	 55.5018 	 -37.7386
| 24> C 	 -117.869 	 56.7883 	 -37.7965
| 25> C 	 -117.695 	 57.6575 	 -38.8448
| 26> C 	 -116.485 	 57.3765 	 -39.5155
| 27> C 	 -115.84 	 56.2693 	 -39.0262
| 28> H 	 -118.332 	 58.4474 	 -39.0079
| 29> C 	 -115.906 	 58.3225 	 -40.562
| 30> H 	 -116.607 	 58.2288 	 -41.4086
| 31> H 	 -114.895 	 57.9719 	 -40.759
| 32> C 	 -115.684 	 59.7556 	 -40.0899
| 33> H 	 -115.131 	 59.7712 	 -39.1598
| 34> H 	 -116.708 	 60.2206 	 -39.8361
| 35> C 	 -114.98 	 60.682 	 -41.2173
| 36> H 	 -115.202 	 61.7642 	 -41.1584
| 37> H 	 -115.214 	 60.4105 	 -42.1956
| 38> H 	 -113.878 	 60.5446 	 -41.1655
| 39> H 	 -111.493 	 53.8577 	 -39.6186
| 40> H 	 -118.677 	 57.0018 	 -37.1612
| 41> *
| 42>
| 43>                          ****END OF INPUT****

CARTESIAN COORDINATES (ANGSTROEM)
---------------------------------
  S    -113.565000   54.690000  -38.353200
  C    -112.420000   54.350900  -39.672700
  C    -112.950000   54.707100  -40.870200
  C    -114.259000   55.256600  -40.774200
  C    -114.637000   55.595700  -39.459100
  H    -114.830000   55.724000  -41.636700
  C    -112.149000   54.585400  -42.186700
  H    -112.869000   54.255600  -42.982500
  H    -111.379000   53.850100  -42.136100
  C    -111.616000   55.882200  -42.736900
  H    -111.064000   55.624200  -43.669700
  H    -112.476000   56.445300  -43.128000
  C    -110.764000   56.613500  -41.676400
  H    -110.146000   57.395200  -42.170300
  H    -111.400000   57.161000  -40.996300
  H    -110.108000   55.852000  -41.279900
  S    -116.682000   55.501800  -37.738600
  C    -117.869000   56.788300  -37.796500
  C    -117.695000   57.657500  -38.844800
  C    -116.485000   57.376500  -39.515500
  C    -115.840000   56.269300  -39.026200
  H    -118.332000   58.447400  -39.007900
  C    -115.906000   58.322500  -40.562000
  H    -116.607000   58.228800  -41.408600
  H    -114.895000   57.971900  -40.759000
  C    -115.684000   59.755600  -40.089900
  H    -115.131000   59.771200  -39.159800
  H    -116.708000   60.220600  -39.836100
  C    -114.980000   60.682000  -41.217300
  H    -115.202000   61.764200  -41.158400
  H    -115.214000   60.410500  -42.195600
  H    -113.878000   60.544600  -41.165500
  H    -111.493000   53.857700  -39.618600
  H    -118.677000   57.001800  -37.161200

 Total Charge           Charge          ....    0
 Multiplicity           Mult            ....    1
 Number of Electrons    NEL             ....  134
 Basis Dimension        Dim             ....  322

ORBITAL ENERGIES
----------------

  NO   OCC          E(Eh)            E(eV)
   0   2.0000     -88.969258     -2420.9766
   1   2.0000     -88.965542     -2420.8755
   2   2.0000     -10.335635      -281.2469
   3   2.0000     -10.321986      -280.8755
   4   2.0000     -10.313137      -280.6347
   5   2.0000     -10.309744      -280.5424
   6   2.0000     -10.300691      -280.2961
   7   2.0000     -10.299987      -280.2769
   8   2.0000     -10.298921      -280.2479
   9   2.0000     -10.298677      -280.2412
  10   2.0000     -10.293180      -280.0917
  11   2.0000     -10.291380      -280.0427
  12   2.0000     -10.287053      -279.9250
  13   2.0000     -10.286717      -279.9158
  14   2.0000     -10.283562      -279.8299
  15   2.0000     -10.277467      -279.6641
  16   2.0000      -8.084491      -219.9902
  17   2.0000      -8.079215      -219.8466
  18   2.0000      -6.042976      -164.4377
  19   2.0000      -6.038995      -164.3294
  20   2.0000      -6.037871      -164.2988
  21   2.0000      -6.035172      -164.2254
  22   2.0000      -6.033987      -164.1931
  23   2.0000      -6.029757      -164.0780
  24   2.0000      -1.012214       -27.5437
  25   2.0000      -0.984288       -26.7838
  26   2.0000      -0.913956       -24.8700
  27   2.0000      -0.906086       -24.6558
  28   2.0000      -0.874457       -23.7952
  29   2.0000      -0.848321       -23.0840
  30   2.0000      -0.837666       -22.7940
  31   2.0000      -0.814735       -22.1701
  32   2.0000      -0.784070       -21.3356
  33   2.0000      -0.776161       -21.1204
  34   2.0000      -0.713742       -19.4219
  35   2.0000      -0.700762       -19.0687
  36   2.0000      -0.690684       -18.7945
  37   2.0000      -0.668424       -18.1887
  38   2.0000      -0.636197       -17.3118
  39   2.0000      -0.617690       -16.8082
  40   2.0000      -0.593218       -16.1423
  41   2.0000      -0.572232       -15.5712
  42   2.0000      -0.564476       -15.3602
  43   2.0000      -0.553237       -15.0544
  44   2.0000      -0.542010       -14.7488
  45   2.0000      -0.521388       -14.1877
  46   2.0000      -0.515870       -14.0375
  47   2.0000      -0.509950       -13.8765
  48   2.0000      -0.505737       -13.7618
  49   2.0000      -0.502303       -13.6684
  50   2.0000      -0.489367       -13.3164
  51   2.0000      -0.478918       -13.0320
  52   2.0000      -0.469866       -12.7857
  53   2.0000      -0.466680       -12.6990
  54   2.0000      -0.462447       -12.5838
  55   2.0000      -0.456816       -12.4306
  56   2.0000      -0.446391       -12.1469
  57   2.0000      -0.436657       -11.8820
  58   2.0000      -0.433960       -11.8087
  59   2.0000      -0.422851       -11.5064
  60   2.0000      -0.417634       -11.3644
  61   2.0000      -0.412814       -11.2332
  62   2.0000      -0.409364       -11.1394
  63   2.0000      -0.352435        -9.5903
  64   2.0000      -0.336205        -9.1486
  65   2.0000      -0.329301        -8.9607
  66   2.0000      -0.287956        -7.8357
  67   0.0000       0.021253         0.5783
  68   0.0000       0.077031         2.0961
  69   0.0000       0.097813         2.6616
  70   0.0000       0.122981         3.3465
  71   0.0000       0.127429         3.4675

MULLIKEN ATOMIC CHARGES
-----------------------
   0 S :    0.088981
   1 C :   -0.087165
   2 C :   -0.091328
   3 C :    0.019571
   4 C :   -0.168756
   5 H :    0.040943
   6 C :    0.051207
   7 H :    0.029858
   8 H :    0.016381
   9 C :   -0.093991
  10 H :    0.032527
  11 H :    0.022672
  12 C :   -0.028469
  13 H :    0.031530
  14 H :    0.051229
  15 H :    0.029031
  16 S :    0.121676
  17 C :   -0.053606
  18 C :   -0.018511
  19 C :   -0.052349
  20 C :   -0.142350
  21 H :   -0.012286
  22 C :    0.073805
  23 H :    0.041356
  24 H :    0.026307
  25 C :   -0.108471
  26 H :    0.042953
  27 H :    0.033438
  28 C :   -0.045428
  29 H :    0.043233
  30 H :    0.013296
  31 H :    0.037783
  32 H :    0.025130
  33 H :    0.029803
Sum of atomic charges:   -0.0000000

LOEWDIN ATOMIC CHARGES
----------------------
   0 S :    0.368750
   1 C :   -0.179185
   2 C :   -0.065147
   3 C :   -0.070338
   4 C :   -0.177726
   5 H :    0.040060
   6 C :   -0.031221
   7 H :    0.037141
   8 H :    0.020047
   9 C :   -0.047725
  10 H :    0.027360
  11 H :    0.020053
  12 C :   -0.062327
  13 H :    0.028312
  14 H :    0.029391
  15 H :    0.024391
  16 S :    0.420909
  17 C :   -0.170214
  18 C :   -0.055540
  19 C :   -0.055499
  20 C :   -0.210698
  21 H :    0.019504
  22 C :   -0.034715
  23 H :    0.035229
  24 H :    0.028946
  25 C :   -0.038333
  26 H :    0.026219
  27 H :    0.024201
  28 C :   -0.068272
  29 H :    0.031398
  30 H :    0.013813
  31 H :    0.029979
  32 H :    0.020929
  33 H :    0.020308

  Mayer bond orders larger than 0.100000
B(  0-S ,  1-C ) :   1.1115 B(  0-S ,  4-C ) :   1.1358 B(  1-C ,  2-C ) :   1.6352
B(  1-C ,  4-C ) :   0.1004 B(  1-C , 32-H ) :   0.9716 B(  2-C ,  3-C ) :   1.2365
B(  2-C ,  6-C ) :   1.0220 B(  3-C ,  4-C ) :   1.5589 B(  3-C ,  5-H ) :   0.9750
B(  4-C , 20-C ) :   1.0663 B(  6-C ,  7-H ) :   0.9399 B(  6-C ,  8-H ) :   0.9454
B(  6-C ,  9-C ) :   1.0796 B(  9-C , 10-H ) :   0.9548 B(  9-C , 11-H ) :   0.9558
B(  9-C , 12-C ) :   1.0652 B( 12-C , 13-H ) :   0.9743 B( 12-C , 14-H ) :   0.9712
B( 12-C , 15-H ) :   0.9768 B( 16-S , 17-C ) :   1.1458 B( 16-S , 20-C ) :   1.1352
B( 17-C , 18-C ) :   1.6295 B( 17-C , 33-H ) :   0.9681 B( 18-C , 19-C ) :   1.2297
B( 18-C , 21-H ) :   1.0026 B( 19-C , 20-C ) :   1.6142 B( 19-C , 22-C ) :   1.0378
B( 22-C , 23-H ) :   0.9254 B( 22-C , 24-H ) :   0.9361 B( 22-C , 25-C ) :   1.0669
B( 25-C , 26-H ) :   0.9612 B( 25-C , 27-H ) :   0.9572 B( 25-C , 28-C ) :   1.0585
B( 28-C , 29-H ) :   0.9794 B( 28-C , 30-H ) :   0.9779 B( 28-C , 31-H ) :   0.9777

Dispersion correction           -0.014658040
FINAL SINGLE POINT ENERGY     -1339.865957758591

DIPOLE MOMENT
-------------
                                X             Y             Z
Electronic contribution:    -12.11107     -18.62624      21.31458
Nuclear contribution   :     12.14666      19.09217     -21.90662
                        -----------------------------------------
Total Dipole Moment    :      0.03559       0.46593      -0.59204
                        -----------------------------------------
Magnitude (a.u.)       :      0.75423
Magnitude (Debye)      :      1.91711

Rotational constants in cm-1:     0.016965     0.010177     0.006964
Rotational constants in MHz :   508.604025   305.104320   208.765019

                             ****ORCA TERMINATED NORMALLY****
TOTAL RUN TIME: 0 days 0 hours 0 minutes 22 seconds 159 msec
