                         Program Version 4.2.1 -  RELEASE  -
|  1> ! wB97X-D3 SP def2-SVP
|  2> %pal
|  3> nprocs 24
|  4> end
|  5>
|  6> * xyz 0 1
|  7> S 	 -54.5259 	 4.55303 	 -23.1445
|  8> C 	 -53.4015 	 3.54157 	 -23.9476
|  9> C 	 -53.6361 	 2.16067 	 -23.9067
| 10> C 	 -54.8834 	 1.94197 	 -23.2068
| 11> C 	 -55.3782 	 3.11374 	 -22.6517
| 12> H 	 -55.3179 	 0.985962 	 -23.0181
| 13> C 	 -52.7222 	 1.07692 	 -24.6048
| 14> H 	 -51.8941 	 1.11586 	 -23.8845
| 15> H 	 -52.3376 	 1.45985 	 -25.5834
| 16> C 	 -53.2748 	 -0.312517 	 -24.8164
| 17> H 	 -53.4856 	 -0.785936 	 -23.8713
| 18> H 	 -54.0811 	 -0.229952 	 -25.4872
| 19> C 	 -52.2709 	 -1.38319 	 -25.4291
| 20> H 	 -51.8652 	 -2.09744 	 -24.6826
| 21> H 	 -52.8627 	 -1.98302 	 -26.1268
| 22> H 	 -51.4977 	 -0.914348 	 -26.0282
| 23> S 	 -57.9246 	 3.89723 	 -22.3648
| 24> C 	 -58.6875 	 3.81373 	 -20.8258
| 25> C 	 -57.9315 	 3.0485 	 -19.9493
| 26> C 	 -56.6327 	 2.62726 	 -20.4615
| 27> C 	 -56.5077 	 3.17296 	 -21.7797
| 28> H 	 -58.3718 	 2.74439 	 -18.9749
| 29> C 	 -55.7026 	 1.74815 	 -19.7509
| 30> H 	 -54.7431 	 2.03966 	 -20.1205
| 31> H 	 -55.9244 	 0.729618 	 -19.9512
| 32> C 	 -55.6592 	 1.9194 	 -18.1954
| 33> H 	 -56.6589 	 1.7248 	 -17.8259
| 34> H 	 -55.2874 	 2.92992 	 -18.123
| 35> C 	 -54.672 	 0.974302 	 -17.6416
| 36> H 	 -54.4368 	 1.30681 	 -16.5972
| 37> H 	 -53.7687 	 1.00096 	 -18.2372
| 38> H 	 -54.9792 	 -0.0898214 	 -17.5418
| 39> H 	 -52.43 	 3.81293 	 -24.3591
| 40> H 	 -59.7698 	 4.05455 	 -20.5362
| 41> *
| 42>
| 43>                          ****END OF INPUT****

CARTESIAN COORDINATES (ANGSTROEM)
---------------------------------
  S    -54.525900    4.553030  -23.144500
  C    -53.401500    3.541570  -23.947600
  C    -53.636100    2.160670  -23.906700
  C    -54.883400    1.941970  -23.206800
  C    -55.378200    3.113740  -22.651700
  H    -55.317900    0.985962  -23.018100
  C    -52.722200    1.076920  -24.604800
  H    -51.894100    1.115860  -23.884500
  H    -52.337600    1.459850  -25.583400
  C    -53.274800   -0.312517  -24.816400
  H    -53.485600   -0.785936  -23.871300
  H    -54.081100   -0.229952  -25.487200
  C    -52.270900   -1.383190  -25.429100
  H    -51.865200   -2.097440  -24.682600
  H    -52.862700   -1.983020  -26.126800
  H    -51.497700   -0.914348  -26.028200
  S    -57.924600    3.897230  -22.364800
  C    -58.687500    3.813730  -20.825800
  C    -57.931500    3.048500  -19.949300
  C    -56.632700    2.627260  -20.461500
  C    -56.507700    3.172960  -21.779700
  H    -58.371800    2.744390  -18.974900
  C    -55.702600    1.748150  -19.750900
  H    -54.743100    2.039660  -20.120500
  H    -55.924400    0.729618  -19.951200
  C    -55.659200    1.919400  -18.195400
  H    -56.658900    1.724800  -17.825900
  H    -55.287400    2.929920  -18.123000
  C    -54.672000    0.974302  -17.641600
  H    -54.436800    1.306810  -16.597200
  H    -53.768700    1.000960  -18.237200
  H    -54.979200   -0.089821  -17.541800
  H    -52.430000    3.812930  -24.359100
  H    -59.769800    4.054550  -20.536200

 Total Charge           Charge          ....    0
 Multiplicity           Mult            ....    1
 Number of Electrons    NEL             ....  134
 Basis Dimension        Dim             ....  322

ORBITAL ENERGIES
----------------

  NO   OCC          E(Eh)            E(eV)
   0   2.0000     -88.970878     -2421.0207
   1   2.0000     -88.964237     -2420.8400
   2   2.0000     -10.320378      -280.8318
   3   2.0000     -10.316886      -280.7367
   4   2.0000     -10.314262      -280.6653
   5   2.0000     -10.307704      -280.4869
   6   2.0000     -10.304796      -280.4077
   7   2.0000     -10.301986      -280.3313
   8   2.0000     -10.301459      -280.3170
   9   2.0000     -10.292829      -280.0821
  10   2.0000     -10.292693      -280.0784
  11   2.0000     -10.287786      -279.9449
  12   2.0000     -10.285376      -279.8793
  13   2.0000     -10.281415      -279.7715
  14   2.0000     -10.280266      -279.7403
  15   2.0000     -10.277624      -279.6684
  16   2.0000      -8.085945      -220.0298
  17   2.0000      -8.080195      -219.8733
  18   2.0000      -6.044248      -164.4723
  19   2.0000      -6.040533      -164.3713
  20   2.0000      -6.038568      -164.3178
  21   2.0000      -6.036792      -164.2695
  22   2.0000      -6.034506      -164.2073
  23   2.0000      -6.031059      -164.1135
  24   2.0000      -1.008853       -27.4523
  25   2.0000      -0.982678       -26.7400
  26   2.0000      -0.919277       -25.0148
  27   2.0000      -0.907801       -24.7025
  28   2.0000      -0.867744       -23.6125
  29   2.0000      -0.854993       -23.2656
  30   2.0000      -0.848266       -23.0825
  31   2.0000      -0.810032       -22.0421
  32   2.0000      -0.782828       -21.3018
  33   2.0000      -0.765156       -20.8210
  34   2.0000      -0.708433       -19.2774
  35   2.0000      -0.698049       -18.9949
  36   2.0000      -0.684797       -18.6343
  37   2.0000      -0.644879       -17.5481
  38   2.0000      -0.635247       -17.2859
  39   2.0000      -0.618240       -16.8232
  40   2.0000      -0.593590       -16.1524
  41   2.0000      -0.584351       -15.9010
  42   2.0000      -0.580688       -15.8013
  43   2.0000      -0.558124       -15.1873
  44   2.0000      -0.523531       -14.2460
  45   2.0000      -0.519437       -14.1346
  46   2.0000      -0.515434       -14.0257
  47   2.0000      -0.507932       -13.8215
  48   2.0000      -0.501386       -13.6434
  49   2.0000      -0.500051       -13.6071
  50   2.0000      -0.485396       -13.2083
  51   2.0000      -0.480222       -13.0675
  52   2.0000      -0.470994       -12.8164
  53   2.0000      -0.462270       -12.5790
  54   2.0000      -0.458093       -12.4653
  55   2.0000      -0.452814       -12.3217
  56   2.0000      -0.449630       -12.2350
  57   2.0000      -0.435901       -11.8615
  58   2.0000      -0.434543       -11.8245
  59   2.0000      -0.431795       -11.7498
  60   2.0000      -0.427401       -11.6302
  61   2.0000      -0.413095       -11.2409
  62   2.0000      -0.407820       -11.0974
  63   2.0000      -0.338917        -9.2224
  64   2.0000      -0.327397        -8.9089
  65   2.0000      -0.321235        -8.7412
  66   2.0000      -0.290349        -7.9008
  67   0.0000       0.039250         1.0681
  68   0.0000       0.065041         1.7699
  69   0.0000       0.117305         3.1920
  70   0.0000       0.124182         3.3792
  71   0.0000       0.135973         3.7000

MULLIKEN ATOMIC CHARGES
-----------------------
   0 S :    0.153266
   1 C :   -0.111887
   2 C :   -0.114816
   3 C :    0.043083
   4 C :   -0.189578
   5 H :    0.005092
   6 C :    0.044577
   7 H :    0.040984
   8 H :    0.039276
   9 C :   -0.067148
  10 H :    0.034843
  11 H :    0.033905
  12 C :   -0.061265
  13 H :    0.046585
  14 H :    0.029371
  15 H :    0.029170
  16 S :    0.135887
  17 C :   -0.115229
  18 C :   -0.072280
  19 C :   -0.014817
  20 C :   -0.198959
  21 H :    0.026874
  22 C :    0.071027
  23 H :    0.022080
  24 H :    0.029963
  25 C :   -0.081389
  26 H :    0.035337
  27 H :    0.035130
  28 C :   -0.036439
  29 H :    0.035269
  30 H :    0.023258
  31 H :    0.034921
  32 H :    0.035633
  33 H :    0.078278
Sum of atomic charges:   -0.0000000

LOEWDIN ATOMIC CHARGES
----------------------
   0 S :    0.434282
   1 C :   -0.220611
   2 C :   -0.059729
   3 C :   -0.053322
   4 C :   -0.210271
   5 H :    0.026867
   6 C :   -0.035625
   7 H :    0.035904
   8 H :    0.033982
   9 C :   -0.039178
  10 H :    0.026641
  11 H :    0.021620
  12 C :   -0.063786
  13 H :    0.029935
  14 H :    0.028252
  15 H :    0.021484
  16 S :    0.447350
  17 C :   -0.225739
  18 C :   -0.080064
  19 C :   -0.050985
  20 C :   -0.228283
  21 H :    0.031783
  22 C :   -0.032420
  23 H :    0.030001
  24 H :    0.027568
  25 C :   -0.034538
  26 H :    0.021864
  27 H :    0.029521
  28 C :   -0.068788
  29 H :    0.031332
  30 H :    0.023731
  31 H :    0.027832
  32 H :    0.025447
  33 H :    0.047944

  Mayer bond orders larger than 0.100000
B(  0-S ,  1-C ) :   1.1485 B(  0-S ,  4-C ) :   1.1533 B(  1-C ,  2-C ) :   1.6356
B(  1-C , 32-H ) :   0.9592 B(  2-C ,  3-C ) :   1.2499 B(  2-C ,  6-C ) :   0.9820
B(  3-C ,  4-C ) :   1.5623 B(  3-C ,  5-H ) :   0.9970 B(  4-C , 20-C ) :   1.0450
B(  6-C ,  7-H ) :   0.9378 B(  6-C ,  8-H ) :   0.9460 B(  6-C ,  9-C ) :   1.0911
B(  9-C , 10-H ) :   0.9520 B(  9-C , 11-H ) :   0.9621 B(  9-C , 12-C ) :   1.0685
B( 12-C , 13-H ) :   0.9819 B( 12-C , 14-H ) :   0.9778 B( 12-C , 15-H ) :   0.9782
B( 16-S , 17-C ) :   1.1531 B( 16-S , 20-C ) :   1.1902 B( 17-C , 18-C ) :   1.6048
B( 17-C , 33-H ) :   0.9547 B( 18-C , 19-C ) :   1.2573 B( 18-C , 21-H ) :   0.9779
B( 19-C , 20-C ) :   1.5295 B( 19-C , 22-C ) :   1.0594 B( 22-C , 23-H ) :   0.9182
B( 22-C , 24-H ) :   0.9265 B( 22-C , 25-C ) :   1.0779 B( 25-C , 26-H ) :   0.9478
B( 25-C , 27-H ) :   0.9573 B( 25-C , 28-C ) :   1.1039 B( 28-C , 29-H ) :   0.9701
B( 28-C , 30-H ) :   0.9671 B( 28-C , 31-H ) :   0.9710

Dispersion correction           -0.013447340
FINAL SINGLE POINT ENERGY     -1339.859931452134

DIPOLE MOMENT
-------------
                                X             Y             Z
Electronic contribution:    -15.10920      24.38638      -6.85658
Nuclear contribution   :     15.40380     -25.10579       7.01993
                        -----------------------------------------
Total Dipole Moment    :      0.29461      -0.71941       0.16335
                        -----------------------------------------
Magnitude (a.u.)       :      0.79437
Magnitude (Debye)      :      2.01913

Rotational constants in cm-1:     0.016421     0.008171     0.006515
Rotational constants in MHz :   492.295710   244.974171   195.321869

                             ****ORCA TERMINATED NORMALLY****
TOTAL RUN TIME: 0 days 0 hours 0 minutes 20 seconds 7 msec
