                         Program Version 4.2.1 -  RELEASE  -
|  1> ! wB97X-D3 SP def2-SVP
|  2> %pal
|  3> nprocs 24
|  4> end
|  5>
|  6> * xyz 0 1
|  7> S 	 -130.806 	 2.30588 	 3.3997
|  8> C 	 -129.999 	 0.846362 	 2.8027
|  9> C 	 -128.866 	 0.514429 	 3.53253
| 10> C 	 -128.711 	 1.4719 	 4.61456
| 11> C 	 -129.605 	 2.51561 	 4.62877
| 12> H 	 -127.865 	 1.54434 	 5.20502
| 13> C 	 -127.902 	 -0.596398 	 3.27669
| 14> H 	 -127.038 	 -0.479058 	 3.90728
| 15> H 	 -127.434 	 -0.32932 	 2.32668
| 16> C 	 -128.431 	 -2.02239 	 3.35277
| 17> H 	 -128.73 	 -2.1154 	 4.43816
| 18> H 	 -129.379 	 -2.06718 	 2.79196
| 19> C 	 -127.462 	 -3.14463 	 3.11197
| 20> H 	 -127.826 	 -4.18694 	 3.09488
| 21> H 	 -127.021 	 -3.01738 	 2.07084
| 22> H 	 -126.593 	 -3.0559 	 3.7658
| 23> S 	 -130.373 	 5.15143 	 4.89965
| 24> C 	 -129.636 	 6.02105 	 6.2174
| 25> C 	 -129.243 	 5.23465 	 7.19694
| 26> C 	 -129.257 	 3.84867 	 6.76335
| 27> C 	 -129.619 	 3.66152 	 5.47437
| 28> H 	 -128.857 	 5.55162 	 8.20249
| 29> C 	 -128.803 	 2.79756 	 7.71116
| 30> H 	 -127.892 	 3.12965 	 8.07992
| 31> H 	 -128.651 	 1.83598 	 7.29119
| 32> C 	 -129.858 	 2.62163 	 8.81733
| 33> H 	 -130.821 	 2.73662 	 8.27738
| 34> H 	 -129.822 	 3.31776 	 9.6362
| 35> C 	 -129.929 	 1.21835 	 9.41235
| 36> H 	 -129.027 	 1.00165 	 9.92872
| 37> H 	 -130.143 	 0.440284 	 8.71746
| 38> H 	 -130.809 	 1.10698 	 10.1238
| 39> H 	 -130.23 	 0.244728 	 1.85894
| 40> H 	 -129.796 	 7.09246 	 6.41338
| 41> *
| 42>
| 43>                          ****END OF INPUT****

CARTESIAN COORDINATES (ANGSTROEM)
---------------------------------
  S    -130.806000    2.305880    3.399700
  C    -129.999000    0.846362    2.802700
  C    -128.866000    0.514429    3.532530
  C    -128.711000    1.471900    4.614560
  C    -129.605000    2.515610    4.628770
  H    -127.865000    1.544340    5.205020
  C    -127.902000   -0.596398    3.276690
  H    -127.038000   -0.479058    3.907280
  H    -127.434000   -0.329320    2.326680
  C    -128.431000   -2.022390    3.352770
  H    -128.730000   -2.115400    4.438160
  H    -129.379000   -2.067180    2.791960
  C    -127.462000   -3.144630    3.111970
  H    -127.826000   -4.186940    3.094880
  H    -127.021000   -3.017380    2.070840
  H    -126.593000   -3.055900    3.765800
  S    -130.373000    5.151430    4.899650
  C    -129.636000    6.021050    6.217400
  C    -129.243000    5.234650    7.196940
  C    -129.257000    3.848670    6.763350
  C    -129.619000    3.661520    5.474370
  H    -128.857000    5.551620    8.202490
  C    -128.803000    2.797560    7.711160
  H    -127.892000    3.129650    8.079920
  H    -128.651000    1.835980    7.291190
  C    -129.858000    2.621630    8.817330
  H    -130.821000    2.736620    8.277380
  H    -129.822000    3.317760    9.636200
  C    -129.929000    1.218350    9.412350
  H    -129.027000    1.001650    9.928720
  H    -130.143000    0.440284    8.717460
  H    -130.809000    1.106980   10.123800
  H    -130.230000    0.244728    1.858940
  H    -129.796000    7.092460    6.413380

 Total Charge           Charge          ....    0
 Multiplicity           Mult            ....    1
 Number of Electrons    NEL             ....  134
 Basis Dimension        Dim             ....  322

ORBITAL ENERGIES
----------------

  NO   OCC          E(Eh)            E(eV)
   0   2.0000     -88.967761     -2420.9358
   1   2.0000     -88.958717     -2420.6898
   2   2.0000     -10.326597      -281.0010
   3   2.0000     -10.321162      -280.8531
   4   2.0000     -10.319582      -280.8101
   5   2.0000     -10.313492      -280.6444
   6   2.0000     -10.303865      -280.3824
   7   2.0000     -10.297821      -280.2180
   8   2.0000     -10.293986      -280.1136
   9   2.0000     -10.292904      -280.0842
  10   2.0000     -10.292042      -280.0607
  11   2.0000     -10.287599      -279.9398
  12   2.0000     -10.286858      -279.9196
  13   2.0000     -10.283658      -279.8326
  14   2.0000     -10.279090      -279.7083
  15   2.0000     -10.274124      -279.5731
  16   2.0000      -8.082419      -219.9338
  17   2.0000      -8.074249      -219.7115
  18   2.0000      -6.041047      -164.3853
  19   2.0000      -6.036999      -164.2751
  20   2.0000      -6.033034      -164.1672
  21   2.0000      -6.033005      -164.1664
  22   2.0000      -6.029046      -164.0587
  23   2.0000      -6.024257      -163.9284
  24   2.0000      -1.014520       -27.6065
  25   2.0000      -0.987591       -26.8737
  26   2.0000      -0.918695       -24.9990
  27   2.0000      -0.914798       -24.8929
  28   2.0000      -0.876626       -23.8542
  29   2.0000      -0.854691       -23.2573
  30   2.0000      -0.845623       -23.0106
  31   2.0000      -0.819295       -22.2942
  32   2.0000      -0.786011       -21.3885
  33   2.0000      -0.774694       -21.0805
  34   2.0000      -0.706495       -19.2247
  35   2.0000      -0.704601       -19.1732
  36   2.0000      -0.696868       -18.9628
  37   2.0000      -0.664345       -18.0777
  38   2.0000      -0.635055       -17.2807
  39   2.0000      -0.620038       -16.8721
  40   2.0000      -0.600631       -16.3440
  41   2.0000      -0.576233       -15.6801
  42   2.0000      -0.574524       -15.6336
  43   2.0000      -0.556673       -15.1478
  44   2.0000      -0.532732       -14.4964
  45   2.0000      -0.524216       -14.2646
  46   2.0000      -0.522602       -14.2207
  47   2.0000      -0.507934       -13.8216
  48   2.0000      -0.505891       -13.7660
  49   2.0000      -0.502557       -13.6753
  50   2.0000      -0.492880       -13.4119
  51   2.0000      -0.484832       -13.1930
  52   2.0000      -0.476035       -12.9536
  53   2.0000      -0.463337       -12.6081
  54   2.0000      -0.458511       -12.4767
  55   2.0000      -0.455103       -12.3840
  56   2.0000      -0.448983       -12.2174
  57   2.0000      -0.433797       -11.8042
  58   2.0000      -0.432862       -11.7788
  59   2.0000      -0.429166       -11.6782
  60   2.0000      -0.420922       -11.4539
  61   2.0000      -0.410229       -11.1629
  62   2.0000      -0.406918       -11.0728
  63   2.0000      -0.362533        -9.8650
  64   2.0000      -0.333491        -9.0747
  65   2.0000      -0.323837        -8.8120
  66   2.0000      -0.286260        -7.7895
  67   0.0000       0.023598         0.6421
  68   0.0000       0.075464         2.0535
  69   0.0000       0.101269         2.7557
  70   0.0000       0.119787         3.2596
  71   0.0000       0.136111         3.7038

MULLIKEN ATOMIC CHARGES
-----------------------
   0 S :    0.106816
   1 C :   -0.143358
   2 C :   -0.101198
   3 C :    0.012764
   4 C :   -0.120052
   5 H :   -0.009466
   6 C :    0.086488
   7 H :    0.001049
   8 H :    0.029471
   9 C :   -0.078629
  10 H :    0.034168
  11 H :    0.032449
  12 C :   -0.049061
  13 H :    0.050181
  14 H :    0.024458
  15 H :    0.031355
  16 S :    0.077175
  17 C :   -0.064000
  18 C :   -0.031281
  19 C :   -0.110346
  20 C :   -0.115011
  21 H :    0.036999
  22 C :    0.157084
  23 H :    0.006264
  24 H :   -0.003107
  25 C :   -0.094931
  26 H :    0.040852
  27 H :    0.029859
  28 C :   -0.058746
  29 H :    0.025232
  30 H :    0.029303
  31 H :    0.035739
  32 H :    0.069324
  33 H :    0.062156
Sum of atomic charges:   -0.0000000

LOEWDIN ATOMIC CHARGES
----------------------
   0 S :    0.401860
   1 C :   -0.206897
   2 C :   -0.056060
   3 C :   -0.064010
   4 C :   -0.187374
   5 H :    0.015717
   6 C :   -0.038022
   7 H :    0.026876
   8 H :    0.034528
   9 C :   -0.047502
  10 H :    0.032849
  11 H :    0.024963
  12 C :   -0.074219
  13 H :    0.033464
  14 H :    0.028526
  15 H :    0.026237
  16 S :    0.373380
  17 C :   -0.175166
  18 C :   -0.073217
  19 C :   -0.049559
  20 C :   -0.191318
  21 H :    0.042602
  22 C :   -0.023335
  23 H :    0.020888
  24 H :    0.024303
  25 C :   -0.036559
  26 H :    0.032457
  27 H :    0.019661
  28 C :   -0.066394
  29 H :    0.016901
  30 H :    0.020393
  31 H :    0.034436
  32 H :    0.043659
  33 H :    0.035931

  Mayer bond orders larger than 0.100000
B(  0-S ,  1-C ) :   1.1241 B(  0-S ,  4-C ) :   1.1318 B(  1-C ,  2-C ) :   1.6365
B(  1-C , 32-H ) :   0.9546 B(  2-C ,  3-C ) :   1.2337 B(  2-C ,  6-C ) :   1.0245
B(  3-C ,  4-C ) :   1.5905 B(  3-C ,  5-H ) :   0.9938 B(  4-C , 20-C ) :   1.0956
B(  6-C ,  7-H ) :   0.9334 B(  6-C ,  8-H ) :   0.9250 B(  6-C ,  9-C ) :   1.0528
B(  9-C , 10-H ) :   0.9519 B(  9-C , 11-H ) :   0.9589 B(  9-C , 12-C ) :   1.0813
B( 12-C , 13-H ) :   0.9742 B( 12-C , 14-H ) :   0.9716 B( 12-C , 15-H ) :   0.9707
B( 16-S , 17-C ) :   1.1304 B( 16-S , 20-C ) :   1.0828 B( 17-C , 18-C ) :   1.6699
B( 17-C , 33-H ) :   0.9577 B( 18-C , 19-C ) :   1.1790 B( 18-C , 21-H ) :   0.9856
B( 19-C , 20-C ) :   1.6458 B( 19-C , 22-C ) :   1.0687 B( 22-C , 23-H ) :   0.9175
B( 22-C , 24-H ) :   0.9316 B( 22-C , 25-C ) :   1.0420 B( 25-C , 26-H ) :   0.9607
B( 25-C , 27-H ) :   0.9539 B( 25-C , 28-C ) :   1.1015 B( 28-C , 29-H ) :   0.9736
B( 28-C , 30-H ) :   0.9729 B( 28-C , 31-H ) :   0.9738

Dispersion correction           -0.013609923
FINAL SINGLE POINT ENERGY     -1339.864240130054

DIPOLE MOMENT
-------------
                                X             Y             Z
Electronic contribution:    -11.04843      24.97940     -11.73174
Nuclear contribution   :     11.54694     -25.35494      12.17356
                        -----------------------------------------
Total Dipole Moment    :      0.49852      -0.37555       0.44182
                        -----------------------------------------
Magnitude (a.u.)       :      0.76469
Magnitude (Debye)      :      1.94369

Rotational constants in cm-1:     0.019568     0.007992     0.006225
Rotational constants in MHz :   586.648791   239.598300   186.607367

                             ****ORCA TERMINATED NORMALLY****
TOTAL RUN TIME: 0 days 0 hours 0 minutes 21 seconds 441 msec
