                         Program Version 4.2.1 -  RELEASE  -
|  1> ! wB97X-D3 SP def2-SVP
|  2> %pal
|  3> nprocs 24
|  4> end
|  5>
|  6> * xyz 0 1
|  7> S 	 -116.27 	 17.608 	 -114.059
|  8> C 	 -117.985 	 17.7813 	 -114.282
|  9> C 	 -118.59 	 16.6451 	 -114.851
| 10> C 	 -117.56 	 15.6857 	 -115.215
| 11> C 	 -116.307 	 16.0282 	 -114.779
| 12> H 	 -117.67 	 14.7236 	 -115.713
| 13> C 	 -120.089 	 16.4606 	 -115.082
| 14> H 	 -120.591 	 16.8317 	 -114.208
| 15> H 	 -120.479 	 15.4209 	 -115.138
| 16> C 	 -120.641 	 17.3122 	 -116.277
| 17> H 	 -121.624 	 17.0508 	 -116.387
| 18> H 	 -120.555 	 18.3344 	 -115.88
| 19> C 	 -119.923 	 16.9484 	 -117.56
| 20> H 	 -119.814 	 15.8954 	 -117.779
| 21> H 	 -120.391 	 17.4045 	 -118.418
| 22> H 	 -118.906 	 17.3155 	 -117.543
| 23> S 	 -114.083 	 15.1548 	 -113.507
| 24> C 	 -112.898 	 14.2492 	 -114.427
| 25> C 	 -113.237 	 14.1271 	 -115.745
| 26> C 	 -114.54 	 14.5795 	 -116.083
| 27> C 	 -115.027 	 15.2812 	 -114.996
| 28> H 	 -112.57 	 13.4472 	 -116.41
| 29> C 	 -115.03 	 14.5897 	 -117.565
| 30> H 	 -115.708 	 15.4375 	 -117.728
| 31> H 	 -115.735 	 13.6989 	 -117.794
| 32> C 	 -113.936 	 14.7714 	 -118.662
| 33> H 	 -113.124 	 14.1008 	 -118.712
| 34> H 	 -113.471 	 15.7702 	 -118.408
| 35> C 	 -114.488 	 14.9042 	 -120.102
| 36> H 	 -115.24 	 15.6981 	 -120.206
| 37> H 	 -115.015 	 13.9566 	 -120.516
| 38> H 	 -113.732 	 14.9872 	 -120.819
| 39> H 	 -118.62 	 18.6305 	 -114.031
| 40> H 	 -112.017 	 13.8045 	 -114.011
| 41> *
| 42>
| 43>                          ****END OF INPUT****

CARTESIAN COORDINATES (ANGSTROEM)
---------------------------------
  S    -116.270000   17.608000  -114.059000
  C    -117.985000   17.781300  -114.282000
  C    -118.590000   16.645100  -114.851000
  C    -117.560000   15.685700  -115.215000
  C    -116.307000   16.028200  -114.779000
  H    -117.670000   14.723600  -115.713000
  C    -120.089000   16.460600  -115.082000
  H    -120.591000   16.831700  -114.208000
  H    -120.479000   15.420900  -115.138000
  C    -120.641000   17.312200  -116.277000
  H    -121.624000   17.050800  -116.387000
  H    -120.555000   18.334400  -115.880000
  C    -119.923000   16.948400  -117.560000
  H    -119.814000   15.895400  -117.779000
  H    -120.391000   17.404500  -118.418000
  H    -118.906000   17.315500  -117.543000
  S    -114.083000   15.154800  -113.507000
  C    -112.898000   14.249200  -114.427000
  C    -113.237000   14.127100  -115.745000
  C    -114.540000   14.579500  -116.083000
  C    -115.027000   15.281200  -114.996000
  H    -112.570000   13.447200  -116.410000
  C    -115.030000   14.589700  -117.565000
  H    -115.708000   15.437500  -117.728000
  H    -115.735000   13.698900  -117.794000
  C    -113.936000   14.771400  -118.662000
  H    -113.124000   14.100800  -118.712000
  H    -113.471000   15.770200  -118.408000
  C    -114.488000   14.904200  -120.102000
  H    -115.240000   15.698100  -120.206000
  H    -115.015000   13.956600  -120.516000
  H    -113.732000   14.987200  -120.819000
  H    -118.620000   18.630500  -114.031000
  H    -112.017000   13.804500  -114.011000

 Total Charge           Charge          ....    0
 Multiplicity           Mult            ....    1
 Number of Electrons    NEL             ....  134
 Basis Dimension        Dim             ....  322

ORBITAL ENERGIES
----------------

  NO   OCC          E(Eh)            E(eV)
   0   2.0000     -88.968619     -2420.9592
   1   2.0000     -88.968005     -2420.9425
   2   2.0000     -10.331859      -281.1442
   3   2.0000     -10.325836      -280.9803
   4   2.0000     -10.314623      -280.6751
   5   2.0000     -10.312969      -280.6302
   6   2.0000     -10.308906      -280.5196
   7   2.0000     -10.308863      -280.5184
   8   2.0000     -10.306960      -280.4666
   9   2.0000     -10.297823      -280.2180
  10   2.0000     -10.294023      -280.1146
  11   2.0000     -10.293111      -280.0898
  12   2.0000     -10.292994      -280.0866
  13   2.0000     -10.284037      -279.8429
  14   2.0000     -10.282280      -279.7951
  15   2.0000     -10.270415      -279.4722
  16   2.0000      -8.083476      -219.9626
  17   2.0000      -8.082584      -219.9383
  18   2.0000      -6.041996      -164.4111
  19   2.0000      -6.041017      -164.3844
  20   2.0000      -6.038003      -164.3024
  21   2.0000      -6.037268      -164.2824
  22   2.0000      -6.034177      -164.1983
  23   2.0000      -6.033270      -164.1736
  24   2.0000      -1.006373       -27.3848
  25   2.0000      -0.983542       -26.7635
  26   2.0000      -0.911446       -24.8017
  27   2.0000      -0.902222       -24.5507
  28   2.0000      -0.862785       -23.4776
  29   2.0000      -0.853236       -23.2177
  30   2.0000      -0.843307       -22.9476
  31   2.0000      -0.812097       -22.0983
  32   2.0000      -0.783760       -21.3272
  33   2.0000      -0.773530       -21.0488
  34   2.0000      -0.705932       -19.2094
  35   2.0000      -0.701913       -19.1000
  36   2.0000      -0.692607       -18.8468
  37   2.0000      -0.652821       -17.7642
  38   2.0000      -0.636774       -17.3275
  39   2.0000      -0.612507       -16.6672
  40   2.0000      -0.599073       -16.3016
  41   2.0000      -0.576887       -15.6979
  42   2.0000      -0.559168       -15.2157
  43   2.0000      -0.544152       -14.8071
  44   2.0000      -0.541366       -14.7313
  45   2.0000      -0.525176       -14.2908
  46   2.0000      -0.506448       -13.7812
  47   2.0000      -0.505566       -13.7571
  48   2.0000      -0.501718       -13.6524
  49   2.0000      -0.493075       -13.4173
  50   2.0000      -0.484512       -13.1842
  51   2.0000      -0.476017       -12.9531
  52   2.0000      -0.470305       -12.7977
  53   2.0000      -0.465957       -12.6793
  54   2.0000      -0.460351       -12.5268
  55   2.0000      -0.451845       -12.2953
  56   2.0000      -0.444323       -12.0906
  57   2.0000      -0.434436       -11.8216
  58   2.0000      -0.433469       -11.7953
  59   2.0000      -0.427964       -11.6455
  60   2.0000      -0.424999       -11.5648
  61   2.0000      -0.419691       -11.4204
  62   2.0000      -0.412738       -11.2312
  63   2.0000      -0.347499        -9.4559
  64   2.0000      -0.336547        -9.1579
  65   2.0000      -0.329457        -8.9650
  66   2.0000      -0.290119        -7.8945
  67   0.0000       0.034342         0.9345
  68   0.0000       0.068630         1.8675
  69   0.0000       0.107078         2.9137
  70   0.0000       0.123347         3.3564
  71   0.0000       0.128943         3.5087

MULLIKEN ATOMIC CHARGES
-----------------------
   0 S :    0.124576
   1 C :   -0.117320
   2 C :   -0.096391
   3 C :    0.015765
   4 C :   -0.140013
   5 H :    0.012344
   6 C :    0.031381
   7 H :    0.020200
   8 H :    0.033486
   9 C :   -0.033015
  10 H :    0.011501
  11 H :    0.032897
  12 C :   -0.040579
  13 H :    0.024278
  14 H :    0.027758
  15 H :    0.035935
  16 S :    0.107078
  17 C :   -0.075932
  18 C :   -0.068740
  19 C :   -0.000020
  20 C :   -0.165049
  21 H :    0.048254
  22 C :    0.018894
  23 H :    0.033356
  24 H :    0.047600
  25 C :   -0.080279
  26 H :    0.025766
  27 H :    0.044988
  28 C :   -0.059979
  29 H :    0.037082
  30 H :    0.029145
  31 H :    0.023579
  32 H :    0.046130
  33 H :    0.045328
Sum of atomic charges:    0.0000000

LOEWDIN ATOMIC CHARGES
----------------------
   0 S :    0.417610
   1 C :   -0.209650
   2 C :   -0.055507
   3 C :   -0.068530
   4 C :   -0.204155
   5 H :    0.032810
   6 C :   -0.035226
   7 H :    0.027577
   8 H :    0.032322
   9 C :   -0.027416
  10 H :    0.011537
  11 H :    0.026928
  12 C :   -0.065692
  13 H :    0.024892
  14 H :    0.023785
  15 H :    0.026908
  16 S :    0.397015
  17 C :   -0.184838
  18 C :   -0.079290
  19 C :   -0.063662
  20 C :   -0.179606
  21 H :    0.045725
  22 C :   -0.035660
  23 H :    0.033747
  24 H :    0.037846
  25 C :   -0.041823
  26 H :    0.014369
  27 H :    0.036728
  28 C :   -0.068016
  29 H :    0.025110
  30 H :    0.031764
  31 H :    0.018605
  32 H :    0.028975
  33 H :    0.024817

  Mayer bond orders larger than 0.100000
B(  0-S ,  1-C ) :   1.1409 B(  0-S ,  4-C ) :   1.1526 B(  1-C ,  2-C ) :   1.6172
B(  1-C , 32-H ) :   0.9630 B(  2-C ,  3-C ) :   1.2181 B(  2-C ,  6-C ) :   1.0171
B(  3-C ,  4-C ) :   1.6054 B(  3-C ,  5-H ) :   0.9973 B(  4-C , 20-C ) :   0.9886
B(  6-C ,  7-H ) :   0.9409 B(  6-C ,  8-H ) :   0.9507 B(  6-C ,  9-C ) :   1.0750
B(  9-C , 10-H ) :   0.9549 B(  9-C , 11-H ) :   0.9598 B(  9-C , 12-C ) :   1.0767
B( 12-C , 13-H ) :   0.9741 B( 12-C , 14-H ) :   0.9736 B( 12-C , 15-H ) :   0.9701
B( 16-S , 17-C ) :   1.1309 B( 16-S , 20-C ) :   1.1534 B( 17-C , 18-C ) :   1.6532
B( 17-C , 33-H ) :   0.9668 B( 18-C , 19-C ) :   1.2243 B( 18-C , 21-H ) :   0.9644
B( 19-C , 20-C ) :   1.6258 B( 19-C , 22-C ) :   1.0215 B( 22-C , 23-H ) :   0.9469
B( 22-C , 24-H ) :   0.9345 B( 22-C , 25-C ) :   1.0571 B( 25-C , 26-H ) :   0.9547
B( 25-C , 27-H ) :   0.9542 B( 25-C , 28-C ) :   1.0861 B( 28-C , 29-H ) :   0.9763
B( 28-C , 30-H ) :   0.9723 B( 28-C , 31-H ) :   0.9734

Dispersion correction           -0.014208489
FINAL SINGLE POINT ENERGY     -1339.868478194882

DIPOLE MOMENT
-------------
                                X             Y             Z
Electronic contribution:     13.29421       2.49357      26.71364
Nuclear contribution   :    -13.57593      -2.70344     -27.25857
                        -----------------------------------------
Total Dipole Moment    :     -0.28172      -0.20987      -0.54494
                        -----------------------------------------
Magnitude (a.u.)       :      0.64836
Magnitude (Debye)      :      1.64800

Rotational constants in cm-1:     0.016766     0.009310     0.006533
Rotational constants in MHz :   502.623885   279.114951   195.846867

                             ****ORCA TERMINATED NORMALLY****
TOTAL RUN TIME: 0 days 0 hours 0 minutes 21 seconds 434 msec
