                         Program Version 4.2.1 -  RELEASE  -
|  1> ! wB97X-D3 SP def2-SVP
|  2> %pal
|  3> nprocs 24
|  4> end
|  5>
|  6> * xyz 0 1
|  7> S 	 -87.0235 	 -1.83924 	 -64.6779
|  8> C 	 -87.372 	 -0.180132 	 -64.9858
|  9> C 	 -87.4539 	 0.544938 	 -63.8571
| 10> C 	 -87.0988 	 -0.249178 	 -62.6703
| 11> C 	 -86.6928 	 -1.52343 	 -62.9907
| 12> H 	 -87.1267 	 0.0348905 	 -61.64
| 13> C 	 -87.8623 	 2.01629 	 -63.837
| 14> H 	 -88.7589 	 2.00435 	 -63.2366
| 15> H 	 -88.1896 	 2.28062 	 -64.7985
| 16> C 	 -86.8082 	 3.03837 	 -63.3552
| 17> H 	 -87.2369 	 4.06363 	 -63.3936
| 18> H 	 -86.5206 	 2.85662 	 -62.3029
| 19> C 	 -85.5892 	 3.14022 	 -64.295
| 20> H 	 -85.8865 	 3.4097 	 -65.3567
| 21> H 	 -84.8865 	 3.87265 	 -63.9357
| 22> H 	 -85.2152 	 2.14616 	 -64.3984
| 23> S 	 -84.6378 	 -3.34862 	 -62.4869
| 24> C 	 -84.5281 	 -4.009 	 -60.883
| 25> C 	 -85.6024 	 -3.79195 	 -60.1249
| 26> C 	 -86.5987 	 -3.0508 	 -60.8256
| 27> C 	 -86.1792 	 -2.59104 	 -62.1115
| 28> H 	 -85.6714 	 -4.15203 	 -59.1122
| 29> C 	 -87.8962 	 -2.53086 	 -60.2097
| 30> H 	 -88.5391 	 -3.40985 	 -59.8014
| 31> H 	 -88.502 	 -2.11767 	 -61.008
| 32> C 	 -87.7654 	 -1.46492 	 -59.1082
| 33> H 	 -88.6941 	 -0.9459 	 -59.0952
| 34> H 	 -87.0674 	 -0.655793 	 -59.275
| 35> C 	 -87.642 	 -1.99195 	 -57.6803
| 36> H 	 -88.3319 	 -2.7776 	 -57.4374
| 37> H 	 -87.7664 	 -1.15488 	 -57.0003
| 38> H 	 -86.6467 	 -2.38385 	 -57.5557
| 39> H 	 -87.5442 	 0.263306 	 -65.9671
| 40> H 	 -83.6433 	 -4.53394 	 -60.5602
| 41> *
| 42>
| 43>                          ****END OF INPUT****

CARTESIAN COORDINATES (ANGSTROEM)
---------------------------------
  S    -87.023500   -1.839240  -64.677900
  C    -87.372000   -0.180132  -64.985800
  C    -87.453900    0.544938  -63.857100
  C    -87.098800   -0.249178  -62.670300
  C    -86.692800   -1.523430  -62.990700
  H    -87.126700    0.034890  -61.640000
  C    -87.862300    2.016290  -63.837000
  H    -88.758900    2.004350  -63.236600
  H    -88.189600    2.280620  -64.798500
  C    -86.808200    3.038370  -63.355200
  H    -87.236900    4.063630  -63.393600
  H    -86.520600    2.856620  -62.302900
  C    -85.589200    3.140220  -64.295000
  H    -85.886500    3.409700  -65.356700
  H    -84.886500    3.872650  -63.935700
  H    -85.215200    2.146160  -64.398400
  S    -84.637800   -3.348620  -62.486900
  C    -84.528100   -4.009000  -60.883000
  C    -85.602400   -3.791950  -60.124900
  C    -86.598700   -3.050800  -60.825600
  C    -86.179200   -2.591040  -62.111500
  H    -85.671400   -4.152030  -59.112200
  C    -87.896200   -2.530860  -60.209700
  H    -88.539100   -3.409850  -59.801400
  H    -88.502000   -2.117670  -61.008000
  C    -87.765400   -1.464920  -59.108200
  H    -88.694100   -0.945900  -59.095200
  H    -87.067400   -0.655793  -59.275000
  C    -87.642000   -1.991950  -57.680300
  H    -88.331900   -2.777600  -57.437400
  H    -87.766400   -1.154880  -57.000300
  H    -86.646700   -2.383850  -57.555700
  H    -87.544200    0.263306  -65.967100
  H    -83.643300   -4.533940  -60.560200

 Total Charge           Charge          ....    0
 Multiplicity           Mult            ....    1
 Number of Electrons    NEL             ....  134
 Basis Dimension        Dim             ....  322

ORBITAL ENERGIES
----------------

  NO   OCC          E(Eh)            E(eV)
   0   2.0000     -88.964269     -2420.8408
   1   2.0000     -88.960670     -2420.7429
   2   2.0000     -10.331700      -281.1399
   3   2.0000     -10.330503      -281.1073
   4   2.0000     -10.313688      -280.6497
   5   2.0000     -10.308325      -280.5038
   6   2.0000     -10.308275      -280.5024
   7   2.0000     -10.300741      -280.2974
   8   2.0000     -10.296939      -280.1940
   9   2.0000     -10.296757      -280.1890
  10   2.0000     -10.291189      -280.0375
  11   2.0000     -10.291143      -280.0362
  12   2.0000     -10.289377      -279.9882
  13   2.0000     -10.282842      -279.8104
  14   2.0000     -10.275946      -279.6227
  15   2.0000     -10.274363      -279.5796
  16   2.0000      -8.079382      -219.8512
  17   2.0000      -8.076411      -219.7703
  18   2.0000      -6.037798      -164.2968
  19   2.0000      -6.034954      -164.2195
  20   2.0000      -6.033842      -164.1892
  21   2.0000      -6.030908      -164.1094
  22   2.0000      -6.030205      -164.0902
  23   2.0000      -6.026936      -164.0013
  24   2.0000      -1.007728       -27.4217
  25   2.0000      -0.988645       -26.9024
  26   2.0000      -0.909909       -24.7599
  27   2.0000      -0.908215       -24.7138
  28   2.0000      -0.872144       -23.7322
  29   2.0000      -0.850827       -23.1522
  30   2.0000      -0.842454       -22.9243
  31   2.0000      -0.821831       -22.3631
  32   2.0000      -0.784836       -21.3565
  33   2.0000      -0.772355       -21.0168
  34   2.0000      -0.710474       -19.3330
  35   2.0000      -0.697185       -18.9714
  36   2.0000      -0.689205       -18.7542
  37   2.0000      -0.658780       -17.9263
  38   2.0000      -0.642805       -17.4916
  39   2.0000      -0.619883       -16.8679
  40   2.0000      -0.599838       -16.3224
  41   2.0000      -0.569738       -15.5034
  42   2.0000      -0.556175       -15.1343
  43   2.0000      -0.549336       -14.9482
  44   2.0000      -0.545016       -14.8306
  45   2.0000      -0.542107       -14.7515
  46   2.0000      -0.518116       -14.0987
  47   2.0000      -0.508280       -13.8310
  48   2.0000      -0.502648       -13.6778
  49   2.0000      -0.500150       -13.6098
  50   2.0000      -0.488713       -13.2986
  51   2.0000      -0.479235       -13.0406
  52   2.0000      -0.473761       -12.8917
  53   2.0000      -0.469329       -12.7711
  54   2.0000      -0.459777       -12.5112
  55   2.0000      -0.448968       -12.2170
  56   2.0000      -0.446089       -12.1387
  57   2.0000      -0.443159       -12.0590
  58   2.0000      -0.437491       -11.9047
  59   2.0000      -0.427980       -11.6459
  60   2.0000      -0.417455       -11.3595
  61   2.0000      -0.411575       -11.1995
  62   2.0000      -0.406836       -11.0706
  63   2.0000      -0.350118        -9.5272
  64   2.0000      -0.330184        -8.9848
  65   2.0000      -0.326374        -8.8811
  66   2.0000      -0.297509        -8.0956
  67   0.0000       0.032110         0.8738
  68   0.0000       0.072193         1.9645
  69   0.0000       0.115324         3.1381
  70   0.0000       0.124076         3.3763
  71   0.0000       0.133911         3.6439

MULLIKEN ATOMIC CHARGES
-----------------------
   0 S :    0.103940
   1 C :   -0.115318
   2 C :   -0.121068
   3 C :    0.042960
   4 C :   -0.145547
   5 H :   -0.009365
   6 C :    0.121050
   7 H :    0.030935
   8 H :   -0.009226
   9 C :   -0.087300
  10 H :    0.032237
  11 H :    0.037372
  12 C :   -0.053875
  13 H :    0.024803
  14 H :    0.043075
  15 H :    0.036664
  16 S :    0.109464
  17 C :   -0.084902
  18 C :   -0.017844
  19 C :   -0.020674
  20 C :   -0.161242
  21 H :    0.020462
  22 C :    0.019563
  23 H :    0.041401
  24 H :    0.031248
  25 C :   -0.071472
  26 H :    0.014395
  27 H :    0.034638
  28 C :   -0.024647
  29 H :    0.025619
  30 H :    0.030810
  31 H :    0.021263
  32 H :    0.046711
  33 H :    0.053870
Sum of atomic charges:    0.0000000

LOEWDIN ATOMIC CHARGES
----------------------
   0 S :    0.402980
   1 C :   -0.204301
   2 C :   -0.065072
   3 C :   -0.059257
   4 C :   -0.188578
   5 H :    0.025791
   6 C :   -0.024487
   7 H :    0.034396
   8 H :    0.020114
   9 C :   -0.042728
  10 H :    0.027024
  11 H :    0.024310
  12 C :   -0.065106
  13 H :    0.028518
  14 H :    0.025692
  15 H :    0.021692
  16 S :    0.407834
  17 C :   -0.174987
  18 C :   -0.076487
  19 C :   -0.047518
  20 C :   -0.206656
  21 H :    0.034839
  22 C :   -0.039134
  23 H :    0.041690
  24 H :    0.029928
  25 C :   -0.044399
  26 H :    0.022148
  27 H :    0.023012
  28 C :   -0.058569
  29 H :    0.021098
  30 H :    0.027602
  31 H :    0.018590
  32 H :    0.031952
  33 H :    0.028067

  Mayer bond orders larger than 0.100000
B(  0-S ,  1-C ) :   1.1219 B(  0-S ,  4-C ) :   1.1510 B(  1-C ,  2-C ) :   1.6547
B(  1-C , 32-H ) :   0.9636 B(  2-C ,  3-C ) :   1.1868 B(  2-C ,  6-C ) :   1.0210
B(  3-C ,  4-C ) :   1.6039 B(  3-C ,  5-H ) :   1.0066 B(  4-C , 20-C ) :   1.0213
B(  6-C ,  7-H ) :   0.9327 B(  6-C ,  8-H ) :   0.9360 B(  6-C ,  9-C ) :   1.0702
B(  9-C , 10-H ) :   0.9565 B(  9-C , 11-H ) :   0.9585 B(  9-C , 12-C ) :   1.0677
B( 12-C , 13-H ) :   0.9729 B( 12-C , 14-H ) :   0.9748 B( 12-C , 15-H ) :   0.9786
B( 16-S , 17-C ) :   1.1638 B( 16-S , 20-C ) :   1.1411 B( 17-C , 18-C ) :   1.6116
B( 17-C , 33-H ) :   0.9653 B( 18-C , 19-C ) :   1.2340 B( 18-C , 21-H ) :   0.9964
B( 19-C , 20-C ) :   1.5738 B( 19-C , 22-C ) :   1.0583 B( 22-C , 23-H ) :   0.9351
B( 22-C , 24-H ) :   0.9353 B( 22-C , 25-C ) :   1.0604 B( 25-C , 26-H ) :   0.9536
B( 25-C , 27-H ) :   0.9516 B( 25-C , 28-C ) :   1.0859 B( 28-C , 29-H ) :   0.9748
B( 28-C , 30-H ) :   0.9704 B( 28-C , 31-H ) :   0.9749

Dispersion correction           -0.014708129
FINAL SINGLE POINT ENERGY     -1339.886058537556

DIPOLE MOMENT
-------------
                                X             Y             Z
Electronic contribution:      7.41697     -20.03288     -14.32142
Nuclear contribution   :     -7.65415      20.48944      14.86345
                        -----------------------------------------
Total Dipole Moment    :     -0.23718       0.45656       0.54203
                        -----------------------------------------
Magnitude (a.u.)       :      0.74733
Magnitude (Debye)      :      1.89956

Rotational constants in cm-1:     0.018374     0.008644     0.006990
Rotational constants in MHz :   550.848220   259.143998   209.540546

                             ****ORCA TERMINATED NORMALLY****
TOTAL RUN TIME: 0 days 0 hours 0 minutes 21 seconds 976 msec
