                         Program Version 4.2.1 -  RELEASE  -
|  1> ! wB97X-D3 SP def2-SVP
|  2> %pal
|  3> nprocs 24
|  4> end
|  5>
|  6> * xyz 0 1
|  7> S 	 36.5634 	 -24.6168 	 -113.5
|  8> C 	 37.9866 	 -24.9542 	 -112.506
|  9> C 	 38.6306 	 -23.7663 	 -112.355
| 10> C 	 37.9281 	 -22.6588 	 -112.902
| 11> C 	 36.7095 	 -22.9379 	 -113.438
| 12> H 	 38.1606 	 -21.5708 	 -112.909
| 13> C 	 39.9935 	 -23.6278 	 -111.824
| 14> H 	 40.6556 	 -23.3065 	 -112.616
| 15> H 	 40.3355 	 -24.6266 	 -111.661
| 16> C 	 40.2173 	 -22.6743 	 -110.584
| 17> H 	 41.2877 	 -22.7081 	 -110.381
| 18> H 	 39.9863 	 -21.6245 	 -110.746
| 19> C 	 39.5913 	 -23.2059 	 -109.337
| 20> H 	 39.7458 	 -24.2274 	 -109.111
| 21> H 	 39.9552 	 -22.6823 	 -108.475
| 22> H 	 38.5637 	 -23.0362 	 -109.169
| 23> S 	 34.7162 	 -22.4369 	 -115.239
| 24> C 	 33.6432 	 -21.0484 	 -114.96
| 25> C 	 34.0416 	 -20.3432 	 -113.868
| 26> C 	 35.0265 	 -21.0484 	 -113.088
| 27> C 	 35.5507 	 -22.1191 	 -113.791
| 28> H 	 33.4335 	 -19.4844 	 -113.52
| 29> C 	 35.3293 	 -20.6855 	 -111.68
| 30> H 	 35.7188 	 -21.5687 	 -111.231
| 31> H 	 34.4539 	 -20.5833 	 -111.146
| 32> C 	 36.3307 	 -19.6096 	 -111.54
| 33> H 	 37.2067 	 -19.92 	 -112.16
| 34> H 	 36.5816 	 -19.4522 	 -110.523
| 35> C 	 35.852 	 -18.2388 	 -112.04
| 36> H 	 35.4427 	 -18.2151 	 -112.98
| 37> H 	 36.5929 	 -17.5337 	 -112.116
| 38> H 	 35.0718 	 -17.8221 	 -111.36
| 39> H 	 38.3947 	 -25.8726 	 -112.174
| 40> H 	 32.8137 	 -20.6431 	 -115.487
| 41> *
| 42>
| 43>                          ****END OF INPUT****

CARTESIAN COORDINATES (ANGSTROEM)
---------------------------------
  S     36.563400  -24.616800  -113.500000
  C     37.986600  -24.954200  -112.506000
  C     38.630600  -23.766300  -112.355000
  C     37.928100  -22.658800  -112.902000
  C     36.709500  -22.937900  -113.438000
  H     38.160600  -21.570800  -112.909000
  C     39.993500  -23.627800  -111.824000
  H     40.655600  -23.306500  -112.616000
  H     40.335500  -24.626600  -111.661000
  C     40.217300  -22.674300  -110.584000
  H     41.287700  -22.708100  -110.381000
  H     39.986300  -21.624500  -110.746000
  C     39.591300  -23.205900  -109.337000
  H     39.745800  -24.227400  -109.111000
  H     39.955200  -22.682300  -108.475000
  H     38.563700  -23.036200  -109.169000
  S     34.716200  -22.436900  -115.239000
  C     33.643200  -21.048400  -114.960000
  C     34.041600  -20.343200  -113.868000
  C     35.026500  -21.048400  -113.088000
  C     35.550700  -22.119100  -113.791000
  H     33.433500  -19.484400  -113.520000
  C     35.329300  -20.685500  -111.680000
  H     35.718800  -21.568700  -111.231000
  H     34.453900  -20.583300  -111.146000
  C     36.330700  -19.609600  -111.540000
  H     37.206700  -19.920000  -112.160000
  H     36.581600  -19.452200  -110.523000
  C     35.852000  -18.238800  -112.040000
  H     35.442700  -18.215100  -112.980000
  H     36.592900  -17.533700  -112.116000
  H     35.071800  -17.822100  -111.360000
  H     38.394700  -25.872600  -112.174000
  H     32.813700  -20.643100  -115.487000

 Total Charge           Charge          ....    0
 Multiplicity           Mult            ....    1
 Number of Electrons    NEL             ....  134
 Basis Dimension        Dim             ....  322

ORBITAL ENERGIES
----------------

  NO   OCC          E(Eh)            E(eV)
   0   2.0000     -88.969047     -2420.9708
   1   2.0000     -88.957483     -2420.6562
   2   2.0000     -10.324500      -280.9439
   3   2.0000     -10.322750      -280.8963
   4   2.0000     -10.314985      -280.6850
   5   2.0000     -10.310981      -280.5761
   6   2.0000     -10.299000      -280.2500
   7   2.0000     -10.295260      -280.1483
   8   2.0000     -10.293240      -280.0933
   9   2.0000     -10.290277      -280.0127
  10   2.0000     -10.289173      -279.9826
  11   2.0000     -10.286794      -279.9179
  12   2.0000     -10.282817      -279.8097
  13   2.0000     -10.273673      -279.5609
  14   2.0000     -10.263251      -279.2773
  15   2.0000     -10.263050      -279.2718
  16   2.0000      -8.084009      -219.9771
  17   2.0000      -8.073632      -219.6947
  18   2.0000      -6.042615      -164.4279
  19   2.0000      -6.038517      -164.3164
  20   2.0000      -6.034612      -164.2101
  21   2.0000      -6.032147      -164.1431
  22   2.0000      -6.027853      -164.0262
  23   2.0000      -6.024340      -163.9306
  24   2.0000      -1.018237       -27.7076
  25   2.0000      -0.993166       -27.0254
  26   2.0000      -0.922271       -25.0963
  27   2.0000      -0.915808       -24.9204
  28   2.0000      -0.876958       -23.8632
  29   2.0000      -0.850015       -23.1301
  30   2.0000      -0.846454       -23.0332
  31   2.0000      -0.825400       -22.4603
  32   2.0000      -0.791330       -21.5332
  33   2.0000      -0.781065       -21.2539
  34   2.0000      -0.718583       -19.5536
  35   2.0000      -0.707490       -19.2518
  36   2.0000      -0.695588       -18.9279
  37   2.0000      -0.660463       -17.9721
  38   2.0000      -0.648309       -17.6414
  39   2.0000      -0.617514       -16.8034
  40   2.0000      -0.603331       -16.4175
  41   2.0000      -0.573659       -15.6101
  42   2.0000      -0.558960       -15.2101
  43   2.0000      -0.553480       -15.0610
  44   2.0000      -0.548267       -14.9191
  45   2.0000      -0.538325       -14.6486
  46   2.0000      -0.525551       -14.3010
  47   2.0000      -0.517418       -14.0797
  48   2.0000      -0.514280       -13.9943
  49   2.0000      -0.500889       -13.6299
  50   2.0000      -0.487975       -13.2785
  51   2.0000      -0.486475       -13.2377
  52   2.0000      -0.476849       -12.9757
  53   2.0000      -0.469705       -12.7813
  54   2.0000      -0.459549       -12.5050
  55   2.0000      -0.445010       -12.1093
  56   2.0000      -0.443080       -12.0568
  57   2.0000      -0.438942       -11.9442
  58   2.0000      -0.438418       -11.9300
  59   2.0000      -0.425083       -11.5671
  60   2.0000      -0.419871       -11.4253
  61   2.0000      -0.415180       -11.2976
  62   2.0000      -0.407313       -11.0835
  63   2.0000      -0.352471        -9.5912
  64   2.0000      -0.330936        -9.0052
  65   2.0000      -0.324165        -8.8210
  66   2.0000      -0.295757        -8.0480
  67   0.0000       0.031919         0.8686
  68   0.0000       0.077273         2.1027
  69   0.0000       0.103048         2.8041
  70   0.0000       0.121552         3.3076
  71   0.0000       0.136181         3.7057

MULLIKEN ATOMIC CHARGES
-----------------------
   0 S :    0.086506
   1 C :   -0.090667
   2 C :   -0.085120
   3 C :    0.000153
   4 C :   -0.136208
   5 H :    0.018504
   6 C :    0.078158
   7 H :    0.033775
   8 H :   -0.006265
   9 C :   -0.054887
  10 H :    0.027320
  11 H :    0.034721
  12 C :   -0.012261
  13 H :    0.013640
  14 H :    0.008941
  15 H :    0.016685
  16 S :    0.121428
  17 C :   -0.063898
  18 C :   -0.050515
  19 C :   -0.108441
  20 C :   -0.125907
  21 H :    0.037068
  22 C :    0.145217
  23 H :    0.011707
  24 H :    0.001575
  25 C :   -0.034644
  26 H :    0.019928
  27 H :    0.022335
  28 C :   -0.010603
  29 H :    0.004129
  30 H :    0.007033
  31 H :    0.021020
  32 H :    0.028874
  33 H :    0.040696
Sum of atomic charges:    0.0000000

LOEWDIN ATOMIC CHARGES
----------------------
   0 S :    0.414873
   1 C :   -0.183423
   2 C :   -0.068946
   3 C :   -0.076798
   4 C :   -0.206139
   5 H :    0.034096
   6 C :   -0.030157
   7 H :    0.035753
   8 H :    0.024214
   9 C :   -0.034563
  10 H :    0.028218
  11 H :    0.026100
  12 C :   -0.067073
  13 H :    0.020512
  14 H :    0.026066
  15 H :    0.020412
  16 S :    0.417122
  17 C :   -0.177391
  18 C :   -0.072192
  19 C :   -0.050822
  20 C :   -0.215105
  21 H :    0.038076
  22 C :   -0.029440
  23 H :    0.033383
  24 H :    0.022107
  25 C :   -0.026924
  26 H :    0.025558
  27 H :    0.021194
  28 C :   -0.058244
  29 H :    0.011561
  30 H :    0.015202
  31 H :    0.028465
  32 H :    0.025104
  33 H :    0.029198

  Mayer bond orders larger than 0.100000
B(  0-S ,  1-C ) :   1.1265 B(  0-S ,  4-C ) :   1.1649 B(  1-C ,  2-C ) :   1.6041
B(  1-C , 32-H ) :   0.9771 B(  2-C ,  3-C ) :   1.2098 B(  2-C ,  6-C ) :   1.0399
B(  3-C ,  4-C ) :   1.5921 B(  3-C ,  5-H ) :   0.9963 B(  4-C , 20-C ) :   0.9901
B(  6-C ,  7-H ) :   0.9346 B(  6-C ,  8-H ) :   0.9347 B(  6-C ,  9-C ) :   1.0717
B(  9-C , 10-H ) :   0.9543 B(  9-C , 11-H ) :   0.9566 B(  9-C , 12-C ) :   1.0813
B( 12-C , 13-H ) :   0.9736 B( 12-C , 14-H ) :   0.9662 B( 12-C , 15-H ) :   0.9709
B( 16-S , 17-C ) :   1.1293 B( 16-S , 20-C ) :   1.1429 B( 17-C , 18-C ) :   1.6581
B( 17-C , 33-H ) :   0.9657 B( 18-C , 19-C ) :   1.2283 B( 18-C , 21-H ) :   0.9707
B( 19-C , 20-C ) :   1.6129 B( 19-C , 22-C ) :   1.0420 B( 22-C , 23-H ) :   0.9125
B( 22-C , 24-H ) :   0.9285 B( 22-C , 25-C ) :   1.0820 B( 25-C , 26-H ) :   0.9435
B( 25-C , 27-H ) :   0.9505 B( 25-C , 28-C ) :   1.0890 B( 28-C , 29-H ) :   0.9667
B( 28-C , 30-H ) :   0.9682 B( 28-C , 31-H ) :   0.9727

Dispersion correction           -0.015280130
FINAL SINGLE POINT ENERGY     -1339.851417865211

DIPOLE MOMENT
-------------
                                X             Y             Z
Electronic contribution:    -13.93994     -15.02108     -21.72789
Nuclear contribution   :     14.19603      15.47595      22.28874
                        -----------------------------------------
Total Dipole Moment    :      0.25609       0.45486       0.56084
                        -----------------------------------------
Magnitude (a.u.)       :      0.76618
Magnitude (Debye)      :      1.94747

Rotational constants in cm-1:     0.019343     0.010072     0.007097
Rotational constants in MHz :   579.886971   301.955128   212.775593

                             ****ORCA TERMINATED NORMALLY****
TOTAL RUN TIME: 0 days 0 hours 0 minutes 22 seconds 865 msec
