                         Program Version 4.2.1 -  RELEASE  -
|  1> ! wB97X-D3 SP def2-SVP
|  2> %pal
|  3> nprocs 24
|  4> end
|  5>
|  6> * xyz 0 1
|  7> S 	 39.7363 	 -29.5836 	 -125.954
|  8> C 	 39.6183 	 -27.9472 	 -125.38
|  9> C 	 40.7815 	 -27.2441 	 -125.714
| 10> C 	 41.8344 	 -28.174 	 -126.079
| 11> C 	 41.4739 	 -29.5094 	 -126.06
| 12> H 	 42.8584 	 -27.9206 	 -126.328
| 13> C 	 41.0547 	 -25.7763 	 -125.671
| 14> H 	 40.6552 	 -25.3049 	 -126.497
| 15> H 	 42.1286 	 -25.6701 	 -125.773
| 16> C 	 40.5119 	 -25.009 	 -124.463
| 17> H 	 39.4138 	 -25.0877 	 -124.291
| 18> H 	 40.9485 	 -25.5053 	 -123.588
| 19> C 	 40.988 	 -23.5635 	 -124.464
| 20> H 	 40.5529 	 -23.0069 	 -123.631
| 21> H 	 42.0874 	 -23.4639 	 -124.337
| 22> H 	 40.7725 	 -22.9877 	 -125.345
| 23> S 	 41.3866 	 -31.759 	 -127.786
| 24> C 	 42.7222 	 -32.8088 	 -127.681
| 25> C 	 43.7923 	 -32.3109 	 -127.024
| 26> C 	 43.5611 	 -31.0488 	 -126.411
| 27> C 	 42.2434 	 -30.642 	 -126.667
| 28> H 	 44.6377 	 -32.9504 	 -126.83
| 29> C 	 44.501 	 -30.4601 	 -125.405
| 30> H 	 44.413 	 -29.4225 	 -125.404
| 31> H 	 45.5118 	 -30.6101 	 -125.907
| 32> C 	 44.482 	 -31.0844 	 -123.993
| 33> H 	 45.3107 	 -31.7858 	 -123.956
| 34> H 	 43.5466 	 -31.6696 	 -123.771
| 35> C 	 44.5219 	 -29.9964 	 -122.828
| 36> H 	 45.5119 	 -29.4661 	 -122.78
| 37> H 	 44.2556 	 -30.3403 	 -121.853
| 38> H 	 43.7122 	 -29.2404 	 -123.051
| 39> H 	 38.8079 	 -27.2783 	 -125.249
| 40> H 	 42.7933 	 -33.7151 	 -128.132
| 41> *
| 42>
| 43>                          ****END OF INPUT****

CARTESIAN COORDINATES (ANGSTROEM)
---------------------------------
  S     39.736300  -29.583600  -125.954000
  C     39.618300  -27.947200  -125.380000
  C     40.781500  -27.244100  -125.714000
  C     41.834400  -28.174000  -126.079000
  C     41.473900  -29.509400  -126.060000
  H     42.858400  -27.920600  -126.328000
  C     41.054700  -25.776300  -125.671000
  H     40.655200  -25.304900  -126.497000
  H     42.128600  -25.670100  -125.773000
  C     40.511900  -25.009000  -124.463000
  H     39.413800  -25.087700  -124.291000
  H     40.948500  -25.505300  -123.588000
  C     40.988000  -23.563500  -124.464000
  H     40.552900  -23.006900  -123.631000
  H     42.087400  -23.463900  -124.337000
  H     40.772500  -22.987700  -125.345000
  S     41.386600  -31.759000  -127.786000
  C     42.722200  -32.808800  -127.681000
  C     43.792300  -32.310900  -127.024000
  C     43.561100  -31.048800  -126.411000
  C     42.243400  -30.642000  -126.667000
  H     44.637700  -32.950400  -126.830000
  C     44.501000  -30.460100  -125.405000
  H     44.413000  -29.422500  -125.404000
  H     45.511800  -30.610100  -125.907000
  C     44.482000  -31.084400  -123.993000
  H     45.310700  -31.785800  -123.956000
  H     43.546600  -31.669600  -123.771000
  C     44.521900  -29.996400  -122.828000
  H     45.511900  -29.466100  -122.780000
  H     44.255600  -30.340300  -121.853000
  H     43.712200  -29.240400  -123.051000
  H     38.807900  -27.278300  -125.249000
  H     42.793300  -33.715100  -128.132000

 Total Charge           Charge          ....    0
 Multiplicity           Mult            ....    1
 Number of Electrons    NEL             ....  134
 Basis Dimension        Dim             ....  322

ORBITAL ENERGIES
----------------

  NO   OCC          E(Eh)            E(eV)
   0   2.0000     -88.967772     -2420.9362
   1   2.0000     -88.966907     -2420.9126
   2   2.0000     -10.332333      -281.1571
   3   2.0000     -10.329856      -281.0897
   4   2.0000     -10.309738      -280.5422
   5   2.0000     -10.302550      -280.3466
   6   2.0000     -10.302140      -280.3355
   7   2.0000     -10.302043      -280.3329
   8   2.0000     -10.294427      -280.1256
   9   2.0000     -10.293716      -280.1062
  10   2.0000     -10.292265      -280.0668
  11   2.0000     -10.291953      -280.0583
  12   2.0000     -10.285960      -279.8952
  13   2.0000     -10.285857      -279.8924
  14   2.0000     -10.285087      -279.8714
  15   2.0000     -10.280405      -279.7441
  16   2.0000      -8.082632      -219.9396
  17   2.0000      -8.081532      -219.9097
  18   2.0000      -6.041068      -164.3858
  19   2.0000      -6.040168      -164.3613
  20   2.0000      -6.037260      -164.2822
  21   2.0000      -6.036261      -164.2550
  22   2.0000      -6.033340      -164.1755
  23   2.0000      -6.031935      -164.1373
  24   2.0000      -1.006572       -27.3902
  25   2.0000      -0.987142       -26.8615
  26   2.0000      -0.917691       -24.9716
  27   2.0000      -0.906414       -24.6648
  28   2.0000      -0.866668       -23.5832
  29   2.0000      -0.850305       -23.1380
  30   2.0000      -0.844978       -22.9930
  31   2.0000      -0.814677       -22.1685
  32   2.0000      -0.784263       -21.3409
  33   2.0000      -0.774240       -21.0682
  34   2.0000      -0.712967       -19.4008
  35   2.0000      -0.704897       -19.1812
  36   2.0000      -0.695573       -18.9275
  37   2.0000      -0.658743       -17.9253
  38   2.0000      -0.637017       -17.3341
  39   2.0000      -0.617451       -16.8017
  40   2.0000      -0.600640       -16.3442
  41   2.0000      -0.572064       -15.5667
  42   2.0000      -0.567141       -15.4327
  43   2.0000      -0.554682       -15.0937
  44   2.0000      -0.524130       -14.2623
  45   2.0000      -0.521573       -14.1927
  46   2.0000      -0.520855       -14.1732
  47   2.0000      -0.508724       -13.8431
  48   2.0000      -0.500146       -13.6097
  49   2.0000      -0.496910       -13.5216
  50   2.0000      -0.492867       -13.4116
  51   2.0000      -0.482363       -13.1258
  52   2.0000      -0.471847       -12.8396
  53   2.0000      -0.464965       -12.6523
  54   2.0000      -0.460482       -12.5304
  55   2.0000      -0.451734       -12.2923
  56   2.0000      -0.444667       -12.1000
  57   2.0000      -0.441616       -12.0170
  58   2.0000      -0.431617       -11.7449
  59   2.0000      -0.425412       -11.5760
  60   2.0000      -0.423091       -11.5129
  61   2.0000      -0.421072       -11.4579
  62   2.0000      -0.411355       -11.1935
  63   2.0000      -0.353655        -9.6234
  64   2.0000      -0.334443        -9.1007
  65   2.0000      -0.322508        -8.7759
  66   2.0000      -0.286554        -7.7975
  67   0.0000       0.022485         0.6118
  68   0.0000       0.068969         1.8767
  69   0.0000       0.104810         2.8520
  70   0.0000       0.124632         3.3914
  71   0.0000       0.126811         3.4507

MULLIKEN ATOMIC CHARGES
-----------------------
   0 S :    0.097716
   1 C :   -0.061867
   2 C :   -0.137312
   3 C :    0.003813
   4 C :   -0.111730
   5 H :    0.017499
   6 C :    0.121001
   7 H :    0.016291
   8 H :    0.013893
   9 C :   -0.106609
  10 H :    0.040861
  11 H :    0.032415
  12 C :   -0.048709
  13 H :    0.032647
  14 H :    0.031907
  15 H :    0.024619
  16 S :    0.109878
  17 C :   -0.042383
  18 C :   -0.035774
  19 C :   -0.065559
  20 C :   -0.167801
  21 H :    0.013528
  22 C :    0.099443
  23 H :   -0.008308
  24 H :    0.033366
  25 C :   -0.061074
  26 H :    0.032164
  27 H :    0.054595
  28 C :   -0.091314
  29 H :    0.043559
  30 H :    0.031384
  31 H :    0.043887
  32 H :    0.031780
  33 H :    0.012195
Sum of atomic charges:   -0.0000000

LOEWDIN ATOMIC CHARGES
----------------------
   0 S :    0.414607
   1 C :   -0.209357
   2 C :   -0.054015
   3 C :   -0.064834
   4 C :   -0.195419
   5 H :    0.025969
   6 C :   -0.029509
   7 H :    0.023905
   8 H :    0.032390
   9 C :   -0.042058
  10 H :    0.027320
  11 H :    0.027946
  12 C :   -0.068766
  13 H :    0.028509
  14 H :    0.029476
  15 H :    0.020267
  16 S :    0.398993
  17 C :   -0.180387
  18 C :   -0.070761
  19 C :   -0.056239
  20 C :   -0.178313
  21 H :    0.030796
  22 C :   -0.032750
  23 H :    0.016391
  24 H :    0.042865
  25 C :   -0.037992
  26 H :    0.022216
  27 H :    0.035780
  28 C :   -0.071475
  29 H :    0.027500
  30 H :    0.019827
  31 H :    0.033322
  32 H :    0.024409
  33 H :    0.009393

  Mayer bond orders larger than 0.100000
B(  0-S ,  1-C ) :   1.1357 B(  0-S ,  4-C ) :   1.1488 B(  1-C ,  2-C ) :   1.6021
B(  1-C , 32-H ) :   0.9649 B(  2-C ,  3-C ) :   1.2597 B(  2-C ,  6-C ) :   1.0272
B(  3-C ,  4-C ) :   1.5542 B(  3-C ,  5-H ) :   0.9853 B(  4-C , 20-C ) :   1.0462
B(  6-C ,  7-H ) :   0.9187 B(  6-C ,  8-H ) :   0.9442 B(  6-C ,  9-C ) :   1.0629
B(  9-C , 10-H ) :   0.9534 B(  9-C , 11-H ) :   0.9567 B(  9-C , 12-C ) :   1.0880
B( 12-C , 13-H ) :   0.9725 B( 12-C , 14-H ) :   0.9735 B( 12-C , 15-H ) :   0.9753
B( 16-S , 17-C ) :   1.1465 B( 16-S , 20-C ) :   1.1320 B( 17-C , 18-C ) :   1.6455
B( 17-C , 33-H ) :   0.9706 B( 18-C , 19-C ) :   1.2309 B( 18-C , 21-H ) :   0.9898
B( 19-C , 20-C ) :   1.6092 B( 19-C , 22-C ) :   1.0615 B( 22-C , 23-H ) :   0.9324
B( 22-C , 24-H ) :   0.9282 B( 22-C , 25-C ) :   1.0211 B( 25-C , 26-H ) :   0.9586
B( 25-C , 27-H ) :   0.9685 B( 25-C , 28-C ) :   1.0701 B( 28-C , 29-H ) :   0.9780
B( 28-C , 30-H ) :   0.9787 B( 28-C , 31-H ) :   0.9767

Dispersion correction           -0.013845760
FINAL SINGLE POINT ENERGY     -1339.855243457497

DIPOLE MOMENT
-------------
                                X             Y             Z
Electronic contribution:    -12.90533     -20.95507     -17.20550
Nuclear contribution   :     13.35739      21.38237      17.34724
                        -----------------------------------------
Total Dipole Moment    :      0.45206       0.42730       0.14175
                        -----------------------------------------
Magnitude (a.u.)       :      0.63799
Magnitude (Debye)      :      1.62165

Rotational constants in cm-1:     0.019970     0.007997     0.006324
Rotational constants in MHz :   598.674764   239.730620   189.573911

                             ****ORCA TERMINATED NORMALLY****
TOTAL RUN TIME: 0 days 0 hours 0 minutes 21 seconds 365 msec
