                         Program Version 4.2.1 -  RELEASE  -
|  1> ! wB97X-D3 SP def2-SVP
|  2> %pal
|  3> nprocs 24
|  4> end
|  5>
|  6> * xyz 0 1
|  7> S 	 -58.1449 	 -2.71598 	 -24.8264
|  8> C 	 -58.1574 	 -3.27903 	 -26.4953
|  9> C 	 -59.4274 	 -3.48876 	 -26.9423
| 10> C 	 -60.4083 	 -3.03845 	 -25.9912
| 11> C 	 -59.8596 	 -2.36893 	 -24.8688
| 12> H 	 -61.4783 	 -3.12845 	 -26.1722
| 13> C 	 -59.9011 	 -3.9755 	 -28.3182
| 14> H 	 -59.0769 	 -4.00074 	 -28.9933
| 15> H 	 -60.4894 	 -3.25034 	 -28.7321
| 16> C 	 -60.7501 	 -5.25554 	 -28.3549
| 17> H 	 -60.0517 	 -6.0018 	 -27.9941
| 18> H 	 -61.6762 	 -5.27676 	 -27.7296
| 19> C 	 -61.3093 	 -5.59493 	 -29.7642
| 20> H 	 -60.5719 	 -5.30438 	 -30.5847
| 21> H 	 -61.7087 	 -6.58158 	 -29.9296
| 22> H 	 -62.1502 	 -4.90831 	 -29.8969
| 23> S 	 -60.2973 	 -2.30808 	 -22.0204
| 24> C 	 -61.6142 	 -1.14588 	 -21.5081
| 25> C 	 -62.0746 	 -0.39671 	 -22.5363
| 26> C 	 -61.561 	 -0.826852 	 -23.7998
| 27> C 	 -60.5841 	 -1.83161 	 -23.7267
| 28> H 	 -62.8136 	 0.428472 	 -22.4895
| 29> C 	 -62.1077 	 -0.207009 	 -25.0895
| 30> H 	 -63.0582 	 0.1956 	 -24.803
| 31> H 	 -62.1752 	 -1.01856 	 -25.7828
| 32> C 	 -61.2756 	 0.936662 	 -25.6919
| 33> H 	 -61.3091 	 1.21866 	 -26.7445
| 34> H 	 -60.2428 	 0.67334 	 -25.4809
| 35> C 	 -61.5006 	 2.28819 	 -24.9813
| 36> H 	 -62.4757 	 2.69544 	 -25.2149
| 37> H 	 -60.7351 	 3.01093 	 -25.2353
| 38> H 	 -61.4308 	 2.11613 	 -23.9401
| 39> H 	 -57.3536 	 -3.69753 	 -27.0406
| 40> H 	 -61.878 	 -0.923937 	 -20.527
| 41> *
| 42>
| 43>                          ****END OF INPUT****

CARTESIAN COORDINATES (ANGSTROEM)
---------------------------------
  S    -58.144900   -2.715980  -24.826400
  C    -58.157400   -3.279030  -26.495300
  C    -59.427400   -3.488760  -26.942300
  C    -60.408300   -3.038450  -25.991200
  C    -59.859600   -2.368930  -24.868800
  H    -61.478300   -3.128450  -26.172200
  C    -59.901100   -3.975500  -28.318200
  H    -59.076900   -4.000740  -28.993300
  H    -60.489400   -3.250340  -28.732100
  C    -60.750100   -5.255540  -28.354900
  H    -60.051700   -6.001800  -27.994100
  H    -61.676200   -5.276760  -27.729600
  C    -61.309300   -5.594930  -29.764200
  H    -60.571900   -5.304380  -30.584700
  H    -61.708700   -6.581580  -29.929600
  H    -62.150200   -4.908310  -29.896900
  S    -60.297300   -2.308080  -22.020400
  C    -61.614200   -1.145880  -21.508100
  C    -62.074600   -0.396710  -22.536300
  C    -61.561000   -0.826852  -23.799800
  C    -60.584100   -1.831610  -23.726700
  H    -62.813600    0.428472  -22.489500
  C    -62.107700   -0.207009  -25.089500
  H    -63.058200    0.195600  -24.803000
  H    -62.175200   -1.018560  -25.782800
  C    -61.275600    0.936662  -25.691900
  H    -61.309100    1.218660  -26.744500
  H    -60.242800    0.673340  -25.480900
  C    -61.500600    2.288190  -24.981300
  H    -62.475700    2.695440  -25.214900
  H    -60.735100    3.010930  -25.235300
  H    -61.430800    2.116130  -23.940100
  H    -57.353600   -3.697530  -27.040600
  H    -61.878000   -0.923937  -20.527000

 Total Charge           Charge          ....    0
 Multiplicity           Mult            ....    1
 Number of Electrons    NEL             ....  134
 Basis Dimension        Dim             ....  322

ORBITAL ENERGIES
----------------

  NO   OCC          E(Eh)            E(eV)
   0   2.0000     -88.971511     -2421.0379
   1   2.0000     -88.968448     -2420.9545
   2   2.0000     -10.335875      -281.2535
   3   2.0000     -10.333483      -281.1884
   4   2.0000     -10.320191      -280.8267
   5   2.0000     -10.312335      -280.6129
   6   2.0000     -10.304093      -280.3886
   7   2.0000     -10.302205      -280.3372
   8   2.0000     -10.298917      -280.2478
   9   2.0000     -10.297968      -280.2219
  10   2.0000     -10.293015      -280.0872
  11   2.0000     -10.288619      -279.9675
  12   2.0000     -10.288486      -279.9639
  13   2.0000     -10.286157      -279.9006
  14   2.0000     -10.280264      -279.7402
  15   2.0000     -10.268241      -279.4130
  16   2.0000      -8.084131      -219.9804
  17   2.0000      -8.082902      -219.9470
  18   2.0000      -6.043001      -164.4384
  19   2.0000      -6.041535      -164.3985
  20   2.0000      -6.039098      -164.3322
  21   2.0000      -6.037598      -164.2914
  22   2.0000      -6.034472      -164.2063
  23   2.0000      -6.033397      -164.1771
  24   2.0000      -1.002396       -27.2766
  25   2.0000      -0.979840       -26.6628
  26   2.0000      -0.913618       -24.8608
  27   2.0000      -0.906281       -24.6612
  28   2.0000      -0.872848       -23.7514
  29   2.0000      -0.847943       -23.0737
  30   2.0000      -0.843819       -22.9615
  31   2.0000      -0.814866       -22.1736
  32   2.0000      -0.786647       -21.4058
  33   2.0000      -0.773754       -21.0549
  34   2.0000      -0.715400       -19.4670
  35   2.0000      -0.701305       -19.0835
  36   2.0000      -0.690862       -18.7993
  37   2.0000      -0.663241       -18.0477
  38   2.0000      -0.639844       -17.4110
  39   2.0000      -0.620736       -16.8911
  40   2.0000      -0.592156       -16.1134
  41   2.0000      -0.574136       -15.6230
  42   2.0000      -0.564047       -15.3485
  43   2.0000      -0.555133       -15.1059
  44   2.0000      -0.551735       -15.0135
  45   2.0000      -0.526543       -14.3280
  46   2.0000      -0.514023       -13.9873
  47   2.0000      -0.508862       -13.8468
  48   2.0000      -0.505322       -13.7505
  49   2.0000      -0.503132       -13.6909
  50   2.0000      -0.484010       -13.1706
  51   2.0000      -0.476408       -12.9637
  52   2.0000      -0.474961       -12.9244
  53   2.0000      -0.462868       -12.5953
  54   2.0000      -0.462015       -12.5721
  55   2.0000      -0.453902       -12.3513
  56   2.0000      -0.447567       -12.1789
  57   2.0000      -0.436823       -11.8866
  58   2.0000      -0.431006       -11.7283
  59   2.0000      -0.424959       -11.5637
  60   2.0000      -0.422176       -11.4880
  61   2.0000      -0.416416       -11.3312
  62   2.0000      -0.409213       -11.1353
  63   2.0000      -0.351278        -9.5588
  64   2.0000      -0.334707        -9.1078
  65   2.0000      -0.329170        -8.9572
  66   2.0000      -0.290802        -7.9131
  67   0.0000       0.021182         0.5764
  68   0.0000       0.062479         1.7001
  69   0.0000       0.098933         2.6921
  70   0.0000       0.118750         3.2314
  71   0.0000       0.127240         3.4624

MULLIKEN ATOMIC CHARGES
-----------------------
   0 S :    0.104870
   1 C :   -0.095446
   2 C :   -0.084378
   3 C :    0.016786
   4 C :   -0.170500
   5 H :    0.027336
   6 C :    0.114184
   7 H :    0.005279
   8 H :    0.001257
   9 C :   -0.096759
  10 H :    0.033841
  11 H :    0.044440
  12 C :   -0.068444
  13 H :    0.036193
  14 H :    0.044566
  15 H :    0.026133
  16 S :    0.098243
  17 C :   -0.060223
  18 C :   -0.013824
  19 C :   -0.121795
  20 C :   -0.122351
  21 H :    0.036083
  22 C :    0.144255
  23 H :    0.006277
  24 H :    0.011270
  25 C :   -0.065108
  26 H :    0.034701
  27 H :    0.030462
  28 C :   -0.057173
  29 H :    0.026162
  30 H :    0.034170
  31 H :    0.013802
  32 H :    0.031848
  33 H :    0.033844
Sum of atomic charges:    0.0000000

LOEWDIN ATOMIC CHARGES
----------------------
   0 S :    0.402455
   1 C :   -0.189673
   2 C :   -0.059555
   3 C :   -0.055670
   4 C :   -0.191290
   5 H :    0.028454
   6 C :   -0.022295
   7 H :    0.027059
   8 H :    0.018441
   9 C :   -0.041154
  10 H :    0.021709
  11 H :    0.030451
  12 C :   -0.070609
  13 H :    0.029751
  14 H :    0.026070
  15 H :    0.024336
  16 S :    0.356202
  17 C :   -0.146566
  18 C :   -0.068591
  19 C :   -0.049828
  20 C :   -0.190350
  21 H :    0.039675
  22 C :   -0.021848
  23 H :    0.023330
  24 H :    0.027167
  25 C :   -0.039752
  26 H :    0.025280
  27 H :    0.026134
  28 C :   -0.062099
  29 H :    0.019144
  30 H :    0.027012
  31 H :    0.015097
  32 H :    0.023745
  33 H :    0.017762

  Mayer bond orders larger than 0.100000
B(  0-S ,  1-C ) :   1.1274 B(  0-S ,  4-C ) :   1.1400 B(  1-C ,  2-C ) :   1.6348
B(  1-C , 32-H ) :   0.9650 B(  2-C ,  3-C ) :   1.2457 B(  2-C ,  6-C ) :   1.0187
B(  3-C ,  4-C ) :   1.5556 B(  3-C ,  5-H ) :   0.9817 B(  4-C , 20-C ) :   1.0788
B(  6-C ,  7-H ) :   0.9363 B(  6-C ,  8-H ) :   0.9392 B(  6-C ,  9-C ) :   1.0499
B(  9-C , 10-H ) :   0.9603 B(  9-C , 11-H ) :   0.9599 B(  9-C , 12-C ) :   1.0673
B( 12-C , 13-H ) :   0.9753 B( 12-C , 14-H ) :   0.9764 B( 12-C , 15-H ) :   0.9768
B( 16-S , 17-C ) :   1.1212 B( 16-S , 20-C ) :   1.1054 B( 17-C , 18-C ) :   1.6432
B( 17-C , 33-H ) :   0.9691 B( 18-C , 19-C ) :   1.2427 B( 18-C , 21-H ) :   0.9732
B( 19-C , 20-C ) :   1.6128 B( 19-C , 22-C ) :   1.0387 B( 22-C , 23-H ) :   0.9354
B( 22-C , 24-H ) :   0.9233 B( 22-C , 25-C ) :   1.0494 B( 25-C , 26-H ) :   0.9634
B( 25-C , 27-H ) :   0.9585 B( 25-C , 28-C ) :   1.0778 B( 28-C , 29-H ) :   0.9766
B( 28-C , 30-H ) :   0.9734 B( 28-C , 31-H ) :   0.9772

Dispersion correction           -0.014217352
FINAL SINGLE POINT ENERGY     -1339.859813353921

DIPOLE MOMENT
-------------
                                X             Y             Z
Electronic contribution:     12.43161      -4.25110      23.59100
Nuclear contribution   :    -12.89750       4.34003     -24.12736
                        -----------------------------------------
Total Dipole Moment    :     -0.46589       0.08893      -0.53636
                        -----------------------------------------
Magnitude (a.u.)       :      0.71599
Magnitude (Debye)      :      1.81990

Rotational constants in cm-1:     0.018824     0.007878     0.006813
Rotational constants in MHz :   564.342490   236.162821   204.263293

                             ****ORCA TERMINATED NORMALLY****
TOTAL RUN TIME: 0 days 0 hours 0 minutes 22 seconds 813 msec
