                         Program Version 4.2.1 -  RELEASE  -
|  1> ! wB97X-D3 SP def2-SVP
|  2> %pal
|  3> nprocs 24
|  4> end
|  5>
|  6> * xyz 0 1
|  7> S 	 -93.5069 	 51.5073 	 -100.34
|  8> C 	 -92.5084 	 52.1026 	 -98.9815
|  9> C 	 -93.1324 	 51.9501 	 -97.742
| 10> C 	 -94.4575 	 51.4452 	 -97.8944
| 11> C 	 -94.8281 	 51.3655 	 -99.2302
| 12> H 	 -95.1815 	 51.2257 	 -97.0757
| 13> C 	 -92.4271 	 52.1722 	 -96.4059
| 14> H 	 -91.7614 	 53.0257 	 -96.4716
| 15> H 	 -91.6119 	 51.5485 	 -96.248
| 16> C 	 -93.2803 	 52.0723 	 -95.1741
| 17> H 	 -94.0423 	 52.8824 	 -95.2482
| 18> H 	 -93.705 	 51.1229 	 -95.0894
| 19> C 	 -92.4524 	 52.315 	 -93.8749
| 20> H 	 -91.6725 	 51.6219 	 -93.692
| 21> H 	 -91.9945 	 53.2722 	 -93.7316
| 22> H 	 -93.1231 	 52.0982 	 -93.0249
| 23> S 	 -96.1895 	 49.1973 	 -100.063
| 24> C 	 -97.8474 	 49.2956 	 -100.612
| 25> C 	 -98.1973 	 50.6437 	 -100.751
| 26> C 	 -97.2173 	 51.5824 	 -100.233
| 27> C 	 -96.0774 	 50.9117 	 -99.8005
| 28> H 	 -99.1863 	 50.7316 	 -101.133
| 29> C 	 -97.4716 	 53.0837 	 -100.231
| 30> H 	 -97.8613 	 53.5608 	 -101.076
| 31> H 	 -96.4767 	 53.4421 	 -100.023
| 32> C 	 -98.3768 	 53.514 	 -99.0473
| 33> H 	 -98.1252 	 52.9969 	 -98.1168
| 34> H 	 -99.3266 	 53.0651 	 -99.2413
| 35> C 	 -98.3744 	 55.0647 	 -98.9354
| 36> H 	 -99.3016 	 55.3139 	 -98.4549
| 37> H 	 -98.1325 	 55.5325 	 -99.8865
| 38> H 	 -97.6464 	 55.313 	 -98.2362
| 39> H 	 -91.4404 	 52.3828 	 -99.0608
| 40> H 	 -98.4084 	 48.4101 	 -101.028
| 41> *
| 42>
| 43>                          ****END OF INPUT****

CARTESIAN COORDINATES (ANGSTROEM)
---------------------------------
  S    -93.506900   51.507300  -100.340000
  C    -92.508400   52.102600  -98.981500
  C    -93.132400   51.950100  -97.742000
  C    -94.457500   51.445200  -97.894400
  C    -94.828100   51.365500  -99.230200
  H    -95.181500   51.225700  -97.075700
  C    -92.427100   52.172200  -96.405900
  H    -91.761400   53.025700  -96.471600
  H    -91.611900   51.548500  -96.248000
  C    -93.280300   52.072300  -95.174100
  H    -94.042300   52.882400  -95.248200
  H    -93.705000   51.122900  -95.089400
  C    -92.452400   52.315000  -93.874900
  H    -91.672500   51.621900  -93.692000
  H    -91.994500   53.272200  -93.731600
  H    -93.123100   52.098200  -93.024900
  S    -96.189500   49.197300  -100.063000
  C    -97.847400   49.295600  -100.612000
  C    -98.197300   50.643700  -100.751000
  C    -97.217300   51.582400  -100.233000
  C    -96.077400   50.911700  -99.800500
  H    -99.186300   50.731600  -101.133000
  C    -97.471600   53.083700  -100.231000
  H    -97.861300   53.560800  -101.076000
  H    -96.476700   53.442100  -100.023000
  C    -98.376800   53.514000  -99.047300
  H    -98.125200   52.996900  -98.116800
  H    -99.326600   53.065100  -99.241300
  C    -98.374400   55.064700  -98.935400
  H    -99.301600   55.313900  -98.454900
  H    -98.132500   55.532500  -99.886500
  H    -97.646400   55.313000  -98.236200
  H    -91.440400   52.382800  -99.060800
  H    -98.408400   48.410100  -101.028000

 Total Charge           Charge          ....    0
 Multiplicity           Mult            ....    1
 Number of Electrons    NEL             ....  134
 Basis Dimension        Dim             ....  322

ORBITAL ENERGIES
----------------

  NO   OCC          E(Eh)            E(eV)
   0   2.0000     -88.968703     -2420.9615
   1   2.0000     -88.959989     -2420.7244
   2   2.0000     -10.325676      -280.9759
   3   2.0000     -10.321801      -280.8705
   4   2.0000     -10.318412      -280.7783
   5   2.0000     -10.315693      -280.7043
   6   2.0000     -10.307314      -280.4763
   7   2.0000     -10.304456      -280.3985
   8   2.0000     -10.299651      -280.2678
   9   2.0000     -10.291989      -280.0593
  10   2.0000     -10.288821      -279.9731
  11   2.0000     -10.284689      -279.8606
  12   2.0000     -10.282773      -279.8085
  13   2.0000     -10.278913      -279.7035
  14   2.0000     -10.277304      -279.6597
  15   2.0000     -10.270344      -279.4703
  16   2.0000      -8.082969      -219.9488
  17   2.0000      -8.075160      -219.7363
  18   2.0000      -6.041398      -164.3948
  19   2.0000      -6.037676      -164.2935
  20   2.0000      -6.033711      -164.1856
  21   2.0000      -6.033633      -164.1835
  22   2.0000      -6.029527      -164.0718
  23   2.0000      -6.026014      -163.9762
  24   2.0000      -1.005630       -27.3646
  25   2.0000      -0.978674       -26.6311
  26   2.0000      -0.917120       -24.9561
  27   2.0000      -0.906409       -24.6646
  28   2.0000      -0.867904       -23.6169
  29   2.0000      -0.845335       -23.0027
  30   2.0000      -0.844478       -22.9794
  31   2.0000      -0.812881       -22.1196
  32   2.0000      -0.786022       -21.3887
  33   2.0000      -0.771290       -20.9879
  34   2.0000      -0.717631       -19.5277
  35   2.0000      -0.701356       -19.0849
  36   2.0000      -0.687153       -18.6984
  37   2.0000      -0.655330       -17.8324
  38   2.0000      -0.644301       -17.5323
  39   2.0000      -0.619313       -16.8524
  40   2.0000      -0.594306       -16.1719
  41   2.0000      -0.573071       -15.5940
  42   2.0000      -0.569662       -15.5013
  43   2.0000      -0.554660       -15.0931
  44   2.0000      -0.526705       -14.3324
  45   2.0000      -0.524903       -14.2833
  46   2.0000      -0.515931       -14.0392
  47   2.0000      -0.508877       -13.8473
  48   2.0000      -0.500810       -13.6277
  49   2.0000      -0.494862       -13.4659
  50   2.0000      -0.485328       -13.2064
  51   2.0000      -0.481545       -13.1035
  52   2.0000      -0.471025       -12.8172
  53   2.0000      -0.468243       -12.7415
  54   2.0000      -0.459952       -12.5159
  55   2.0000      -0.453860       -12.3502
  56   2.0000      -0.443489       -12.0680
  57   2.0000      -0.440712       -11.9924
  58   2.0000      -0.428192       -11.6517
  59   2.0000      -0.427268       -11.6266
  60   2.0000      -0.419541       -11.4163
  61   2.0000      -0.416264       -11.3271
  62   2.0000      -0.411818       -11.2061
  63   2.0000      -0.336154        -9.1472
  64   2.0000      -0.324075        -8.8185
  65   2.0000      -0.315111        -8.5746
  66   2.0000      -0.307933        -8.3793
  67   0.0000       0.041812         1.1377
  68   0.0000       0.052710         1.4343
  69   0.0000       0.108503         2.9525
  70   0.0000       0.120072         3.2673
  71   0.0000       0.133975         3.6456

MULLIKEN ATOMIC CHARGES
-----------------------
   0 S :    0.127305
   1 C :   -0.134807
   2 C :   -0.058828
   3 C :    0.019027
   4 C :   -0.181581
   5 H :    0.036858
   6 C :    0.090628
   7 H :    0.005146
   8 H :   -0.000913
   9 C :   -0.067739
  10 H :    0.041925
  11 H :    0.031640
  12 C :   -0.039703
  13 H :    0.015905
  14 H :    0.031776
  15 H :    0.029001
  16 S :    0.111317
  17 C :   -0.136788
  18 C :   -0.040480
  19 C :    0.005070
  20 C :   -0.199191
  21 H :    0.012258
  22 C :    0.100714
  23 H :    0.021729
  24 H :    0.018553
  25 C :   -0.105317
  26 H :    0.021639
  27 H :    0.011941
  28 C :    0.010498
  29 H :    0.028959
  30 H :    0.037389
  31 H :    0.022010
  32 H :    0.051525
  33 H :    0.082534
Sum of atomic charges:    0.0000000

LOEWDIN ATOMIC CHARGES
----------------------
   0 S :    0.411535
   1 C :   -0.195907
   2 C :   -0.056167
   3 C :   -0.062222
   4 C :   -0.206442
   5 H :    0.041996
   6 C :   -0.042608
   7 H :    0.034900
   8 H :    0.025544
   9 C :   -0.031332
  10 H :    0.030644
  11 H :    0.020196
  12 C :   -0.062807
  13 H :    0.018384
  14 H :    0.022584
  15 H :    0.031523
  16 S :    0.410186
  17 C :   -0.201304
  18 C :   -0.074772
  19 C :   -0.046783
  20 C :   -0.216925
  21 H :    0.026841
  22 C :   -0.023402
  23 H :    0.023204
  24 H :    0.028182
  25 C :   -0.034983
  26 H :    0.022782
  27 H :    0.012973
  28 C :   -0.054372
  29 H :    0.027619
  30 H :    0.027606
  31 H :    0.021084
  32 H :    0.030198
  33 H :    0.042045

  Mayer bond orders larger than 0.100000
B(  0-S ,  1-C ) :   1.1326 B(  0-S ,  4-C ) :   1.1696 B(  1-C ,  2-C ) :   1.6193
B(  1-C ,  4-C ) :   0.1064 B(  1-C , 32-H ) :   0.9654 B(  2-C ,  3-C ) :   1.2484
B(  2-C ,  6-C ) :   1.0076 B(  3-C ,  4-C ) :   1.5757 B(  3-C ,  5-H ) :   0.9847
B(  4-C , 20-C ) :   1.0008 B(  6-C ,  7-H ) :   0.9260 B(  6-C ,  8-H ) :   0.9216
B(  6-C ,  9-C ) :   1.0816 B(  9-C , 10-H ) :   0.9581 B(  9-C , 11-H ) :   0.9429
B(  9-C , 12-C ) :   1.0865 B( 12-C , 13-H ) :   0.9726 B( 12-C , 14-H ) :   0.9776
B( 12-C , 15-H ) :   0.9729 B( 16-S , 17-C ) :   1.1538 B( 16-S , 20-C ) :   1.1651
B( 17-C , 18-C ) :   1.6197 B( 17-C , 20-C ) :   0.1034 B( 17-C , 33-H ) :   0.9587
B( 18-C , 19-C ) :   1.2016 B( 18-C , 21-H ) :   0.9962 B( 19-C , 20-C ) :   1.6021
B( 19-C , 22-C ) :   1.0410 B( 22-C , 23-H ) :   0.9430 B( 22-C , 24-H ) :   0.9286
B( 22-C , 25-C ) :   1.0578 B( 25-C , 26-H ) :   0.9552 B( 25-C , 27-H ) :   0.9639
B( 25-C , 28-C ) :   1.0623 B( 28-C , 29-H ) :   0.9732 B( 28-C , 30-H ) :   0.9747
B( 28-C , 31-H ) :   0.9762

Dispersion correction           -0.013577245
FINAL SINGLE POINT ENERGY     -1339.853078928827

DIPOLE MOMENT
-------------
                                X             Y             Z
Electronic contribution:      3.11019     -17.41612     -20.96746
Nuclear contribution   :     -3.12818      17.63441      21.42854
                        -----------------------------------------
Total Dipole Moment    :     -0.01798       0.21829       0.46108
                        -----------------------------------------
Magnitude (a.u.)       :      0.51046
Magnitude (Debye)      :      1.29748

Rotational constants in cm-1:     0.016903     0.008234     0.006879
Rotational constants in MHz :   506.738556   246.841706   206.227474

                             ****ORCA TERMINATED NORMALLY****
TOTAL RUN TIME: 0 days 0 hours 0 minutes 19 seconds 930 msec
