                         Program Version 4.2.1 -  RELEASE  -
|  1> ! wB97X-D3 SP def2-SVP
|  2> %pal
|  3> nprocs 24
|  4> end
|  5>
|  6> * xyz 0 1
|  7> S 	 -73.3821 	 3.67274 	 13.929
|  8> C 	 -72.3546 	 4.6127 	 12.8232
|  9> C 	 -71.6862 	 5.62305 	 13.4675
| 10> C 	 -72.138 	 5.75732 	 14.8158
| 11> C 	 -73.0613 	 4.77285 	 15.2114
| 12> H 	 -71.7841 	 6.47243 	 15.5706
| 13> C 	 -70.6016 	 6.45548 	 12.7909
| 14> H 	 -70.9424 	 7.50908 	 12.7565
| 15> H 	 -70.5192 	 6.2122 	 11.7057
| 16> C 	 -69.2 	 6.29441 	 13.3973
| 17> H 	 -68.5066 	 7.09402 	 13.1577
| 18> H 	 -69.4324 	 6.38168 	 14.4165
| 19> C 	 -68.6749 	 4.86757 	 13.1298
| 20> H 	 -67.779 	 4.64633 	 13.783
| 21> H 	 -69.4592 	 4.02703 	 13.3956
| 22> H 	 -68.3226 	 4.74193 	 12.0786
| 23> S 	 -75.285 	 4.28324 	 16.6226
| 24> C 	 -75.24 	 3.94717 	 18.2872
| 25> C 	 -73.9826 	 4.12596 	 18.7984
| 26> C 	 -73.0559 	 4.53681 	 17.7795
| 27> C 	 -73.619 	 4.58989 	 16.5353
| 28> H 	 -73.7853 	 3.8217 	 19.8504
| 29> C 	 -71.61 	 4.5888 	 18.2312
| 30> H 	 -70.9961 	 4.62052 	 17.3359
| 31> H 	 -71.4973 	 3.67222 	 18.8363
| 32> C 	 -71.1971 	 5.74599 	 19.1994
| 33> H 	 -71.8612 	 5.6845 	 20.0763
| 34> H 	 -71.2787 	 6.69367 	 18.714
| 35> C 	 -69.7123 	 5.71117 	 19.659
| 36> H 	 -69.0934 	 5.67488 	 18.7994
| 37> H 	 -69.435 	 4.83602 	 20.3402
| 38> H 	 -69.4462 	 6.615 	 20.1288
| 39> H 	 -72.2711 	 4.5424 	 11.7366
| 40> H 	 -76.09 	 3.4582 	 18.7544
| 41> *
| 42>
| 43>                          ****END OF INPUT****

CARTESIAN COORDINATES (ANGSTROEM)
---------------------------------
  S    -73.382100    3.672740   13.929000
  C    -72.354600    4.612700   12.823200
  C    -71.686200    5.623050   13.467500
  C    -72.138000    5.757320   14.815800
  C    -73.061300    4.772850   15.211400
  H    -71.784100    6.472430   15.570600
  C    -70.601600    6.455480   12.790900
  H    -70.942400    7.509080   12.756500
  H    -70.519200    6.212200   11.705700
  C    -69.200000    6.294410   13.397300
  H    -68.506600    7.094020   13.157700
  H    -69.432400    6.381680   14.416500
  C    -68.674900    4.867570   13.129800
  H    -67.779000    4.646330   13.783000
  H    -69.459200    4.027030   13.395600
  H    -68.322600    4.741930   12.078600
  S    -75.285000    4.283240   16.622600
  C    -75.240000    3.947170   18.287200
  C    -73.982600    4.125960   18.798400
  C    -73.055900    4.536810   17.779500
  C    -73.619000    4.589890   16.535300
  H    -73.785300    3.821700   19.850400
  C    -71.610000    4.588800   18.231200
  H    -70.996100    4.620520   17.335900
  H    -71.497300    3.672220   18.836300
  C    -71.197100    5.745990   19.199400
  H    -71.861200    5.684500   20.076300
  H    -71.278700    6.693670   18.714000
  C    -69.712300    5.711170   19.659000
  H    -69.093400    5.674880   18.799400
  H    -69.435000    4.836020   20.340200
  H    -69.446200    6.615000   20.128800
  H    -72.271100    4.542400   11.736600
  H    -76.090000    3.458200   18.754400

 Total Charge           Charge          ....    0
 Multiplicity           Mult            ....    1
 Number of Electrons    NEL             ....  134
 Basis Dimension        Dim             ....  322

ORBITAL ENERGIES
----------------

  NO   OCC          E(Eh)            E(eV)
   0   2.0000     -88.970009     -2420.9970
   1   2.0000     -88.960920     -2420.7497
   2   2.0000     -10.330418      -281.1050
   3   2.0000     -10.321015      -280.8491
   4   2.0000     -10.314698      -280.6772
   5   2.0000     -10.312304      -280.6121
   6   2.0000     -10.302590      -280.3477
   7   2.0000     -10.302240      -280.3382
   8   2.0000     -10.298109      -280.2258
   9   2.0000     -10.296988      -280.1953
  10   2.0000     -10.295092      -280.1437
  11   2.0000     -10.292868      -280.0832
  12   2.0000     -10.290456      -280.0175
  13   2.0000     -10.289236      -279.9844
  14   2.0000     -10.285299      -279.8772
  15   2.0000     -10.278106      -279.6815
  16   2.0000      -8.084594      -219.9930
  17   2.0000      -8.078225      -219.8197
  18   2.0000      -6.043168      -164.4430
  19   2.0000      -6.039058      -164.3311
  20   2.0000      -6.036544      -164.2627
  21   2.0000      -6.035336      -164.2299
  22   2.0000      -6.032304      -164.1473
  23   2.0000      -6.029084      -164.0597
  24   2.0000      -1.018395       -27.7119
  25   2.0000      -0.990076       -26.9413
  26   2.0000      -0.914238       -24.8777
  27   2.0000      -0.906897       -24.6779
  28   2.0000      -0.871797       -23.7228
  29   2.0000      -0.854590       -23.2546
  30   2.0000      -0.842202       -22.9175
  31   2.0000      -0.812783       -22.1170
  32   2.0000      -0.780649       -21.2425
  33   2.0000      -0.772558       -21.0224
  34   2.0000      -0.710254       -19.3270
  35   2.0000      -0.697272       -18.9737
  36   2.0000      -0.690631       -18.7930
  37   2.0000      -0.665855       -18.1188
  38   2.0000      -0.637516       -17.3477
  39   2.0000      -0.619903       -16.8684
  40   2.0000      -0.597094       -16.2478
  41   2.0000      -0.571107       -15.5406
  42   2.0000      -0.568591       -15.4722
  43   2.0000      -0.551550       -15.0084
  44   2.0000      -0.538958       -14.6658
  45   2.0000      -0.520964       -14.1761
  46   2.0000      -0.516408       -14.0522
  47   2.0000      -0.515223       -14.0199
  48   2.0000      -0.504213       -13.7203
  49   2.0000      -0.497871       -13.5477
  50   2.0000      -0.486276       -13.2323
  51   2.0000      -0.474276       -12.9057
  52   2.0000      -0.473027       -12.8717
  53   2.0000      -0.462532       -12.5861
  54   2.0000      -0.461843       -12.5674
  55   2.0000      -0.451448       -12.2845
  56   2.0000      -0.445405       -12.1201
  57   2.0000      -0.433314       -11.7911
  58   2.0000      -0.431825       -11.7506
  59   2.0000      -0.429287       -11.6815
  60   2.0000      -0.423952       -11.5363
  61   2.0000      -0.417953       -11.3731
  62   2.0000      -0.415363       -11.3026
  63   2.0000      -0.346469        -9.4279
  64   2.0000      -0.335516        -9.1298
  65   2.0000      -0.327629        -8.9153
  66   2.0000      -0.296162        -8.0590
  67   0.0000       0.029939         0.8147
  68   0.0000       0.079955         2.1757
  69   0.0000       0.113028         3.0757
  70   0.0000       0.117480         3.1968
  71   0.0000       0.125305         3.4097

MULLIKEN ATOMIC CHARGES
-----------------------
   0 S :    0.125593
   1 C :   -0.119619
   2 C :   -0.098953
   3 C :    0.023451
   4 C :   -0.156035
   5 H :    0.018042
   6 C :    0.039479
   7 H :    0.039972
   8 H :    0.014863
   9 C :   -0.017272
  10 H :    0.037452
  11 H :    0.007943
  12 C :   -0.122387
  13 H :    0.040973
  14 H :    0.067699
  15 H :    0.039907
  16 S :    0.109844
  17 C :   -0.099882
  18 C :   -0.060040
  19 C :   -0.006931
  20 C :   -0.166666
  21 H :    0.039433
  22 C :    0.052282
  23 H :    0.018248
  24 H :    0.033412
  25 C :   -0.076450
  26 H :    0.031883
  27 H :    0.022890
  28 C :   -0.035859
  29 H :    0.016559
  30 H :    0.040997
  31 H :    0.025774
  32 H :    0.049485
  33 H :    0.063913
Sum of atomic charges:    0.0000000

LOEWDIN ATOMIC CHARGES
----------------------
   0 S :    0.413077
   1 C :   -0.194566
   2 C :   -0.063906
   3 C :   -0.069294
   4 C :   -0.201917
   5 H :    0.032273
   6 C :   -0.033445
   7 H :    0.033399
   8 H :    0.027088
   9 C :   -0.040521
  10 H :    0.027688
  11 H :    0.015859
  12 C :   -0.080980
  13 H :    0.028675
  14 H :    0.043647
  15 H :    0.025378
  16 S :    0.444567
  17 C :   -0.198370
  18 C :   -0.077594
  19 C :   -0.056653
  20 C :   -0.223717
  21 H :    0.039691
  22 C :   -0.029902
  23 H :    0.024012
  24 H :    0.036532
  25 C :   -0.034303
  26 H :    0.023197
  27 H :    0.019701
  28 C :   -0.063718
  29 H :    0.019021
  30 H :    0.031631
  31 H :    0.020835
  32 H :    0.032682
  33 H :    0.029934

  Mayer bond orders larger than 0.100000
B(  0-S ,  1-C ) :   1.1256 B(  0-S ,  4-C ) :   1.1671 B(  1-C ,  2-C ) :   1.6231
B(  1-C , 32-H ) :   0.9615 B(  2-C ,  3-C ) :   1.2356 B(  2-C ,  6-C ) :   1.0225
B(  3-C ,  4-C ) :   1.5560 B(  3-C ,  5-H ) :   0.9928 B(  4-C , 20-C ) :   1.0340
B(  6-C ,  7-H ) :   0.9404 B(  6-C ,  8-H ) :   0.9441 B(  6-C ,  9-C ) :   1.0568
B(  9-C , 10-H ) :   0.9558 B(  9-C , 11-H ) :   0.9567 B(  9-C , 12-C ) :   1.0672
B( 12-C , 13-H ) :   0.9742 B( 12-C , 14-H ) :   0.9714 B( 12-C , 15-H ) :   0.9754
B( 16-S , 17-C ) :   1.1761 B( 16-S , 20-C ) :   1.1546 B( 17-C , 18-C ) :   1.5998
B( 17-C , 33-H ) :   0.9671 B( 18-C , 19-C ) :   1.2305 B( 18-C , 21-H ) :   0.9857
B( 19-C , 20-C ) :   1.5938 B( 19-C , 22-C ) :   1.0457 B( 22-C , 23-H ) :   0.9323
B( 22-C , 24-H ) :   0.9395 B( 22-C , 25-C ) :   1.0658 B( 25-C , 26-H ) :   0.9563
B( 25-C , 27-H ) :   0.9551 B( 25-C , 28-C ) :   1.0858 B( 28-C , 29-H ) :   0.9722
B( 28-C , 30-H ) :   0.9755 B( 28-C , 31-H ) :   0.9751

Dispersion correction           -0.014234384
FINAL SINGLE POINT ENERGY     -1339.882593216425

DIPOLE MOMENT
-------------
                                X             Y             Z
Electronic contribution:    -28.62400      -8.81804      -5.80674
Nuclear contribution   :     29.13951       8.98335       6.05225
                        -----------------------------------------
Total Dipole Moment    :      0.51551       0.16531       0.24551
                        -----------------------------------------
Magnitude (a.u.)       :      0.59444
Magnitude (Debye)      :      1.51094

Rotational constants in cm-1:     0.016695     0.009884     0.006665
Rotational constants in MHz :   500.507529   296.304607   199.806965

                             ****ORCA TERMINATED NORMALLY****
TOTAL RUN TIME: 0 days 0 hours 0 minutes 21 seconds 736 msec
