                         Program Version 4.2.1 -  RELEASE  -
|  1> ! wB97X-D3 SP def2-SVP
|  2> %pal
|  3> nprocs 24
|  4> end
|  5>
|  6> * xyz 0 1
|  7> S 	 -87.2809 	 -31.9144 	 -62.3182
|  8> C 	 -88.6493 	 -32.1098 	 -63.3936
|  9> C 	 -89.6098 	 -33.0471 	 -63.015
| 10> C 	 -89.1652 	 -33.6182 	 -61.8166
| 11> C 	 -88.146 	 -32.9724 	 -61.1795
| 12> H 	 -89.6324 	 -34.3582 	 -61.1943
| 13> C 	 -90.7015 	 -33.5297 	 -63.9397
| 14> H 	 -90.9947 	 -32.6482 	 -64.584
| 15> H 	 -91.4664 	 -34.0112 	 -63.2451
| 16> C 	 -90.2133 	 -34.6942 	 -64.8527
| 17> H 	 -89.1707 	 -34.5609 	 -65.1319
| 18> H 	 -90.2211 	 -35.5982 	 -64.2611
| 19> C 	 -91.0948 	 -34.8218 	 -66.1134
| 20> H 	 -92.156 	 -34.9717 	 -65.9471
| 21> H 	 -90.9313 	 -33.9054 	 -66.6343
| 22> H 	 -90.6829 	 -35.5586 	 -66.8335
| 23> S 	 -86.5912 	 -34.48 	 -59.5369
| 24> C 	 -86.6423 	 -34.1657 	 -57.9161
| 25> C 	 -87.3848 	 -33.0765 	 -57.5338
| 26> C 	 -87.9812 	 -32.4649 	 -58.6593
| 27> C 	 -87.7772 	 -33.2181 	 -59.8316
| 28> H 	 -87.3734 	 -32.6743 	 -56.5431
| 29> C 	 -88.9222 	 -31.3045 	 -58.5437
| 30> H 	 -89.1965 	 -30.9913 	 -59.6109
| 31> H 	 -88.3306 	 -30.5368 	 -58.1067
| 32> C 	 -90.2744 	 -31.4951 	 -57.7844
| 33> H 	 -90.5904 	 -30.4759 	 -57.5614
| 34> H 	 -90.0431 	 -31.9086 	 -56.7903
| 35> C 	 -91.2052 	 -32.3863 	 -58.6191
| 36> H 	 -92.0897 	 -32.4958 	 -57.9499
| 37> H 	 -90.7887 	 -33.3292 	 -58.8055
| 38> H 	 -91.503 	 -31.9077 	 -59.6036
| 39> H 	 -88.7949 	 -31.7192 	 -64.356
| 40> H 	 -86.0536 	 -34.7789 	 -57.288
| 41> *
| 42>
| 43>                          ****END OF INPUT****

CARTESIAN COORDINATES (ANGSTROEM)
---------------------------------
  S    -87.280900  -31.914400  -62.318200
  C    -88.649300  -32.109800  -63.393600
  C    -89.609800  -33.047100  -63.015000
  C    -89.165200  -33.618200  -61.816600
  C    -88.146000  -32.972400  -61.179500
  H    -89.632400  -34.358200  -61.194300
  C    -90.701500  -33.529700  -63.939700
  H    -90.994700  -32.648200  -64.584000
  H    -91.466400  -34.011200  -63.245100
  C    -90.213300  -34.694200  -64.852700
  H    -89.170700  -34.560900  -65.131900
  H    -90.221100  -35.598200  -64.261100
  C    -91.094800  -34.821800  -66.113400
  H    -92.156000  -34.971700  -65.947100
  H    -90.931300  -33.905400  -66.634300
  H    -90.682900  -35.558600  -66.833500
  S    -86.591200  -34.480000  -59.536900
  C    -86.642300  -34.165700  -57.916100
  C    -87.384800  -33.076500  -57.533800
  C    -87.981200  -32.464900  -58.659300
  C    -87.777200  -33.218100  -59.831600
  H    -87.373400  -32.674300  -56.543100
  C    -88.922200  -31.304500  -58.543700
  H    -89.196500  -30.991300  -59.610900
  H    -88.330600  -30.536800  -58.106700
  C    -90.274400  -31.495100  -57.784400
  H    -90.590400  -30.475900  -57.561400
  H    -90.043100  -31.908600  -56.790300
  C    -91.205200  -32.386300  -58.619100
  H    -92.089700  -32.495800  -57.949900
  H    -90.788700  -33.329200  -58.805500
  H    -91.503000  -31.907700  -59.603600
  H    -88.794900  -31.719200  -64.356000
  H    -86.053600  -34.778900  -57.288000

 Total Charge           Charge          ....    0
 Multiplicity           Mult            ....    1
 Number of Electrons    NEL             ....  134
 Basis Dimension        Dim             ....  322

ORBITAL ENERGIES
----------------

  NO   OCC          E(Eh)            E(eV)
   0   2.0000     -88.967829     -2420.9377
   1   2.0000     -88.961892     -2420.7762
   2   2.0000     -10.318044      -280.7683
   3   2.0000     -10.315392      -280.6961
   4   2.0000     -10.306978      -280.4671
   5   2.0000     -10.306022      -280.4411
   6   2.0000     -10.304310      -280.3945
   7   2.0000     -10.299758      -280.2707
   8   2.0000     -10.295731      -280.1611
   9   2.0000     -10.288167      -279.9553
  10   2.0000     -10.286570      -279.9118
  11   2.0000     -10.286418      -279.9077
  12   2.0000     -10.286034      -279.8972
  13   2.0000     -10.285757      -279.8897
  14   2.0000     -10.278699      -279.6976
  15   2.0000     -10.277946      -279.6771
  16   2.0000      -8.081757      -219.9158
  17   2.0000      -8.078956      -219.8396
  18   2.0000      -6.040155      -164.3610
  19   2.0000      -6.036949      -164.2737
  20   2.0000      -6.036615      -164.2647
  21   2.0000      -6.033182      -164.1712
  22   2.0000      -6.032453      -164.1514
  23   2.0000      -6.030074      -164.0867
  24   2.0000      -1.011938       -27.5362
  25   2.0000      -0.988623       -26.9018
  26   2.0000      -0.910977       -24.7889
  27   2.0000      -0.907618       -24.6976
  28   2.0000      -0.870316       -23.6825
  29   2.0000      -0.852190       -23.1893
  30   2.0000      -0.849919       -23.1275
  31   2.0000      -0.811368       -22.0785
  32   2.0000      -0.782207       -21.2849
  33   2.0000      -0.767852       -20.8943
  34   2.0000      -0.708527       -19.2800
  35   2.0000      -0.699375       -19.0309
  36   2.0000      -0.694903       -18.9093
  37   2.0000      -0.658943       -17.9308
  38   2.0000      -0.639791       -17.4096
  39   2.0000      -0.614558       -16.7230
  40   2.0000      -0.597485       -16.2584
  41   2.0000      -0.573713       -15.6115
  42   2.0000      -0.558082       -15.1862
  43   2.0000      -0.548635       -14.9291
  44   2.0000      -0.539857       -14.6903
  45   2.0000      -0.519250       -14.1295
  46   2.0000      -0.514844       -14.0096
  47   2.0000      -0.507071       -13.7981
  48   2.0000      -0.506728       -13.7888
  49   2.0000      -0.496479       -13.5099
  50   2.0000      -0.492618       -13.4048
  51   2.0000      -0.476851       -12.9758
  52   2.0000      -0.463682       -12.6174
  53   2.0000      -0.462184       -12.5767
  54   2.0000      -0.459344       -12.4994
  55   2.0000      -0.451668       -12.2905
  56   2.0000      -0.446679       -12.1547
  57   2.0000      -0.434966       -11.8360
  58   2.0000      -0.432354       -11.7650
  59   2.0000      -0.424869       -11.5613
  60   2.0000      -0.422394       -11.4939
  61   2.0000      -0.421872       -11.4797
  62   2.0000      -0.415631       -11.3099
  63   2.0000      -0.336750        -9.1634
  64   2.0000      -0.329377        -8.9628
  65   2.0000      -0.313149        -8.5212
  66   2.0000      -0.303336        -8.2542
  67   0.0000       0.043133         1.1737
  68   0.0000       0.052210         1.4207
  69   0.0000       0.111804         3.0423
  70   0.0000       0.122396         3.3306
  71   0.0000       0.126229         3.4349

MULLIKEN ATOMIC CHARGES
-----------------------
   0 S :    0.134663
   1 C :   -0.084486
   2 C :   -0.084268
   3 C :    0.038839
   4 C :   -0.179583
   5 H :    0.002369
   6 C :    0.030434
   7 H :    0.040728
   8 H :    0.046060
   9 C :   -0.066503
  10 H :    0.029887
  11 H :    0.024723
  12 C :   -0.040028
  13 H :    0.041905
  14 H :    0.017325
  15 H :    0.036856
  16 S :    0.128420
  17 C :   -0.066734
  18 C :   -0.030190
  19 C :   -0.014044
  20 C :   -0.225965
  21 H :    0.010880
  22 C :    0.029764
  23 H :    0.035949
  24 H :    0.020376
  25 C :   -0.053938
  26 H :    0.029481
  27 H :    0.021718
  28 C :   -0.041904
  29 H :    0.037138
  30 H :    0.033510
  31 H :    0.046627
  32 H :    0.011543
  33 H :    0.038447
Sum of atomic charges:    0.0000000

LOEWDIN ATOMIC CHARGES
----------------------
   0 S :    0.393080
   1 C :   -0.186533
   2 C :   -0.069525
   3 C :   -0.052861
   4 C :   -0.199222
   5 H :    0.026349
   6 C :   -0.034887
   7 H :    0.037950
   8 H :    0.043053
   9 C :   -0.038504
  10 H :    0.023602
  11 H :    0.020272
  12 C :   -0.066662
  13 H :    0.025722
  14 H :    0.020254
  15 H :    0.031653
  16 S :    0.449674
  17 C :   -0.198157
  18 C :   -0.078376
  19 C :   -0.044032
  20 C :   -0.218600
  21 H :    0.029498
  22 C :   -0.037831
  23 H :    0.036800
  24 H :    0.025365
  25 C :   -0.036460
  26 H :    0.025489
  27 H :    0.021470
  28 C :   -0.061329
  29 H :    0.031210
  30 H :    0.017894
  31 H :    0.035158
  32 H :    0.012332
  33 H :    0.016152

  Mayer bond orders larger than 0.100000
B(  0-S ,  1-C ) :   1.1483 B(  0-S ,  4-C ) :   1.1083 B(  1-C ,  2-C ) :   1.6070
B(  1-C , 32-H ) :   0.9615 B(  2-C ,  3-C ) :   1.2329 B(  2-C ,  6-C ) :   1.0396
B(  3-C ,  4-C ) :   1.6067 B(  3-C ,  5-H ) :   0.9842 B(  4-C , 20-C ) :   1.0724
B(  6-C ,  7-H ) :   0.9409 B(  6-C ,  8-H ) :   0.9344 B(  6-C ,  9-C ) :   1.0490
B(  9-C , 10-H ) :   0.9615 B(  9-C , 11-H ) :   0.9544 B(  9-C , 12-C ) :   1.0781
B( 12-C , 13-H ) :   0.9758 B( 12-C , 14-H ) :   0.9752 B( 12-C , 15-H ) :   0.9730
B( 16-S , 17-C ) :   1.2119 B( 16-S , 20-C ) :   1.1543 B( 17-C , 18-C ) :   1.5537
B( 17-C , 20-C ) :   0.1001 B( 17-C , 33-H ) :   0.9701 B( 18-C , 19-C ) :   1.2607
B( 18-C , 21-H ) :   1.0003 B( 19-C , 20-C ) :   1.5496 B( 19-C , 22-C ) :   1.0588
B( 22-C , 23-H ) :   0.9342 B( 22-C , 24-H ) :   0.9223 B( 22-C , 25-C ) :   1.0734
B( 25-C , 26-H ) :   0.9547 B( 25-C , 27-H ) :   0.9543 B( 25-C , 28-C ) :   1.0643
B( 28-C , 29-H ) :   0.9727 B( 28-C , 30-H ) :   0.9765 B( 28-C , 31-H ) :   0.9732

Dispersion correction           -0.015156159
FINAL SINGLE POINT ENERGY     -1339.863528861908

DIPOLE MOMENT
-------------
                                X             Y             Z
Electronic contribution:     22.93897       0.45844       6.63918
Nuclear contribution   :    -23.27163      -0.52411      -6.57479
                        -----------------------------------------
Total Dipole Moment    :     -0.33266      -0.06567       0.06439
                        -----------------------------------------
Magnitude (a.u.)       :      0.34514
Magnitude (Debye)      :      0.87727

Rotational constants in cm-1:     0.021336     0.007909     0.007037
Rotational constants in MHz :   639.643446   237.107081   210.968816

                             ****ORCA TERMINATED NORMALLY****
TOTAL RUN TIME: 0 days 0 hours 0 minutes 20 seconds 925 msec
