                         Program Version 4.2.1 -  RELEASE  -
|  1> ! wB97X-D3 SP def2-SVP
|  2> %pal
|  3> nprocs 24
|  4> end
|  5>
|  6> * xyz 0 1
|  7> S 	 -52.613 	 -50.6044 	 -72.0071
|  8> C 	 -52.7818 	 -48.9186 	 -72.5433
|  9> C 	 -51.5635 	 -48.228 	 -72.5108
| 10> C 	 -50.4653 	 -49.0793 	 -72.1472
| 11> C 	 -50.8348 	 -50.386 	 -71.9218
| 12> H 	 -49.3986 	 -48.7588 	 -72.2146
| 13> C 	 -51.4397 	 -46.7898 	 -72.9913
| 14> H 	 -50.4251 	 -46.6113 	 -72.8305
| 15> H 	 -51.8278 	 -46.1009 	 -72.2213
| 16> C 	 -51.6247 	 -46.496 	 -74.4939
| 17> H 	 -50.92 	 -47.1468 	 -75.0547
| 18> H 	 -52.6138 	 -46.9392 	 -74.6663
| 19> C 	 -51.5992 	 -45.0298 	 -75.0219
| 20> H 	 -52.2447 	 -44.3392 	 -74.3484
| 21> H 	 -50.6063 	 -44.6411 	 -75.095
| 22> H 	 -52.0053 	 -44.8941 	 -75.9866
| 23> S 	 -50.4756 	 -53.0799 	 -72.1392
| 24> C 	 -49.1728 	 -53.8178 	 -71.4399
| 25> C 	 -48.4883 	 -52.944 	 -70.5184
| 26> C 	 -49.0509 	 -51.6272 	 -70.5435
| 27> C 	 -50.1067 	 -51.5657 	 -71.4339
| 28> H 	 -47.5911 	 -53.3575 	 -70.1728
| 29> C 	 -48.2586 	 -50.5411 	 -69.8074
| 30> H 	 -48.5392 	 -49.5364 	 -70.0622
| 31> H 	 -47.2271 	 -50.7157 	 -70.1765
| 32> C 	 -48.3246 	 -50.4289 	 -68.2632
| 33> H 	 -47.7625 	 -49.4885 	 -68.0713
| 34> H 	 -47.6442 	 -51.2128 	 -67.7614
| 35> C 	 -49.7273 	 -50.3704 	 -67.6191
| 36> H 	 -50.2539 	 -51.3278 	 -67.7885
| 37> H 	 -50.1655 	 -49.47 	 -67.9358
| 38> H 	 -49.5384 	 -50.2453 	 -66.5866
| 39> H 	 -53.75 	 -48.5026 	 -72.7698
| 40> H 	 -48.7889 	 -54.8412 	 -71.6226
| 41> *
| 42>
| 43>                          ****END OF INPUT****

CARTESIAN COORDINATES (ANGSTROEM)
---------------------------------
  S    -52.613000  -50.604400  -72.007100
  C    -52.781800  -48.918600  -72.543300
  C    -51.563500  -48.228000  -72.510800
  C    -50.465300  -49.079300  -72.147200
  C    -50.834800  -50.386000  -71.921800
  H    -49.398600  -48.758800  -72.214600
  C    -51.439700  -46.789800  -72.991300
  H    -50.425100  -46.611300  -72.830500
  H    -51.827800  -46.100900  -72.221300
  C    -51.624700  -46.496000  -74.493900
  H    -50.920000  -47.146800  -75.054700
  H    -52.613800  -46.939200  -74.666300
  C    -51.599200  -45.029800  -75.021900
  H    -52.244700  -44.339200  -74.348400
  H    -50.606300  -44.641100  -75.095000
  H    -52.005300  -44.894100  -75.986600
  S    -50.475600  -53.079900  -72.139200
  C    -49.172800  -53.817800  -71.439900
  C    -48.488300  -52.944000  -70.518400
  C    -49.050900  -51.627200  -70.543500
  C    -50.106700  -51.565700  -71.433900
  H    -47.591100  -53.357500  -70.172800
  C    -48.258600  -50.541100  -69.807400
  H    -48.539200  -49.536400  -70.062200
  H    -47.227100  -50.715700  -70.176500
  C    -48.324600  -50.428900  -68.263200
  H    -47.762500  -49.488500  -68.071300
  H    -47.644200  -51.212800  -67.761400
  C    -49.727300  -50.370400  -67.619100
  H    -50.253900  -51.327800  -67.788500
  H    -50.165500  -49.470000  -67.935800
  H    -49.538400  -50.245300  -66.586600
  H    -53.750000  -48.502600  -72.769800
  H    -48.788900  -54.841200  -71.622600

 Total Charge           Charge          ....    0
 Multiplicity           Mult            ....    1
 Number of Electrons    NEL             ....  134
 Basis Dimension        Dim             ....  322

ORBITAL ENERGIES
----------------

  NO   OCC          E(Eh)            E(eV)
   0   2.0000     -88.969474     -2420.9825
   1   2.0000     -88.963459     -2420.8188
   2   2.0000     -10.333076      -281.1773
   3   2.0000     -10.322600      -280.8922
   4   2.0000     -10.315842      -280.7083
   5   2.0000     -10.314110      -280.6612
   6   2.0000     -10.306150      -280.4446
   7   2.0000     -10.304139      -280.3899
   8   2.0000     -10.299638      -280.2674
   9   2.0000     -10.293471      -280.0996
  10   2.0000     -10.293270      -280.0941
  11   2.0000     -10.292975      -280.0861
  12   2.0000     -10.291696      -280.0513
  13   2.0000     -10.286794      -279.9179
  14   2.0000     -10.284553      -279.8569
  15   2.0000     -10.270652      -279.4787
  16   2.0000      -8.086414      -220.0425
  17   2.0000      -8.077348      -219.7958
  18   2.0000      -6.044616      -164.4824
  19   2.0000      -6.040390      -164.3674
  20   2.0000      -6.037589      -164.2912
  21   2.0000      -6.035832      -164.2433
  22   2.0000      -6.032096      -164.1417
  23   2.0000      -6.028074      -164.0322
  24   2.0000      -1.013009       -27.5654
  25   2.0000      -0.980029       -26.6679
  26   2.0000      -0.906888       -24.6777
  27   2.0000      -0.905909       -24.6510
  28   2.0000      -0.862315       -23.4648
  29   2.0000      -0.855644       -23.2833
  30   2.0000      -0.842752       -22.9324
  31   2.0000      -0.811816       -22.0906
  32   2.0000      -0.789316       -21.4784
  33   2.0000      -0.773599       -21.0507
  34   2.0000      -0.706334       -19.2203
  35   2.0000      -0.700483       -19.0611
  36   2.0000      -0.683966       -18.6117
  37   2.0000      -0.662804       -18.0358
  38   2.0000      -0.636240       -17.3130
  39   2.0000      -0.618707       -16.8359
  40   2.0000      -0.592763       -16.1299
  41   2.0000      -0.563628       -15.3371
  42   2.0000      -0.554354       -15.0847
  43   2.0000      -0.549110       -14.9421
  44   2.0000      -0.543517       -14.7899
  45   2.0000      -0.522181       -14.2093
  46   2.0000      -0.515425       -14.0254
  47   2.0000      -0.512058       -13.9338
  48   2.0000      -0.501842       -13.6558
  49   2.0000      -0.499761       -13.5992
  50   2.0000      -0.489509       -13.3202
  51   2.0000      -0.482007       -13.1161
  52   2.0000      -0.473059       -12.8726
  53   2.0000      -0.460052       -12.5186
  54   2.0000      -0.457129       -12.4391
  55   2.0000      -0.454430       -12.3657
  56   2.0000      -0.442316       -12.0360
  57   2.0000      -0.436891       -11.8884
  58   2.0000      -0.433066       -11.7843
  59   2.0000      -0.425241       -11.5714
  60   2.0000      -0.419475       -11.4145
  61   2.0000      -0.407350       -11.0845
  62   2.0000      -0.400998       -10.9117
  63   2.0000      -0.348634        -9.4868
  64   2.0000      -0.333337        -9.0706
  65   2.0000      -0.331265        -9.0142
  66   2.0000      -0.284703        -7.7472
  67   0.0000       0.030392         0.8270
  68   0.0000       0.068769         1.8713
  69   0.0000       0.103551         2.8178
  70   0.0000       0.112868         3.0713
  71   0.0000       0.139142         3.7863

MULLIKEN ATOMIC CHARGES
-----------------------
   0 S :    0.080144
   1 C :   -0.116960
   2 C :   -0.138753
   3 C :    0.006852
   4 C :   -0.117845
   5 H :    0.038635
   6 C :    0.108039
   7 H :   -0.021853
   8 H :    0.036596
   9 C :   -0.069478
  10 H :    0.036892
  11 H :    0.021791
  12 C :   -0.038704
  13 H :    0.038328
  14 H :    0.031676
  15 H :    0.029198
  16 S :    0.152065
  17 C :   -0.126360
  18 C :   -0.049238
  19 C :   -0.006824
  20 C :   -0.163976
  21 H :    0.004813
  22 C :    0.065492
  23 H :    0.004697
  24 H :    0.041348
  25 C :   -0.140260
  26 H :    0.028252
  27 H :    0.029751
  28 C :    0.007757
  29 H :    0.060451
  30 H :    0.024798
  31 H :    0.022821
  32 H :    0.049214
  33 H :    0.070641
Sum of atomic charges:   -0.0000000

LOEWDIN ATOMIC CHARGES
----------------------
   0 S :    0.369843
   1 C :   -0.183911
   2 C :   -0.061448
   3 C :   -0.076018
   4 C :   -0.164619
   5 H :    0.040850
   6 C :   -0.042455
   7 H :    0.017919
   8 H :    0.037594
   9 C :   -0.039927
  10 H :    0.031319
  11 H :    0.020943
  12 C :   -0.065489
  13 H :    0.036163
  14 H :    0.021364
  15 H :    0.023255
  16 S :    0.473542
  17 C :   -0.225690
  18 C :   -0.069090
  19 C :   -0.053190
  20 C :   -0.228945
  21 H :    0.021175
  22 C :   -0.034793
  23 H :    0.021890
  24 H :    0.039902
  25 C :   -0.046037
  26 H :    0.025245
  27 H :    0.021430
  28 C :   -0.055019
  29 H :    0.036974
  30 H :    0.021988
  31 H :    0.024523
  32 H :    0.023262
  33 H :    0.037450

  Mayer bond orders larger than 0.100000
B(  0-S ,  1-C ) :   1.1299 B(  0-S ,  4-C ) :   1.1442 B(  1-C ,  2-C ) :   1.6128
B(  1-C ,  4-C ) :   0.1029 B(  1-C , 32-H ) :   0.9731 B(  2-C ,  3-C ) :   1.2386
B(  2-C ,  6-C ) :   1.0252 B(  3-C ,  4-C ) :   1.6122 B(  3-C ,  5-H ) :   0.9773
B(  4-C , 20-C ) :   1.0098 B(  6-C ,  7-H ) :   0.9257 B(  6-C ,  8-H ) :   0.9287
B(  6-C ,  9-C ) :   1.0433 B(  9-C , 10-H ) :   0.9548 B(  9-C , 11-H ) :   0.9644
B(  9-C , 12-C ) :   1.0715 B( 12-C , 13-H ) :   0.9751 B( 12-C , 14-H ) :   0.9776
B( 12-C , 15-H ) :   0.9739 B( 16-S , 17-C ) :   1.2087 B( 16-S , 20-C ) :   1.1668
B( 17-C , 18-C ) :   1.5636 B( 17-C , 33-H ) :   0.9643 B( 18-C , 19-C ) :   1.2445
B( 18-C , 21-H ) :   1.0011 B( 19-C , 20-C ) :   1.5670 B( 19-C , 22-C ) :   1.0299
B( 22-C , 23-H ) :   0.9382 B( 22-C , 24-H ) :   0.9397 B( 22-C , 25-C ) :   1.0663
B( 25-C , 26-H ) :   0.9578 B( 25-C , 27-H ) :   0.9563 B( 25-C , 28-C ) :   1.0735
B( 28-C , 29-H ) :   0.9720 B( 28-C , 30-H ) :   0.9736 B( 28-C , 31-H ) :   0.9695

Dispersion correction           -0.013827227
FINAL SINGLE POINT ENERGY     -1339.854829882798

DIPOLE MOMENT
-------------
                                X             Y             Z
Electronic contribution:     -7.86416     -23.61732      -4.10974
Nuclear contribution   :      8.38571      24.03278       4.13255
                        -----------------------------------------
Total Dipole Moment    :      0.52155       0.41545       0.02281
                        -----------------------------------------
Magnitude (a.u.)       :      0.66719
Magnitude (Debye)      :      1.69586

Rotational constants in cm-1:     0.020631     0.007452     0.006409
Rotational constants in MHz :   618.508686   223.398877   192.122832

                             ****ORCA TERMINATED NORMALLY****
TOTAL RUN TIME: 0 days 0 hours 0 minutes 19 seconds 821 msec
