                         Program Version 4.2.1 -  RELEASE  -
|  1> ! wB97X-D3 SP def2-SVP
|  2> %pal
|  3> nprocs 24
|  4> end
|  5>
|  6> * xyz 0 1
|  7> S 	 27.5113 	 -6.93049 	 -112.493
|  8> C 	 28.9324 	 -8.02099 	 -112.211
|  9> C 	 28.4914 	 -9.20112 	 -111.699
| 10> C 	 27.1085 	 -9.2775 	 -111.41
| 11> C 	 26.4382 	 -8.18355 	 -111.82
| 12> H 	 26.536 	 -10.2037 	 -111.098
| 13> C 	 29.4367 	 -10.3295 	 -111.433
| 14> H 	 29.7623 	 -10.3604 	 -110.419
| 15> H 	 30.3993 	 -10.0444 	 -111.882
| 16> C 	 29.0206 	 -11.6339 	 -112.037
| 17> H 	 29.6718 	 -12.4131 	 -111.668
| 18> H 	 28.0191 	 -11.9653 	 -111.789
| 19> C 	 29.1395 	 -11.5854 	 -113.602
| 20> H 	 30.1634 	 -11.3215 	 -113.92
| 21> H 	 28.8455 	 -12.5729 	 -114.05
| 22> H 	 28.552 	 -10.753 	 -114.013
| 23> S 	 24.1338 	 -8.41496 	 -113.251
| 24> C 	 22.6493 	 -8.13533 	 -112.444
| 25> C 	 22.756 	 -8.03714 	 -111.056
| 26> C 	 24.1225 	 -8.12244 	 -110.648
| 27> C 	 24.984 	 -8.10933 	 -111.719
| 28> H 	 21.9121 	 -7.85774 	 -110.389
| 29> C 	 24.5444 	 -8.08206 	 -109.228
| 30> H 	 25.2383 	 -7.27522 	 -109.15
| 31> H 	 25.0435 	 -8.98956 	 -109.094
| 32> C 	 23.4868 	 -7.9585 	 -108.09
| 33> H 	 22.6214 	 -8.64482 	 -108.242
| 34> H 	 23.1011 	 -6.91434 	 -108.04
| 35> C 	 24.051 	 -8.2644 	 -106.709
| 36> H 	 23.3353 	 -8.07783 	 -105.92
| 37> H 	 24.9157 	 -7.63198 	 -106.5
| 38> H 	 24.2621 	 -9.33204 	 -106.52
| 39> H 	 29.9774 	 -7.69598 	 -112.282
| 40> H 	 21.7465 	 -7.95745 	 -112.954
| 41> *
| 42>
| 43>                          ****END OF INPUT****

CARTESIAN COORDINATES (ANGSTROEM)
---------------------------------
  S     27.511300   -6.930490  -112.493000
  C     28.932400   -8.020990  -112.211000
  C     28.491400   -9.201120  -111.699000
  C     27.108500   -9.277500  -111.410000
  C     26.438200   -8.183550  -111.820000
  H     26.536000  -10.203700  -111.098000
  C     29.436700  -10.329500  -111.433000
  H     29.762300  -10.360400  -110.419000
  H     30.399300  -10.044400  -111.882000
  C     29.020600  -11.633900  -112.037000
  H     29.671800  -12.413100  -111.668000
  H     28.019100  -11.965300  -111.789000
  C     29.139500  -11.585400  -113.602000
  H     30.163400  -11.321500  -113.920000
  H     28.845500  -12.572900  -114.050000
  H     28.552000  -10.753000  -114.013000
  S     24.133800   -8.414960  -113.251000
  C     22.649300   -8.135330  -112.444000
  C     22.756000   -8.037140  -111.056000
  C     24.122500   -8.122440  -110.648000
  C     24.984000   -8.109330  -111.719000
  H     21.912100   -7.857740  -110.389000
  C     24.544400   -8.082060  -109.228000
  H     25.238300   -7.275220  -109.150000
  H     25.043500   -8.989560  -109.094000
  C     23.486800   -7.958500  -108.090000
  H     22.621400   -8.644820  -108.242000
  H     23.101100   -6.914340  -108.040000
  C     24.051000   -8.264400  -106.709000
  H     23.335300   -8.077830  -105.920000
  H     24.915700   -7.631980  -106.500000
  H     24.262100   -9.332040  -106.520000
  H     29.977400   -7.695980  -112.282000
  H     21.746500   -7.957450  -112.954000

 Total Charge           Charge          ....    0
 Multiplicity           Mult            ....    1
 Number of Electrons    NEL             ....  134
 Basis Dimension        Dim             ....  322

ORBITAL ENERGIES
----------------

  NO   OCC          E(Eh)            E(eV)
   0   2.0000     -88.964769     -2420.8544
   1   2.0000     -88.962224     -2420.7852
   2   2.0000     -10.326443      -280.9968
   3   2.0000     -10.318554      -280.7821
   4   2.0000     -10.317414      -280.7511
   5   2.0000     -10.309725      -280.5419
   6   2.0000     -10.299933      -280.2754
   7   2.0000     -10.296080      -280.1706
   8   2.0000     -10.294766      -280.1348
   9   2.0000     -10.292926      -280.0848
  10   2.0000     -10.291819      -280.0546
  11   2.0000     -10.285170      -279.8737
  12   2.0000     -10.284374      -279.8520
  13   2.0000     -10.282959      -279.8135
  14   2.0000     -10.280542      -279.7478
  15   2.0000     -10.279062      -279.7075
  16   2.0000      -8.078186      -219.8186
  17   2.0000      -8.077436      -219.7982
  18   2.0000      -6.036897      -164.2723
  19   2.0000      -6.035822      -164.2431
  20   2.0000      -6.032970      -164.1655
  21   2.0000      -6.032037      -164.1401
  22   2.0000      -6.028710      -164.0495
  23   2.0000      -6.028167      -164.0348
  24   2.0000      -1.005550       -27.3624
  25   2.0000      -0.983352       -26.7584
  26   2.0000      -0.914770       -24.8922
  27   2.0000      -0.911288       -24.7974
  28   2.0000      -0.867735       -23.6123
  29   2.0000      -0.854783       -23.2598
  30   2.0000      -0.839349       -22.8398
  31   2.0000      -0.812695       -22.1145
  32   2.0000      -0.783711       -21.3258
  33   2.0000      -0.770489       -20.9661
  34   2.0000      -0.709424       -19.3044
  35   2.0000      -0.702768       -19.1233
  36   2.0000      -0.692299       -18.8384
  37   2.0000      -0.653084       -17.7713
  38   2.0000      -0.638276       -17.3684
  39   2.0000      -0.620495       -16.8845
  40   2.0000      -0.599330       -16.3086
  41   2.0000      -0.575980       -15.6732
  42   2.0000      -0.564504       -15.3609
  43   2.0000      -0.555890       -15.1265
  44   2.0000      -0.528691       -14.3864
  45   2.0000      -0.524389       -14.2693
  46   2.0000      -0.523472       -14.2444
  47   2.0000      -0.512935       -13.9577
  48   2.0000      -0.507407       -13.8072
  49   2.0000      -0.495269       -13.4770
  50   2.0000      -0.483341       -13.1524
  51   2.0000      -0.471966       -12.8429
  52   2.0000      -0.468004       -12.7350
  53   2.0000      -0.462556       -12.5868
  54   2.0000      -0.459764       -12.5108
  55   2.0000      -0.453180       -12.3316
  56   2.0000      -0.446494       -12.1497
  57   2.0000      -0.437099       -11.8941
  58   2.0000      -0.430790       -11.7224
  59   2.0000      -0.425537       -11.5795
  60   2.0000      -0.420952       -11.4547
  61   2.0000      -0.417054       -11.3486
  62   2.0000      -0.411871       -11.2076
  63   2.0000      -0.337609        -9.1868
  64   2.0000      -0.328048        -8.9266
  65   2.0000      -0.325241        -8.8503
  66   2.0000      -0.301306        -8.1990
  67   0.0000       0.036272         0.9870
  68   0.0000       0.061619         1.6767
  69   0.0000       0.114785         3.1235
  70   0.0000       0.116931         3.1818
  71   0.0000       0.134704         3.6655

MULLIKEN ATOMIC CHARGES
-----------------------
   0 S :    0.093729
   1 C :   -0.138707
   2 C :   -0.084639
   3 C :    0.019349
   4 C :   -0.161819
   5 H :    0.049557
   6 C :    0.098545
   7 H :    0.028568
   8 H :   -0.003646
   9 C :   -0.058004
  10 H :    0.024128
  11 H :    0.027542
  12 C :   -0.081703
  13 H :    0.023694
  14 H :    0.046109
  15 H :    0.046799
  16 S :    0.112364
  17 C :   -0.056977
  18 C :   -0.054258
  19 C :   -0.039864
  20 C :   -0.199900
  21 H :    0.024316
  22 C :    0.132693
  23 H :    0.036059
  24 H :    0.009625
  25 C :   -0.116730
  26 H :    0.037491
  27 H :    0.039384
  28 C :   -0.044574
  29 H :    0.025066
  30 H :    0.034675
  31 H :    0.032907
  32 H :    0.061410
  33 H :    0.036812
Sum of atomic charges:   -0.0000000

LOEWDIN ATOMIC CHARGES
----------------------
   0 S :    0.359707
   1 C :   -0.179253
   2 C :   -0.065431
   3 C :   -0.067402
   4 C :   -0.186269
   5 H :    0.047048
   6 C :   -0.034436
   7 H :    0.028654
   8 H :    0.029912
   9 C :   -0.038329
  10 H :    0.024367
  11 H :    0.019828
  12 C :   -0.067716
  13 H :    0.022733
  14 H :    0.030125
  15 H :    0.028365
  16 S :    0.410049
  17 C :   -0.184127
  18 C :   -0.075442
  19 C :   -0.048000
  20 C :   -0.197262
  21 H :    0.033662
  22 C :   -0.027740
  23 H :    0.036645
  24 H :    0.027806
  25 C :   -0.044575
  26 H :    0.025852
  27 H :    0.028688
  28 C :   -0.068218
  29 H :    0.025858
  30 H :    0.025976
  31 H :    0.026739
  32 H :    0.035335
  33 H :    0.016852

  Mayer bond orders larger than 0.100000
B(  0-S ,  1-C ) :   1.1020 B(  0-S ,  4-C ) :   1.1331 B(  1-C ,  2-C ) :   1.6508
B(  1-C , 32-H ) :   0.9657 B(  2-C ,  3-C ) :   1.2059 B(  2-C ,  6-C ) :   1.0244
B(  3-C ,  4-C ) :   1.6254 B(  3-C ,  5-H ) :   0.9772 B(  4-C , 20-C ) :   1.0191
B(  6-C ,  7-H ) :   0.9305 B(  6-C ,  8-H ) :   0.9331 B(  6-C ,  9-C ) :   1.0728
B(  9-C , 10-H ) :   0.9518 B(  9-C , 11-H ) :   0.9594 B(  9-C , 12-C ) :   1.0642
B( 12-C , 13-H ) :   0.9744 B( 12-C , 14-H ) :   0.9760 B( 12-C , 15-H ) :   0.9777
B( 16-S , 17-C ) :   1.1734 B( 16-S , 20-C ) :   1.1379 B( 17-C , 18-C ) :   1.5936
B( 17-C , 20-C ) :   0.1013 B( 17-C , 33-H ) :   0.9671 B( 18-C , 19-C ) :   1.2404
B( 18-C , 21-H ) :   0.9863 B( 19-C , 20-C ) :   1.6247 B( 19-C , 22-C ) :   1.0275
B( 22-C , 23-H ) :   0.9239 B( 22-C , 24-H ) :   0.9171 B( 22-C , 25-C ) :   1.0816
B( 25-C , 26-H ) :   0.9508 B( 25-C , 27-H ) :   0.9508 B( 25-C , 28-C ) :   1.0957
B( 28-C , 29-H ) :   0.9707 B( 28-C , 30-H ) :   0.9734 B( 28-C , 31-H ) :   0.9728

Dispersion correction           -0.014268232
FINAL SINGLE POINT ENERGY     -1339.877042774466

DIPOLE MOMENT
-------------
                                X             Y             Z
Electronic contribution:     -5.05878      13.26166     -16.42456
Nuclear contribution   :      5.14962     -13.62426      17.02598
                        -----------------------------------------
Total Dipole Moment    :      0.09084      -0.36261       0.60142
                        -----------------------------------------
Magnitude (a.u.)       :      0.70813
Magnitude (Debye)      :      1.79992

Rotational constants in cm-1:     0.017854     0.008322     0.007143
Rotational constants in MHz :   535.258198   249.485388   214.144888

                             ****ORCA TERMINATED NORMALLY****
TOTAL RUN TIME: 0 days 0 hours 0 minutes 21 seconds 443 msec
