                         Program Version 4.2.1 -  RELEASE  -
|  1> ! wB97X-D3 SP def2-SVP
|  2> %pal
|  3> nprocs 24
|  4> end
|  5>
|  6> * xyz 0 1
|  7> S 	 -41.0244 	 -47.637 	 -70.2741
|  8> C 	 -39.341 	 -47.0768 	 -69.9698
|  9> C 	 -38.4883 	 -48.1305 	 -69.8285
| 10> C 	 -39.1815 	 -49.4098 	 -69.7925
| 11> C 	 -40.5552 	 -49.3047 	 -69.8946
| 12> H 	 -38.6959 	 -50.3439 	 -69.7374
| 13> C 	 -37.01 	 -48.1408 	 -69.9722
| 14> H 	 -36.7276 	 -47.7538 	 -70.9797
| 15> H 	 -36.5651 	 -49.1812 	 -69.954
| 16> C 	 -36.2486 	 -47.4265 	 -68.9155
| 17> H 	 -36.3976 	 -46.3147 	 -68.8339
| 18> H 	 -36.7018 	 -47.7252 	 -67.9304
| 19> C 	 -34.7575 	 -47.5753 	 -69.1793
| 20> H 	 -34.4212 	 -48.5664 	 -68.9551
| 21> H 	 -34.5219 	 -47.3069 	 -70.2153
| 22> H 	 -34.2166 	 -47.0544 	 -68.4223
| 23> S 	 -42.7962 	 -50.1088 	 -71.1824
| 24> C 	 -43.8261 	 -51.3119 	 -70.3237
| 25> C 	 -43.045 	 -52.017 	 -69.4023
| 26> C 	 -41.7497 	 -51.4437 	 -69.1126
| 27> C 	 -41.5797 	 -50.3355 	 -69.9587
| 28> H 	 -43.4647 	 -52.8713 	 -68.9422
| 29> C 	 -40.7806 	 -51.8181 	 -67.9873
| 30> H 	 -40.8122 	 -51.0998 	 -67.2275
| 31> H 	 -39.7592 	 -51.7013 	 -68.3263
| 32> C 	 -40.9162 	 -53.1548 	 -67.3006
| 33> H 	 -40.963 	 -53.987 	 -68.0625
| 34> H 	 -41.8526 	 -53.0885 	 -66.7785
| 35> C 	 -39.7868 	 -53.4436 	 -66.2716
| 36> H 	 -38.8142 	 -53.4837 	 -66.7822
| 37> H 	 -40.0627 	 -54.4053 	 -65.8455
| 38> H 	 -39.77 	 -52.7433 	 -65.4918
| 39> H 	 -39.1316 	 -46.0072 	 -70.1661
| 40> H 	 -44.8213 	 -51.5214 	 -70.6928
| 41> *
| 42>
| 43>                          ****END OF INPUT****

CARTESIAN COORDINATES (ANGSTROEM)
---------------------------------
  S    -41.024400  -47.637000  -70.274100
  C    -39.341000  -47.076800  -69.969800
  C    -38.488300  -48.130500  -69.828500
  C    -39.181500  -49.409800  -69.792500
  C    -40.555200  -49.304700  -69.894600
  H    -38.695900  -50.343900  -69.737400
  C    -37.010000  -48.140800  -69.972200
  H    -36.727600  -47.753800  -70.979700
  H    -36.565100  -49.181200  -69.954000
  C    -36.248600  -47.426500  -68.915500
  H    -36.397600  -46.314700  -68.833900
  H    -36.701800  -47.725200  -67.930400
  C    -34.757500  -47.575300  -69.179300
  H    -34.421200  -48.566400  -68.955100
  H    -34.521900  -47.306900  -70.215300
  H    -34.216600  -47.054400  -68.422300
  S    -42.796200  -50.108800  -71.182400
  C    -43.826100  -51.311900  -70.323700
  C    -43.045000  -52.017000  -69.402300
  C    -41.749700  -51.443700  -69.112600
  C    -41.579700  -50.335500  -69.958700
  H    -43.464700  -52.871300  -68.942200
  C    -40.780600  -51.818100  -67.987300
  H    -40.812200  -51.099800  -67.227500
  H    -39.759200  -51.701300  -68.326300
  C    -40.916200  -53.154800  -67.300600
  H    -40.963000  -53.987000  -68.062500
  H    -41.852600  -53.088500  -66.778500
  C    -39.786800  -53.443600  -66.271600
  H    -38.814200  -53.483700  -66.782200
  H    -40.062700  -54.405300  -65.845500
  H    -39.770000  -52.743300  -65.491800
  H    -39.131600  -46.007200  -70.166100
  H    -44.821300  -51.521400  -70.692800

 Total Charge           Charge          ....    0
 Multiplicity           Mult            ....    1
 Number of Electrons    NEL             ....  134
 Basis Dimension        Dim             ....  322

ORBITAL ENERGIES
----------------

  NO   OCC          E(Eh)            E(eV)
   0   2.0000     -88.965741     -2420.8809
   1   2.0000     -88.961101     -2420.7546
   2   2.0000     -10.328919      -281.0642
   3   2.0000     -10.325968      -280.9839
   4   2.0000     -10.321682      -280.8673
   5   2.0000     -10.316926      -280.7378
   6   2.0000     -10.309732      -280.5421
   7   2.0000     -10.300690      -280.2960
   8   2.0000     -10.299442      -280.2621
   9   2.0000     -10.292812      -280.0816
  10   2.0000     -10.291856      -280.0556
  11   2.0000     -10.289883      -280.0019
  12   2.0000     -10.287092      -279.9260
  13   2.0000     -10.287032      -279.9244
  14   2.0000     -10.280114      -279.7361
  15   2.0000     -10.275139      -279.6008
  16   2.0000      -8.080043      -219.8692
  17   2.0000      -8.075048      -219.7332
  18   2.0000      -6.038518      -164.3164
  19   2.0000      -6.034768      -164.2144
  20   2.0000      -6.033745      -164.1866
  21   2.0000      -6.030703      -164.1038
  22   2.0000      -6.029781      -164.0787
  23   2.0000      -6.025526      -163.9629
  24   2.0000      -1.001552       -27.2536
  25   2.0000      -0.975723       -26.5508
  26   2.0000      -0.919007       -25.0075
  27   2.0000      -0.912753       -24.8373
  28   2.0000      -0.868656       -23.6373
  29   2.0000      -0.852450       -23.1963
  30   2.0000      -0.841756       -22.9054
  31   2.0000      -0.812804       -22.1175
  32   2.0000      -0.785424       -21.3725
  33   2.0000      -0.772423       -21.0187
  34   2.0000      -0.704977       -19.1834
  35   2.0000      -0.701627       -19.0922
  36   2.0000      -0.694039       -18.8858
  37   2.0000      -0.656925       -17.8758
  38   2.0000      -0.640742       -17.4355
  39   2.0000      -0.620566       -16.8865
  40   2.0000      -0.602195       -16.3866
  41   2.0000      -0.576320       -15.6825
  42   2.0000      -0.568066       -15.4579
  43   2.0000      -0.561657       -15.2835
  44   2.0000      -0.531260       -14.4563
  45   2.0000      -0.528405       -14.3786
  46   2.0000      -0.519798       -14.1444
  47   2.0000      -0.510327       -13.8867
  48   2.0000      -0.504029       -13.7153
  49   2.0000      -0.497555       -13.5392
  50   2.0000      -0.490378       -13.3439
  51   2.0000      -0.476992       -12.9796
  52   2.0000      -0.474504       -12.9119
  53   2.0000      -0.461381       -12.5548
  54   2.0000      -0.457506       -12.4494
  55   2.0000      -0.451151       -12.2764
  56   2.0000      -0.446942       -12.1619
  57   2.0000      -0.437172       -11.8961
  58   2.0000      -0.432532       -11.7698
  59   2.0000      -0.425422       -11.5763
  60   2.0000      -0.424133       -11.5412
  61   2.0000      -0.418080       -11.3765
  62   2.0000      -0.404198       -10.9988
  63   2.0000      -0.346959        -9.4412
  64   2.0000      -0.331333        -9.0160
  65   2.0000      -0.326172        -8.8756
  66   2.0000      -0.284621        -7.7449
  67   0.0000       0.019326         0.5259
  68   0.0000       0.068288         1.8582
  69   0.0000       0.094588         2.5739
  70   0.0000       0.125048         3.4027
  71   0.0000       0.131246         3.5714

MULLIKEN ATOMIC CHARGES
-----------------------
   0 S :    0.081845
   1 C :   -0.150580
   2 C :   -0.022421
   3 C :    0.015537
   4 C :   -0.129706
   5 H :    0.004645
   6 C :    0.033160
   7 H :    0.039074
   8 H :    0.025162
   9 C :   -0.128821
  10 H :    0.029124
  11 H :    0.032412
  12 C :    0.000582
  13 H :    0.015314
  14 H :    0.039935
  15 H :    0.021894
  16 S :    0.099695
  17 C :   -0.107744
  18 C :   -0.024457
  19 C :   -0.011053
  20 C :   -0.152888
  21 H :    0.008666
  22 C :    0.112580
  23 H :    0.017849
  24 H :   -0.002322
  25 C :   -0.127082
  26 H :    0.040023
  27 H :    0.029164
  28 C :   -0.011317
  29 H :    0.038397
  30 H :    0.034685
  31 H :    0.022515
  32 H :    0.065467
  33 H :    0.060667
Sum of atomic charges:    0.0000000

LOEWDIN ATOMIC CHARGES
----------------------
   0 S :    0.368873
   1 C :   -0.182306
   2 C :   -0.063281
   3 C :   -0.058730
   4 C :   -0.177548
   5 H :    0.022049
   6 C :   -0.040938
   7 H :    0.034756
   8 H :    0.035959
   9 C :   -0.055064
  10 H :    0.024164
  11 H :    0.029151
  12 C :   -0.060397
  13 H :    0.020180
  14 H :    0.031206
  15 H :    0.024886
  16 S :    0.385275
  17 C :   -0.171646
  18 C :   -0.058467
  19 C :   -0.049427
  20 C :   -0.194438
  21 H :    0.023999
  22 C :   -0.033341
  23 H :    0.029852
  24 H :    0.025602
  25 C :   -0.040765
  26 H :    0.027546
  27 H :    0.020818
  28 C :   -0.052550
  29 H :    0.028055
  30 H :    0.030573
  31 H :    0.017023
  32 H :    0.032792
  33 H :    0.026138

  Mayer bond orders larger than 0.100000
B(  0-S ,  1-C ) :   1.1122 B(  0-S ,  4-C ) :   1.1370 B(  1-C ,  2-C ) :   1.6265
B(  1-C , 32-H ) :   0.9696 B(  2-C ,  3-C ) :   1.2168 B(  2-C ,  6-C ) :   1.0161
B(  3-C ,  4-C ) :   1.5778 B(  3-C ,  5-H ) :   0.9967 B(  4-C , 20-C ) :   1.0618
B(  6-C ,  7-H ) :   0.9329 B(  6-C ,  8-H ) :   0.9481 B(  6-C ,  9-C ) :   1.0584
B(  9-C , 10-H ) :   0.9538 B(  9-C , 11-H ) :   0.9546 B(  9-C , 12-C ) :   1.0771
B( 12-C , 13-H ) :   0.9716 B( 12-C , 14-H ) :   0.9700 B( 12-C , 15-H ) :   0.9697
B( 16-S , 17-C ) :   1.1247 B( 16-S , 20-C ) :   1.1542 B( 17-C , 18-C ) :   1.6067
B( 17-C , 33-H ) :   0.9728 B( 18-C , 19-C ) :   1.2266 B( 18-C , 21-H ) :   0.9935
B( 19-C , 20-C ) :   1.5845 B( 19-C , 22-C ) :   1.0334 B( 22-C , 23-H ) :   0.9156
B( 22-C , 24-H ) :   0.9273 B( 22-C , 25-C ) :   1.0741 B( 25-C , 26-H ) :   0.9595
B( 25-C , 27-H ) :   0.9477 B( 25-C , 28-C ) :   1.0886 B( 28-C , 29-H ) :   0.9751
B( 28-C , 30-H ) :   0.9730 B( 28-C , 31-H ) :   0.9742

Dispersion correction           -0.013197000
FINAL SINGLE POINT ENERGY     -1339.864595108253

DIPOLE MOMENT
-------------
                                X             Y             Z
Electronic contribution:    -25.05456       8.56722     -16.30256
Nuclear contribution   :     25.54707      -8.93403      16.62339
                        -----------------------------------------
Total Dipole Moment    :      0.49251      -0.36681       0.32084
                        -----------------------------------------
Magnitude (a.u.)       :      0.69285
Magnitude (Debye)      :      1.76110

Rotational constants in cm-1:     0.017130     0.008347     0.005884
Rotational constants in MHz :   513.549641   250.229390   176.385369

                             ****ORCA TERMINATED NORMALLY****
TOTAL RUN TIME: 0 days 0 hours 0 minutes 19 seconds 833 msec
