                         Program Version 4.2.1 -  RELEASE  -
|  1> ! wB97X-D3 SP def2-SVP
|  2> %pal
|  3> nprocs 24
|  4> end
|  5>
|  6> * xyz 0 1
|  7> S 	 -34.8236 	 -33.5977 	 -91.0652
|  8> C 	 -35.9065 	 -34.1919 	 -89.8838
|  9> C 	 -35.4688 	 -34.0717 	 -88.5896
| 10> C 	 -34.1982 	 -33.4359 	 -88.5169
| 11> C 	 -33.6521 	 -33.2038 	 -89.7874
| 12> H 	 -33.6912 	 -33.3032 	 -87.6002
| 13> C 	 -36.1377 	 -34.384 	 -87.3149
| 14> H 	 -35.5495 	 -34.2122 	 -86.4332
| 15> H 	 -36.1662 	 -35.4383 	 -87.2768
| 16> C 	 -37.5394 	 -33.8177 	 -87.1485
| 17> H 	 -38.2884 	 -34.2765 	 -87.7929
| 18> H 	 -37.9339 	 -34.1977 	 -86.154
| 19> C 	 -37.6451 	 -32.3054 	 -87.0848
| 20> H 	 -37.4982 	 -31.8468 	 -88.052
| 21> H 	 -38.6391 	 -32.0794 	 -86.8476
| 22> H 	 -37.0389 	 -31.9446 	 -86.3012
| 23> S 	 -31.1213 	 -34.2721 	 -90.0753
| 24> C 	 -29.7499 	 -33.1782 	 -89.935
| 25> C 	 -30.1316 	 -31.8801 	 -89.8116
| 26> C 	 -31.5418 	 -31.6999 	 -89.8809
| 27> C 	 -32.2439 	 -32.874 	 -90.0434
| 28> H 	 -29.3572 	 -31.1153 	 -89.73
| 29> C 	 -32.1776 	 -30.3501 	 -89.8666
| 30> H 	 -33.2183 	 -30.537 	 -89.654
| 31> H 	 -32.2398 	 -29.9373 	 -90.9152
| 32> C 	 -31.4985 	 -29.3734 	 -88.801
| 33> H 	 -30.7376 	 -28.7004 	 -89.3134
| 34> H 	 -31.0122 	 -29.9532 	 -88.0649
| 35> C 	 -32.6252 	 -28.4628 	 -88.2245
| 36> H 	 -33.2331 	 -29.0198 	 -87.4698
| 37> H 	 -33.3046 	 -28.0215 	 -89.0134
| 38> H 	 -32.0901 	 -27.6295 	 -87.6418
| 39> H 	 -36.8437 	 -34.771 	 -89.9972
| 40> H 	 -28.7399 	 -33.4974 	 -89.8489
| 41> *
| 42>
| 43>                          ****END OF INPUT****

CARTESIAN COORDINATES (ANGSTROEM)
---------------------------------
  S    -34.823600  -33.597700  -91.065200
  C    -35.906500  -34.191900  -89.883800
  C    -35.468800  -34.071700  -88.589600
  C    -34.198200  -33.435900  -88.516900
  C    -33.652100  -33.203800  -89.787400
  H    -33.691200  -33.303200  -87.600200
  C    -36.137700  -34.384000  -87.314900
  H    -35.549500  -34.212200  -86.433200
  H    -36.166200  -35.438300  -87.276800
  C    -37.539400  -33.817700  -87.148500
  H    -38.288400  -34.276500  -87.792900
  H    -37.933900  -34.197700  -86.154000
  C    -37.645100  -32.305400  -87.084800
  H    -37.498200  -31.846800  -88.052000
  H    -38.639100  -32.079400  -86.847600
  H    -37.038900  -31.944600  -86.301200
  S    -31.121300  -34.272100  -90.075300
  C    -29.749900  -33.178200  -89.935000
  C    -30.131600  -31.880100  -89.811600
  C    -31.541800  -31.699900  -89.880900
  C    -32.243900  -32.874000  -90.043400
  H    -29.357200  -31.115300  -89.730000
  C    -32.177600  -30.350100  -89.866600
  H    -33.218300  -30.537000  -89.654000
  H    -32.239800  -29.937300  -90.915200
  C    -31.498500  -29.373400  -88.801000
  H    -30.737600  -28.700400  -89.313400
  H    -31.012200  -29.953200  -88.064900
  C    -32.625200  -28.462800  -88.224500
  H    -33.233100  -29.019800  -87.469800
  H    -33.304600  -28.021500  -89.013400
  H    -32.090100  -27.629500  -87.641800
  H    -36.843700  -34.771000  -89.997200
  H    -28.739900  -33.497400  -89.848900

 Total Charge           Charge          ....    0
 Multiplicity           Mult            ....    1
 Number of Electrons    NEL             ....  134
 Basis Dimension        Dim             ....  322

ORBITAL ENERGIES
----------------

  NO   OCC          E(Eh)            E(eV)
   0   2.0000     -88.969606     -2420.9860
   1   2.0000     -88.959209     -2420.7032
   2   2.0000     -10.329368      -281.0764
   3   2.0000     -10.321901      -280.8732
   4   2.0000     -10.313137      -280.6347
   5   2.0000     -10.309146      -280.5261
   6   2.0000     -10.298559      -280.2380
   7   2.0000     -10.294053      -280.1154
   8   2.0000     -10.291247      -280.0391
   9   2.0000     -10.290340      -280.0144
  10   2.0000     -10.289576      -279.9936
  11   2.0000     -10.289374      -279.9881
  12   2.0000     -10.288714      -279.9702
  13   2.0000     -10.287685      -279.9421
  14   2.0000     -10.282253      -279.7943
  15   2.0000     -10.265360      -279.3346
  16   2.0000      -8.084155      -219.9810
  17   2.0000      -8.073536      -219.6921
  18   2.0000      -6.042613      -164.4279
  19   2.0000      -6.038699      -164.3213
  20   2.0000      -6.034973      -164.2200
  21   2.0000      -6.032111      -164.1421
  22   2.0000      -6.028146      -164.0342
  23   2.0000      -6.024204      -163.9269
  24   2.0000      -1.002591       -27.2819
  25   2.0000      -0.983088       -26.7512
  26   2.0000      -0.916446       -24.9378
  27   2.0000      -0.899858       -24.4864
  28   2.0000      -0.866510       -23.5789
  29   2.0000      -0.854907       -23.2632
  30   2.0000      -0.842533       -22.9265
  31   2.0000      -0.812392       -22.1063
  32   2.0000      -0.785865       -21.3845
  33   2.0000      -0.763093       -20.7648
  34   2.0000      -0.706839       -19.2341
  35   2.0000      -0.701859       -19.0985
  36   2.0000      -0.696965       -18.9654
  37   2.0000      -0.651008       -17.7148
  38   2.0000      -0.636231       -17.3127
  39   2.0000      -0.612136       -16.6571
  40   2.0000      -0.595524       -16.2050
  41   2.0000      -0.577165       -15.7054
  42   2.0000      -0.560617       -15.2552
  43   2.0000      -0.556230       -15.1358
  44   2.0000      -0.542057       -14.7501
  45   2.0000      -0.523408       -14.2427
  46   2.0000      -0.514777       -14.0078
  47   2.0000      -0.508446       -13.8355
  48   2.0000      -0.499580       -13.5943
  49   2.0000      -0.492514       -13.4020
  50   2.0000      -0.481732       -13.1086
  51   2.0000      -0.474741       -12.9183
  52   2.0000      -0.470202       -12.7949
  53   2.0000      -0.466225       -12.6866
  54   2.0000      -0.461187       -12.5495
  55   2.0000      -0.447260       -12.1706
  56   2.0000      -0.443446       -12.0668
  57   2.0000      -0.440295       -11.9810
  58   2.0000      -0.435753       -11.8574
  59   2.0000      -0.422450       -11.4954
  60   2.0000      -0.421669       -11.4742
  61   2.0000      -0.411304       -11.1922
  62   2.0000      -0.408580       -11.1180
  63   2.0000      -0.338472        -9.2103
  64   2.0000      -0.325683        -8.8623
  65   2.0000      -0.313879        -8.5411
  66   2.0000      -0.307486        -8.3671
  67   0.0000       0.043626         1.1871
  68   0.0000       0.051743         1.4080
  69   0.0000       0.119304         3.2464
  70   0.0000       0.120998         3.2925
  71   0.0000       0.128021         3.4836

MULLIKEN ATOMIC CHARGES
-----------------------
   0 S :    0.133912
   1 C :   -0.112328
   2 C :   -0.116174
   3 C :    0.061639
   4 C :   -0.197983
   5 H :   -0.001584
   6 C :    0.122591
   7 H :    0.007022
   8 H :    0.016208
   9 C :   -0.118603
  10 H :    0.021088
  11 H :    0.016855
  12 C :    0.022969
  13 H :    0.038399
  14 H :    0.010276
  15 H :    0.019645
  16 S :    0.092687
  17 C :   -0.075236
  18 C :   -0.030827
  19 C :   -0.044728
  20 C :   -0.154237
  21 H :    0.022827
  22 C :    0.066469
  23 H :    0.019174
  24 H :    0.054418
  25 C :   -0.082841
  26 H :    0.045141
  27 H :    0.035406
  28 C :   -0.105734
  29 H :    0.046468
  30 H :    0.056034
  31 H :    0.040792
  32 H :    0.046285
  33 H :    0.043973
Sum of atomic charges:   -0.0000000

LOEWDIN ATOMIC CHARGES
----------------------
   0 S :    0.419804
   1 C :   -0.221095
   2 C :   -0.067684
   3 C :   -0.042258
   4 C :   -0.198612
   5 H :    0.025691
   6 C :   -0.036164
   7 H :    0.029733
   8 H :    0.033369
   9 C :   -0.042409
  10 H :    0.019681
  11 H :    0.026924
  12 C :   -0.053637
  13 H :    0.027512
  14 H :    0.021268
  15 H :    0.020984
  16 S :    0.379122
  17 C :   -0.166267
  18 C :   -0.079590
  19 C :   -0.053784
  20 C :   -0.197252
  21 H :    0.034801
  22 C :   -0.035636
  23 H :    0.026449
  24 H :    0.043908
  25 C :   -0.038150
  26 H :    0.031218
  27 H :    0.018112
  28 C :   -0.076790
  29 H :    0.028046
  30 H :    0.032711
  31 H :    0.030156
  32 H :    0.036414
  33 H :    0.023425

  Mayer bond orders larger than 0.100000
B(  0-S ,  1-C ) :   1.1438 B(  0-S ,  4-C ) :   1.1482 B(  1-C ,  2-C ) :   1.6244
B(  1-C , 32-H ) :   0.9533 B(  2-C ,  3-C ) :   1.2567 B(  2-C ,  6-C ) :   1.0191
B(  3-C ,  4-C ) :   1.5560 B(  3-C ,  5-H ) :   1.0036 B(  4-C , 20-C ) :   1.0102
B(  6-C ,  7-H ) :   0.9397 B(  6-C ,  8-H ) :   0.9122 B(  6-C ,  9-C ) :   1.0900
B(  9-C , 10-H ) :   0.9541 B(  9-C , 11-H ) :   0.9508 B(  9-C , 12-C ) :   1.0811
B( 12-C , 13-H ) :   0.9730 B( 12-C , 14-H ) :   0.9680 B( 12-C , 15-H ) :   0.9732
B( 16-S , 17-C ) :   1.1553 B( 16-S , 20-C ) :   1.1175 B( 17-C , 18-C ) :   1.6317
B( 17-C , 33-H ) :   0.9661 B( 18-C , 19-C ) :   1.2127 B( 18-C , 21-H ) :   0.9904
B( 19-C , 20-C ) :   1.6280 B( 19-C , 22-C ) :   1.0495 B( 22-C , 23-H ) :   0.9349
B( 22-C , 24-H ) :   0.9297 B( 22-C , 25-C ) :   1.0326 B( 25-C , 26-H ) :   0.9541
B( 25-C , 27-H ) :   0.9675 B( 25-C , 28-C ) :   1.0745 B( 28-C , 29-H ) :   0.9766
B( 28-C , 30-H ) :   0.9746 B( 28-C , 31-H ) :   0.9755

Dispersion correction           -0.014333773
FINAL SINGLE POINT ENERGY     -1339.868739747254

DIPOLE MOMENT
-------------
                                X             Y             Z
Electronic contribution:     11.93838     -17.22559     -17.45691
Nuclear contribution   :    -12.03161      17.47442      18.05389
                        -----------------------------------------
Total Dipole Moment    :     -0.09323       0.24883       0.59697
                        -----------------------------------------
Magnitude (a.u.)       :      0.65344
Magnitude (Debye)      :      1.66092

Rotational constants in cm-1:     0.017792     0.008855     0.006916
Rotational constants in MHz :   533.380819   265.453880   207.325814

                             ****ORCA TERMINATED NORMALLY****
TOTAL RUN TIME: 0 days 0 hours 0 minutes 21 seconds 589 msec
