                         Program Version 4.2.1 -  RELEASE  -
|  1> ! wB97X-D3 SP def2-SVP
|  2> %pal
|  3> nprocs 24
|  4> end
|  5>
|  6> * xyz 0 1
|  7> S 	 -48.7928 	 8.0792 	 -19.4906
|  8> C 	 -48.869 	 7.27451 	 -17.9963
|  9> C 	 -48.3626 	 8.09113 	 -16.9268
| 10> C 	 -47.8575 	 9.36739 	 -17.353
| 11> C 	 -47.9351 	 9.48451 	 -18.7049
| 12> H 	 -47.355 	 10.2826 	 -16.8325
| 13> C 	 -48.3155 	 7.78694 	 -15.3929
| 14> H 	 -49.1544 	 7.21185 	 -15.0695
| 15> H 	 -48.3853 	 8.74557 	 -14.7888
| 16> C 	 -47.0017 	 7.09906 	 -14.9792
| 17> H 	 -46.1601 	 7.72589 	 -15.2504
| 18> H 	 -46.9041 	 7.26841 	 -13.8753
| 19> C 	 -46.9371 	 5.69559 	 -15.2532
| 20> H 	 -46.0559 	 5.35267 	 -14.7424
| 21> H 	 -47.7027 	 5.10806 	 -14.7528
| 22> H 	 -46.85 	 5.42326 	 -16.2725
| 23> S 	 -46.5015 	 10.3308 	 -20.8567
| 24> C 	 -46.3411 	 12.0573 	 -21.1871
| 25> C 	 -46.8091 	 12.8195 	 -20.1498
| 26> C 	 -47.5419 	 12.0314 	 -19.2267
| 27> C 	 -47.5707 	 10.6669 	 -19.4935
| 28> H 	 -46.6051 	 13.865 	 -20.2423
| 29> C 	 -48.202 	 12.7967 	 -18.0141
| 30> H 	 -48.2518 	 13.8484 	 -18.3433
| 31> H 	 -47.5426 	 12.7045 	 -17.1551
| 32> C 	 -49.6794 	 12.4738 	 -17.635
| 33> H 	 -49.9001 	 11.438 	 -17.3346
| 34> H 	 -50.2488 	 12.6072 	 -18.5268
| 35> C 	 -50.3595 	 13.4864 	 -16.6391
| 36> H 	 -49.8135 	 13.555 	 -15.7219
| 37> H 	 -51.3242 	 13.1659 	 -16.4126
| 38> H 	 -50.48 	 14.5064 	 -17.0409
| 39> H 	 -49.3764 	 6.37575 	 -17.827
| 40> H 	 -45.7023 	 12.4683 	 -21.9659
| 41> *
| 42>
| 43>                          ****END OF INPUT****

CARTESIAN COORDINATES (ANGSTROEM)
---------------------------------
  S    -48.792800    8.079200  -19.490600
  C    -48.869000    7.274510  -17.996300
  C    -48.362600    8.091130  -16.926800
  C    -47.857500    9.367390  -17.353000
  C    -47.935100    9.484510  -18.704900
  H    -47.355000   10.282600  -16.832500
  C    -48.315500    7.786940  -15.392900
  H    -49.154400    7.211850  -15.069500
  H    -48.385300    8.745570  -14.788800
  C    -47.001700    7.099060  -14.979200
  H    -46.160100    7.725890  -15.250400
  H    -46.904100    7.268410  -13.875300
  C    -46.937100    5.695590  -15.253200
  H    -46.055900    5.352670  -14.742400
  H    -47.702700    5.108060  -14.752800
  H    -46.850000    5.423260  -16.272500
  S    -46.501500   10.330800  -20.856700
  C    -46.341100   12.057300  -21.187100
  C    -46.809100   12.819500  -20.149800
  C    -47.541900   12.031400  -19.226700
  C    -47.570700   10.666900  -19.493500
  H    -46.605100   13.865000  -20.242300
  C    -48.202000   12.796700  -18.014100
  H    -48.251800   13.848400  -18.343300
  H    -47.542600   12.704500  -17.155100
  C    -49.679400   12.473800  -17.635000
  H    -49.900100   11.438000  -17.334600
  H    -50.248800   12.607200  -18.526800
  C    -50.359500   13.486400  -16.639100
  H    -49.813500   13.555000  -15.721900
  H    -51.324200   13.165900  -16.412600
  H    -50.480000   14.506400  -17.040900
  H    -49.376400    6.375750  -17.827000
  H    -45.702300   12.468300  -21.965900

 Total Charge           Charge          ....    0
 Multiplicity           Mult            ....    1
 Number of Electrons    NEL             ....  134
 Basis Dimension        Dim             ....  322

ORBITAL ENERGIES
----------------

  NO   OCC          E(Eh)            E(eV)
   0   2.0000     -88.968704     -2420.9615
   1   2.0000     -88.962172     -2420.7838
   2   2.0000     -10.330892      -281.1179
   3   2.0000     -10.327631      -281.0291
   4   2.0000     -10.315991      -280.7124
   5   2.0000     -10.315748      -280.7058
   6   2.0000     -10.311299      -280.5847
   7   2.0000     -10.309326      -280.5310
   8   2.0000     -10.302766      -280.3525
   9   2.0000     -10.299251      -280.2569
  10   2.0000     -10.293357      -280.0965
  11   2.0000     -10.292099      -280.0623
  12   2.0000     -10.284305      -279.8502
  13   2.0000     -10.279628      -279.7229
  14   2.0000     -10.273110      -279.5455
  15   2.0000     -10.264493      -279.3111
  16   2.0000      -8.083088      -219.9520
  17   2.0000      -8.076783      -219.7804
  18   2.0000      -6.041519      -164.3981
  19   2.0000      -6.037729      -164.2950
  20   2.0000      -6.035214      -164.2265
  21   2.0000      -6.033856      -164.1896
  22   2.0000      -6.031431      -164.1236
  23   2.0000      -6.027483      -164.0161
  24   2.0000      -1.002909       -27.2905
  25   2.0000      -0.980827       -26.6897
  26   2.0000      -0.914504       -24.8849
  27   2.0000      -0.896296       -24.3895
  28   2.0000      -0.872781       -23.7496
  29   2.0000      -0.854818       -23.2608
  30   2.0000      -0.844078       -22.9685
  31   2.0000      -0.814654       -22.1679
  32   2.0000      -0.780987       -21.2517
  33   2.0000      -0.770519       -20.9669
  34   2.0000      -0.707590       -19.2545
  35   2.0000      -0.695670       -18.9301
  36   2.0000      -0.689312       -18.7571
  37   2.0000      -0.661622       -18.0036
  38   2.0000      -0.642892       -17.4940
  39   2.0000      -0.614101       -16.7105
  40   2.0000      -0.587524       -15.9873
  41   2.0000      -0.570068       -15.5123
  42   2.0000      -0.562415       -15.3041
  43   2.0000      -0.551986       -15.0203
  44   2.0000      -0.539652       -14.6847
  45   2.0000      -0.521054       -14.1786
  46   2.0000      -0.517430       -14.0800
  47   2.0000      -0.509133       -13.8542
  48   2.0000      -0.502199       -13.6655
  49   2.0000      -0.498037       -13.5523
  50   2.0000      -0.488981       -13.3058
  51   2.0000      -0.485308       -13.2059
  52   2.0000      -0.480950       -13.0873
  53   2.0000      -0.463416       -12.6102
  54   2.0000      -0.455821       -12.4035
  55   2.0000      -0.446224       -12.1424
  56   2.0000      -0.442547       -12.0423
  57   2.0000      -0.433097       -11.7852
  58   2.0000      -0.432242       -11.7619
  59   2.0000      -0.420918       -11.4538
  60   2.0000      -0.418464       -11.3870
  61   2.0000      -0.411224       -11.1900
  62   2.0000      -0.402570       -10.9545
  63   2.0000      -0.355328        -9.6690
  64   2.0000      -0.331113        -9.0100
  65   2.0000      -0.327784        -8.9195
  66   2.0000      -0.288153        -7.8410
  67   0.0000       0.026417         0.7189
  68   0.0000       0.067309         1.8316
  69   0.0000       0.103890         2.8270
  70   0.0000       0.108139         2.9426
  71   0.0000       0.134315         3.6549

MULLIKEN ATOMIC CHARGES
-----------------------
   0 S :    0.117332
   1 C :   -0.078011
   2 C :   -0.104045
   3 C :   -0.009256
   4 C :   -0.154794
   5 H :    0.060826
   6 C :    0.049300
   7 H :    0.012375
   8 H :    0.029854
   9 C :   -0.078600
  10 H :    0.017750
  11 H :    0.015469
  12 C :    0.017958
  13 H :    0.016557
  14 H :    0.018940
  15 H :    0.031699
  16 S :    0.088149
  17 C :   -0.092670
  18 C :   -0.039731
  19 C :   -0.045399
  20 C :   -0.118521
  21 H :    0.018943
  22 C :    0.044893
  23 H :    0.024505
  24 H :    0.040840
  25 C :   -0.079718
  26 H :    0.044443
  27 H :    0.022793
  28 C :   -0.033296
  29 H :    0.022417
  30 H :    0.019266
  31 H :    0.029269
  32 H :    0.032749
  33 H :    0.057716
Sum of atomic charges:   -0.0000000

LOEWDIN ATOMIC CHARGES
----------------------
   0 S :    0.401230
   1 C :   -0.209255
   2 C :   -0.057514
   3 C :   -0.070365
   4 C :   -0.178437
   5 H :    0.060150
   6 C :   -0.031920
   7 H :    0.019882
   8 H :    0.036246
   9 C :   -0.050367
  10 H :    0.024068
  11 H :    0.027139
  12 C :   -0.062562
  13 H :    0.030613
  14 H :    0.027330
  15 H :    0.021563
  16 S :    0.392947
  17 C :   -0.175314
  18 C :   -0.073622
  19 C :   -0.057584
  20 C :   -0.197079
  21 H :    0.034204
  22 C :   -0.029698
  23 H :    0.033825
  24 H :    0.024589
  25 C :   -0.042127
  26 H :    0.025781
  27 H :    0.023092
  28 C :   -0.058528
  29 H :    0.018428
  30 H :    0.019251
  31 H :    0.026300
  32 H :    0.018481
  33 H :    0.029253

  Mayer bond orders larger than 0.100000
B(  0-S ,  1-C ) :   1.1492 B(  0-S ,  4-C ) :   1.1365 B(  1-C ,  2-C ) :   1.5947
B(  1-C ,  4-C ) :   0.1002 B(  1-C , 32-H ) :   0.9755 B(  2-C ,  3-C ) :   1.2210
B(  2-C ,  6-C ) :   1.0208 B(  3-C ,  4-C ) :   1.6237 B(  3-C ,  5-H ) :   0.9694
B(  4-C , 20-C ) :   1.0209 B(  6-C ,  7-H ) :   0.9449 B(  6-C ,  8-H ) :   0.9463
B(  6-C ,  9-C ) :   1.0761 B(  9-C , 10-H ) :   0.9477 B(  9-C , 11-H ) :   0.9465
B(  9-C , 12-C ) :   1.0998 B( 12-C , 13-H ) :   0.9607 B( 12-C , 14-H ) :   0.9651
B( 12-C , 15-H ) :   0.9709 B( 16-S , 17-C ) :   1.1548 B( 16-S , 20-C ) :   1.1382
B( 17-C , 18-C ) :   1.6249 B( 17-C , 33-H ) :   0.9630 B( 18-C , 19-C ) :   1.2367
B( 18-C , 21-H ) :   0.9969 B( 19-C , 20-C ) :   1.6035 B( 19-C , 22-C ) :   1.0150
B( 22-C , 23-H ) :   0.9435 B( 22-C , 24-H ) :   0.9381 B( 22-C , 25-C ) :   1.0603
B( 25-C , 26-H ) :   0.9563 B( 25-C , 27-H ) :   0.9554 B( 25-C , 28-C ) :   1.0846
B( 28-C , 29-H ) :   0.9779 B( 28-C , 30-H ) :   0.9737 B( 28-C , 31-H ) :   0.9757

Dispersion correction           -0.014365859
FINAL SINGLE POINT ENERGY     -1339.853827055125

DIPOLE MOMENT
-------------
                                X             Y             Z
Electronic contribution:      5.06614      -3.66041     -25.41641
Nuclear contribution   :     -5.03508       3.99739      26.04680
                        -----------------------------------------
Total Dipole Moment    :      0.03105       0.33698       0.63038
                        -----------------------------------------
Magnitude (a.u.)       :      0.71547
Magnitude (Debye)      :      1.81859

Rotational constants in cm-1:     0.017490     0.008824     0.006960
Rotational constants in MHz :   524.340453   264.531636   208.654786

                             ****ORCA TERMINATED NORMALLY****
TOTAL RUN TIME: 0 days 0 hours 0 minutes 22 seconds 503 msec
