                         Program Version 4.2.1 -  RELEASE  -
|  1> ! wB97X-D3 SP def2-SVP
|  2> %pal
|  3> nprocs 24
|  4> end
|  5>
|  6> * xyz 0 1
|  7> S 	 -126.693 	 13.691 	 -11.0401
|  8> C 	 -124.946 	 13.4509 	 -10.8371
|  9> C 	 -124.566 	 12.2727 	 -11.3401
| 10> C 	 -125.711 	 11.5509 	 -11.7809
| 11> C 	 -126.91 	 12.1051 	 -11.7044
| 12> H 	 -125.604 	 10.5871 	 -12.2409
| 13> C 	 -123.23 	 11.6436 	 -11.3241
| 14> H 	 -122.652 	 12.479 	 -11.6179
| 15> H 	 -123.137 	 10.9276 	 -12.147
| 16> C 	 -122.778 	 10.9686 	 -9.9309
| 17> H 	 -122.93 	 11.7244 	 -9.10485
| 18> H 	 -123.373 	 10.1275 	 -9.69155
| 19> C 	 -121.317 	 10.5907 	 -9.87693
| 20> H 	 -120.981 	 10.3505 	 -8.89648
| 21> H 	 -121.008 	 9.77719 	 -10.5575
| 22> H 	 -120.764 	 11.549 	 -10.1568
| 23> S 	 -129.201 	 12.5374 	 -13.2196
| 24> C 	 -130.34 	 11.141 	 -13.3842
| 25> C 	 -129.858 	 10.0739 	 -12.7201
| 26> C 	 -128.618 	 10.233 	 -12.0638
| 27> C 	 -128.2 	 11.5461 	 -12.1613
| 28> H 	 -130.431 	 9.15761 	 -12.7728
| 29> C 	 -127.929 	 9.17321 	 -11.284
| 30> H 	 -128.288 	 8.93679 	 -10.3094
| 31> H 	 -126.9 	 9.48436 	 -10.9994
| 32> C 	 -127.628 	 7.95245 	 -12.0666
| 33> H 	 -127.22 	 8.09357 	 -13.0034
| 34> H 	 -128.584 	 7.55616 	 -12.4473
| 35> C 	 -126.622 	 6.91091 	 -11.2511
| 36> H 	 -125.596 	 7.25288 	 -11.1946
| 37> H 	 -126.712 	 5.87843 	 -11.6065
| 38> H 	 -126.942 	 6.69386 	 -10.2521
| 39> H 	 -124.35 	 14.1442 	 -10.2323
| 40> H 	 -131.29 	 11.191 	 -13.8922
| 41> *
| 42>
| 43>                          ****END OF INPUT****

CARTESIAN COORDINATES (ANGSTROEM)
---------------------------------
  S    -126.693000   13.691000  -11.040100
  C    -124.946000   13.450900  -10.837100
  C    -124.566000   12.272700  -11.340100
  C    -125.711000   11.550900  -11.780900
  C    -126.910000   12.105100  -11.704400
  H    -125.604000   10.587100  -12.240900
  C    -123.230000   11.643600  -11.324100
  H    -122.652000   12.479000  -11.617900
  H    -123.137000   10.927600  -12.147000
  C    -122.778000   10.968600   -9.930900
  H    -122.930000   11.724400   -9.104850
  H    -123.373000   10.127500   -9.691550
  C    -121.317000   10.590700   -9.876930
  H    -120.981000   10.350500   -8.896480
  H    -121.008000    9.777190  -10.557500
  H    -120.764000   11.549000  -10.156800
  S    -129.201000   12.537400  -13.219600
  C    -130.340000   11.141000  -13.384200
  C    -129.858000   10.073900  -12.720100
  C    -128.618000   10.233000  -12.063800
  C    -128.200000   11.546100  -12.161300
  H    -130.431000    9.157610  -12.772800
  C    -127.929000    9.173210  -11.284000
  H    -128.288000    8.936790  -10.309400
  H    -126.900000    9.484360  -10.999400
  C    -127.628000    7.952450  -12.066600
  H    -127.220000    8.093570  -13.003400
  H    -128.584000    7.556160  -12.447300
  C    -126.622000    6.910910  -11.251100
  H    -125.596000    7.252880  -11.194600
  H    -126.712000    5.878430  -11.606500
  H    -126.942000    6.693860  -10.252100
  H    -124.350000   14.144200  -10.232300
  H    -131.290000   11.191000  -13.892200

 Total Charge           Charge          ....    0
 Multiplicity           Mult            ....    1
 Number of Electrons    NEL             ....  134
 Basis Dimension        Dim             ....  322

ORBITAL ENERGIES
----------------

  NO   OCC          E(Eh)            E(eV)
   0   2.0000     -88.966054     -2420.8894
   1   2.0000     -88.958860     -2420.6937
   2   2.0000     -10.330914      -281.1185
   3   2.0000     -10.321436      -280.8606
   4   2.0000     -10.318516      -280.7811
   5   2.0000     -10.312798      -280.6255
   6   2.0000     -10.301708      -280.3237
   7   2.0000     -10.295476      -280.1542
   8   2.0000     -10.293053      -280.0882
   9   2.0000     -10.292622      -280.0765
  10   2.0000     -10.291939      -280.0579
  11   2.0000     -10.288034      -279.9516
  12   2.0000     -10.287020      -279.9240
  13   2.0000     -10.284673      -279.8602
  14   2.0000     -10.282917      -279.8124
  15   2.0000     -10.279894      -279.7301
  16   2.0000      -8.079960      -219.8669
  17   2.0000      -8.074098      -219.7074
  18   2.0000      -6.038551      -164.3173
  19   2.0000      -6.034707      -164.2127
  20   2.0000      -6.032720      -164.1587
  21   2.0000      -6.030547      -164.0995
  22   2.0000      -6.028582      -164.0461
  23   2.0000      -6.024639      -163.9388
  24   2.0000      -1.012185       -27.5430
  25   2.0000      -0.989195       -26.9174
  26   2.0000      -0.913233       -24.8503
  27   2.0000      -0.911366       -24.7995
  28   2.0000      -0.873882       -23.7795
  29   2.0000      -0.850530       -23.1441
  30   2.0000      -0.843450       -22.9515
  31   2.0000      -0.819835       -22.3088
  32   2.0000      -0.785065       -21.3627
  33   2.0000      -0.776840       -21.1389
  34   2.0000      -0.716082       -19.4856
  35   2.0000      -0.704840       -19.1797
  36   2.0000      -0.703322       -19.1384
  37   2.0000      -0.660012       -17.9599
  38   2.0000      -0.642358       -17.4795
  39   2.0000      -0.626193       -17.0396
  40   2.0000      -0.608778       -16.5657
  41   2.0000      -0.571904       -15.5623
  42   2.0000      -0.561159       -15.2699
  43   2.0000      -0.555631       -15.1195
  44   2.0000      -0.530200       -14.4275
  45   2.0000      -0.526048       -14.3145
  46   2.0000      -0.520718       -14.1695
  47   2.0000      -0.514761       -14.0074
  48   2.0000      -0.511735       -13.9250
  49   2.0000      -0.495357       -13.4794
  50   2.0000      -0.491794       -13.3824
  51   2.0000      -0.482126       -13.1193
  52   2.0000      -0.477247       -12.9865
  53   2.0000      -0.462882       -12.5957
  54   2.0000      -0.461691       -12.5632
  55   2.0000      -0.447039       -12.1646
  56   2.0000      -0.445115       -12.1122
  57   2.0000      -0.444606       -12.0983
  58   2.0000      -0.432832       -11.7779
  59   2.0000      -0.425812       -11.5869
  60   2.0000      -0.421163       -11.4604
  61   2.0000      -0.417150       -11.3512
  62   2.0000      -0.400615       -10.9013
  63   2.0000      -0.354832        -9.6555
  64   2.0000      -0.334833        -9.1113
  65   2.0000      -0.327353        -8.9077
  66   2.0000      -0.296365        -8.0645
  67   0.0000       0.031828         0.8661
  68   0.0000       0.075589         2.0569
  69   0.0000       0.106532         2.8989
  70   0.0000       0.122648         3.3374
  71   0.0000       0.129861         3.5337

MULLIKEN ATOMIC CHARGES
-----------------------
   0 S :    0.085285
   1 C :   -0.155720
   2 C :   -0.056184
   3 C :    0.000527
   4 C :   -0.123096
   5 H :   -0.005139
   6 C :    0.082382
   7 H :    0.016841
   8 H :    0.022620
   9 C :   -0.059181
  10 H :    0.032688
  11 H :    0.024521
  12 C :   -0.052670
  13 H :    0.030480
  14 H :    0.039549
  15 H :    0.031704
  16 S :    0.093643
  17 C :   -0.093353
  18 C :   -0.026046
  19 C :   -0.014737
  20 C :   -0.122730
  21 H :    0.019133
  22 C :    0.103225
  23 H :    0.027671
  24 H :    0.001540
  25 C :   -0.071431
  26 H :    0.008826
  27 H :    0.010678
  28 C :   -0.058788
  29 H :    0.046540
  30 H :    0.033570
  31 H :    0.018850
  32 H :    0.052912
  33 H :    0.055890
Sum of atomic charges:   -0.0000000

LOEWDIN ATOMIC CHARGES
----------------------
   0 S :    0.387436
   1 C :   -0.179017
   2 C :   -0.071257
   3 C :   -0.067714
   4 C :   -0.194957
   5 H :    0.024061
   6 C :   -0.029002
   7 H :    0.029174
   8 H :    0.031465
   9 C :   -0.032547
  10 H :    0.031135
  11 H :    0.016755
  12 C :   -0.070173
  13 H :    0.021480
  14 H :    0.025945
  15 H :    0.032638
  16 S :    0.372902
  17 C :   -0.162561
  18 C :   -0.066391
  19 C :   -0.057585
  20 C :   -0.175018
  21 H :    0.033210
  22 C :   -0.038042
  23 H :    0.030134
  24 H :    0.034181
  25 C :   -0.032494
  26 H :    0.013870
  27 H :    0.020316
  28 C :   -0.068877
  29 H :    0.026103
  30 H :    0.031541
  31 H :    0.021611
  32 H :    0.031088
  33 H :    0.030590

  Mayer bond orders larger than 0.100000
B(  0-S ,  1-C ) :   1.1283 B(  0-S ,  4-C ) :   1.1266 B(  1-C ,  2-C ) :   1.6264
B(  1-C , 32-H ) :   0.9694 B(  2-C ,  3-C ) :   1.2319 B(  2-C ,  6-C ) :   1.0224
B(  3-C ,  4-C ) :   1.6163 B(  3-C ,  5-H ) :   0.9919 B(  4-C , 20-C ) :   1.0071
B(  6-C ,  7-H ) :   0.9318 B(  6-C ,  8-H ) :   0.9376 B(  6-C ,  9-C ) :   1.0481
B(  9-C , 10-H ) :   0.9583 B(  9-C , 11-H ) :   0.9577 B(  9-C , 12-C ) :   1.0845
B( 12-C , 13-H ) :   0.9731 B( 12-C , 14-H ) :   0.9748 B( 12-C , 15-H ) :   0.9747
B( 16-S , 17-C ) :   1.1162 B( 16-S , 20-C ) :   1.1461 B( 17-C , 18-C ) :   1.6506
B( 17-C , 33-H ) :   0.9688 B( 18-C , 19-C ) :   1.2078 B( 18-C , 21-H ) :   0.9881
B( 19-C , 20-C ) :   1.6186 B( 19-C , 22-C ) :   1.0449 B( 22-C , 23-H ) :   0.9294
B( 22-C , 24-H ) :   0.9298 B( 22-C , 25-C ) :   1.0444 B( 25-C , 26-H ) :   0.9551
B( 25-C , 27-H ) :   0.9562 B( 25-C , 28-C ) :   1.0555 B( 28-C , 29-H ) :   0.9789
B( 28-C , 30-H ) :   0.9760 B( 28-C , 31-H ) :   0.9765

Dispersion correction           -0.014033932
FINAL SINGLE POINT ENERGY     -1339.855002495644

DIPOLE MOMENT
-------------
                                X             Y             Z
Electronic contribution:    -21.64848      24.19302      -8.29490
Nuclear contribution   :     22.04050     -24.91863       8.45180
                        -----------------------------------------
Total Dipole Moment    :      0.39202      -0.72561       0.15690
                        -----------------------------------------
Magnitude (a.u.)       :      0.83953
Magnitude (Debye)      :      2.13391

Rotational constants in cm-1:     0.017742     0.009147     0.006329
Rotational constants in MHz :   531.899537   274.228751   189.728506

                             ****ORCA TERMINATED NORMALLY****
TOTAL RUN TIME: 0 days 0 hours 0 minutes 21 seconds 847 msec
