                         Program Version 4.2.1 -  RELEASE  -
|  1> ! wB97X-D3 SP def2-SVP
|  2> %pal
|  3> nprocs 24
|  4> end
|  5>
|  6> * xyz 0 1
|  7> S 	 -101.243 	 47.1896 	 -87.314
|  8> C 	 -101.015 	 45.5834 	 -87.9267
|  9> C 	 -101.793 	 44.6757 	 -87.1575
| 10> C 	 -102.801 	 45.3835 	 -86.416
| 11> C 	 -102.471 	 46.7222 	 -86.2186
| 12> H 	 -103.654 	 44.9355 	 -85.952
| 13> C 	 -102.054 	 43.224 	 -87.4226
| 14> H 	 -101.765 	 43.1141 	 -88.4387
| 15> H 	 -103.048 	 42.963 	 -87.1869
| 16> C 	 -101.127 	 42.3667 	 -86.6702
| 17> H 	 -101.239 	 41.3341 	 -86.9146
| 18> H 	 -100.165 	 42.6434 	 -87.0194
| 19> C 	 -101.144 	 42.5937 	 -85.143
| 20> H 	 -100.859 	 41.6739 	 -84.6051
| 21> H 	 -100.432 	 43.3019 	 -84.7014
| 22> H 	 -102.144 	 42.7778 	 -84.8362
| 23> S 	 -103.942 	 49.0565 	 -86.1165
| 24> C 	 -104.684 	 49.5058 	 -84.7057
| 25> C 	 -104.559 	 48.6138 	 -83.6983
| 26> C 	 -103.674 	 47.5406 	 -84.0315
| 27> C 	 -103.252 	 47.6304 	 -85.3424
| 28> H 	 -105.103 	 48.8095 	 -82.7827
| 29> C 	 -103.313 	 46.4312 	 -83.0441
| 30> H 	 -102.813 	 47.0019 	 -82.2321
| 31> H 	 -102.546 	 45.9014 	 -83.4649
| 32> C 	 -104.449 	 45.4708 	 -82.6649
| 33> H 	 -104.59 	 44.902 	 -83.5072
| 34> H 	 -105.388 	 46.0409 	 -82.4517
| 35> C 	 -103.983 	 44.7167 	 -81.4132
| 36> H 	 -104.833 	 43.9963 	 -81.1714
| 37> H 	 -103.743 	 45.2868 	 -80.4933
| 38> H 	 -103.071 	 44.2336 	 -81.7303
| 39> H 	 -100.311 	 45.4023 	 -88.7444
| 40> H 	 -105.173 	 50.4255 	 -84.5899
| 41> *
| 42>
| 43>                          ****END OF INPUT****

CARTESIAN COORDINATES (ANGSTROEM)
---------------------------------
  S    -101.243000   47.189600  -87.314000
  C    -101.015000   45.583400  -87.926700
  C    -101.793000   44.675700  -87.157500
  C    -102.801000   45.383500  -86.416000
  C    -102.471000   46.722200  -86.218600
  H    -103.654000   44.935500  -85.952000
  C    -102.054000   43.224000  -87.422600
  H    -101.765000   43.114100  -88.438700
  H    -103.048000   42.963000  -87.186900
  C    -101.127000   42.366700  -86.670200
  H    -101.239000   41.334100  -86.914600
  H    -100.165000   42.643400  -87.019400
  C    -101.144000   42.593700  -85.143000
  H    -100.859000   41.673900  -84.605100
  H    -100.432000   43.301900  -84.701400
  H    -102.144000   42.777800  -84.836200
  S    -103.942000   49.056500  -86.116500
  C    -104.684000   49.505800  -84.705700
  C    -104.559000   48.613800  -83.698300
  C    -103.674000   47.540600  -84.031500
  C    -103.252000   47.630400  -85.342400
  H    -105.103000   48.809500  -82.782700
  C    -103.313000   46.431200  -83.044100
  H    -102.813000   47.001900  -82.232100
  H    -102.546000   45.901400  -83.464900
  C    -104.449000   45.470800  -82.664900
  H    -104.590000   44.902000  -83.507200
  H    -105.388000   46.040900  -82.451700
  C    -103.983000   44.716700  -81.413200
  H    -104.833000   43.996300  -81.171400
  H    -103.743000   45.286800  -80.493300
  H    -103.071000   44.233600  -81.730300
  H    -100.311000   45.402300  -88.744400
  H    -105.173000   50.425500  -84.589900

 Total Charge           Charge          ....    0
 Multiplicity           Mult            ....    1
 Number of Electrons    NEL             ....  134
 Basis Dimension        Dim             ....  322

ORBITAL ENERGIES
----------------

  NO   OCC          E(Eh)            E(eV)
   0   2.0000     -88.966891     -2420.9122
   1   2.0000     -88.958327     -2420.6791
   2   2.0000     -10.325442      -280.9695
   3   2.0000     -10.322674      -280.8943
   4   2.0000     -10.320202      -280.8270
   5   2.0000     -10.302710      -280.3510
   6   2.0000     -10.301522      -280.3187
   7   2.0000     -10.301141      -280.3083
   8   2.0000     -10.290609      -280.0217
   9   2.0000     -10.285396      -279.8798
  10   2.0000     -10.285248      -279.8758
  11   2.0000     -10.284797      -279.8636
  12   2.0000     -10.282262      -279.7946
  13   2.0000     -10.278318      -279.6873
  14   2.0000     -10.274353      -279.5794
  15   2.0000     -10.273331      -279.5515
  16   2.0000      -8.082339      -219.9316
  17   2.0000      -8.075305      -219.7402
  18   2.0000      -6.040670      -164.3750
  19   2.0000      -6.036617      -164.2647
  20   2.0000      -6.033487      -164.1795
  21   2.0000      -6.033375      -164.1765
  22   2.0000      -6.029545      -164.0723
  23   2.0000      -6.026226      -163.9820
  24   2.0000      -1.011522       -27.5249
  25   2.0000      -0.991810       -26.9885
  26   2.0000      -0.926071       -25.1997
  27   2.0000      -0.914461       -24.8837
  28   2.0000      -0.866406       -23.5761
  29   2.0000      -0.853311       -23.2198
  30   2.0000      -0.845223       -22.9997
  31   2.0000      -0.812369       -22.1057
  32   2.0000      -0.785841       -21.3838
  33   2.0000      -0.773161       -21.0388
  34   2.0000      -0.707159       -19.2428
  35   2.0000      -0.704899       -19.1813
  36   2.0000      -0.693227       -18.8637
  37   2.0000      -0.659641       -17.9498
  38   2.0000      -0.644395       -17.5349
  39   2.0000      -0.615559       -16.7502
  40   2.0000      -0.599587       -16.3156
  41   2.0000      -0.584026       -15.8922
  42   2.0000      -0.564756       -15.3678
  43   2.0000      -0.556903       -15.1541
  44   2.0000      -0.544713       -14.8224
  45   2.0000      -0.529108       -14.3978
  46   2.0000      -0.517406       -14.0793
  47   2.0000      -0.513559       -13.9746
  48   2.0000      -0.504724       -13.7342
  49   2.0000      -0.500206       -13.6113
  50   2.0000      -0.492903       -13.4126
  51   2.0000      -0.480739       -13.0816
  52   2.0000      -0.473500       -12.8846
  53   2.0000      -0.462963       -12.5979
  54   2.0000      -0.460780       -12.5385
  55   2.0000      -0.452951       -12.3254
  56   2.0000      -0.444289       -12.0897
  57   2.0000      -0.439698       -11.9648
  58   2.0000      -0.435434       -11.8488
  59   2.0000      -0.426539       -11.6067
  60   2.0000      -0.420723       -11.4485
  61   2.0000      -0.415419       -11.3041
  62   2.0000      -0.406471       -11.0606
  63   2.0000      -0.338485        -9.2106
  64   2.0000      -0.329989        -8.9795
  65   2.0000      -0.326485        -8.8841
  66   2.0000      -0.294583        -8.0160
  67   0.0000       0.034510         0.9391
  68   0.0000       0.077941         2.1209
  69   0.0000       0.114043         3.1033
  70   0.0000       0.123436         3.3589
  71   0.0000       0.126372         3.4387

MULLIKEN ATOMIC CHARGES
-----------------------
   0 S :    0.123228
   1 C :   -0.140017
   2 C :   -0.098938
   3 C :    0.009149
   4 C :   -0.142921
   5 H :    0.009588
   6 C :    0.121232
   7 H :    0.012663
   8 H :    0.015156
   9 C :   -0.042969
  10 H :    0.021504
  11 H :    0.005503
  12 C :   -0.049196
  13 H :    0.023007
  14 H :    0.045396
  15 H :    0.008361
  16 S :    0.109967
  17 C :   -0.060334
  18 C :   -0.050708
  19 C :   -0.048664
  20 C :   -0.166132
  21 H :    0.013964
  22 C :    0.085620
  23 H :    0.031978
  24 H :   -0.008132
  25 C :   -0.032038
  26 H :    0.009081
  27 H :    0.035608
  28 C :   -0.061562
  29 H :    0.045553
  30 H :    0.045687
  31 H :    0.029257
  32 H :    0.065648
  33 H :    0.034462
Sum of atomic charges:   -0.0000000

LOEWDIN ATOMIC CHARGES
----------------------
   0 S :    0.434873
   1 C :   -0.209132
   2 C :   -0.054481
   3 C :   -0.057581
   4 C :   -0.215595
   5 H :    0.024097
   6 C :   -0.023035
   7 H :    0.031818
   8 H :    0.021984
   9 C :   -0.036575
  10 H :    0.020114
  11 H :    0.018824
  12 C :   -0.069444
  13 H :    0.028758
  14 H :    0.031563
  15 H :    0.013987
  16 S :    0.429762
  17 C :   -0.198994
  18 C :   -0.080407
  19 C :   -0.049288
  20 C :   -0.200109
  21 H :    0.031744
  22 C :   -0.026179
  23 H :    0.036924
  24 H :    0.014241
  25 C :   -0.027893
  26 H :    0.012929
  27 H :    0.026744
  28 C :   -0.066710
  29 H :    0.032965
  30 H :    0.030177
  31 H :    0.023702
  32 H :    0.030663
  33 H :    0.019556

  Mayer bond orders larger than 0.100000
B(  0-S ,  1-C ) :   1.1657 B(  0-S ,  4-C ) :   1.1770 B(  1-C ,  2-C ) :   1.5482
B(  1-C ,  4-C ) :   0.1031 B(  1-C , 32-H ) :   0.9699 B(  2-C ,  3-C ) :   1.2567
B(  2-C ,  6-C ) :   1.0320 B(  3-C ,  4-C ) :   1.5383 B(  3-C ,  5-H ) :   0.9947
B(  4-C , 20-C ) :   1.0158 B(  6-C ,  7-H ) :   0.9355 B(  6-C ,  8-H ) :   0.9465
B(  6-C ,  9-C ) :   1.0843 B(  9-C , 10-H ) :   0.9567 B(  9-C , 11-H ) :   0.9529
B(  9-C , 12-C ) :   1.0684 B( 12-C , 13-H ) :   0.9728 B( 12-C , 14-H ) :   0.9729
B( 12-C , 15-H ) :   0.9786 B( 16-S , 17-C ) :   1.1822 B( 16-S , 20-C ) :   1.1422
B( 17-C , 18-C ) :   1.6114 B( 17-C , 33-H ) :   0.9691 B( 18-C , 19-C ) :   1.2214
B( 18-C , 21-H ) :   0.9977 B( 19-C , 20-C ) :   1.6192 B( 19-C , 22-C ) :   1.0368
B( 22-C , 23-H ) :   0.9380 B( 22-C , 24-H ) :   0.9204 B( 22-C , 25-C ) :   1.0531
B( 25-C , 26-H ) :   0.9500 B( 25-C , 27-H ) :   0.9624 B( 25-C , 28-C ) :   1.0720
B( 28-C , 29-H ) :   0.9741 B( 28-C , 30-H ) :   0.9786 B( 28-C , 31-H ) :   0.9718

Dispersion correction           -0.014974914
FINAL SINGLE POINT ENERGY     -1339.856836863107

DIPOLE MOMENT
-------------
                                X             Y             Z
Electronic contribution:      0.27906      26.15191     -16.71146
Nuclear contribution   :     -0.41811     -26.65572      16.97639
                        -----------------------------------------
Total Dipole Moment    :     -0.13905      -0.50380       0.26493
                        -----------------------------------------
Magnitude (a.u.)       :      0.58595
Magnitude (Debye)      :      1.48938

Rotational constants in cm-1:     0.016716     0.010713     0.006970
Rotational constants in MHz :   501.136668   321.173099   208.951624

                             ****ORCA TERMINATED NORMALLY****
TOTAL RUN TIME: 0 days 0 hours 0 minutes 22 seconds 591 msec
