                         Program Version 4.2.1 -  RELEASE  -
|  1> ! wB97X-D3 SP def2-SVP
|  2> %pal
|  3> nprocs 24
|  4> end
|  5>
|  6> * xyz 0 1
|  7> S 	 -100.098 	 -1.18289 	 -110.477
|  8> C 	 -101.481 	 -1.54364 	 -111.508
|  9> C 	 -102.435 	 -2.2311 	 -110.741
| 10> C 	 -102.029 	 -2.35829 	 -109.374
| 11> C 	 -100.987 	 -1.53348 	 -109.003
| 12> H 	 -102.59 	 -2.82537 	 -108.584
| 13> C 	 -103.69 	 -2.87351 	 -111.341
| 14> H 	 -104.178 	 -2.20938 	 -112.026
| 15> H 	 -104.402 	 -3.0307 	 -110.589
| 16> C 	 -103.528 	 -4.11525 	 -112.06
| 17> H 	 -103.026 	 -3.81976 	 -112.994
| 18> H 	 -102.901 	 -4.83674 	 -111.551
| 19> C 	 -104.832 	 -4.81071 	 -112.526
| 20> H 	 -104.591 	 -5.85146 	 -112.794
| 21> H 	 -105.582 	 -4.97404 	 -111.67
| 22> H 	 -105.393 	 -4.3697 	 -113.33
| 23> S 	 -98.6993 	 -1.54201 	 -107.494
| 24> C 	 -98.8203 	 -1.10587 	 -105.806
| 25> C 	 -100.01 	 -0.506635 	 -105.502
| 26> C 	 -100.92 	 -0.525331 	 -106.64
| 27> C 	 -100.391 	 -1.20313 	 -107.764
| 28> H 	 -100.243 	 -0.246823 	 -104.489
| 29> C 	 -102.287 	 0.102066 	 -106.515
| 30> H 	 -102.833 	 -0.357212 	 -105.749
| 31> H 	 -102.802 	 -0.0270688 	 -107.409
| 32> C 	 -102.405 	 1.51726 	 -106.088
| 33> H 	 -101.86 	 1.77516 	 -105.256
| 34> H 	 -103.478 	 1.81132 	 -105.885
| 35> C 	 -101.951 	 2.45461 	 -107.174
| 36> H 	 -102.402 	 2.13158 	 -108.198
| 37> H 	 -100.873 	 2.36492 	 -107.503
| 38> H 	 -102.247 	 3.54165 	 -107.019
| 39> H 	 -101.617 	 -1.36023 	 -112.561
| 40> H 	 -97.9952 	 -1.04736 	 -105.115
| 41> *
| 42>
| 43>                          ****END OF INPUT****

CARTESIAN COORDINATES (ANGSTROEM)
---------------------------------
  S    -100.098000   -1.182890  -110.477000
  C    -101.481000   -1.543640  -111.508000
  C    -102.435000   -2.231100  -110.741000
  C    -102.029000   -2.358290  -109.374000
  C    -100.987000   -1.533480  -109.003000
  H    -102.590000   -2.825370  -108.584000
  C    -103.690000   -2.873510  -111.341000
  H    -104.178000   -2.209380  -112.026000
  H    -104.402000   -3.030700  -110.589000
  C    -103.528000   -4.115250  -112.060000
  H    -103.026000   -3.819760  -112.994000
  H    -102.901000   -4.836740  -111.551000
  C    -104.832000   -4.810710  -112.526000
  H    -104.591000   -5.851460  -112.794000
  H    -105.582000   -4.974040  -111.670000
  H    -105.393000   -4.369700  -113.330000
  S    -98.699300   -1.542010  -107.494000
  C    -98.820300   -1.105870  -105.806000
  C    -100.010000   -0.506635  -105.502000
  C    -100.920000   -0.525331  -106.640000
  C    -100.391000   -1.203130  -107.764000
  H    -100.243000   -0.246823  -104.489000
  C    -102.287000    0.102066  -106.515000
  H    -102.833000   -0.357212  -105.749000
  H    -102.802000   -0.027069  -107.409000
  C    -102.405000    1.517260  -106.088000
  H    -101.860000    1.775160  -105.256000
  H    -103.478000    1.811320  -105.885000
  C    -101.951000    2.454610  -107.174000
  H    -102.402000    2.131580  -108.198000
  H    -100.873000    2.364920  -107.503000
  H    -102.247000    3.541650  -107.019000
  H    -101.617000   -1.360230  -112.561000
  H    -97.995200   -1.047360  -105.115000

 Total Charge           Charge          ....    0
 Multiplicity           Mult            ....    1
 Number of Electrons    NEL             ....  134
 Basis Dimension        Dim             ....  322

ORBITAL ENERGIES
----------------

  NO   OCC          E(Eh)            E(eV)
   0   2.0000     -88.966903     -2420.9125
   1   2.0000     -88.962297     -2420.7872
   2   2.0000     -10.329473      -281.0793
   3   2.0000     -10.329134      -281.0700
   4   2.0000     -10.318065      -280.7688
   5   2.0000     -10.317931      -280.7652
   6   2.0000     -10.311309      -280.5850
   7   2.0000     -10.306000      -280.4405
   8   2.0000     -10.296771      -280.1894
   9   2.0000     -10.295714      -280.1606
  10   2.0000     -10.285259      -279.8761
  11   2.0000     -10.282172      -279.7921
  12   2.0000     -10.280979      -279.7597
  13   2.0000     -10.280831      -279.7556
  14   2.0000     -10.279363      -279.7157
  15   2.0000     -10.277093      -279.6539
  16   2.0000      -8.081948      -219.9210
  17   2.0000      -8.077116      -219.7895
  18   2.0000      -6.040555      -164.3719
  19   2.0000      -6.036509      -164.2618
  20   2.0000      -6.035714      -164.2401
  21   2.0000      -6.032471      -164.1519
  22   2.0000      -6.031777      -164.1330
  23   2.0000      -6.027585      -164.0189
  24   2.0000      -1.010084       -27.4858
  25   2.0000      -0.984532       -26.7905
  26   2.0000      -0.923765       -25.1369
  27   2.0000      -0.920894       -25.0588
  28   2.0000      -0.876359       -23.8469
  29   2.0000      -0.848204       -23.0808
  30   2.0000      -0.840903       -22.8821
  31   2.0000      -0.818349       -22.2684
  32   2.0000      -0.785966       -21.3872
  33   2.0000      -0.773049       -21.0357
  34   2.0000      -0.710397       -19.3309
  35   2.0000      -0.699619       -19.0376
  36   2.0000      -0.695413       -18.9231
  37   2.0000      -0.658451       -17.9174
  38   2.0000      -0.646258       -17.5856
  39   2.0000      -0.621611       -16.9149
  40   2.0000      -0.604982       -16.4624
  41   2.0000      -0.574744       -15.6396
  42   2.0000      -0.570534       -15.5250
  43   2.0000      -0.556822       -15.1519
  44   2.0000      -0.545341       -14.8395
  45   2.0000      -0.522658       -14.2222
  46   2.0000      -0.520518       -14.1640
  47   2.0000      -0.516746       -14.0614
  48   2.0000      -0.512852       -13.9554
  49   2.0000      -0.503573       -13.7029
  50   2.0000      -0.495911       -13.4944
  51   2.0000      -0.478293       -13.0150
  52   2.0000      -0.469560       -12.7774
  53   2.0000      -0.461213       -12.5502
  54   2.0000      -0.455069       -12.3830
  55   2.0000      -0.447203       -12.1690
  56   2.0000      -0.445691       -12.1279
  57   2.0000      -0.434837       -11.8325
  58   2.0000      -0.429262       -11.6808
  59   2.0000      -0.426580       -11.6078
  60   2.0000      -0.419115       -11.4047
  61   2.0000      -0.409895       -11.1538
  62   2.0000      -0.406753       -11.0683
  63   2.0000      -0.349127        -9.5002
  64   2.0000      -0.329924        -8.9777
  65   2.0000      -0.325909        -8.8684
  66   2.0000      -0.290331        -7.9003
  67   0.0000       0.022987         0.6255
  68   0.0000       0.058278         1.5858
  69   0.0000       0.100660         2.7391
  70   0.0000       0.114884         3.1261
  71   0.0000       0.135526         3.6878

MULLIKEN ATOMIC CHARGES
-----------------------
   0 S :    0.087736
   1 C :   -0.092974
   2 C :   -0.115947
   3 C :    0.068582
   4 C :   -0.178560
   5 H :    0.009560
   6 C :    0.121430
   7 H :    0.012196
   8 H :   -0.009001
   9 C :   -0.061121
  10 H :    0.019467
  11 H :    0.029549
  12 C :   -0.077451
  13 H :    0.036269
  14 H :    0.029834
  15 H :    0.037642
  16 S :    0.108676
  17 C :   -0.076008
  18 C :   -0.034656
  19 C :   -0.047918
  20 C :   -0.146277
  21 H :    0.022803
  22 C :    0.146597
  23 H :    0.013035
  24 H :    0.001759
  25 C :   -0.043108
  26 H :    0.011089
  27 H :    0.035557
  28 C :   -0.131203
  29 H :    0.023955
  30 H :    0.047882
  31 H :    0.047640
  32 H :    0.046972
  33 H :    0.055994
Sum of atomic charges:   -0.0000000

LOEWDIN ATOMIC CHARGES
----------------------
   0 S :    0.390634
   1 C :   -0.187312
   2 C :   -0.057274
   3 C :   -0.057818
   4 C :   -0.185887
   5 H :    0.029053
   6 C :   -0.033688
   7 H :    0.031200
   8 H :    0.018160
   9 C :   -0.041439
  10 H :    0.025813
  11 H :    0.024425
  12 C :   -0.071680
  13 H :    0.030923
  14 H :    0.028656
  15 H :    0.021344
  16 S :    0.405145
  17 C :   -0.177801
  18 C :   -0.068620
  19 C :   -0.039728
  20 C :   -0.210082
  21 H :    0.031151
  22 C :   -0.026583
  23 H :    0.029755
  24 H :    0.022253
  25 C :   -0.038974
  26 H :    0.011696
  27 H :    0.036294
  28 C :   -0.086753
  29 H :    0.028257
  30 H :    0.030754
  31 H :    0.029107
  32 H :    0.029345
  33 H :    0.029675

  Mayer bond orders larger than 0.100000
B(  0-S ,  1-C ) :   1.1361 B(  0-S ,  4-C ) :   1.1315 B(  1-C ,  2-C ) :   1.5939
B(  1-C ,  4-C ) :   0.1125 B(  1-C , 32-H ) :   0.9745 B(  2-C ,  3-C ) :   1.2383
B(  2-C ,  6-C ) :   1.0296 B(  3-C ,  4-C ) :   1.5721 B(  3-C ,  5-H ) :   0.9918
B(  4-C , 20-C ) :   1.0844 B(  6-C ,  7-H ) :   0.9340 B(  6-C ,  8-H ) :   0.9312
B(  6-C ,  9-C ) :   1.0792 B(  9-C , 10-H ) :   0.9493 B(  9-C , 11-H ) :   0.9552
B(  9-C , 12-C ) :   1.0792 B( 12-C , 13-H ) :   0.9746 B( 12-C , 14-H ) :   0.9731
B( 12-C , 15-H ) :   0.9770 B( 16-S , 17-C ) :   1.1495 B( 16-S , 20-C ) :   1.1239
B( 17-C , 18-C ) :   1.6371 B( 17-C , 33-H ) :   0.9636 B( 18-C , 19-C ) :   1.2160
B( 18-C , 21-H ) :   0.9909 B( 19-C , 20-C ) :   1.5812 B( 19-C , 22-C ) :   1.0580
B( 22-C , 23-H ) :   0.9200 B( 22-C , 24-H ) :   0.9272 B( 22-C , 25-C ) :   1.0823
B( 25-C , 26-H ) :   0.9496 B( 25-C , 27-H ) :   0.9500 B( 25-C , 28-C ) :   1.0696
B( 28-C , 29-H ) :   0.9712 B( 28-C , 30-H ) :   0.9726 B( 28-C , 31-H ) :   0.9743

Dispersion correction           -0.013863311
FINAL SINGLE POINT ENERGY     -1339.846755704377

DIPOLE MOMENT
-------------
                                X             Y             Z
Electronic contribution:     23.88393      -0.81447       4.12494
Nuclear contribution   :    -24.49043       0.76284      -3.88666
                        -----------------------------------------
Total Dipole Moment    :     -0.60651      -0.05163       0.23828
                        -----------------------------------------
Magnitude (a.u.)       :      0.65368
Magnitude (Debye)      :      1.66152

Rotational constants in cm-1:     0.021905     0.007273     0.006425
Rotational constants in MHz :   656.701410   218.030601   192.619792

                             ****ORCA TERMINATED NORMALLY****
TOTAL RUN TIME: 0 days 0 hours 0 minutes 21 seconds 241 msec
