                         Program Version 4.2.1 -  RELEASE  -
|  1> ! wB97X-D3 SP def2-SVP
|  2> %pal
|  3> nprocs 24
|  4> end
|  5>
|  6> * xyz 0 1
|  7> S 	 -99.9449 	 -2.86343 	 -109.477
|  8> C 	 -100.538 	 -3.52214 	 -110.981
|  9> C 	 -101.835 	 -3.89823 	 -110.879
| 10> C 	 -102.425 	 -3.77013 	 -109.567
| 11> C 	 -101.555 	 -3.1018 	 -108.775
| 12> H 	 -103.42 	 -4.06836 	 -109.228
| 13> C 	 -102.65 	 -4.47473 	 -111.938
| 14> H 	 -103.104 	 -5.42633 	 -111.546
| 15> H 	 -102.051 	 -4.96984 	 -112.744
| 16> C 	 -103.727 	 -3.54659 	 -112.478
| 17> H 	 -104.482 	 -3.2869 	 -111.736
| 18> H 	 -103.333 	 -2.49794 	 -112.656
| 19> C 	 -104.426 	 -4.18118 	 -113.689
| 20> H 	 -105.207 	 -3.52916 	 -114.029
| 21> H 	 -103.714 	 -4.27754 	 -114.558
| 22> H 	 -104.758 	 -5.12683 	 -113.426
| 23> S 	 -101.236 	 -3.20159 	 -106.065
| 24> C 	 -102.231 	 -2.27019 	 -105.083
| 25> C 	 -102.946 	 -1.28978 	 -105.764
| 26> C 	 -102.859 	 -1.55726 	 -107.183
| 27> C 	 -101.929 	 -2.54044 	 -107.517
| 28> H 	 -103.492 	 -0.564711 	 -105.142
| 29> C 	 -103.86 	 -1.0079 	 -108.203
| 30> H 	 -104.906 	 -1.25835 	 -107.868
| 31> H 	 -103.717 	 -1.58433 	 -109.163
| 32> C 	 -103.908 	 0.445562 	 -108.566
| 33> H 	 -104.287 	 1.07392 	 -107.726
| 34> H 	 -104.626 	 0.432108 	 -109.381
| 35> C 	 -102.592 	 0.829006 	 -109.144
| 36> H 	 -102.812 	 1.84394 	 -109.589
| 37> H 	 -102.316 	 0.100831 	 -109.964
| 38> H 	 -101.814 	 0.899016 	 -108.371
| 39> H 	 -99.959 	 -3.74613 	 -111.875
| 40> H 	 -102.197 	 -2.06424 	 -104.037
| 41> *
| 42>
| 43>                          ****END OF INPUT****

CARTESIAN COORDINATES (ANGSTROEM)
---------------------------------
  S    -99.944900   -2.863430  -109.477000
  C    -100.538000   -3.522140  -110.981000
  C    -101.835000   -3.898230  -110.879000
  C    -102.425000   -3.770130  -109.567000
  C    -101.555000   -3.101800  -108.775000
  H    -103.420000   -4.068360  -109.228000
  C    -102.650000   -4.474730  -111.938000
  H    -103.104000   -5.426330  -111.546000
  H    -102.051000   -4.969840  -112.744000
  C    -103.727000   -3.546590  -112.478000
  H    -104.482000   -3.286900  -111.736000
  H    -103.333000   -2.497940  -112.656000
  C    -104.426000   -4.181180  -113.689000
  H    -105.207000   -3.529160  -114.029000
  H    -103.714000   -4.277540  -114.558000
  H    -104.758000   -5.126830  -113.426000
  S    -101.236000   -3.201590  -106.065000
  C    -102.231000   -2.270190  -105.083000
  C    -102.946000   -1.289780  -105.764000
  C    -102.859000   -1.557260  -107.183000
  C    -101.929000   -2.540440  -107.517000
  H    -103.492000   -0.564711  -105.142000
  C    -103.860000   -1.007900  -108.203000
  H    -104.906000   -1.258350  -107.868000
  H    -103.717000   -1.584330  -109.163000
  C    -103.908000    0.445562  -108.566000
  H    -104.287000    1.073920  -107.726000
  H    -104.626000    0.432108  -109.381000
  C    -102.592000    0.829006  -109.144000
  H    -102.812000    1.843940  -109.589000
  H    -102.316000    0.100831  -109.964000
  H    -101.814000    0.899016  -108.371000
  H    -99.959000   -3.746130  -111.875000
  H    -102.197000   -2.064240  -104.037000

 Total Charge           Charge          ....    0
 Multiplicity           Mult            ....    1
 Number of Electrons    NEL             ....  134
 Basis Dimension        Dim             ....  322

ORBITAL ENERGIES
----------------

  NO   OCC          E(Eh)            E(eV)
   0   2.0000     -88.965758     -2420.8813
   1   2.0000     -88.963794     -2420.8279
   2   2.0000     -10.324741      -280.9505
   3   2.0000     -10.319264      -280.8015
   4   2.0000     -10.310930      -280.5747
   5   2.0000     -10.309069      -280.5240
   6   2.0000     -10.306678      -280.4590
   7   2.0000     -10.295715      -280.1606
   8   2.0000     -10.294239      -280.1205
   9   2.0000     -10.294002      -280.1140
  10   2.0000     -10.291150      -280.0364
  11   2.0000     -10.290909      -280.0299
  12   2.0000     -10.288421      -279.9622
  13   2.0000     -10.278643      -279.6961
  14   2.0000     -10.276926      -279.6494
  15   2.0000     -10.275684      -279.6156
  16   2.0000      -8.080430      -219.8797
  17   2.0000      -8.080088      -219.8704
  18   2.0000      -6.039066      -164.3313
  19   2.0000      -6.038442      -164.3144
  20   2.0000      -6.035115      -164.2238
  21   2.0000      -6.034290      -164.2014
  22   2.0000      -6.031003      -164.1119
  23   2.0000      -6.030887      -164.1088
  24   2.0000      -1.012969       -27.5643
  25   2.0000      -0.989912       -26.9369
  26   2.0000      -0.916758       -24.9462
  27   2.0000      -0.915126       -24.9018
  28   2.0000      -0.876258       -23.8442
  29   2.0000      -0.854002       -23.2386
  30   2.0000      -0.847388       -23.0586
  31   2.0000      -0.817425       -22.2433
  32   2.0000      -0.778894       -21.1948
  33   2.0000      -0.767544       -20.8859
  34   2.0000      -0.711330       -19.3563
  35   2.0000      -0.701175       -19.0799
  36   2.0000      -0.684774       -18.6336
  37   2.0000      -0.650297       -17.6955
  38   2.0000      -0.644001       -17.5242
  39   2.0000      -0.623912       -16.9775
  40   2.0000      -0.592656       -16.1270
  41   2.0000      -0.573260       -15.5992
  42   2.0000      -0.554336       -15.0843
  43   2.0000      -0.549829       -14.9616
  44   2.0000      -0.543658       -14.7937
  45   2.0000      -0.535254       -14.5650
  46   2.0000      -0.519315       -14.1313
  47   2.0000      -0.513887       -13.9836
  48   2.0000      -0.504981       -13.7412
  49   2.0000      -0.500607       -13.6222
  50   2.0000      -0.494533       -13.4569
  51   2.0000      -0.479389       -13.0448
  52   2.0000      -0.465919       -12.6783
  53   2.0000      -0.462198       -12.5771
  54   2.0000      -0.455695       -12.4001
  55   2.0000      -0.452121       -12.3028
  56   2.0000      -0.448017       -12.1912
  57   2.0000      -0.440523       -11.9873
  58   2.0000      -0.424748       -11.5580
  59   2.0000      -0.422063       -11.4849
  60   2.0000      -0.413886       -11.2624
  61   2.0000      -0.410324       -11.1655
  62   2.0000      -0.406023       -11.0484
  63   2.0000      -0.339218        -9.2306
  64   2.0000      -0.328483        -8.9385
  65   2.0000      -0.325175        -8.8485
  66   2.0000      -0.302395        -8.2286
  67   0.0000       0.039527         1.0756
  68   0.0000       0.065965         1.7950
  69   0.0000       0.110475         3.0062
  70   0.0000       0.115850         3.1524
  71   0.0000       0.128068         3.4849

MULLIKEN ATOMIC CHARGES
-----------------------
   0 S :    0.113219
   1 C :   -0.104786
   2 C :   -0.078594
   3 C :    0.041194
   4 C :   -0.145887
   5 H :    0.033703
   6 C :    0.029260
   7 H :    0.026300
   8 H :    0.015418
   9 C :   -0.097981
  10 H :    0.023170
  11 H :    0.033612
  12 C :   -0.002531
  13 H :    0.031190
  14 H :    0.034270
  15 H :    0.016612
  16 S :    0.128480
  17 C :   -0.068946
  18 C :   -0.082614
  19 C :    0.017128
  20 C :   -0.195757
  21 H :    0.032463
  22 C :   -0.013922
  23 H :    0.033873
  24 H :    0.024841
  25 C :   -0.050999
  26 H :    0.036458
  27 H :    0.021194
  28 C :   -0.067706
  29 H :    0.035441
  30 H :    0.042545
  31 H :    0.049020
  32 H :    0.044556
  33 H :    0.045777
Sum of atomic charges:   -0.0000000

LOEWDIN ATOMIC CHARGES
----------------------
   0 S :    0.390360
   1 C :   -0.198844
   2 C :   -0.068284
   3 C :   -0.047776
   4 C :   -0.184745
   5 H :    0.040731
   6 C :   -0.046979
   7 H :    0.035978
   8 H :    0.030122
   9 C :   -0.045554
  10 H :    0.021078
  11 H :    0.029246
  12 C :   -0.054520
  13 H :    0.024743
  14 H :    0.030788
  15 H :    0.014751
  16 S :    0.439492
  17 C :   -0.208058
  18 C :   -0.076631
  19 C :   -0.049201
  20 C :   -0.215128
  21 H :    0.037415
  22 C :   -0.044700
  23 H :    0.032300
  24 H :    0.030666
  25 C :   -0.051127
  26 H :    0.025082
  27 H :    0.026477
  28 C :   -0.068961
  29 H :    0.029701
  30 H :    0.033611
  31 H :    0.026898
  32 H :    0.033316
  33 H :    0.027754

  Mayer bond orders larger than 0.100000
B(  0-S ,  1-C ) :   1.1004 B(  0-S ,  4-C ) :   1.1376 B(  1-C ,  2-C ) :   1.6700
B(  1-C , 32-H ) :   0.9642 B(  2-C ,  3-C ) :   1.1726 B(  2-C ,  6-C ) :   1.0451
B(  3-C ,  4-C ) :   1.6061 B(  3-C ,  5-H ) :   0.9974 B(  4-C , 20-C ) :   1.0247
B(  6-C ,  7-H ) :   0.9283 B(  6-C ,  8-H ) :   0.9439 B(  6-C ,  9-C ) :   1.0475
B(  9-C , 10-H ) :   0.9502 B(  9-C , 11-H ) :   0.9557 B(  9-C , 12-C ) :   1.0820
B( 12-C , 13-H ) :   0.9734 B( 12-C , 14-H ) :   0.9762 B( 12-C , 15-H ) :   0.9718
B( 16-S , 17-C ) :   1.1801 B( 16-S , 20-C ) :   1.1434 B( 17-C , 18-C ) :   1.6260
B( 17-C , 33-H ) :   0.9597 B( 18-C , 19-C ) :   1.2180 B( 18-C , 21-H ) :   0.9899
B( 19-C , 20-C ) :   1.5920 B( 19-C , 22-C ) :   1.0300 B( 22-C , 23-H ) :   0.9374
B( 22-C , 24-H ) :   0.9353 B( 22-C , 25-C ) :   1.0888 B( 25-C , 26-H ) :   0.9498
B( 25-C , 27-H ) :   0.9487 B( 25-C , 28-C ) :   1.0788 B( 28-C , 29-H ) :   0.9731
B( 28-C , 30-H ) :   0.9700 B( 28-C , 31-H ) :   0.9724

Dispersion correction           -0.015325363
FINAL SINGLE POINT ENERGY     -1339.865306372149

DIPOLE MOMENT
-------------
                                X             Y             Z
Electronic contribution:     18.93589      -7.41686      20.36786
Nuclear contribution   :    -19.56272       7.47491     -20.63948
                        -----------------------------------------
Total Dipole Moment    :     -0.62684       0.05805      -0.27162
                        -----------------------------------------
Magnitude (a.u.)       :      0.68562
Magnitude (Debye)      :      1.74270

Rotational constants in cm-1:     0.019366     0.009129     0.007588
Rotational constants in MHz :   580.589501   273.671624   227.478886

                             ****ORCA TERMINATED NORMALLY****
TOTAL RUN TIME: 0 days 0 hours 0 minutes 22 seconds 818 msec
