                         Program Version 4.2.1 -  RELEASE  -
|  1> ! wB97X-D3 SP def2-SVP
|  2> %pal
|  3> nprocs 24
|  4> end
|  5>
|  6> * xyz 0 1
|  7> S 	 -77.7307 	 -2.71374 	 -57.1714
|  8> C 	 -78.3345 	 -1.26113 	 -57.8826
|  9> C 	 -79.3637 	 -1.53004 	 -58.774
| 10> C 	 -79.7863 	 -2.88641 	 -58.8129
| 11> C 	 -78.9904 	 -3.62186 	 -57.9739
| 12> H 	 -80.6329 	 -3.32218 	 -59.398
| 13> C 	 -79.9669 	 -0.493643 	 -59.6811
| 14> H 	 -79.4337 	 0.413635 	 -59.6823
| 15> H 	 -80.871 	 0.00331326 	 -59.3991
| 16> C 	 -80.1448 	 -1.05983 	 -61.1696
| 17> H 	 -79.2503 	 -1.6204 	 -61.4512
| 18> H 	 -80.95 	 -1.7316 	 -61.093
| 19> C 	 -80.4272 	 -0.0117448 	 -62.2829
| 20> H 	 -80.7523 	 -0.530293 	 -63.2444
| 21> H 	 -81.2665 	 0.619012 	 -61.9644
| 22> H 	 -79.5071 	 0.62728 	 -62.5024
| 23> S 	 -77.5998 	 -5.79659 	 -58.9284
| 24> C 	 -77.9235 	 -7.39788 	 -58.2679
| 25> C 	 -79.121 	 -7.41292 	 -57.5058
| 26> C 	 -79.5547 	 -6.05408 	 -57.2675
| 27> C 	 -78.8752 	 -5.08301 	 -57.9765
| 28> H 	 -79.5465 	 -8.33608 	 -57.1056
| 29> C 	 -80.7824 	 -5.79823 	 -56.3966
| 30> H 	 -81.4759 	 -6.60785 	 -56.612
| 31> H 	 -81.3489 	 -4.91847 	 -56.6298
| 32> C 	 -80.498 	 -5.95686 	 -54.8934
| 33> H 	 -80.4053 	 -6.97209 	 -54.6072
| 34> H 	 -81.3385 	 -5.65367 	 -54.2993
| 35> C 	 -79.2956 	 -5.21169 	 -54.3087
| 36> H 	 -78.39 	 -5.39251 	 -54.887
| 37> H 	 -79.0643 	 -5.48672 	 -53.273
| 38> H 	 -79.4683 	 -4.08291 	 -54.2872
| 39> H 	 -77.7327 	 -0.402659 	 -58.0524
| 40> H 	 -77.3526 	 -8.35221 	 -58.4078
| 41> *
| 42>
| 43>                          ****END OF INPUT****

CARTESIAN COORDINATES (ANGSTROEM)
---------------------------------
  S    -77.730700   -2.713740  -57.171400
  C    -78.334500   -1.261130  -57.882600
  C    -79.363700   -1.530040  -58.774000
  C    -79.786300   -2.886410  -58.812900
  C    -78.990400   -3.621860  -57.973900
  H    -80.632900   -3.322180  -59.398000
  C    -79.966900   -0.493643  -59.681100
  H    -79.433700    0.413635  -59.682300
  H    -80.871000    0.003313  -59.399100
  C    -80.144800   -1.059830  -61.169600
  H    -79.250300   -1.620400  -61.451200
  H    -80.950000   -1.731600  -61.093000
  C    -80.427200   -0.011745  -62.282900
  H    -80.752300   -0.530293  -63.244400
  H    -81.266500    0.619012  -61.964400
  H    -79.507100    0.627280  -62.502400
  S    -77.599800   -5.796590  -58.928400
  C    -77.923500   -7.397880  -58.267900
  C    -79.121000   -7.412920  -57.505800
  C    -79.554700   -6.054080  -57.267500
  C    -78.875200   -5.083010  -57.976500
  H    -79.546500   -8.336080  -57.105600
  C    -80.782400   -5.798230  -56.396600
  H    -81.475900   -6.607850  -56.612000
  H    -81.348900   -4.918470  -56.629800
  C    -80.498000   -5.956860  -54.893400
  H    -80.405300   -6.972090  -54.607200
  H    -81.338500   -5.653670  -54.299300
  C    -79.295600   -5.211690  -54.308700
  H    -78.390000   -5.392510  -54.887000
  H    -79.064300   -5.486720  -53.273000
  H    -79.468300   -4.082910  -54.287200
  H    -77.732700   -0.402659  -58.052400
  H    -77.352600   -8.352210  -58.407800

 Total Charge           Charge          ....    0
 Multiplicity           Mult            ....    1
 Number of Electrons    NEL             ....  134
 Basis Dimension        Dim             ....  322

ORBITAL ENERGIES
----------------

  NO   OCC          E(Eh)            E(eV)
   0   2.0000     -88.967926     -2420.9404
   1   2.0000     -88.967154     -2420.9193
   2   2.0000     -10.328132      -281.0427
   3   2.0000     -10.325426      -280.9691
   4   2.0000     -10.321168      -280.8533
   5   2.0000     -10.307148      -280.4717
   6   2.0000     -10.303145      -280.3628
   7   2.0000     -10.301651      -280.3222
   8   2.0000     -10.299731      -280.2699
   9   2.0000     -10.298430      -280.2345
  10   2.0000     -10.291475      -280.0453
  11   2.0000     -10.287347      -279.9330
  12   2.0000     -10.287089      -279.9259
  13   2.0000     -10.286188      -279.9014
  14   2.0000     -10.275741      -279.6171
  15   2.0000     -10.271426      -279.4997
  16   2.0000      -8.082977      -219.9490
  17   2.0000      -8.081505      -219.9089
  18   2.0000      -6.041323      -164.3928
  19   2.0000      -6.040097      -164.3594
  20   2.0000      -6.037445      -164.2872
  21   2.0000      -6.035999      -164.2479
  22   2.0000      -6.033856      -164.1896
  23   2.0000      -6.032261      -164.1462
  24   2.0000      -1.008787       -27.4505
  25   2.0000      -0.982667       -26.7397
  26   2.0000      -0.905287       -24.6341
  27   2.0000      -0.903366       -24.5818
  28   2.0000      -0.865904       -23.5625
  29   2.0000      -0.849144       -23.1064
  30   2.0000      -0.841376       -22.8950
  31   2.0000      -0.813996       -22.1499
  32   2.0000      -0.781274       -21.2595
  33   2.0000      -0.767891       -20.8954
  34   2.0000      -0.709651       -19.3106
  35   2.0000      -0.694280       -18.8923
  36   2.0000      -0.685696       -18.6587
  37   2.0000      -0.658464       -17.9177
  38   2.0000      -0.646509       -17.5924
  39   2.0000      -0.621980       -16.9249
  40   2.0000      -0.591654       -16.0997
  41   2.0000      -0.568269       -15.4634
  42   2.0000      -0.556127       -15.1330
  43   2.0000      -0.544526       -14.8173
  44   2.0000      -0.542181       -14.7535
  45   2.0000      -0.521449       -14.1894
  46   2.0000      -0.509022       -13.8512
  47   2.0000      -0.506860       -13.7924
  48   2.0000      -0.500078       -13.6078
  49   2.0000      -0.496723       -13.5165
  50   2.0000      -0.488531       -13.2936
  51   2.0000      -0.471977       -12.8431
  52   2.0000      -0.469904       -12.7867
  53   2.0000      -0.463188       -12.6040
  54   2.0000      -0.457446       -12.4477
  55   2.0000      -0.450982       -12.2718
  56   2.0000      -0.443423       -12.0661
  57   2.0000      -0.434486       -11.8230
  58   2.0000      -0.431395       -11.7389
  59   2.0000      -0.425138       -11.5686
  60   2.0000      -0.415113       -11.2958
  61   2.0000      -0.414369       -11.2755
  62   2.0000      -0.409796       -11.1511
  63   2.0000      -0.341136        -9.2828
  64   2.0000      -0.328665        -8.9434
  65   2.0000      -0.316190        -8.6040
  66   2.0000      -0.309160        -8.4127
  67   0.0000       0.036299         0.9877
  68   0.0000       0.055914         1.5215
  69   0.0000       0.110389         3.0038
  70   0.0000       0.120547         3.2802
  71   0.0000       0.124245         3.3809

MULLIKEN ATOMIC CHARGES
-----------------------
   0 S :    0.124706
   1 C :   -0.086247
   2 C :   -0.106132
   3 C :    0.034855
   4 C :   -0.164385
   5 H :    0.045183
   6 C :    0.100252
   7 H :   -0.017267
   8 H :    0.019175
   9 C :   -0.108698
  10 H :    0.042895
  11 H :    0.026433
  12 C :   -0.083033
  13 H :    0.048369
  14 H :    0.033554
  15 H :    0.051869
  16 S :    0.124743
  17 C :   -0.121982
  18 C :   -0.034998
  19 C :   -0.049520
  20 C :   -0.182585
  21 H :    0.030716
  22 C :    0.105683
  23 H :    0.018903
  24 H :    0.023675
  25 C :   -0.052305
  26 H :    0.010178
  27 H :    0.017386
  28 C :   -0.083075
  29 H :    0.039166
  30 H :    0.030034
  31 H :    0.037710
  32 H :    0.048728
  33 H :    0.076014
Sum of atomic charges:   -0.0000000

LOEWDIN ATOMIC CHARGES
----------------------
   0 S :    0.428763
   1 C :   -0.212074
   2 C :   -0.055550
   3 C :   -0.058043
   4 C :   -0.192410
   5 H :    0.047480
   6 C :   -0.035733
   7 H :    0.020086
   8 H :    0.029605
   9 C :   -0.036302
  10 H :    0.026061
  11 H :    0.013295
  12 C :   -0.075766
  13 H :    0.035192
  14 H :    0.022934
  15 H :    0.033351
  16 S :    0.409638
  17 C :   -0.192365
  18 C :   -0.072066
  19 C :   -0.053495
  20 C :   -0.217405
  21 H :    0.034498
  22 C :   -0.027075
  23 H :    0.034774
  24 H :    0.026506
  25 C :   -0.041989
  26 H :    0.016327
  27 H :    0.023425
  28 C :   -0.073624
  29 H :    0.021376
  30 H :    0.025160
  31 H :    0.029285
  32 H :    0.024808
  33 H :    0.041335

  Mayer bond orders larger than 0.100000
B(  0-S ,  1-C ) :   1.1364 B(  0-S ,  4-C ) :   1.1796 B(  1-C ,  2-C ) :   1.6287
B(  1-C , 32-H ) :   0.9580 B(  2-C ,  3-C ) :   1.2322 B(  2-C ,  6-C ) :   1.0386
B(  3-C ,  4-C ) :   1.5820 B(  3-C ,  5-H ) :   0.9869 B(  4-C , 20-C ) :   1.0067
B(  6-C ,  7-H ) :   0.9342 B(  6-C ,  8-H ) :   0.9302 B(  6-C ,  9-C ) :   1.0385
B(  9-C , 10-H ) :   0.9652 B(  9-C , 11-H ) :   0.9545 B(  9-C , 12-C ) :   1.0842
B( 12-C , 13-H ) :   0.9739 B( 12-C , 14-H ) :   0.9741 B( 12-C , 15-H ) :   0.9758
B( 16-S , 17-C ) :   1.1648 B( 16-S , 20-C ) :   1.1335 B( 17-C , 18-C ) :   1.6033
B( 17-C , 33-H ) :   0.9605 B( 18-C , 19-C ) :   1.2361 B( 18-C , 21-H ) :   0.9857
B( 19-C , 20-C ) :   1.6139 B( 19-C , 22-C ) :   1.0433 B( 22-C , 23-H ) :   0.9338
B( 22-C , 24-H ) :   0.9419 B( 22-C , 25-C ) :   1.0655 B( 25-C , 26-H ) :   0.9553
B( 25-C , 27-H ) :   0.9527 B( 25-C , 28-C ) :   1.0823 B( 28-C , 29-H ) :   0.9723
B( 28-C , 30-H ) :   0.9734 B( 28-C , 31-H ) :   0.9759

Dispersion correction           -0.014894716
FINAL SINGLE POINT ENERGY     -1339.868451304237

DIPOLE MOMENT
-------------
                                X             Y             Z
Electronic contribution:     14.34041      -8.28392       1.15088
Nuclear contribution   :    -14.73855       8.24689      -1.33964
                        -----------------------------------------
Total Dipole Moment    :     -0.39814      -0.03703      -0.18876
                        -----------------------------------------
Magnitude (a.u.)       :      0.44217
Magnitude (Debye)      :      1.12391

Rotational constants in cm-1:     0.021729     0.007876     0.007164
Rotational constants in MHz :   651.418734   236.125463   214.762840

                             ****ORCA TERMINATED NORMALLY****
TOTAL RUN TIME: 0 days 0 hours 0 minutes 20 seconds 490 msec
