                         Program Version 4.2.1 -  RELEASE  -
|  1> ! wB97X-D3 SP def2-SVP
|  2> %pal
|  3> nprocs 24
|  4> end
|  5>
|  6> * xyz 0 1
|  7> S 	 -42.2907 	 13.3436 	 30.6601
|  8> C 	 -40.8604 	 14.1754 	 30.0627
|  9> C 	 -41.2586 	 15.4685 	 29.677
| 10> C 	 -42.668 	 15.714 	 29.8573
| 11> C 	 -43.3526 	 14.6513 	 30.3908
| 12> H 	 -43.2381 	 16.5283 	 29.4969
| 13> C 	 -40.3022 	 16.4619 	 29.1381
| 14> H 	 -40.7678 	 16.7705 	 28.1966
| 15> H 	 -39.4592 	 15.9068 	 28.856
| 16> C 	 -39.8669 	 17.5921 	 30.0428
| 17> H 	 -39.5602 	 17.2685 	 31.0281
| 18> H 	 -38.9712 	 17.9787 	 29.6289
| 19> C 	 -40.8511 	 18.7246 	 30.1565
| 20> H 	 -41.7545 	 18.485 	 30.7512
| 21> H 	 -40.3984 	 19.7009 	 30.4818
| 22> H 	 -41.1859 	 18.9129 	 29.1755
| 23> S 	 -45.4635 	 12.9612 	 30.1074
| 24> C 	 -47.0891 	 13.5546 	 30.4306
| 25> C 	 -47.1064 	 14.7668 	 31.0271
| 26> C 	 -45.7871 	 15.3543 	 31.1253
| 27> C 	 -44.8194 	 14.5318 	 30.6432
| 28> H 	 -48.0597 	 15.1272 	 31.4718
| 29> C 	 -45.5104 	 16.7111 	 31.702
| 30> H 	 -44.485 	 16.9904 	 31.6824
| 31> H 	 -45.8466 	 16.5832 	 32.7214
| 32> C 	 -46.3448 	 17.7745 	 31.022
| 33> H 	 -46.2 	 18.7165 	 31.6305
| 34> H 	 -47.3729 	 17.6243 	 30.8846
| 35> C 	 -46.0048 	 17.968 	 29.5816
| 36> H 	 -44.9593 	 18.2097 	 29.4201
| 37> H 	 -46.5937 	 18.8209 	 29.249
| 38> H 	 -46.3134 	 17.2439 	 28.8253
| 39> H 	 -39.7905 	 13.8765 	 30.0719
| 40> H 	 -48.0032 	 13.0439 	 30.1444
| 41> *
| 42>
| 43>                          ****END OF INPUT****

CARTESIAN COORDINATES (ANGSTROEM)
---------------------------------
  S    -42.290700   13.343600   30.660100
  C    -40.860400   14.175400   30.062700
  C    -41.258600   15.468500   29.677000
  C    -42.668000   15.714000   29.857300
  C    -43.352600   14.651300   30.390800
  H    -43.238100   16.528300   29.496900
  C    -40.302200   16.461900   29.138100
  H    -40.767800   16.770500   28.196600
  H    -39.459200   15.906800   28.856000
  C    -39.866900   17.592100   30.042800
  H    -39.560200   17.268500   31.028100
  H    -38.971200   17.978700   29.628900
  C    -40.851100   18.724600   30.156500
  H    -41.754500   18.485000   30.751200
  H    -40.398400   19.700900   30.481800
  H    -41.185900   18.912900   29.175500
  S    -45.463500   12.961200   30.107400
  C    -47.089100   13.554600   30.430600
  C    -47.106400   14.766800   31.027100
  C    -45.787100   15.354300   31.125300
  C    -44.819400   14.531800   30.643200
  H    -48.059700   15.127200   31.471800
  C    -45.510400   16.711100   31.702000
  H    -44.485000   16.990400   31.682400
  H    -45.846600   16.583200   32.721400
  C    -46.344800   17.774500   31.022000
  H    -46.200000   18.716500   31.630500
  H    -47.372900   17.624300   30.884600
  C    -46.004800   17.968000   29.581600
  H    -44.959300   18.209700   29.420100
  H    -46.593700   18.820900   29.249000
  H    -46.313400   17.243900   28.825300
  H    -39.790500   13.876500   30.071900
  H    -48.003200   13.043900   30.144400

 Total Charge           Charge          ....    0
 Multiplicity           Mult            ....    1
 Number of Electrons    NEL             ....  134
 Basis Dimension        Dim             ....  322

ORBITAL ENERGIES
----------------

  NO   OCC          E(Eh)            E(eV)
   0   2.0000     -88.964304     -2420.8418
   1   2.0000     -88.961138     -2420.7556
   2   2.0000     -10.328417      -281.0505
   3   2.0000     -10.327232      -281.0183
   4   2.0000     -10.316605      -280.7291
   5   2.0000     -10.316260      -280.7197
   6   2.0000     -10.303543      -280.3736
   7   2.0000     -10.299430      -280.2617
   8   2.0000     -10.297046      -280.1969
   9   2.0000     -10.287036      -279.9245
  10   2.0000     -10.286858      -279.9196
  11   2.0000     -10.283491      -279.8280
  12   2.0000     -10.282522      -279.8016
  13   2.0000     -10.279316      -279.7144
  14   2.0000     -10.275969      -279.6233
  15   2.0000     -10.272336      -279.5245
  16   2.0000      -8.079404      -219.8518
  17   2.0000      -8.075780      -219.7531
  18   2.0000      -6.037929      -164.3004
  19   2.0000      -6.034424      -164.2050
  20   2.0000      -6.033725      -164.1860
  21   2.0000      -6.030468      -164.0974
  22   2.0000      -6.030237      -164.0911
  23   2.0000      -6.026224      -163.9819
  24   2.0000      -1.008128       -27.4326
  25   2.0000      -0.985437       -26.8151
  26   2.0000      -0.921787       -25.0831
  27   2.0000      -0.919277       -25.0148
  28   2.0000      -0.869496       -23.6602
  29   2.0000      -0.853898       -23.2357
  30   2.0000      -0.843840       -22.9621
  31   2.0000      -0.821698       -22.3595
  32   2.0000      -0.787067       -21.4172
  33   2.0000      -0.775509       -21.1027
  34   2.0000      -0.708704       -19.2848
  35   2.0000      -0.700726       -19.0677
  36   2.0000      -0.694801       -18.9065
  37   2.0000      -0.657332       -17.8869
  38   2.0000      -0.639902       -17.4126
  39   2.0000      -0.619759       -16.8645
  40   2.0000      -0.603663       -16.4265
  41   2.0000      -0.573613       -15.6088
  42   2.0000      -0.561606       -15.2821
  43   2.0000      -0.551150       -14.9976
  44   2.0000      -0.547126       -14.8880
  45   2.0000      -0.537429       -14.6242
  46   2.0000      -0.526254       -14.3201
  47   2.0000      -0.516403       -14.0520
  48   2.0000      -0.504203       -13.7201
  49   2.0000      -0.495975       -13.4962
  50   2.0000      -0.492396       -13.3988
  51   2.0000      -0.485121       -13.2008
  52   2.0000      -0.475811       -12.9475
  53   2.0000      -0.465432       -12.6650
  54   2.0000      -0.458247       -12.4695
  55   2.0000      -0.449301       -12.2261
  56   2.0000      -0.441729       -12.0201
  57   2.0000      -0.438369       -11.9286
  58   2.0000      -0.435604       -11.8534
  59   2.0000      -0.426916       -11.6170
  60   2.0000      -0.419077       -11.4037
  61   2.0000      -0.410382       -11.1671
  62   2.0000      -0.406535       -11.0624
  63   2.0000      -0.353059        -9.6072
  64   2.0000      -0.329434        -8.9644
  65   2.0000      -0.325786        -8.8651
  66   2.0000      -0.291818        -7.9408
  67   0.0000       0.035282         0.9601
  68   0.0000       0.072828         1.9818
  69   0.0000       0.109215         2.9719
  70   0.0000       0.120765         3.2862
  71   0.0000       0.126538         3.4433

MULLIKEN ATOMIC CHARGES
-----------------------
   0 S :    0.104278
   1 C :   -0.123527
   2 C :   -0.131794
   3 C :    0.041104
   4 C :   -0.121232
   5 H :   -0.022016
   6 C :    0.086020
   7 H :    0.029454
   8 H :   -0.007541
   9 C :   -0.008888
  10 H :    0.019004
  11 H :    0.012606
  12 C :   -0.049560
  13 H :    0.040740
  14 H :    0.038668
  15 H :    0.003676
  16 S :    0.085794
  17 C :   -0.082333
  18 C :   -0.050433
  19 C :   -0.068696
  20 C :   -0.145132
  21 H :    0.037029
  22 C :    0.137930
  23 H :    0.019576
  24 H :    0.030592
  25 C :   -0.080597
  26 H :    0.039008
  27 H :    0.019524
  28 C :   -0.065868
  29 H :    0.026391
  30 H :    0.020048
  31 H :    0.045593
  32 H :    0.063784
  33 H :    0.056798
Sum of atomic charges:    0.0000000

LOEWDIN ATOMIC CHARGES
----------------------
   0 S :    0.418694
   1 C :   -0.215252
   2 C :   -0.056790
   3 C :   -0.077837
   4 C :   -0.198735
   5 H :    0.021665
   6 C :   -0.031353
   7 H :    0.035893
   8 H :    0.023869
   9 C :   -0.034599
  10 H :    0.024380
  11 H :    0.022234
  12 C :   -0.066906
  13 H :    0.026167
  14 H :    0.033016
  15 H :    0.014709
  16 S :    0.374283
  17 C :   -0.171080
  18 C :   -0.078158
  19 C :   -0.053403
  20 C :   -0.181254
  21 H :    0.041102
  22 C :   -0.023136
  23 H :    0.027469
  24 H :    0.036776
  25 C :   -0.043451
  26 H :    0.032707
  27 H :    0.019869
  28 C :   -0.069530
  29 H :    0.015774
  30 H :    0.029299
  31 H :    0.031036
  32 H :    0.041433
  33 H :    0.031108

  Mayer bond orders larger than 0.100000
B(  0-S ,  1-C ) :   1.1253 B(  0-S ,  4-C ) :   1.1771 B(  1-C ,  2-C ) :   1.6004
B(  1-C , 32-H ) :   0.9644 B(  2-C ,  3-C ) :   1.2356 B(  2-C ,  6-C ) :   1.0376
B(  3-C ,  4-C ) :   1.5672 B(  3-C ,  5-H ) :   1.0005 B(  4-C , 20-C ) :   0.9973
B(  6-C ,  7-H ) :   0.9346 B(  6-C ,  8-H ) :   0.9252 B(  6-C ,  9-C ) :   1.0773
B(  9-C , 10-H ) :   0.9492 B(  9-C , 11-H ) :   0.9486 B(  9-C , 12-C ) :   1.0858
B( 12-C , 13-H ) :   0.9734 B( 12-C , 14-H ) :   0.9705 B( 12-C , 15-H ) :   0.9714
B( 16-S , 17-C ) :   1.1356 B( 16-S , 20-C ) :   1.1098 B( 17-C , 18-C ) :   1.6698
B( 17-C , 33-H ) :   0.9637 B( 18-C , 19-C ) :   1.1761 B( 18-C , 21-H ) :   0.9830
B( 19-C , 20-C ) :   1.6723 B( 19-C , 22-C ) :   1.0359 B( 22-C , 23-H ) :   0.9406
B( 22-C , 24-H ) :   0.9195 B( 22-C , 25-C ) :   1.0727 B( 25-C , 26-H ) :   0.9543
B( 25-C , 27-H ) :   0.9570 B( 25-C , 28-C ) :   1.0727 B( 28-C , 29-H ) :   0.9692
B( 28-C , 30-H ) :   0.9662 B( 28-C , 31-H ) :   0.9715

Dispersion correction           -0.015322605
FINAL SINGLE POINT ENERGY     -1339.873257263764

DIPOLE MOMENT
-------------
                                X             Y             Z
Electronic contribution:     -4.06475     -29.37256       2.30360
Nuclear contribution   :      3.95973      30.10474      -2.36153
                        -----------------------------------------
Total Dipole Moment    :     -0.10501       0.73218      -0.05793
                        -----------------------------------------
Magnitude (a.u.)       :      0.74194
Magnitude (Debye)      :      1.88586

Rotational constants in cm-1:     0.018927     0.010182     0.007080
Rotational constants in MHz :   567.415984   305.253039   212.244515

                             ****ORCA TERMINATED NORMALLY****
TOTAL RUN TIME: 0 days 0 hours 0 minutes 22 seconds 800 msec
