                         Program Version 4.2.1 -  RELEASE  -
|  1> ! wB97X-D3 SP def2-SVP
|  2> %pal
|  3> nprocs 24
|  4> end
|  5>
|  6> * xyz 0 1
|  7> S 	 -41.1021 	 -50.1755 	 -73.8428
|  8> C 	 -41.4768 	 -48.6164 	 -74.3698
|  9> C 	 -40.5225 	 -47.667 	 -74.1019
| 10> C 	 -39.5851 	 -48.1608 	 -73.2116
| 11> C 	 -39.7234 	 -49.5448 	 -73.0686
| 12> H 	 -38.7972 	 -47.5554 	 -72.6973
| 13> C 	 -40.5282 	 -46.1855 	 -74.5248
| 14> H 	 -40.3064 	 -46.1807 	 -75.5962
| 15> H 	 -39.6311 	 -45.6945 	 -73.9564
| 16> C 	 -41.7647 	 -45.3653 	 -74.2248
| 17> H 	 -41.5549 	 -44.3258 	 -74.5261
| 18> H 	 -42.6574 	 -45.6643 	 -74.7854
| 19> C 	 -41.9968 	 -45.3044 	 -72.7126
| 20> H 	 -41.2147 	 -44.747 	 -72.2295
| 21> H 	 -42.9669 	 -44.8402 	 -72.565
| 22> H 	 -41.9592 	 -46.2636 	 -72.1532
| 23> S 	 -37.349 	 -50.9111 	 -72.7327
| 24> C 	 -37.1098 	 -51.9054 	 -71.3328
| 25> C 	 -38.256 	 -51.9924 	 -70.5632
| 26> C 	 -39.3566 	 -51.1679 	 -71.0005
| 27> C 	 -38.9875 	 -50.4063 	 -72.1317
| 28> H 	 -38.1934 	 -52.7139 	 -69.7494
| 29> C 	 -40.7318 	 -51.1904 	 -70.2401
| 30> H 	 -41.5274 	 -50.6895 	 -70.8186
| 31> H 	 -40.6629 	 -50.587 	 -69.3813
| 32> C 	 -41.1089 	 -52.579 	 -69.704
| 33> H 	 -40.2569 	 -53.0003 	 -69.2594
| 34> H 	 -41.4751 	 -53.3333 	 -70.4474
| 35> C 	 -42.3047 	 -52.4906 	 -68.7011
| 36> H 	 -43.1143 	 -51.8822 	 -69.1147
| 37> H 	 -41.8487 	 -52.0986 	 -67.802
| 38> H 	 -42.7258 	 -53.4832 	 -68.5416
| 39> H 	 -42.3259 	 -48.2794 	 -74.881
| 40> H 	 -36.2749 	 -52.5272 	 -71.1386
| 41> *
| 42>
| 43>                          ****END OF INPUT****

CARTESIAN COORDINATES (ANGSTROEM)
---------------------------------
  S    -41.102100  -50.175500  -73.842800
  C    -41.476800  -48.616400  -74.369800
  C    -40.522500  -47.667000  -74.101900
  C    -39.585100  -48.160800  -73.211600
  C    -39.723400  -49.544800  -73.068600
  H    -38.797200  -47.555400  -72.697300
  C    -40.528200  -46.185500  -74.524800
  H    -40.306400  -46.180700  -75.596200
  H    -39.631100  -45.694500  -73.956400
  C    -41.764700  -45.365300  -74.224800
  H    -41.554900  -44.325800  -74.526100
  H    -42.657400  -45.664300  -74.785400
  C    -41.996800  -45.304400  -72.712600
  H    -41.214700  -44.747000  -72.229500
  H    -42.966900  -44.840200  -72.565000
  H    -41.959200  -46.263600  -72.153200
  S    -37.349000  -50.911100  -72.732700
  C    -37.109800  -51.905400  -71.332800
  C    -38.256000  -51.992400  -70.563200
  C    -39.356600  -51.167900  -71.000500
  C    -38.987500  -50.406300  -72.131700
  H    -38.193400  -52.713900  -69.749400
  C    -40.731800  -51.190400  -70.240100
  H    -41.527400  -50.689500  -70.818600
  H    -40.662900  -50.587000  -69.381300
  C    -41.108900  -52.579000  -69.704000
  H    -40.256900  -53.000300  -69.259400
  H    -41.475100  -53.333300  -70.447400
  C    -42.304700  -52.490600  -68.701100
  H    -43.114300  -51.882200  -69.114700
  H    -41.848700  -52.098600  -67.802000
  H    -42.725800  -53.483200  -68.541600
  H    -42.325900  -48.279400  -74.881000
  H    -36.274900  -52.527200  -71.138600

 Total Charge           Charge          ....    0
 Multiplicity           Mult            ....    1
 Number of Electrons    NEL             ....  134
 Basis Dimension        Dim             ....  322

ORBITAL ENERGIES
----------------

  NO   OCC          E(Eh)            E(eV)
   0   2.0000     -88.971689     -2421.0427
   1   2.0000     -88.960731     -2420.7446
   2   2.0000     -10.329588      -281.0824
   3   2.0000     -10.321182      -280.8536
   4   2.0000     -10.313289      -280.6389
   5   2.0000     -10.311174      -280.5813
   6   2.0000     -10.300678      -280.2957
   7   2.0000     -10.299557      -280.2652
   8   2.0000     -10.293521      -280.1010
   9   2.0000     -10.292712      -280.0789
  10   2.0000     -10.292465      -280.0722
  11   2.0000     -10.291558      -280.0475
  12   2.0000     -10.289340      -279.9872
  13   2.0000     -10.284419      -279.8533
  14   2.0000     -10.278416      -279.6899
  15   2.0000     -10.274045      -279.5710
  16   2.0000      -8.087721      -220.0781
  17   2.0000      -8.074826      -219.7272
  18   2.0000      -6.045811      -164.5149
  19   2.0000      -6.042039      -164.4122
  20   2.0000      -6.038855      -164.3256
  21   2.0000      -6.033270      -164.1736
  22   2.0000      -6.029450      -164.0697
  23   2.0000      -6.025658      -163.9665
  24   2.0000      -1.013869       -27.5888
  25   2.0000      -0.979018       -26.6404
  26   2.0000      -0.913780       -24.8652
  27   2.0000      -0.905109       -24.6293
  28   2.0000      -0.864855       -23.5339
  29   2.0000      -0.855420       -23.2772
  30   2.0000      -0.842429       -22.9237
  31   2.0000      -0.806648       -21.9500
  32   2.0000      -0.782792       -21.3009
  33   2.0000      -0.771174       -20.9847
  34   2.0000      -0.704909       -19.1816
  35   2.0000      -0.700544       -19.0628
  36   2.0000      -0.696306       -18.9475
  37   2.0000      -0.649007       -17.6604
  38   2.0000      -0.638206       -17.3665
  39   2.0000      -0.609502       -16.5854
  40   2.0000      -0.594932       -16.1889
  41   2.0000      -0.573666       -15.6102
  42   2.0000      -0.566817       -15.4239
  43   2.0000      -0.557622       -15.1737
  44   2.0000      -0.540982       -14.7209
  45   2.0000      -0.523169       -14.2362
  46   2.0000      -0.511989       -13.9319
  47   2.0000      -0.505805       -13.7637
  48   2.0000      -0.499706       -13.5977
  49   2.0000      -0.494375       -13.4526
  50   2.0000      -0.487042       -13.2531
  51   2.0000      -0.475650       -12.9431
  52   2.0000      -0.473508       -12.8848
  53   2.0000      -0.467081       -12.7099
  54   2.0000      -0.458266       -12.4701
  55   2.0000      -0.450125       -12.2485
  56   2.0000      -0.445775       -12.1301
  57   2.0000      -0.436487       -11.8774
  58   2.0000      -0.432762       -11.7760
  59   2.0000      -0.428516       -11.6605
  60   2.0000      -0.419562       -11.4169
  61   2.0000      -0.415845       -11.3157
  62   2.0000      -0.408812       -11.1243
  63   2.0000      -0.340510        -9.2658
  64   2.0000      -0.327576        -8.9138
  65   2.0000      -0.323422        -8.8008
  66   2.0000      -0.298758        -8.1296
  67   0.0000       0.036873         1.0034
  68   0.0000       0.064520         1.7557
  69   0.0000       0.109621         2.9829
  70   0.0000       0.123736         3.3670
  71   0.0000       0.127550         3.4708

MULLIKEN ATOMIC CHARGES
-----------------------
   0 S :    0.166635
   1 C :   -0.096203
   2 C :   -0.089625
   3 C :    0.008893
   4 C :   -0.181104
   5 H :    0.033809
   6 C :    0.038449
   7 H :    0.043819
   8 H :    0.032213
   9 C :   -0.064627
  10 H :    0.033473
  11 H :    0.034742
  12 C :   -0.059614
  13 H :    0.020266
  14 H :    0.034218
  15 H :    0.044395
  16 S :    0.096572
  17 C :   -0.072716
  18 C :   -0.076110
  19 C :    0.013865
  20 C :   -0.197358
  21 H :    0.025472
  22 C :    0.115979
  23 H :    0.023836
  24 H :    0.017174
  25 C :   -0.110619
  26 H :    0.017936
  27 H :    0.037082
  28 C :   -0.050756
  29 H :    0.038728
  30 H :    0.035512
  31 H :    0.033353
  32 H :    0.010016
  33 H :    0.042295
Sum of atomic charges:    0.0000000

LOEWDIN ATOMIC CHARGES
----------------------
   0 S :    0.474269
   1 C :   -0.213285
   2 C :   -0.070768
   3 C :   -0.059728
   4 C :   -0.227517
   5 H :    0.041960
   6 C :   -0.033825
   7 H :    0.033313
   8 H :    0.038820
   9 C :   -0.045683
  10 H :    0.031047
  11 H :    0.022386
  12 C :   -0.067850
  13 H :    0.021597
  14 H :    0.025699
  15 H :    0.029684
  16 S :    0.385931
  17 C :   -0.185060
  18 C :   -0.081504
  19 C :   -0.046646
  20 C :   -0.187653
  21 H :    0.030825
  22 C :   -0.025614
  23 H :    0.027643
  24 H :    0.027279
  25 C :   -0.038555
  26 H :    0.012289
  27 H :    0.027858
  28 C :   -0.060733
  29 H :    0.026980
  30 H :    0.023193
  31 H :    0.025985
  32 H :    0.014568
  33 H :    0.023092

  Mayer bond orders larger than 0.100000
B(  0-S ,  1-C ) :   1.1712 B(  0-S ,  4-C ) :   1.1859 B(  1-C ,  2-C ) :   1.5807
B(  1-C , 32-H ) :   0.9684 B(  2-C ,  3-C ) :   1.2943 B(  2-C ,  6-C ) :   1.0002
B(  3-C ,  4-C ) :   1.5402 B(  3-C ,  5-H ) :   0.9834 B(  4-C , 20-C ) :   1.0113
B(  6-C ,  7-H ) :   0.9319 B(  6-C ,  8-H ) :   0.9477 B(  6-C ,  9-C ) :   1.0872
B(  9-C , 10-H ) :   0.9509 B(  9-C , 11-H ) :   0.9552 B(  9-C , 12-C ) :   1.0668
B( 12-C , 13-H ) :   0.9744 B( 12-C , 14-H ) :   0.9747 B( 12-C , 15-H ) :   0.9770
B( 16-S , 17-C ) :   1.1542 B( 16-S , 20-C ) :   1.1411 B( 17-C , 18-C ) :   1.6408
B( 17-C , 33-H ) :   0.9669 B( 18-C , 19-C ) :   1.2133 B( 18-C , 21-H ) :   0.9821
B( 19-C , 20-C ) :   1.6047 B( 19-C , 22-C ) :   1.0230 B( 22-C , 23-H ) :   0.9351
B( 22-C , 24-H ) :   0.9359 B( 22-C , 25-C ) :   1.0509 B( 25-C , 26-H ) :   0.9572
B( 25-C , 27-H ) :   0.9594 B( 25-C , 28-C ) :   1.0806 B( 28-C , 29-H ) :   0.9762
B( 28-C , 30-H ) :   0.9785 B( 28-C , 31-H ) :   0.9768

Dispersion correction           -0.014009219
FINAL SINGLE POINT ENERGY     -1339.869035054290

DIPOLE MOMENT
-------------
                                X             Y             Z
Electronic contribution:     15.46531     -10.23674     -12.41743
Nuclear contribution   :    -15.82158      10.42366      12.68053
                        -----------------------------------------
Total Dipole Moment    :     -0.35627       0.18692       0.26311
                        -----------------------------------------
Magnitude (a.u.)       :      0.48072
Magnitude (Debye)      :      1.22189

Rotational constants in cm-1:     0.019284     0.007973     0.006499
Rotational constants in MHz :   578.130288   239.036304   194.838680

                             ****ORCA TERMINATED NORMALLY****
TOTAL RUN TIME: 0 days 0 hours 0 minutes 21 seconds 209 msec
