                         Program Version 4.2.1 -  RELEASE  -
|  1> ! wB97X-D3 SP def2-SVP
|  2> %pal
|  3> nprocs 24
|  4> end
|  5>
|  6> * xyz 0 1
|  7> S 	 39.1634 	 -26.1147 	 -121.103
|  8> C 	 38.3787 	 -24.7453 	 -121.871
|  9> C 	 38.423 	 -24.7814 	 -123.254
| 10> C 	 38.8763 	 -26.069 	 -123.692
| 11> C 	 39.4931 	 -26.844 	 -122.667
| 12> H 	 38.8693 	 -26.3791 	 -124.71
| 13> C 	 37.9771 	 -23.6522 	 -124.195
| 14> H 	 37.935 	 -22.7042 	 -123.616
| 15> H 	 36.9377 	 -23.9682 	 -124.52
| 16> C 	 38.7158 	 -23.5153 	 -125.494
| 17> H 	 39.7935 	 -23.7465 	 -125.349
| 18> H 	 38.4508 	 -24.3558 	 -126.209
| 19> C 	 38.4447 	 -22.3058 	 -126.276
| 20> H 	 38.7774 	 -21.4097 	 -125.794
| 21> H 	 39.0945 	 -22.2136 	 -127.195
| 22> H 	 37.3888 	 -22.3153 	 -126.512
| 23> S 	 39.7284 	 -29.2978 	 -121.559
| 24> C 	 40.6979 	 -30.5452 	 -122.29
| 25> C 	 41.2926 	 -30.0523 	 -123.404
| 26> C 	 40.9687 	 -28.7266 	 -123.74
| 27> C 	 39.9998 	 -28.2113 	 -122.875
| 28> H 	 42.0489 	 -30.5846 	 -123.924
| 29> C 	 41.697 	 -28.085 	 -124.906
| 30> H 	 41.0164 	 -27.5373 	 -125.465
| 31> H 	 42.0801 	 -28.8834 	 -125.619
| 32> C 	 42.8493 	 -27.1217 	 -124.658
| 33> H 	 43.5573 	 -27.6671 	 -124.061
| 34> H 	 42.5926 	 -26.2046 	 -124.174
| 35> C 	 43.5381 	 -26.7615 	 -125.898
| 36> H 	 44.0425 	 -27.581 	 -126.251
| 37> H 	 44.3129 	 -25.9569 	 -125.751
| 38> H 	 42.9231 	 -26.4632 	 -126.756
| 39> H 	 37.8472 	 -24.0456 	 -121.331
| 40> H 	 41.0152 	 -31.4816 	 -121.853
| 41> *
| 42>
| 43>                          ****END OF INPUT****

CARTESIAN COORDINATES (ANGSTROEM)
---------------------------------
  S     39.163400  -26.114700  -121.103000
  C     38.378700  -24.745300  -121.871000
  C     38.423000  -24.781400  -123.254000
  C     38.876300  -26.069000  -123.692000
  C     39.493100  -26.844000  -122.667000
  H     38.869300  -26.379100  -124.710000
  C     37.977100  -23.652200  -124.195000
  H     37.935000  -22.704200  -123.616000
  H     36.937700  -23.968200  -124.520000
  C     38.715800  -23.515300  -125.494000
  H     39.793500  -23.746500  -125.349000
  H     38.450800  -24.355800  -126.209000
  C     38.444700  -22.305800  -126.276000
  H     38.777400  -21.409700  -125.794000
  H     39.094500  -22.213600  -127.195000
  H     37.388800  -22.315300  -126.512000
  S     39.728400  -29.297800  -121.559000
  C     40.697900  -30.545200  -122.290000
  C     41.292600  -30.052300  -123.404000
  C     40.968700  -28.726600  -123.740000
  C     39.999800  -28.211300  -122.875000
  H     42.048900  -30.584600  -123.924000
  C     41.697000  -28.085000  -124.906000
  H     41.016400  -27.537300  -125.465000
  H     42.080100  -28.883400  -125.619000
  C     42.849300  -27.121700  -124.658000
  H     43.557300  -27.667100  -124.061000
  H     42.592600  -26.204600  -124.174000
  C     43.538100  -26.761500  -125.898000
  H     44.042500  -27.581000  -126.251000
  H     44.312900  -25.956900  -125.751000
  H     42.923100  -26.463200  -126.756000
  H     37.847200  -24.045600  -121.331000
  H     41.015200  -31.481600  -121.853000

 Total Charge           Charge          ....    0
 Multiplicity           Mult            ....    1
 Number of Electrons    NEL             ....  134
 Basis Dimension        Dim             ....  322

ORBITAL ENERGIES
----------------

  NO   OCC          E(Eh)            E(eV)
   0   2.0000     -88.969695     -2420.9885
   1   2.0000     -88.965088     -2420.8631
   2   2.0000     -10.333975      -281.2017
   3   2.0000     -10.327781      -281.0332
   4   2.0000     -10.312221      -280.6098
   5   2.0000     -10.308714      -280.5144
   6   2.0000     -10.304434      -280.3979
   7   2.0000     -10.301865      -280.3280
   8   2.0000     -10.301089      -280.3069
   9   2.0000     -10.295071      -280.1431
  10   2.0000     -10.289236      -279.9843
  11   2.0000     -10.288289      -279.9586
  12   2.0000     -10.284124      -279.8452
  13   2.0000     -10.278899      -279.7031
  14   2.0000     -10.274441      -279.5818
  15   2.0000     -10.268794      -279.4281
  16   2.0000      -8.083865      -219.9732
  17   2.0000      -8.080420      -219.8794
  18   2.0000      -6.042396      -164.4220
  19   2.0000      -6.038894      -164.3267
  20   2.0000      -6.038474      -164.3152
  21   2.0000      -6.034827      -164.2160
  22   2.0000      -6.034622      -164.2104
  23   2.0000      -6.031187      -164.1169
  24   2.0000      -1.008966       -27.4553
  25   2.0000      -0.984307       -26.7844
  26   2.0000      -0.920600       -25.0508
  27   2.0000      -0.918841       -25.0029
  28   2.0000      -0.873726       -23.7753
  29   2.0000      -0.858607       -23.3639
  30   2.0000      -0.849713       -23.1219
  31   2.0000      -0.814427       -22.1617
  32   2.0000      -0.783903       -21.3311
  33   2.0000      -0.775141       -21.0927
  34   2.0000      -0.709963       -19.3191
  35   2.0000      -0.697036       -18.9673
  36   2.0000      -0.689626       -18.7657
  37   2.0000      -0.664148       -18.0724
  38   2.0000      -0.640874       -17.4391
  39   2.0000      -0.621714       -16.9177
  40   2.0000      -0.601804       -16.3759
  41   2.0000      -0.579808       -15.7774
  42   2.0000      -0.576878       -15.6977
  43   2.0000      -0.563536       -15.3346
  44   2.0000      -0.525770       -14.3069
  45   2.0000      -0.522673       -14.2226
  46   2.0000      -0.521670       -14.1954
  47   2.0000      -0.516537       -14.0557
  48   2.0000      -0.510360       -13.8876
  49   2.0000      -0.498792       -13.5728
  50   2.0000      -0.492233       -13.3943
  51   2.0000      -0.487866       -13.2755
  52   2.0000      -0.476280       -12.9602
  53   2.0000      -0.463633       -12.6161
  54   2.0000      -0.459786       -12.5114
  55   2.0000      -0.450349       -12.2546
  56   2.0000      -0.448887       -12.2148
  57   2.0000      -0.433837       -11.8053
  58   2.0000      -0.431468       -11.7408
  59   2.0000      -0.426035       -11.5930
  60   2.0000      -0.423037       -11.5114
  61   2.0000      -0.415711       -11.3121
  62   2.0000      -0.407969       -11.1014
  63   2.0000      -0.349447        -9.5089
  64   2.0000      -0.332599        -9.0505
  65   2.0000      -0.328163        -8.9298
  66   2.0000      -0.285086        -7.7576
  67   0.0000       0.021221         0.5775
  68   0.0000       0.078780         2.1437
  69   0.0000       0.105444         2.8693
  70   0.0000       0.119028         3.2389
  71   0.0000       0.127290         3.4637

MULLIKEN ATOMIC CHARGES
-----------------------
   0 S :    0.111568
   1 C :   -0.110537
   2 C :   -0.073644
   3 C :    0.001438
   4 C :   -0.123653
   5 H :    0.009332
   6 C :    0.075970
   7 H :    0.033994
   8 H :    0.046457
   9 C :   -0.124682
  10 H :    0.030075
  11 H :    0.029460
  12 C :   -0.019239
  13 H :    0.020959
  14 H :    0.035647
  15 H :    0.035014
  16 S :    0.095691
  17 C :   -0.073120
  18 C :   -0.026066
  19 C :   -0.024549
  20 C :   -0.145703
  21 H :    0.000717
  22 C :    0.050432
  23 H :   -0.006872
  24 H :    0.023410
  25 C :   -0.010732
  26 H :    0.014757
  27 H :    0.030297
  28 C :   -0.038052
  29 H :   -0.001165
  30 H :    0.038315
  31 H :    0.020620
  32 H :    0.019696
  33 H :    0.054166
Sum of atomic charges:    0.0000000

LOEWDIN ATOMIC CHARGES
----------------------
   0 S :    0.402514
   1 C :   -0.186868
   2 C :   -0.057036
   3 C :   -0.058313
   4 C :   -0.194881
   5 H :    0.022834
   6 C :   -0.035249
   7 H :    0.034271
   8 H :    0.043962
   9 C :   -0.061649
  10 H :    0.023166
  11 H :    0.029109
  12 C :   -0.064887
  13 H :    0.020109
  14 H :    0.037691
  15 H :    0.027505
  16 S :    0.421021
  17 C :   -0.190194
  18 C :   -0.068746
  19 C :   -0.055917
  20 C :   -0.200395
  21 H :    0.024610
  22 C :   -0.027852
  23 H :    0.016720
  24 H :    0.037406
  25 C :   -0.034861
  26 H :    0.023158
  27 H :    0.023864
  28 C :   -0.063458
  29 H :    0.010614
  30 H :    0.034596
  31 H :    0.023745
  32 H :    0.010714
  33 H :    0.032699

  Mayer bond orders larger than 0.100000
B(  0-S ,  1-C ) :   1.1400 B(  0-S ,  4-C ) :   1.1485 B(  1-C ,  2-C ) :   1.5999
B(  1-C , 32-H ) :   0.9765 B(  2-C ,  3-C ) :   1.2535 B(  2-C ,  6-C ) :   1.0205
B(  3-C ,  4-C ) :   1.5481 B(  3-C ,  5-H ) :   0.9912 B(  4-C , 20-C ) :   1.0655
B(  6-C ,  7-H ) :   0.9505 B(  6-C ,  8-H ) :   0.9252 B(  6-C ,  9-C ) :   1.0635
B(  9-C , 10-H ) :   0.9565 B(  9-C , 11-H ) :   0.9406 B(  9-C , 12-C ) :   1.1021
B( 12-C , 13-H ) :   0.9711 B( 12-C , 14-H ) :   0.9666 B( 12-C , 15-H ) :   0.9699
B( 16-S , 17-C ) :   1.1547 B( 16-S , 20-C ) :   1.1496 B( 17-C , 18-C ) :   1.5864
B( 17-C , 33-H ) :   0.9670 B( 18-C , 19-C ) :   1.2937 B( 18-C , 21-H ) :   0.9925
B( 19-C , 20-C ) :   1.5530 B( 19-C , 22-C ) :   1.0323 B( 22-C , 23-H ) :   0.9236
B( 22-C , 24-H ) :   0.9413 B( 22-C , 25-C ) :   1.0710 B( 25-C , 26-H ) :   0.9489
B( 25-C , 27-H ) :   0.9516 B( 25-C , 28-C ) :   1.0932 B( 28-C , 29-H ) :   0.9686
B( 28-C , 30-H ) :   0.9701 B( 28-C , 31-H ) :   0.9700

Dispersion correction           -0.013638047
FINAL SINGLE POINT ENERGY     -1339.860859194313

DIPOLE MOMENT
-------------
                                X             Y             Z
Electronic contribution:     -8.64663     -17.08517      26.56682
Nuclear contribution   :      8.88653      17.35691     -27.16103
                        -----------------------------------------
Total Dipole Moment    :      0.23991       0.27175      -0.59421
                        -----------------------------------------
Magnitude (a.u.)       :      0.69605
Magnitude (Debye)      :      1.76923

Rotational constants in cm-1:     0.017041     0.009265     0.006566
Rotational constants in MHz :   510.862666   277.768148   196.846778

                             ****ORCA TERMINATED NORMALLY****
TOTAL RUN TIME: 0 days 0 hours 0 minutes 21 seconds 537 msec
