                         Program Version 4.2.1 -  RELEASE  -
|  1> ! wB97X-D3 SP def2-SVP
|  2> %pal
|  3> nprocs 24
|  4> end
|  5>
|  6> * xyz 0 1
|  7> S 	 2.32176 	 -24.8459 	 -110.227
|  8> C 	 2.7778 	 -23.5948 	 -109.022
|  9> C 	 3.0108 	 -22.3756 	 -109.635
| 10> C 	 2.88564 	 -22.4523 	 -111.075
| 11> C 	 2.7486 	 -23.691 	 -111.569
| 12> H 	 2.9966 	 -21.7344 	 -111.793
| 13> C 	 3.33593 	 -21.1053 	 -108.853
| 14> H 	 3.82857 	 -20.4653 	 -109.561
| 15> H 	 4.10402 	 -21.2602 	 -108.144
| 16> C 	 2.13572 	 -20.2641 	 -108.316
| 17> H 	 1.55771 	 -20.8417 	 -107.481
| 18> H 	 2.46401 	 -19.297 	 -107.883
| 19> C 	 1.13262 	 -19.8466 	 -109.408
| 20> H 	 0.355772 	 -19.143 	 -109.056
| 21> H 	 1.69268 	 -19.2682 	 -110.122
| 22> H 	 0.643412 	 -20.607 	 -109.875
| 23> S 	 1.25056 	 -24.678 	 -113.75
| 24> C 	 1.63887 	 -24.0913 	 -115.359
| 25> C 	 2.85545 	 -23.4347 	 -115.309
| 26> C 	 3.51461 	 -23.2981 	 -114.005
| 27> C 	 2.70759 	 -23.8451 	 -113.014
| 28> H 	 3.23292 	 -22.9987 	 -116.222
| 29> C 	 4.91188 	 -22.614 	 -113.808
| 30> H 	 5.19132 	 -22.8892 	 -112.846
| 31> H 	 4.8695 	 -21.5595 	 -113.82
| 32> C 	 5.94838 	 -22.9248 	 -114.902
| 33> H 	 6.84971 	 -22.2785 	 -114.895
| 34> H 	 5.42672 	 -22.6155 	 -115.806
| 35> C 	 6.53626 	 -24.3088 	 -114.825
| 36> H 	 7.00814 	 -24.5793 	 -115.789
| 37> H 	 5.85544 	 -25.0201 	 -114.417
| 38> H 	 7.41475 	 -24.1842 	 -114.099
| 39> H 	 2.74855 	 -23.8522 	 -107.985
| 40> H 	 0.979039 	 -24.1716 	 -116.178
| 41> *
| 42>
| 43>                          ****END OF INPUT****

CARTESIAN COORDINATES (ANGSTROEM)
---------------------------------
  S      2.321760  -24.845900  -110.227000
  C      2.777800  -23.594800  -109.022000
  C      3.010800  -22.375600  -109.635000
  C      2.885640  -22.452300  -111.075000
  C      2.748600  -23.691000  -111.569000
  H      2.996600  -21.734400  -111.793000
  C      3.335930  -21.105300  -108.853000
  H      3.828570  -20.465300  -109.561000
  H      4.104020  -21.260200  -108.144000
  C      2.135720  -20.264100  -108.316000
  H      1.557710  -20.841700  -107.481000
  H      2.464010  -19.297000  -107.883000
  C      1.132620  -19.846600  -109.408000
  H      0.355772  -19.143000  -109.056000
  H      1.692680  -19.268200  -110.122000
  H      0.643412  -20.607000  -109.875000
  S      1.250560  -24.678000  -113.750000
  C      1.638870  -24.091300  -115.359000
  C      2.855450  -23.434700  -115.309000
  C      3.514610  -23.298100  -114.005000
  C      2.707590  -23.845100  -113.014000
  H      3.232920  -22.998700  -116.222000
  C      4.911880  -22.614000  -113.808000
  H      5.191320  -22.889200  -112.846000
  H      4.869500  -21.559500  -113.820000
  C      5.948380  -22.924800  -114.902000
  H      6.849710  -22.278500  -114.895000
  H      5.426720  -22.615500  -115.806000
  C      6.536260  -24.308800  -114.825000
  H      7.008140  -24.579300  -115.789000
  H      5.855440  -25.020100  -114.417000
  H      7.414750  -24.184200  -114.099000
  H      2.748550  -23.852200  -107.985000
  H      0.979039  -24.171600  -116.178000

 Total Charge           Charge          ....    0
 Multiplicity           Mult            ....    1
 Number of Electrons    NEL             ....  134
 Basis Dimension        Dim             ....  322

ORBITAL ENERGIES
----------------

  NO   OCC          E(Eh)            E(eV)
   0   2.0000     -88.965456     -2420.8731
   1   2.0000     -88.961537     -2420.7665
   2   2.0000     -10.336865      -281.2804
   3   2.0000     -10.330406      -281.1046
   4   2.0000     -10.321114      -280.8518
   5   2.0000     -10.320136      -280.8252
   6   2.0000     -10.315621      -280.7023
   7   2.0000     -10.308970      -280.5213
   8   2.0000     -10.299501      -280.2637
   9   2.0000     -10.298690      -280.2416
  10   2.0000     -10.292241      -280.0661
  11   2.0000     -10.291081      -280.0346
  12   2.0000     -10.288345      -279.9601
  13   2.0000     -10.286791      -279.9178
  14   2.0000     -10.277922      -279.6765
  15   2.0000     -10.268824      -279.4289
  16   2.0000      -8.078696      -219.8325
  17   2.0000      -8.075496      -219.7454
  18   2.0000      -6.037570      -164.2906
  19   2.0000      -6.034209      -164.1992
  20   2.0000      -6.033612      -164.1829
  21   2.0000      -6.030141      -164.0885
  22   2.0000      -6.028936      -164.0557
  23   2.0000      -6.026047      -163.9771
  24   2.0000      -0.999283       -27.1919
  25   2.0000      -0.974594       -26.5200
  26   2.0000      -0.911047       -24.7909
  27   2.0000      -0.906647       -24.6711
  28   2.0000      -0.875285       -23.8177
  29   2.0000      -0.845895       -23.0180
  30   2.0000      -0.840265       -22.8648
  31   2.0000      -0.815509       -22.1911
  32   2.0000      -0.787341       -21.4246
  33   2.0000      -0.776704       -21.1352
  34   2.0000      -0.705476       -19.1970
  35   2.0000      -0.701290       -19.0831
  36   2.0000      -0.696244       -18.9458
  37   2.0000      -0.657095       -17.8805
  38   2.0000      -0.648910       -17.6578
  39   2.0000      -0.614101       -16.7105
  40   2.0000      -0.599239       -16.3061
  41   2.0000      -0.570183       -15.5155
  42   2.0000      -0.557535       -15.1713
  43   2.0000      -0.550574       -14.9819
  44   2.0000      -0.546330       -14.8664
  45   2.0000      -0.540467       -14.7068
  46   2.0000      -0.524308       -14.2671
  47   2.0000      -0.520751       -14.1704
  48   2.0000      -0.499706       -13.5977
  49   2.0000      -0.497740       -13.5442
  50   2.0000      -0.489570       -13.3219
  51   2.0000      -0.473264       -12.8782
  52   2.0000      -0.465338       -12.6625
  53   2.0000      -0.463464       -12.6115
  54   2.0000      -0.461430       -12.5561
  55   2.0000      -0.445814       -12.1312
  56   2.0000      -0.441843       -12.0232
  57   2.0000      -0.438503       -11.9323
  58   2.0000      -0.437281       -11.8990
  59   2.0000      -0.423014       -11.5108
  60   2.0000      -0.420893       -11.4531
  61   2.0000      -0.412831       -11.2337
  62   2.0000      -0.402953       -10.9649
  63   2.0000      -0.353640        -9.6230
  64   2.0000      -0.329504        -8.9663
  65   2.0000      -0.329125        -8.9560
  66   2.0000      -0.293560        -7.9882
  67   0.0000       0.024237         0.6595
  68   0.0000       0.063240         1.7208
  69   0.0000       0.102552         2.7906
  70   0.0000       0.118505         3.2247
  71   0.0000       0.130453         3.5498

MULLIKEN ATOMIC CHARGES
-----------------------
   0 S :    0.082780
   1 C :   -0.117585
   2 C :   -0.066728
   3 C :    0.043542
   4 C :   -0.121847
   5 H :   -0.016498
   6 C :    0.107718
   7 H :    0.003327
   8 H :    0.024470
   9 C :   -0.097695
  10 H :    0.041275
  11 H :    0.036296
  12 C :   -0.034583
  13 H :    0.033404
  14 H :    0.013187
  15 H :    0.030433
  16 S :    0.077429
  17 C :   -0.074402
  18 C :   -0.043978
  19 C :   -0.056179
  20 C :   -0.171097
  21 H :    0.019681
  22 C :    0.128472
  23 H :    0.006911
  24 H :    0.026932
  25 C :   -0.099763
  26 H :    0.028362
  27 H :    0.021761
  28 C :   -0.046354
  29 H :    0.040654
  30 H :    0.044761
  31 H :    0.033375
  32 H :    0.050811
  33 H :    0.051128
Sum of atomic charges:    0.0000000

LOEWDIN ATOMIC CHARGES
----------------------
   0 S :    0.344241
   1 C :   -0.161760
   2 C :   -0.057964
   3 C :   -0.043712
   4 C :   -0.170394
   5 H :    0.018892
   6 C :   -0.031411
   7 H :    0.026715
   8 H :    0.028424
   9 C :   -0.040081
  10 H :    0.027985
  11 H :    0.027226
  12 C :   -0.060730
  13 H :    0.032051
  14 H :    0.020829
  15 H :    0.011630
  16 S :    0.358559
  17 C :   -0.170190
  18 C :   -0.072885
  19 C :   -0.052718
  20 C :   -0.162149
  21 H :    0.025892
  22 C :   -0.017585
  23 H :    0.018757
  24 H :    0.028691
  25 C :   -0.047142
  26 H :    0.028919
  27 H :    0.017852
  28 C :   -0.065375
  29 H :    0.030576
  30 H :    0.022058
  31 H :    0.034831
  32 H :    0.025065
  33 H :    0.024900

  Mayer bond orders larger than 0.100000
B(  0-S ,  1-C ) :   1.1155 B(  0-S ,  4-C ) :   1.0963 B(  1-C ,  2-C ) :   1.6348
B(  1-C , 32-H ) :   0.9780 B(  2-C ,  3-C ) :   1.1770 B(  2-C ,  6-C ) :   1.0185
B(  3-C ,  4-C ) :   1.6208 B(  3-C ,  5-H ) :   1.0078 B(  4-C , 20-C ) :   1.0726
B(  6-C ,  7-H ) :   0.9344 B(  6-C ,  8-H ) :   0.9428 B(  6-C ,  9-C ) :   1.0637
B(  9-C , 10-H ) :   0.9589 B(  9-C , 11-H ) :   0.9576 B(  9-C , 12-C ) :   1.0723
B( 12-C , 13-H ) :   0.9729 B( 12-C , 14-H ) :   0.9740 B( 12-C , 15-H ) :   0.9773
B( 16-S , 17-C ) :   1.1353 B( 16-S , 20-C ) :   1.1126 B( 17-C , 18-C ) :   1.6402
B( 17-C , 33-H ) :   0.9755 B( 18-C , 19-C ) :   1.1941 B( 18-C , 21-H ) :   0.9859
B( 19-C , 20-C ) :   1.6258 B( 19-C , 22-C ) :   1.0213 B( 22-C , 23-H ) :   0.9354
B( 22-C , 24-H ) :   0.9306 B( 22-C , 25-C ) :   1.0715 B( 25-C , 26-H ) :   0.9590
B( 25-C , 27-H ) :   0.9535 B( 25-C , 28-C ) :   1.0668 B( 28-C , 29-H ) :   0.9726
B( 28-C , 30-H ) :   0.9804 B( 28-C , 31-H ) :   0.9765

Dispersion correction           -0.014378929
FINAL SINGLE POINT ENERGY     -1339.850858495925

DIPOLE MOMENT
-------------
                                X             Y             Z
Electronic contribution:    -13.09409     -18.53805      -0.94174
Nuclear contribution   :     13.46516      19.34327       0.86207
                        -----------------------------------------
Total Dipole Moment    :      0.37106       0.80522      -0.07967
                        -----------------------------------------
Magnitude (a.u.)       :      0.89017
Magnitude (Debye)      :      2.26264

Rotational constants in cm-1:     0.018590     0.008071     0.007218
Rotational constants in MHz :   557.317941   241.957641   216.390182

                             ****ORCA TERMINATED NORMALLY****
TOTAL RUN TIME: 0 days 0 hours 0 minutes 21 seconds 575 msec
