                         Program Version 4.2.1 -  RELEASE  -
|  1> ! wB97X-D3 SP def2-SVP
|  2> %pal
|  3> nprocs 24
|  4> end
|  5>
|  6> * xyz 0 1
|  7> S 	 -57.9202 	 15.0817 	 -89.0858
|  8> C 	 -57.1668 	 13.9263 	 -90.2144
|  9> C 	 -55.8764 	 14.2606 	 -90.567
| 10> C 	 -55.5279 	 15.4907 	 -89.9356
| 11> C 	 -56.4965 	 16.0297 	 -89.1097
| 12> H 	 -54.6981 	 16.1847 	 -90.0817
| 13> C 	 -54.9712 	 13.4724 	 -91.5202
| 14> H 	 -54.5103 	 14.1633 	 -92.1281
| 15> H 	 -55.5334 	 12.779 	 -92.1929
| 16> C 	 -53.8026 	 12.7424 	 -90.8421
| 17> H 	 -53.3311 	 13.3553 	 -90.0932
| 18> H 	 -54.1002 	 11.8099 	 -90.2843
| 19> C 	 -52.7723 	 12.4392 	 -91.9217
| 20> H 	 -53.0723 	 11.7273 	 -92.6436
| 21> H 	 -52.4017 	 13.3225 	 -92.3292
| 22> H 	 -51.9343 	 11.9894 	 -91.4185
| 23> S 	 -56.5448 	 17.3546 	 -86.6922
| 24> C 	 -56.5843 	 19.1168 	 -86.6743
| 25> C 	 -56.2838 	 19.6396 	 -87.9066
| 26> C 	 -56.1579 	 18.6198 	 -88.9286
| 27> C 	 -56.3687 	 17.3398 	 -88.434
| 28> H 	 -56.262 	 20.665 	 -88.1127
| 29> C 	 -55.9579 	 18.9737 	 -90.3537
| 30> H 	 -55.9815 	 18.0644 	 -90.9994
| 31> H 	 -54.9815 	 19.4274 	 -90.3858
| 32> C 	 -56.9482 	 19.9343 	 -90.9917
| 33> H 	 -56.9668 	 20.9014 	 -90.5239
| 34> H 	 -57.9168 	 19.487 	 -90.9564
| 35> C 	 -56.6824 	 20.1992 	 -92.4549
| 36> H 	 -55.6169 	 20.2607 	 -92.729
| 37> H 	 -57.1269 	 21.1422 	 -92.7399
| 38> H 	 -57.1845 	 19.4455 	 -93.0926
| 39> H 	 -57.6318 	 12.9787 	 -90.6142
| 40> H 	 -56.7246 	 19.7382 	 -85.8216
| 41> *
| 42>
| 43>                          ****END OF INPUT****

CARTESIAN COORDINATES (ANGSTROEM)
---------------------------------
  S    -57.920200   15.081700  -89.085800
  C    -57.166800   13.926300  -90.214400
  C    -55.876400   14.260600  -90.567000
  C    -55.527900   15.490700  -89.935600
  C    -56.496500   16.029700  -89.109700
  H    -54.698100   16.184700  -90.081700
  C    -54.971200   13.472400  -91.520200
  H    -54.510300   14.163300  -92.128100
  H    -55.533400   12.779000  -92.192900
  C    -53.802600   12.742400  -90.842100
  H    -53.331100   13.355300  -90.093200
  H    -54.100200   11.809900  -90.284300
  C    -52.772300   12.439200  -91.921700
  H    -53.072300   11.727300  -92.643600
  H    -52.401700   13.322500  -92.329200
  H    -51.934300   11.989400  -91.418500
  S    -56.544800   17.354600  -86.692200
  C    -56.584300   19.116800  -86.674300
  C    -56.283800   19.639600  -87.906600
  C    -56.157900   18.619800  -88.928600
  C    -56.368700   17.339800  -88.434000
  H    -56.262000   20.665000  -88.112700
  C    -55.957900   18.973700  -90.353700
  H    -55.981500   18.064400  -90.999400
  H    -54.981500   19.427400  -90.385800
  C    -56.948200   19.934300  -90.991700
  H    -56.966800   20.901400  -90.523900
  H    -57.916800   19.487000  -90.956400
  C    -56.682400   20.199200  -92.454900
  H    -55.616900   20.260700  -92.729000
  H    -57.126900   21.142200  -92.739900
  H    -57.184500   19.445500  -93.092600
  H    -57.631800   12.978700  -90.614200
  H    -56.724600   19.738200  -85.821600

 Total Charge           Charge          ....    0
 Multiplicity           Mult            ....    1
 Number of Electrons    NEL             ....  134
 Basis Dimension        Dim             ....  322

ORBITAL ENERGIES
----------------

  NO   OCC          E(Eh)            E(eV)
   0   2.0000     -88.968189     -2420.9475
   1   2.0000     -88.962530     -2420.7935
   2   2.0000     -10.325257      -280.9645
   3   2.0000     -10.324708      -280.9496
   4   2.0000     -10.317975      -280.7664
   5   2.0000     -10.315765      -280.7062
   6   2.0000     -10.303299      -280.3670
   7   2.0000     -10.301385      -280.3149
   8   2.0000     -10.291864      -280.0558
   9   2.0000     -10.291744      -280.0526
  10   2.0000     -10.290516      -280.0192
  11   2.0000     -10.287095      -279.9261
  12   2.0000     -10.286815      -279.9185
  13   2.0000     -10.278178      -279.6834
  14   2.0000     -10.276155      -279.6284
  15   2.0000     -10.267482      -279.3924
  16   2.0000      -8.082893      -219.9467
  17   2.0000      -8.077234      -219.7927
  18   2.0000      -6.041363      -164.3938
  19   2.0000      -6.037435      -164.2870
  20   2.0000      -6.035837      -164.2435
  21   2.0000      -6.033651      -164.1840
  22   2.0000      -6.031792      -164.1334
  23   2.0000      -6.027869      -164.0267
  24   2.0000      -1.005656       -27.3653
  25   2.0000      -0.982876       -26.7454
  26   2.0000      -0.916530       -24.9400
  27   2.0000      -0.914423       -24.8827
  28   2.0000      -0.869710       -23.6660
  29   2.0000      -0.853769       -23.2322
  30   2.0000      -0.847475       -23.0610
  31   2.0000      -0.813889       -22.1470
  32   2.0000      -0.785104       -21.3638
  33   2.0000      -0.770889       -20.9769
  34   2.0000      -0.704731       -19.1767
  35   2.0000      -0.699333       -19.0298
  36   2.0000      -0.692956       -18.8563
  37   2.0000      -0.662370       -18.0240
  38   2.0000      -0.642284       -17.4774
  39   2.0000      -0.614465       -16.7204
  40   2.0000      -0.598028       -16.2732
  41   2.0000      -0.576287       -15.6816
  42   2.0000      -0.574392       -15.6300
  43   2.0000      -0.564818       -15.3695
  44   2.0000      -0.525901       -14.3105
  45   2.0000      -0.523416       -14.2429
  46   2.0000      -0.518131       -14.0991
  47   2.0000      -0.512870       -13.9559
  48   2.0000      -0.502079       -13.6623
  49   2.0000      -0.500792       -13.6272
  50   2.0000      -0.492043       -13.3892
  51   2.0000      -0.474884       -12.9222
  52   2.0000      -0.467414       -12.7190
  53   2.0000      -0.466045       -12.6817
  54   2.0000      -0.460731       -12.5371
  55   2.0000      -0.451366       -12.2823
  56   2.0000      -0.445700       -12.1281
  57   2.0000      -0.441093       -12.0028
  58   2.0000      -0.431170       -11.7327
  59   2.0000      -0.429066       -11.6755
  60   2.0000      -0.421793       -11.4776
  61   2.0000      -0.419357       -11.4113
  62   2.0000      -0.417481       -11.3602
  63   2.0000      -0.338922        -9.2225
  64   2.0000      -0.334325        -9.0974
  65   2.0000      -0.326015        -8.8713
  66   2.0000      -0.297515        -8.0958
  67   0.0000       0.038289         1.0419
  68   0.0000       0.071186         1.9371
  69   0.0000       0.116289         3.1644
  70   0.0000       0.118431         3.2227
  71   0.0000       0.131673         3.5830

MULLIKEN ATOMIC CHARGES
-----------------------
   0 S :    0.129856
   1 C :   -0.150090
   2 C :   -0.065278
   3 C :    0.023747
   4 C :   -0.168020
   5 H :    0.014839
   6 C :    0.116684
   7 H :   -0.004522
   8 H :    0.028143
   9 C :   -0.099808
  10 H :    0.027464
  11 H :    0.036481
  12 C :   -0.006223
  13 H :    0.027622
  14 H :    0.017844
  15 H :    0.018561
  16 S :    0.100674
  17 C :   -0.073106
  18 C :   -0.010302
  19 C :   -0.020436
  20 C :   -0.189286
  21 H :   -0.000407
  22 C :    0.060351
  23 H :    0.032299
  24 H :    0.023539
  25 C :   -0.062947
  26 H :    0.022199
  27 H :    0.028835
  28 C :   -0.053807
  29 H :    0.028024
  30 H :    0.024266
  31 H :    0.035733
  32 H :    0.059948
  33 H :    0.047125
Sum of atomic charges:    0.0000000

LOEWDIN ATOMIC CHARGES
----------------------
   0 S :    0.413729
   1 C :   -0.198246
   2 C :   -0.062015
   3 C :   -0.067965
   4 C :   -0.213321
   5 H :    0.032371
   6 C :   -0.023202
   7 H :    0.019471
   8 H :    0.035120
   9 C :   -0.036051
  10 H :    0.022675
  11 H :    0.028324
  12 C :   -0.055240
  13 H :    0.020940
  14 H :    0.016755
  15 H :    0.026929
  16 S :    0.394192
  17 C :   -0.171169
  18 C :   -0.061318
  19 C :   -0.054060
  20 C :   -0.200642
  21 H :    0.021924
  22 C :   -0.037077
  23 H :    0.036068
  24 H :    0.031029
  25 C :   -0.038957
  26 H :    0.018345
  27 H :    0.026397
  28 C :   -0.065912
  29 H :    0.024057
  30 H :    0.024986
  31 H :    0.028023
  32 H :    0.038716
  33 H :    0.025122

  Mayer bond orders larger than 0.100000
B(  0-S ,  1-C ) :   1.1309 B(  0-S ,  4-C ) :   1.1593 B(  1-C ,  2-C ) :   1.6354
B(  1-C , 32-H ) :   0.9580 B(  2-C ,  3-C ) :   1.2133 B(  2-C ,  6-C ) :   1.0188
B(  3-C ,  4-C ) :   1.5930 B(  3-C ,  5-H ) :   0.9921 B(  4-C , 20-C ) :   1.0097
B(  6-C ,  7-H ) :   0.9339 B(  6-C ,  8-H ) :   0.9416 B(  6-C ,  9-C ) :   1.0618
B(  9-C , 10-H ) :   0.9576 B(  9-C , 11-H ) :   0.9538 B(  9-C , 12-C ) :   1.0886
B( 12-C , 13-H ) :   0.9748 B( 12-C , 14-H ) :   0.9734 B( 12-C , 15-H ) :   0.9686
B( 16-S , 17-C ) :   1.1417 B( 16-S , 20-C ) :   1.1351 B( 17-C , 18-C ) :   1.6273
B( 17-C , 33-H ) :   0.9704 B( 18-C , 19-C ) :   1.2169 B( 18-C , 21-H ) :   0.9973
B( 19-C , 20-C ) :   1.6177 B( 19-C , 22-C ) :   1.0583 B( 22-C , 23-H ) :   0.9356
B( 22-C , 24-H ) :   0.9144 B( 22-C , 25-C ) :   1.0815 B( 25-C , 26-H ) :   0.9528
B( 25-C , 27-H ) :   0.9538 B( 25-C , 28-C ) :   1.0910 B( 28-C , 29-H ) :   0.9738
B( 28-C , 30-H ) :   0.9740 B( 28-C , 31-H ) :   0.9761

Dispersion correction           -0.013528898
FINAL SINGLE POINT ENERGY     -1339.882868093447

DIPOLE MOMENT
-------------
                                X             Y             Z
Electronic contribution:    -13.57207      -0.44061      23.67771
Nuclear contribution   :     13.90987       0.65938     -24.26166
                        -----------------------------------------
Total Dipole Moment    :      0.33780       0.21877      -0.58395
                        -----------------------------------------
Magnitude (a.u.)       :      0.70920
Magnitude (Debye)      :      1.80264

Rotational constants in cm-1:     0.017449     0.007914     0.006608
Rotational constants in MHz :   523.118066   237.249594   198.105723

                             ****ORCA TERMINATED NORMALLY****
TOTAL RUN TIME: 0 days 0 hours 0 minutes 21 seconds 97 msec
