                         Program Version 4.2.1 -  RELEASE  -
|  1> ! wB97X-D3 SP def2-SVP
|  2> %pal
|  3> nprocs 24
|  4> end
|  5>
|  6> * xyz 0 1
|  7> S 	 -45.439 	 11.0486 	 29.3788
|  8> C 	 -46.5885 	 10.514 	 28.2094
|  9> C 	 -47.2808 	 11.607 	 27.6114
| 10> C 	 -46.8023 	 12.8828 	 28.1223
| 11> C 	 -46.0438 	 12.7214 	 29.2668
| 12> H 	 -47.0317 	 13.8731 	 27.9097
| 13> C 	 -48.3404 	 11.4797 	 26.5809
| 14> H 	 -48.2282 	 10.7446 	 25.6531
| 15> H 	 -48.2928 	 12.3997 	 25.959
| 16> C 	 -49.688 	 11.1236 	 27.2169
| 17> H 	 -50.4355 	 10.9845 	 26.4273
| 18> H 	 -49.45 	 10.2128 	 27.7716
| 19> C 	 -50.2291 	 12.2046 	 28.1313
| 20> H 	 -49.4845 	 12.6549 	 28.77
| 21> H 	 -50.6547 	 12.9989 	 27.4577
| 22> H 	 -51.1299 	 11.933 	 28.7246
| 23> S 	 -43.6592 	 13.662 	 30.0586
| 24> C 	 -43.6331 	 15.2893 	 30.623
| 25> C 	 -44.7956 	 15.725 	 31.1895
| 26> C 	 -45.8314 	 14.8409 	 30.8723
| 27> C 	 -45.3989 	 13.7765 	 30.0527
| 28> H 	 -44.8628 	 16.6681 	 31.7183
| 29> C 	 -47.2918 	 15.1874 	 31.0453
| 30> H 	 -47.575 	 15.1702 	 32.1072
| 31> H 	 -47.9146 	 14.383 	 30.633
| 32> C 	 -47.8554 	 16.4925 	 30.3913
| 33> H 	 -47.3669 	 17.3316 	 31.0086
| 34> H 	 -48.9287 	 16.495 	 30.4274
| 35> C 	 -47.5588 	 16.8114 	 28.9175
| 36> H 	 -46.5001 	 16.8331 	 28.8108
| 37> H 	 -47.9314 	 17.8189 	 28.6565
| 38> H 	 -48.1417 	 16.1828 	 28.2647
| 39> H 	 -46.8432 	 9.48244 	 28.0682
| 40> H 	 -42.644 	 15.7932 	 30.7959
| 41> *
| 42>
| 43>                          ****END OF INPUT****

CARTESIAN COORDINATES (ANGSTROEM)
---------------------------------
  S    -45.439000   11.048600   29.378800
  C    -46.588500   10.514000   28.209400
  C    -47.280800   11.607000   27.611400
  C    -46.802300   12.882800   28.122300
  C    -46.043800   12.721400   29.266800
  H    -47.031700   13.873100   27.909700
  C    -48.340400   11.479700   26.580900
  H    -48.228200   10.744600   25.653100
  H    -48.292800   12.399700   25.959000
  C    -49.688000   11.123600   27.216900
  H    -50.435500   10.984500   26.427300
  H    -49.450000   10.212800   27.771600
  C    -50.229100   12.204600   28.131300
  H    -49.484500   12.654900   28.770000
  H    -50.654700   12.998900   27.457700
  H    -51.129900   11.933000   28.724600
  S    -43.659200   13.662000   30.058600
  C    -43.633100   15.289300   30.623000
  C    -44.795600   15.725000   31.189500
  C    -45.831400   14.840900   30.872300
  C    -45.398900   13.776500   30.052700
  H    -44.862800   16.668100   31.718300
  C    -47.291800   15.187400   31.045300
  H    -47.575000   15.170200   32.107200
  H    -47.914600   14.383000   30.633000
  C    -47.855400   16.492500   30.391300
  H    -47.366900   17.331600   31.008600
  H    -48.928700   16.495000   30.427400
  C    -47.558800   16.811400   28.917500
  H    -46.500100   16.833100   28.810800
  H    -47.931400   17.818900   28.656500
  H    -48.141700   16.182800   28.264700
  H    -46.843200    9.482440   28.068200
  H    -42.644000   15.793200   30.795900

 Total Charge           Charge          ....    0
 Multiplicity           Mult            ....    1
 Number of Electrons    NEL             ....  134
 Basis Dimension        Dim             ....  322

ORBITAL ENERGIES
----------------

  NO   OCC          E(Eh)            E(eV)
   0   2.0000     -88.966082     -2420.8902
   1   2.0000     -88.965751     -2420.8812
   2   2.0000     -10.331038      -281.1218
   3   2.0000     -10.327161      -281.0163
   4   2.0000     -10.317130      -280.7434
   5   2.0000     -10.316288      -280.7205
   6   2.0000     -10.309503      -280.5358
   7   2.0000     -10.306119      -280.4438
   8   2.0000     -10.299415      -280.2613
   9   2.0000     -10.295095      -280.1438
  10   2.0000     -10.293569      -280.1022
  11   2.0000     -10.292471      -280.0724
  12   2.0000     -10.292252      -280.0664
  13   2.0000     -10.287222      -279.9295
  14   2.0000     -10.276908      -279.6489
  15   2.0000     -10.275644      -279.6145
  16   2.0000      -8.081680      -219.9137
  17   2.0000      -8.080913      -219.8928
  18   2.0000      -6.039885      -164.3536
  19   2.0000      -6.039456      -164.3420
  20   2.0000      -6.036400      -164.2588
  21   2.0000      -6.035477      -164.2337
  22   2.0000      -6.032281      -164.1467
  23   2.0000      -6.031575      -164.1275
  24   2.0000      -1.012071       -27.5399
  25   2.0000      -0.985860       -26.8266
  26   2.0000      -0.914444       -24.8833
  27   2.0000      -0.905262       -24.6334
  28   2.0000      -0.870262       -23.6810
  29   2.0000      -0.854542       -23.2533
  30   2.0000      -0.845653       -23.0114
  31   2.0000      -0.816599       -22.2208
  32   2.0000      -0.784557       -21.3489
  33   2.0000      -0.767195       -20.8764
  34   2.0000      -0.701535       -19.0897
  35   2.0000      -0.699532       -19.0352
  36   2.0000      -0.685233       -18.6461
  37   2.0000      -0.661318       -17.9954
  38   2.0000      -0.648247       -17.6397
  39   2.0000      -0.611064       -16.6279
  40   2.0000      -0.596357       -16.2277
  41   2.0000      -0.580444       -15.7947
  42   2.0000      -0.562470       -15.3056
  43   2.0000      -0.547719       -14.9042
  44   2.0000      -0.541722       -14.7410
  45   2.0000      -0.535157       -14.5624
  46   2.0000      -0.516343       -14.0504
  47   2.0000      -0.509700       -13.8696
  48   2.0000      -0.502555       -13.6752
  49   2.0000      -0.491548       -13.3757
  50   2.0000      -0.488729       -13.2990
  51   2.0000      -0.480478       -13.0745
  52   2.0000      -0.474751       -12.9186
  53   2.0000      -0.468398       -12.7458
  54   2.0000      -0.457651       -12.4533
  55   2.0000      -0.455512       -12.3951
  56   2.0000      -0.445205       -12.1146
  57   2.0000      -0.437807       -11.9133
  58   2.0000      -0.426389       -11.6026
  59   2.0000      -0.424168       -11.5422
  60   2.0000      -0.422095       -11.4858
  61   2.0000      -0.406652       -11.0656
  62   2.0000      -0.399454       -10.8697
  63   2.0000      -0.349328        -9.5057
  64   2.0000      -0.335337        -9.1250
  65   2.0000      -0.324504        -8.8302
  66   2.0000      -0.286204        -7.7880
  67   0.0000       0.027005         0.7349
  68   0.0000       0.052597         1.4312
  69   0.0000       0.099047         2.6952
  70   0.0000       0.111007         3.0207
  71   0.0000       0.127846         3.4789

MULLIKEN ATOMIC CHARGES
-----------------------
   0 S :    0.095971
   1 C :   -0.094892
   2 C :   -0.080736
   3 C :    0.080381
   4 C :   -0.154554
   5 H :   -0.020389
   6 C :   -0.018559
   7 H :    0.047629
   8 H :    0.025214
   9 C :   -0.029905
  10 H :    0.032703
  11 H :    0.028352
  12 C :   -0.075546
  13 H :    0.045478
  14 H :    0.021034
  15 H :    0.038395
  16 S :    0.114209
  17 C :   -0.101572
  18 C :   -0.043399
  19 C :    0.000226
  20 C :   -0.184379
  21 H :    0.025914
  22 C :    0.056245
  23 H :    0.036600
  24 H :    0.019365
  25 C :   -0.113480
  26 H :    0.033260
  27 H :    0.031757
  28 C :   -0.034851
  29 H :    0.038610
  30 H :    0.028897
  31 H :    0.033904
  32 H :    0.052015
  33 H :    0.066104
Sum of atomic charges:   -0.0000000

LOEWDIN ATOMIC CHARGES
----------------------
   0 S :    0.394400
   1 C :   -0.198508
   2 C :   -0.058783
   3 C :   -0.048038
   4 C :   -0.181463
   5 H :    0.021676
   6 C :   -0.053967
   7 H :    0.043225
   8 H :    0.029784
   9 C :   -0.038332
  10 H :    0.025998
  11 H :    0.023726
  12 C :   -0.074200
  13 H :    0.020866
  14 H :    0.028073
  15 H :    0.029253
  16 S :    0.418086
  17 C :   -0.188808
  18 C :   -0.074038
  19 C :   -0.057191
  20 C :   -0.196438
  21 H :    0.036841
  22 C :   -0.041292
  23 H :    0.036895
  24 H :    0.028536
  25 C :   -0.041719
  26 H :    0.025876
  27 H :    0.022823
  28 C :   -0.065171
  29 H :    0.022665
  30 H :    0.031837
  31 H :    0.020141
  32 H :    0.025381
  33 H :    0.031865

  Mayer bond orders larger than 0.100000
B(  0-S ,  1-C ) :   1.1462 B(  0-S ,  4-C ) :   1.1400 B(  1-C ,  2-C ) :   1.5945
B(  1-C , 32-H ) :   0.9694 B(  2-C ,  3-C ) :   1.2058 B(  2-C ,  6-C ) :   1.0285
B(  3-C ,  4-C ) :   1.5901 B(  3-C ,  5-H ) :   0.9990 B(  4-C , 20-C ) :   1.0376
B(  6-C ,  7-H ) :   0.9481 B(  6-C ,  8-H ) :   0.9430 B(  6-C ,  9-C ) :   1.0535
B(  9-C , 10-H ) :   0.9559 B(  9-C , 11-H ) :   0.9553 B(  9-C , 12-C ) :   1.0775
B( 12-C , 13-H ) :   0.9757 B( 12-C , 14-H ) :   0.9723 B( 12-C , 15-H ) :   0.9717
B( 16-S , 17-C ) :   1.1696 B( 16-S , 20-C ) :   1.1515 B( 17-C , 18-C ) :   1.6028
B( 17-C , 20-C ) :   0.1020 B( 17-C , 33-H ) :   0.9593 B( 18-C , 19-C ) :   1.2282
B( 18-C , 21-H ) :   1.0008 B( 19-C , 20-C ) :   1.5717 B( 19-C , 22-C ) :   1.0589
B( 22-C , 23-H ) :   0.9291 B( 22-C , 24-H ) :   0.9367 B( 22-C , 25-C ) :   1.0616
B( 25-C , 26-H ) :   0.9551 B( 25-C , 27-H ) :   0.9585 B( 25-C , 28-C ) :   1.0870
B( 28-C , 29-H ) :   0.9730 B( 28-C , 30-H ) :   0.9682 B( 28-C , 31-H ) :   0.9690

Dispersion correction           -0.015738930
FINAL SINGLE POINT ENERGY     -1339.849611268012

DIPOLE MOMENT
-------------
                                X             Y             Z
Electronic contribution:     25.94221     -11.07115       7.28934
Nuclear contribution   :    -26.39691      11.46113      -7.40804
                        -----------------------------------------
Total Dipole Moment    :     -0.45470       0.38999      -0.11870
                        -----------------------------------------
Magnitude (a.u.)       :      0.61068
Magnitude (Debye)      :      1.55223

Rotational constants in cm-1:     0.018877     0.010354     0.007352
Rotational constants in MHz :   565.923774   310.402211   220.408819

                             ****ORCA TERMINATED NORMALLY****
TOTAL RUN TIME: 0 days 0 hours 0 minutes 23 seconds 1 msec
