                         Program Version 4.2.1 -  RELEASE  -
|  1> ! wB97X-D3 SP def2-SVP
|  2> %pal
|  3> nprocs 24
|  4> end
|  5>
|  6> * xyz 0 1
|  7> S 	 33.464 	 -27.8375 	 -111.716
|  8> C 	 33.0137 	 -27.9553 	 -109.984
|  9> C 	 34.009 	 -28.5026 	 -109.245
| 10> C 	 35.1176 	 -28.8886 	 -110.064
| 11> C 	 34.9721 	 -28.5897 	 -111.388
| 12> H 	 35.9493 	 -29.4252 	 -109.635
| 13> C 	 34.0611 	 -28.7962 	 -107.76
| 14> H 	 34.3014 	 -29.8353 	 -107.683
| 15> H 	 33.0662 	 -28.6632 	 -107.301
| 16> C 	 35.0174 	 -27.814 	 -106.965
| 17> H 	 36.0443 	 -28.1831 	 -107.127
| 18> H 	 34.8147 	 -26.7343 	 -107.277
| 19> C 	 34.8332 	 -27.9088 	 -105.471
| 20> H 	 33.9947 	 -27.3817 	 -105.089
| 21> H 	 34.7551 	 -28.9913 	 -105.18
| 22> H 	 35.6947 	 -27.4463 	 -105.034
| 23> S 	 35.867 	 -30.2486 	 -113.355
| 24> C 	 37.2603 	 -29.8877 	 -114.33
| 25> C 	 37.8353 	 -28.7479 	 -113.888
| 26> C 	 37.1062 	 -28.1416 	 -112.836
| 27> C 	 35.9382 	 -28.7954 	 -112.479
| 28> H 	 38.6048 	 -28.2502 	 -114.388
| 29> C 	 37.4412 	 -26.723 	 -112.31
| 30> H 	 36.5357 	 -26.124 	 -112.518
| 31> H 	 38.2556 	 -26.4357 	 -112.903
| 32> C 	 37.9221 	 -26.6925 	 -110.881
| 33> H 	 38.9091 	 -27.2445 	 -110.985
| 34> H 	 37.2802 	 -27.3232 	 -110.293
| 35> C 	 38.1488 	 -25.2646 	 -110.398
| 36> H 	 37.2628 	 -24.6839 	 -110.599
| 37> H 	 38.9945 	 -24.6992 	 -110.829
| 38> H 	 38.6669 	 -25.2953 	 -109.421
| 39> H 	 32.0498 	 -27.6206 	 -109.527
| 40> H 	 37.6596 	 -30.5468 	 -115.184
| 41> *
| 42>
| 43>                          ****END OF INPUT****

CARTESIAN COORDINATES (ANGSTROEM)
---------------------------------
  S     33.464000  -27.837500  -111.716000
  C     33.013700  -27.955300  -109.984000
  C     34.009000  -28.502600  -109.245000
  C     35.117600  -28.888600  -110.064000
  C     34.972100  -28.589700  -111.388000
  H     35.949300  -29.425200  -109.635000
  C     34.061100  -28.796200  -107.760000
  H     34.301400  -29.835300  -107.683000
  H     33.066200  -28.663200  -107.301000
  C     35.017400  -27.814000  -106.965000
  H     36.044300  -28.183100  -107.127000
  H     34.814700  -26.734300  -107.277000
  C     34.833200  -27.908800  -105.471000
  H     33.994700  -27.381700  -105.089000
  H     34.755100  -28.991300  -105.180000
  H     35.694700  -27.446300  -105.034000
  S     35.867000  -30.248600  -113.355000
  C     37.260300  -29.887700  -114.330000
  C     37.835300  -28.747900  -113.888000
  C     37.106200  -28.141600  -112.836000
  C     35.938200  -28.795400  -112.479000
  H     38.604800  -28.250200  -114.388000
  C     37.441200  -26.723000  -112.310000
  H     36.535700  -26.124000  -112.518000
  H     38.255600  -26.435700  -112.903000
  C     37.922100  -26.692500  -110.881000
  H     38.909100  -27.244500  -110.985000
  H     37.280200  -27.323200  -110.293000
  C     38.148800  -25.264600  -110.398000
  H     37.262800  -24.683900  -110.599000
  H     38.994500  -24.699200  -110.829000
  H     38.666900  -25.295300  -109.421000
  H     32.049800  -27.620600  -109.527000
  H     37.659600  -30.546800  -115.184000

 Total Charge           Charge          ....    0
 Multiplicity           Mult            ....    1
 Number of Electrons    NEL             ....  134
 Basis Dimension        Dim             ....  322

ORBITAL ENERGIES
----------------

  NO   OCC          E(Eh)            E(eV)
   0   2.0000     -88.966680     -2420.9064
   1   2.0000     -88.960341     -2420.7339
   2   2.0000     -10.328150      -281.0433
   3   2.0000     -10.318907      -280.7917
   4   2.0000     -10.318304      -280.7753
   5   2.0000     -10.317166      -280.7444
   6   2.0000     -10.297397      -280.2064
   7   2.0000     -10.296517      -280.1825
   8   2.0000     -10.295713      -280.1606
   9   2.0000     -10.295541      -280.1559
  10   2.0000     -10.291206      -280.0380
  11   2.0000     -10.284319      -279.8505
  12   2.0000     -10.280207      -279.7387
  13   2.0000     -10.279997      -279.7329
  14   2.0000     -10.276523      -279.6384
  15   2.0000     -10.276074      -279.6262
  16   2.0000      -8.081346      -219.9046
  17   2.0000      -8.076417      -219.7705
  18   2.0000      -6.039951      -164.3554
  19   2.0000      -6.035873      -164.2444
  20   2.0000      -6.034746      -164.2138
  21   2.0000      -6.031998      -164.1390
  22   2.0000      -6.030560      -164.0999
  23   2.0000      -6.027440      -164.0150
  24   2.0000      -1.013141       -27.5690
  25   2.0000      -0.990382       -26.9497
  26   2.0000      -0.911888       -24.8137
  27   2.0000      -0.908416       -24.7193
  28   2.0000      -0.873895       -23.7799
  29   2.0000      -0.851412       -23.1681
  30   2.0000      -0.844331       -22.9754
  31   2.0000      -0.816364       -22.2144
  32   2.0000      -0.783661       -21.3245
  33   2.0000      -0.769980       -20.9522
  34   2.0000      -0.703718       -19.1492
  35   2.0000      -0.693889       -18.8817
  36   2.0000      -0.686369       -18.6770
  37   2.0000      -0.663858       -18.0645
  38   2.0000      -0.638278       -17.3684
  39   2.0000      -0.624101       -16.9827
  40   2.0000      -0.591480       -16.0950
  41   2.0000      -0.575352       -15.6561
  42   2.0000      -0.570889       -15.5347
  43   2.0000      -0.562211       -15.2985
  44   2.0000      -0.530815       -14.4442
  45   2.0000      -0.527168       -14.3450
  46   2.0000      -0.514712       -14.0060
  47   2.0000      -0.511887       -13.9292
  48   2.0000      -0.506454       -13.7813
  49   2.0000      -0.498185       -13.5563
  50   2.0000      -0.494226       -13.4486
  51   2.0000      -0.478786       -13.0284
  52   2.0000      -0.469134       -12.7658
  53   2.0000      -0.464925       -12.6513
  54   2.0000      -0.459776       -12.5111
  55   2.0000      -0.450440       -12.2571
  56   2.0000      -0.445483       -12.1222
  57   2.0000      -0.435558       -11.8521
  58   2.0000      -0.428281       -11.6541
  59   2.0000      -0.424941       -11.5632
  60   2.0000      -0.417615       -11.3639
  61   2.0000      -0.410183       -11.1616
  62   2.0000      -0.398574       -10.8457
  63   2.0000      -0.338470        -9.2102
  64   2.0000      -0.331734        -9.0269
  65   2.0000      -0.319725        -8.7002
  66   2.0000      -0.313605        -8.5336
  67   0.0000       0.048401         1.3170
  68   0.0000       0.059984         1.6322
  69   0.0000       0.114257         3.1091
  70   0.0000       0.129041         3.5114
  71   0.0000       0.133132         3.6227

MULLIKEN ATOMIC CHARGES
-----------------------
   0 S :    0.113117
   1 C :   -0.144762
   2 C :   -0.082856
   3 C :    0.060150
   4 C :   -0.169965
   5 H :    0.012264
   6 C :    0.062074
   7 H :    0.032463
   8 H :    0.014636
   9 C :   -0.104326
  10 H :    0.035880
  11 H :    0.053579
  12 C :   -0.032219
  13 H :    0.027149
  14 H :    0.033392
  15 H :    0.031324
  16 S :    0.112096
  17 C :   -0.118905
  18 C :    0.000841
  19 C :   -0.079387
  20 C :   -0.159965
  21 H :   -0.002874
  22 C :    0.099064
  23 H :    0.039187
  24 H :   -0.010114
  25 C :   -0.081438
  26 H :    0.021517
  27 H :    0.028466
  28 C :   -0.020916
  29 H :    0.041629
  30 H :    0.016833
  31 H :    0.031157
  32 H :    0.054473
  33 H :    0.086435
Sum of atomic charges:    0.0000000

LOEWDIN ATOMIC CHARGES
----------------------
   0 S :    0.404634
   1 C :   -0.192152
   2 C :   -0.066463
   3 C :   -0.057486
   4 C :   -0.204708
   5 H :    0.030132
   6 C :   -0.031190
   7 H :    0.029568
   8 H :    0.028031
   9 C :   -0.040332
  10 H :    0.025579
  11 H :    0.037203
  12 C :   -0.066042
  13 H :    0.017873
  14 H :    0.030632
  15 H :    0.026056
  16 S :    0.436797
  17 C :   -0.198047
  18 C :   -0.077411
  19 C :   -0.055838
  20 C :   -0.229047
  21 H :    0.023375
  22 C :   -0.025610
  23 H :    0.030904
  24 H :    0.017329
  25 C :   -0.043516
  26 H :    0.030469
  27 H :    0.018210
  28 C :   -0.077168
  29 H :    0.027323
  30 H :    0.029088
  31 H :    0.034684
  32 H :    0.037036
  33 H :    0.050088

  Mayer bond orders larger than 0.100000
B(  0-S ,  1-C ) :   1.1154 B(  0-S ,  4-C ) :   1.1629 B(  1-C ,  2-C ) :   1.6564
B(  1-C , 32-H ) :   0.9601 B(  2-C ,  3-C ) :   1.2194 B(  2-C ,  6-C ) :   1.0254
B(  3-C ,  4-C ) :   1.6065 B(  3-C ,  5-H ) :   0.9936 B(  4-C , 20-C ) :   0.9683
B(  6-C ,  7-H ) :   0.9354 B(  6-C ,  8-H ) :   0.9449 B(  6-C ,  9-C ) :   1.0542
B(  9-C , 10-H ) :   0.9553 B(  9-C , 11-H ) :   0.9573 B(  9-C , 12-C ) :   1.0912
B( 12-C , 13-H ) :   0.9751 B( 12-C , 14-H ) :   0.9705 B( 12-C , 15-H ) :   0.9736
B( 16-S , 17-C ) :   1.1795 B( 16-S , 20-C ) :   1.1687 B( 17-C , 18-C ) :   1.5716
B( 17-C , 20-C ) :   0.1000 B( 17-C , 33-H ) :   0.9556 B( 18-C , 19-C ) :   1.2921
B( 18-C , 21-H ) :   0.9971 B( 19-C , 20-C ) :   1.5864 B( 19-C , 22-C ) :   1.0247
B( 22-C , 23-H ) :   0.9412 B( 22-C , 24-H ) :   0.9306 B( 22-C , 25-C ) :   1.0595
B( 25-C , 26-H ) :   0.9478 B( 25-C , 27-H ) :   0.9604 B( 25-C , 28-C ) :   1.0825
B( 28-C , 29-H ) :   0.9737 B( 28-C , 30-H ) :   0.9667 B( 28-C , 31-H ) :   0.9665

Dispersion correction           -0.014656723
FINAL SINGLE POINT ENERGY     -1339.868628979102

DIPOLE MOMENT
-------------
                                X             Y             Z
Electronic contribution:    -10.75621     -12.88159     -24.89208
Nuclear contribution   :     11.10880      13.06153      25.38687
                        -----------------------------------------
Total Dipole Moment    :      0.35258       0.17994       0.49479
                        -----------------------------------------
Magnitude (a.u.)       :      0.63365
Magnitude (Debye)      :      1.61061

Rotational constants in cm-1:     0.018895     0.008810     0.007174
Rotational constants in MHz :   566.446781   264.117174   215.073551

                             ****ORCA TERMINATED NORMALLY****
TOTAL RUN TIME: 0 days 0 hours 0 minutes 22 seconds 128 msec
