                         Program Version 4.2.1 -  RELEASE  -
|  1> ! wB97X-D3 SP def2-SVP
|  2> %pal
|  3> nprocs 24
|  4> end
|  5>
|  6> * xyz 0 1
|  7> S 	 -133.421 	 8.1653 	 -1.20279
|  8> C 	 -132.198 	 8.32179 	 0.077822
|  9> C 	 -130.935 	 8.40279 	 -0.435425
| 10> C 	 -130.978 	 8.36763 	 -1.82231
| 11> C 	 -132.225 	 8.16606 	 -2.44614
| 12> H 	 -130.119 	 8.53415 	 -2.52162
| 13> C 	 -129.62 	 8.62992 	 0.31343
| 14> H 	 -129.305 	 9.63823 	 0.0596491
| 15> H 	 -128.945 	 7.90606 	 -0.0825983
| 16> C 	 -129.668 	 8.36832 	 1.8625
| 17> H 	 -130.441 	 9.1123 	 2.36614
| 18> H 	 -130.056 	 7.36318 	 1.91369
| 19> C 	 -128.352 	 8.55228 	 2.51567
| 20> H 	 -127.564 	 7.84928 	 2.27204
| 21> H 	 -127.882 	 9.4696 	 2.18577
| 22> H 	 -128.472 	 8.53992 	 3.5633
| 23> S 	 -133.262 	 9.33351 	 -4.7573
| 24> C 	 -132.987 	 8.56662 	 -6.27461
| 25> C 	 -132.569 	 7.26762 	 -6.1244
| 26> C 	 -132.209 	 6.98339 	 -4.76654
| 27> C 	 -132.51 	 8.04466 	 -3.8845
| 28> H 	 -132.457 	 6.70918 	 -7.02469
| 29> C 	 -131.496 	 5.7204 	 -4.32444
| 30> H 	 -130.484 	 6.08657 	 -4.04499
| 31> H 	 -131.355 	 5.10298 	 -5.22499
| 32> C 	 -132.038 	 4.95706 	 -3.16489
| 33> H 	 -133.097 	 4.84459 	 -3.26674
| 34> H 	 -131.883 	 5.54713 	 -2.27004
| 35> C 	 -131.452 	 3.60099 	 -3.02017
| 36> H 	 -131.984 	 3.04954 	 -2.22299
| 37> H 	 -130.41 	 3.47949 	 -2.80106
| 38> H 	 -131.636 	 3.04642 	 -3.91881
| 39> H 	 -132.489 	 8.43346 	 1.09771
| 40> H 	 -133.494 	 8.91785 	 -7.1575
| 41> *
| 42>
| 43>                          ****END OF INPUT****

CARTESIAN COORDINATES (ANGSTROEM)
---------------------------------
  S    -133.421000    8.165300   -1.202790
  C    -132.198000    8.321790    0.077822
  C    -130.935000    8.402790   -0.435425
  C    -130.978000    8.367630   -1.822310
  C    -132.225000    8.166060   -2.446140
  H    -130.119000    8.534150   -2.521620
  C    -129.620000    8.629920    0.313430
  H    -129.305000    9.638230    0.059649
  H    -128.945000    7.906060   -0.082598
  C    -129.668000    8.368320    1.862500
  H    -130.441000    9.112300    2.366140
  H    -130.056000    7.363180    1.913690
  C    -128.352000    8.552280    2.515670
  H    -127.564000    7.849280    2.272040
  H    -127.882000    9.469600    2.185770
  H    -128.472000    8.539920    3.563300
  S    -133.262000    9.333510   -4.757300
  C    -132.987000    8.566620   -6.274610
  C    -132.569000    7.267620   -6.124400
  C    -132.209000    6.983390   -4.766540
  C    -132.510000    8.044660   -3.884500
  H    -132.457000    6.709180   -7.024690
  C    -131.496000    5.720400   -4.324440
  H    -130.484000    6.086570   -4.044990
  H    -131.355000    5.102980   -5.224990
  C    -132.038000    4.957060   -3.164890
  H    -133.097000    4.844590   -3.266740
  H    -131.883000    5.547130   -2.270040
  C    -131.452000    3.600990   -3.020170
  H    -131.984000    3.049540   -2.222990
  H    -130.410000    3.479490   -2.801060
  H    -131.636000    3.046420   -3.918810
  H    -132.489000    8.433460    1.097710
  H    -133.494000    8.917850   -7.157500

 Total Charge           Charge          ....    0
 Multiplicity           Mult            ....    1
 Number of Electrons    NEL             ....  134
 Basis Dimension        Dim             ....  322

ORBITAL ENERGIES
----------------

  NO   OCC          E(Eh)            E(eV)
   0   2.0000     -88.964835     -2420.8562
   1   2.0000     -88.963742     -2420.8265
   2   2.0000     -10.329356      -281.0761
   3   2.0000     -10.324896      -280.9547
   4   2.0000     -10.313075      -280.6330
   5   2.0000     -10.311609      -280.5931
   6   2.0000     -10.305964      -280.4395
   7   2.0000     -10.298740      -280.2430
   8   2.0000     -10.297184      -280.2006
   9   2.0000     -10.294943      -280.1396
  10   2.0000     -10.293187      -280.0919
  11   2.0000     -10.292722      -280.0792
  12   2.0000     -10.286268      -279.9036
  13   2.0000     -10.273594      -279.5587
  14   2.0000     -10.269818      -279.4559
  15   2.0000     -10.267397      -279.3901
  16   2.0000      -8.079389      -219.8513
  17   2.0000      -8.079359      -219.8505
  18   2.0000      -6.037827      -164.2976
  19   2.0000      -6.037712      -164.2945
  20   2.0000      -6.033758      -164.1869
  21   2.0000      -6.033625      -164.1833
  22   2.0000      -6.030406      -164.0957
  23   2.0000      -6.030361      -164.0945
  24   2.0000      -1.007679       -27.4203
  25   2.0000      -0.988403       -26.8958
  26   2.0000      -0.915307       -24.9068
  27   2.0000      -0.913659       -24.8619
  28   2.0000      -0.872444       -23.7404
  29   2.0000      -0.852629       -23.2012
  30   2.0000      -0.850372       -23.1398
  31   2.0000      -0.812798       -22.1174
  32   2.0000      -0.787107       -21.4183
  33   2.0000      -0.771652       -20.9977
  34   2.0000      -0.712266       -19.3818
  35   2.0000      -0.701795       -19.0968
  36   2.0000      -0.685469       -18.6526
  37   2.0000      -0.659103       -17.9351
  38   2.0000      -0.641228       -17.4487
  39   2.0000      -0.610961       -16.6251
  40   2.0000      -0.593029       -16.1371
  41   2.0000      -0.576538       -15.6884
  42   2.0000      -0.573436       -15.6040
  43   2.0000      -0.568143       -15.4600
  44   2.0000      -0.528009       -14.3678
  45   2.0000      -0.523408       -14.2427
  46   2.0000      -0.519419       -14.1341
  47   2.0000      -0.514458       -13.9991
  48   2.0000      -0.508041       -13.8245
  49   2.0000      -0.500859       -13.6291
  50   2.0000      -0.493903       -13.4398
  51   2.0000      -0.481468       -13.1014
  52   2.0000      -0.480841       -13.0843
  53   2.0000      -0.465181       -12.6582
  54   2.0000      -0.460798       -12.5389
  55   2.0000      -0.447997       -12.1906
  56   2.0000      -0.444822       -12.1042
  57   2.0000      -0.428607       -11.6630
  58   2.0000      -0.426375       -11.6022
  59   2.0000      -0.424060       -11.5393
  60   2.0000      -0.420622       -11.4457
  61   2.0000      -0.418214       -11.3802
  62   2.0000      -0.411537       -11.1985
  63   2.0000      -0.335943        -9.1415
  64   2.0000      -0.334202        -9.0941
  65   2.0000      -0.322283        -8.7698
  66   2.0000      -0.303212        -8.2508
  67   0.0000       0.037899         1.0313
  68   0.0000       0.059658         1.6234
  69   0.0000       0.122425         3.3314
  70   0.0000       0.128523         3.4973
  71   0.0000       0.134152         3.6505

MULLIKEN ATOMIC CHARGES
-----------------------
   0 S :    0.114604
   1 C :   -0.146630
   2 C :   -0.050573
   3 C :    0.005903
   4 C :   -0.192953
   5 H :    0.023535
   6 C :    0.074644
   7 H :    0.042441
   8 H :    0.027293
   9 C :   -0.126792
  10 H :    0.046103
  11 H :    0.034305
  12 C :    0.011434
  13 H :    0.022381
  14 H :    0.017953
  15 H :    0.029501
  16 S :    0.119307
  17 C :   -0.096027
  18 C :   -0.040163
  19 C :   -0.029764
  20 C :   -0.170098
  21 H :    0.015437
  22 C :    0.076627
  23 H :    0.030169
  24 H :    0.008223
  25 C :   -0.045871
  26 H :    0.019478
  27 H :    0.041470
  28 C :   -0.024963
  29 H :    0.028745
  30 H :    0.022594
  31 H :    0.012537
  32 H :    0.039819
  33 H :    0.059332
Sum of atomic charges:    0.0000000

LOEWDIN ATOMIC CHARGES
----------------------
   0 S :    0.409948
   1 C :   -0.184509
   2 C :   -0.071369
   3 C :   -0.070048
   4 C :   -0.210399
   5 H :    0.036063
   6 C :   -0.022009
   7 H :    0.033256
   8 H :    0.029397
   9 C :   -0.045038
  10 H :    0.034262
  11 H :    0.023465
  12 C :   -0.065037
  13 H :    0.025905
  14 H :    0.026666
  15 H :    0.024371
  16 S :    0.431626
  17 C :   -0.193547
  18 C :   -0.071722
  19 C :   -0.045679
  20 C :   -0.221621
  21 H :    0.030819
  22 C :   -0.035521
  23 H :    0.038403
  24 H :    0.026685
  25 C :   -0.043673
  26 H :    0.024011
  27 H :    0.027566
  28 C :   -0.061260
  29 H :    0.030997
  30 H :    0.020089
  31 H :    0.020177
  32 H :    0.020770
  33 H :    0.026954

  Mayer bond orders larger than 0.100000
B(  0-S ,  1-C ) :   1.1476 B(  0-S ,  4-C ) :   1.1655 B(  1-C ,  2-C ) :   1.5820
B(  1-C ,  4-C ) :   0.1067 B(  1-C , 32-H ) :   0.9728 B(  2-C ,  3-C ) :   1.2764
B(  2-C ,  6-C ) :   0.9937 B(  3-C ,  4-C ) :   1.5635 B(  3-C ,  5-H ) :   0.9887
B(  4-C , 20-C ) :   1.0209 B(  6-C ,  7-H ) :   0.9370 B(  6-C ,  8-H ) :   0.9425
B(  6-C ,  9-C ) :   1.0774 B(  9-C , 10-H ) :   0.9489 B(  9-C , 11-H ) :   0.9552
B(  9-C , 12-C ) :   1.0936 B( 12-C , 13-H ) :   0.9686 B( 12-C , 14-H ) :   0.9681
B( 12-C , 15-H ) :   0.9696 B( 16-S , 17-C ) :   1.1844 B( 16-S , 20-C ) :   1.1612
B( 17-C , 18-C ) :   1.5933 B( 17-C , 20-C ) :   0.1021 B( 17-C , 33-H ) :   0.9601
B( 18-C , 19-C ) :   1.2582 B( 18-C , 21-H ) :   0.9969 B( 19-C , 20-C ) :   1.5588
B( 19-C , 22-C ) :   1.0403 B( 22-C , 23-H ) :   0.9199 B( 22-C , 24-H ) :   0.9360
B( 22-C , 25-C ) :   1.0704 B( 25-C , 26-H ) :   0.9539 B( 25-C , 27-H ) :   0.9411
B( 25-C , 28-C ) :   1.1045 B( 28-C , 29-H ) :   0.9709 B( 28-C , 30-H ) :   0.9729
B( 28-C , 31-H ) :   0.9694

Dispersion correction           -0.014405691
FINAL SINGLE POINT ENERGY     -1339.882775511900

DIPOLE MOMENT
-------------
                                X             Y             Z
Electronic contribution:    -19.08375      14.26731     -14.74698
Nuclear contribution   :     19.61184     -14.50520      14.86652
                        -----------------------------------------
Total Dipole Moment    :      0.52808      -0.23788       0.11954
                        -----------------------------------------
Magnitude (a.u.)       :      0.59139
Magnitude (Debye)      :      1.50320

Rotational constants in cm-1:     0.020650     0.007756     0.006581
Rotational constants in MHz :   619.080777   232.515513   197.280312

                             ****ORCA TERMINATED NORMALLY****
TOTAL RUN TIME: 0 days 0 hours 0 minutes 21 seconds 592 msec
