                         Program Version 4.2.1 -  RELEASE  -
|  1> ! wB97X-D3 SP def2-SVP
|  2> %pal
|  3> nprocs 24
|  4> end
|  5>
|  6> * xyz 0 1
|  7> S 	 -36.0452 	 -50.095 	 -76.1659
|  8> C 	 -35.1657 	 -50.3129 	 -77.5943
|  9> C 	 -35.0554 	 -49.2276 	 -78.4352
| 10> C 	 -35.736 	 -48.1284 	 -77.8299
| 11> C 	 -36.3156 	 -48.4197 	 -76.6304
| 12> H 	 -35.8005 	 -47.1768 	 -78.191
| 13> C 	 -34.2647 	 -49.0412 	 -79.6299
| 14> H 	 -34.8233 	 -48.4847 	 -80.3556
| 15> H 	 -34.0011 	 -50.008 	 -80.1606
| 16> C 	 -33.0075 	 -48.2393 	 -79.3735
| 17> H 	 -32.5829 	 -48.1639 	 -80.3121
| 18> H 	 -33.2521 	 -47.1526 	 -79.1056
| 19> C 	 -32.0591 	 -48.8286 	 -78.3517
| 20> H 	 -32.2397 	 -49.2523 	 -77.3239
| 21> H 	 -31.6 	 -49.7008 	 -78.7767
| 22> H 	 -31.2794 	 -48.09 	 -78.2711
| 23> S 	 -38.7729 	 -48.3697 	 -75.2978
| 24> C 	 -39.3234 	 -46.8403 	 -74.5772
| 25> C 	 -38.5329 	 -45.7598 	 -75.0013
| 26> C 	 -37.3969 	 -46.175 	 -75.8068
| 27> C 	 -37.3656 	 -47.5927 	 -75.9561
| 28> H 	 -38.74 	 -44.7554 	 -74.8153
| 29> C 	 -36.4989 	 -45.1649 	 -76.5691
| 30> H 	 -35.5282 	 -45.5638 	 -76.6897
| 31> H 	 -36.4661 	 -44.3373 	 -75.772
| 32> C 	 -37.2198 	 -44.5343 	 -77.8063
| 33> H 	 -38.3362 	 -44.4923 	 -77.5581
| 34> H 	 -37.1949 	 -45.2203 	 -78.6862
| 35> C 	 -36.5637 	 -43.1771 	 -78.2122
| 36> H 	 -35.8426 	 -43.2275 	 -79.0217
| 37> H 	 -36.0912 	 -42.6374 	 -77.3946
| 38> H 	 -37.266 	 -42.4703 	 -78.6505
| 39> H 	 -34.6582 	 -51.244 	 -77.7325
| 40> H 	 -40.1512 	 -46.8096 	 -73.9814
| 41> *
| 42>
| 43>                          ****END OF INPUT****

CARTESIAN COORDINATES (ANGSTROEM)
---------------------------------
  S    -36.045200  -50.095000  -76.165900
  C    -35.165700  -50.312900  -77.594300
  C    -35.055400  -49.227600  -78.435200
  C    -35.736000  -48.128400  -77.829900
  C    -36.315600  -48.419700  -76.630400
  H    -35.800500  -47.176800  -78.191000
  C    -34.264700  -49.041200  -79.629900
  H    -34.823300  -48.484700  -80.355600
  H    -34.001100  -50.008000  -80.160600
  C    -33.007500  -48.239300  -79.373500
  H    -32.582900  -48.163900  -80.312100
  H    -33.252100  -47.152600  -79.105600
  C    -32.059100  -48.828600  -78.351700
  H    -32.239700  -49.252300  -77.323900
  H    -31.600000  -49.700800  -78.776700
  H    -31.279400  -48.090000  -78.271100
  S    -38.772900  -48.369700  -75.297800
  C    -39.323400  -46.840300  -74.577200
  C    -38.532900  -45.759800  -75.001300
  C    -37.396900  -46.175000  -75.806800
  C    -37.365600  -47.592700  -75.956100
  H    -38.740000  -44.755400  -74.815300
  C    -36.498900  -45.164900  -76.569100
  H    -35.528200  -45.563800  -76.689700
  H    -36.466100  -44.337300  -75.772000
  C    -37.219800  -44.534300  -77.806300
  H    -38.336200  -44.492300  -77.558100
  H    -37.194900  -45.220300  -78.686200
  C    -36.563700  -43.177100  -78.212200
  H    -35.842600  -43.227500  -79.021700
  H    -36.091200  -42.637400  -77.394600
  H    -37.266000  -42.470300  -78.650500
  H    -34.658200  -51.244000  -77.732500
  H    -40.151200  -46.809600  -73.981400

 Total Charge           Charge          ....    0
 Multiplicity           Mult            ....    1
 Number of Electrons    NEL             ....  134
 Basis Dimension        Dim             ....  322

ORBITAL ENERGIES
----------------

  NO   OCC          E(Eh)            E(eV)
   0   2.0000     -88.965789     -2420.8822
   1   2.0000     -88.965199     -2420.8661
   2   2.0000     -10.328521      -281.0533
   3   2.0000     -10.325491      -280.9709
   4   2.0000     -10.314182      -280.6632
   5   2.0000     -10.306304      -280.4488
   6   2.0000     -10.304177      -280.3909
   7   2.0000     -10.303401      -280.3698
   8   2.0000     -10.300685      -280.2959
   9   2.0000     -10.295554      -280.1563
  10   2.0000     -10.294268      -280.1213
  11   2.0000     -10.289150      -279.9820
  12   2.0000     -10.288971      -279.9771
  13   2.0000     -10.283163      -279.8191
  14   2.0000     -10.281099      -279.7629
  15   2.0000     -10.274955      -279.5957
  16   2.0000      -8.081080      -219.8974
  17   2.0000      -8.080159      -219.8723
  18   2.0000      -6.039387      -164.3401
  19   2.0000      -6.038606      -164.3188
  20   2.0000      -6.035551      -164.2357
  21   2.0000      -6.034782      -164.2148
  22   2.0000      -6.031871      -164.1355
  23   2.0000      -6.030957      -164.1107
  24   2.0000      -1.007638       -27.4192
  25   2.0000      -0.979410       -26.6511
  26   2.0000      -0.923759       -25.1368
  27   2.0000      -0.900581       -24.5060
  28   2.0000      -0.864068       -23.5125
  29   2.0000      -0.856611       -23.3096
  30   2.0000      -0.843821       -22.9615
  31   2.0000      -0.813779       -22.1440
  32   2.0000      -0.786670       -21.4064
  33   2.0000      -0.771959       -21.0061
  34   2.0000      -0.707927       -19.2637
  35   2.0000      -0.701714       -19.0946
  36   2.0000      -0.693156       -18.8617
  37   2.0000      -0.666983       -18.1495
  38   2.0000      -0.647895       -17.6301
  39   2.0000      -0.624799       -17.0017
  40   2.0000      -0.594577       -16.1793
  41   2.0000      -0.571669       -15.5559
  42   2.0000      -0.560766       -15.2592
  43   2.0000      -0.550040       -14.9673
  44   2.0000      -0.543487       -14.7890
  45   2.0000      -0.522879       -14.2283
  46   2.0000      -0.517748       -14.0886
  47   2.0000      -0.510525       -13.8921
  48   2.0000      -0.503968       -13.7137
  49   2.0000      -0.498413       -13.5625
  50   2.0000      -0.487823       -13.2743
  51   2.0000      -0.480927       -13.0867
  52   2.0000      -0.470823       -12.8117
  53   2.0000      -0.460269       -12.5246
  54   2.0000      -0.455936       -12.4066
  55   2.0000      -0.452549       -12.3145
  56   2.0000      -0.447859       -12.1869
  57   2.0000      -0.439461       -11.9583
  58   2.0000      -0.435079       -11.8391
  59   2.0000      -0.432241       -11.7619
  60   2.0000      -0.423225       -11.5165
  61   2.0000      -0.413475       -11.2512
  62   2.0000      -0.409074       -11.1315
  63   2.0000      -0.353287        -9.6134
  64   2.0000      -0.329088        -8.9549
  65   2.0000      -0.326099        -8.8736
  66   2.0000      -0.281516        -7.6604
  67   0.0000       0.029514         0.8031
  68   0.0000       0.078773         2.1435
  69   0.0000       0.103703         2.8219
  70   0.0000       0.121375         3.3028
  71   0.0000       0.127841         3.4787

MULLIKEN ATOMIC CHARGES
-----------------------
   0 S :    0.111773
   1 C :   -0.127892
   2 C :   -0.024666
   3 C :    0.032205
   4 C :   -0.122071
   5 H :   -0.049971
   6 C :    0.065227
   7 H :    0.017385
   8 H :    0.028129
   9 C :   -0.057214
  10 H :    0.014297
  11 H :    0.033487
  12 C :   -0.050921
  13 H :    0.057064
  14 H :    0.009021
  15 H :    0.026585
  16 S :    0.102638
  17 C :   -0.073686
  18 C :    0.011598
  19 C :   -0.089141
  20 C :   -0.133281
  21 H :   -0.002116
  22 C :    0.037129
  23 H :    0.035083
  24 H :    0.035337
  25 C :   -0.084506
  26 H :    0.050143
  27 H :    0.042012
  28 C :   -0.042307
  29 H :    0.028913
  30 H :    0.032271
  31 H :    0.027721
  32 H :    0.033718
  33 H :    0.026035
Sum of atomic charges:   -0.0000000

LOEWDIN ATOMIC CHARGES
----------------------
   0 S :    0.419437
   1 C :   -0.204004
   2 C :   -0.061630
   3 C :   -0.043386
   4 C :   -0.185512
   5 H :    0.011729
   6 C :   -0.038240
   7 H :    0.030934
   8 H :    0.035882
   9 C :   -0.032360
  10 H :    0.018718
  11 H :    0.028291
  12 C :   -0.078046
  13 H :    0.039691
  14 H :    0.021232
  15 H :    0.026953
  16 S :    0.399703
  17 C :   -0.166974
  18 C :   -0.055677
  19 C :   -0.064420
  20 C :   -0.199310
  21 H :    0.020217
  22 C :   -0.032596
  23 H :    0.021682
  24 H :    0.038961
  25 C :   -0.045303
  26 H :    0.037114
  27 H :    0.026609
  28 C :   -0.074206
  29 H :    0.026164
  30 H :    0.024772
  31 H :    0.028677
  32 H :    0.018112
  33 H :    0.006788

  Mayer bond orders larger than 0.100000
B(  0-S ,  1-C ) :   1.1585 B(  0-S ,  4-C ) :   1.1412 B(  1-C ,  2-C ) :   1.5899
B(  1-C , 32-H ) :   0.9667 B(  2-C ,  3-C ) :   1.2263 B(  2-C ,  6-C ) :   1.0608
B(  3-C ,  4-C ) :   1.5757 B(  3-C ,  5-H ) :   1.0046 B(  4-C , 20-C ) :   1.0290
B(  6-C ,  7-H ) :   0.9197 B(  6-C ,  8-H ) :   0.9358 B(  6-C ,  9-C ) :   1.0882
B(  9-C , 10-H ) :   0.9476 B(  9-C , 11-H ) :   0.9522 B(  9-C , 12-C ) :   1.0676
B( 12-C , 13-H ) :   0.9763 B( 12-C , 14-H ) :   0.9700 B( 12-C , 15-H ) :   0.9712
B( 16-S , 17-C ) :   1.1454 B( 16-S , 20-C ) :   1.1571 B( 17-C , 18-C ) :   1.5760
B( 17-C , 33-H ) :   0.9859 B( 18-C , 19-C ) :   1.2621 B( 18-C , 21-H ) :   0.9953
B( 19-C , 20-C ) :   1.5698 B( 19-C , 22-C ) :   1.0452 B( 22-C , 23-H ) :   0.9337
B( 22-C , 24-H ) :   0.9385 B( 22-C , 25-C ) :   1.0453 B( 25-C , 26-H ) :   0.9589
B( 25-C , 27-H ) :   0.9555 B( 25-C , 28-C ) :   1.0538 B( 28-C , 29-H ) :   0.9767
B( 28-C , 30-H ) :   0.9801 B( 28-C , 31-H ) :   0.9748

Dispersion correction           -0.014712577
FINAL SINGLE POINT ENERGY     -1339.856088675825

DIPOLE MOMENT
-------------
                                X             Y             Z
Electronic contribution:    -16.78977     -18.34652      16.55324
Nuclear contribution   :     17.13385      18.80547     -17.11389
                        -----------------------------------------
Total Dipole Moment    :      0.34408       0.45894      -0.56066
                        -----------------------------------------
Magnitude (a.u.)       :      0.80210
Magnitude (Debye)      :      2.03876

Rotational constants in cm-1:     0.017242     0.010061     0.006821
Rotational constants in MHz :   516.899126   301.636003   204.477497

                             ****ORCA TERMINATED NORMALLY****
TOTAL RUN TIME: 0 days 0 hours 0 minutes 22 seconds 231 msec
