                         Program Version 4.2.1 -  RELEASE  -
|  1> ! wB97X-D3 SP def2-SVP
|  2> %pal
|  3> nprocs 24
|  4> end
|  5>
|  6> * xyz 0 1
|  7> S 	 -48.3148 	 5.87276 	 -17.3837
|  8> C 	 -48.7067 	 4.51381 	 -18.4189
|  9> C 	 -49.904 	 3.84977 	 -17.9312
| 10> C 	 -50.4015 	 4.48211 	 -16.7662
| 11> C 	 -49.6337 	 5.54289 	 -16.2887
| 12> H 	 -51.2834 	 4.16117 	 -16.3099
| 13> C 	 -50.4921 	 2.52758 	 -18.5017
| 14> H 	 -51.4334 	 2.67645 	 -19.1324
| 15> H 	 -50.8635 	 1.9333 	 -17.6505
| 16> C 	 -49.4413 	 1.63978 	 -19.3003
| 17> H 	 -49.9115 	 0.96895 	 -19.9967
| 18> H 	 -48.8317 	 2.25615 	 -20.0251
| 19> C 	 -48.4814 	 0.877935 	 -18.4496
| 20> H 	 -47.669 	 0.393558 	 -19.0803
| 21> H 	 -47.9561 	 1.5427 	 -17.8168
| 22> H 	 -48.8555 	 0.0491697 	 -17.9125
| 23> S 	 -50.5805 	 7.9263 	 -15.4472
| 24> C 	 -50.6808 	 8.3224 	 -13.771
| 25> C 	 -50.3495 	 7.24951 	 -13.0112
| 26> C 	 -49.9506 	 6.07274 	 -13.7704
| 27> C 	 -49.8867 	 6.34895 	 -15.1298
| 28> H 	 -50.3017 	 7.33065 	 -11.9238
| 29> C 	 -49.6314 	 4.7207 	 -13.1672
| 30> H 	 -49.9221 	 3.90851 	 -13.8637
| 31> H 	 -50.1408 	 4.59735 	 -12.1362
| 32> C 	 -48.1139 	 4.52665 	 -12.8741
| 33> H 	 -47.5544 	 4.71897 	 -13.7653
| 34> H 	 -47.863 	 3.4898 	 -12.6432
| 35> C 	 -47.6143 	 5.39155 	 -11.7443
| 36> H 	 -47.9408 	 5.01595 	 -10.8149
| 37> H 	 -48.0016 	 6.4069 	 -11.802
| 38> H 	 -46.543 	 5.39071 	 -11.7467
| 39> H 	 -48.1528 	 4.28503 	 -19.3393
| 40> H 	 -50.9716 	 9.31427 	 -13.4269
| 41> *
| 42>
| 43>                          ****END OF INPUT****

CARTESIAN COORDINATES (ANGSTROEM)
---------------------------------
  S    -48.314800    5.872760  -17.383700
  C    -48.706700    4.513810  -18.418900
  C    -49.904000    3.849770  -17.931200
  C    -50.401500    4.482110  -16.766200
  C    -49.633700    5.542890  -16.288700
  H    -51.283400    4.161170  -16.309900
  C    -50.492100    2.527580  -18.501700
  H    -51.433400    2.676450  -19.132400
  H    -50.863500    1.933300  -17.650500
  C    -49.441300    1.639780  -19.300300
  H    -49.911500    0.968950  -19.996700
  H    -48.831700    2.256150  -20.025100
  C    -48.481400    0.877935  -18.449600
  H    -47.669000    0.393558  -19.080300
  H    -47.956100    1.542700  -17.816800
  H    -48.855500    0.049170  -17.912500
  S    -50.580500    7.926300  -15.447200
  C    -50.680800    8.322400  -13.771000
  C    -50.349500    7.249510  -13.011200
  C    -49.950600    6.072740  -13.770400
  C    -49.886700    6.348950  -15.129800
  H    -50.301700    7.330650  -11.923800
  C    -49.631400    4.720700  -13.167200
  H    -49.922100    3.908510  -13.863700
  H    -50.140800    4.597350  -12.136200
  C    -48.113900    4.526650  -12.874100
  H    -47.554400    4.718970  -13.765300
  H    -47.863000    3.489800  -12.643200
  C    -47.614300    5.391550  -11.744300
  H    -47.940800    5.015950  -10.814900
  H    -48.001600    6.406900  -11.802000
  H    -46.543000    5.390710  -11.746700
  H    -48.152800    4.285030  -19.339300
  H    -50.971600    9.314270  -13.426900

 Total Charge           Charge          ....    0
 Multiplicity           Mult            ....    1
 Number of Electrons    NEL             ....  134
 Basis Dimension        Dim             ....  322

ORBITAL ENERGIES
----------------

  NO   OCC          E(Eh)            E(eV)
   0   2.0000     -88.971326     -2421.0329
   1   2.0000     -88.959868     -2420.7211
   2   2.0000     -10.328972      -281.0656
   3   2.0000     -10.324338      -280.9395
   4   2.0000     -10.323327      -280.9120
   5   2.0000     -10.315049      -280.6868
   6   2.0000     -10.312139      -280.6076
   7   2.0000     -10.308327      -280.5038
   8   2.0000     -10.307790      -280.4892
   9   2.0000     -10.299373      -280.2602
  10   2.0000     -10.295148      -280.1452
  11   2.0000     -10.292730      -280.0794
  12   2.0000     -10.292275      -280.0670
  13   2.0000     -10.277530      -279.6658
  14   2.0000     -10.271095      -279.4907
  15   2.0000     -10.264721      -279.3173
  16   2.0000      -8.085557      -220.0192
  17   2.0000      -8.075512      -219.7459
  18   2.0000      -6.043879      -164.4623
  19   2.0000      -6.039952      -164.3555
  20   2.0000      -6.036725      -164.2676
  21   2.0000      -6.034014      -164.1939
  22   2.0000      -6.029834      -164.0801
  23   2.0000      -6.026274      -163.9833
  24   2.0000      -1.007558       -27.4170
  25   2.0000      -0.982058       -26.7232
  26   2.0000      -0.907430       -24.6924
  27   2.0000      -0.905474       -24.6392
  28   2.0000      -0.869920       -23.6717
  29   2.0000      -0.853845       -23.2343
  30   2.0000      -0.845223       -22.9997
  31   2.0000      -0.811043       -22.0696
  32   2.0000      -0.781934       -21.2775
  33   2.0000      -0.769323       -20.9343
  34   2.0000      -0.707040       -19.2395
  35   2.0000      -0.702734       -19.1224
  36   2.0000      -0.687275       -18.7017
  37   2.0000      -0.660966       -17.9858
  38   2.0000      -0.643973       -17.5234
  39   2.0000      -0.615224       -16.7411
  40   2.0000      -0.593884       -16.1604
  41   2.0000      -0.573333       -15.6012
  42   2.0000      -0.553466       -15.0606
  43   2.0000      -0.547437       -14.8965
  44   2.0000      -0.545082       -14.8324
  45   2.0000      -0.534236       -14.5373
  46   2.0000      -0.517577       -14.0840
  47   2.0000      -0.513123       -13.9628
  48   2.0000      -0.505807       -13.7637
  49   2.0000      -0.492233       -13.3943
  50   2.0000      -0.485719       -13.2171
  51   2.0000      -0.482896       -13.1403
  52   2.0000      -0.473582       -12.8868
  53   2.0000      -0.466077       -12.6826
  54   2.0000      -0.464356       -12.6358
  55   2.0000      -0.440810       -11.9951
  56   2.0000      -0.437134       -11.8950
  57   2.0000      -0.433763       -11.8033
  58   2.0000      -0.431205       -11.7337
  59   2.0000      -0.427967       -11.6456
  60   2.0000      -0.423726       -11.5302
  61   2.0000      -0.415479       -11.3058
  62   2.0000      -0.412099       -11.2138
  63   2.0000      -0.340838        -9.2747
  64   2.0000      -0.328191        -8.9305
  65   2.0000      -0.323848        -8.8123
  66   2.0000      -0.301841        -8.2135
  67   0.0000       0.034139         0.9290
  68   0.0000       0.058517         1.5923
  69   0.0000       0.113903         3.0995
  70   0.0000       0.120561         3.2806
  71   0.0000       0.123139         3.3508

MULLIKEN ATOMIC CHARGES
-----------------------
   0 S :    0.132620
   1 C :   -0.144845
   2 C :   -0.093278
   3 C :    0.082129
   4 C :   -0.182468
   5 H :   -0.009281
   6 C :    0.034022
   7 H :    0.057214
   8 H :    0.031990
   9 C :   -0.078496
  10 H :    0.018899
  11 H :    0.023458
  12 C :   -0.031867
  13 H :    0.027780
  14 H :    0.027714
  15 H :    0.024391
  16 S :    0.102266
  17 C :   -0.089588
  18 C :   -0.036401
  19 C :   -0.020821
  20 C :   -0.170142
  21 H :    0.026067
  22 C :    0.039585
  23 H :    0.036367
  24 H :    0.036422
  25 C :   -0.058120
  26 H :    0.019893
  27 H :    0.023269
  28 C :   -0.020426
  29 H :    0.008924
  30 H :    0.024639
  31 H :    0.029397
  32 H :    0.067257
  33 H :    0.061427
Sum of atomic charges:   -0.0000000

LOEWDIN ATOMIC CHARGES
----------------------
   0 S :    0.427161
   1 C :   -0.209135
   2 C :   -0.060460
   3 C :   -0.050499
   4 C :   -0.210080
   5 H :    0.023074
   6 C :   -0.035878
   7 H :    0.042131
   8 H :    0.031535
   9 C :   -0.045477
  10 H :    0.021190
  11 H :    0.027055
  12 C :   -0.065506
  13 H :    0.034745
  14 H :    0.020325
  15 H :    0.017635
  16 S :    0.412597
  17 C :   -0.188620
  18 C :   -0.078797
  19 C :   -0.050252
  20 C :   -0.205601
  21 H :    0.031844
  22 C :   -0.035716
  23 H :    0.034898
  24 H :    0.038472
  25 C :   -0.037870
  26 H :    0.018823
  27 H :    0.022781
  28 C :   -0.059973
  29 H :    0.015849
  30 H :    0.024231
  31 H :    0.025836
  32 H :    0.030973
  33 H :    0.032710

  Mayer bond orders larger than 0.100000
B(  0-S ,  1-C ) :   1.1696 B(  0-S ,  4-C ) :   1.1686 B(  1-C ,  2-C ) :   1.5408
B(  1-C ,  4-C ) :   0.1152 B(  1-C , 32-H ) :   0.9659 B(  2-C ,  3-C ) :   1.2992
B(  2-C ,  6-C ) :   1.0032 B(  3-C ,  4-C ) :   1.5309 B(  3-C ,  5-H ) :   1.0032
B(  4-C , 20-C ) :   1.0244 B(  6-C ,  7-H ) :   0.9407 B(  6-C ,  8-H ) :   0.9531
B(  6-C ,  9-C ) :   1.0593 B(  9-C , 10-H ) :   0.9550 B(  9-C , 11-H ) :   0.9549
B(  9-C , 12-C ) :   1.0877 B( 12-C , 13-H ) :   0.9694 B( 12-C , 14-H ) :   0.9743
B( 12-C , 15-H ) :   0.9747 B( 16-S , 17-C ) :   1.1570 B( 16-S , 20-C ) :   1.1522
B( 17-C , 18-C ) :   1.6142 B( 17-C , 33-H ) :   0.9687 B( 18-C , 19-C ) :   1.2201
B( 18-C , 21-H ) :   0.9856 B( 19-C , 20-C ) :   1.6057 B( 19-C , 22-C ) :   1.0524
B( 22-C , 23-H ) :   0.9296 B( 22-C , 24-H ) :   0.9394 B( 22-C , 25-C ) :   1.0737
B( 25-C , 26-H ) :   0.9566 B( 25-C , 27-H ) :   0.9551 B( 25-C , 28-C ) :   1.0797
B( 28-C , 29-H ) :   0.9727 B( 28-C , 30-H ) :   0.9739 B( 28-C , 31-H ) :   0.9710

Dispersion correction           -0.014630151
FINAL SINGLE POINT ENERGY     -1339.884874024379

DIPOLE MOMENT
-------------
                                X             Y             Z
Electronic contribution:     -6.02729      23.35442      -5.22635
Nuclear contribution   :      5.92630     -23.88708       5.37664
                        -----------------------------------------
Total Dipole Moment    :     -0.10100      -0.53266       0.15029
                        -----------------------------------------
Magnitude (a.u.)       :      0.56260
Magnitude (Debye)      :      1.43001

Rotational constants in cm-1:     0.021631     0.008052     0.006776
Rotational constants in MHz :   648.466173   241.384126   203.140134

                             ****ORCA TERMINATED NORMALLY****
TOTAL RUN TIME: 0 days 0 hours 0 minutes 20 seconds 491 msec
