                         Program Version 4.2.1 -  RELEASE  -
|  1> ! wB97X-D3 SP def2-SVP
|  2> %pal
|  3> nprocs 24
|  4> end
|  5>
|  6> * xyz 0 1
|  7> S 	 34.3306 	 -3.36703 	 -122.768
|  8> C 	 32.8033 	 -2.44059 	 -122.888
|  9> C 	 31.7947 	 -3.11599 	 -122.306
| 10> C 	 32.1822 	 -4.32442 	 -121.692
| 11> C 	 33.5342 	 -4.65128 	 -121.858
| 12> H 	 31.6168 	 -4.9402 	 -121.007
| 13> C 	 30.4415 	 -2.57783 	 -122.065
| 14> H 	 30.5233 	 -1.52933 	 -121.938
| 15> H 	 30.0956 	 -2.89946 	 -121.074
| 16> C 	 29.3524 	 -2.93726 	 -123.132
| 17> H 	 29.2454 	 -2.22287 	 -123.938
| 18> H 	 29.5718 	 -3.85931 	 -123.562
| 19> C 	 27.9778 	 -3.15169 	 -122.456
| 20> H 	 28.1063 	 -3.95927 	 -121.811
| 21> H 	 27.6854 	 -2.24742 	 -121.91
| 22> H 	 27.1591 	 -3.43618 	 -123.079
| 23> S 	 33.7147 	 -7.33098 	 -121.825
| 24> C 	 34.5729 	 -8.14411 	 -120.604
| 25> C 	 35.4406 	 -7.28864 	 -119.856
| 26> C 	 35.1529 	 -5.90233 	 -120.21
| 27> C 	 34.2529 	 -5.72357 	 -121.209
| 28> H 	 36.1241 	 -7.60884 	 -119.049
| 29> C 	 35.7305 	 -4.79652 	 -119.424
| 30> H 	 35.3015 	 -3.88966 	 -119.901
| 31> H 	 36.7378 	 -4.52937 	 -119.6
| 32> C 	 35.4257 	 -4.77396 	 -117.901
| 33> H 	 35.8177 	 -5.73859 	 -117.497
| 34> H 	 34.3388 	 -4.70687 	 -117.813
| 35> C 	 36.0917 	 -3.68101 	 -117.066
| 36> H 	 35.8031 	 -3.66035 	 -115.94
| 37> H 	 35.8464 	 -2.65159 	 -117.387
| 38> H 	 37.1393 	 -3.65216 	 -117.086
| 39> H 	 32.6854 	 -1.4581 	 -123.211
| 40> H 	 34.7254 	 -9.21968 	 -120.593
| 41> *
| 42>
| 43>                          ****END OF INPUT****

CARTESIAN COORDINATES (ANGSTROEM)
---------------------------------
  S     34.330600   -3.367030  -122.768000
  C     32.803300   -2.440590  -122.888000
  C     31.794700   -3.115990  -122.306000
  C     32.182200   -4.324420  -121.692000
  C     33.534200   -4.651280  -121.858000
  H     31.616800   -4.940200  -121.007000
  C     30.441500   -2.577830  -122.065000
  H     30.523300   -1.529330  -121.938000
  H     30.095600   -2.899460  -121.074000
  C     29.352400   -2.937260  -123.132000
  H     29.245400   -2.222870  -123.938000
  H     29.571800   -3.859310  -123.562000
  C     27.977800   -3.151690  -122.456000
  H     28.106300   -3.959270  -121.811000
  H     27.685400   -2.247420  -121.910000
  H     27.159100   -3.436180  -123.079000
  S     33.714700   -7.330980  -121.825000
  C     34.572900   -8.144110  -120.604000
  C     35.440600   -7.288640  -119.856000
  C     35.152900   -5.902330  -120.210000
  C     34.252900   -5.723570  -121.209000
  H     36.124100   -7.608840  -119.049000
  C     35.730500   -4.796520  -119.424000
  H     35.301500   -3.889660  -119.901000
  H     36.737800   -4.529370  -119.600000
  C     35.425700   -4.773960  -117.901000
  H     35.817700   -5.738590  -117.497000
  H     34.338800   -4.706870  -117.813000
  C     36.091700   -3.681010  -117.066000
  H     35.803100   -3.660350  -115.940000
  H     35.846400   -2.651590  -117.387000
  H     37.139300   -3.652160  -117.086000
  H     32.685400   -1.458100  -123.211000
  H     34.725400   -9.219680  -120.593000

 Total Charge           Charge          ....    0
 Multiplicity           Mult            ....    1
 Number of Electrons    NEL             ....  134
 Basis Dimension        Dim             ....  322

ORBITAL ENERGIES
----------------

  NO   OCC          E(Eh)            E(eV)
   0   2.0000     -88.967813     -2420.9373
   1   2.0000     -88.964089     -2420.8359
   2   2.0000     -10.332844      -281.1710
   3   2.0000     -10.327313      -281.0205
   4   2.0000     -10.321107      -280.8516
   5   2.0000     -10.311091      -280.5791
   6   2.0000     -10.305269      -280.4206
   7   2.0000     -10.302594      -280.3478
   8   2.0000     -10.294785      -280.1353
   9   2.0000     -10.294413      -280.1252
  10   2.0000     -10.291972      -280.0588
  11   2.0000     -10.288570      -279.9662
  12   2.0000     -10.283294      -279.8226
  13   2.0000     -10.282070      -279.7893
  14   2.0000     -10.281925      -279.7854
  15   2.0000     -10.270275      -279.4684
  16   2.0000      -8.081391      -219.9058
  17   2.0000      -8.079188      -219.8459
  18   2.0000      -6.040000      -164.3567
  19   2.0000      -6.037609      -164.2917
  20   2.0000      -6.035983      -164.2474
  21   2.0000      -6.033568      -164.1817
  22   2.0000      -6.032173      -164.1438
  23   2.0000      -6.030063      -164.0864
  24   2.0000      -1.006421       -27.3861
  25   2.0000      -0.984764       -26.7968
  26   2.0000      -0.913174       -24.8487
  27   2.0000      -0.908689       -24.7267
  28   2.0000      -0.872368       -23.7384
  29   2.0000      -0.851678       -23.1753
  30   2.0000      -0.848670       -23.0935
  31   2.0000      -0.811465       -22.0811
  32   2.0000      -0.783825       -21.3290
  33   2.0000      -0.773855       -21.0577
  34   2.0000      -0.710153       -19.3242
  35   2.0000      -0.708850       -19.2888
  36   2.0000      -0.698478       -19.0066
  37   2.0000      -0.665840       -18.1184
  38   2.0000      -0.644357       -17.5338
  39   2.0000      -0.618002       -16.8167
  40   2.0000      -0.599109       -16.3026
  41   2.0000      -0.570467       -15.5232
  42   2.0000      -0.563541       -15.3347
  43   2.0000      -0.559885       -15.2352
  44   2.0000      -0.529659       -14.4128
  45   2.0000      -0.527423       -14.3519
  46   2.0000      -0.519545       -14.1375
  47   2.0000      -0.512791       -13.9538
  48   2.0000      -0.509956       -13.8766
  49   2.0000      -0.504064       -13.7163
  50   2.0000      -0.491221       -13.3668
  51   2.0000      -0.473553       -12.8860
  52   2.0000      -0.467718       -12.7272
  53   2.0000      -0.463504       -12.6126
  54   2.0000      -0.460915       -12.5421
  55   2.0000      -0.447463       -12.1761
  56   2.0000      -0.445657       -12.1269
  57   2.0000      -0.434577       -11.8254
  58   2.0000      -0.428913       -11.6713
  59   2.0000      -0.427959       -11.6454
  60   2.0000      -0.423600       -11.5267
  61   2.0000      -0.420558       -11.4440
  62   2.0000      -0.406363       -11.0577
  63   2.0000      -0.341450        -9.2913
  64   2.0000      -0.332710        -9.0535
  65   2.0000      -0.325333        -8.8528
  66   2.0000      -0.302710        -8.2372
  67   0.0000       0.030042         0.8175
  68   0.0000       0.062107         1.6900
  69   0.0000       0.108225         2.9450
  70   0.0000       0.111015         3.0209
  71   0.0000       0.129396         3.5211

MULLIKEN ATOMIC CHARGES
-----------------------
   0 S :    0.107735
   1 C :   -0.095785
   2 C :   -0.057587
   3 C :    0.043698
   4 C :   -0.168243
   5 H :    0.013136
   6 C :    0.059821
   7 H :    0.011563
   8 H :    0.019000
   9 C :   -0.017666
  10 H :    0.030292
  11 H :    0.015877
  12 C :   -0.058525
  13 H :    0.018047
  14 H :    0.032266
  15 H :    0.027612
  16 S :    0.108284
  17 C :   -0.089092
  18 C :   -0.053348
  19 C :   -0.012788
  20 C :   -0.176283
  21 H :    0.039954
  22 C :    0.070854
  23 H :    0.002811
  24 H :    0.015837
  25 C :   -0.069319
  26 H :    0.032369
  27 H :    0.040328
  28 C :   -0.064294
  29 H :    0.046643
  30 H :    0.022015
  31 H :    0.018502
  32 H :    0.020653
  33 H :    0.065631
Sum of atomic charges:   -0.0000000

LOEWDIN ATOMIC CHARGES
----------------------
   0 S :    0.387939
   1 C :   -0.169523
   2 C :   -0.068749
   3 C :   -0.053984
   4 C :   -0.199364
   5 H :    0.031231
   6 C :   -0.024896
   7 H :    0.025905
   8 H :    0.032594
   9 C :   -0.025870
  10 H :    0.022118
  11 H :    0.016193
  12 C :   -0.059487
  13 H :    0.015520
  14 H :    0.024572
  15 H :    0.022380
  16 S :    0.413230
  17 C :   -0.197145
  18 C :   -0.074093
  19 C :   -0.052072
  20 C :   -0.185601
  21 H :    0.037146
  22 C :   -0.042783
  23 H :    0.029478
  24 H :    0.025909
  25 C :   -0.036079
  26 H :    0.025245
  27 H :    0.029062
  28 C :   -0.075984
  29 H :    0.039748
  30 H :    0.024513
  31 H :    0.014926
  32 H :    0.018838
  33 H :    0.029085

  Mayer bond orders larger than 0.100000
B(  0-S ,  1-C ) :   1.1235 B(  0-S ,  4-C ) :   1.1360 B(  1-C ,  2-C ) :   1.6311
B(  1-C , 32-H ) :   0.9728 B(  2-C ,  3-C ) :   1.2260 B(  2-C ,  6-C ) :   1.0312
B(  3-C ,  4-C ) :   1.5798 B(  3-C ,  5-H ) :   0.9938 B(  4-C , 20-C ) :   1.0178
B(  6-C ,  7-H ) :   0.9341 B(  6-C ,  8-H ) :   0.9508 B(  6-C ,  9-C ) :   1.0367
B(  9-C , 10-H ) :   0.9581 B(  9-C , 11-H ) :   0.9641 B(  9-C , 12-C ) :   1.0776
B( 12-C , 13-H ) :   0.9793 B( 12-C , 14-H ) :   0.9778 B( 12-C , 15-H ) :   0.9746
B( 16-S , 17-C ) :   1.1885 B( 16-S , 20-C ) :   1.1188 B( 17-C , 18-C ) :   1.5875
B( 17-C , 33-H ) :   0.9619 B( 18-C , 19-C ) :   1.2157 B( 18-C , 21-H ) :   0.9850
B( 19-C , 20-C ) :   1.6367 B( 19-C , 22-C ) :   1.0611 B( 22-C , 23-H ) :   0.9195
B( 22-C , 24-H ) :   0.9282 B( 22-C , 25-C ) :   1.0497 B( 25-C , 26-H ) :   0.9569
B( 25-C , 27-H ) :   0.9568 B( 25-C , 28-C ) :   1.0822 B( 28-C , 29-H ) :   0.9740
B( 28-C , 30-H ) :   0.9731 B( 28-C , 31-H ) :   0.9736

Dispersion correction           -0.013699105
FINAL SINGLE POINT ENERGY     -1339.862219389733

DIPOLE MOMENT
-------------
                                X             Y             Z
Electronic contribution:     11.25655     -11.53643     -14.24685
Nuclear contribution   :    -11.45563      11.77045      14.68643
                        -----------------------------------------
Total Dipole Moment    :     -0.19908       0.23402       0.43958
                        -----------------------------------------
Magnitude (a.u.)       :      0.53631
Magnitude (Debye)      :      1.36319

Rotational constants in cm-1:     0.018403     0.007518     0.006639
Rotational constants in MHz :   551.715579   225.386366   199.017804

                             ****ORCA TERMINATED NORMALLY****
TOTAL RUN TIME: 0 days 0 hours 0 minutes 20 seconds 779 msec
