                         Program Version 4.2.1 -  RELEASE  -
|  1> ! wB97X-D3 SP def2-SVP
|  2> %pal
|  3> nprocs 24
|  4> end
|  5>
|  6> * xyz 0 1
|  7> S 	 -87.8695 	 -7.5032 	 -59.8941
|  8> C 	 -88.279 	 -5.8282 	 -59.9968
|  9> C 	 -87.1932 	 -4.95845 	 -59.8362
| 10> C 	 -86.0376 	 -5.61697 	 -59.4152
| 11> C 	 -86.1828 	 -6.95869 	 -59.4818
| 12> H 	 -85.0714 	 -5.16898 	 -59.1913
| 13> C 	 -87.1775 	 -3.45511 	 -59.7589
| 14> H 	 -87.1777 	 -3.24838 	 -58.7181
| 15> H 	 -88.1314 	 -3.03392 	 -59.9944
| 16> C 	 -86.042 	 -2.59064 	 -60.353
| 17> H 	 -86.2862 	 -1.53898 	 -60.412
| 18> H 	 -85.0933 	 -2.6373 	 -59.8375
| 19> C 	 -85.6449 	 -2.94885 	 -61.7762
| 20> H 	 -86.5233 	 -2.90543 	 -62.4124
| 21> H 	 -84.9363 	 -2.21737 	 -61.977
| 22> H 	 -85.3645 	 -4.02553 	 -61.8867
| 23> S 	 -84.3478 	 -8.79712 	 -60.3233
| 24> C 	 -83.3615 	 -9.64256 	 -59.1283
| 25> C 	 -83.6957 	 -9.23955 	 -57.8488
| 26> C 	 -84.6703 	 -8.19987 	 -57.7606
| 27> C 	 -85.1099 	 -7.8932 	 -59.0413
| 28> H 	 -83.3703 	 -9.85228 	 -57.0101
| 29> C 	 -85.2463 	 -7.70775 	 -56.4457
| 30> H 	 -86.2371 	 -7.16445 	 -56.6087
| 31> H 	 -84.486 	 -6.93108 	 -56.1067
| 32> C 	 -85.6066 	 -8.70982 	 -55.3408
| 33> H 	 -86.0889 	 -8.17231 	 -54.5391
| 34> H 	 -84.6539 	 -9.15534 	 -54.8771
| 35> C 	 -86.5508 	 -9.8375 	 -55.8882
| 36> H 	 -87.3475 	 -9.44534 	 -56.4187
| 37> H 	 -86.8712 	 -10.4655 	 -55.0809
| 38> H 	 -85.9602 	 -10.3758 	 -56.5551
| 39> H 	 -89.3058 	 -5.65464 	 -60.0954
| 40> H 	 -82.628 	 -10.4401 	 -59.2406
| 41> *
| 42>
| 43>                          ****END OF INPUT****

CARTESIAN COORDINATES (ANGSTROEM)
---------------------------------
  S    -87.869500   -7.503200  -59.894100
  C    -88.279000   -5.828200  -59.996800
  C    -87.193200   -4.958450  -59.836200
  C    -86.037600   -5.616970  -59.415200
  C    -86.182800   -6.958690  -59.481800
  H    -85.071400   -5.168980  -59.191300
  C    -87.177500   -3.455110  -59.758900
  H    -87.177700   -3.248380  -58.718100
  H    -88.131400   -3.033920  -59.994400
  C    -86.042000   -2.590640  -60.353000
  H    -86.286200   -1.538980  -60.412000
  H    -85.093300   -2.637300  -59.837500
  C    -85.644900   -2.948850  -61.776200
  H    -86.523300   -2.905430  -62.412400
  H    -84.936300   -2.217370  -61.977000
  H    -85.364500   -4.025530  -61.886700
  S    -84.347800   -8.797120  -60.323300
  C    -83.361500   -9.642560  -59.128300
  C    -83.695700   -9.239550  -57.848800
  C    -84.670300   -8.199870  -57.760600
  C    -85.109900   -7.893200  -59.041300
  H    -83.370300   -9.852280  -57.010100
  C    -85.246300   -7.707750  -56.445700
  H    -86.237100   -7.164450  -56.608700
  H    -84.486000   -6.931080  -56.106700
  C    -85.606600   -8.709820  -55.340800
  H    -86.088900   -8.172310  -54.539100
  H    -84.653900   -9.155340  -54.877100
  C    -86.550800   -9.837500  -55.888200
  H    -87.347500   -9.445340  -56.418700
  H    -86.871200  -10.465500  -55.080900
  H    -85.960200  -10.375800  -56.555100
  H    -89.305800   -5.654640  -60.095400
  H    -82.628000  -10.440100  -59.240600

 Total Charge           Charge          ....    0
 Multiplicity           Mult            ....    1
 Number of Electrons    NEL             ....  134
 Basis Dimension        Dim             ....  322

ORBITAL ENERGIES
----------------

  NO   OCC          E(Eh)            E(eV)
   0   2.0000     -88.968785     -2420.9637
   1   2.0000     -88.966249     -2420.8947
   2   2.0000     -10.327626      -281.0290
   3   2.0000     -10.323448      -280.9153
   4   2.0000     -10.315374      -280.6956
   5   2.0000     -10.313022      -280.6316
   6   2.0000     -10.302835      -280.3544
   7   2.0000     -10.302427      -280.3433
   8   2.0000     -10.300060      -280.2789
   9   2.0000     -10.292665      -280.0777
  10   2.0000     -10.290470      -280.0179
  11   2.0000     -10.289312      -279.9864
  12   2.0000     -10.285363      -279.8789
  13   2.0000     -10.284376      -279.8521
  14   2.0000     -10.267253      -279.3862
  15   2.0000     -10.263722      -279.2901
  16   2.0000      -8.083012      -219.9499
  17   2.0000      -8.080603      -219.8844
  18   2.0000      -6.041350      -164.3935
  19   2.0000      -6.039095      -164.3321
  20   2.0000      -6.037822      -164.2975
  21   2.0000      -6.035206      -164.2263
  22   2.0000      -6.033762      -164.1870
  23   2.0000      -6.031372      -164.1220
  24   2.0000      -1.004321       -27.3290
  25   2.0000      -0.983662       -26.7668
  26   2.0000      -0.911539       -24.8042
  27   2.0000      -0.904723       -24.6188
  28   2.0000      -0.866903       -23.5896
  29   2.0000      -0.857941       -23.3458
  30   2.0000      -0.845306       -23.0019
  31   2.0000      -0.815737       -22.1973
  32   2.0000      -0.784165       -21.3382
  33   2.0000      -0.770953       -20.9787
  34   2.0000      -0.703197       -19.1350
  35   2.0000      -0.695609       -18.9285
  36   2.0000      -0.690084       -18.7781
  37   2.0000      -0.654234       -17.8026
  38   2.0000      -0.650188       -17.6925
  39   2.0000      -0.623975       -16.9792
  40   2.0000      -0.589121       -16.0308
  41   2.0000      -0.562075       -15.2948
  42   2.0000      -0.554228       -15.0813
  43   2.0000      -0.552524       -15.0349
  44   2.0000      -0.544901       -14.8275
  45   2.0000      -0.540349       -14.7036
  46   2.0000      -0.519947       -14.1485
  47   2.0000      -0.514054       -13.9881
  48   2.0000      -0.501218       -13.6388
  49   2.0000      -0.492179       -13.3929
  50   2.0000      -0.486774       -13.2458
  51   2.0000      -0.473871       -12.8947
  52   2.0000      -0.468910       -12.7597
  53   2.0000      -0.464992       -12.6531
  54   2.0000      -0.456308       -12.4168
  55   2.0000      -0.451548       -12.2873
  56   2.0000      -0.444511       -12.0957
  57   2.0000      -0.437811       -11.9134
  58   2.0000      -0.435233       -11.8433
  59   2.0000      -0.422016       -11.4837
  60   2.0000      -0.419556       -11.4167
  61   2.0000      -0.412447       -11.2232
  62   2.0000      -0.411254       -11.1908
  63   2.0000      -0.344985        -9.3875
  64   2.0000      -0.330178        -8.9846
  65   2.0000      -0.321607        -8.7514
  66   2.0000      -0.297785        -8.1031
  67   0.0000       0.043450         1.1823
  68   0.0000       0.054780         1.4906
  69   0.0000       0.106933         2.9098
  70   0.0000       0.118026         3.2116
  71   0.0000       0.128415         3.4943

MULLIKEN ATOMIC CHARGES
-----------------------
   0 S :    0.109048
   1 C :   -0.129522
   2 C :   -0.041043
   3 C :    0.025669
   4 C :   -0.148772
   5 H :    0.029297
   6 C :    0.107061
   7 H :    0.025337
   8 H :    0.000446
   9 C :   -0.095336
  10 H :    0.028284
  11 H :    0.023490
  12 C :   -0.040406
  13 H :    0.020584
  14 H :    0.027354
  15 H :    0.043969
  16 S :    0.118849
  17 C :   -0.090388
  18 C :   -0.056989
  19 C :   -0.002201
  20 C :   -0.223968
  21 H :    0.023885
  22 C :    0.016799
  23 H :    0.045620
  24 H :    0.052364
  25 C :   -0.105620
  26 H :    0.031830
  27 H :    0.033458
  28 C :    0.019549
  29 H :    0.015328
  30 H :    0.033145
  31 H :    0.016193
  32 H :    0.032914
  33 H :    0.053772
Sum of atomic charges:   -0.0000000

LOEWDIN ATOMIC CHARGES
----------------------
   0 S :    0.385064
   1 C :   -0.189745
   2 C :   -0.060995
   3 C :   -0.051668
   4 C :   -0.175801
   5 H :    0.041736
   6 C :   -0.036500
   7 H :    0.035533
   8 H :    0.026015
   9 C :   -0.040603
  10 H :    0.028564
  11 H :    0.019486
  12 C :   -0.061613
  13 H :    0.021297
  14 H :    0.018285
  15 H :    0.030850
  16 S :    0.405812
  17 C :   -0.191282
  18 C :   -0.074828
  19 C :   -0.063017
  20 C :   -0.200942
  21 H :    0.030812
  22 C :   -0.043584
  23 H :    0.039556
  24 H :    0.042061
  25 C :   -0.041553
  26 H :    0.022366
  27 H :    0.024458
  28 C :   -0.046810
  29 H :    0.016855
  30 H :    0.025833
  31 H :    0.018937
  32 H :    0.012335
  33 H :    0.033085

  Mayer bond orders larger than 0.100000
B(  0-S ,  1-C ) :   1.1497 B(  0-S ,  4-C ) :   1.1310 B(  1-C ,  2-C ) :   1.5878
B(  1-C , 32-H ) :   0.9797 B(  2-C ,  3-C ) :   1.2130 B(  2-C ,  6-C ) :   1.0289
B(  3-C ,  4-C ) :   1.6212 B(  3-C ,  5-H ) :   0.9931 B(  4-C , 20-C ) :   0.9961
B(  6-C ,  7-H ) :   0.9315 B(  6-C ,  8-H ) :   0.9346 B(  6-C ,  9-C ) :   1.0678
B(  9-C , 10-H ) :   0.9555 B(  9-C , 11-H ) :   0.9558 B(  9-C , 12-C ) :   1.0834
B( 12-C , 13-H ) :   0.9766 B( 12-C , 14-H ) :   0.9778 B( 12-C , 15-H ) :   0.9695
B( 16-S , 17-C ) :   1.1347 B( 16-S , 20-C ) :   1.1609 B( 17-C , 18-C ) :   1.6434
B( 17-C , 33-H ) :   0.9644 B( 18-C , 19-C ) :   1.2282 B( 18-C , 21-H ) :   0.9764
B( 19-C , 20-C ) :   1.6097 B( 19-C , 22-C ) :   1.0286 B( 22-C , 23-H ) :   0.9399
B( 22-C , 24-H ) :   0.9307 B( 22-C , 25-C ) :   1.0766 B( 25-C , 26-H ) :   0.9568
B( 25-C , 27-H ) :   0.9503 B( 25-C , 28-C ) :   1.0677 B( 28-C , 29-H ) :   0.9740
B( 28-C , 30-H ) :   0.9744 B( 28-C , 31-H ) :   0.9717

Dispersion correction           -0.015228447
FINAL SINGLE POINT ENERGY     -1339.857508202088

DIPOLE MOMENT
-------------
                                X             Y             Z
Electronic contribution:     -0.09880     -12.91088     -10.76165
Nuclear contribution   :      0.03728      13.27021      11.27896
                        -----------------------------------------
Total Dipole Moment    :     -0.06152       0.35933       0.51732
                        -----------------------------------------
Magnitude (a.u.)       :      0.63287
Magnitude (Debye)      :      1.60863

Rotational constants in cm-1:     0.020387     0.008282     0.007563
Rotational constants in MHz :   611.189022   248.286567   226.738793

                             ****ORCA TERMINATED NORMALLY****
TOTAL RUN TIME: 0 days 0 hours 0 minutes 20 seconds 995 msec
