                         Program Version 4.2.1 -  RELEASE  -
|  1> ! wB97X-D3 SP def2-SVP
|  2> %pal
|  3> nprocs 24
|  4> end
|  5>
|  6> * xyz 0 1
|  7> S 	 -109.521 	 51.27 	 -107.977
|  8> C 	 -108.587 	 50.8357 	 -109.312
|  9> C 	 -109.357 	 50.3414 	 -110.337
| 10> C 	 -110.743 	 50.3486 	 -109.985
| 11> C 	 -111.068 	 50.8104 	 -108.742
| 12> H 	 -111.606 	 49.918 	 -110.546
| 13> C 	 -108.818 	 49.8703 	 -111.717
| 14> H 	 -109.664 	 49.4489 	 -112.227
| 15> H 	 -108.151 	 49.0515 	 -111.442
| 16> C 	 -108.053 	 50.9553 	 -112.45
| 17> H 	 -107.514 	 51.5944 	 -111.712
| 18> H 	 -107.402 	 50.6713 	 -113.302
| 19> C 	 -109.026 	 51.995 	 -113.03
| 20> H 	 -108.479 	 52.9191 	 -113.26
| 21> H 	 -109.387 	 51.5436 	 -113.982
| 22> H 	 -109.994 	 52.2481 	 -112.445
| 23> S 	 -112.38 	 52.6315 	 -107.211
| 24> C 	 -114.162 	 52.4525 	 -107.107
| 25> C 	 -114.568 	 51.3144 	 -107.785
| 26> C 	 -113.56 	 50.5932 	 -108.467
| 27> C 	 -112.358 	 51.2089 	 -108.248
| 28> H 	 -115.611 	 51.0472 	 -107.586
| 29> C 	 -113.864 	 49.2723 	 -109.183
| 30> H 	 -114.547 	 48.7361 	 -108.578
| 31> H 	 -112.993 	 48.6191 	 -109.011
| 32> C 	 -114.417 	 49.2388 	 -110.61
| 33> H 	 -114.574 	 48.1653 	 -110.732
| 34> H 	 -113.609 	 49.578 	 -111.315
| 35> C 	 -115.767 	 50.0195 	 -110.692
| 36> H 	 -116.387 	 49.4431 	 -110.131
| 37> H 	 -116.064 	 49.9562 	 -111.775
| 38> H 	 -115.73 	 51.1128 	 -110.34
| 39> H 	 -107.505 	 51.0442 	 -109.408
| 40> H 	 -114.804 	 53.0893 	 -106.473
| 41> *
| 42>
| 43>                          ****END OF INPUT****

CARTESIAN COORDINATES (ANGSTROEM)
---------------------------------
  S    -109.521000   51.270000  -107.977000
  C    -108.587000   50.835700  -109.312000
  C    -109.357000   50.341400  -110.337000
  C    -110.743000   50.348600  -109.985000
  C    -111.068000   50.810400  -108.742000
  H    -111.606000   49.918000  -110.546000
  C    -108.818000   49.870300  -111.717000
  H    -109.664000   49.448900  -112.227000
  H    -108.151000   49.051500  -111.442000
  C    -108.053000   50.955300  -112.450000
  H    -107.514000   51.594400  -111.712000
  H    -107.402000   50.671300  -113.302000
  C    -109.026000   51.995000  -113.030000
  H    -108.479000   52.919100  -113.260000
  H    -109.387000   51.543600  -113.982000
  H    -109.994000   52.248100  -112.445000
  S    -112.380000   52.631500  -107.211000
  C    -114.162000   52.452500  -107.107000
  C    -114.568000   51.314400  -107.785000
  C    -113.560000   50.593200  -108.467000
  C    -112.358000   51.208900  -108.248000
  H    -115.611000   51.047200  -107.586000
  C    -113.864000   49.272300  -109.183000
  H    -114.547000   48.736100  -108.578000
  H    -112.993000   48.619100  -109.011000
  C    -114.417000   49.238800  -110.610000
  H    -114.574000   48.165300  -110.732000
  H    -113.609000   49.578000  -111.315000
  C    -115.767000   50.019500  -110.692000
  H    -116.387000   49.443100  -110.131000
  H    -116.064000   49.956200  -111.775000
  H    -115.730000   51.112800  -110.340000
  H    -107.505000   51.044200  -109.408000
  H    -114.804000   53.089300  -106.473000

 Total Charge           Charge          ....    0
 Multiplicity           Mult            ....    1
 Number of Electrons    NEL             ....  134
 Basis Dimension        Dim             ....  322

ORBITAL ENERGIES
----------------

  NO   OCC          E(Eh)            E(eV)
   0   2.0000     -88.967621     -2420.9321
   1   2.0000     -88.962672     -2420.7974
   2   2.0000     -10.328087      -281.0415
   3   2.0000     -10.324506      -280.9441
   4   2.0000     -10.320688      -280.8402
   5   2.0000     -10.311372      -280.5867
   6   2.0000     -10.302115      -280.3348
   7   2.0000     -10.300647      -280.2949
   8   2.0000     -10.297099      -280.1983
   9   2.0000     -10.295146      -280.1452
  10   2.0000     -10.293384      -280.0972
  11   2.0000     -10.293309      -280.0952
  12   2.0000     -10.292435      -280.0714
  13   2.0000     -10.291433      -280.0441
  14   2.0000     -10.284371      -279.8520
  15   2.0000     -10.280831      -279.7556
  16   2.0000      -8.081577      -219.9109
  17   2.0000      -8.078112      -219.8166
  18   2.0000      -6.040124      -164.3601
  19   2.0000      -6.036621      -164.2648
  20   2.0000      -6.036386      -164.2584
  21   2.0000      -6.032428      -164.1507
  22   2.0000      -6.032138      -164.1428
  23   2.0000      -6.028921      -164.0553
  24   2.0000      -1.010257       -27.4905
  25   2.0000      -0.985637       -26.8205
  26   2.0000      -0.912627       -24.8338
  27   2.0000      -0.910327       -24.7712
  28   2.0000      -0.872754       -23.7488
  29   2.0000      -0.852845       -23.2071
  30   2.0000      -0.841698       -22.9038
  31   2.0000      -0.813199       -22.1283
  32   2.0000      -0.786886       -21.4123
  33   2.0000      -0.770442       -20.9648
  34   2.0000      -0.709132       -19.2965
  35   2.0000      -0.695725       -18.9316
  36   2.0000      -0.688490       -18.7348
  37   2.0000      -0.665667       -18.1137
  38   2.0000      -0.636722       -17.3261
  39   2.0000      -0.608562       -16.5598
  40   2.0000      -0.596247       -16.2247
  41   2.0000      -0.573943       -15.6178
  42   2.0000      -0.558369       -15.1940
  43   2.0000      -0.551906       -15.0181
  44   2.0000      -0.544306       -14.8113
  45   2.0000      -0.535448       -14.5703
  46   2.0000      -0.516733       -14.0610
  47   2.0000      -0.508805       -13.8453
  48   2.0000      -0.500845       -13.6287
  49   2.0000      -0.498306       -13.5596
  50   2.0000      -0.489554       -13.3214
  51   2.0000      -0.482519       -13.1300
  52   2.0000      -0.474013       -12.8986
  53   2.0000      -0.466619       -12.6973
  54   2.0000      -0.455626       -12.3982
  55   2.0000      -0.441652       -12.0180
  56   2.0000      -0.437682       -11.9099
  57   2.0000      -0.434912       -11.8346
  58   2.0000      -0.428888       -11.6706
  59   2.0000      -0.424155       -11.5419
  60   2.0000      -0.421490       -11.4693
  61   2.0000      -0.417074       -11.3492
  62   2.0000      -0.407683       -11.0936
  63   2.0000      -0.360412        -9.8073
  64   2.0000      -0.337010        -9.1705
  65   2.0000      -0.327296        -8.9062
  66   2.0000      -0.283434        -7.7126
  67   0.0000       0.022377         0.6089
  68   0.0000       0.076853         2.0913
  69   0.0000       0.105572         2.8728
  70   0.0000       0.124402         3.3851
  71   0.0000       0.130377         3.5477

MULLIKEN ATOMIC CHARGES
-----------------------
   0 S :    0.098207
   1 C :   -0.135198
   2 C :   -0.124861
   3 C :    0.002803
   4 C :   -0.148711
   5 H :    0.003992
   6 C :    0.128977
   7 H :    0.014772
   8 H :    0.037405
   9 C :   -0.076999
  10 H :    0.033353
  11 H :    0.046599
  12 C :   -0.113074
  13 H :    0.039034
  14 H :    0.024476
  15 H :    0.058469
  16 S :    0.103577
  17 C :   -0.118627
  18 C :   -0.044879
  19 C :   -0.024249
  20 C :   -0.128455
  21 H :    0.024781
  22 C :    0.036557
  23 H :    0.005401
  24 H :    0.029352
  25 C :   -0.067219
  26 H :    0.036867
  27 H :    0.047019
  28 C :   -0.049447
  29 H :    0.008716
  30 H :    0.045396
  31 H :    0.073369
  32 H :    0.067421
  33 H :    0.065178
Sum of atomic charges:   -0.0000000

LOEWDIN ATOMIC CHARGES
----------------------
   0 S :    0.409180
   1 C :   -0.217883
   2 C :   -0.069015
   3 C :   -0.071765
   4 C :   -0.187669
   5 H :    0.034995
   6 C :   -0.025174
   7 H :    0.025261
   8 H :    0.034711
   9 C :   -0.048845
  10 H :    0.027565
  11 H :    0.031084
  12 C :   -0.077453
  13 H :    0.024263
  14 H :    0.021025
  15 H :    0.036712
  16 S :    0.381126
  17 C :   -0.181941
  18 C :   -0.069643
  19 C :   -0.063665
  20 C :   -0.178029
  21 H :    0.034379
  22 C :   -0.040400
  23 H :    0.026012
  24 H :    0.034584
  25 C :   -0.036411
  26 H :    0.029928
  27 H :    0.021966
  28 C :   -0.062305
  29 H :    0.008934
  30 H :    0.034825
  31 H :    0.042407
  32 H :    0.037571
  33 H :    0.033672

  Mayer bond orders larger than 0.100000
B(  0-S ,  1-C ) :   1.1650 B(  0-S ,  4-C ) :   1.1311 B(  1-C ,  2-C ) :   1.5940
B(  1-C , 32-H ) :   0.9584 B(  2-C ,  3-C ) :   1.2672 B(  2-C ,  6-C ) :   0.9990
B(  3-C ,  4-C ) :   1.5755 B(  3-C ,  5-H ) :   0.9776 B(  4-C , 20-C ) :   1.0765
B(  6-C ,  7-H ) :   0.9460 B(  6-C ,  8-H ) :   0.9354 B(  6-C ,  9-C ) :   1.0621
B(  9-C , 10-H ) :   0.9637 B(  9-C , 11-H ) :   0.9576 B(  9-C , 12-C ) :   1.0543
B( 12-C , 13-H ) :   0.9764 B( 12-C , 14-H ) :   0.9782 B( 12-C , 15-H ) :   0.9766
B( 16-S , 17-C ) :   1.1200 B( 16-S , 20-C ) :   1.1358 B( 17-C , 18-C ) :   1.6424
B( 17-C , 33-H ) :   0.9652 B( 18-C , 19-C ) :   1.2137 B( 18-C , 21-H ) :   0.9834
B( 19-C , 20-C ) :   1.6134 B( 19-C , 22-C ) :   1.0254 B( 22-C , 23-H ) :   0.9322
B( 22-C , 24-H ) :   0.9257 B( 22-C , 25-C ) :   1.0680 B( 25-C , 26-H ) :   0.9517
B( 25-C , 27-H ) :   0.9513 B( 25-C , 28-C ) :   1.0651 B( 28-C , 29-H ) :   0.9749
B( 28-C , 30-H ) :   0.9731 B( 28-C , 31-H ) :   0.9711

Dispersion correction           -0.014573728
FINAL SINGLE POINT ENERGY     -1339.865044969914

DIPOLE MOMENT
-------------
                                X             Y             Z
Electronic contribution:      5.51727       8.46911      24.36835
Nuclear contribution   :     -5.80853      -8.86516     -24.80871
                        -----------------------------------------
Total Dipole Moment    :     -0.29126      -0.39605      -0.44036
                        -----------------------------------------
Magnitude (a.u.)       :      0.66000
Magnitude (Debye)      :      1.67759

Rotational constants in cm-1:     0.018685     0.009136     0.006992
Rotational constants in MHz :   560.153269   273.887082   209.626777

                             ****ORCA TERMINATED NORMALLY****
TOTAL RUN TIME: 0 days 0 hours 0 minutes 22 seconds 44 msec
