                         Program Version 4.2.1 -  RELEASE  -
|  1> ! wB97X-D3 SP def2-SVP
|  2> %pal
|  3> nprocs 24
|  4> end
|  5>
|  6> * xyz 0 1
|  7> S 	 -90.1315 	 -47.946 	 -81.2848
|  8> C 	 -91.6083 	 -48.378 	 -80.3741
|  9> C 	 -91.2796 	 -48.8745 	 -79.0561
| 10> C 	 -89.8584 	 -49.0636 	 -78.9013
| 11> C 	 -89.1019 	 -48.7019 	 -80.0142
| 12> H 	 -89.3717 	 -49.4561 	 -78.0446
| 13> C 	 -92.3218 	 -49.1824 	 -78.0028
| 14> H 	 -93.2922 	 -48.6343 	 -78.1613
| 15> H 	 -91.8309 	 -48.8995 	 -77.0941
| 16> C 	 -92.7787 	 -50.6026 	 -77.8253
| 17> H 	 -93.5194 	 -50.8606 	 -78.6037
| 18> H 	 -92.0106 	 -51.334 	 -77.9611
| 19> C 	 -93.4968 	 -50.9488 	 -76.4882
| 20> H 	 -93.8635 	 -51.8843 	 -76.5791
| 21> H 	 -92.8641 	 -50.7406 	 -75.6088
| 22> H 	 -94.3597 	 -50.3001 	 -76.4557
| 23> S 	 -87.0002 	 -47.106 	 -80.5769
| 24> C 	 -85.3314 	 -47.6773 	 -80.281
| 25> C 	 -85.3435 	 -48.9526 	 -79.691
| 26> C 	 -86.6132 	 -49.5825 	 -79.6716
| 27> C 	 -87.6222 	 -48.7019 	 -80.1321
| 28> H 	 -84.3556 	 -49.3467 	 -79.4445
| 29> C 	 -86.9145 	 -50.9226 	 -78.9667
| 30> H 	 -87.9866 	 -51.0006 	 -78.8108
| 31> H 	 -86.4122 	 -50.8301 	 -78.0067
| 32> C 	 -86.3475 	 -52.1466 	 -79.6935
| 33> H 	 -85.2341 	 -52.2207 	 -79.7357
| 34> H 	 -86.5951 	 -52.2999 	 -80.7491
| 35> C 	 -86.8658 	 -53.4136 	 -78.9701
| 36> H 	 -86.2251 	 -53.5621 	 -78.0778
| 37> H 	 -86.7881 	 -54.3049 	 -79.5353
| 38> H 	 -87.8927 	 -53.2962 	 -78.6454
| 39> H 	 -92.5744 	 -48.1724 	 -80.7912
| 40> H 	 -84.4457 	 -47.1119 	 -80.4278
| 41> *
| 42>
| 43>                          ****END OF INPUT****

CARTESIAN COORDINATES (ANGSTROEM)
---------------------------------
  S    -90.131500  -47.946000  -81.284800
  C    -91.608300  -48.378000  -80.374100
  C    -91.279600  -48.874500  -79.056100
  C    -89.858400  -49.063600  -78.901300
  C    -89.101900  -48.701900  -80.014200
  H    -89.371700  -49.456100  -78.044600
  C    -92.321800  -49.182400  -78.002800
  H    -93.292200  -48.634300  -78.161300
  H    -91.830900  -48.899500  -77.094100
  C    -92.778700  -50.602600  -77.825300
  H    -93.519400  -50.860600  -78.603700
  H    -92.010600  -51.334000  -77.961100
  C    -93.496800  -50.948800  -76.488200
  H    -93.863500  -51.884300  -76.579100
  H    -92.864100  -50.740600  -75.608800
  H    -94.359700  -50.300100  -76.455700
  S    -87.000200  -47.106000  -80.576900
  C    -85.331400  -47.677300  -80.281000
  C    -85.343500  -48.952600  -79.691000
  C    -86.613200  -49.582500  -79.671600
  C    -87.622200  -48.701900  -80.132100
  H    -84.355600  -49.346700  -79.444500
  C    -86.914500  -50.922600  -78.966700
  H    -87.986600  -51.000600  -78.810800
  H    -86.412200  -50.830100  -78.006700
  C    -86.347500  -52.146600  -79.693500
  H    -85.234100  -52.220700  -79.735700
  H    -86.595100  -52.299900  -80.749100
  C    -86.865800  -53.413600  -78.970100
  H    -86.225100  -53.562100  -78.077800
  H    -86.788100  -54.304900  -79.535300
  H    -87.892700  -53.296200  -78.645400
  H    -92.574400  -48.172400  -80.791200
  H    -84.445700  -47.111900  -80.427800

 Total Charge           Charge          ....    0
 Multiplicity           Mult            ....    1
 Number of Electrons    NEL             ....  134
 Basis Dimension        Dim             ....  322

ORBITAL ENERGIES
----------------

  NO   OCC          E(Eh)            E(eV)
   0   2.0000     -88.968508     -2420.9562
   1   2.0000     -88.967066     -2420.9170
   2   2.0000     -10.338055      -281.3128
   3   2.0000     -10.332827      -281.1705
   4   2.0000     -10.323657      -280.9210
   5   2.0000     -10.319835      -280.8170
   6   2.0000     -10.314155      -280.6624
   7   2.0000     -10.309935      -280.5476
   8   2.0000     -10.299424      -280.2616
   9   2.0000     -10.298789      -280.2443
  10   2.0000     -10.298323      -280.2316
  11   2.0000     -10.294623      -280.1309
  12   2.0000     -10.289085      -279.9802
  13   2.0000     -10.282723      -279.8071
  14   2.0000     -10.273652      -279.5603
  15   2.0000     -10.273306      -279.5509
  16   2.0000      -8.081678      -219.9136
  17   2.0000      -8.080751      -219.8884
  18   2.0000      -6.040269      -164.3641
  19   2.0000      -6.039295      -164.3376
  20   2.0000      -6.036419      -164.2593
  21   2.0000      -6.035433      -164.2325
  22   2.0000      -6.032442      -164.1511
  23   2.0000      -6.031506      -164.1256
  24   2.0000      -0.995602       -27.0917
  25   2.0000      -0.970988       -26.4219
  26   2.0000      -0.913504       -24.8577
  27   2.0000      -0.907139       -24.6845
  28   2.0000      -0.863735       -23.5034
  29   2.0000      -0.851598       -23.1732
  30   2.0000      -0.845591       -23.0097
  31   2.0000      -0.813845       -22.1458
  32   2.0000      -0.781906       -21.2767
  33   2.0000      -0.768401       -20.9092
  34   2.0000      -0.703304       -19.1379
  35   2.0000      -0.698510       -19.0074
  36   2.0000      -0.696621       -18.9560
  37   2.0000      -0.659520       -17.9464
  38   2.0000      -0.645113       -17.5544
  39   2.0000      -0.622108       -16.9284
  40   2.0000      -0.593813       -16.1585
  41   2.0000      -0.571098       -15.5404
  42   2.0000      -0.566403       -15.4126
  43   2.0000      -0.559172       -15.2158
  44   2.0000      -0.531198       -14.4546
  45   2.0000      -0.528103       -14.3704
  46   2.0000      -0.520051       -14.1513
  47   2.0000      -0.510696       -13.8968
  48   2.0000      -0.498783       -13.5726
  49   2.0000      -0.494789       -13.4639
  50   2.0000      -0.490692       -13.3524
  51   2.0000      -0.484030       -13.1711
  52   2.0000      -0.471750       -12.8370
  53   2.0000      -0.466865       -12.7041
  54   2.0000      -0.460563       -12.5326
  55   2.0000      -0.447372       -12.1736
  56   2.0000      -0.442409       -12.0386
  57   2.0000      -0.441475       -12.0132
  58   2.0000      -0.436134       -11.8678
  59   2.0000      -0.425493       -11.5783
  60   2.0000      -0.419782       -11.4228
  61   2.0000      -0.413562       -11.2536
  62   2.0000      -0.410016       -11.1571
  63   2.0000      -0.347338        -9.4515
  64   2.0000      -0.332687        -9.0529
  65   2.0000      -0.327718        -8.9177
  66   2.0000      -0.284978        -7.7546
  67   0.0000       0.021709         0.5907
  68   0.0000       0.062694         1.7060
  69   0.0000       0.095279         2.5927
  70   0.0000       0.119396         3.2489
  71   0.0000       0.122341         3.3291

MULLIKEN ATOMIC CHARGES
-----------------------
   0 S :    0.094733
   1 C :   -0.118645
   2 C :   -0.082494
   3 C :    0.045047
   4 C :   -0.148813
   5 H :    0.008253
   6 C :    0.080616
   7 H :    0.036172
   8 H :    0.016871
   9 C :   -0.099332
  10 H :    0.021610
  11 H :    0.016071
  12 C :   -0.004173
  13 H :    0.015380
  14 H :    0.040368
  15 H :    0.015143
  16 S :    0.092808
  17 C :   -0.089232
  18 C :   -0.048380
  19 C :   -0.021215
  20 C :   -0.141123
  21 H :    0.026321
  22 C :    0.075946
  23 H :    0.022587
  24 H :    0.036315
  25 C :   -0.097230
  26 H :    0.032455
  27 H :    0.035948
  28 C :   -0.039106
  29 H :    0.026436
  30 H :    0.025642
  31 H :    0.027037
  32 H :    0.050363
  33 H :    0.047620
Sum of atomic charges:    0.0000000

LOEWDIN ATOMIC CHARGES
----------------------
   0 S :    0.371140
   1 C :   -0.183164
   2 C :   -0.051007
   3 C :   -0.061234
   4 C :   -0.177579
   5 H :    0.026344
   6 C :   -0.036963
   7 H :    0.040602
   8 H :    0.029108
   9 C :   -0.042647
  10 H :    0.024496
  11 H :    0.014398
  12 C :   -0.049991
  13 H :    0.013083
  14 H :    0.027426
  15 H :    0.022586
  16 S :    0.387388
  17 C :   -0.171209
  18 C :   -0.069476
  19 C :   -0.056428
  20 C :   -0.189444
  21 H :    0.034061
  22 C :   -0.023302
  23 H :    0.028638
  24 H :    0.037217
  25 C :   -0.045247
  26 H :    0.026875
  27 H :    0.026203
  28 C :   -0.063241
  29 H :    0.026059
  30 H :    0.018812
  31 H :    0.021868
  32 H :    0.022304
  33 H :    0.022326

  Mayer bond orders larger than 0.100000
B(  0-S ,  1-C ) :   1.1371 B(  0-S ,  4-C ) :   1.1441 B(  1-C ,  2-C ) :   1.5774
B(  1-C ,  4-C ) :   0.1060 B(  1-C , 32-H ) :   0.9763 B(  2-C ,  3-C ) :   1.2392
B(  2-C ,  6-C ) :   1.0340 B(  3-C ,  4-C ) :   1.5690 B(  3-C ,  5-H ) :   0.9886
B(  4-C , 20-C ) :   1.0253 B(  6-C ,  7-H ) :   0.9412 B(  6-C ,  8-H ) :   0.9344
B(  6-C ,  9-C ) :   1.0658 B(  9-C , 10-H ) :   0.9540 B(  9-C , 11-H ) :   0.9577
B(  9-C , 12-C ) :   1.0839 B( 12-C , 13-H ) :   0.9717 B( 12-C , 14-H ) :   0.9764
B( 12-C , 15-H ) :   0.9740 B( 16-S , 17-C ) :   1.1430 B( 16-S , 20-C ) :   1.1493
B( 17-C , 18-C ) :   1.6157 B( 17-C , 20-C ) :   0.1067 B( 17-C , 33-H ) :   0.9730
B( 18-C , 19-C ) :   1.2385 B( 18-C , 21-H ) :   0.9867 B( 19-C , 20-C ) :   1.5820
B( 19-C , 22-C ) :   1.0313 B( 22-C , 23-H ) :   0.9384 B( 22-C , 24-H ) :   0.9361
B( 22-C , 25-C ) :   1.0548 B( 25-C , 26-H ) :   0.9579 B( 25-C , 27-H ) :   0.9617
B( 25-C , 28-C ) :   1.0785 B( 28-C , 29-H ) :   0.9765 B( 28-C , 30-H ) :   0.9765
B( 28-C , 31-H ) :   0.9761

Dispersion correction           -0.013180583
FINAL SINGLE POINT ENERGY     -1339.863480272114

DIPOLE MOMENT
-------------
                                X             Y             Z
Electronic contribution:      8.91727      25.04957     -17.60722
Nuclear contribution   :     -8.94699     -25.51356      18.16801
                        -----------------------------------------
Total Dipole Moment    :     -0.02972      -0.46399       0.56078
                        -----------------------------------------
Magnitude (a.u.)       :      0.72845
Magnitude (Debye)      :      1.85158

Rotational constants in cm-1:     0.016205     0.008619     0.006206
Rotational constants in MHz :   485.819972   258.402190   186.049498

                             ****ORCA TERMINATED NORMALLY****
TOTAL RUN TIME: 0 days 0 hours 0 minutes 20 seconds 806 msec
