                         Program Version 4.2.1 -  RELEASE  -
|  1> ! wB97X-D3 SP def2-SVP
|  2> %pal
|  3> nprocs 24
|  4> end
|  5>
|  6> * xyz 0 1
|  7> S 	 39.5631 	 -8.39381 	 -106.552
|  8> C 	 40.9697 	 -8.08389 	 -107.604
|  9> C 	 40.5333 	 -7.92207 	 -108.911
| 10> C 	 39.0568 	 -8.07553 	 -109.082
| 11> C 	 38.3775 	 -8.25263 	 -107.89
| 12> H 	 38.5173 	 -8.15403 	 -110.02
| 13> C 	 41.4829 	 -7.49893 	 -110
| 14> H 	 41.415 	 -8.35627 	 -110.681
| 15> H 	 42.4504 	 -7.55879 	 -109.51
| 16> C 	 41.2538 	 -6.11506 	 -110.651
| 17> H 	 40.1628 	 -6.06945 	 -110.947
| 18> H 	 41.4814 	 -5.32222 	 -109.948
| 19> C 	 42.104 	 -5.77336 	 -111.907
| 20> H 	 41.9982 	 -6.42058 	 -112.762
| 21> H 	 41.8368 	 -4.76614 	 -112.264
| 22> H 	 43.1509 	 -5.65412 	 -111.639
| 23> S 	 36.5504 	 -10.0604 	 -107.051
| 24> C 	 34.8469 	 -9.59725 	 -107.312
| 25> C 	 34.6538 	 -8.32459 	 -107.78
| 26> C 	 35.9085 	 -7.68795 	 -108.061
| 27> C 	 36.9888 	 -8.42569 	 -107.628
| 28> H 	 33.6658 	 -7.93696 	 -107.737
| 29> C 	 35.8822 	 -6.33997 	 -108.743
| 30> H 	 35.1723 	 -6.42871 	 -109.561
| 31> H 	 36.8504 	 -6.30804 	 -109.239
| 32> C 	 35.491 	 -5.15454 	 -107.868
| 33> H 	 35.7704 	 -4.23131 	 -108.373
| 34> H 	 36.1247 	 -5.19623 	 -107.054
| 35> C 	 33.9816 	 -5.12257 	 -107.585
| 36> H 	 33.7445 	 -5.78906 	 -106.817
| 37> H 	 33.2378 	 -5.20445 	 -108.404
| 38> H 	 33.7002 	 -4.17954 	 -107.201
| 39> H 	 41.9627 	 -8.02881 	 -107.392
| 40> H 	 33.9924 	 -10.1407 	 -106.983
| 41> *
| 42>
| 43>                          ****END OF INPUT****

CARTESIAN COORDINATES (ANGSTROEM)
---------------------------------
  S     39.563100   -8.393810  -106.552000
  C     40.969700   -8.083890  -107.604000
  C     40.533300   -7.922070  -108.911000
  C     39.056800   -8.075530  -109.082000
  C     38.377500   -8.252630  -107.890000
  H     38.517300   -8.154030  -110.020000
  C     41.482900   -7.498930  -110.000000
  H     41.415000   -8.356270  -110.681000
  H     42.450400   -7.558790  -109.510000
  C     41.253800   -6.115060  -110.651000
  H     40.162800   -6.069450  -110.947000
  H     41.481400   -5.322220  -109.948000
  C     42.104000   -5.773360  -111.907000
  H     41.998200   -6.420580  -112.762000
  H     41.836800   -4.766140  -112.264000
  H     43.150900   -5.654120  -111.639000
  S     36.550400  -10.060400  -107.051000
  C     34.846900   -9.597250  -107.312000
  C     34.653800   -8.324590  -107.780000
  C     35.908500   -7.687950  -108.061000
  C     36.988800   -8.425690  -107.628000
  H     33.665800   -7.936960  -107.737000
  C     35.882200   -6.339970  -108.743000
  H     35.172300   -6.428710  -109.561000
  H     36.850400   -6.308040  -109.239000
  C     35.491000   -5.154540  -107.868000
  H     35.770400   -4.231310  -108.373000
  H     36.124700   -5.196230  -107.054000
  C     33.981600   -5.122570  -107.585000
  H     33.744500   -5.789060  -106.817000
  H     33.237800   -5.204450  -108.404000
  H     33.700200   -4.179540  -107.201000
  H     41.962700   -8.028810  -107.392000
  H     33.992400  -10.140700  -106.983000

 Total Charge           Charge          ....    0
 Multiplicity           Mult            ....    1
 Number of Electrons    NEL             ....  134
 Basis Dimension        Dim             ....  322

ORBITAL ENERGIES
----------------

  NO   OCC          E(Eh)            E(eV)
   0   2.0000     -88.966969     -2420.9143
   1   2.0000     -88.960169     -2420.7293
   2   2.0000     -10.330986      -281.1204
   3   2.0000     -10.325287      -280.9653
   4   2.0000     -10.316148      -280.7167
   5   2.0000     -10.309868      -280.5458
   6   2.0000     -10.304981      -280.4128
   7   2.0000     -10.304611      -280.4027
   8   2.0000     -10.300101      -280.2800
   9   2.0000     -10.295483      -280.1543
  10   2.0000     -10.292072      -280.0615
  11   2.0000     -10.289853      -280.0011
  12   2.0000     -10.286037      -279.8973
  13   2.0000     -10.282997      -279.8146
  14   2.0000     -10.280178      -279.7379
  15   2.0000     -10.274353      -279.5793
  16   2.0000      -8.080713      -219.8874
  17   2.0000      -8.073886      -219.7016
  18   2.0000      -6.039354      -164.3392
  19   2.0000      -6.035612      -164.2373
  20   2.0000      -6.032719      -164.1586
  21   2.0000      -6.031112      -164.1149
  22   2.0000      -6.028500      -164.0438
  23   2.0000      -6.024379      -163.9317
  24   2.0000      -1.000904       -27.2360
  25   2.0000      -0.973287       -26.4845
  26   2.0000      -0.912868       -24.8404
  27   2.0000      -0.906827       -24.6760
  28   2.0000      -0.872172       -23.7330
  29   2.0000      -0.850304       -23.1380
  30   2.0000      -0.839121       -22.8337
  31   2.0000      -0.819177       -22.2909
  32   2.0000      -0.787087       -21.4177
  33   2.0000      -0.771493       -20.9934
  34   2.0000      -0.720330       -19.6012
  35   2.0000      -0.703097       -19.1322
  36   2.0000      -0.696193       -18.9444
  37   2.0000      -0.663330       -18.0501
  38   2.0000      -0.641915       -17.4674
  39   2.0000      -0.613221       -16.6866
  40   2.0000      -0.594244       -16.1702
  41   2.0000      -0.564986       -15.3740
  42   2.0000      -0.564338       -15.3564
  43   2.0000      -0.549908       -14.9638
  44   2.0000      -0.545158       -14.8345
  45   2.0000      -0.524824       -14.2812
  46   2.0000      -0.519747       -14.1430
  47   2.0000      -0.515883       -14.0379
  48   2.0000      -0.506136       -13.7727
  49   2.0000      -0.501320       -13.6416
  50   2.0000      -0.491984       -13.3876
  51   2.0000      -0.477126       -12.9833
  52   2.0000      -0.474810       -12.9202
  53   2.0000      -0.464268       -12.6334
  54   2.0000      -0.454097       -12.3566
  55   2.0000      -0.448027       -12.1914
  56   2.0000      -0.446614       -12.1530
  57   2.0000      -0.436276       -11.8717
  58   2.0000      -0.431835       -11.7508
  59   2.0000      -0.430832       -11.7235
  60   2.0000      -0.420243       -11.4354
  61   2.0000      -0.412368       -11.2211
  62   2.0000      -0.408892       -11.1265
  63   2.0000      -0.345331        -9.3969
  64   2.0000      -0.330283        -8.9875
  65   2.0000      -0.320614        -8.7244
  66   2.0000      -0.297582        -8.0976
  67   0.0000       0.031377         0.8538
  68   0.0000       0.064975         1.7681
  69   0.0000       0.107966         2.9379
  70   0.0000       0.115988         3.1562
  71   0.0000       0.124185         3.3792

MULLIKEN ATOMIC CHARGES
-----------------------
   0 S :    0.081587
   1 C :   -0.056898
   2 C :   -0.144704
   3 C :    0.051115
   4 C :   -0.176308
   5 H :    0.024398
   6 C :    0.085415
   7 H :    0.034580
   8 H :    0.005130
   9 C :   -0.078580
  10 H :    0.038595
  11 H :    0.034613
  12 C :   -0.049559
  13 H :    0.034322
  14 H :    0.028593
  15 H :    0.029298
  16 S :    0.106320
  17 C :   -0.068916
  18 C :   -0.035979
  19 C :   -0.064190
  20 C :   -0.136599
  21 H :    0.016726
  22 C :    0.085785
  23 H :    0.018239
  24 H :    0.008958
  25 C :    0.000015
  26 H :    0.026550
  27 H :    0.017197
  28 C :   -0.034368
  29 H :    0.027327
  30 H :    0.032183
  31 H :    0.012118
  32 H :    0.006544
  33 H :    0.040492
Sum of atomic charges:   -0.0000000

LOEWDIN ATOMIC CHARGES
----------------------
   0 S :    0.362139
   1 C :   -0.177631
   2 C :   -0.055091
   3 C :   -0.065629
   4 C :   -0.178894
   5 H :    0.032062
   6 C :   -0.037727
   7 H :    0.034874
   8 H :    0.026644
   9 C :   -0.038931
  10 H :    0.029286
  11 H :    0.027964
  12 C :   -0.067403
  13 H :    0.021351
  14 H :    0.029435
  15 H :    0.024002
  16 S :    0.378130
  17 C :   -0.160152
  18 C :   -0.067599
  19 C :   -0.041322
  20 C :   -0.197813
  21 H :    0.030825
  22 C :   -0.031160
  23 H :    0.028822
  24 H :    0.027676
  25 C :   -0.023707
  26 H :    0.027739
  27 H :    0.020579
  28 C :   -0.064413
  29 H :    0.018470
  30 H :    0.031765
  31 H :    0.023278
  32 H :    0.010466
  33 H :    0.021965

  Mayer bond orders larger than 0.100000
B(  0-S ,  1-C ) :   1.1018 B(  0-S ,  4-C ) :   1.1204 B(  1-C ,  2-C ) :   1.6624
B(  1-C , 32-H ) :   0.9766 B(  2-C ,  3-C ) :   1.1712 B(  2-C ,  6-C ) :   1.0337
B(  3-C ,  4-C ) :   1.6257 B(  3-C ,  5-H ) :   0.9862 B(  4-C , 20-C ) :   1.0311
B(  6-C ,  7-H ) :   0.9332 B(  6-C ,  8-H ) :   0.9374 B(  6-C ,  9-C ) :   1.0551
B(  9-C , 10-H ) :   0.9586 B(  9-C , 11-H ) :   0.9556 B(  9-C , 12-C ) :   1.0829
B( 12-C , 13-H ) :   0.9778 B( 12-C , 14-H ) :   0.9735 B( 12-C , 15-H ) :   0.9756
B( 16-S , 17-C ) :   1.1340 B( 16-S , 20-C ) :   1.1116 B( 17-C , 18-C ) :   1.6779
B( 17-C , 33-H ) :   0.9590 B( 18-C , 19-C ) :   1.1853 B( 18-C , 21-H ) :   0.9875
B( 19-C , 20-C ) :   1.6490 B( 19-C , 22-C ) :   1.0382 B( 22-C , 23-H ) :   0.9346
B( 22-C , 24-H ) :   0.9237 B( 22-C , 25-C ) :   1.0679 B( 25-C , 26-H ) :   0.9559
B( 25-C , 27-H ) :   0.9524 B( 25-C , 28-C ) :   1.0791 B( 28-C , 29-H ) :   0.9701
B( 28-C , 30-H ) :   0.9737 B( 28-C , 31-H ) :   0.9658

Dispersion correction           -0.013977454
FINAL SINGLE POINT ENERGY     -1339.860040233978

DIPOLE MOMENT
-------------
                                X             Y             Z
Electronic contribution:     -1.41795     -21.63492      17.04292
Nuclear contribution   :      1.20502      22.18256     -17.56403
                        -----------------------------------------
Total Dipole Moment    :     -0.21293       0.54764      -0.52110
                        -----------------------------------------
Magnitude (a.u.)       :      0.78536
Magnitude (Debye)      :      1.99624

Rotational constants in cm-1:     0.018706     0.008065     0.006394
Rotational constants in MHz :   560.788278   241.772172   191.688325

                             ****ORCA TERMINATED NORMALLY****
TOTAL RUN TIME: 0 days 0 hours 0 minutes 21 seconds 430 msec
