                         Program Version 4.2.1 -  RELEASE  -
|  1> ! wB97X-D3 SP def2-SVP
|  2> %pal
|  3> nprocs 24
|  4> end
|  5>
|  6> * xyz 0 1
|  7> S 	 -95.7324 	 44.1894 	 -86.6251
|  8> C 	 -94.8298 	 42.7981 	 -87.2953
|  9> C 	 -95.603 	 42.1516 	 -88.3086
| 10> C 	 -96.8257 	 42.8045 	 -88.6087
| 11> C 	 -97.097 	 43.8479 	 -87.7852
| 12> H 	 -97.4731 	 42.4224 	 -89.3322
| 13> C 	 -95.1973 	 40.8785 	 -89.0023
| 14> H 	 -94.1892 	 41.0197 	 -89.3149
| 15> H 	 -95.7446 	 40.7706 	 -89.9813
| 16> C 	 -95.4113 	 39.6014 	 -88.1394
| 17> H 	 -94.494 	 39.2923 	 -87.6578
| 18> H 	 -96.0952 	 39.8065 	 -87.3561
| 19> C 	 -95.8621 	 38.4203 	 -88.9735
| 20> H 	 -95.0891 	 37.8022 	 -89.4734
| 21> H 	 -96.6129 	 37.9061 	 -88.418
| 22> H 	 -96.3982 	 38.7738 	 -89.8615
| 23> S 	 -99.0606 	 44.7579 	 -86.1184
| 24> C 	 -100.304 	 45.897 	 -86.702
| 25> C 	 -100.064 	 46.1563 	 -88.0628
| 26> C 	 -98.9264 	 45.4245 	 -88.6141
| 27> C 	 -98.3629 	 44.5812 	 -87.7417
| 28> H 	 -100.641 	 46.9069 	 -88.682
| 29> C 	 -98.7048 	 45.4734 	 -90.1562
| 30> H 	 -97.6454 	 45.6299 	 -90.3857
| 31> H 	 -99.1775 	 46.305 	 -90.4257
| 32> C 	 -99.253 	 44.2563 	 -90.9997
| 33> H 	 -98.7844 	 43.3415 	 -90.7174
| 34> H 	 -98.9808 	 44.3632 	 -91.9741
| 35> C 	 -100.824 	 44.2481 	 -90.9701
| 36> H 	 -101.378 	 43.39 	 -91.4691
| 37> H 	 -101.193 	 45.1725 	 -91.4105
| 38> H 	 -101.238 	 44.3146 	 -89.954
| 39> H 	 -93.8748 	 42.4984 	 -86.8995
| 40> H 	 -100.953 	 46.3893 	 -86.0002
| 41> *
| 42>
| 43>                          ****END OF INPUT****

CARTESIAN COORDINATES (ANGSTROEM)
---------------------------------
  S    -95.732400   44.189400  -86.625100
  C    -94.829800   42.798100  -87.295300
  C    -95.603000   42.151600  -88.308600
  C    -96.825700   42.804500  -88.608700
  C    -97.097000   43.847900  -87.785200
  H    -97.473100   42.422400  -89.332200
  C    -95.197300   40.878500  -89.002300
  H    -94.189200   41.019700  -89.314900
  H    -95.744600   40.770600  -89.981300
  C    -95.411300   39.601400  -88.139400
  H    -94.494000   39.292300  -87.657800
  H    -96.095200   39.806500  -87.356100
  C    -95.862100   38.420300  -88.973500
  H    -95.089100   37.802200  -89.473400
  H    -96.612900   37.906100  -88.418000
  H    -96.398200   38.773800  -89.861500
  S    -99.060600   44.757900  -86.118400
  C    -100.304000   45.897000  -86.702000
  C    -100.064000   46.156300  -88.062800
  C    -98.926400   45.424500  -88.614100
  C    -98.362900   44.581200  -87.741700
  H    -100.641000   46.906900  -88.682000
  C    -98.704800   45.473400  -90.156200
  H    -97.645400   45.629900  -90.385700
  H    -99.177500   46.305000  -90.425700
  C    -99.253000   44.256300  -90.999700
  H    -98.784400   43.341500  -90.717400
  H    -98.980800   44.363200  -91.974100
  C    -100.824000   44.248100  -90.970100
  H    -101.378000   43.390000  -91.469100
  H    -101.193000   45.172500  -91.410500
  H    -101.238000   44.314600  -89.954000
  H    -93.874800   42.498400  -86.899500
  H    -100.953000   46.389300  -86.000200

 Total Charge           Charge          ....    0
 Multiplicity           Mult            ....    1
 Number of Electrons    NEL             ....  134
 Basis Dimension        Dim             ....  322

ORBITAL ENERGIES
----------------

  NO   OCC          E(Eh)            E(eV)
   0   2.0000     -88.968685     -2420.9610
   1   2.0000     -88.961358     -2420.7616
   2   2.0000     -10.332812      -281.1701
   3   2.0000     -10.325612      -280.9742
   4   2.0000     -10.323538      -280.9178
   5   2.0000     -10.320730      -280.8413
   6   2.0000     -10.306645      -280.4581
   7   2.0000     -10.303738      -280.3790
   8   2.0000     -10.302671      -280.3499
   9   2.0000     -10.290502      -280.0188
  10   2.0000     -10.288964      -279.9769
  11   2.0000     -10.288914      -279.9756
  12   2.0000     -10.285968      -279.8954
  13   2.0000     -10.282485      -279.8007
  14   2.0000     -10.281495      -279.7737
  15   2.0000     -10.274870      -279.5934
  16   2.0000      -8.081475      -219.9081
  17   2.0000      -8.075663      -219.7500
  18   2.0000      -6.040195      -164.3621
  19   2.0000      -6.036255      -164.2548
  20   2.0000      -6.034261      -164.2006
  21   2.0000      -6.032112      -164.1421
  22   2.0000      -6.030224      -164.0907
  23   2.0000      -6.026338      -163.9850
  24   2.0000      -0.999615       -27.2009
  25   2.0000      -0.974250       -26.5107
  26   2.0000      -0.909351       -24.7447
  27   2.0000      -0.902841       -24.5676
  28   2.0000      -0.865161       -23.5422
  29   2.0000      -0.851433       -23.1687
  30   2.0000      -0.841042       -22.8859
  31   2.0000      -0.813852       -22.1460
  32   2.0000      -0.780139       -21.2287
  33   2.0000      -0.765489       -20.8300
  34   2.0000      -0.717156       -19.5148
  35   2.0000      -0.706821       -19.2336
  36   2.0000      -0.695393       -18.9226
  37   2.0000      -0.667226       -18.1562
  38   2.0000      -0.644939       -17.5497
  39   2.0000      -0.621110       -16.9013
  40   2.0000      -0.588684       -16.0189
  41   2.0000      -0.561726       -15.2854
  42   2.0000      -0.558292       -15.1919
  43   2.0000      -0.552982       -15.0474
  44   2.0000      -0.544244       -14.8096
  45   2.0000      -0.531068       -14.4511
  46   2.0000      -0.519295       -14.1307
  47   2.0000      -0.510474       -13.8907
  48   2.0000      -0.504290       -13.7224
  49   2.0000      -0.494344       -13.4518
  50   2.0000      -0.484333       -13.1794
  51   2.0000      -0.474063       -12.8999
  52   2.0000      -0.469898       -12.7866
  53   2.0000      -0.458426       -12.4744
  54   2.0000      -0.453575       -12.3424
  55   2.0000      -0.451038       -12.2734
  56   2.0000      -0.441426       -12.0118
  57   2.0000      -0.437978       -11.9180
  58   2.0000      -0.434734       -11.8297
  59   2.0000      -0.432721       -11.7750
  60   2.0000      -0.419187       -11.4067
  61   2.0000      -0.416645       -11.3375
  62   2.0000      -0.410538       -11.1713
  63   2.0000      -0.347056        -9.4439
  64   2.0000      -0.332158        -9.0385
  65   2.0000      -0.326475        -8.8838
  66   2.0000      -0.294350        -8.0097
  67   0.0000       0.028089         0.7643
  68   0.0000       0.057744         1.5713
  69   0.0000       0.106063         2.8861
  70   0.0000       0.118962         3.2371
  71   0.0000       0.126018         3.4291

MULLIKEN ATOMIC CHARGES
-----------------------
   0 S :    0.105014
   1 C :   -0.123767
   2 C :   -0.108393
   3 C :    0.054784
   4 C :   -0.107385
   5 H :   -0.016497
   6 C :    0.051476
   7 H :    0.025717
   8 H :    0.023150
   9 C :   -0.029499
  10 H :    0.028582
  11 H :    0.032748
  12 C :   -0.059310
  13 H :    0.042897
  14 H :    0.031935
  15 H :    0.008768
  16 S :    0.076482
  17 C :   -0.096931
  18 C :   -0.041175
  19 C :   -0.058374
  20 C :   -0.170952
  21 H :    0.043371
  22 C :    0.117027
  23 H :    0.035868
  24 H :   -0.029065
  25 C :    0.025144
  26 H :    0.009185
  27 H :    0.006821
  28 C :   -0.103048
  29 H :    0.047857
  30 H :    0.019523
  31 H :    0.043332
  32 H :    0.048917
  33 H :    0.065797
Sum of atomic charges:   -0.0000000

LOEWDIN ATOMIC CHARGES
----------------------
   0 S :    0.365053
   1 C :   -0.187809
   2 C :   -0.055697
   3 C :   -0.054761
   4 C :   -0.162899
   5 H :    0.022381
   6 C :   -0.034221
   7 H :    0.028249
   8 H :    0.030878
   9 C :   -0.035489
  10 H :    0.026989
  11 H :    0.023457
  12 C :   -0.070315
  13 H :    0.030943
  14 H :    0.026227
  15 H :    0.020888
  16 S :    0.376376
  17 C :   -0.171588
  18 C :   -0.075270
  19 C :   -0.057356
  20 C :   -0.186226
  21 H :    0.038989
  22 C :   -0.009193
  23 H :    0.035860
  24 H :    0.005978
  25 C :   -0.019098
  26 H :    0.016071
  27 H :    0.013619
  28 C :   -0.076156
  29 H :    0.032825
  30 H :    0.021562
  31 H :    0.027196
  32 H :    0.024425
  33 H :    0.028111

  Mayer bond orders larger than 0.100000
B(  0-S ,  1-C ) :   1.1248 B(  0-S ,  4-C ) :   1.1313 B(  1-C ,  2-C ) :   1.5901
B(  1-C ,  4-C ) :   0.1004 B(  1-C , 32-H ) :   0.9753 B(  2-C ,  3-C ) :   1.2489
B(  2-C ,  6-C ) :   1.0360 B(  3-C ,  4-C ) :   1.5824 B(  3-C ,  5-H ) :   0.9997
B(  4-C , 20-C ) :   1.0310 B(  6-C ,  7-H ) :   0.9328 B(  6-C ,  8-H ) :   0.9543
B(  6-C ,  9-C ) :   1.0384 B(  9-C , 10-H ) :   0.9505 B(  9-C , 11-H ) :   0.9681
B(  9-C , 12-C ) :   1.0805 B( 12-C , 13-H ) :   0.9755 B( 12-C , 14-H ) :   0.9760
B( 12-C , 15-H ) :   0.9775 B( 16-S , 17-C ) :   1.1455 B( 16-S , 20-C ) :   1.1209
B( 17-C , 18-C ) :   1.6023 B( 17-C , 33-H ) :   0.9739 B( 18-C , 19-C ) :   1.2270
B( 18-C , 21-H ) :   0.9743 B( 19-C , 20-C ) :   1.6465 B( 19-C , 22-C ) :   1.0384
B( 22-C , 23-H ) :   0.9305 B( 22-C , 24-H ) :   0.9282 B( 22-C , 25-C ) :   1.0686
B( 25-C , 26-H ) :   0.9594 B( 25-C , 27-H ) :   0.9484 B( 25-C , 28-C ) :   1.0560
B( 28-C , 29-H ) :   0.9762 B( 28-C , 30-H ) :   0.9753 B( 28-C , 31-H ) :   0.9795

Dispersion correction           -0.014561634
FINAL SINGLE POINT ENERGY     -1339.853077202735

DIPOLE MOMENT
-------------
                                X             Y             Z
Electronic contribution:      2.91028      16.78250      21.01732
Nuclear contribution   :     -2.94272     -16.97164     -21.58929
                        -----------------------------------------
Total Dipole Moment    :     -0.03244      -0.18914      -0.57197
                        -----------------------------------------
Magnitude (a.u.)       :      0.60330
Magnitude (Debye)      :      1.53348

Rotational constants in cm-1:     0.018740     0.008522     0.006823
Rotational constants in MHz :   561.812268   255.488634   204.547214

                             ****ORCA TERMINATED NORMALLY****
TOTAL RUN TIME: 0 days 0 hours 0 minutes 21 seconds 620 msec
