                         Program Version 4.2.1 -  RELEASE  -
|  1> ! wB97X-D3 SP def2-SVP
|  2> %pal
|  3> nprocs 24
|  4> end
|  5>
|  6> * xyz 0 1
|  7> S 	 -77.8359 	 -17.8652 	 -52.6913
|  8> C 	 -78.9272 	 -19.1385 	 -52.2998
|  9> C 	 -80.1855 	 -18.9448 	 -52.7573
| 10> C 	 -80.228 	 -17.6751 	 -53.3636
| 11> C 	 -79.1494 	 -16.9036 	 -53.1739
| 12> H 	 -81.104 	 -17.1851 	 -53.7393
| 13> C 	 -81.4332 	 -19.7062 	 -52.4284
| 14> H 	 -81.5974 	 -19.6483 	 -51.3561
| 15> H 	 -81.3058 	 -20.8038 	 -52.6971
| 16> C 	 -82.7232 	 -19.1771 	 -53.1056
| 17> H 	 -83.5578 	 -19.626 	 -52.6079
| 18> H 	 -82.7096 	 -18.1036 	 -53.0792
| 19> C 	 -82.8635 	 -19.7252 	 -54.592
| 20> H 	 -81.9076 	 -19.5948 	 -55.0934
| 21> H 	 -83.1268 	 -20.7803 	 -54.6582
| 22> H 	 -83.5592 	 -19.188 	 -55.1544
| 23> S 	 -78.3594 	 -15.0171 	 -55.0402
| 24> C 	 -78.5582 	 -13.3687 	 -54.6141
| 25> C 	 -78.9786 	 -13.204 	 -53.3377
| 26> C 	 -79.3272 	 -14.3508 	 -52.6746
| 27> C 	 -78.9095 	 -15.4763 	 -53.4181
| 28> H 	 -79.1203 	 -12.1702 	 -52.9531
| 29> C 	 -80.0867 	 -14.2853 	 -51.3862
| 30> H 	 -80.9949 	 -14.6623 	 -51.6315
| 31> H 	 -80.0378 	 -13.2338 	 -51.0327
| 32> C 	 -79.4884 	 -15.1004 	 -50.2193
| 33> H 	 -78.4148 	 -14.7889 	 -50.0894
| 34> H 	 -79.4705 	 -16.1566 	 -50.4183
| 35> C 	 -80.2363 	 -14.8809 	 -48.9979
| 36> H 	 -81.0592 	 -15.61 	 -48.9662
| 37> H 	 -80.687 	 -13.891 	 -48.8557
| 38> H 	 -79.4832 	 -15.1364 	 -48.1729
| 39> H 	 -78.6128 	 -20.0349 	 -51.7635
| 40> H 	 -78.4114 	 -12.5529 	 -55.29
| 41> *
| 42>
| 43>                          ****END OF INPUT****

CARTESIAN COORDINATES (ANGSTROEM)
---------------------------------
  S    -77.835900  -17.865200  -52.691300
  C    -78.927200  -19.138500  -52.299800
  C    -80.185500  -18.944800  -52.757300
  C    -80.228000  -17.675100  -53.363600
  C    -79.149400  -16.903600  -53.173900
  H    -81.104000  -17.185100  -53.739300
  C    -81.433200  -19.706200  -52.428400
  H    -81.597400  -19.648300  -51.356100
  H    -81.305800  -20.803800  -52.697100
  C    -82.723200  -19.177100  -53.105600
  H    -83.557800  -19.626000  -52.607900
  H    -82.709600  -18.103600  -53.079200
  C    -82.863500  -19.725200  -54.592000
  H    -81.907600  -19.594800  -55.093400
  H    -83.126800  -20.780300  -54.658200
  H    -83.559200  -19.188000  -55.154400
  S    -78.359400  -15.017100  -55.040200
  C    -78.558200  -13.368700  -54.614100
  C    -78.978600  -13.204000  -53.337700
  C    -79.327200  -14.350800  -52.674600
  C    -78.909500  -15.476300  -53.418100
  H    -79.120300  -12.170200  -52.953100
  C    -80.086700  -14.285300  -51.386200
  H    -80.994900  -14.662300  -51.631500
  H    -80.037800  -13.233800  -51.032700
  C    -79.488400  -15.100400  -50.219300
  H    -78.414800  -14.788900  -50.089400
  H    -79.470500  -16.156600  -50.418300
  C    -80.236300  -14.880900  -48.997900
  H    -81.059200  -15.610000  -48.966200
  H    -80.687000  -13.891000  -48.855700
  H    -79.483200  -15.136400  -48.172900
  H    -78.612800  -20.034900  -51.763500
  H    -78.411400  -12.552900  -55.290000

 Total Charge           Charge          ....    0
 Multiplicity           Mult            ....    1
 Number of Electrons    NEL             ....  134
 Basis Dimension        Dim             ....  322

ORBITAL ENERGIES
----------------

  NO   OCC          E(Eh)            E(eV)
   0   2.0000     -88.965519     -2420.8748
   1   2.0000     -88.958447     -2420.6824
   2   2.0000     -10.322679      -280.8944
   3   2.0000     -10.314978      -280.6848
   4   2.0000     -10.308014      -280.4953
   5   2.0000     -10.304458      -280.3986
   6   2.0000     -10.297683      -280.2142
   7   2.0000     -10.296879      -280.1923
   8   2.0000     -10.293057      -280.0883
   9   2.0000     -10.288933      -279.9761
  10   2.0000     -10.284889      -279.8661
  11   2.0000     -10.283489      -279.8280
  12   2.0000     -10.281695      -279.7791
  13   2.0000     -10.276800      -279.6460
  14   2.0000     -10.276288      -279.6320
  15   2.0000     -10.273629      -279.5596
  16   2.0000      -8.080505      -219.8817
  17   2.0000      -8.075157      -219.7362
  18   2.0000      -6.038764      -164.3231
  19   2.0000      -6.035026      -164.2214
  20   2.0000      -6.033432      -164.1780
  21   2.0000      -6.031483      -164.1250
  22   2.0000      -6.029508      -164.0713
  23   2.0000      -6.025905      -163.9732
  24   2.0000      -1.017635       -27.6912
  25   2.0000      -0.995205       -27.0809
  26   2.0000      -0.919405       -25.0183
  27   2.0000      -0.912654       -24.8346
  28   2.0000      -0.868139       -23.6233
  29   2.0000      -0.862061       -23.4579
  30   2.0000      -0.844773       -22.9874
  31   2.0000      -0.814630       -22.1672
  32   2.0000      -0.787118       -21.4186
  33   2.0000      -0.772908       -21.0319
  34   2.0000      -0.711973       -19.3738
  35   2.0000      -0.694944       -18.9104
  36   2.0000      -0.683607       -18.6019
  37   2.0000      -0.655511       -17.8374
  38   2.0000      -0.643212       -17.5027
  39   2.0000      -0.630142       -17.1470
  40   2.0000      -0.601932       -16.3794
  41   2.0000      -0.581379       -15.8201
  42   2.0000      -0.566407       -15.4127
  43   2.0000      -0.552482       -15.0338
  44   2.0000      -0.535224       -14.5642
  45   2.0000      -0.529445       -14.4069
  46   2.0000      -0.517536       -14.0829
  47   2.0000      -0.512545       -13.9471
  48   2.0000      -0.502029       -13.6609
  49   2.0000      -0.494027       -13.4432
  50   2.0000      -0.488411       -13.2903
  51   2.0000      -0.487009       -13.2522
  52   2.0000      -0.477259       -12.9869
  53   2.0000      -0.467756       -12.7283
  54   2.0000      -0.460605       -12.5337
  55   2.0000      -0.452857       -12.3229
  56   2.0000      -0.449646       -12.2355
  57   2.0000      -0.431588       -11.7441
  58   2.0000      -0.426690       -11.6108
  59   2.0000      -0.423808       -11.5324
  60   2.0000      -0.420839       -11.4516
  61   2.0000      -0.418705       -11.3935
  62   2.0000      -0.412236       -11.2175
  63   2.0000      -0.338630        -9.2146
  64   2.0000      -0.328802        -8.9471
  65   2.0000      -0.317796        -8.6477
  66   2.0000      -0.305190        -8.3046
  67   0.0000       0.047774         1.3000
  68   0.0000       0.053137         1.4459
  69   0.0000       0.119540         3.2528
  70   0.0000       0.123992         3.3740
  71   0.0000       0.134730         3.6662

MULLIKEN ATOMIC CHARGES
-----------------------
   0 S :    0.122836
   1 C :   -0.138908
   2 C :   -0.050814
   3 C :    0.037211
   4 C :   -0.210077
   5 H :   -0.003749
   6 C :    0.036667
   7 H :    0.045312
   8 H :    0.040414
   9 C :   -0.064121
  10 H :    0.028423
  11 H :    0.031037
  12 C :   -0.048332
  13 H :    0.028466
  14 H :    0.034140
  15 H :    0.021652
  16 S :    0.125323
  17 C :   -0.081885
  18 C :   -0.057432
  19 C :   -0.011846
  20 C :   -0.180301
  21 H :    0.021655
  22 C :    0.141453
  23 H :    0.005590
  24 H :    0.022769
  25 C :   -0.113432
  26 H :    0.033689
  27 H :    0.038177
  28 C :   -0.037228
  29 H :    0.026886
  30 H :    0.028970
  31 H :    0.043526
  32 H :    0.039318
  33 H :    0.044610
Sum of atomic charges:   -0.0000000

LOEWDIN ATOMIC CHARGES
----------------------
   0 S :    0.433877
   1 C :   -0.200441
   2 C :   -0.073593
   3 C :   -0.068189
   4 C :   -0.214754
   5 H :    0.025778
   6 C :   -0.032891
   7 H :    0.035647
   8 H :    0.038811
   9 C :   -0.031291
  10 H :    0.024015
  11 H :    0.019075
  12 C :   -0.062145
  13 H :    0.024321
  14 H :    0.026495
  15 H :    0.016164
  16 S :    0.419832
  17 C :   -0.190003
  18 C :   -0.084335
  19 C :   -0.045449
  20 C :   -0.210095
  21 H :    0.036326
  22 C :   -0.015594
  23 H :    0.020497
  24 H :    0.036677
  25 C :   -0.047129
  26 H :    0.027135
  27 H :    0.024459
  28 C :   -0.070291
  29 H :    0.025563
  30 H :    0.021957
  31 H :    0.039453
  32 H :    0.025340
  33 H :    0.024780

  Mayer bond orders larger than 0.100000
B(  0-S ,  1-C ) :   1.1511 B(  0-S ,  4-C ) :   1.1652 B(  1-C ,  2-C ) :   1.6286
B(  1-C , 32-H ) :   0.9715 B(  2-C ,  3-C ) :   1.2243 B(  2-C ,  6-C ) :   1.0075
B(  3-C ,  4-C ) :   1.6236 B(  3-C ,  5-H ) :   0.9982 B(  4-C , 20-C ) :   0.9759
B(  6-C ,  7-H ) :   0.9400 B(  6-C ,  8-H ) :   0.9348 B(  6-C ,  9-C ) :   1.0906
B(  9-C , 10-H ) :   0.9555 B(  9-C , 11-H ) :   0.9513 B(  9-C , 12-C ) :   1.0714
B( 12-C , 13-H ) :   0.9804 B( 12-C , 14-H ) :   0.9764 B( 12-C , 15-H ) :   0.9768
B( 16-S , 17-C ) :   1.1760 B( 16-S , 20-C ) :   1.1632 B( 17-C , 18-C ) :   1.5906
B( 17-C , 20-C ) :   0.1111 B( 17-C , 33-H ) :   0.9656 B( 18-C , 19-C ) :   1.2908
B( 18-C , 21-H ) :   0.9818 B( 19-C , 20-C ) :   1.5595 B( 19-C , 22-C ) :   1.0347
B( 22-C , 23-H ) :   0.9099 B( 22-C , 24-H ) :   0.9349 B( 22-C , 25-C ) :   1.0802
B( 25-C , 26-H ) :   0.9610 B( 25-C , 27-H ) :   0.9469 B( 25-C , 28-C ) :   1.0929
B( 28-C , 29-H ) :   0.9719 B( 28-C , 30-H ) :   0.9709 B( 28-C , 31-H ) :   0.9721

Dispersion correction           -0.014911047
FINAL SINGLE POINT ENERGY     -1339.856681742900

DIPOLE MOMENT
-------------
                                X             Y             Z
Electronic contribution:     19.99308       4.94626     -13.23330
Nuclear contribution   :    -20.61976      -4.86862      13.54596
                        -----------------------------------------
Total Dipole Moment    :     -0.62668       0.07764       0.31266
                        -----------------------------------------
Magnitude (a.u.)       :      0.70463
Magnitude (Debye)      :      1.79103

Rotational constants in cm-1:     0.016834     0.009569     0.008198
Rotational constants in MHz :   504.667052   286.869858   245.761247

                             ****ORCA TERMINATED NORMALLY****
TOTAL RUN TIME: 0 days 0 hours 0 minutes 22 seconds 688 msec
