                         Program Version 4.2.1 -  RELEASE  -
|  1> ! wB97X-D3 SP def2-SVP
|  2> %pal
|  3> nprocs 24
|  4> end
|  5>
|  6> * xyz 0 1
|  7> S 	 -40.2387 	 17.1702 	 26.3612
|  8> C 	 -40.1269 	 15.5903 	 27.2125
|  9> C 	 -39.3287 	 15.6948 	 28.3732
| 10> C 	 -38.9778 	 17.0437 	 28.6406
| 11> C 	 -39.3562 	 17.9512 	 27.6813
| 12> H 	 -38.4752 	 17.3472 	 29.5431
| 13> C 	 -39.1005 	 14.6097 	 29.379
| 14> H 	 -39.4953 	 13.6715 	 28.9666
| 15> H 	 -39.7493 	 14.914 	 30.1764
| 16> C 	 -37.6119 	 14.3074 	 29.8078
| 17> H 	 -37.0244 	 13.7868 	 29.0463
| 18> H 	 -36.9563 	 15.16 	 29.8783
| 19> C 	 -37.4913 	 13.4323 	 31.0691
| 20> H 	 -38.1445 	 12.6055 	 30.9934
| 21> H 	 -36.4617 	 13.0448 	 31.2122
| 22> H 	 -37.6393 	 13.9461 	 32.0051
| 23> S 	 -40.2211 	 20.4464 	 27.0736
| 24> C 	 -39.0719 	 21.8234 	 26.9157
| 25> C 	 -37.9711 	 21.5135 	 27.6795
| 26> C 	 -37.916 	 20.1383 	 28.1163
| 27> C 	 -39.0348 	 19.3825 	 27.711
| 28> H 	 -37.1667 	 22.1808 	 27.7503
| 29> C 	 -36.6967 	 19.5823 	 28.852
| 30> H 	 -35.8589 	 19.6847 	 28.2232
| 31> H 	 -36.7943 	 18.449 	 28.8917
| 32> C 	 -36.3109 	 20.1132 	 30.2132
| 33> H 	 -36.2279 	 21.1914 	 30.0941
| 34> H 	 -35.3189 	 19.7733 	 30.4118
| 35> C 	 -37.1969 	 19.6807 	 31.4013
| 36> H 	 -38.2814 	 19.9677 	 31.1333
| 37> H 	 -36.8989 	 20.0885 	 32.3368
| 38> H 	 -37.202 	 18.6062 	 31.4792
| 39> H 	 -40.6536 	 14.685 	 26.9799
| 40> H 	 -39.2381 	 22.84 	 26.5921
| 41> *
| 42>
| 43>                          ****END OF INPUT****

CARTESIAN COORDINATES (ANGSTROEM)
---------------------------------
  S    -40.238700   17.170200   26.361200
  C    -40.126900   15.590300   27.212500
  C    -39.328700   15.694800   28.373200
  C    -38.977800   17.043700   28.640600
  C    -39.356200   17.951200   27.681300
  H    -38.475200   17.347200   29.543100
  C    -39.100500   14.609700   29.379000
  H    -39.495300   13.671500   28.966600
  H    -39.749300   14.914000   30.176400
  C    -37.611900   14.307400   29.807800
  H    -37.024400   13.786800   29.046300
  H    -36.956300   15.160000   29.878300
  C    -37.491300   13.432300   31.069100
  H    -38.144500   12.605500   30.993400
  H    -36.461700   13.044800   31.212200
  H    -37.639300   13.946100   32.005100
  S    -40.221100   20.446400   27.073600
  C    -39.071900   21.823400   26.915700
  C    -37.971100   21.513500   27.679500
  C    -37.916000   20.138300   28.116300
  C    -39.034800   19.382500   27.711000
  H    -37.166700   22.180800   27.750300
  C    -36.696700   19.582300   28.852000
  H    -35.858900   19.684700   28.223200
  H    -36.794300   18.449000   28.891700
  C    -36.310900   20.113200   30.213200
  H    -36.227900   21.191400   30.094100
  H    -35.318900   19.773300   30.411800
  C    -37.196900   19.680700   31.401300
  H    -38.281400   19.967700   31.133300
  H    -36.898900   20.088500   32.336800
  H    -37.202000   18.606200   31.479200
  H    -40.653600   14.685000   26.979900
  H    -39.238100   22.840000   26.592100

 Total Charge           Charge          ....    0
 Multiplicity           Mult            ....    1
 Number of Electrons    NEL             ....  134
 Basis Dimension        Dim             ....  322

ORBITAL ENERGIES
----------------

  NO   OCC          E(Eh)            E(eV)
   0   2.0000     -88.971629     -2421.0411
   1   2.0000     -88.963253     -2420.8132
   2   2.0000     -10.333763      -281.1960
   3   2.0000     -10.330167      -281.0981
   4   2.0000     -10.319779      -280.8155
   5   2.0000     -10.319311      -280.8027
   6   2.0000     -10.307595      -280.4839
   7   2.0000     -10.303677      -280.3773
   8   2.0000     -10.298107      -280.2257
   9   2.0000     -10.293158      -280.0911
  10   2.0000     -10.292675      -280.0779
  11   2.0000     -10.291053      -280.0338
  12   2.0000     -10.288751      -279.9712
  13   2.0000     -10.284869      -279.8655
  14   2.0000     -10.281078      -279.7624
  15   2.0000     -10.278002      -279.6787
  16   2.0000      -8.084747      -219.9972
  17   2.0000      -8.077869      -219.8100
  18   2.0000      -6.043467      -164.4511
  19   2.0000      -6.039520      -164.3437
  20   2.0000      -6.036548      -164.2628
  21   2.0000      -6.035312      -164.2292
  22   2.0000      -6.032349      -164.1486
  23   2.0000      -6.028475      -164.0431
  24   2.0000      -1.004018       -27.3207
  25   2.0000      -0.979577       -26.6556
  26   2.0000      -0.910642       -24.7798
  27   2.0000      -0.907717       -24.7002
  28   2.0000      -0.870664       -23.6920
  29   2.0000      -0.851170       -23.1615
  30   2.0000      -0.843318       -22.9479
  31   2.0000      -0.818752       -22.2794
  32   2.0000      -0.781871       -21.2758
  33   2.0000      -0.773474       -21.0473
  34   2.0000      -0.715081       -19.4583
  35   2.0000      -0.704430       -19.1685
  36   2.0000      -0.695826       -18.9344
  37   2.0000      -0.660199       -17.9649
  38   2.0000      -0.638908       -17.3856
  39   2.0000      -0.625594       -17.0233
  40   2.0000      -0.593787       -16.1578
  41   2.0000      -0.568692       -15.4749
  42   2.0000      -0.557979       -15.1834
  43   2.0000      -0.555170       -15.1069
  44   2.0000      -0.541857       -14.7447
  45   2.0000      -0.527844       -14.3634
  46   2.0000      -0.523203       -14.2371
  47   2.0000      -0.512695       -13.9511
  48   2.0000      -0.502320       -13.6688
  49   2.0000      -0.499361       -13.5883
  50   2.0000      -0.495573       -13.4852
  51   2.0000      -0.482060       -13.1175
  52   2.0000      -0.469341       -12.7714
  53   2.0000      -0.463977       -12.6254
  54   2.0000      -0.460081       -12.5194
  55   2.0000      -0.452528       -12.3139
  56   2.0000      -0.448649       -12.2084
  57   2.0000      -0.440776       -11.9941
  58   2.0000      -0.432319       -11.7640
  59   2.0000      -0.423469       -11.5232
  60   2.0000      -0.418139       -11.3782
  61   2.0000      -0.416374       -11.3301
  62   2.0000      -0.411362       -11.1937
  63   2.0000      -0.352059        -9.5800
  64   2.0000      -0.332076        -9.0362
  65   2.0000      -0.327141        -8.9020
  66   2.0000      -0.287340        -7.8189
  67   0.0000       0.017576         0.4783
  68   0.0000       0.077806         2.1172
  69   0.0000       0.101350         2.7579
  70   0.0000       0.114731         3.1220
  71   0.0000       0.128228         3.4893

MULLIKEN ATOMIC CHARGES
-----------------------
   0 S :    0.121739
   1 C :   -0.120187
   2 C :   -0.085793
   3 C :    0.012413
   4 C :   -0.101455
   5 H :   -0.000632
   6 C :    0.075516
   7 H :    0.019401
   8 H :    0.046252
   9 C :   -0.074628
  10 H :    0.026924
  11 H :    0.017033
  12 C :   -0.043452
  13 H :    0.025496
  14 H :    0.029072
  15 H :    0.029267
  16 S :    0.088806
  17 C :   -0.085021
  18 C :   -0.020421
  19 C :   -0.036312
  20 C :   -0.155973
  21 H :    0.006013
  22 C :    0.033999
  23 H :    0.017901
  24 H :    0.016062
  25 C :   -0.041532
  26 H :    0.021389
  27 H :    0.017539
  28 C :   -0.050689
  29 H :    0.048418
  30 H :    0.035194
  31 H :    0.025883
  32 H :    0.042409
  33 H :    0.059370
Sum of atomic charges:   -0.0000000

LOEWDIN ATOMIC CHARGES
----------------------
   0 S :    0.387789
   1 C :   -0.187594
   2 C :   -0.057848
   3 C :   -0.062618
   4 C :   -0.184923
   5 H :    0.026898
   6 C :   -0.028570
   7 H :    0.032291
   8 H :    0.036773
   9 C :   -0.043700
  10 H :    0.029947
  11 H :    0.018886
  12 C :   -0.063308
  13 H :    0.018699
  14 H :    0.031306
  15 H :    0.022011
  16 S :    0.397117
  17 C :   -0.173115
  18 C :   -0.062104
  19 C :   -0.058353
  20 C :   -0.201113
  21 H :    0.022194
  22 C :   -0.039189
  23 H :    0.026942
  24 H :    0.033487
  25 C :   -0.037473
  26 H :    0.021444
  27 H :    0.021726
  28 C :   -0.064629
  29 H :    0.037268
  30 H :    0.021959
  31 H :    0.019175
  32 H :    0.025612
  33 H :    0.033009

  Mayer bond orders larger than 0.100000
B(  0-S ,  1-C ) :   1.1225 B(  0-S ,  4-C ) :   1.1361 B(  1-C ,  2-C ) :   1.6027
B(  1-C , 32-H ) :   0.9676 B(  2-C ,  3-C ) :   1.2408 B(  2-C ,  6-C ) :   1.0315
B(  3-C ,  4-C ) :   1.5677 B(  3-C ,  5-H ) :   0.9907 B(  4-C , 20-C ) :   1.0589
B(  6-C ,  7-H ) :   0.9352 B(  6-C ,  8-H ) :   0.9486 B(  6-C ,  9-C ) :   1.0356
B(  9-C , 10-H ) :   0.9545 B(  9-C , 11-H ) :   0.9626 B(  9-C , 12-C ) :   1.0827
B( 12-C , 13-H ) :   0.9759 B( 12-C , 14-H ) :   0.9736 B( 12-C , 15-H ) :   0.9777
B( 16-S , 17-C ) :   1.1292 B( 16-S , 20-C ) :   1.1501 B( 17-C , 18-C ) :   1.6178
B( 17-C , 33-H ) :   0.9676 B( 18-C , 19-C ) :   1.2470 B( 18-C , 21-H ) :   0.9902
B( 19-C , 20-C ) :   1.5609 B( 19-C , 22-C ) :   1.0365 B( 22-C , 23-H ) :   0.9266
B( 22-C , 24-H ) :   0.9349 B( 22-C , 25-C ) :   1.0848 B( 25-C , 26-H ) :   0.9524
B( 25-C , 27-H ) :   0.9479 B( 25-C , 28-C ) :   1.0765 B( 28-C , 29-H ) :   0.9772
B( 28-C , 30-H ) :   0.9732 B( 28-C , 31-H ) :   0.9697

Dispersion correction           -0.014357398
FINAL SINGLE POINT ENERGY     -1339.868882492467

DIPOLE MOMENT
-------------
                                X             Y             Z
Electronic contribution:    -18.13070      12.90439     -23.72699
Nuclear contribution   :     18.70392     -13.10762      24.28444
                        -----------------------------------------
Total Dipole Moment    :      0.57322      -0.20323       0.55745
                        -----------------------------------------
Magnitude (a.u.)       :      0.82500
Magnitude (Debye)      :      2.09699

Rotational constants in cm-1:     0.017715     0.009412     0.006493
Rotational constants in MHz :   531.074961   282.174232   194.657474

                             ****ORCA TERMINATED NORMALLY****
TOTAL RUN TIME: 0 days 0 hours 0 minutes 20 seconds 690 msec
