                         Program Version 4.2.1 -  RELEASE  -
|  1> ! wB97X-D3 SP def2-SVP
|  2> %pal
|  3> nprocs 24
|  4> end
|  5>
|  6> * xyz 0 1
|  7> S 	 -49.2588 	 17.2818 	 20.6441
|  8> C 	 -50.6576 	 17.1508 	 21.6939
|  9> C 	 -51.7317 	 16.6397 	 21.0726
| 10> C 	 -51.3503 	 16.0896 	 19.7997
| 11> C 	 -50.0884 	 16.4241 	 19.4108
| 12> H 	 -51.9793 	 15.5215 	 19.137
| 13> C 	 -53.1063 	 16.4821 	 21.6567
| 14> H 	 -53.775 	 16.1599 	 20.834
| 15> H 	 -53.3823 	 17.5322 	 21.8255
| 16> C 	 -53.4261 	 15.5029 	 22.7435
| 17> H 	 -52.5287 	 15.3475 	 23.3053
| 18> H 	 -54.0131 	 16.013 	 23.5056
| 19> C 	 -53.9426 	 14.1288 	 22.2827
| 20> H 	 -54.8878 	 14.0231 	 21.7495
| 21> H 	 -53.1642 	 13.7201 	 21.6118
| 22> H 	 -54.0432 	 13.4946 	 23.2186
| 23> S 	 -48.0572 	 14.6335 	 18.9117
| 24> C 	 -47.8942 	 13.9577 	 17.3413
| 25> C 	 -48.6762 	 14.5782 	 16.4136
| 26> C 	 -49.5351 	 15.5923 	 16.9684
| 27> C 	 -49.3153 	 15.7691 	 18.3315
| 28> H 	 -48.6868 	 14.3381 	 15.3402
| 29> C 	 -50.6302 	 16.2923 	 16.17
| 30> H 	 -51.0413 	 17.0615 	 16.8141
| 31> H 	 -51.4439 	 15.5692 	 16.1025
| 32> C 	 -50.3633 	 16.9101 	 14.7733
| 33> H 	 -51.2904 	 17.1129 	 14.2964
| 34> H 	 -49.8405 	 16.2276 	 14.1957
| 35> C 	 -49.5021 	 18.1737 	 14.8629
| 36> H 	 -49.3371 	 18.7061 	 13.8817
| 37> H 	 -48.5525 	 17.8827 	 15.1993
| 38> H 	 -50.0157 	 18.8523 	 15.4945
| 39> H 	 -50.8793 	 17.5368 	 22.6589
| 40> H 	 -47.263 	 13.0923 	 17.1018
| 41> *
| 42>
| 43>                          ****END OF INPUT****

CARTESIAN COORDINATES (ANGSTROEM)
---------------------------------
  S    -49.258800   17.281800   20.644100
  C    -50.657600   17.150800   21.693900
  C    -51.731700   16.639700   21.072600
  C    -51.350300   16.089600   19.799700
  C    -50.088400   16.424100   19.410800
  H    -51.979300   15.521500   19.137000
  C    -53.106300   16.482100   21.656700
  H    -53.775000   16.159900   20.834000
  H    -53.382300   17.532200   21.825500
  C    -53.426100   15.502900   22.743500
  H    -52.528700   15.347500   23.305300
  H    -54.013100   16.013000   23.505600
  C    -53.942600   14.128800   22.282700
  H    -54.887800   14.023100   21.749500
  H    -53.164200   13.720100   21.611800
  H    -54.043200   13.494600   23.218600
  S    -48.057200   14.633500   18.911700
  C    -47.894200   13.957700   17.341300
  C    -48.676200   14.578200   16.413600
  C    -49.535100   15.592300   16.968400
  C    -49.315300   15.769100   18.331500
  H    -48.686800   14.338100   15.340200
  C    -50.630200   16.292300   16.170000
  H    -51.041300   17.061500   16.814100
  H    -51.443900   15.569200   16.102500
  C    -50.363300   16.910100   14.773300
  H    -51.290400   17.112900   14.296400
  H    -49.840500   16.227600   14.195700
  C    -49.502100   18.173700   14.862900
  H    -49.337100   18.706100   13.881700
  H    -48.552500   17.882700   15.199300
  H    -50.015700   18.852300   15.494500
  H    -50.879300   17.536800   22.658900
  H    -47.263000   13.092300   17.101800

 Total Charge           Charge          ....    0
 Multiplicity           Mult            ....    1
 Number of Electrons    NEL             ....  134
 Basis Dimension        Dim             ....  322

ORBITAL ENERGIES
----------------

  NO   OCC          E(Eh)            E(eV)
   0   2.0000     -88.966691     -2420.9067
   1   2.0000     -88.962367     -2420.7891
   2   2.0000     -10.327698      -281.0309
   3   2.0000     -10.323798      -280.9248
   4   2.0000     -10.315583      -280.7013
   5   2.0000     -10.305777      -280.4344
   6   2.0000     -10.305075      -280.4153
   7   2.0000     -10.293710      -280.1061
   8   2.0000     -10.292551      -280.0746
   9   2.0000     -10.291122      -280.0357
  10   2.0000     -10.289815      -280.0001
  11   2.0000     -10.289421      -279.9894
  12   2.0000     -10.287562      -279.9388
  13   2.0000     -10.285189      -279.8742
  14   2.0000     -10.279133      -279.7094
  15   2.0000     -10.269542      -279.4484
  16   2.0000      -8.081807      -219.9171
  17   2.0000      -8.077278      -219.7939
  18   2.0000      -6.040428      -164.3684
  19   2.0000      -6.036278      -164.2555
  20   2.0000      -6.035755      -164.2412
  21   2.0000      -6.032404      -164.1501
  22   2.0000      -6.031804      -164.1337
  23   2.0000      -6.027990      -164.0300
  24   2.0000      -1.010611       -27.5001
  25   2.0000      -0.986290       -26.8383
  26   2.0000      -0.918078       -24.9822
  27   2.0000      -0.908777       -24.7291
  28   2.0000      -0.870603       -23.6903
  29   2.0000      -0.852315       -23.1927
  30   2.0000      -0.844154       -22.9706
  31   2.0000      -0.814747       -22.1704
  32   2.0000      -0.785067       -21.3627
  33   2.0000      -0.775257       -21.0958
  34   2.0000      -0.710882       -19.3441
  35   2.0000      -0.708397       -19.2765
  36   2.0000      -0.695796       -18.9336
  37   2.0000      -0.654641       -17.8137
  38   2.0000      -0.637640       -17.3511
  39   2.0000      -0.613705       -16.6998
  40   2.0000      -0.599936       -16.3251
  41   2.0000      -0.575137       -15.6503
  42   2.0000      -0.562015       -15.2932
  43   2.0000      -0.552388       -15.0312
  44   2.0000      -0.548750       -14.9323
  45   2.0000      -0.530466       -14.4347
  46   2.0000      -0.516268       -14.0484
  47   2.0000      -0.512651       -13.9499
  48   2.0000      -0.499016       -13.5789
  49   2.0000      -0.492293       -13.3960
  50   2.0000      -0.484606       -13.1868
  51   2.0000      -0.478924       -13.0322
  52   2.0000      -0.473456       -12.8834
  53   2.0000      -0.467560       -12.7229
  54   2.0000      -0.457894       -12.4599
  55   2.0000      -0.449613       -12.2346
  56   2.0000      -0.446494       -12.1497
  57   2.0000      -0.437957       -11.9174
  58   2.0000      -0.435837       -11.8597
  59   2.0000      -0.425026       -11.5655
  60   2.0000      -0.420537       -11.4434
  61   2.0000      -0.417412       -11.3583
  62   2.0000      -0.410657       -11.1746
  63   2.0000      -0.345014        -9.3883
  64   2.0000      -0.331608        -9.0235
  65   2.0000      -0.327376        -8.9083
  66   2.0000      -0.297875        -8.1056
  67   0.0000       0.039088         1.0637
  68   0.0000       0.066223         1.8020
  69   0.0000       0.111131         3.0240
  70   0.0000       0.127349         3.4653
  71   0.0000       0.133928         3.6444

MULLIKEN ATOMIC CHARGES
-----------------------
   0 S :    0.115040
   1 C :   -0.088408
   2 C :   -0.115709
   3 C :    0.042101
   4 C :   -0.153208
   5 H :    0.002398
   6 C :    0.037308
   7 H :    0.016541
   8 H :    0.039960
   9 C :   -0.013983
  10 H :    0.012391
  11 H :    0.021366
  12 C :   -0.082903
  13 H :    0.041937
  14 H :    0.044129
  15 H :    0.045953
  16 S :    0.105976
  17 C :   -0.090901
  18 C :   -0.040321
  19 C :   -0.055390
  20 C :   -0.151106
  21 H :    0.025222
  22 C :    0.042385
  23 H :    0.018417
  24 H :    0.036730
  25 C :   -0.017545
  26 H :    0.020587
  27 H :    0.006243
  28 C :   -0.037791
  29 H :    0.035821
  30 H :    0.029963
  31 H :    0.022598
  32 H :    0.019275
  33 H :    0.064922
Sum of atomic charges:    0.0000000

LOEWDIN ATOMIC CHARGES
----------------------
   0 S :    0.415699
   1 C :   -0.192692
   2 C :   -0.067270
   3 C :   -0.055717
   4 C :   -0.210667
   5 H :    0.026960
   6 C :   -0.042828
   7 H :    0.034509
   8 H :    0.039434
   9 C :   -0.047049
  10 H :    0.024060
  11 H :    0.026702
  12 C :   -0.069988
  13 H :    0.023527
  14 H :    0.031638
  15 H :    0.036969
  16 S :    0.401535
  17 C :   -0.191924
  18 C :   -0.082551
  19 C :   -0.053753
  20 C :   -0.190839
  21 H :    0.033573
  22 C :   -0.031349
  23 H :    0.028275
  24 H :    0.034226
  25 C :   -0.028075
  26 H :    0.022280
  27 H :    0.010569
  28 C :   -0.054979
  29 H :    0.031238
  30 H :    0.019915
  31 H :    0.018970
  32 H :    0.024079
  33 H :    0.035525

  Mayer bond orders larger than 0.100000
B(  0-S ,  1-C ) :   1.1229 B(  0-S ,  4-C ) :   1.1459 B(  1-C ,  2-C ) :   1.6602
B(  1-C , 32-H ) :   0.9599 B(  2-C ,  3-C ) :   1.2188 B(  2-C ,  6-C ) :   1.0234
B(  3-C ,  4-C ) :   1.5999 B(  3-C ,  5-H ) :   0.9929 B(  4-C , 20-C ) :   0.9894
B(  6-C ,  7-H ) :   0.9428 B(  6-C ,  8-H ) :   0.9313 B(  6-C ,  9-C ) :   1.0528
B(  9-C , 10-H ) :   0.9545 B(  9-C , 11-H ) :   0.9493 B(  9-C , 12-C ) :   1.0759
B( 12-C , 13-H ) :   0.9766 B( 12-C , 14-H ) :   0.9754 B( 12-C , 15-H ) :   0.9733
B( 16-S , 17-C ) :   1.1638 B( 16-S , 20-C ) :   1.1276 B( 17-C , 18-C ) :   1.6144
B( 17-C , 33-H ) :   0.9625 B( 18-C , 19-C ) :   1.2317 B( 18-C , 21-H ) :   0.9872
B( 19-C , 20-C ) :   1.6298 B( 19-C , 22-C ) :   1.0367 B( 22-C , 23-H ) :   0.9347
B( 22-C , 24-H ) :   0.9306 B( 22-C , 25-C ) :   1.0730 B( 25-C , 26-H ) :   0.9512
B( 25-C , 27-H ) :   0.9571 B( 25-C , 28-C ) :   1.0759 B( 28-C , 29-H ) :   0.9746
B( 28-C , 30-H ) :   0.9785 B( 28-C , 31-H ) :   0.9771

Dispersion correction           -0.013949823
FINAL SINGLE POINT ENERGY     -1339.870316697135

DIPOLE MOMENT
-------------
                                X             Y             Z
Electronic contribution:     19.69021      -0.80338       6.19041
Nuclear contribution   :    -20.35085       0.60065      -6.38152
                        -----------------------------------------
Total Dipole Moment    :     -0.66064      -0.20273      -0.19111
                        -----------------------------------------
Magnitude (a.u.)       :      0.71699
Magnitude (Debye)      :      1.82244

Rotational constants in cm-1:     0.019844     0.007514     0.006994
Rotational constants in MHz :   594.905495   225.249070   209.663706

                             ****ORCA TERMINATED NORMALLY****
TOTAL RUN TIME: 0 days 0 hours 0 minutes 21 seconds 139 msec
