                         Program Version 4.2.1 -  RELEASE  -
|  1> ! wB97X-D3 SP def2-SVP
|  2> %pal
|  3> nprocs 24
|  4> end
|  5>
|  6> * xyz 0 1
|  7> S 	 -91.436 	 -7.05591 	 -119.716
|  8> C 	 -92.6465 	 -7.6742 	 -120.786
|  9> C 	 -93.9111 	 -7.21918 	 -120.45
| 10> C 	 -93.8426 	 -6.20826 	 -119.472
| 11> C 	 -92.5591 	 -6.05712 	 -118.993
| 12> H 	 -94.5514 	 -5.53394 	 -119.039
| 13> C 	 -95.2118 	 -7.60773 	 -121.153
| 14> H 	 -95.3026 	 -8.71433 	 -121.347
| 15> H 	 -95.0829 	 -7.17902 	 -122.142
| 16> C 	 -96.54 	 -7.12563 	 -120.539
| 17> H 	 -96.5848 	 -6.01366 	 -120.489
| 18> H 	 -97.3224 	 -7.23607 	 -121.292
| 19> C 	 -97.0294 	 -7.8804 	 -119.249
| 20> H 	 -97.1793 	 -9.00528 	 -119.428
| 21> H 	 -96.5296 	 -7.57544 	 -118.3
| 22> H 	 -98.0221 	 -7.48365 	 -118.918
| 23> S 	 -92.6377 	 -3.60559 	 -117.905
| 24> C 	 -92.1158 	 -3.31497 	 -116.233
| 25> C 	 -91.4833 	 -4.44572 	 -115.674
| 26> C 	 -91.5376 	 -5.55794 	 -116.61
| 27> C 	 -92.114 	 -5.26217 	 -117.836
| 28> H 	 -91.1632 	 -4.42502 	 -114.644
| 29> C 	 -90.9999 	 -6.93225 	 -116.104
| 30> H 	 -91.3335 	 -7.8009 	 -116.77
| 31> H 	 -91.6025 	 -7.03063 	 -115.18
| 32> C 	 -89.4489 	 -6.95343 	 -115.812
| 33> H 	 -88.8647 	 -6.70727 	 -116.678
| 34> H 	 -89.3364 	 -7.99218 	 -115.535
| 35> C 	 -89.0285 	 -6.12343 	 -114.574
| 36> H 	 -89.0424 	 -5.02864 	 -114.77
| 37> H 	 -88.0585 	 -6.44909 	 -114.318
| 38> H 	 -89.689 	 -6.44409 	 -113.754
| 39> H 	 -92.4616 	 -8.45443 	 -121.495
| 40> H 	 -92.303 	 -2.42313 	 -115.744
| 41> *
| 42>
| 43>                          ****END OF INPUT****

CARTESIAN COORDINATES (ANGSTROEM)
---------------------------------
  S    -91.436000   -7.055910  -119.716000
  C    -92.646500   -7.674200  -120.786000
  C    -93.911100   -7.219180  -120.450000
  C    -93.842600   -6.208260  -119.472000
  C    -92.559100   -6.057120  -118.993000
  H    -94.551400   -5.533940  -119.039000
  C    -95.211800   -7.607730  -121.153000
  H    -95.302600   -8.714330  -121.347000
  H    -95.082900   -7.179020  -122.142000
  C    -96.540000   -7.125630  -120.539000
  H    -96.584800   -6.013660  -120.489000
  H    -97.322400   -7.236070  -121.292000
  C    -97.029400   -7.880400  -119.249000
  H    -97.179300   -9.005280  -119.428000
  H    -96.529600   -7.575440  -118.300000
  H    -98.022100   -7.483650  -118.918000
  S    -92.637700   -3.605590  -117.905000
  C    -92.115800   -3.314970  -116.233000
  C    -91.483300   -4.445720  -115.674000
  C    -91.537600   -5.557940  -116.610000
  C    -92.114000   -5.262170  -117.836000
  H    -91.163200   -4.425020  -114.644000
  C    -90.999900   -6.932250  -116.104000
  H    -91.333500   -7.800900  -116.770000
  H    -91.602500   -7.030630  -115.180000
  C    -89.448900   -6.953430  -115.812000
  H    -88.864700   -6.707270  -116.678000
  H    -89.336400   -7.992180  -115.535000
  C    -89.028500   -6.123430  -114.574000
  H    -89.042400   -5.028640  -114.770000
  H    -88.058500   -6.449090  -114.318000
  H    -89.689000   -6.444090  -113.754000
  H    -92.461600   -8.454430  -121.495000
  H    -92.303000   -2.423130  -115.744000

 Total Charge           Charge          ....    0
 Multiplicity           Mult            ....    1
 Number of Electrons    NEL             ....  134
 Basis Dimension        Dim             ....  322

ORBITAL ENERGIES
----------------

  NO   OCC          E(Eh)            E(eV)
   0   2.0000     -88.965331     -2420.8697
   1   2.0000     -88.961721     -2420.7715
   2   2.0000     -10.323179      -280.9080
   3   2.0000     -10.318875      -280.7909
   4   2.0000     -10.315746      -280.7057
   5   2.0000     -10.305776      -280.4344
   6   2.0000     -10.305242      -280.4199
   7   2.0000     -10.301406      -280.3155
   8   2.0000     -10.298936      -280.2483
   9   2.0000     -10.298294      -280.2308
  10   2.0000     -10.296784      -280.1897
  11   2.0000     -10.295439      -280.1531
  12   2.0000     -10.292073      -280.0616
  13   2.0000     -10.286932      -279.9217
  14   2.0000     -10.286558      -279.9115
  15   2.0000     -10.278305      -279.6869
  16   2.0000      -8.081638      -219.9126
  17   2.0000      -8.076281      -219.7668
  18   2.0000      -6.039716      -164.3490
  19   2.0000      -6.035904      -164.2453
  20   2.0000      -6.034775      -164.2146
  21   2.0000      -6.032784      -164.1604
  22   2.0000      -6.030786      -164.1060
  23   2.0000      -6.027116      -164.0062
  24   2.0000      -1.013700       -27.5842
  25   2.0000      -0.981020       -26.6949
  26   2.0000      -0.906314       -24.6620
  27   2.0000      -0.899537       -24.4776
  28   2.0000      -0.864953       -23.5366
  29   2.0000      -0.849203       -23.1080
  30   2.0000      -0.839751       -22.8508
  31   2.0000      -0.812496       -22.1091
  32   2.0000      -0.782887       -21.3034
  33   2.0000      -0.769661       -20.9435
  34   2.0000      -0.707828       -19.2610
  35   2.0000      -0.695027       -18.9126
  36   2.0000      -0.683738       -18.6054
  37   2.0000      -0.669934       -18.2298
  38   2.0000      -0.641886       -17.4666
  39   2.0000      -0.617060       -16.7911
  40   2.0000      -0.589845       -16.0505
  41   2.0000      -0.566797       -15.4233
  42   2.0000      -0.552353       -15.0303
  43   2.0000      -0.549398       -14.9499
  44   2.0000      -0.533652       -14.5214
  45   2.0000      -0.527457       -14.3528
  46   2.0000      -0.521547       -14.1920
  47   2.0000      -0.511772       -13.9260
  48   2.0000      -0.501328       -13.6418
  49   2.0000      -0.487428       -13.2636
  50   2.0000      -0.484147       -13.1743
  51   2.0000      -0.481145       -13.0926
  52   2.0000      -0.472298       -12.8519
  53   2.0000      -0.463262       -12.6060
  54   2.0000      -0.458334       -12.4719
  55   2.0000      -0.442995       -12.0545
  56   2.0000      -0.441210       -12.0059
  57   2.0000      -0.438116       -11.9217
  58   2.0000      -0.433961       -11.8087
  59   2.0000      -0.425009       -11.5651
  60   2.0000      -0.422000       -11.4832
  61   2.0000      -0.411826       -11.2063
  62   2.0000      -0.405816       -11.0428
  63   2.0000      -0.340532        -9.2664
  64   2.0000      -0.332562        -9.0495
  65   2.0000      -0.326623        -8.8879
  66   2.0000      -0.289924        -7.8892
  67   0.0000       0.037125         1.0102
  68   0.0000       0.075302         2.0491
  69   0.0000       0.110553         3.0083
  70   0.0000       0.123879         3.3709
  71   0.0000       0.135919         3.6985

MULLIKEN ATOMIC CHARGES
-----------------------
   0 S :    0.133552
   1 C :   -0.123515
   2 C :   -0.055861
   3 C :    0.035461
   4 C :   -0.170163
   5 H :    0.000001
   6 C :    0.046104
   7 H :    0.035484
   8 H :    0.041001
   9 C :   -0.078595
  10 H :    0.030548
  11 H :    0.023105
  12 C :   -0.077822
  13 H :    0.057150
  14 H :    0.044440
  15 H :    0.025327
  16 S :    0.088520
  17 C :   -0.073630
  18 C :   -0.041992
  19 C :   -0.033535
  20 C :   -0.156052
  21 H :    0.031466
  22 C :    0.000576
  23 H :    0.042659
  24 H :    0.034571
  25 C :   -0.051813
  26 H :    0.038624
  27 H :    0.029907
  28 C :   -0.052225
  29 H :    0.057997
  30 H :    0.024595
  31 H :    0.027006
  32 H :    0.034896
  33 H :    0.032212
Sum of atomic charges:   -0.0000000

LOEWDIN ATOMIC CHARGES
----------------------
   0 S :    0.463681
   1 C :   -0.211631
   2 C :   -0.056278
   3 C :   -0.069274
   4 C :   -0.221107
   5 H :    0.026421
   6 C :   -0.037469
   7 H :    0.036159
   8 H :    0.038110
   9 C :   -0.053037
  10 H :    0.028747
  11 H :    0.028137
  12 C :   -0.084846
  13 H :    0.038103
  14 H :    0.031493
  15 H :    0.030071
  16 S :    0.399493
  17 C :   -0.164755
  18 C :   -0.068621
  19 C :   -0.061769
  20 C :   -0.209169
  21 H :    0.034030
  22 C :   -0.041178
  23 H :    0.031364
  24 H :    0.032506
  25 C :   -0.031514
  26 H :    0.023313
  27 H :    0.025759
  28 C :   -0.064938
  29 H :    0.030442
  30 H :    0.020139
  31 H :    0.026342
  32 H :    0.020711
  33 H :    0.010564

  Mayer bond orders larger than 0.100000
B(  0-S ,  1-C ) :   1.1531 B(  0-S ,  4-C ) :   1.2016 B(  1-C ,  2-C ) :   1.5928
B(  1-C , 32-H ) :   0.9770 B(  2-C ,  3-C ) :   1.2533 B(  2-C ,  6-C ) :   0.9970
B(  3-C ,  4-C ) :   1.5543 B(  3-C ,  5-H ) :   0.9927 B(  4-C , 20-C ) :   0.9786
B(  6-C ,  7-H ) :   0.9427 B(  6-C ,  8-H ) :   0.9348 B(  6-C ,  9-C ) :   1.0990
B(  9-C , 10-H ) :   0.9439 B(  9-C , 11-H ) :   0.9501 B(  9-C , 12-C ) :   1.0692
B( 12-C , 13-H ) :   0.9726 B( 12-C , 14-H ) :   0.9741 B( 12-C , 15-H ) :   0.9698
B( 16-S , 17-C ) :   1.1558 B( 16-S , 20-C ) :   1.1352 B( 17-C , 18-C ) :   1.6051
B( 17-C , 33-H ) :   0.9766 B( 18-C , 19-C ) :   1.2239 B( 18-C , 21-H ) :   0.9842
B( 19-C , 20-C ) :   1.6298 B( 19-C , 22-C ) :   1.0147 B( 22-C , 23-H ) :   0.9452
B( 22-C , 24-H ) :   0.9412 B( 22-C , 25-C ) :   1.0562 B( 25-C , 26-H ) :   0.9578
B( 25-C , 27-H ) :   0.9567 B( 25-C , 28-C ) :   1.0828 B( 28-C , 29-H ) :   0.9676
B( 28-C , 30-H ) :   0.9700 B( 28-C , 31-H ) :   0.9727

Dispersion correction           -0.014362023
FINAL SINGLE POINT ENERGY     -1339.868689068819

DIPOLE MOMENT
-------------
                                X             Y             Z
Electronic contribution:      7.15494      10.84043      -8.12093
Nuclear contribution   :     -7.43095     -11.14937       8.35659
                        -----------------------------------------
Total Dipole Moment    :     -0.27601      -0.30894       0.23566
                        -----------------------------------------
Magnitude (a.u.)       :      0.47661
Magnitude (Debye)      :      1.21145

Rotational constants in cm-1:     0.022079     0.007808     0.006912
Rotational constants in MHz :   661.918186   234.080869   207.206664

                             ****ORCA TERMINATED NORMALLY****
TOTAL RUN TIME: 0 days 0 hours 0 minutes 21 seconds 349 msec
