                         Program Version 4.2.1 -  RELEASE  -
|  1> ! wB97X-D3 SP def2-SVP
|  2> %pal
|  3> nprocs 24
|  4> end
|  5>
|  6> * xyz 0 1
|  7> S 	 -85.7814 	 0.320193 	 -119.437
|  8> C 	 -85.6697 	 -1.46401 	 -119.471
|  9> C 	 -86.8765 	 -1.97258 	 -119.019
| 10> C 	 -87.9525 	 -1.04136 	 -118.868
| 11> C 	 -87.529 	 0.280799 	 -119.036
| 12> H 	 -88.9978 	 -1.27656 	 -118.68
| 13> C 	 -87.1411 	 -3.44584 	 -118.688
| 14> H 	 -87.2592 	 -3.83113 	 -119.761
| 15> H 	 -88.077 	 -3.65789 	 -118.275
| 16> C 	 -86.179 	 -4.213 	 -117.873
| 17> H 	 -86.5212 	 -5.29647 	 -117.808
| 18> H 	 -85.1691 	 -4.24823 	 -118.317
| 19> C 	 -85.9904 	 -3.64554 	 -116.456
| 20> H 	 -86.9643 	 -3.44898 	 -115.977
| 21> H 	 -85.3161 	 -4.1758 	 -115.79
| 22> H 	 -85.448 	 -2.68386 	 -116.66
| 23> S 	 -88.0689 	 2.67215 	 -120.345
| 24> C 	 -89.2557 	 3.72152 	 -119.547
| 25> C 	 -89.8567 	 3.10173 	 -118.425
| 26> C 	 -89.2964 	 1.78385 	 -118.218
| 27> C 	 -88.3252 	 1.46664 	 -119.086
| 28> H 	 -90.6941 	 3.68624 	 -118
| 29> C 	 -89.7767 	 0.924481 	 -117.184
| 30> H 	 -89.7662 	 1.45106 	 -116.312
| 31> H 	 -89.008 	 0.173735 	 -116.972
| 32> C 	 -91.164 	 0.34794 	 -117.42
| 33> H 	 -91.3168 	 -0.00596933 	 -118.461
| 34> H 	 -91.9309 	 1.02789 	 -117.1
| 35> C 	 -91.3438 	 -0.91238 	 -116.572
| 36> H 	 -91.3262 	 -0.760144 	 -115.528
| 37> H 	 -90.6064 	 -1.70778 	 -116.788
| 38> H 	 -92.2517 	 -1.46003 	 -116.803
| 39> H 	 -84.7635 	 -2.05932 	 -119.418
| 40> H 	 -89.4791 	 4.5862 	 -119.973
| 41> *
| 42>
| 43>                          ****END OF INPUT****

CARTESIAN COORDINATES (ANGSTROEM)
---------------------------------
  S    -85.781400    0.320193  -119.437000
  C    -85.669700   -1.464010  -119.471000
  C    -86.876500   -1.972580  -119.019000
  C    -87.952500   -1.041360  -118.868000
  C    -87.529000    0.280799  -119.036000
  H    -88.997800   -1.276560  -118.680000
  C    -87.141100   -3.445840  -118.688000
  H    -87.259200   -3.831130  -119.761000
  H    -88.077000   -3.657890  -118.275000
  C    -86.179000   -4.213000  -117.873000
  H    -86.521200   -5.296470  -117.808000
  H    -85.169100   -4.248230  -118.317000
  C    -85.990400   -3.645540  -116.456000
  H    -86.964300   -3.448980  -115.977000
  H    -85.316100   -4.175800  -115.790000
  H    -85.448000   -2.683860  -116.660000
  S    -88.068900    2.672150  -120.345000
  C    -89.255700    3.721520  -119.547000
  C    -89.856700    3.101730  -118.425000
  C    -89.296400    1.783850  -118.218000
  C    -88.325200    1.466640  -119.086000
  H    -90.694100    3.686240  -118.000000
  C    -89.776700    0.924481  -117.184000
  H    -89.766200    1.451060  -116.312000
  H    -89.008000    0.173735  -116.972000
  C    -91.164000    0.347940  -117.420000
  H    -91.316800   -0.005969  -118.461000
  H    -91.930900    1.027890  -117.100000
  C    -91.343800   -0.912380  -116.572000
  H    -91.326200   -0.760144  -115.528000
  H    -90.606400   -1.707780  -116.788000
  H    -92.251700   -1.460030  -116.803000
  H    -84.763500   -2.059320  -119.418000
  H    -89.479100    4.586200  -119.973000

 Total Charge           Charge          ....    0
 Multiplicity           Mult            ....    1
 Number of Electrons    NEL             ....  134
 Basis Dimension        Dim             ....  322

ORBITAL ENERGIES
----------------

  NO   OCC          E(Eh)            E(eV)
   0   2.0000     -88.965648     -2420.8784
   1   2.0000     -88.964861     -2420.8569
   2   2.0000     -10.333576      -281.1909
   3   2.0000     -10.319067      -280.7961
   4   2.0000     -10.315404      -280.6964
   5   2.0000     -10.314990      -280.6851
   6   2.0000     -10.305272      -280.4207
   7   2.0000     -10.303397      -280.3697
   8   2.0000     -10.296588      -280.1844
   9   2.0000     -10.296257      -280.1754
  10   2.0000     -10.290932      -280.0305
  11   2.0000     -10.290679      -280.0236
  12   2.0000     -10.289952      -280.0038
  13   2.0000     -10.280002      -279.7331
  14   2.0000     -10.276014      -279.6246
  15   2.0000     -10.274026      -279.5705
  16   2.0000      -8.079317      -219.8494
  17   2.0000      -8.078918      -219.8385
  18   2.0000      -6.037846      -164.2981
  19   2.0000      -6.037679      -164.2936
  20   2.0000      -6.033955      -164.1923
  21   2.0000      -6.033654      -164.1841
  22   2.0000      -6.029975      -164.0840
  23   2.0000      -6.029462      -164.0700
  24   2.0000      -1.007265       -27.4091
  25   2.0000      -0.978469       -26.6255
  26   2.0000      -0.922116       -25.0921
  27   2.0000      -0.915781       -24.9197
  28   2.0000      -0.871766       -23.7220
  29   2.0000      -0.857466       -23.3328
  30   2.0000      -0.842307       -22.9203
  31   2.0000      -0.812525       -22.1099
  32   2.0000      -0.786247       -21.3949
  33   2.0000      -0.776267       -21.1233
  34   2.0000      -0.711459       -19.3598
  35   2.0000      -0.710024       -19.3207
  36   2.0000      -0.695187       -18.9170
  37   2.0000      -0.670358       -18.2414
  38   2.0000      -0.636481       -17.3195
  39   2.0000      -0.612646       -16.6710
  40   2.0000      -0.600359       -16.3366
  41   2.0000      -0.580400       -15.7935
  42   2.0000      -0.576319       -15.6824
  43   2.0000      -0.556073       -15.1315
  44   2.0000      -0.542547       -14.7635
  45   2.0000      -0.536049       -14.5866
  46   2.0000      -0.519196       -14.1280
  47   2.0000      -0.515626       -14.0309
  48   2.0000      -0.509526       -13.8649
  49   2.0000      -0.496665       -13.5149
  50   2.0000      -0.484944       -13.1960
  51   2.0000      -0.477397       -12.9906
  52   2.0000      -0.475342       -12.9347
  53   2.0000      -0.464312       -12.6346
  54   2.0000      -0.456199       -12.4138
  55   2.0000      -0.447293       -12.1715
  56   2.0000      -0.442452       -12.0397
  57   2.0000      -0.438601       -11.9349
  58   2.0000      -0.433796       -11.8042
  59   2.0000      -0.427798       -11.6410
  60   2.0000      -0.423641       -11.5279
  61   2.0000      -0.417612       -11.3638
  62   2.0000      -0.405085       -11.0229
  63   2.0000      -0.351969        -9.5776
  64   2.0000      -0.331290        -9.0149
  65   2.0000      -0.324109        -8.8195
  66   2.0000      -0.288595        -7.8531
  67   0.0000       0.023162         0.6303
  68   0.0000       0.069571         1.8931
  69   0.0000       0.102182         2.7805
  70   0.0000       0.115396         3.1401
  71   0.0000       0.123045         3.3482

MULLIKEN ATOMIC CHARGES
-----------------------
   0 S :    0.093217
   1 C :   -0.112491
   2 C :   -0.109326
   3 C :    0.024174
   4 C :   -0.165187
   5 H :    0.010524
   6 C :    0.068770
   7 H :    0.054219
   8 H :    0.000551
   9 C :   -0.087136
  10 H :    0.037107
  11 H :    0.025017
  12 C :   -0.065502
  13 H :    0.034264
  14 H :    0.038923
  15 H :    0.039301
  16 S :    0.104732
  17 C :   -0.057287
  18 C :   -0.030002
  19 C :   -0.042478
  20 C :   -0.114814
  21 H :    0.037810
  22 C :    0.099141
  23 H :   -0.005483
  24 H :    0.021577
  25 C :   -0.044679
  26 H :    0.041820
  27 H :    0.033103
  28 C :   -0.057865
  29 H :    0.024024
  30 H :    0.019098
  31 H :    0.025060
  32 H :    0.056325
  33 H :    0.003491
Sum of atomic charges:   -0.0000000

LOEWDIN ATOMIC CHARGES
----------------------
   0 S :    0.374049
   1 C :   -0.204176
   2 C :   -0.055093
   3 C :   -0.068177
   4 C :   -0.162971
   5 H :    0.032307
   6 C :   -0.040238
   7 H :    0.050717
   8 H :    0.019538
   9 C :   -0.050236
  10 H :    0.030715
  11 H :    0.020458
  12 C :   -0.070163
  13 H :    0.024412
  14 H :    0.024686
  15 H :    0.032797
  16 S :    0.386523
  17 C :   -0.143450
  18 C :   -0.064218
  19 C :   -0.050789
  20 C :   -0.200763
  21 H :    0.041716
  22 C :   -0.036982
  23 H :    0.023065
  24 H :    0.034878
  25 C :   -0.028492
  26 H :    0.030294
  27 H :    0.026304
  28 C :   -0.066685
  29 H :    0.017485
  30 H :    0.022554
  31 H :    0.024717
  32 H :    0.031197
  33 H :   -0.005977

  Mayer bond orders larger than 0.100000
B(  0-S ,  1-C ) :   1.1041 B(  0-S ,  4-C ) :   1.1458 B(  1-C ,  2-C ) :   1.6251
B(  1-C ,  4-C ) :   0.1001 B(  1-C , 32-H ) :   0.9634 B(  2-C ,  3-C ) :   1.2277
B(  2-C ,  6-C ) :   0.9988 B(  3-C ,  4-C ) :   1.5506 B(  3-C ,  5-H ) :   0.9917
B(  4-C , 20-C ) :   1.0743 B(  6-C ,  7-H ) :   0.9309 B(  6-C ,  8-H ) :   0.9486
B(  6-C ,  9-C ) :   1.0822 B(  9-C , 10-H ) :   0.9500 B(  9-C , 11-H ) :   0.9546
B(  9-C , 12-C ) :   1.0684 B( 12-C , 13-H ) :   0.9759 B( 12-C , 14-H ) :   0.9755
B( 12-C , 15-H ) :   0.9714 B( 16-S , 17-C ) :   1.1525 B( 16-S , 20-C ) :   1.1042
B( 17-C , 18-C ) :   1.6155 B( 17-C , 33-H ) :   0.9863 B( 18-C , 19-C ) :   1.1789
B( 18-C , 21-H ) :   0.9930 B( 19-C , 20-C ) :   1.6307 B( 19-C , 22-C ) :   1.0817
B( 22-C , 23-H ) :   0.8937 B( 22-C , 24-H ) :   0.9263 B( 22-C , 25-C ) :   1.0498
B( 25-C , 26-H ) :   0.9602 B( 25-C , 27-H ) :   0.9476 B( 25-C , 28-C ) :   1.0906
B( 28-C , 29-H ) :   0.9724 B( 28-C , 30-H ) :   0.9730 B( 28-C , 31-H ) :   0.9721

Dispersion correction           -0.015076977
FINAL SINGLE POINT ENERGY     -1339.853997223367

DIPOLE MOMENT
-------------
                                X             Y             Z
Electronic contribution:     10.08022      22.72434     -17.34066
Nuclear contribution   :    -10.66113     -23.06122      17.79751
                        -----------------------------------------
Total Dipole Moment    :     -0.58091      -0.33688       0.45685
                        -----------------------------------------
Magnitude (a.u.)       :      0.81219
Magnitude (Debye)      :      2.06444

Rotational constants in cm-1:     0.019441     0.009573     0.006872
Rotational constants in MHz :   582.812778   287.001433   206.018197

                             ****ORCA TERMINATED NORMALLY****
TOTAL RUN TIME: 0 days 0 hours 0 minutes 22 seconds 644 msec
