                         Program Version 4.2.1 -  RELEASE  -
|  1> ! wB97X-D3 SP def2-SVP
|  2> %pal
|  3> nprocs 24
|  4> end
|  5>
|  6> * xyz 0 1
|  7> S 	 -112.621 	 48.378 	 -120.066
|  8> C 	 -112.554 	 46.6772 	 -120.334
|  9> C 	 -111.916 	 46.0505 	 -119.281
| 10> C 	 -111.391 	 46.9646 	 -118.307
| 11> C 	 -111.759 	 48.2802 	 -118.519
| 12> H 	 -110.812 	 46.6927 	 -117.453
| 13> C 	 -111.476 	 44.5832 	 -119.318
| 14> H 	 -111.761 	 44.0961 	 -120.274
| 15> H 	 -112.026 	 43.925 	 -118.638
| 16> C 	 -109.988 	 44.3398 	 -119.22
| 17> H 	 -109.447 	 44.5834 	 -118.23
| 18> H 	 -109.951 	 43.2559 	 -119.309
| 19> C 	 -109.207 	 44.989 	 -120.295
| 20> H 	 -109.362 	 46.0683 	 -120.259
| 21> H 	 -108.143 	 44.8604 	 -120.113
| 22> H 	 -109.465 	 44.6501 	 -121.292
| 23> S 	 -111.238 	 51.0114 	 -118.383
| 24> C 	 -110.929 	 51.7144 	 -116.799
| 25> C 	 -110.953 	 50.8131 	 -115.791
| 26> C 	 -111.165 	 49.4685 	 -116.229
| 27> C 	 -111.482 	 49.3791 	 -117.61
| 28> H 	 -110.853 	 51.2181 	 -114.751
| 29> C 	 -111.125 	 48.3502 	 -115.21
| 30> H 	 -110.628 	 48.675 	 -114.292
| 31> H 	 -110.536 	 47.5313 	 -115.562
| 32> C 	 -112.552 	 47.7299 	 -114.928
| 33> H 	 -112.406 	 46.8103 	 -114.39
| 34> H 	 -113.048 	 47.3786 	 -115.808
| 35> C 	 -113.391 	 48.768 	 -114.222
| 36> H 	 -113.769 	 49.5339 	 -114.947
| 37> H 	 -112.855 	 49.2478 	 -113.394
| 38> H 	 -114.196 	 48.2686 	 -113.808
| 39> H 	 -112.953 	 46.2754 	 -121.267
| 40> H 	 -110.736 	 52.7596 	 -116.622
| 41> *
| 42>
| 43>                          ****END OF INPUT****

CARTESIAN COORDINATES (ANGSTROEM)
---------------------------------
  S    -112.621000   48.378000  -120.066000
  C    -112.554000   46.677200  -120.334000
  C    -111.916000   46.050500  -119.281000
  C    -111.391000   46.964600  -118.307000
  C    -111.759000   48.280200  -118.519000
  H    -110.812000   46.692700  -117.453000
  C    -111.476000   44.583200  -119.318000
  H    -111.761000   44.096100  -120.274000
  H    -112.026000   43.925000  -118.638000
  C    -109.988000   44.339800  -119.220000
  H    -109.447000   44.583400  -118.230000
  H    -109.951000   43.255900  -119.309000
  C    -109.207000   44.989000  -120.295000
  H    -109.362000   46.068300  -120.259000
  H    -108.143000   44.860400  -120.113000
  H    -109.465000   44.650100  -121.292000
  S    -111.238000   51.011400  -118.383000
  C    -110.929000   51.714400  -116.799000
  C    -110.953000   50.813100  -115.791000
  C    -111.165000   49.468500  -116.229000
  C    -111.482000   49.379100  -117.610000
  H    -110.853000   51.218100  -114.751000
  C    -111.125000   48.350200  -115.210000
  H    -110.628000   48.675000  -114.292000
  H    -110.536000   47.531300  -115.562000
  C    -112.552000   47.729900  -114.928000
  H    -112.406000   46.810300  -114.390000
  H    -113.048000   47.378600  -115.808000
  C    -113.391000   48.768000  -114.222000
  H    -113.769000   49.533900  -114.947000
  H    -112.855000   49.247800  -113.394000
  H    -114.196000   48.268600  -113.808000
  H    -112.953000   46.275400  -121.267000
  H    -110.736000   52.759600  -116.622000

 Total Charge           Charge          ....    0
 Multiplicity           Mult            ....    1
 Number of Electrons    NEL             ....  134
 Basis Dimension        Dim             ....  322

ORBITAL ENERGIES
----------------

  NO   OCC          E(Eh)            E(eV)
   0   2.0000     -88.965742     -2420.8809
   1   2.0000     -88.965010     -2420.8610
   2   2.0000     -10.337225      -281.2902
   3   2.0000     -10.333437      -281.1871
   4   2.0000     -10.316565      -280.7280
   5   2.0000     -10.315458      -280.6979
   6   2.0000     -10.311842      -280.5995
   7   2.0000     -10.303157      -280.3632
   8   2.0000     -10.295350      -280.1507
   9   2.0000     -10.293425      -280.0983
  10   2.0000     -10.292754      -280.0801
  11   2.0000     -10.292659      -280.0775
  12   2.0000     -10.286734      -279.9163
  13   2.0000     -10.281151      -279.7643
  14   2.0000     -10.269023      -279.4343
  15   2.0000     -10.267900      -279.4038
  16   2.0000      -8.080673      -219.8863
  17   2.0000      -8.078723      -219.8332
  18   2.0000      -6.039254      -164.3365
  19   2.0000      -6.037362      -164.2850
  20   2.0000      -6.035074      -164.2227
  21   2.0000      -6.033493      -164.1797
  22   2.0000      -6.031414      -164.1231
  23   2.0000      -6.029305      -164.0657
  24   2.0000      -1.003391       -27.3037
  25   2.0000      -0.981352       -26.7040
  26   2.0000      -0.916640       -24.9430
  27   2.0000      -0.908034       -24.7089
  28   2.0000      -0.872959       -23.7544
  29   2.0000      -0.850047       -23.1310
  30   2.0000      -0.842740       -22.9321
  31   2.0000      -0.815363       -22.1872
  32   2.0000      -0.784727       -21.3535
  33   2.0000      -0.773417       -21.0457
  34   2.0000      -0.713280       -19.4093
  35   2.0000      -0.694334       -18.8938
  36   2.0000      -0.687347       -18.7037
  37   2.0000      -0.658211       -17.9108
  38   2.0000      -0.640390       -17.4259
  39   2.0000      -0.626339       -17.0436
  40   2.0000      -0.594778       -16.1847
  41   2.0000      -0.567208       -15.4345
  42   2.0000      -0.556314       -15.1381
  43   2.0000      -0.552283       -15.0284
  44   2.0000      -0.545716       -14.8497
  45   2.0000      -0.537403       -14.6235
  46   2.0000      -0.520548       -14.1648
  47   2.0000      -0.509330       -13.8596
  48   2.0000      -0.503879       -13.7112
  49   2.0000      -0.492729       -13.4078
  50   2.0000      -0.491478       -13.3738
  51   2.0000      -0.481000       -13.0887
  52   2.0000      -0.473882       -12.8950
  53   2.0000      -0.467518       -12.7218
  54   2.0000      -0.455321       -12.3899
  55   2.0000      -0.445749       -12.1294
  56   2.0000      -0.440279       -11.9806
  57   2.0000      -0.438894       -11.9429
  58   2.0000      -0.429283       -11.6814
  59   2.0000      -0.424093       -11.5402
  60   2.0000      -0.417753       -11.3676
  61   2.0000      -0.415351       -11.3023
  62   2.0000      -0.406976       -11.0744
  63   2.0000      -0.360905        -9.8207
  64   2.0000      -0.333271        -9.0688
  65   2.0000      -0.328141        -8.9292
  66   2.0000      -0.282744        -7.6939
  67   0.0000       0.017035         0.4635
  68   0.0000       0.079838         2.1725
  69   0.0000       0.102869         2.7992
  70   0.0000       0.122902         3.3443
  71   0.0000       0.133258         3.6261

MULLIKEN ATOMIC CHARGES
-----------------------
   0 S :    0.103760
   1 C :   -0.134629
   2 C :   -0.058031
   3 C :    0.002130
   4 C :   -0.098583
   5 H :   -0.009930
   6 C :    0.059889
   7 H :    0.010812
   8 H :    0.031192
   9 C :   -0.105681
  10 H :    0.037356
  11 H :    0.024148
  12 C :   -0.027725
  13 H :    0.040417
  14 H :    0.030490
  15 H :    0.020979
  16 S :    0.081134
  17 C :   -0.079888
  18 C :   -0.049866
  19 C :   -0.039720
  20 C :   -0.137643
  21 H :    0.038275
  22 C :    0.048767
  23 H :    0.024156
  24 H :    0.019710
  25 C :   -0.064522
  26 H :    0.017767
  27 H :    0.034471
  28 C :   -0.025072
  29 H :    0.057447
  30 H :    0.021279
  31 H :    0.013760
  32 H :    0.061585
  33 H :    0.051769
Sum of atomic charges:   -0.0000000

LOEWDIN ATOMIC CHARGES
----------------------
   0 S :    0.403174
   1 C :   -0.200472
   2 C :   -0.068031
   3 C :   -0.062471
   4 C :   -0.186417
   5 H :    0.025225
   6 C :   -0.036462
   7 H :    0.031937
   8 H :    0.030453
   9 C :   -0.052237
  10 H :    0.028910
  11 H :    0.025098
  12 C :   -0.065034
  13 H :    0.029488
  14 H :    0.027385
  15 H :    0.021091
  16 S :    0.366362
  17 C :   -0.173939
  18 C :   -0.081763
  19 C :   -0.046814
  20 C :   -0.171178
  21 H :    0.044101
  22 C :   -0.028556
  23 H :    0.030780
  24 H :    0.021723
  25 C :   -0.031836
  26 H :    0.019298
  27 H :    0.024532
  28 C :   -0.061370
  29 H :    0.037705
  30 H :    0.022655
  31 H :    0.015263
  32 H :    0.032719
  33 H :    0.028679

  Mayer bond orders larger than 0.100000
B(  0-S ,  1-C ) :   1.1465 B(  0-S ,  4-C ) :   1.1420 B(  1-C ,  2-C ) :   1.5815
B(  1-C , 32-H ) :   0.9713 B(  2-C ,  3-C ) :   1.2473 B(  2-C ,  6-C ) :   1.0248
B(  3-C ,  4-C ) :   1.5487 B(  3-C ,  5-H ) :   1.0011 B(  4-C , 20-C ) :   1.0970
B(  6-C ,  7-H ) :   0.9449 B(  6-C ,  8-H ) :   0.9343 B(  6-C ,  9-C ) :   1.0738
B(  9-C , 10-H ) :   0.9497 B(  9-C , 11-H ) :   0.9504 B(  9-C , 12-C ) :   1.0881
B( 12-C , 13-H ) :   0.9693 B( 12-C , 14-H ) :   0.9708 B( 12-C , 15-H ) :   0.9721
B( 16-S , 17-C ) :   1.1427 B( 16-S , 20-C ) :   1.1144 B( 17-C , 18-C ) :   1.6512
B( 17-C , 33-H ) :   0.9622 B( 18-C , 19-C ) :   1.2205 B( 18-C , 21-H ) :   0.9812
B( 19-C , 20-C ) :   1.5818 B( 19-C , 22-C ) :   1.0430 B( 22-C , 23-H ) :   0.9396
B( 22-C , 24-H ) :   0.9333 B( 22-C , 25-C ) :   1.0720 B( 25-C , 26-H ) :   0.9572
B( 25-C , 27-H ) :   0.9530 B( 25-C , 28-C ) :   1.0739 B( 28-C , 29-H ) :   0.9728
B( 28-C , 30-H ) :   0.9767 B( 28-C , 31-H ) :   0.9707

Dispersion correction           -0.015368259
FINAL SINGLE POINT ENERGY     -1339.883459093555

DIPOLE MOMENT
-------------
                                X             Y             Z
Electronic contribution:     -4.34479      19.59383     -11.92262
Nuclear contribution   :      4.50592     -20.07437      12.38522
                        -----------------------------------------
Total Dipole Moment    :      0.16113      -0.48054       0.46260
                        -----------------------------------------
Magnitude (a.u.)       :      0.68621
Magnitude (Debye)      :      1.74420

Rotational constants in cm-1:     0.019569     0.009099     0.007616
Rotational constants in MHz :   586.673168   272.795993   228.327358

                             ****ORCA TERMINATED NORMALLY****
TOTAL RUN TIME: 0 days 0 hours 0 minutes 22 seconds 548 msec
