                         Program Version 4.2.1 -  RELEASE  -
|  1> ! wB97X-D3 SP def2-SVP
|  2> %pal
|  3> nprocs 24
|  4> end
|  5>
|  6> * xyz 0 1
|  7> S 	 -133.025 	 30.2652 	 -14.0579
|  8> C 	 -131.762 	 29.6961 	 -15.1439
|  9> C 	 -132.241 	 28.7889 	 -16.0002
| 10> C 	 -133.615 	 28.5842 	 -15.9818
| 11> C 	 -134.207 	 29.3778 	 -15.0461
| 12> H 	 -134.223 	 28.0462 	 -16.6408
| 13> C 	 -131.387 	 27.8872 	 -16.9563
| 14> H 	 -132.061 	 27.0526 	 -16.9702
| 15> H 	 -130.525 	 27.5474 	 -16.4639
| 16> C 	 -131.1 	 28.4625 	 -18.2891
| 17> H 	 -132.031 	 28.7356 	 -18.7254
| 18> H 	 -130.583 	 29.483 	 -18.1833
| 19> C 	 -130.244 	 27.5196 	 -19.1477
| 20> H 	 -130.356 	 27.7773 	 -20.2515
| 21> H 	 -129.193 	 27.6312 	 -18.813
| 22> H 	 -130.666 	 26.5542 	 -19.0493
| 23> S 	 -136.234 	 31.2099 	 -14.7422
| 24> C 	 -137.978 	 30.7569 	 -14.8347
| 25> C 	 -138.069 	 29.3808 	 -14.6408
| 26> C 	 -136.798 	 28.6887 	 -14.643
| 27> C 	 -135.68 	 29.5131 	 -14.874
| 28> H 	 -139.078 	 29.0584 	 -14.6021
| 29> C 	 -136.721 	 27.178 	 -14.6557
| 30> H 	 -136.486 	 26.7552 	 -15.6134
| 31> H 	 -137.676 	 26.8399 	 -14.466
| 32> C 	 -135.763 	 26.5968 	 -13.5681
| 33> H 	 -136.083 	 26.9315 	 -12.5602
| 34> H 	 -134.806 	 27.0324 	 -13.7961
| 35> C 	 -135.66 	 25.0658 	 -13.5846
| 36> H 	 -135.044 	 24.6906 	 -12.8192
| 37> H 	 -135.313 	 24.5972 	 -14.4793
| 38> H 	 -136.618 	 24.6262 	 -13.3396
| 39> H 	 -130.717 	 30.0371 	 -15.2006
| 40> H 	 -138.858 	 31.4091 	 -14.9042
| 41> *
| 42>
| 43>                          ****END OF INPUT****

CARTESIAN COORDINATES (ANGSTROEM)
---------------------------------
  S    -133.025000   30.265200  -14.057900
  C    -131.762000   29.696100  -15.143900
  C    -132.241000   28.788900  -16.000200
  C    -133.615000   28.584200  -15.981800
  C    -134.207000   29.377800  -15.046100
  H    -134.223000   28.046200  -16.640800
  C    -131.387000   27.887200  -16.956300
  H    -132.061000   27.052600  -16.970200
  H    -130.525000   27.547400  -16.463900
  C    -131.100000   28.462500  -18.289100
  H    -132.031000   28.735600  -18.725400
  H    -130.583000   29.483000  -18.183300
  C    -130.244000   27.519600  -19.147700
  H    -130.356000   27.777300  -20.251500
  H    -129.193000   27.631200  -18.813000
  H    -130.666000   26.554200  -19.049300
  S    -136.234000   31.209900  -14.742200
  C    -137.978000   30.756900  -14.834700
  C    -138.069000   29.380800  -14.640800
  C    -136.798000   28.688700  -14.643000
  C    -135.680000   29.513100  -14.874000
  H    -139.078000   29.058400  -14.602100
  C    -136.721000   27.178000  -14.655700
  H    -136.486000   26.755200  -15.613400
  H    -137.676000   26.839900  -14.466000
  C    -135.763000   26.596800  -13.568100
  H    -136.083000   26.931500  -12.560200
  H    -134.806000   27.032400  -13.796100
  C    -135.660000   25.065800  -13.584600
  H    -135.044000   24.690600  -12.819200
  H    -135.313000   24.597200  -14.479300
  H    -136.618000   24.626200  -13.339600
  H    -130.717000   30.037100  -15.200600
  H    -138.858000   31.409100  -14.904200

 Total Charge           Charge          ....    0
 Multiplicity           Mult            ....    1
 Number of Electrons    NEL             ....  134
 Basis Dimension        Dim             ....  322

ORBITAL ENERGIES
----------------

  NO   OCC          E(Eh)            E(eV)
   0   2.0000     -88.969909     -2420.9943
   1   2.0000     -88.960515     -2420.7387
   2   2.0000     -10.335036      -281.2306
   3   2.0000     -10.334863      -281.2259
   4   2.0000     -10.324445      -280.9424
   5   2.0000     -10.311827      -280.5991
   6   2.0000     -10.311120      -280.5799
   7   2.0000     -10.297415      -280.2069
   8   2.0000     -10.293277      -280.0943
   9   2.0000     -10.287104      -279.9263
  10   2.0000     -10.284791      -279.8634
  11   2.0000     -10.283604      -279.8311
  12   2.0000     -10.283543      -279.8294
  13   2.0000     -10.282935      -279.8129
  14   2.0000     -10.282082      -279.7897
  15   2.0000     -10.267955      -279.4053
  16   2.0000      -8.083953      -219.9755
  17   2.0000      -8.073995      -219.7046
  18   2.0000      -6.042645      -164.4287
  19   2.0000      -6.038672      -164.3206
  20   2.0000      -6.034431      -164.2052
  21   2.0000      -6.032711      -164.1584
  22   2.0000      -6.028644      -164.0477
  23   2.0000      -6.024613      -163.9381
  24   2.0000      -1.007229       -27.4081
  25   2.0000      -0.978850       -26.6359
  26   2.0000      -0.916232       -24.9319
  27   2.0000      -0.903157       -24.5762
  28   2.0000      -0.869214       -23.6525
  29   2.0000      -0.854551       -23.2535
  30   2.0000      -0.843005       -22.9393
  31   2.0000      -0.818584       -22.2748
  32   2.0000      -0.781030       -21.2529
  33   2.0000      -0.772106       -21.0101
  34   2.0000      -0.711711       -19.3666
  35   2.0000      -0.701283       -19.0829
  36   2.0000      -0.693432       -18.8692
  37   2.0000      -0.660977       -17.9861
  38   2.0000      -0.643774       -17.5180
  39   2.0000      -0.625933       -17.0325
  40   2.0000      -0.589196       -16.0328
  41   2.0000      -0.570090       -15.5129
  42   2.0000      -0.568611       -15.4727
  43   2.0000      -0.561415       -15.2769
  44   2.0000      -0.527062       -14.3421
  45   2.0000      -0.518501       -14.1091
  46   2.0000      -0.517491       -14.0816
  47   2.0000      -0.511975       -13.9316
  48   2.0000      -0.509691       -13.8694
  49   2.0000      -0.499913       -13.6033
  50   2.0000      -0.495121       -13.4729
  51   2.0000      -0.485972       -13.2240
  52   2.0000      -0.477884       -13.0039
  53   2.0000      -0.463352       -12.6085
  54   2.0000      -0.461357       -12.5542
  55   2.0000      -0.447965       -12.1897
  56   2.0000      -0.441774       -12.0213
  57   2.0000      -0.438042       -11.9197
  58   2.0000      -0.432587       -11.7713
  59   2.0000      -0.423917       -11.5354
  60   2.0000      -0.417542       -11.3619
  61   2.0000      -0.410957       -11.1827
  62   2.0000      -0.406272       -11.0552
  63   2.0000      -0.347121        -9.4456
  64   2.0000      -0.336293        -9.1510
  65   2.0000      -0.325242        -8.8503
  66   2.0000      -0.294728        -8.0199
  67   0.0000       0.024302         0.6613
  68   0.0000       0.062708         1.7064
  69   0.0000       0.103559         2.8180
  70   0.0000       0.120838         3.2882
  71   0.0000       0.130292         3.5454

MULLIKEN ATOMIC CHARGES
-----------------------
   0 S :    0.119334
   1 C :   -0.136019
   2 C :   -0.076717
   3 C :    0.034222
   4 C :   -0.133463
   5 H :   -0.003162
   6 C :    0.096832
   7 H :    0.008326
   8 H :    0.007202
   9 C :   -0.070228
  10 H :    0.010804
  11 H :    0.030230
  12 C :   -0.034399
  13 H :    0.044026
  14 H :    0.049647
  15 H :    0.024089
  16 S :    0.072366
  17 C :   -0.105953
  18 C :   -0.031924
  19 C :   -0.019217
  20 C :   -0.159523
  21 H :    0.012608
  22 C :    0.110405
  23 H :    0.025378
  24 H :   -0.018648
  25 C :   -0.096480
  26 H :    0.033127
  27 H :    0.039138
  28 C :   -0.003574
  29 H :    0.018064
  30 H :    0.019699
  31 H :    0.013408
  32 H :    0.052430
  33 H :    0.067973
Sum of atomic charges:    0.0000000

LOEWDIN ATOMIC CHARGES
----------------------
   0 S :    0.389087
   1 C :   -0.195791
   2 C :   -0.063204
   3 C :   -0.060173
   4 C :   -0.175444
   5 H :    0.027563
   6 C :   -0.021820
   7 H :    0.026627
   8 H :    0.019498
   9 C :   -0.047463
  10 H :    0.017379
  11 H :    0.029534
  12 C :   -0.064543
  13 H :    0.035659
  14 H :    0.032714
  15 H :    0.018523
  16 S :    0.363648
  17 C :   -0.169642
  18 C :   -0.071071
  19 C :   -0.053525
  20 C :   -0.177085
  21 H :    0.029053
  22 C :   -0.026069
  23 H :    0.027510
  24 H :    0.015238
  25 C :   -0.031992
  26 H :    0.028866
  27 H :    0.020119
  28 C :   -0.063053
  29 H :    0.022140
  30 H :    0.020071
  31 H :    0.022613
  32 H :    0.037706
  33 H :    0.037326

  Mayer bond orders larger than 0.100000
B(  0-S ,  1-C ) :   1.1081 B(  0-S ,  4-C ) :   1.1427 B(  1-C ,  2-C ) :   1.6660
B(  1-C , 32-H ) :   0.9620 B(  2-C ,  3-C ) :   1.2223 B(  2-C ,  6-C ) :   0.9840
B(  3-C ,  4-C ) :   1.5899 B(  3-C ,  5-H ) :   1.0067 B(  4-C , 20-C ) :   1.0410
B(  6-C ,  7-H ) :   0.9368 B(  6-C ,  8-H ) :   0.9429 B(  6-C ,  9-C ) :   1.0725
B(  9-C , 10-H ) :   0.9496 B(  9-C , 11-H ) :   0.9557 B(  9-C , 12-C ) :   1.0716
B( 12-C , 13-H ) :   0.9751 B( 12-C , 14-H ) :   0.9758 B( 12-C , 15-H ) :   0.9740
B( 16-S , 17-C ) :   1.1406 B( 16-S , 20-C ) :   1.1223 B( 17-C , 18-C ) :   1.6338
B( 17-C , 20-C ) :   0.1064 B( 17-C , 33-H ) :   0.9642 B( 18-C , 19-C ) :   1.2088
B( 18-C , 21-H ) :   0.9972 B( 19-C , 20-C ) :   1.5803 B( 19-C , 22-C ) :   1.0468
B( 22-C , 23-H ) :   0.9411 B( 22-C , 24-H ) :   0.9225 B( 22-C , 25-C ) :   1.0506
B( 25-C , 26-H ) :   0.9558 B( 25-C , 27-H ) :   0.9593 B( 25-C , 28-C ) :   1.0907
B( 28-C , 29-H ) :   0.9712 B( 28-C , 30-H ) :   0.9733 B( 28-C , 31-H ) :   0.9712

Dispersion correction           -0.014076580
FINAL SINGLE POINT ENERGY     -1339.853941872892

DIPOLE MOMENT
-------------
                                X             Y             Z
Electronic contribution:     -8.50289      23.81575      11.01765
Nuclear contribution   :      8.43161     -24.39529     -11.36549
                        -----------------------------------------
Total Dipole Moment    :     -0.07128      -0.57954      -0.34783
                        -----------------------------------------
Magnitude (a.u.)       :      0.67966
Magnitude (Debye)      :      1.72756

Rotational constants in cm-1:     0.017942     0.008197     0.006830
Rotational constants in MHz :   537.901796   245.741569   204.743567

                             ****ORCA TERMINATED NORMALLY****
TOTAL RUN TIME: 0 days 0 hours 0 minutes 21 seconds 508 msec
