                         Program Version 4.2.1 -  RELEASE  -
|  1> ! wB97X-D3 SP def2-SVP
|  2> %pal
|  3> nprocs 24
|  4> end
|  5>
|  6> * xyz 0 1
|  7> S 	 -68.7409 	 19.0134 	 -113.248
|  8> C 	 -68.685 	 20.108 	 -111.897
|  9> C 	 -67.4414 	 20.7543 	 -111.839
| 10> C 	 -66.6168 	 20.5684 	 -112.958
| 11> C 	 -67.1453 	 19.5576 	 -113.723
| 12> H 	 -65.6454 	 21.0585 	 -113.155
| 13> C 	 -67.0031 	 21.8699 	 -110.87
| 14> H 	 -65.8347 	 21.9951 	 -110.936
| 15> H 	 -67.0941 	 21.4035 	 -109.872
| 16> C 	 -67.7411 	 23.2057 	 -110.994
| 17> H 	 -67.5139 	 23.5349 	 -112.038
| 18> H 	 -68.8155 	 23.1242 	 -110.899
| 19> C 	 -67.0678 	 24.2069 	 -109.935
| 20> H 	 -66.0465 	 24.3824 	 -110.254
| 21> H 	 -67.8162 	 25.1244 	 -110.057
| 22> H 	 -67.2397 	 23.8883 	 -108.87
| 23> S 	 -67.0078 	 20.2454 	 -116.284
| 24> C 	 -66.0294 	 19.3791 	 -117.375
| 25> C 	 -65.3468 	 18.3633 	 -116.726
| 26> C 	 -65.76 	 18.2216 	 -115.363
| 27> C 	 -66.6437 	 19.1789 	 -115
| 28> H 	 -64.4598 	 17.8182 	 -117.122
| 29> C 	 -65.06 	 17.366 	 -114.32
| 30> H 	 -65.299 	 17.5957 	 -113.315
| 31> H 	 -63.9781 	 17.6987 	 -114.433
| 32> C 	 -65.2637 	 15.8681 	 -114.433
| 33> H 	 -65.0338 	 15.5597 	 -115.477
| 34> H 	 -66.3092 	 15.5161 	 -114.338
| 35> C 	 -64.4512 	 15.0446 	 -113.423
| 36> H 	 -63.3925 	 15.2956 	 -113.424
| 37> H 	 -64.466 	 13.979 	 -113.66
| 38> H 	 -64.9751 	 15.1618 	 -112.508
| 39> H 	 -69.4072 	 20.2305 	 -111.102
| 40> H 	 -65.899 	 19.5487 	 -118.386
| 41> *
| 42>
| 43>                          ****END OF INPUT****

CARTESIAN COORDINATES (ANGSTROEM)
---------------------------------
  S    -68.740900   19.013400  -113.248000
  C    -68.685000   20.108000  -111.897000
  C    -67.441400   20.754300  -111.839000
  C    -66.616800   20.568400  -112.958000
  C    -67.145300   19.557600  -113.723000
  H    -65.645400   21.058500  -113.155000
  C    -67.003100   21.869900  -110.870000
  H    -65.834700   21.995100  -110.936000
  H    -67.094100   21.403500  -109.872000
  C    -67.741100   23.205700  -110.994000
  H    -67.513900   23.534900  -112.038000
  H    -68.815500   23.124200  -110.899000
  C    -67.067800   24.206900  -109.935000
  H    -66.046500   24.382400  -110.254000
  H    -67.816200   25.124400  -110.057000
  H    -67.239700   23.888300  -108.870000
  S    -67.007800   20.245400  -116.284000
  C    -66.029400   19.379100  -117.375000
  C    -65.346800   18.363300  -116.726000
  C    -65.760000   18.221600  -115.363000
  C    -66.643700   19.178900  -115.000000
  H    -64.459800   17.818200  -117.122000
  C    -65.060000   17.366000  -114.320000
  H    -65.299000   17.595700  -113.315000
  H    -63.978100   17.698700  -114.433000
  C    -65.263700   15.868100  -114.433000
  H    -65.033800   15.559700  -115.477000
  H    -66.309200   15.516100  -114.338000
  C    -64.451200   15.044600  -113.423000
  H    -63.392500   15.295600  -113.424000
  H    -64.466000   13.979000  -113.660000
  H    -64.975100   15.161800  -112.508000
  H    -69.407200   20.230500  -111.102000
  H    -65.899000   19.548700  -118.386000

 Total Charge           Charge          ....    0
 Multiplicity           Mult            ....    1
 Number of Electrons    NEL             ....  134
 Basis Dimension        Dim             ....  322

ORBITAL ENERGIES
----------------

  NO   OCC          E(Eh)            E(eV)
   0   2.0000     -88.970322     -2421.0055
   1   2.0000     -88.960659     -2420.7426
   2   2.0000     -10.320825      -280.8439
   3   2.0000     -10.313709      -280.6503
   4   2.0000     -10.308030      -280.4958
   5   2.0000     -10.307899      -280.4922
   6   2.0000     -10.297897      -280.2200
   7   2.0000     -10.297277      -280.2031
   8   2.0000     -10.297005      -280.1957
   9   2.0000     -10.294507      -280.1278
  10   2.0000     -10.293565      -280.1021
  11   2.0000     -10.293208      -280.0924
  12   2.0000     -10.292465      -280.0722
  13   2.0000     -10.288544      -279.9655
  14   2.0000     -10.283281      -279.8223
  15   2.0000     -10.272120      -279.5186
  16   2.0000      -8.084849      -219.9999
  17   2.0000      -8.077237      -219.7928
  18   2.0000      -6.043224      -164.4445
  19   2.0000      -6.039378      -164.3398
  20   2.0000      -6.035779      -164.2419
  21   2.0000      -6.035665      -164.2388
  22   2.0000      -6.031368      -164.1219
  23   2.0000      -6.028083      -164.0325
  24   2.0000      -1.016705       -27.6659
  25   2.0000      -0.988598       -26.9011
  26   2.0000      -0.908180       -24.7128
  27   2.0000      -0.903819       -24.5942
  28   2.0000      -0.870450       -23.6861
  29   2.0000      -0.851579       -23.1726
  30   2.0000      -0.850526       -23.1440
  31   2.0000      -0.807427       -21.9712
  32   2.0000      -0.778814       -21.1926
  33   2.0000      -0.763421       -20.7737
  34   2.0000      -0.702594       -19.1185
  35   2.0000      -0.697522       -18.9805
  36   2.0000      -0.694204       -18.8903
  37   2.0000      -0.661936       -18.0122
  38   2.0000      -0.641052       -17.4439
  39   2.0000      -0.614323       -16.7166
  40   2.0000      -0.601133       -16.3577
  41   2.0000      -0.569070       -15.4852
  42   2.0000      -0.560844       -15.2613
  43   2.0000      -0.556307       -15.1379
  44   2.0000      -0.524272       -14.2662
  45   2.0000      -0.519927       -14.1479
  46   2.0000      -0.511907       -13.9297
  47   2.0000      -0.509533       -13.8651
  48   2.0000      -0.501734       -13.6529
  49   2.0000      -0.496085       -13.4992
  50   2.0000      -0.495471       -13.4825
  51   2.0000      -0.478860       -13.0304
  52   2.0000      -0.467775       -12.7288
  53   2.0000      -0.464450       -12.6383
  54   2.0000      -0.461708       -12.5637
  55   2.0000      -0.454610       -12.3706
  56   2.0000      -0.449521       -12.2321
  57   2.0000      -0.434798       -11.8315
  58   2.0000      -0.434556       -11.8249
  59   2.0000      -0.421286       -11.4638
  60   2.0000      -0.416884       -11.3440
  61   2.0000      -0.403531       -10.9806
  62   2.0000      -0.400999       -10.9117
  63   2.0000      -0.341896        -9.3035
  64   2.0000      -0.325960        -8.8698
  65   2.0000      -0.318657        -8.6711
  66   2.0000      -0.307437        -8.3658
  67   0.0000       0.046167         1.2563
  68   0.0000       0.058838         1.6011
  69   0.0000       0.111029         3.0213
  70   0.0000       0.117344         3.1931
  71   0.0000       0.132783         3.6132

MULLIKEN ATOMIC CHARGES
-----------------------
   0 S :    0.136331
   1 C :   -0.122254
   2 C :   -0.063795
   3 C :    0.016215
   4 C :   -0.175093
   5 H :    0.036490
   6 C :   -0.011145
   7 H :    0.031525
   8 H :    0.025256
   9 C :   -0.059778
  10 H :    0.035746
  11 H :    0.035321
  12 C :   -0.091220
  13 H :    0.052830
  14 H :    0.048806
  15 H :    0.051915
  16 S :    0.134295
  17 C :   -0.057844
  18 C :   -0.057485
  19 C :    0.003618
  20 C :   -0.198799
  21 H :    0.033183
  22 C :    0.067188
  23 H :    0.013024
  24 H :    0.037524
  25 C :   -0.106095
  26 H :    0.016103
  27 H :    0.031720
  28 C :   -0.025148
  29 H :    0.030231
  30 H :    0.029590
  31 H :    0.030709
  32 H :    0.042372
  33 H :    0.028663
Sum of atomic charges:   -0.0000000

LOEWDIN ATOMIC CHARGES
----------------------
   0 S :    0.423690
   1 C :   -0.209983
   2 C :   -0.065461
   3 C :   -0.059263
   4 C :   -0.197989
   5 H :    0.043508
   6 C :   -0.048299
   7 H :    0.035740
   8 H :    0.025672
   9 C :   -0.040163
  10 H :    0.030035
  11 H :    0.021824
  12 C :   -0.073566
  13 H :    0.025747
  14 H :    0.039943
  15 H :    0.030674
  16 S :    0.446124
  17 C :   -0.191547
  18 C :   -0.075170
  19 C :   -0.059536
  20 C :   -0.225165
  21 H :    0.036796
  22 C :   -0.029712
  23 H :    0.021795
  24 H :    0.040853
  25 C :   -0.047153
  26 H :    0.017599
  27 H :    0.028544
  28 C :   -0.062870
  29 H :    0.024028
  30 H :    0.028351
  31 H :    0.022573
  32 H :    0.026558
  33 H :    0.015822

  Mayer bond orders larger than 0.100000
B(  0-S ,  1-C ) :   1.1394 B(  0-S ,  4-C ) :   1.1734 B(  1-C ,  2-C ) :   1.5983
B(  1-C ,  4-C ) :   0.1043 B(  1-C , 32-H ) :   0.9698 B(  2-C ,  3-C ) :   1.2513
B(  2-C ,  6-C ) :   1.0155 B(  3-C ,  4-C ) :   1.5654 B(  3-C ,  5-H ) :   0.9918
B(  4-C , 20-C ) :   1.0018 B(  6-C ,  7-H ) :   0.9498 B(  6-C ,  8-H ) :   0.9361
B(  6-C ,  9-C ) :   1.0547 B(  9-C , 10-H ) :   0.9556 B(  9-C , 11-H ) :   0.9595
B(  9-C , 12-C ) :   1.0586 B( 12-C , 13-H ) :   0.9752 B( 12-C , 14-H ) :   0.9770
B( 12-C , 15-H ) :   0.9766 B( 16-S , 17-C ) :   1.1678 B( 16-S , 20-C ) :   1.1613
B( 17-C , 18-C ) :   1.5937 B( 17-C , 33-H ) :   0.9781 B( 18-C , 19-C ) :   1.2544
B( 18-C , 21-H ) :   0.9805 B( 19-C , 20-C ) :   1.6126 B( 19-C , 22-C ) :   1.0347
B( 22-C , 23-H ) :   0.9343 B( 22-C , 24-H ) :   0.9396 B( 22-C , 25-C ) :   1.0527
B( 25-C , 26-H ) :   0.9598 B( 25-C , 27-H ) :   0.9542 B( 25-C , 28-C ) :   1.0831
B( 28-C , 29-H ) :   0.9751 B( 28-C , 30-H ) :   0.9733 B( 28-C , 31-H ) :   0.9760

Dispersion correction           -0.013851338
FINAL SINGLE POINT ENERGY     -1339.858617528052

DIPOLE MOMENT
-------------
                                X             Y             Z
Electronic contribution:    -11.78619      -0.41220     -16.57737
Nuclear contribution   :     12.16777       0.54314      16.86216
                        -----------------------------------------
Total Dipole Moment    :      0.38158       0.13094       0.28479
                        -----------------------------------------
Magnitude (a.u.)       :      0.49382
Magnitude (Debye)      :      1.25519

Rotational constants in cm-1:     0.019740     0.007592     0.006576
Rotational constants in MHz :   591.784487   227.604576   197.152672

                             ****ORCA TERMINATED NORMALLY****
TOTAL RUN TIME: 0 days 0 hours 0 minutes 21 seconds 179 msec
