                         Program Version 4.2.1 -  RELEASE  -
|  1> ! wB97X-D3 SP def2-SVP
|  2> %pal
|  3> nprocs 24
|  4> end
|  5>
|  6> * xyz 0 1
|  7> S 	 -95.5946 	 6.574 	 1.03093
|  8> C 	 -96.9355 	 6.33442 	 -0.0305121
|  9> C 	 -98.1312 	 5.9889 	 0.655463
| 10> C 	 -97.894 	 5.78857 	 2.02779
| 11> C 	 -96.5522 	 6.05361 	 2.4705
| 12> H 	 -98.634 	 5.65269 	 2.80099
| 13> C 	 -99.4527 	 5.87428 	 -0.00115566
| 14> H 	 -99.8257 	 4.85688 	 0.0768586
| 15> H 	 -99.2319 	 5.7081 	 -1.07662
| 16> C 	 -100.614 	 6.90287 	 0.379855
| 17> H 	 -100.647 	 6.9767 	 1.45473
| 18> H 	 -100.436 	 7.90533 	 0.0504796
| 19> C 	 -102.125 	 6.66331 	 -0.143492
| 20> H 	 -102.505 	 5.90466 	 0.53658
| 21> H 	 -102.796 	 7.5126 	 -0.064866
| 22> H 	 -102.125 	 6.35835 	 -1.13294
| 23> S 	 -95.1722 	 7.77331 	 4.23815
| 24> C 	 -95.2619 	 7.21033 	 5.92287
| 25> C 	 -96.0611 	 6.17413 	 6.12838
| 26> C 	 -96.5864 	 5.55296 	 4.95593
| 27> C 	 -96.1572 	 6.31069 	 3.84532
| 28> H 	 -96.0112 	 5.73947 	 7.10478
| 29> C 	 -97.4721 	 4.32323 	 4.97982
| 30> H 	 -97.0274 	 3.68241 	 5.69985
| 31> H 	 -97.3474 	 3.77537 	 4.05633
| 32> C 	 -98.8713 	 4.54194 	 5.50524
| 33> H 	 -99.2654 	 3.57173 	 5.47886
| 34> H 	 -99.372 	 5.18147 	 4.74047
| 35> C 	 -99.1503 	 5.20469 	 6.77694
| 36> H 	 -98.8361 	 4.60483 	 7.62736
| 37> H 	 -100.225 	 5.31729 	 6.84406
| 38> H 	 -98.751 	 6.25579 	 6.79602
| 39> H 	 -96.9463 	 6.62398 	 -1.10761
| 40> H 	 -94.567 	 7.59974 	 6.71462
| 41> *
| 42>
| 43>                          ****END OF INPUT****

CARTESIAN COORDINATES (ANGSTROEM)
---------------------------------
  S    -95.594600    6.574000    1.030930
  C    -96.935500    6.334420   -0.030512
  C    -98.131200    5.988900    0.655463
  C    -97.894000    5.788570    2.027790
  C    -96.552200    6.053610    2.470500
  H    -98.634000    5.652690    2.800990
  C    -99.452700    5.874280   -0.001156
  H    -99.825700    4.856880    0.076859
  H    -99.231900    5.708100   -1.076620
  C    -100.614000    6.902870    0.379855
  H    -100.647000    6.976700    1.454730
  H    -100.436000    7.905330    0.050480
  C    -102.125000    6.663310   -0.143492
  H    -102.505000    5.904660    0.536580
  H    -102.796000    7.512600   -0.064866
  H    -102.125000    6.358350   -1.132940
  S    -95.172200    7.773310    4.238150
  C    -95.261900    7.210330    5.922870
  C    -96.061100    6.174130    6.128380
  C    -96.586400    5.552960    4.955930
  C    -96.157200    6.310690    3.845320
  H    -96.011200    5.739470    7.104780
  C    -97.472100    4.323230    4.979820
  H    -97.027400    3.682410    5.699850
  H    -97.347400    3.775370    4.056330
  C    -98.871300    4.541940    5.505240
  H    -99.265400    3.571730    5.478860
  H    -99.372000    5.181470    4.740470
  C    -99.150300    5.204690    6.776940
  H    -98.836100    4.604830    7.627360
  H    -100.225000    5.317290    6.844060
  H    -98.751000    6.255790    6.796020
  H    -96.946300    6.623980   -1.107610
  H    -94.567000    7.599740    6.714620

 Total Charge           Charge          ....    0
 Multiplicity           Mult            ....    1
 Number of Electrons    NEL             ....  134
 Basis Dimension        Dim             ....  322

ORBITAL ENERGIES
----------------

  NO   OCC          E(Eh)            E(eV)
   0   2.0000     -88.970464     -2421.0094
   1   2.0000     -88.966460     -2420.9004
   2   2.0000     -10.333463      -281.1878
   3   2.0000     -10.331499      -281.1344
   4   2.0000     -10.320182      -280.8264
   5   2.0000     -10.313748      -280.6514
   6   2.0000     -10.303505      -280.3726
   7   2.0000     -10.303281      -280.3665
   8   2.0000     -10.297345      -280.2050
   9   2.0000     -10.296880      -280.1923
  10   2.0000     -10.294163      -280.1184
  11   2.0000     -10.288103      -279.9535
  12   2.0000     -10.284918      -279.8668
  13   2.0000     -10.281910      -279.7850
  14   2.0000     -10.278781      -279.6999
  15   2.0000     -10.278600      -279.6949
  16   2.0000      -8.084206      -219.9824
  17   2.0000      -8.080080      -219.8701
  18   2.0000      -6.042606      -164.4277
  19   2.0000      -6.038769      -164.3232
  20   2.0000      -6.038687      -164.3210
  21   2.0000      -6.035238      -164.2272
  22   2.0000      -6.035156      -164.2249
  23   2.0000      -6.030396      -164.0954
  24   2.0000      -0.998098       -27.1596
  25   2.0000      -0.977825       -26.6080
  26   2.0000      -0.921977       -25.0883
  27   2.0000      -0.900384       -24.5007
  28   2.0000      -0.866064       -23.5668
  29   2.0000      -0.854892       -23.2628
  30   2.0000      -0.846830       -23.0434
  31   2.0000      -0.815143       -22.1812
  32   2.0000      -0.791733       -21.5441
  33   2.0000      -0.769626       -20.9426
  34   2.0000      -0.714388       -19.4395
  35   2.0000      -0.702645       -19.1199
  36   2.0000      -0.687354       -18.7039
  37   2.0000      -0.656774       -17.8717
  38   2.0000      -0.635133       -17.2829
  39   2.0000      -0.615764       -16.7558
  40   2.0000      -0.599827       -16.3221
  41   2.0000      -0.566472       -15.4145
  42   2.0000      -0.562435       -15.3046
  43   2.0000      -0.553099       -15.0506
  44   2.0000      -0.547960       -14.9108
  45   2.0000      -0.525566       -14.3014
  46   2.0000      -0.517288       -14.0761
  47   2.0000      -0.504142       -13.7184
  48   2.0000      -0.499950       -13.6043
  49   2.0000      -0.495106       -13.4725
  50   2.0000      -0.491333       -13.3698
  51   2.0000      -0.486521       -13.2389
  52   2.0000      -0.473774       -12.8921
  53   2.0000      -0.465277       -12.6608
  54   2.0000      -0.457394       -12.4463
  55   2.0000      -0.449787       -12.2393
  56   2.0000      -0.446072       -12.1382
  57   2.0000      -0.442291       -12.0353
  58   2.0000      -0.428986       -11.6733
  59   2.0000      -0.428382       -11.6569
  60   2.0000      -0.420628       -11.4459
  61   2.0000      -0.411640       -11.2013
  62   2.0000      -0.406444       -11.0599
  63   2.0000      -0.352784        -9.5997
  64   2.0000      -0.334783        -9.1099
  65   2.0000      -0.329108        -8.9555
  66   2.0000      -0.277917        -7.5625
  67   0.0000       0.016755         0.4559
  68   0.0000       0.073293         1.9944
  69   0.0000       0.103048         2.8041
  70   0.0000       0.122412         3.3310
  71   0.0000       0.130572         3.5531

MULLIKEN ATOMIC CHARGES
-----------------------
   0 S :    0.108533
   1 C :   -0.126989
   2 C :   -0.091266
   3 C :    0.038040
   4 C :   -0.168308
   5 H :   -0.006432
   6 C :    0.069044
   7 H :    0.019889
   8 H :    0.006890
   9 C :   -0.061640
  10 H :    0.025863
  11 H :    0.027442
  12 C :   -0.049906
  13 H :    0.032942
  14 H :    0.038230
  15 H :    0.027122
  16 S :    0.097063
  17 C :   -0.113686
  18 C :   -0.011203
  19 C :   -0.084097
  20 C :   -0.135472
  21 H :    0.013035
  22 C :    0.113541
  23 H :    0.001434
  24 H :    0.032933
  25 C :   -0.063012
  26 H :    0.021002
  27 H :    0.024334
  28 C :   -0.038287
  29 H :    0.027488
  30 H :    0.032331
  31 H :    0.054432
  32 H :    0.069387
  33 H :    0.069325
Sum of atomic charges:    0.0000000

LOEWDIN ATOMIC CHARGES
----------------------
   0 S :    0.402675
   1 C :   -0.210283
   2 C :   -0.069906
   3 C :   -0.051448
   4 C :   -0.186069
   5 H :    0.025904
   6 C :   -0.047069
   7 H :    0.033551
   8 H :    0.034977
   9 C :   -0.031198
  10 H :    0.021051
  11 H :    0.020092
  12 C :   -0.057431
  13 H :    0.025460
  14 H :    0.029080
  15 H :    0.014671
  16 S :    0.357025
  17 C :   -0.178746
  18 C :   -0.075176
  19 C :   -0.050986
  20 C :   -0.176734
  21 H :    0.031360
  22 C :   -0.032082
  23 H :    0.026833
  24 H :    0.036098
  25 C :   -0.040771
  26 H :    0.021567
  27 H :    0.023672
  28 C :   -0.064269
  29 H :    0.022268
  30 H :    0.031335
  31 H :    0.037258
  32 H :    0.038378
  33 H :    0.038914

  Mayer bond orders larger than 0.100000
B(  0-S ,  1-C ) :   1.1688 B(  0-S ,  4-C ) :   1.1461 B(  1-C ,  2-C ) :   1.5529
B(  1-C ,  4-C ) :   0.1035 B(  1-C , 32-H ) :   0.9556 B(  2-C ,  3-C ) :   1.3016
B(  2-C ,  6-C ) :   1.0468 B(  3-C ,  4-C ) :   1.5026 B(  3-C ,  5-H ) :   0.9846
B(  4-C , 20-C ) :   1.0968 B(  6-C ,  7-H ) :   0.9342 B(  6-C ,  8-H ) :   0.9294
B(  6-C ,  9-C ) :   1.0229 B(  9-C , 10-H ) :   0.9657 B(  9-C , 11-H ) :   0.9646
B(  9-C , 12-C ) :   1.0677 B( 12-C , 13-H ) :   0.9809 B( 12-C , 14-H ) :   0.9793
B( 12-C , 15-H ) :   0.9809 B( 16-S , 17-C ) :   1.1067 B( 16-S , 20-C ) :   1.1163
B( 17-C , 18-C ) :   1.6939 B( 17-C , 33-H ) :   0.9527 B( 18-C , 19-C ) :   1.2010
B( 18-C , 21-H ) :   0.9785 B( 19-C , 20-C ) :   1.6115 B( 19-C , 22-C ) :   1.0453
B( 22-C , 23-H ) :   0.9158 B( 22-C , 24-H ) :   0.9242 B( 22-C , 25-C ) :   1.0710
B( 25-C , 26-H ) :   0.9465 B( 25-C , 27-H ) :   0.9426 B( 25-C , 28-C ) :   1.1125
B( 28-C , 29-H ) :   0.9693 B( 28-C , 30-H ) :   0.9648 B( 28-C , 31-H ) :   0.9597

Dispersion correction           -0.014327408
FINAL SINGLE POINT ENERGY     -1339.846610577956

DIPOLE MOMENT
-------------
                                X             Y             Z
Electronic contribution:     29.24247       8.13632      -2.45004
Nuclear contribution   :    -29.90713      -8.41107       2.67012
                        -----------------------------------------
Total Dipole Moment    :     -0.66466      -0.27476       0.22007
                        -----------------------------------------
Magnitude (a.u.)       :      0.75213
Magnitude (Debye)      :      1.91176

Rotational constants in cm-1:     0.016959     0.009069     0.006647
Rotational constants in MHz :   508.405312   271.880087   199.259529

                             ****ORCA TERMINATED NORMALLY****
TOTAL RUN TIME: 0 days 0 hours 0 minutes 22 seconds 80 msec
