                         Program Version 4.2.1 -  RELEASE  -
|  1> ! wB97X-D3 SP def2-SVP
|  2> %pal
|  3> nprocs 24
|  4> end
|  5>
|  6> * xyz 0 1
|  7> S 	 -132.577 	 23.6092 	 -17.0124
|  8> C 	 -133.22 	 22.0474 	 -17.4644
|  9> C 	 -134.315 	 22.1858 	 -18.2692
| 10> C 	 -134.608 	 23.531 	 -18.5348
| 11> C 	 -133.671 	 24.4243 	 -18.0409
| 12> H 	 -135.422 	 23.7774 	 -19.1274
| 13> C 	 -135.209 	 21.0079 	 -18.6805
| 14> H 	 -134.665 	 20.0721 	 -18.6053
| 15> H 	 -135.454 	 21.0282 	 -19.6758
| 16> C 	 -136.476 	 20.9384 	 -17.7904
| 17> H 	 -136.916 	 21.9107 	 -17.4808
| 18> H 	 -137.166 	 20.3828 	 -18.3844
| 19> C 	 -136.27 	 20.1357 	 -16.508
| 20> H 	 -136.123 	 19.0774 	 -16.7219
| 21> H 	 -135.377 	 20.462 	 -16.0493
| 22> H 	 -137.145 	 20.2946 	 -15.8643
| 23> S 	 -133.378 	 26.4405 	 -19.9402
| 24> C 	 -133.068 	 28.0733 	 -19.59
| 25> C 	 -132.956 	 28.1766 	 -18.234
| 26> C 	 -133.271 	 26.9874 	 -17.4799
| 27> C 	 -133.535 	 25.8607 	 -18.2851
| 28> H 	 -132.595 	 29.0858 	 -17.7653
| 29> C 	 -133.014 	 26.8819 	 -15.9739
| 30> H 	 -131.949 	 26.6329 	 -15.924
| 31> H 	 -133.553 	 26.0865 	 -15.5141
| 32> C 	 -133.431 	 28.1964 	 -15.2199
| 33> H 	 -134.411 	 28.5672 	 -15.5077
| 34> H 	 -132.782 	 29.0356 	 -15.4507
| 35> C 	 -133.408 	 27.7902 	 -13.713
| 36> H 	 -134.237 	 27.1197 	 -13.5221
| 37> H 	 -133.465 	 28.6195 	 -13.0422
| 38> H 	 -132.434 	 27.3388 	 -13.4934
| 39> H 	 -132.85 	 21.0641 	 -17.1389
| 40> H 	 -132.57 	 28.764 	 -20.2327
| 41> *
| 42>
| 43>                          ****END OF INPUT****

CARTESIAN COORDINATES (ANGSTROEM)
---------------------------------
  S    -132.577000   23.609200  -17.012400
  C    -133.220000   22.047400  -17.464400
  C    -134.315000   22.185800  -18.269200
  C    -134.608000   23.531000  -18.534800
  C    -133.671000   24.424300  -18.040900
  H    -135.422000   23.777400  -19.127400
  C    -135.209000   21.007900  -18.680500
  H    -134.665000   20.072100  -18.605300
  H    -135.454000   21.028200  -19.675800
  C    -136.476000   20.938400  -17.790400
  H    -136.916000   21.910700  -17.480800
  H    -137.166000   20.382800  -18.384400
  C    -136.270000   20.135700  -16.508000
  H    -136.123000   19.077400  -16.721900
  H    -135.377000   20.462000  -16.049300
  H    -137.145000   20.294600  -15.864300
  S    -133.378000   26.440500  -19.940200
  C    -133.068000   28.073300  -19.590000
  C    -132.956000   28.176600  -18.234000
  C    -133.271000   26.987400  -17.479900
  C    -133.535000   25.860700  -18.285100
  H    -132.595000   29.085800  -17.765300
  C    -133.014000   26.881900  -15.973900
  H    -131.949000   26.632900  -15.924000
  H    -133.553000   26.086500  -15.514100
  C    -133.431000   28.196400  -15.219900
  H    -134.411000   28.567200  -15.507700
  H    -132.782000   29.035600  -15.450700
  C    -133.408000   27.790200  -13.713000
  H    -134.237000   27.119700  -13.522100
  H    -133.465000   28.619500  -13.042200
  H    -132.434000   27.338800  -13.493400
  H    -132.850000   21.064100  -17.138900
  H    -132.570000   28.764000  -20.232700

 Total Charge           Charge          ....    0
 Multiplicity           Mult            ....    1
 Number of Electrons    NEL             ....  134
 Basis Dimension        Dim             ....  322

ORBITAL ENERGIES
----------------

  NO   OCC          E(Eh)            E(eV)
   0   2.0000     -88.968250     -2420.9491
   1   2.0000     -88.958890     -2420.6945
   2   2.0000     -10.331663      -281.1388
   3   2.0000     -10.328986      -281.0660
   4   2.0000     -10.313152      -280.6351
   5   2.0000     -10.310652      -280.5671
   6   2.0000     -10.304051      -280.3875
   7   2.0000     -10.296494      -280.1818
   8   2.0000     -10.291704      -280.0515
   9   2.0000     -10.290553      -280.0202
  10   2.0000     -10.288196      -279.9561
  11   2.0000     -10.287978      -279.9501
  12   2.0000     -10.287463      -279.9361
  13   2.0000     -10.284984      -279.8687
  14   2.0000     -10.275381      -279.6073
  15   2.0000     -10.271859      -279.5115
  16   2.0000      -8.083391      -219.9602
  17   2.0000      -8.074462      -219.7173
  18   2.0000      -6.041816      -164.4062
  19   2.0000      -6.037804      -164.2970
  20   2.0000      -6.034263      -164.2006
  21   2.0000      -6.032937      -164.1646
  22   2.0000      -6.028632      -164.0474
  23   2.0000      -6.025380      -163.9589
  24   2.0000      -1.012538       -27.5526
  25   2.0000      -0.991507       -26.9803
  26   2.0000      -0.915195       -24.9037
  27   2.0000      -0.905060       -24.6279
  28   2.0000      -0.872041       -23.7294
  29   2.0000      -0.851138       -23.1606
  30   2.0000      -0.842407       -22.9231
  31   2.0000      -0.815854       -22.2005
  32   2.0000      -0.786635       -21.4054
  33   2.0000      -0.768666       -20.9165
  34   2.0000      -0.710519       -19.3342
  35   2.0000      -0.707229       -19.2447
  36   2.0000      -0.691266       -18.8103
  37   2.0000      -0.655779       -17.8446
  38   2.0000      -0.639861       -17.4115
  39   2.0000      -0.625887       -17.0313
  40   2.0000      -0.599665       -16.3177
  41   2.0000      -0.580991       -15.8096
  42   2.0000      -0.565470       -15.3872
  43   2.0000      -0.553562       -15.0632
  44   2.0000      -0.543774       -14.7969
  45   2.0000      -0.523475       -14.2445
  46   2.0000      -0.518433       -14.1073
  47   2.0000      -0.516890       -14.0653
  48   2.0000      -0.511426       -13.9166
  49   2.0000      -0.493035       -13.4162
  50   2.0000      -0.491112       -13.3638
  51   2.0000      -0.477663       -12.9979
  52   2.0000      -0.470274       -12.7968
  53   2.0000      -0.467366       -12.7177
  54   2.0000      -0.462120       -12.5749
  55   2.0000      -0.448574       -12.2063
  56   2.0000      -0.444443       -12.0939
  57   2.0000      -0.441010       -12.0005
  58   2.0000      -0.435546       -11.8518
  59   2.0000      -0.429848       -11.6968
  60   2.0000      -0.427406       -11.6303
  61   2.0000      -0.413338       -11.2475
  62   2.0000      -0.398594       -10.8463
  63   2.0000      -0.348797        -9.4912
  64   2.0000      -0.334254        -9.0955
  65   2.0000      -0.322544        -8.7769
  66   2.0000      -0.295346        -8.0368
  67   0.0000       0.031788         0.8650
  68   0.0000       0.066037         1.7970
  69   0.0000       0.116224         3.1626
  70   0.0000       0.125586         3.4174
  71   0.0000       0.131976         3.5912

MULLIKEN ATOMIC CHARGES
-----------------------
   0 S :    0.114011
   1 C :   -0.123842
   2 C :   -0.103151
   3 C :    0.060821
   4 C :   -0.151461
   5 H :   -0.018896
   6 C :    0.113123
   7 H :    0.008208
   8 H :    0.005040
   9 C :   -0.079665
  10 H :    0.042997
  11 H :    0.020176
  12 C :   -0.035773
  13 H :    0.025093
  14 H :    0.015600
  15 H :    0.040592
  16 S :    0.093893
  17 C :   -0.056402
  18 C :   -0.068402
  19 C :   -0.061874
  20 C :   -0.122540
  21 H :    0.020633
  22 C :    0.043618
  23 H :    0.053652
  24 H :    0.020083
  25 C :   -0.095115
  26 H :    0.033896
  27 H :    0.030719
  28 C :   -0.030145
  29 H :    0.041431
  30 H :    0.020546
  31 H :    0.029642
  32 H :    0.049905
  33 H :    0.063585
Sum of atomic charges:    0.0000000

LOEWDIN ATOMIC CHARGES
----------------------
   0 S :    0.431440
   1 C :   -0.203224
   2 C :   -0.061798
   3 C :   -0.054963
   4 C :   -0.202240
   5 H :    0.020664
   6 C :   -0.018398
   7 H :    0.030224
   8 H :    0.017857
   9 C :   -0.034739
  10 H :    0.029572
  11 H :    0.018937
  12 C :   -0.060426
  13 H :    0.022316
  14 H :    0.015194
  15 H :    0.030025
  16 S :    0.426037
  17 C :   -0.205319
  18 C :   -0.076381
  19 C :   -0.061485
  20 C :   -0.202497
  21 H :    0.028158
  22 C :   -0.031878
  23 H :    0.037274
  24 H :    0.021595
  25 C :   -0.036086
  26 H :    0.024195
  27 H :    0.018597
  28 C :   -0.060704
  29 H :    0.026523
  30 H :    0.018129
  31 H :    0.027106
  32 H :    0.031721
  33 H :    0.034573

  Mayer bond orders larger than 0.100000
B(  0-S ,  1-C ) :   1.1415 B(  0-S ,  4-C ) :   1.1687 B(  1-C ,  2-C ) :   1.6042
B(  1-C , 32-H ) :   0.9617 B(  2-C ,  3-C ) :   1.2713 B(  2-C ,  6-C ) :   1.0311
B(  3-C ,  4-C ) :   1.5328 B(  3-C ,  5-H ) :   1.0120 B(  4-C , 20-C ) :   1.0309
B(  6-C ,  7-H ) :   0.9399 B(  6-C ,  8-H ) :   0.9357 B(  6-C ,  9-C ) :   1.0552
B(  9-C , 10-H ) :   0.9637 B(  9-C , 11-H ) :   0.9562 B(  9-C , 12-C ) :   1.0817
B( 12-C , 13-H ) :   0.9745 B( 12-C , 14-H ) :   0.9757 B( 12-C , 15-H ) :   0.9742
B( 16-S , 17-C ) :   1.1769 B( 16-S , 20-C ) :   1.1559 B( 17-C , 18-C ) :   1.5761
B( 17-C , 33-H ) :   0.9630 B( 18-C , 19-C ) :   1.2764 B( 18-C , 21-H ) :   0.9861
B( 19-C , 20-C ) :   1.5497 B( 19-C , 22-C ) :   1.0389 B( 22-C , 23-H ) :   0.9339
B( 22-C , 24-H ) :   0.9421 B( 22-C , 25-C ) :   1.0507 B( 25-C , 26-H ) :   0.9660
B( 25-C , 27-H ) :   0.9529 B( 25-C , 28-C ) :   1.0811 B( 28-C , 29-H ) :   0.9776
B( 28-C , 30-H ) :   0.9736 B( 28-C , 31-H ) :   0.9722

Dispersion correction           -0.013928380
FINAL SINGLE POINT ENERGY     -1339.874125821623

DIPOLE MOMENT
-------------
                                X             Y             Z
Electronic contribution:     10.25981       6.23106     -16.53486
Nuclear contribution   :    -10.29274      -6.36789      16.77348
                        -----------------------------------------
Total Dipole Moment    :     -0.03293      -0.13683       0.23863
                        -----------------------------------------
Magnitude (a.u.)       :      0.27704
Magnitude (Debye)      :      0.70418

Rotational constants in cm-1:     0.020314     0.007763     0.006340
Rotational constants in MHz :   608.989405   232.741903   190.060941

                             ****ORCA TERMINATED NORMALLY****
TOTAL RUN TIME: 0 days 0 hours 0 minutes 21 seconds 261 msec
