                         Program Version 4.2.1 -  RELEASE  -
|  1> ! wB97X-D3 SP def2-SVP
|  2> %pal
|  3> nprocs 24
|  4> end
|  5>
|  6> * xyz 0 1
|  7> S 	 -117.114 	 15.1257 	 -6.09957
|  8> C 	 -116.298 	 14.2426 	 -4.85789
|  9> C 	 -115.777 	 13.0275 	 -5.26958
| 10> C 	 -115.842 	 12.9258 	 -6.76113
| 11> C 	 -116.7 	 13.9042 	 -7.26735
| 12> H 	 -115.554 	 12.0858 	 -7.43328
| 13> C 	 -114.847 	 12.1667 	 -4.45251
| 14> H 	 -114.015 	 12.8851 	 -4.01234
| 15> H 	 -114.281 	 11.4986 	 -5.15065
| 16> C 	 -115.557 	 11.3679 	 -3.35787
| 17> H 	 -116.153 	 12.0614 	 -2.71384
| 18> H 	 -116.158 	 10.6987 	 -3.92469
| 19> C 	 -114.673 	 10.5485 	 -2.48177
| 20> H 	 -114.936 	 10.32 	 -1.51254
| 21> H 	 -114.352 	 9.67148 	 -2.98376
| 22> H 	 -113.666 	 11.0187 	 -2.42098
| 23> S 	 -116.278 	 15.4779 	 -9.53311
| 24> C 	 -116.875 	 14.9713 	 -11.0855
| 25> C 	 -117.431 	 13.7086 	 -11.0029
| 26> C 	 -117.608 	 13.2768 	 -9.63861
| 27> C 	 -116.947 	 14.0758 	 -8.72512
| 28> H 	 -117.832 	 13.1845 	 -11.8529
| 29> C 	 -118.2 	 11.9055 	 -9.39145
| 30> H 	 -117.73 	 11.4676 	 -8.48131
| 31> H 	 -117.897 	 11.27 	 -10.2142
| 32> C 	 -119.723 	 11.9847 	 -9.287
| 33> H 	 -120.238 	 11.0304 	 -9.23221
| 34> H 	 -120.081 	 12.516 	 -10.1353
| 35> C 	 -120.075 	 12.7335 	 -7.97453
| 36> H 	 -119.528 	 12.2551 	 -7.16895
| 37> H 	 -121.127 	 12.6804 	 -7.72026
| 38> H 	 -119.886 	 13.8252 	 -8.00739
| 39> H 	 -116.126 	 14.56 	 -3.83193
| 40> H 	 -116.642 	 15.4671 	 -12.0555
| 41> *
| 42>
| 43>                          ****END OF INPUT****

CARTESIAN COORDINATES (ANGSTROEM)
---------------------------------
  S    -117.114000   15.125700   -6.099570
  C    -116.298000   14.242600   -4.857890
  C    -115.777000   13.027500   -5.269580
  C    -115.842000   12.925800   -6.761130
  C    -116.700000   13.904200   -7.267350
  H    -115.554000   12.085800   -7.433280
  C    -114.847000   12.166700   -4.452510
  H    -114.015000   12.885100   -4.012340
  H    -114.281000   11.498600   -5.150650
  C    -115.557000   11.367900   -3.357870
  H    -116.153000   12.061400   -2.713840
  H    -116.158000   10.698700   -3.924690
  C    -114.673000   10.548500   -2.481770
  H    -114.936000   10.320000   -1.512540
  H    -114.352000    9.671480   -2.983760
  H    -113.666000   11.018700   -2.420980
  S    -116.278000   15.477900   -9.533110
  C    -116.875000   14.971300  -11.085500
  C    -117.431000   13.708600  -11.002900
  C    -117.608000   13.276800   -9.638610
  C    -116.947000   14.075800   -8.725120
  H    -117.832000   13.184500  -11.852900
  C    -118.200000   11.905500   -9.391450
  H    -117.730000   11.467600   -8.481310
  H    -117.897000   11.270000  -10.214200
  C    -119.723000   11.984700   -9.287000
  H    -120.238000   11.030400   -9.232210
  H    -120.081000   12.516000  -10.135300
  C    -120.075000   12.733500   -7.974530
  H    -119.528000   12.255100   -7.168950
  H    -121.127000   12.680400   -7.720260
  H    -119.886000   13.825200   -8.007390
  H    -116.126000   14.560000   -3.831930
  H    -116.642000   15.467100  -12.055500

 Total Charge           Charge          ....    0
 Multiplicity           Mult            ....    1
 Number of Electrons    NEL             ....  134
 Basis Dimension        Dim             ....  322

ORBITAL ENERGIES
----------------

  NO   OCC          E(Eh)            E(eV)
   0   2.0000     -88.971592     -2421.0401
   1   2.0000     -88.963517     -2420.8204
   2   2.0000     -10.331832      -281.1435
   3   2.0000     -10.326472      -280.9976
   4   2.0000     -10.319829      -280.8168
   5   2.0000     -10.314836      -280.6810
   6   2.0000     -10.306739      -280.4606
   7   2.0000     -10.305270      -280.4207
   8   2.0000     -10.303645      -280.3764
   9   2.0000     -10.300306      -280.2856
  10   2.0000     -10.292891      -280.0838
  11   2.0000     -10.288944      -279.9764
  12   2.0000     -10.285639      -279.8865
  13   2.0000     -10.280016      -279.7334
  14   2.0000     -10.268363      -279.4164
  15   2.0000     -10.267316      -279.3879
  16   2.0000      -8.086506      -220.0450
  17   2.0000      -8.078563      -219.8289
  18   2.0000      -6.045032      -164.4937
  19   2.0000      -6.040993      -164.3838
  20   2.0000      -6.037231      -164.2814
  21   2.0000      -6.037156      -164.2794
  22   2.0000      -6.032890      -164.1633
  23   2.0000      -6.029342      -164.0667
  24   2.0000      -1.005364       -27.3573
  25   2.0000      -0.984269       -26.7833
  26   2.0000      -0.915922       -24.9235
  27   2.0000      -0.908966       -24.7342
  28   2.0000      -0.868430       -23.6312
  29   2.0000      -0.851914       -23.1818
  30   2.0000      -0.841847       -22.9078
  31   2.0000      -0.811767       -22.0893
  32   2.0000      -0.779987       -21.2245
  33   2.0000      -0.769528       -20.9399
  34   2.0000      -0.702569       -19.1179
  35   2.0000      -0.699925       -19.0459
  36   2.0000      -0.688811       -18.7435
  37   2.0000      -0.660260       -17.9666
  38   2.0000      -0.640437       -17.4272
  39   2.0000      -0.608034       -16.5454
  40   2.0000      -0.593535       -16.1509
  41   2.0000      -0.576948       -15.6996
  42   2.0000      -0.561364       -15.2755
  43   2.0000      -0.550223       -14.9723
  44   2.0000      -0.544203       -14.8085
  45   2.0000      -0.526393       -14.3239
  46   2.0000      -0.519090       -14.1252
  47   2.0000      -0.504617       -13.7313
  48   2.0000      -0.502607       -13.6766
  49   2.0000      -0.496336       -13.5060
  50   2.0000      -0.489004       -13.3065
  51   2.0000      -0.479963       -13.0605
  52   2.0000      -0.470661       -12.8073
  53   2.0000      -0.458547       -12.4777
  54   2.0000      -0.453713       -12.3462
  55   2.0000      -0.447925       -12.1887
  56   2.0000      -0.439272       -11.9532
  57   2.0000      -0.433704       -11.8017
  58   2.0000      -0.432652       -11.7731
  59   2.0000      -0.425693       -11.5837
  60   2.0000      -0.421385       -11.4665
  61   2.0000      -0.414999       -11.2927
  62   2.0000      -0.413832       -11.2609
  63   2.0000      -0.340764        -9.2727
  64   2.0000      -0.328449        -8.9376
  65   2.0000      -0.326732        -8.8908
  66   2.0000      -0.302494        -8.2313
  67   0.0000       0.035857         0.9757
  68   0.0000       0.065856         1.7920
  69   0.0000       0.108027         2.9396
  70   0.0000       0.115669         3.1475
  71   0.0000       0.120489         3.2787

MULLIKEN ATOMIC CHARGES
-----------------------
   0 S :    0.135485
   1 C :   -0.108941
   2 C :   -0.081505
   3 C :    0.022432
   4 C :   -0.169160
   5 H :    0.045685
   6 C :   -0.028452
   7 H :    0.052241
   8 H :    0.029608
   9 C :   -0.054378
  10 H :    0.035308
  11 H :    0.023841
  12 C :    0.019486
  13 H :    0.023676
  14 H :    0.006430
  15 H :    0.006201
  16 S :    0.108374
  17 C :   -0.100997
  18 C :   -0.029251
  19 C :   -0.062376
  20 C :   -0.163327
  21 H :    0.020574
  22 C :    0.050872
  23 H :    0.023937
  24 H :    0.023435
  25 C :   -0.031529
  26 H :    0.030234
  27 H :    0.017624
  28 C :   -0.069798
  29 H :    0.032458
  30 H :    0.024738
  31 H :    0.043250
  32 H :    0.049615
  33 H :    0.074210
Sum of atomic charges:   -0.0000000

LOEWDIN ATOMIC CHARGES
----------------------
   0 S :    0.424727
   1 C :   -0.201441
   2 C :   -0.066130
   3 C :   -0.059096
   4 C :   -0.201985
   5 H :    0.040303
   6 C :   -0.042910
   7 H :    0.040290
   8 H :    0.030955
   9 C :   -0.041271
  10 H :    0.028744
  11 H :    0.023898
  12 C :   -0.064670
  13 H :    0.016584
  14 H :    0.022588
  15 H :    0.029345
  16 S :    0.408552
  17 C :   -0.194466
  18 C :   -0.071743
  19 C :   -0.056849
  20 C :   -0.203630
  21 H :    0.029103
  22 C :   -0.030982
  23 H :    0.028123
  24 H :    0.027403
  25 C :   -0.033799
  26 H :    0.023523
  27 H :    0.018157
  28 C :   -0.066631
  29 H :    0.024252
  30 H :    0.021090
  31 H :    0.027930
  32 H :    0.030138
  33 H :    0.039897

  Mayer bond orders larger than 0.100000
B(  0-S ,  1-C ) :   1.1421 B(  0-S ,  4-C ) :   1.1494 B(  1-C ,  2-C ) :   1.6339
B(  1-C , 32-H ) :   0.9606 B(  2-C ,  3-C ) :   1.2082 B(  2-C ,  6-C ) :   1.0242
B(  3-C ,  4-C ) :   1.6106 B(  3-C ,  5-H ) :   0.9713 B(  4-C , 20-C ) :   1.0089
B(  6-C ,  7-H ) :   0.9411 B(  6-C ,  8-H ) :   0.9493 B(  6-C ,  9-C ) :   1.0516
B(  9-C , 10-H ) :   0.9610 B(  9-C , 11-H ) :   0.9554 B(  9-C , 12-C ) :   1.0877
B( 12-C , 13-H ) :   0.9757 B( 12-C , 14-H ) :   0.9644 B( 12-C , 15-H ) :   0.9656
B( 16-S , 17-C ) :   1.1591 B( 16-S , 20-C ) :   1.1441 B( 17-C , 18-C ) :   1.6083
B( 17-C , 33-H ) :   0.9608 B( 18-C , 19-C ) :   1.2488 B( 18-C , 21-H ) :   0.9839
B( 19-C , 20-C ) :   1.6115 B( 19-C , 22-C ) :   1.0267 B( 22-C , 23-H ) :   0.9443
B( 22-C , 24-H ) :   0.9403 B( 22-C , 25-C ) :   1.0687 B( 25-C , 26-H ) :   0.9576
B( 25-C , 27-H ) :   0.9551 B( 25-C , 28-C ) :   1.0735 B( 28-C , 29-H ) :   0.9761
B( 28-C , 30-H ) :   0.9753 B( 28-C , 31-H ) :   0.9736

Dispersion correction           -0.014874929
FINAL SINGLE POINT ENERGY     -1339.874072860825

DIPOLE MOMENT
-------------
                                X             Y             Z
Electronic contribution:      2.80264      22.03174     -12.63822
Nuclear contribution   :     -2.67143     -22.61042      12.65498
                        -----------------------------------------
Total Dipole Moment    :      0.13121      -0.57868       0.01677
                        -----------------------------------------
Magnitude (a.u.)       :      0.59361
Magnitude (Debye)      :      1.50884

Rotational constants in cm-1:     0.022199     0.007655     0.006775
Rotational constants in MHz :   665.517790   229.487107   203.118722

                             ****ORCA TERMINATED NORMALLY****
TOTAL RUN TIME: 0 days 0 hours 0 minutes 21 seconds 724 msec
