                         Program Version 4.2.1 -  RELEASE  -
|  1> ! wB97X-D3 SP def2-SVP
|  2> %pal
|  3> nprocs 24
|  4> end
|  5>
|  6> * xyz 0 1
|  7> S 	 -51.5302 	 2.88306 	 -23.1958
|  8> C 	 -50.4611 	 1.49972 	 -23.5664
|  9> C 	 -51.2411 	 0.327457 	 -23.6245
| 10> C 	 -52.5051 	 0.506583 	 -23.0512
| 11> C 	 -52.8701 	 1.84789 	 -22.8684
| 12> H 	 -53.2422 	 -0.28323 	 -22.8262
| 13> C 	 -50.7805 	 -1.02714 	 -24.1055
| 14> H 	 -50.0012 	 -0.786837 	 -24.8477
| 15> H 	 -51.7121 	 -1.39421 	 -24.7203
| 16> C 	 -50.3395 	 -2.05435 	 -23.0315
| 17> H 	 -49.7093 	 -1.53106 	 -22.374
| 18> H 	 -51.1895 	 -2.37623 	 -22.4547
| 19> C 	 -49.8081 	 -3.28277 	 -23.7395
| 20> H 	 -48.8379 	 -3.13783 	 -24.2169
| 21> H 	 -49.6807 	 -4.20694 	 -23.1446
| 22> H 	 -50.457 	 -3.52682 	 -24.5141
| 23> S 	 -55.1187 	 3.1896 	 -23.7384
| 24> C 	 -56.282 	 3.71229 	 -22.5029
| 25> C 	 -55.9538 	 3.24709 	 -21.2034
| 26> C 	 -54.7562 	 2.47849 	 -21.1999
| 27> C 	 -54.1192 	 2.41471 	 -22.4634
| 28> H 	 -56.584 	 3.47575 	 -20.4428
| 29> C 	 -54.035 	 1.98025 	 -19.9099
| 30> H 	 -53.0736 	 2.39804 	 -19.8126
| 31> H 	 -53.7776 	 0.946205 	 -20.0902
| 32> C 	 -54.785 	 2.25682 	 -18.6101
| 33> H 	 -55.7445 	 1.65424 	 -18.7084
| 34> H 	 -55.1147 	 3.31499 	 -18.6182
| 35> C 	 -54.0375 	 1.89466 	 -17.2995
| 36> H 	 -54.7422 	 1.82051 	 -16.4964
| 37> H 	 -53.2635 	 2.59188 	 -17.0738
| 38> H 	 -53.6287 	 0.912657 	 -17.3713
| 39> H 	 -49.4041 	 1.60475 	 -23.7593
| 40> H 	 -57.126 	 4.36452 	 -22.6294
| 41> *
| 42>
| 43>                          ****END OF INPUT****

CARTESIAN COORDINATES (ANGSTROEM)
---------------------------------
  S    -51.530200    2.883060  -23.195800
  C    -50.461100    1.499720  -23.566400
  C    -51.241100    0.327457  -23.624500
  C    -52.505100    0.506583  -23.051200
  C    -52.870100    1.847890  -22.868400
  H    -53.242200   -0.283230  -22.826200
  C    -50.780500   -1.027140  -24.105500
  H    -50.001200   -0.786837  -24.847700
  H    -51.712100   -1.394210  -24.720300
  C    -50.339500   -2.054350  -23.031500
  H    -49.709300   -1.531060  -22.374000
  H    -51.189500   -2.376230  -22.454700
  C    -49.808100   -3.282770  -23.739500
  H    -48.837900   -3.137830  -24.216900
  H    -49.680700   -4.206940  -23.144600
  H    -50.457000   -3.526820  -24.514100
  S    -55.118700    3.189600  -23.738400
  C    -56.282000    3.712290  -22.502900
  C    -55.953800    3.247090  -21.203400
  C    -54.756200    2.478490  -21.199900
  C    -54.119200    2.414710  -22.463400
  H    -56.584000    3.475750  -20.442800
  C    -54.035000    1.980250  -19.909900
  H    -53.073600    2.398040  -19.812600
  H    -53.777600    0.946205  -20.090200
  C    -54.785000    2.256820  -18.610100
  H    -55.744500    1.654240  -18.708400
  H    -55.114700    3.314990  -18.618200
  C    -54.037500    1.894660  -17.299500
  H    -54.742200    1.820510  -16.496400
  H    -53.263500    2.591880  -17.073800
  H    -53.628700    0.912657  -17.371300
  H    -49.404100    1.604750  -23.759300
  H    -57.126000    4.364520  -22.629400

 Total Charge           Charge          ....    0
 Multiplicity           Mult            ....    1
 Number of Electrons    NEL             ....  134
 Basis Dimension        Dim             ....  322

ORBITAL ENERGIES
----------------

  NO   OCC          E(Eh)            E(eV)
   0   2.0000     -88.968278     -2420.9499
   1   2.0000     -88.965640     -2420.8781
   2   2.0000     -10.325864      -280.9810
   3   2.0000     -10.325021      -280.9581
   4   2.0000     -10.320713      -280.8409
   5   2.0000     -10.319044      -280.7955
   6   2.0000     -10.309173      -280.5269
   7   2.0000     -10.301914      -280.3293
   8   2.0000     -10.301173      -280.3092
   9   2.0000     -10.294404      -280.1250
  10   2.0000     -10.292184      -280.0646
  11   2.0000     -10.290996      -280.0323
  12   2.0000     -10.285928      -279.8943
  13   2.0000     -10.285238      -279.8756
  14   2.0000     -10.274653      -279.5875
  15   2.0000     -10.274632      -279.5870
  16   2.0000      -8.081556      -219.9103
  17   2.0000      -8.080132      -219.8716
  18   2.0000      -6.040037      -164.3578
  19   2.0000      -6.038578      -164.3181
  20   2.0000      -6.036241      -164.2545
  21   2.0000      -6.034527      -164.2078
  22   2.0000      -6.032458      -164.1515
  23   2.0000      -6.031105      -164.1147
  24   2.0000      -1.001491       -27.2520
  25   2.0000      -0.974159       -26.5082
  26   2.0000      -0.914088       -24.8736
  27   2.0000      -0.903346       -24.5813
  28   2.0000      -0.870003       -23.6740
  29   2.0000      -0.847715       -23.0675
  30   2.0000      -0.845560       -23.0089
  31   2.0000      -0.810649       -22.0589
  32   2.0000      -0.784148       -21.3378
  33   2.0000      -0.768659       -20.9163
  34   2.0000      -0.713534       -19.4162
  35   2.0000      -0.703216       -19.1355
  36   2.0000      -0.699952       -19.0467
  37   2.0000      -0.651776       -17.7357
  38   2.0000      -0.641605       -17.4590
  39   2.0000      -0.617964       -16.8157
  40   2.0000      -0.592470       -16.1219
  41   2.0000      -0.571731       -15.5576
  42   2.0000      -0.565059       -15.3760
  43   2.0000      -0.560426       -15.2500
  44   2.0000      -0.529665       -14.4129
  45   2.0000      -0.526851       -14.3363
  46   2.0000      -0.512044       -13.9334
  47   2.0000      -0.511128       -13.9085
  48   2.0000      -0.505818       -13.7640
  49   2.0000      -0.495402       -13.4806
  50   2.0000      -0.493219       -13.4212
  51   2.0000      -0.480216       -13.0673
  52   2.0000      -0.469335       -12.7712
  53   2.0000      -0.463990       -12.6258
  54   2.0000      -0.458468       -12.4755
  55   2.0000      -0.451574       -12.2880
  56   2.0000      -0.445211       -12.1148
  57   2.0000      -0.438543       -11.9334
  58   2.0000      -0.431547       -11.7430
  59   2.0000      -0.426832       -11.6147
  60   2.0000      -0.422463       -11.4958
  61   2.0000      -0.418551       -11.3894
  62   2.0000      -0.413066       -11.2401
  63   2.0000      -0.335943        -9.1415
  64   2.0000      -0.329016        -8.9530
  65   2.0000      -0.322207        -8.7677
  66   2.0000      -0.294979        -8.0268
  67   0.0000       0.034139         0.9290
  68   0.0000       0.050049         1.3619
  69   0.0000       0.109033         2.9669
  70   0.0000       0.117967         3.2100
  71   0.0000       0.130711         3.5568

MULLIKEN ATOMIC CHARGES
-----------------------
   0 S :    0.118777
   1 C :   -0.135928
   2 C :   -0.081226
   3 C :    0.038264
   4 C :   -0.191232
   5 H :    0.022896
   6 C :   -0.014894
   7 H :    0.029727
   8 H :    0.048435
   9 C :   -0.001526
  10 H :    0.020934
  11 H :    0.023176
  12 C :   -0.024145
  13 H :    0.025389
  14 H :    0.034920
  15 H :    0.011734
  16 S :    0.117476
  17 C :   -0.080362
  18 C :   -0.036146
  19 C :   -0.000523
  20 C :   -0.182360
  21 H :   -0.015818
  22 C :    0.110991
  23 H :    0.018849
  24 H :    0.015238
  25 C :   -0.149791
  26 H :    0.035185
  27 H :    0.040381
  28 C :    0.017218
  29 H :    0.025623
  30 H :    0.036368
  31 H :    0.019998
  32 H :    0.051946
  33 H :    0.050427
Sum of atomic charges:   -0.0000000

LOEWDIN ATOMIC CHARGES
----------------------
   0 S :    0.414254
   1 C :   -0.191780
   2 C :   -0.068184
   3 C :   -0.063112
   4 C :   -0.213739
   5 H :    0.036502
   6 C :   -0.037968
   7 H :    0.030943
   8 H :    0.043743
   9 C :   -0.030149
  10 H :    0.018581
  11 H :    0.025898
  12 C :   -0.063159
  13 H :    0.025475
  14 H :    0.028933
  15 H :    0.017933
  16 S :    0.389568
  17 C :   -0.174120
  18 C :   -0.063256
  19 C :   -0.040282
  20 C :   -0.201210
  21 H :    0.014000
  22 C :   -0.031786
  23 H :    0.025752
  24 H :    0.030030
  25 C :   -0.048051
  26 H :    0.027640
  27 H :    0.025448
  28 C :   -0.054826
  29 H :    0.026700
  30 H :    0.024152
  31 H :    0.023588
  32 H :    0.026246
  33 H :    0.026236

  Mayer bond orders larger than 0.100000
B(  0-S ,  1-C ) :   1.1476 B(  0-S ,  4-C ) :   1.1703 B(  1-C ,  2-C ) :   1.5588
B(  1-C ,  4-C ) :   0.1156 B(  1-C , 32-H ) :   0.9761 B(  2-C ,  3-C ) :   1.2643
B(  2-C ,  6-C ) :   1.0209 B(  3-C ,  4-C ) :   1.5551 B(  3-C ,  5-H ) :   0.9895
B(  4-C , 20-C ) :   1.0417 B(  6-C ,  7-H ) :   0.9467 B(  6-C ,  8-H ) :   0.9363
B(  6-C ,  9-C ) :   1.0534 B(  9-C , 10-H ) :   0.9593 B(  9-C , 11-H ) :   0.9502
B(  9-C , 12-C ) :   1.0782 B( 12-C , 13-H ) :   0.9750 B( 12-C , 14-H ) :   0.9745
B( 12-C , 15-H ) :   0.9692 B( 16-S , 17-C ) :   1.1602 B( 16-S , 20-C ) :   1.1378
B( 17-C , 18-C ) :   1.5962 B( 17-C , 20-C ) :   0.1162 B( 17-C , 33-H ) :   0.9633
B( 18-C , 19-C ) :   1.2501 B( 18-C , 21-H ) :   1.0016 B( 19-C , 20-C ) :   1.5818
B( 19-C , 22-C ) :   1.0232 B( 22-C , 23-H ) :   0.9326 B( 22-C , 24-H ) :   0.9206
B( 22-C , 25-C ) :   1.0785 B( 25-C , 26-H ) :   0.9551 B( 25-C , 27-H ) :   0.9494
B( 25-C , 28-C ) :   1.0796 B( 28-C , 29-H ) :   0.9718 B( 28-C , 30-H ) :   0.9749
B( 28-C , 31-H ) :   0.9724

Dispersion correction           -0.013530746
FINAL SINGLE POINT ENERGY     -1339.865180330092

DIPOLE MOMENT
-------------
                                X             Y             Z
Electronic contribution:     -7.12205      20.47326     -15.70540
Nuclear contribution   :      7.23773     -20.93126      16.09926
                        -----------------------------------------
Total Dipole Moment    :      0.11568      -0.45800       0.39385
                        -----------------------------------------
Magnitude (a.u.)       :      0.61503
Magnitude (Debye)      :      1.56329

Rotational constants in cm-1:     0.017527     0.007632     0.006189
Rotational constants in MHz :   525.433855   228.814701   185.551545

                             ****ORCA TERMINATED NORMALLY****
TOTAL RUN TIME: 0 days 0 hours 0 minutes 20 seconds 810 msec
