                         Program Version 4.2.1 -  RELEASE  -
|  1> ! wB97X-D3 SP def2-SVP
|  2> %pal
|  3> nprocs 24
|  4> end
|  5>
|  6> * xyz 0 1
|  7> S 	 24.8459 	 -4.18704 	 -112.511
|  8> C 	 24.5529 	 -4.5246 	 -114.155
|  9> C 	 23.2569 	 -4.32008 	 -114.498
| 10> C 	 22.4581 	 -4.02586 	 -113.355
| 11> C 	 23.1297 	 -3.95355 	 -112.162
| 12> H 	 21.3321 	 -3.92088 	 -113.369
| 13> C 	 22.6497 	 -4.48833 	 -115.945
| 14> H 	 23.4189 	 -4.5561 	 -116.77
| 15> H 	 22.2054 	 -3.51007 	 -116.19
| 16> C 	 21.6171 	 -5.65725 	 -116.039
| 17> H 	 20.9307 	 -5.55127 	 -115.188
| 18> H 	 21.0292 	 -5.44689 	 -116.962
| 19> C 	 22.1816 	 -6.99597 	 -115.822
| 20> H 	 22.8084 	 -7.2739 	 -116.679
| 21> H 	 22.8224 	 -7.20171 	 -114.882
| 22> H 	 21.3578 	 -7.73928 	 -115.828
| 23> S 	 22.8058 	 -2.07122 	 -110.256
| 24> C 	 21.8658 	 -2.34454 	 -108.739
| 25> C 	 21.1371 	 -3.54198 	 -108.907
| 26> C 	 21.6631 	 -4.33187 	 -110.007
| 27> C 	 22.5685 	 -3.67467 	 -110.852
| 28> H 	 20.3556 	 -3.84373 	 -108.213
| 29> C 	 21.1088 	 -5.73178 	 -110.255
| 30> H 	 20.9041 	 -5.66572 	 -111.347
| 31> H 	 20.1658 	 -5.88131 	 -109.756
| 32> C 	 22.0522 	 -6.93239 	 -109.883
| 33> H 	 22.2553 	 -6.83951 	 -108.83
| 34> H 	 22.9919 	 -6.64655 	 -110.457
| 35> C 	 21.5652 	 -8.29004 	 -110.331
| 36> H 	 22.4306 	 -8.99349 	 -110.454
| 37> H 	 21.1706 	 -8.1866 	 -111.304
| 38> H 	 20.8157 	 -8.76586 	 -109.706
| 39> H 	 25.2263 	 -4.99999 	 -114.933
| 40> H 	 21.412 	 -1.60821 	 -108.153
| 41> *
| 42>
| 43>                          ****END OF INPUT****

CARTESIAN COORDINATES (ANGSTROEM)
---------------------------------
  S     24.845900   -4.187040  -112.511000
  C     24.552900   -4.524600  -114.155000
  C     23.256900   -4.320080  -114.498000
  C     22.458100   -4.025860  -113.355000
  C     23.129700   -3.953550  -112.162000
  H     21.332100   -3.920880  -113.369000
  C     22.649700   -4.488330  -115.945000
  H     23.418900   -4.556100  -116.770000
  H     22.205400   -3.510070  -116.190000
  C     21.617100   -5.657250  -116.039000
  H     20.930700   -5.551270  -115.188000
  H     21.029200   -5.446890  -116.962000
  C     22.181600   -6.995970  -115.822000
  H     22.808400   -7.273900  -116.679000
  H     22.822400   -7.201710  -114.882000
  H     21.357800   -7.739280  -115.828000
  S     22.805800   -2.071220  -110.256000
  C     21.865800   -2.344540  -108.739000
  C     21.137100   -3.541980  -108.907000
  C     21.663100   -4.331870  -110.007000
  C     22.568500   -3.674670  -110.852000
  H     20.355600   -3.843730  -108.213000
  C     21.108800   -5.731780  -110.255000
  H     20.904100   -5.665720  -111.347000
  H     20.165800   -5.881310  -109.756000
  C     22.052200   -6.932390  -109.883000
  H     22.255300   -6.839510  -108.830000
  H     22.991900   -6.646550  -110.457000
  C     21.565200   -8.290040  -110.331000
  H     22.430600   -8.993490  -110.454000
  H     21.170600   -8.186600  -111.304000
  H     20.815700   -8.765860  -109.706000
  H     25.226300   -4.999990  -114.933000
  H     21.412000   -1.608210  -108.153000

 Total Charge           Charge          ....    0
 Multiplicity           Mult            ....    1
 Number of Electrons    NEL             ....  134
 Basis Dimension        Dim             ....  322

ORBITAL ENERGIES
----------------

  NO   OCC          E(Eh)            E(eV)
   0   2.0000     -88.967939     -2420.9407
   1   2.0000     -88.964724     -2420.8532
   2   2.0000     -10.333161      -281.1796
   3   2.0000     -10.330758      -281.1142
   4   2.0000     -10.318425      -280.7786
   5   2.0000     -10.316227      -280.7188
   6   2.0000     -10.308174      -280.4997
   7   2.0000     -10.304928      -280.4113
   8   2.0000     -10.302573      -280.3473
   9   2.0000     -10.302235      -280.3381
  10   2.0000     -10.301554      -280.3195
  11   2.0000     -10.292331      -280.0686
  12   2.0000     -10.288892      -279.9750
  13   2.0000     -10.286357      -279.9060
  14   2.0000     -10.284545      -279.8567
  15   2.0000     -10.274982      -279.5965
  16   2.0000      -8.083191      -219.9548
  17   2.0000      -8.078955      -219.8395
  18   2.0000      -6.041722      -164.4036
  19   2.0000      -6.037632      -164.2923
  20   2.0000      -6.037571      -164.2907
  21   2.0000      -6.033909      -164.1910
  22   2.0000      -6.033415      -164.1776
  23   2.0000      -6.029646      -164.0750
  24   2.0000      -1.011186       -27.5158
  25   2.0000      -0.984422       -26.7875
  26   2.0000      -0.910841       -24.7852
  27   2.0000      -0.901181       -24.5224
  28   2.0000      -0.875481       -23.8231
  29   2.0000      -0.849190       -23.1076
  30   2.0000      -0.845365       -23.0036
  31   2.0000      -0.818023       -22.2595
  32   2.0000      -0.781576       -21.2678
  33   2.0000      -0.767796       -20.8928
  34   2.0000      -0.709906       -19.3175
  35   2.0000      -0.691333       -18.8121
  36   2.0000      -0.687938       -18.7197
  37   2.0000      -0.665828       -18.1181
  38   2.0000      -0.638731       -17.3808
  39   2.0000      -0.621493       -16.9117
  40   2.0000      -0.582952       -15.8629
  41   2.0000      -0.574123       -15.6227
  42   2.0000      -0.564034       -15.3482
  43   2.0000      -0.548432       -14.9236
  44   2.0000      -0.540380       -14.7045
  45   2.0000      -0.518609       -14.1121
  46   2.0000      -0.515347       -14.0233
  47   2.0000      -0.513129       -13.9630
  48   2.0000      -0.505440       -13.7537
  49   2.0000      -0.503523       -13.7016
  50   2.0000      -0.490076       -13.3357
  51   2.0000      -0.486389       -13.2353
  52   2.0000      -0.472913       -12.8686
  53   2.0000      -0.471225       -12.8227
  54   2.0000      -0.455311       -12.3897
  55   2.0000      -0.449364       -12.2278
  56   2.0000      -0.440688       -11.9917
  57   2.0000      -0.433917       -11.8075
  58   2.0000      -0.428144       -11.6504
  59   2.0000      -0.416218       -11.3259
  60   2.0000      -0.415852       -11.3159
  61   2.0000      -0.412292       -11.2190
  62   2.0000      -0.406309       -11.0562
  63   2.0000      -0.343911        -9.3583
  64   2.0000      -0.332009        -9.0344
  65   2.0000      -0.325517        -8.8578
  66   2.0000      -0.303914        -8.2699
  67   0.0000       0.033740         0.9181
  68   0.0000       0.050347         1.3700
  69   0.0000       0.104377         2.8403
  70   0.0000       0.125563         3.4167
  71   0.0000       0.128216         3.4889

MULLIKEN ATOMIC CHARGES
-----------------------
   0 S :    0.129106
   1 C :   -0.130161
   2 C :   -0.100373
   3 C :    0.030603
   4 C :   -0.186190
   5 H :    0.040801
   6 C :    0.037227
   7 H :    0.026327
   8 H :    0.036542
   9 C :   -0.068360
  10 H :    0.024252
  11 H :    0.043914
  12 C :   -0.072232
  13 H :    0.022189
  14 H :    0.062576
  15 H :    0.036597
  16 S :    0.094515
  17 C :   -0.061796
  18 C :   -0.063836
  19 C :   -0.067416
  20 C :   -0.139091
  21 H :    0.035255
  22 C :    0.054396
  23 H :    0.022043
  24 H :    0.010034
  25 C :   -0.080348
  26 H :    0.029335
  27 H :    0.037244
  28 C :   -0.016943
  29 H :    0.039930
  30 H :    0.014306
  31 H :    0.035287
  32 H :    0.071353
  33 H :    0.052915
Sum of atomic charges:   -0.0000000

LOEWDIN ATOMIC CHARGES
----------------------
   0 S :    0.419720
   1 C :   -0.217732
   2 C :   -0.075775
   3 C :   -0.060568
   4 C :   -0.205594
   5 H :    0.041096
   6 C :   -0.033299
   7 H :    0.030355
   8 H :    0.033263
   9 C :   -0.051276
  10 H :    0.024300
  11 H :    0.033185
  12 C :   -0.077779
  13 H :    0.020999
  14 H :    0.041813
  15 H :    0.030232
  16 S :    0.407028
  17 C :   -0.178720
  18 C :   -0.059310
  19 C :   -0.057732
  20 C :   -0.208931
  21 H :    0.034187
  22 C :   -0.037281
  23 H :    0.030275
  24 H :    0.020521
  25 C :   -0.040404
  26 H :    0.021043
  27 H :    0.032588
  28 C :   -0.067052
  29 H :    0.035852
  30 H :    0.020305
  31 H :    0.024628
  32 H :    0.049337
  33 H :    0.020726

  Mayer bond orders larger than 0.100000
B(  0-S ,  1-C ) :   1.1505 B(  0-S ,  4-C ) :   1.1345 B(  1-C ,  2-C ) :   1.6341
B(  1-C , 32-H ) :   0.9511 B(  2-C ,  3-C ) :   1.2437 B(  2-C ,  6-C ) :   1.0042
B(  3-C ,  4-C ) :   1.5989 B(  3-C ,  5-H ) :   0.9794 B(  4-C , 20-C ) :   1.0202
B(  6-C ,  7-H ) :   0.9503 B(  6-C ,  8-H ) :   0.9425 B(  6-C ,  9-C ) :   1.0621
B(  9-C , 10-H ) :   0.9566 B(  9-C , 11-H ) :   0.9536 B(  9-C , 12-C ) :   1.0740
B( 12-C , 13-H ) :   0.9725 B( 12-C , 14-H ) :   0.9690 B( 12-C , 15-H ) :   0.9700
B( 16-S , 17-C ) :   1.1476 B( 16-S , 20-C ) :   1.1602 B( 17-C , 18-C ) :   1.6033
B( 17-C , 20-C ) :   0.1058 B( 17-C , 33-H ) :   0.9635 B( 18-C , 19-C ) :   1.2623
B( 18-C , 21-H ) :   0.9822 B( 19-C , 20-C ) :   1.5811 B( 19-C , 22-C ) :   1.0400
B( 22-C , 23-H ) :   0.9315 B( 22-C , 24-H ) :   0.9376 B( 22-C , 25-C ) :   1.0580
B( 25-C , 26-H ) :   0.9569 B( 25-C , 27-H ) :   0.9564 B( 25-C , 28-C ) :   1.0823
B( 28-C , 29-H ) :   0.9726 B( 28-C , 30-H ) :   0.9702 B( 28-C , 31-H ) :   0.9747

Dispersion correction           -0.014782032
FINAL SINGLE POINT ENERGY     -1339.861087733136

DIPOLE MOMENT
-------------
                                X             Y             Z
Electronic contribution:     12.44439      23.19392      11.20978
Nuclear contribution   :    -13.10685     -23.60468     -11.64499
                        -----------------------------------------
Total Dipole Moment    :     -0.66246      -0.41076      -0.43521
                        -----------------------------------------
Magnitude (a.u.)       :      0.89274
Magnitude (Debye)      :      2.26917

Rotational constants in cm-1:     0.017448     0.009425     0.007383
Rotational constants in MHz :   523.068534   282.557841   221.330316

                             ****ORCA TERMINATED NORMALLY****
TOTAL RUN TIME: 0 days 0 hours 0 minutes 22 seconds 62 msec
