                         Program Version 4.2.1 -  RELEASE  -
|  1> ! wB97X-D3 SP def2-SVP
|  2> %pal
|  3> nprocs 24
|  4> end
|  5>
|  6> * xyz 0 1
|  7> S 	 -109.061 	 15.4983 	 -122.639
|  8> C 	 -110.64 	 14.8737 	 -122.847
|  9> C 	 -111.511 	 15.9128 	 -123.115
| 10> C 	 -110.816 	 17.1701 	 -123.208
| 11> C 	 -109.496 	 17.1241 	 -123.078
| 12> H 	 -111.209 	 18.1686 	 -123.353
| 13> C 	 -113.02 	 15.7827 	 -123.026
| 14> H 	 -113.382 	 16.6894 	 -123.605
| 15> H 	 -113.337 	 15.9764 	 -122.029
| 16> C 	 -113.69 	 14.5503 	 -123.618
| 17> H 	 -113.58 	 13.6826 	 -122.911
| 18> H 	 -114.754 	 14.8112 	 -123.704
| 19> C 	 -113.192 	 14.2627 	 -125.069
| 20> H 	 -113.002 	 15.1149 	 -125.606
| 21> H 	 -112.198 	 13.7123 	 -125.091
| 22> H 	 -114.1 	 13.8151 	 -125.603
| 23> S 	 -107.466 	 18.3849 	 -121.656
| 24> C 	 -106.888 	 19.9683 	 -122.166
| 25> C 	 -107.378 	 20.2265 	 -123.419
| 26> C 	 -108.321 	 19.2684 	 -123.961
| 27> C 	 -108.617 	 18.2535 	 -122.985
| 28> H 	 -107.254 	 21.2138 	 -123.925
| 29> C 	 -109.005 	 19.5084 	 -125.303
| 30> H 	 -109.173 	 20.5823 	 -125.343
| 31> H 	 -109.95 	 18.9659 	 -125.345
| 32> C 	 -108.216 	 18.8724 	 -126.459
| 33> H 	 -108.256 	 17.7993 	 -126.412
| 34> H 	 -107.271 	 19.281 	 -126.712
| 35> C 	 -109.007 	 19.0182 	 -127.758
| 36> H 	 -109.244 	 20.0202 	 -128.187
| 37> H 	 -109.981 	 18.537 	 -127.644
| 38> H 	 -108.477 	 18.486 	 -128.566
| 39> H 	 -110.919 	 13.7827 	 -122.772
| 40> H 	 -106.345 	 20.6443 	 -121.527
| 41> *
| 42>
| 43>                          ****END OF INPUT****

CARTESIAN COORDINATES (ANGSTROEM)
---------------------------------
  S    -109.061000   15.498300  -122.639000
  C    -110.640000   14.873700  -122.847000
  C    -111.511000   15.912800  -123.115000
  C    -110.816000   17.170100  -123.208000
  C    -109.496000   17.124100  -123.078000
  H    -111.209000   18.168600  -123.353000
  C    -113.020000   15.782700  -123.026000
  H    -113.382000   16.689400  -123.605000
  H    -113.337000   15.976400  -122.029000
  C    -113.690000   14.550300  -123.618000
  H    -113.580000   13.682600  -122.911000
  H    -114.754000   14.811200  -123.704000
  C    -113.192000   14.262700  -125.069000
  H    -113.002000   15.114900  -125.606000
  H    -112.198000   13.712300  -125.091000
  H    -114.100000   13.815100  -125.603000
  S    -107.466000   18.384900  -121.656000
  C    -106.888000   19.968300  -122.166000
  C    -107.378000   20.226500  -123.419000
  C    -108.321000   19.268400  -123.961000
  C    -108.617000   18.253500  -122.985000
  H    -107.254000   21.213800  -123.925000
  C    -109.005000   19.508400  -125.303000
  H    -109.173000   20.582300  -125.343000
  H    -109.950000   18.965900  -125.345000
  C    -108.216000   18.872400  -126.459000
  H    -108.256000   17.799300  -126.412000
  H    -107.271000   19.281000  -126.712000
  C    -109.007000   19.018200  -127.758000
  H    -109.244000   20.020200  -128.187000
  H    -109.981000   18.537000  -127.644000
  H    -108.477000   18.486000  -128.566000
  H    -110.919000   13.782700  -122.772000
  H    -106.345000   20.644300  -121.527000

 Total Charge           Charge          ....    0
 Multiplicity           Mult            ....    1
 Number of Electrons    NEL             ....  134
 Basis Dimension        Dim             ....  322

ORBITAL ENERGIES
----------------

  NO   OCC          E(Eh)            E(eV)
   0   2.0000     -88.964605     -2420.8500
   1   2.0000     -88.961412     -2420.7631
   2   2.0000     -10.332262      -281.1551
   3   2.0000     -10.321539      -280.8633
   4   2.0000     -10.320183      -280.8265
   5   2.0000     -10.316415      -280.7239
   6   2.0000     -10.309840      -280.5450
   7   2.0000     -10.301112      -280.3075
   8   2.0000     -10.298718      -280.2424
   9   2.0000     -10.296245      -280.1751
  10   2.0000     -10.294325      -280.1228
  11   2.0000     -10.291228      -280.0386
  12   2.0000     -10.288584      -279.9666
  13   2.0000     -10.282910      -279.8122
  14   2.0000     -10.282008      -279.7877
  15   2.0000     -10.276659      -279.6421
  16   2.0000      -8.079003      -219.8408
  17   2.0000      -8.077347      -219.7958
  18   2.0000      -6.037614      -164.2918
  19   2.0000      -6.035903      -164.2453
  20   2.0000      -6.033468      -164.1790
  21   2.0000      -6.031615      -164.1286
  22   2.0000      -6.029759      -164.0781
  23   2.0000      -6.028039      -164.0313
  24   2.0000      -1.013338       -27.5743
  25   2.0000      -0.984031       -26.7768
  26   2.0000      -0.913242       -24.8506
  27   2.0000      -0.912112       -24.8198
  28   2.0000      -0.874525       -23.7970
  29   2.0000      -0.851261       -23.1640
  30   2.0000      -0.843972       -22.9657
  31   2.0000      -0.815639       -22.1947
  32   2.0000      -0.780990       -21.2518
  33   2.0000      -0.769727       -20.9453
  34   2.0000      -0.704578       -19.1725
  35   2.0000      -0.703494       -19.1431
  36   2.0000      -0.693453       -18.8698
  37   2.0000      -0.658368       -17.9151
  38   2.0000      -0.642393       -17.4804
  39   2.0000      -0.611272       -16.6335
  40   2.0000      -0.596948       -16.2438
  41   2.0000      -0.574524       -15.6336
  42   2.0000      -0.572245       -15.5716
  43   2.0000      -0.553579       -15.0637
  44   2.0000      -0.539430       -14.6786
  45   2.0000      -0.525832       -14.3086
  46   2.0000      -0.519965       -14.1490
  47   2.0000      -0.514336       -13.9958
  48   2.0000      -0.505650       -13.7594
  49   2.0000      -0.501459       -13.6454
  50   2.0000      -0.498085       -13.5536
  51   2.0000      -0.475656       -12.9433
  52   2.0000      -0.471298       -12.8247
  53   2.0000      -0.463839       -12.6217
  54   2.0000      -0.455774       -12.4022
  55   2.0000      -0.442139       -12.0312
  56   2.0000      -0.439223       -11.9519
  57   2.0000      -0.433112       -11.7856
  58   2.0000      -0.430534       -11.7154
  59   2.0000      -0.428172       -11.6512
  60   2.0000      -0.424878       -11.5615
  61   2.0000      -0.412504       -11.2248
  62   2.0000      -0.406829       -11.0704
  63   2.0000      -0.356760        -9.7079
  64   2.0000      -0.329762        -8.9733
  65   2.0000      -0.323956        -8.8153
  66   2.0000      -0.290826        -7.9138
  67   0.0000       0.030225         0.8225
  68   0.0000       0.065625         1.7858
  69   0.0000       0.114757         3.1227
  70   0.0000       0.119356         3.2478
  71   0.0000       0.130344         3.5468

MULLIKEN ATOMIC CHARGES
-----------------------
   0 S :    0.102178
   1 C :   -0.146093
   2 C :   -0.090432
   3 C :    0.005485
   4 C :   -0.126703
   5 H :    0.014733
   6 C :    0.057150
   7 H :    0.021111
   8 H :    0.039282
   9 C :   -0.097151
  10 H :    0.044224
  11 H :    0.036627
  12 C :   -0.050691
  13 H :    0.010709
  14 H :    0.049252
  15 H :    0.044922
  16 S :    0.095036
  17 C :   -0.092335
  18 C :   -0.028459
  19 C :   -0.051129
  20 C :   -0.163035
  21 H :    0.032859
  22 C :    0.076448
  23 H :    0.033794
  24 H :    0.009568
  25 C :   -0.036156
  26 H :    0.040515
  27 H :    0.031065
  28 C :   -0.088833
  29 H :    0.029122
  30 H :    0.020543
  31 H :    0.033752
  32 H :    0.079624
  33 H :    0.063016
Sum of atomic charges:   -0.0000000

LOEWDIN ATOMIC CHARGES
----------------------
   0 S :    0.416452
   1 C :   -0.215007
   2 C :   -0.072220
   3 C :   -0.066944
   4 C :   -0.201936
   5 H :    0.032373
   6 C :   -0.036505
   7 H :    0.032627
   8 H :    0.028808
   9 C :   -0.047673
  10 H :    0.027098
  11 H :    0.030510
  12 C :   -0.070632
  13 H :    0.011320
  14 H :    0.035980
  15 H :    0.038084
  16 S :    0.393477
  17 C :   -0.180673
  18 C :   -0.077131
  19 C :   -0.051035
  20 C :   -0.194426
  21 H :    0.035878
  22 C :   -0.028011
  23 H :    0.032249
  24 H :    0.031662
  25 C :   -0.029944
  26 H :    0.034930
  27 H :    0.020564
  28 C :   -0.072856
  29 H :    0.020914
  30 H :    0.019065
  31 H :    0.026332
  32 H :    0.044576
  33 H :    0.032094

  Mayer bond orders larger than 0.100000
B(  0-S ,  1-C ) :   1.1504 B(  0-S ,  4-C ) :   1.1314 B(  1-C ,  2-C ) :   1.5935
B(  1-C , 32-H ) :   0.9619 B(  2-C ,  3-C ) :   1.2371 B(  2-C ,  6-C ) :   1.0111
B(  3-C ,  4-C ) :   1.6054 B(  3-C ,  5-H ) :   0.9931 B(  4-C , 20-C ) :   1.0584
B(  6-C ,  7-H ) :   0.9402 B(  6-C ,  8-H ) :   0.9405 B(  6-C ,  9-C ) :   1.0817
B(  9-C , 10-H ) :   0.9524 B(  9-C , 11-H ) :   0.9586 B(  9-C , 12-C ) :   1.0718
B( 12-C , 13-H ) :   0.9747 B( 12-C , 14-H ) :   0.9696 B( 12-C , 15-H ) :   0.9774
B( 16-S , 17-C ) :   1.1473 B( 16-S , 20-C ) :   1.1385 B( 17-C , 18-C ) :   1.6018
B( 17-C , 20-C ) :   0.1037 B( 17-C , 33-H ) :   0.9727 B( 18-C , 19-C ) :   1.2526
B( 18-C , 21-H ) :   0.9753 B( 19-C , 20-C ) :   1.5578 B( 19-C , 22-C ) :   1.0474
B( 22-C , 23-H ) :   0.9412 B( 22-C , 24-H ) :   0.9283 B( 22-C , 25-C ) :   1.0732
B( 25-C , 26-H ) :   0.9542 B( 25-C , 27-H ) :   0.9592 B( 25-C , 28-C ) :   1.0759
B( 28-C , 29-H ) :   0.9744 B( 28-C , 30-H ) :   0.9736 B( 28-C , 31-H ) :   0.9761

Dispersion correction           -0.013978775
FINAL SINGLE POINT ENERGY     -1339.861049194964

DIPOLE MOMENT
-------------
                                X             Y             Z
Electronic contribution:     18.03898       0.97617      21.98481
Nuclear contribution   :    -18.56851      -0.62902     -22.29884
                        -----------------------------------------
Total Dipole Moment    :     -0.52953       0.34715      -0.31403
                        -----------------------------------------
Magnitude (a.u.)       :      0.70678
Magnitude (Debye)      :      1.79649

Rotational constants in cm-1:     0.018930     0.008579     0.006607
Rotational constants in MHz :   567.503787   257.185719   198.082675

                             ****ORCA TERMINATED NORMALLY****
TOTAL RUN TIME: 0 days 0 hours 0 minutes 21 seconds 393 msec
