                         Program Version 4.2.1 -  RELEASE  -
|  1> ! wB97X-D3 SP def2-SVP
|  2> %pal
|  3> nprocs 24
|  4> end
|  5>
|  6> * xyz 0 1
|  7> S 	 -119.66 	 13.7914 	 -13.9337
|  8> C 	 -119.444 	 14.0825 	 -12.2865
|  9> C 	 -119.599 	 12.9795 	 -11.4877
| 10> C 	 -119.905 	 11.8174 	 -12.2917
| 11> C 	 -120.173 	 12.1333 	 -13.5916
| 12> H 	 -119.984 	 10.831 	 -12.0108
| 13> C 	 -119.261 	 12.9271 	 -9.98013
| 14> H 	 -119.522 	 11.9939 	 -9.51649
| 15> H 	 -119.815 	 13.6661 	 -9.3437
| 16> C 	 -117.785 	 13.1416 	 -9.76228
| 17> H 	 -117.165 	 12.5402 	 -10.3698
| 18> H 	 -117.504 	 14.191 	 -9.94994
| 19> C 	 -117.517 	 12.929 	 -8.31741
| 20> H 	 -116.471 	 13.1907 	 -7.98384
| 21> H 	 -118.169 	 13.5665 	 -7.70674
| 22> H 	 -117.557 	 11.8259 	 -8.04319
| 23> S 	 -119.186 	 10.7819 	 -15.8023
| 24> C 	 -120.055 	 9.29852 	 -16.2133
| 25> C 	 -121.365 	 9.27233 	 -15.7529
| 26> C 	 -121.567 	 10.2397 	 -14.7504
| 27> C 	 -120.481 	 11.1466 	 -14.6519
| 28> H 	 -122.076 	 8.49001 	 -15.9787
| 29> C 	 -122.795 	 10.4143 	 -13.9532
| 30> H 	 -122.79 	 11.4043 	 -13.4328
| 31> H 	 -122.736 	 9.64121 	 -13.1793
| 32> C 	 -124.172 	 10.4129 	 -14.6453
| 33> H 	 -124.995 	 10.4815 	 -13.8807
| 34> H 	 -124.302 	 9.50508 	 -15.1759
| 35> C 	 -124.304 	 11.5038 	 -15.6864
| 36> H 	 -124.509 	 12.5226 	 -15.2535
| 37> H 	 -125.04 	 11.2714 	 -16.4402
| 38> H 	 -123.388 	 11.6009 	 -16.2322
| 39> H 	 -119.091 	 14.9215 	 -11.8324
| 40> H 	 -119.673 	 8.56943 	 -16.9663
| 41> *
| 42>
| 43>                          ****END OF INPUT****

CARTESIAN COORDINATES (ANGSTROEM)
---------------------------------
  S    -119.660000   13.791400  -13.933700
  C    -119.444000   14.082500  -12.286500
  C    -119.599000   12.979500  -11.487700
  C    -119.905000   11.817400  -12.291700
  C    -120.173000   12.133300  -13.591600
  H    -119.984000   10.831000  -12.010800
  C    -119.261000   12.927100   -9.980130
  H    -119.522000   11.993900   -9.516490
  H    -119.815000   13.666100   -9.343700
  C    -117.785000   13.141600   -9.762280
  H    -117.165000   12.540200  -10.369800
  H    -117.504000   14.191000   -9.949940
  C    -117.517000   12.929000   -8.317410
  H    -116.471000   13.190700   -7.983840
  H    -118.169000   13.566500   -7.706740
  H    -117.557000   11.825900   -8.043190
  S    -119.186000   10.781900  -15.802300
  C    -120.055000    9.298520  -16.213300
  C    -121.365000    9.272330  -15.752900
  C    -121.567000   10.239700  -14.750400
  C    -120.481000   11.146600  -14.651900
  H    -122.076000    8.490010  -15.978700
  C    -122.795000   10.414300  -13.953200
  H    -122.790000   11.404300  -13.432800
  H    -122.736000    9.641210  -13.179300
  C    -124.172000   10.412900  -14.645300
  H    -124.995000   10.481500  -13.880700
  H    -124.302000    9.505080  -15.175900
  C    -124.304000   11.503800  -15.686400
  H    -124.509000   12.522600  -15.253500
  H    -125.040000   11.271400  -16.440200
  H    -123.388000   11.600900  -16.232200
  H    -119.091000   14.921500  -11.832400
  H    -119.673000    8.569430  -16.966300

 Total Charge           Charge          ....    0
 Multiplicity           Mult            ....    1
 Number of Electrons    NEL             ....  134
 Basis Dimension        Dim             ....  322

ORBITAL ENERGIES
----------------

  NO   OCC          E(Eh)            E(eV)
   0   2.0000     -88.968249     -2420.9491
   1   2.0000     -88.964637     -2420.8508
   2   2.0000     -10.326878      -281.0086
   3   2.0000     -10.324844      -280.9533
   4   2.0000     -10.324149      -280.9344
   5   2.0000     -10.303303      -280.3671
   6   2.0000     -10.299854      -280.2733
   7   2.0000     -10.298790      -280.2443
   8   2.0000     -10.295812      -280.1633
   9   2.0000     -10.293811      -280.1088
  10   2.0000     -10.288434      -279.9625
  11   2.0000     -10.286750      -279.9167
  12   2.0000     -10.285419      -279.8805
  13   2.0000     -10.282602      -279.8038
  14   2.0000     -10.278506      -279.6924
  15   2.0000     -10.269949      -279.4595
  16   2.0000      -8.082458      -219.9349
  17   2.0000      -8.080266      -219.8752
  18   2.0000      -6.040849      -164.3799
  19   2.0000      -6.038673      -164.3207
  20   2.0000      -6.037232      -164.2814
  21   2.0000      -6.034789      -164.2150
  22   2.0000      -6.033184      -164.1713
  23   2.0000      -6.030960      -164.1108
  24   2.0000      -1.006735       -27.3946
  25   2.0000      -0.985297       -26.8113
  26   2.0000      -0.920462       -25.0470
  27   2.0000      -0.910827       -24.7849
  28   2.0000      -0.869659       -23.6646
  29   2.0000      -0.853225       -23.2174
  30   2.0000      -0.848259       -23.0823
  31   2.0000      -0.814644       -22.1676
  32   2.0000      -0.778605       -21.1869
  33   2.0000      -0.766281       -20.8516
  34   2.0000      -0.704151       -19.1609
  35   2.0000      -0.698431       -19.0053
  36   2.0000      -0.691234       -18.8094
  37   2.0000      -0.658255       -17.9120
  38   2.0000      -0.650998       -17.7145
  39   2.0000      -0.617426       -16.8010
  40   2.0000      -0.596588       -16.2340
  41   2.0000      -0.575031       -15.6474
  42   2.0000      -0.567600       -15.4452
  43   2.0000      -0.557186       -15.1618
  44   2.0000      -0.541450       -14.7336
  45   2.0000      -0.521822       -14.1995
  46   2.0000      -0.513107       -13.9623
  47   2.0000      -0.511297       -13.9131
  48   2.0000      -0.502161       -13.6645
  49   2.0000      -0.492545       -13.4028
  50   2.0000      -0.489485       -13.3196
  51   2.0000      -0.474114       -12.9013
  52   2.0000      -0.468743       -12.7551
  53   2.0000      -0.463931       -12.6242
  54   2.0000      -0.459115       -12.4931
  55   2.0000      -0.452617       -12.3163
  56   2.0000      -0.445094       -12.1116
  57   2.0000      -0.440017       -11.9735
  58   2.0000      -0.435411       -11.8481
  59   2.0000      -0.424688       -11.5564
  60   2.0000      -0.421158       -11.4603
  61   2.0000      -0.415434       -11.3045
  62   2.0000      -0.411832       -11.2065
  63   2.0000      -0.346161        -9.4195
  64   2.0000      -0.331326        -9.0158
  65   2.0000      -0.322633        -8.7793
  66   2.0000      -0.292423        -7.9572
  67   0.0000       0.034139         0.9290
  68   0.0000       0.059953         1.6314
  69   0.0000       0.108186         2.9439
  70   0.0000       0.123569         3.3625
  71   0.0000       0.134697         3.6653

MULLIKEN ATOMIC CHARGES
-----------------------
   0 S :    0.112839
   1 C :   -0.050539
   2 C :   -0.076290
   3 C :    0.068045
   4 C :   -0.170829
   5 H :   -0.018116
   6 C :    0.053148
   7 H :    0.009531
   8 H :    0.033672
   9 C :   -0.042704
  10 H :    0.024844
  11 H :    0.023713
  12 C :   -0.080817
  13 H :    0.030645
  14 H :    0.029172
  15 H :    0.038994
  16 S :    0.113607
  17 C :   -0.113571
  18 C :   -0.016808
  19 C :   -0.058507
  20 C :   -0.158303
  21 H :    0.022638
  22 C :    0.045957
  23 H :    0.042555
  24 H :    0.034880
  25 C :   -0.056113
  26 H :    0.039504
  27 H :    0.010572
  28 C :   -0.056153
  29 H :    0.036846
  30 H :    0.029205
  31 H :    0.031366
  32 H :   -0.002947
  33 H :    0.069965
Sum of atomic charges:   -0.0000000

LOEWDIN ATOMIC CHARGES
----------------------
   0 S :    0.416398
   1 C :   -0.198093
   2 C :   -0.058325
   3 C :   -0.043830
   4 C :   -0.194106
   5 H :    0.018946
   6 C :   -0.030339
   7 H :    0.024705
   8 H :    0.035972
   9 C :   -0.041813
  10 H :    0.020426
  11 H :    0.024943
  12 C :   -0.072637
  13 H :    0.026806
  14 H :    0.023892
  15 H :    0.029300
  16 S :    0.394062
  17 C :   -0.177191
  18 C :   -0.072222
  19 C :   -0.054472
  20 C :   -0.198969
  21 H :    0.033278
  22 C :   -0.039440
  23 H :    0.039365
  24 H :    0.033674
  25 C :   -0.039612
  26 H :    0.032585
  27 H :    0.013000
  28 C :   -0.067883
  29 H :    0.030314
  30 H :    0.024577
  31 H :    0.024325
  32 H :    0.008477
  33 H :    0.033887

  Mayer bond orders larger than 0.100000
B(  0-S ,  1-C ) :   1.1478 B(  0-S ,  4-C ) :   1.1366 B(  1-C ,  2-C ) :   1.6235
B(  1-C , 32-H ) :   0.9735 B(  2-C ,  3-C ) :   1.2229 B(  2-C ,  6-C ) :   1.0168
B(  3-C ,  4-C ) :   1.5951 B(  3-C ,  5-H ) :   1.0086 B(  4-C , 20-C ) :   1.0166
B(  6-C ,  7-H ) :   0.9490 B(  6-C ,  8-H ) :   0.9381 B(  6-C ,  9-C ) :   1.0642
B(  9-C , 10-H ) :   0.9556 B(  9-C , 11-H ) :   0.9479 B(  9-C , 12-C ) :   1.0940
B( 12-C , 13-H ) :   0.9711 B( 12-C , 14-H ) :   0.9686 B( 12-C , 15-H ) :   0.9729
B( 16-S , 17-C ) :   1.1679 B( 16-S , 20-C ) :   1.1389 B( 17-C , 18-C ) :   1.5944
B( 17-C , 20-C ) :   0.1040 B( 17-C , 33-H ) :   0.9598 B( 18-C , 19-C ) :   1.2472
B( 18-C , 21-H ) :   0.9879 B( 19-C , 20-C ) :   1.5846 B( 19-C , 22-C ) :   1.0474
B( 22-C , 23-H ) :   0.9397 B( 22-C , 24-H ) :   0.9207 B( 22-C , 25-C ) :   1.0756
B( 25-C , 26-H ) :   0.9549 B( 25-C , 27-H ) :   0.9530 B( 25-C , 28-C ) :   1.0761
B( 28-C , 29-H ) :   0.9740 B( 28-C , 30-H ) :   0.9751 B( 28-C , 31-H ) :   0.9735

Dispersion correction           -0.014195485
FINAL SINGLE POINT ENERGY     -1339.868386914797

DIPOLE MOMENT
-------------
                                X             Y             Z
Electronic contribution:      8.48538       1.34149     -18.17288
Nuclear contribution   :     -8.59189      -1.68663      18.58081
                        -----------------------------------------
Total Dipole Moment    :     -0.10651      -0.34514       0.40793
                        -----------------------------------------
Magnitude (a.u.)       :      0.54486
Magnitude (Debye)      :      1.38492

Rotational constants in cm-1:     0.022271     0.007172     0.006624
Rotational constants in MHz :   667.681947   215.006032   198.581752

                             ****ORCA TERMINATED NORMALLY****
TOTAL RUN TIME: 0 days 0 hours 0 minutes 21 seconds 500 msec
