                         Program Version 4.2.1 -  RELEASE  -
|  1> ! wB97X-D3 SP def2-SVP
|  2> %pal
|  3> nprocs 24
|  4> end
|  5>
|  6> * xyz 0 1
|  7> S 	 -95.3366 	 14.6309 	 -116.677
|  8> C 	 -95.0952 	 14.3457 	 -114.943
|  9> C 	 -96.162 	 14.9208 	 -114.223
| 10> C 	 -97.1475 	 15.4642 	 -115.065
| 11> C 	 -96.8962 	 15.2044 	 -116.379
| 12> H 	 -98.0155 	 16.0696 	 -114.745
| 13> C 	 -96.2531 	 15.3001 	 -112.74
| 14> H 	 -97.1889 	 15.8006 	 -112.51
| 15> H 	 -95.3914 	 15.9458 	 -112.505
| 16> C 	 -96.0942 	 14.1418 	 -111.645
| 17> H 	 -96.0821 	 14.5907 	 -110.635
| 18> H 	 -96.9607 	 13.4903 	 -111.6
| 19> C 	 -94.9988 	 13.1122 	 -111.851
| 20> H 	 -95.1758 	 12.5981 	 -112.817
| 21> H 	 -93.9408 	 13.5295 	 -111.914
| 22> H 	 -95.1013 	 12.3255 	 -111.138
| 23> S 	 -97.517 	 16.9865 	 -118.5
| 24> C 	 -98.9979 	 16.8221 	 -119.35
| 25> C 	 -99.5269 	 15.5537 	 -119.067
| 26> C 	 -98.8516 	 14.8442 	 -117.992
| 27> C 	 -97.749 	 15.5033 	 -117.506
| 28> H 	 -100.466 	 15.2709 	 -119.55
| 29> C 	 -99.1899 	 13.4249 	 -117.543
| 30> H 	 -98.1753 	 12.9297 	 -117.584
| 31> H 	 -99.8586 	 12.9045 	 -118.24
| 32> C 	 -99.8431 	 13.3254 	 -116.142
| 33> H 	 -100.896 	 13.6947 	 -116.156
| 34> H 	 -99.2669 	 13.9478 	 -115.442
| 35> C 	 -99.8276 	 11.933 	 -115.473
| 36> H 	 -98.8878 	 11.4485 	 -115.587
| 37> H 	 -100.626 	 11.2692 	 -115.883
| 38> H 	 -99.9775 	 11.9217 	 -114.423
| 39> H 	 -94.1867 	 13.9853 	 -114.533
| 40> H 	 -99.5298 	 17.4464 	 -120.112
| 41> *
| 42>
| 43>                          ****END OF INPUT****

CARTESIAN COORDINATES (ANGSTROEM)
---------------------------------
  S    -95.336600   14.630900  -116.677000
  C    -95.095200   14.345700  -114.943000
  C    -96.162000   14.920800  -114.223000
  C    -97.147500   15.464200  -115.065000
  C    -96.896200   15.204400  -116.379000
  H    -98.015500   16.069600  -114.745000
  C    -96.253100   15.300100  -112.740000
  H    -97.188900   15.800600  -112.510000
  H    -95.391400   15.945800  -112.505000
  C    -96.094200   14.141800  -111.645000
  H    -96.082100   14.590700  -110.635000
  H    -96.960700   13.490300  -111.600000
  C    -94.998800   13.112200  -111.851000
  H    -95.175800   12.598100  -112.817000
  H    -93.940800   13.529500  -111.914000
  H    -95.101300   12.325500  -111.138000
  S    -97.517000   16.986500  -118.500000
  C    -98.997900   16.822100  -119.350000
  C    -99.526900   15.553700  -119.067000
  C    -98.851600   14.844200  -117.992000
  C    -97.749000   15.503300  -117.506000
  H    -100.466000   15.270900  -119.550000
  C    -99.189900   13.424900  -117.543000
  H    -98.175300   12.929700  -117.584000
  H    -99.858600   12.904500  -118.240000
  C    -99.843100   13.325400  -116.142000
  H    -100.896000   13.694700  -116.156000
  H    -99.266900   13.947800  -115.442000
  C    -99.827600   11.933000  -115.473000
  H    -98.887800   11.448500  -115.587000
  H    -100.626000   11.269200  -115.883000
  H    -99.977500   11.921700  -114.423000
  H    -94.186700   13.985300  -114.533000
  H    -99.529800   17.446400  -120.112000

 Total Charge           Charge          ....    0
 Multiplicity           Mult            ....    1
 Number of Electrons    NEL             ....  134
 Basis Dimension        Dim             ....  322

ORBITAL ENERGIES
----------------

  NO   OCC          E(Eh)            E(eV)
   0   2.0000     -88.971664     -2421.0421
   1   2.0000     -88.963235     -2420.8127
   2   2.0000     -10.324021      -280.9309
   3   2.0000     -10.323413      -280.9143
   4   2.0000     -10.321384      -280.8591
   5   2.0000     -10.319031      -280.7951
   6   2.0000     -10.307607      -280.4842
   7   2.0000     -10.304419      -280.3975
   8   2.0000     -10.301452      -280.3168
   9   2.0000     -10.294834      -280.1367
  10   2.0000     -10.294675      -280.1324
  11   2.0000     -10.294314      -280.1225
  12   2.0000     -10.290517      -280.0192
  13   2.0000     -10.285507      -279.8829
  14   2.0000     -10.281930      -279.7855
  15   2.0000     -10.269844      -279.4567
  16   2.0000      -8.087025      -220.0591
  17   2.0000      -8.077676      -219.8047
  18   2.0000      -6.045323      -164.5016
  19   2.0000      -6.041464      -164.3966
  20   2.0000      -6.037941      -164.3007
  21   2.0000      -6.036231      -164.2542
  22   2.0000      -6.032156      -164.1433
  23   2.0000      -6.028449      -164.0424
  24   2.0000      -1.013679       -27.5836
  25   2.0000      -0.983911       -26.7736
  26   2.0000      -0.907717       -24.7002
  27   2.0000      -0.900274       -24.4977
  28   2.0000      -0.867464       -23.6049
  29   2.0000      -0.855961       -23.2919
  30   2.0000      -0.843224       -22.9453
  31   2.0000      -0.810080       -22.0434
  32   2.0000      -0.786216       -21.3940
  33   2.0000      -0.772470       -21.0200
  34   2.0000      -0.705192       -19.1892
  35   2.0000      -0.698382       -19.0039
  36   2.0000      -0.687613       -18.7109
  37   2.0000      -0.654469       -17.8090
  38   2.0000      -0.647781       -17.6270
  39   2.0000      -0.617951       -16.8153
  40   2.0000      -0.584041       -15.8926
  41   2.0000      -0.567423       -15.4404
  42   2.0000      -0.559630       -15.2283
  43   2.0000      -0.552048       -15.0220
  44   2.0000      -0.538058       -14.6413
  45   2.0000      -0.525136       -14.2897
  46   2.0000      -0.515291       -14.0218
  47   2.0000      -0.511870       -13.9287
  48   2.0000      -0.508656       -13.8412
  49   2.0000      -0.498579       -13.5670
  50   2.0000      -0.489906       -13.3310
  51   2.0000      -0.478416       -13.0184
  52   2.0000      -0.475336       -12.9345
  53   2.0000      -0.465253       -12.6602
  54   2.0000      -0.460749       -12.5376
  55   2.0000      -0.457287       -12.4434
  56   2.0000      -0.434092       -11.8123
  57   2.0000      -0.432829       -11.7779
  58   2.0000      -0.428641       -11.6639
  59   2.0000      -0.426107       -11.5950
  60   2.0000      -0.417809       -11.3691
  61   2.0000      -0.413410       -11.2494
  62   2.0000      -0.407868       -11.0986
  63   2.0000      -0.336152        -9.1472
  64   2.0000      -0.326786        -8.8923
  65   2.0000      -0.325147        -8.8477
  66   2.0000      -0.305791        -8.3210
  67   0.0000       0.035875         0.9762
  68   0.0000       0.050221         1.3666
  69   0.0000       0.100883         2.7452
  70   0.0000       0.118233         3.2173
  71   0.0000       0.137490         3.7413

MULLIKEN ATOMIC CHARGES
-----------------------
   0 S :    0.134551
   1 C :   -0.118474
   2 C :   -0.070151
   3 C :    0.039590
   4 C :   -0.196141
   5 H :    0.038469
   6 C :    0.053951
   7 H :    0.033157
   8 H :    0.050563
   9 C :   -0.089857
  10 H :    0.032269
  11 H :    0.020143
  12 C :   -0.076391
  13 H :    0.038419
  14 H :    0.039587
  15 H :    0.031945
  16 S :    0.107852
  17 C :   -0.103784
  18 C :   -0.058519
  19 C :   -0.012518
  20 C :   -0.172398
  21 H :    0.021598
  22 C :    0.063069
  23 H :    0.043413
  24 H :    0.023351
  25 C :   -0.087709
  26 H :    0.034532
  27 H :    0.027066
  28 C :   -0.033842
  29 H :    0.020467
  30 H :    0.028906
  31 H :    0.021377
  32 H :    0.038168
  33 H :    0.077341
Sum of atomic charges:    0.0000000

LOEWDIN ATOMIC CHARGES
----------------------
   0 S :    0.442070
   1 C :   -0.192036
   2 C :   -0.059650
   3 C :   -0.059477
   4 C :   -0.216080
   5 H :    0.042531
   6 C :   -0.026825
   7 H :    0.031180
   8 H :    0.038701
   9 C :   -0.045571
  10 H :    0.024808
  11 H :    0.021986
  12 C :   -0.074464
  13 H :    0.029041
  14 H :    0.025209
  15 H :    0.024615
  16 S :    0.396236
  17 C :   -0.207212
  18 C :   -0.083441
  19 C :   -0.051992
  20 C :   -0.199685
  21 H :    0.029612
  22 C :   -0.032139
  23 H :    0.040100
  24 H :    0.029023
  25 C :   -0.044473
  26 H :    0.027466
  27 H :    0.022864
  28 C :   -0.066610
  29 H :    0.020656
  30 H :    0.025719
  31 H :    0.021420
  32 H :    0.017681
  33 H :    0.048738

  Mayer bond orders larger than 0.100000
B(  0-S ,  1-C ) :   1.1441 B(  0-S ,  4-C ) :   1.1952 B(  1-C ,  2-C ) :   1.5643
B(  1-C ,  4-C ) :   0.1088 B(  1-C , 32-H ) :   0.9761 B(  2-C ,  3-C ) :   1.2718
B(  2-C ,  6-C ) :   1.0101 B(  3-C ,  4-C ) :   1.5597 B(  3-C ,  5-H ) :   0.9848
B(  4-C , 20-C ) :   1.0023 B(  6-C ,  7-H ) :   0.9493 B(  6-C ,  8-H ) :   0.9436
B(  6-C ,  9-C ) :   1.0568 B(  9-C , 10-H ) :   0.9592 B(  9-C , 11-H ) :   0.9558
B(  9-C , 12-C ) :   1.0874 B( 12-C , 13-H ) :   0.9620 B( 12-C , 14-H ) :   0.9751
B( 12-C , 15-H ) :   0.9711 B( 16-S , 17-C ) :   1.1667 B( 16-S , 20-C ) :   1.1209
B( 17-C , 18-C ) :   1.6074 B( 17-C , 33-H ) :   0.9593 B( 18-C , 19-C ) :   1.2424
B( 18-C , 21-H ) :   0.9849 B( 19-C , 20-C ) :   1.6191 B( 19-C , 22-C ) :   1.0333
B( 22-C , 23-H ) :   0.9363 B( 22-C , 24-H ) :   0.9409 B( 22-C , 25-C ) :   1.0592
B( 25-C , 26-H ) :   0.9535 B( 25-C , 27-H ) :   0.9560 B( 25-C , 28-C ) :   1.0825
B( 28-C , 29-H ) :   0.9733 B( 28-C , 30-H ) :   0.9758 B( 28-C , 31-H ) :   0.9748

Dispersion correction           -0.015019407
FINAL SINGLE POINT ENERGY     -1339.867945336106

DIPOLE MOMENT
-------------
                                X             Y             Z
Electronic contribution:      7.19825      16.58997     -22.87757
Nuclear contribution   :     -7.48321     -16.73655      23.33736
                        -----------------------------------------
Total Dipole Moment    :     -0.28496      -0.14657       0.45979
                        -----------------------------------------
Magnitude (a.u.)       :      0.56044
Magnitude (Debye)      :      1.42452

Rotational constants in cm-1:     0.021140     0.008694     0.007081
Rotational constants in MHz :   633.760896   260.627099   212.279498

                             ****ORCA TERMINATED NORMALLY****
TOTAL RUN TIME: 0 days 0 hours 0 minutes 21 seconds 43 msec
