                         Program Version 4.2.1 -  RELEASE  -
|  1> ! wB97X-D3 SP def2-SVP
|  2> %pal
|  3> nprocs 24
|  4> end
|  5>
|  6> * xyz 0 1
|  7> S 	 -39.6935 	 -9.98827 	 15.6612
|  8> C 	 -41.2037 	 -10.3219 	 16.3513
|  9> C 	 -41.3982 	 -11.6513 	 16.4814
| 10> C 	 -40.3729 	 -12.511 	 15.9755
| 11> C 	 -39.3825 	 -11.7123 	 15.3655
| 12> H 	 -40.2937 	 -13.5594 	 16.0755
| 13> C 	 -42.5889 	 -12.2943 	 17.1332
| 14> H 	 -43.163 	 -12.9351 	 16.455
| 15> H 	 -43.2727 	 -11.4865 	 17.3315
| 16> C 	 -42.1501 	 -12.946 	 18.4279
| 17> H 	 -41.562 	 -13.8568 	 18.1523
| 18> H 	 -41.4689 	 -12.1965 	 18.9377
| 19> C 	 -43.3475 	 -13.1576 	 19.3572
| 20> H 	 -44.0806 	 -13.8512 	 18.9746
| 21> H 	 -43.0532 	 -13.428 	 20.398
| 22> H 	 -43.8578 	 -12.2168 	 19.3743
| 23> S 	 -37.0925 	 -13.3764 	 15.6684
| 24> C 	 -35.9996 	 -13.5992 	 14.3496
| 25> C 	 -36.1863 	 -12.5323 	 13.4429
| 26> C 	 -37.4448 	 -11.8491 	 13.5861
| 27> C 	 -38.1235 	 -12.2266 	 14.7625
| 28> H 	 -35.4787 	 -12.3908 	 12.67
| 29> C 	 -37.9657 	 -10.8769 	 12.5472
| 30> H 	 -38.7827 	 -10.3409 	 13.0313
| 31> H 	 -38.3986 	 -11.4915 	 11.7506
| 32> C 	 -36.9973 	 -9.87578 	 11.9774
| 33> H 	 -37.525 	 -9.33236 	 11.2761
| 34> H 	 -36.1195 	 -10.2993 	 11.4821
| 35> C 	 -36.5021 	 -8.9404 	 13.0826
| 36> H 	 -35.6613 	 -9.25706 	 13.6817
| 37> H 	 -37.3142 	 -8.71961 	 13.7648
| 38> H 	 -36.2833 	 -7.98646 	 12.7514
| 39> H 	 -41.9677 	 -9.65822 	 16.6889
| 40> H 	 -35.1681 	 -14.3365 	 14.2763
| 41> *
| 42>
| 43>                          ****END OF INPUT****

CARTESIAN COORDINATES (ANGSTROEM)
---------------------------------
  S    -39.693500   -9.988270   15.661200
  C    -41.203700  -10.321900   16.351300
  C    -41.398200  -11.651300   16.481400
  C    -40.372900  -12.511000   15.975500
  C    -39.382500  -11.712300   15.365500
  H    -40.293700  -13.559400   16.075500
  C    -42.588900  -12.294300   17.133200
  H    -43.163000  -12.935100   16.455000
  H    -43.272700  -11.486500   17.331500
  C    -42.150100  -12.946000   18.427900
  H    -41.562000  -13.856800   18.152300
  H    -41.468900  -12.196500   18.937700
  C    -43.347500  -13.157600   19.357200
  H    -44.080600  -13.851200   18.974600
  H    -43.053200  -13.428000   20.398000
  H    -43.857800  -12.216800   19.374300
  S    -37.092500  -13.376400   15.668400
  C    -35.999600  -13.599200   14.349600
  C    -36.186300  -12.532300   13.442900
  C    -37.444800  -11.849100   13.586100
  C    -38.123500  -12.226600   14.762500
  H    -35.478700  -12.390800   12.670000
  C    -37.965700  -10.876900   12.547200
  H    -38.782700  -10.340900   13.031300
  H    -38.398600  -11.491500   11.750600
  C    -36.997300   -9.875780   11.977400
  H    -37.525000   -9.332360   11.276100
  H    -36.119500  -10.299300   11.482100
  C    -36.502100   -8.940400   13.082600
  H    -35.661300   -9.257060   13.681700
  H    -37.314200   -8.719610   13.764800
  H    -36.283300   -7.986460   12.751400
  H    -41.967700   -9.658220   16.688900
  H    -35.168100  -14.336500   14.276300

 Total Charge           Charge          ....    0
 Multiplicity           Mult            ....    1
 Number of Electrons    NEL             ....  134
 Basis Dimension        Dim             ....  322

ORBITAL ENERGIES
----------------

  NO   OCC          E(Eh)            E(eV)
   0   2.0000     -88.969729     -2420.9894
   1   2.0000     -88.963959     -2420.8324
   2   2.0000     -10.336264      -281.2640
   3   2.0000     -10.329346      -281.0758
   4   2.0000     -10.322728      -280.8957
   5   2.0000     -10.305903      -280.4379
   6   2.0000     -10.304654      -280.4039
   7   2.0000     -10.294852      -280.1372
   8   2.0000     -10.292795      -280.0812
   9   2.0000     -10.292437      -280.0714
  10   2.0000     -10.291256      -280.0393
  11   2.0000     -10.285780      -279.8903
  12   2.0000     -10.284081      -279.8441
  13   2.0000     -10.278449      -279.6908
  14   2.0000     -10.277380      -279.6617
  15   2.0000     -10.261782      -279.2373
  16   2.0000      -8.084310      -219.9852
  17   2.0000      -8.078189      -219.8187
  18   2.0000      -6.042844      -164.4341
  19   2.0000      -6.038849      -164.3254
  20   2.0000      -6.036735      -164.2679
  21   2.0000      -6.035039      -164.2218
  22   2.0000      -6.032753      -164.1596
  23   2.0000      -6.028944      -164.0559
  24   2.0000      -1.005081       -27.3496
  25   2.0000      -0.983409       -26.7599
  26   2.0000      -0.916633       -24.9428
  27   2.0000      -0.913462       -24.8566
  28   2.0000      -0.866637       -23.5824
  29   2.0000      -0.850997       -23.1568
  30   2.0000      -0.843794       -22.9608
  31   2.0000      -0.811125       -22.0718
  32   2.0000      -0.782310       -21.2877
  33   2.0000      -0.770095       -20.9553
  34   2.0000      -0.711972       -19.3738
  35   2.0000      -0.701263       -19.0823
  36   2.0000      -0.689022       -18.7493
  37   2.0000      -0.657178       -17.8827
  38   2.0000      -0.642709       -17.4890
  39   2.0000      -0.614859       -16.7312
  40   2.0000      -0.595446       -16.2029
  41   2.0000      -0.575053       -15.6480
  42   2.0000      -0.562222       -15.2988
  43   2.0000      -0.556770       -15.1505
  44   2.0000      -0.541652       -14.7391
  45   2.0000      -0.524757       -14.2794
  46   2.0000      -0.522051       -14.2057
  47   2.0000      -0.514284       -13.9944
  48   2.0000      -0.502305       -13.6684
  49   2.0000      -0.499275       -13.5860
  50   2.0000      -0.487667       -13.2701
  51   2.0000      -0.481031       -13.0895
  52   2.0000      -0.468244       -12.7416
  53   2.0000      -0.463813       -12.6210
  54   2.0000      -0.458630       -12.4800
  55   2.0000      -0.445766       -12.1299
  56   2.0000      -0.441906       -12.0249
  57   2.0000      -0.436605       -11.8806
  58   2.0000      -0.432747       -11.7757
  59   2.0000      -0.426310       -11.6005
  60   2.0000      -0.422330       -11.4922
  61   2.0000      -0.414956       -11.2915
  62   2.0000      -0.413908       -11.2630
  63   2.0000      -0.342774        -9.3273
  64   2.0000      -0.329085        -8.9548
  65   2.0000      -0.323966        -8.8156
  66   2.0000      -0.292349        -7.9552
  67   0.0000       0.024316         0.6617
  68   0.0000       0.073075         1.9885
  69   0.0000       0.101373         2.7585
  70   0.0000       0.124710         3.3935
  71   0.0000       0.131709         3.5840

MULLIKEN ATOMIC CHARGES
-----------------------
   0 S :    0.121147
   1 C :   -0.086638
   2 C :   -0.116174
   3 C :    0.030370
   4 C :   -0.145629
   5 H :    0.010754
   6 C :    0.080586
   7 H :    0.036536
   8 H :   -0.011874
   9 C :   -0.115944
  10 H :    0.043633
  11 H :    0.046230
  12 C :   -0.018893
  13 H :    0.026517
  14 H :    0.044645
  15 H :    0.015492
  16 S :    0.107290
  17 C :   -0.115164
  18 C :   -0.030643
  19 C :   -0.046607
  20 C :   -0.154711
  21 H :    0.004583
  22 C :    0.065292
  23 H :    0.013948
  24 H :    0.042362
  25 C :   -0.022926
  26 H :    0.010964
  27 H :    0.029477
  28 C :   -0.022708
  29 H :    0.037767
  30 H :    0.007073
  31 H :    0.004263
  32 H :    0.031716
  33 H :    0.077265
Sum of atomic charges:   -0.0000000

LOEWDIN ATOMIC CHARGES
----------------------
   0 S :    0.427869
   1 C :   -0.217588
   2 C :   -0.064928
   3 C :   -0.047238
   4 C :   -0.180082
   5 H :    0.026876
   6 C :   -0.034825
   7 H :    0.030128
   8 H :    0.019038
   9 C :   -0.043280
  10 H :    0.025883
  11 H :    0.035112
  12 C :   -0.065104
  13 H :    0.022764
  14 H :    0.030650
  15 H :    0.021777
  16 S :    0.399319
  17 C :   -0.196799
  18 C :   -0.070176
  19 C :   -0.051747
  20 C :   -0.198520
  21 H :    0.020595
  22 C :   -0.031627
  23 H :    0.020205
  24 H :    0.036855
  25 C :   -0.031644
  26 H :    0.019091
  27 H :    0.024117
  28 C :   -0.061123
  29 H :    0.027429
  30 H :    0.021721
  31 H :    0.015081
  32 H :    0.029253
  33 H :    0.040917

  Mayer bond orders larger than 0.100000
B(  0-S ,  1-C ) :   1.1261 B(  0-S ,  4-C ) :   1.1533 B(  1-C ,  2-C ) :   1.6346
B(  1-C , 32-H ) :   0.9612 B(  2-C ,  3-C ) :   1.2221 B(  2-C ,  6-C ) :   1.0341
B(  3-C ,  4-C ) :   1.5466 B(  3-C ,  5-H ) :   1.0059 B(  4-C , 20-C ) :   1.0603
B(  6-C ,  7-H ) :   0.9369 B(  6-C ,  8-H ) :   0.9352 B(  6-C ,  9-C ) :   1.0478
B(  9-C , 10-H ) :   0.9534 B(  9-C , 11-H ) :   0.9570 B(  9-C , 12-C ) :   1.0801
B( 12-C , 13-H ) :   0.9722 B( 12-C , 14-H ) :   0.9757 B( 12-C , 15-H ) :   0.9730
B( 16-S , 17-C ) :   1.1699 B( 16-S , 20-C ) :   1.1317 B( 17-C , 18-C ) :   1.5779
B( 17-C , 20-C ) :   0.1035 B( 17-C , 33-H ) :   0.9636 B( 18-C , 19-C ) :   1.2541
B( 18-C , 21-H ) :   0.9941 B( 19-C , 20-C ) :   1.5547 B( 19-C , 22-C ) :   1.0365
B( 22-C , 23-H ) :   0.9284 B( 22-C , 24-H ) :   0.9284 B( 22-C , 25-C ) :   1.0943
B( 25-C , 26-H ) :   0.9482 B( 25-C , 27-H ) :   0.9508 B( 25-C , 28-C ) :   1.0767
B( 28-C , 29-H ) :   0.9736 B( 28-C , 30-H ) :   0.9718 B( 28-C , 31-H ) :   0.9705

Dispersion correction           -0.014569121
FINAL SINGLE POINT ENERGY     -1339.873096744741

DIPOLE MOMENT
-------------
                                X             Y             Z
Electronic contribution:      9.44618      -3.30366      -1.09646
Nuclear contribution   :     -9.66131       3.31859       0.95989
                        -----------------------------------------
Total Dipole Moment    :     -0.21513       0.01494      -0.13656
                        -----------------------------------------
Magnitude (a.u.)       :      0.25525
Magnitude (Debye)      :      0.64879

Rotational constants in cm-1:     0.024871     0.007618     0.006221
Rotational constants in MHz :   745.617022   228.385607   186.501585

                             ****ORCA TERMINATED NORMALLY****
TOTAL RUN TIME: 0 days 0 hours 0 minutes 22 seconds 522 msec
