                         Program Version 4.2.1 -  RELEASE  -
|  1> ! wB97X-D3 SP def2-SVP
|  2> %pal
|  3> nprocs 24
|  4> end
|  5>
|  6> * xyz 0 1
|  7> S 	 -103.574 	 42.1443 	 -92.0007
|  8> C 	 -103.316 	 40.4927 	 -91.5517
|  9> C 	 -102.851 	 40.4281 	 -90.2473
| 10> C 	 -102.753 	 41.7393 	 -89.5981
| 11> C 	 -103.035 	 42.8169 	 -90.3454
| 12> H 	 -102.409 	 41.8531 	 -88.5548
| 13> C 	 -102.37 	 39.1865 	 -89.571
| 14> H 	 -102.655 	 38.3087 	 -90.2689
| 15> H 	 -103.011 	 38.9859 	 -88.6469
| 16> C 	 -100.878 	 39.0696 	 -89.2579
| 17> H 	 -100.606 	 38.1858 	 -88.8202
| 18> H 	 -100.342 	 38.9797 	 -90.2596
| 19> C 	 -100.162 	 40.2489 	 -88.5375
| 20> H 	 -99.9833 	 41.2128 	 -89.0469
| 21> H 	 -100.557 	 40.3632 	 -87.4952
| 22> H 	 -99.1839 	 39.878 	 -88.323
| 23> S 	 -104.591 	 45.0075 	 -90.1097
| 24> C 	 -104.028 	 46.2364 	 -88.8969
| 25> C 	 -102.715 	 46.0593 	 -88.5941
| 26> C 	 -102.14 	 44.8991 	 -89.1536
| 27> C 	 -103.08 	 44.1918 	 -89.9256
| 28> H 	 -102.273 	 46.8164 	 -87.9052
| 29> C 	 -100.692 	 44.4793 	 -88.7204
| 30> H 	 -100.839 	 43.4541 	 -88.4436
| 31> H 	 -100.553 	 44.9444 	 -87.7432
| 32> C 	 -99.5277 	 44.7818 	 -89.7349
| 33> H 	 -99.3682 	 45.8696 	 -89.9535
| 34> H 	 -99.9609 	 44.3547 	 -90.6505
| 35> C 	 -98.201 	 44.0531 	 -89.425
| 36> H 	 -97.968 	 44.413 	 -88.3524
| 37> H 	 -97.3927 	 44.4187 	 -90.0628
| 38> H 	 -98.3149 	 43.0017 	 -89.3737
| 39> H 	 -103.474 	 39.6217 	 -92.2383
| 40> H 	 -104.56 	 47.0988 	 -88.6315
| 41> *
| 42>
| 43>                          ****END OF INPUT****

CARTESIAN COORDINATES (ANGSTROEM)
---------------------------------
  S    -103.574000   42.144300  -92.000700
  C    -103.316000   40.492700  -91.551700
  C    -102.851000   40.428100  -90.247300
  C    -102.753000   41.739300  -89.598100
  C    -103.035000   42.816900  -90.345400
  H    -102.409000   41.853100  -88.554800
  C    -102.370000   39.186500  -89.571000
  H    -102.655000   38.308700  -90.268900
  H    -103.011000   38.985900  -88.646900
  C    -100.878000   39.069600  -89.257900
  H    -100.606000   38.185800  -88.820200
  H    -100.342000   38.979700  -90.259600
  C    -100.162000   40.248900  -88.537500
  H    -99.983300   41.212800  -89.046900
  H    -100.557000   40.363200  -87.495200
  H    -99.183900   39.878000  -88.323000
  S    -104.591000   45.007500  -90.109700
  C    -104.028000   46.236400  -88.896900
  C    -102.715000   46.059300  -88.594100
  C    -102.140000   44.899100  -89.153600
  C    -103.080000   44.191800  -89.925600
  H    -102.273000   46.816400  -87.905200
  C    -100.692000   44.479300  -88.720400
  H    -100.839000   43.454100  -88.443600
  H    -100.553000   44.944400  -87.743200
  C    -99.527700   44.781800  -89.734900
  H    -99.368200   45.869600  -89.953500
  H    -99.960900   44.354700  -90.650500
  C    -98.201000   44.053100  -89.425000
  H    -97.968000   44.413000  -88.352400
  H    -97.392700   44.418700  -90.062800
  H    -98.314900   43.001700  -89.373700
  H    -103.474000   39.621700  -92.238300
  H    -104.560000   47.098800  -88.631500

 Total Charge           Charge          ....    0
 Multiplicity           Mult            ....    1
 Number of Electrons    NEL             ....  134
 Basis Dimension        Dim             ....  322

ORBITAL ENERGIES
----------------

  NO   OCC          E(Eh)            E(eV)
   0   2.0000     -88.967949     -2420.9410
   1   2.0000     -88.959311     -2420.7059
   2   2.0000     -10.332438      -281.1599
   3   2.0000     -10.329642      -281.0839
   4   2.0000     -10.320383      -280.8319
   5   2.0000     -10.315421      -280.6969
   6   2.0000     -10.309226      -280.5283
   7   2.0000     -10.301896      -280.3288
   8   2.0000     -10.301545      -280.3193
   9   2.0000     -10.297727      -280.2154
  10   2.0000     -10.295430      -280.1529
  11   2.0000     -10.295187      -280.1463
  12   2.0000     -10.294303      -280.1222
  13   2.0000     -10.289881      -280.0019
  14   2.0000     -10.285111      -279.8721
  15   2.0000     -10.284033      -279.8428
  16   2.0000      -8.082237      -219.9288
  17   2.0000      -8.073119      -219.6807
  18   2.0000      -6.040716      -164.3762
  19   2.0000      -6.036982      -164.2746
  20   2.0000      -6.032854      -164.1623
  21   2.0000      -6.031942      -164.1375
  22   2.0000      -6.027782      -164.0243
  23   2.0000      -6.023559      -163.9094
  24   2.0000      -1.003605       -27.3095
  25   2.0000      -0.978439       -26.6247
  26   2.0000      -0.906804       -24.6754
  27   2.0000      -0.899591       -24.4791
  28   2.0000      -0.877160       -23.8687
  29   2.0000      -0.851132       -23.1605
  30   2.0000      -0.838626       -22.8202
  31   2.0000      -0.821048       -22.3418
  32   2.0000      -0.780995       -21.2520
  33   2.0000      -0.768706       -20.9176
  34   2.0000      -0.709199       -19.2983
  35   2.0000      -0.700076       -19.0500
  36   2.0000      -0.695061       -18.9136
  37   2.0000      -0.661384       -17.9972
  38   2.0000      -0.637010       -17.3339
  39   2.0000      -0.615946       -16.7607
  40   2.0000      -0.589708       -16.0468
  41   2.0000      -0.567919       -15.4539
  42   2.0000      -0.561962       -15.2918
  43   2.0000      -0.544023       -14.8036
  44   2.0000      -0.536866       -14.6089
  45   2.0000      -0.529891       -14.4191
  46   2.0000      -0.514293       -13.9946
  47   2.0000      -0.510829       -13.9004
  48   2.0000      -0.506211       -13.7747
  49   2.0000      -0.500094       -13.6083
  50   2.0000      -0.489905       -13.3310
  51   2.0000      -0.482372       -13.1260
  52   2.0000      -0.474662       -12.9162
  53   2.0000      -0.468891       -12.7592
  54   2.0000      -0.453793       -12.3483
  55   2.0000      -0.448989       -12.2176
  56   2.0000      -0.441977       -12.0268
  57   2.0000      -0.437706       -11.9106
  58   2.0000      -0.430919       -11.7259
  59   2.0000      -0.423077       -11.5125
  60   2.0000      -0.413912       -11.2631
  61   2.0000      -0.409032       -11.1303
  62   2.0000      -0.404083       -10.9956
  63   2.0000      -0.356857        -9.7106
  64   2.0000      -0.335124        -9.1192
  65   2.0000      -0.319375        -8.6906
  66   2.0000      -0.292712        -7.9651
  67   0.0000       0.026512         0.7214
  68   0.0000       0.067366         1.8331
  69   0.0000       0.105800         2.8790
  70   0.0000       0.122050         3.3211
  71   0.0000       0.123792         3.3686

MULLIKEN ATOMIC CHARGES
-----------------------
   0 S :    0.070386
   1 C :   -0.125375
   2 C :   -0.097650
   3 C :    0.021059
   4 C :   -0.127012
   5 H :    0.036197
   6 C :    0.017540
   7 H :    0.026265
   8 H :    0.045465
   9 C :   -0.030950
  10 H :    0.010501
  11 H :    0.025263
  12 C :   -0.084871
  13 H :    0.068265
  14 H :    0.031993
  15 H :    0.018269
  16 S :    0.109683
  17 C :   -0.081806
  18 C :   -0.051062
  19 C :   -0.062019
  20 C :   -0.152739
  21 H :    0.038533
  22 C :    0.116365
  23 H :   -0.012613
  24 H :    0.010891
  25 C :   -0.075592
  26 H :    0.042953
  27 H :    0.035713
  28 C :   -0.043085
  29 H :    0.028559
  30 H :    0.048598
  31 H :    0.030967
  32 H :    0.074649
  33 H :    0.036663
Sum of atomic charges:    0.0000000

LOEWDIN ATOMIC CHARGES
----------------------
   0 S :    0.346576
   1 C :   -0.199290
   2 C :   -0.074809
   3 C :   -0.057658
   4 C :   -0.164083
   5 H :    0.036389
   6 C :   -0.047252
   7 H :    0.038086
   8 H :    0.035840
   9 C :   -0.037407
  10 H :    0.014207
  11 H :    0.034049
  12 C :   -0.076984
  13 H :    0.028274
  14 H :    0.027425
  15 H :    0.025096
  16 S :    0.397939
  17 C :   -0.158585
  18 C :   -0.072333
  19 C :   -0.052676
  20 C :   -0.202539
  21 H :    0.043061
  22 C :   -0.027010
  23 H :    0.024154
  24 H :    0.025940
  25 C :   -0.043328
  26 H :    0.031739
  27 H :    0.026568
  28 C :   -0.064809
  29 H :    0.032075
  30 H :    0.030758
  31 H :    0.018199
  32 H :    0.044436
  33 H :    0.017951

  Mayer bond orders larger than 0.100000
B(  0-S ,  1-C ) :   1.1306 B(  0-S ,  4-C ) :   1.0843 B(  1-C ,  2-C ) :   1.6410
B(  1-C , 32-H ) :   0.9576 B(  2-C ,  3-C ) :   1.2018 B(  2-C ,  6-C ) :   1.0357
B(  3-C ,  4-C ) :   1.6403 B(  3-C ,  5-H ) :   0.9760 B(  4-C , 20-C ) :   1.0521
B(  6-C ,  7-H ) :   0.9406 B(  6-C ,  8-H ) :   0.9376 B(  6-C ,  9-C ) :   1.0693
B(  9-C , 10-H ) :   0.9542 B(  9-C , 11-H ) :   0.9472 B(  9-C , 12-C ) :   1.0913
B( 12-C , 13-H ) :   0.9626 B( 12-C , 14-H ) :   0.9685 B( 12-C , 15-H ) :   0.9648
B( 16-S , 17-C ) :   1.1289 B( 16-S , 20-C ) :   1.1537 B( 17-C , 18-C ) :   1.6440
B( 17-C , 20-C ) :   0.1023 B( 17-C , 33-H ) :   0.9716 B( 18-C , 19-C ) :   1.2417
B( 18-C , 21-H ) :   0.9797 B( 19-C , 20-C ) :   1.5740 B( 19-C , 22-C ) :   1.0179
B( 22-C , 23-H ) :   0.9299 B( 22-C , 24-H ) :   0.9296 B( 22-C , 25-C ) :   1.0418
B( 25-C , 26-H ) :   0.9573 B( 25-C , 27-H ) :   0.9587 B( 25-C , 28-C ) :   1.0770
B( 28-C , 29-H ) :   0.9735 B( 28-C , 30-H ) :   0.9729 B( 28-C , 31-H ) :   0.9763

Dispersion correction           -0.015502036
FINAL SINGLE POINT ENERGY     -1339.857758105612

DIPOLE MOMENT
-------------
                                X             Y             Z
Electronic contribution:    -26.30195      10.29198     -12.09688
Nuclear contribution   :     26.90468     -10.49121      12.66584
                        -----------------------------------------
Total Dipole Moment    :      0.60273      -0.19923       0.56895
                        -----------------------------------------
Magnitude (a.u.)       :      0.85246
Magnitude (Debye)      :      2.16678

Rotational constants in cm-1:     0.015885     0.010882     0.007537
Rotational constants in MHz :   476.223650   326.228364   225.941795

                             ****ORCA TERMINATED NORMALLY****
TOTAL RUN TIME: 0 days 0 hours 0 minutes 21 seconds 501 msec
