                         Program Version 4.2.1 -  RELEASE  -
|  1> ! wB97X-D3 SP def2-SVP
|  2> %pal
|  3> nprocs 24
|  4> end
|  5>
|  6> * xyz 0 1
|  7> S 	 -123.977 	 63.2004 	 -38.7547
|  8> C 	 -122.538 	 63.9641 	 -38.2075
|  9> C 	 -122.838 	 65.2202 	 -37.7602
| 10> C 	 -124.245 	 65.552 	 -37.8158
| 11> C 	 -124.976 	 64.4729 	 -38.1836
| 12> H 	 -124.699 	 66.4829 	 -37.7227
| 13> C 	 -121.963 	 66.3099 	 -37.1513
| 14> H 	 -122.249 	 67.2585 	 -37.4735
| 15> H 	 -120.971 	 66.2506 	 -37.4672
| 16> C 	 -122.024 	 66.3881 	 -35.6227
| 17> H 	 -121.746 	 67.3558 	 -35.2934
| 18> H 	 -123.048 	 66.2926 	 -35.4077
| 19> C 	 -121.28 	 65.2897 	 -34.9458
| 20> H 	 -121.385 	 64.3135 	 -35.4884
| 21> H 	 -120.24 	 65.4113 	 -35.0105
| 22> H 	 -121.579 	 65.1325 	 -33.9088
| 23> S 	 -127.141 	 63.7425 	 -39.699
| 24> C 	 -128.723 	 63.9757 	 -38.9795
| 25> C 	 -128.673 	 64.2763 	 -37.6443
| 26> C 	 -127.316 	 64.4224 	 -37.1364
| 27> C 	 -126.412 	 64.3767 	 -38.1738
| 28> H 	 -129.627 	 64.2454 	 -37.1398
| 29> C 	 -127.088 	 64.6276 	 -35.6848
| 30> H 	 -126.003 	 64.4334 	 -35.5552
| 31> H 	 -127.672 	 63.9278 	 -35.1329
| 32> C 	 -127.399 	 66.0892 	 -35.2648
| 33> H 	 -128.313 	 66.3023 	 -35.8308
| 34> H 	 -126.579 	 66.6643 	 -35.767
| 35> C 	 -127.882 	 66.2945 	 -33.8903
| 36> H 	 -127.093 	 66.2645 	 -33.1641
| 37> H 	 -128.657 	 65.5637 	 -33.6232
| 38> H 	 -128.243 	 67.3444 	 -33.712
| 39> H 	 -121.563 	 63.6135 	 -38.2745
| 40> H 	 -129.584 	 63.8356 	 -39.568
| 41> *
| 42>
| 43>                          ****END OF INPUT****

CARTESIAN COORDINATES (ANGSTROEM)
---------------------------------
  S    -123.977000   63.200400  -38.754700
  C    -122.538000   63.964100  -38.207500
  C    -122.838000   65.220200  -37.760200
  C    -124.245000   65.552000  -37.815800
  C    -124.976000   64.472900  -38.183600
  H    -124.699000   66.482900  -37.722700
  C    -121.963000   66.309900  -37.151300
  H    -122.249000   67.258500  -37.473500
  H    -120.971000   66.250600  -37.467200
  C    -122.024000   66.388100  -35.622700
  H    -121.746000   67.355800  -35.293400
  H    -123.048000   66.292600  -35.407700
  C    -121.280000   65.289700  -34.945800
  H    -121.385000   64.313500  -35.488400
  H    -120.240000   65.411300  -35.010500
  H    -121.579000   65.132500  -33.908800
  S    -127.141000   63.742500  -39.699000
  C    -128.723000   63.975700  -38.979500
  C    -128.673000   64.276300  -37.644300
  C    -127.316000   64.422400  -37.136400
  C    -126.412000   64.376700  -38.173800
  H    -129.627000   64.245400  -37.139800
  C    -127.088000   64.627600  -35.684800
  H    -126.003000   64.433400  -35.555200
  H    -127.672000   63.927800  -35.132900
  C    -127.399000   66.089200  -35.264800
  H    -128.313000   66.302300  -35.830800
  H    -126.579000   66.664300  -35.767000
  C    -127.882000   66.294500  -33.890300
  H    -127.093000   66.264500  -33.164100
  H    -128.657000   65.563700  -33.623200
  H    -128.243000   67.344400  -33.712000
  H    -121.563000   63.613500  -38.274500
  H    -129.584000   63.835600  -39.568000

 Total Charge           Charge          ....    0
 Multiplicity           Mult            ....    1
 Number of Electrons    NEL             ....  134
 Basis Dimension        Dim             ....  322

ORBITAL ENERGIES
----------------

  NO   OCC          E(Eh)            E(eV)
   0   2.0000     -88.962935     -2420.8045
   1   2.0000     -88.961116     -2420.7550
   2   2.0000     -10.326760      -281.0054
   3   2.0000     -10.320839      -280.8443
   4   2.0000     -10.314705      -280.6774
   5   2.0000     -10.307766      -280.4886
   6   2.0000     -10.307374      -280.4779
   7   2.0000     -10.299310      -280.2585
   8   2.0000     -10.294379      -280.1243
   9   2.0000     -10.288612      -279.9674
  10   2.0000     -10.286594      -279.9125
  11   2.0000     -10.284899      -279.8663
  12   2.0000     -10.281029      -279.7610
  13   2.0000     -10.278353      -279.6882
  14   2.0000     -10.273161      -279.5469
  15   2.0000     -10.268683      -279.4251
  16   2.0000      -8.079136      -219.8445
  17   2.0000      -8.075677      -219.7503
  18   2.0000      -6.037693      -164.2940
  19   2.0000      -6.034241      -164.2000
  20   2.0000      -6.033482      -164.1794
  21   2.0000      -6.030505      -164.0984
  22   2.0000      -6.029691      -164.0762
  23   2.0000      -6.026108      -163.9787
  24   2.0000      -1.013617       -27.5819
  25   2.0000      -0.985272       -26.8106
  26   2.0000      -0.918737       -25.0001
  27   2.0000      -0.916199       -24.9310
  28   2.0000      -0.875184       -23.8150
  29   2.0000      -0.856406       -23.3040
  30   2.0000      -0.848770       -23.0962
  31   2.0000      -0.816730       -22.2244
  32   2.0000      -0.787012       -21.4157
  33   2.0000      -0.778893       -21.1948
  34   2.0000      -0.709405       -19.3039
  35   2.0000      -0.702193       -19.1076
  36   2.0000      -0.694787       -18.9061
  37   2.0000      -0.664622       -18.0853
  38   2.0000      -0.652375       -17.7520
  39   2.0000      -0.624500       -16.9935
  40   2.0000      -0.597519       -16.2593
  41   2.0000      -0.577085       -15.7033
  42   2.0000      -0.571319       -15.5464
  43   2.0000      -0.550754       -14.9868
  44   2.0000      -0.543759       -14.7964
  45   2.0000      -0.526940       -14.3388
  46   2.0000      -0.521125       -14.1805
  47   2.0000      -0.518058       -14.0971
  48   2.0000      -0.517250       -14.0751
  49   2.0000      -0.505005       -13.7419
  50   2.0000      -0.495561       -13.4849
  51   2.0000      -0.481679       -13.1071
  52   2.0000      -0.472684       -12.8624
  53   2.0000      -0.460703       -12.5364
  54   2.0000      -0.459393       -12.5007
  55   2.0000      -0.455724       -12.4009
  56   2.0000      -0.441573       -12.0158
  57   2.0000      -0.437031       -11.8922
  58   2.0000      -0.430077       -11.7030
  59   2.0000      -0.428730       -11.6663
  60   2.0000      -0.423217       -11.5163
  61   2.0000      -0.415117       -11.2959
  62   2.0000      -0.402623       -10.9559
  63   2.0000      -0.347115        -9.4455
  64   2.0000      -0.328524        -8.9396
  65   2.0000      -0.327365        -8.9080
  66   2.0000      -0.295918        -8.0524
  67   0.0000       0.034202         0.9307
  68   0.0000       0.067669         1.8414
  69   0.0000       0.100499         2.7347
  70   0.0000       0.120459         3.2779
  71   0.0000       0.128402         3.4940

MULLIKEN ATOMIC CHARGES
-----------------------
   0 S :    0.115731
   1 C :   -0.081012
   2 C :   -0.094249
   3 C :    0.016545
   4 C :   -0.133725
   5 H :    0.001000
   6 C :    0.112405
   7 H :   -0.003162
   8 H :   -0.007439
   9 C :   -0.008588
  10 H :    0.014511
  11 H :    0.000830
  12 C :   -0.040046
  13 H :    0.022841
  14 H :    0.010243
  15 H :    0.036295
  16 S :    0.076467
  17 C :   -0.070467
  18 C :   -0.029431
  19 C :   -0.043734
  20 C :   -0.170515
  21 H :    0.021183
  22 C :    0.102613
  23 H :    0.036654
  24 H :    0.013960
  25 C :   -0.087357
  26 H :    0.022535
  27 H :    0.032300
  28 C :   -0.020200
  29 H :    0.017813
  30 H :    0.038722
  31 H :    0.037176
  32 H :    0.018611
  33 H :    0.041489
Sum of atomic charges:   -0.0000000

LOEWDIN ATOMIC CHARGES
----------------------
   0 S :    0.424567
   1 C :   -0.199131
   2 C :   -0.052741
   3 C :   -0.059779
   4 C :   -0.200406
   5 H :    0.023165
   6 C :   -0.020262
   7 H :    0.023811
   8 H :    0.015476
   9 C :   -0.030254
  10 H :    0.018799
  11 H :    0.016245
  12 C :   -0.065968
  13 H :    0.030895
  14 H :    0.015591
  15 H :    0.027242
  16 S :    0.362988
  17 C :   -0.162123
  18 C :   -0.072952
  19 C :   -0.042742
  20 C :   -0.179082
  21 H :    0.033179
  22 C :   -0.027280
  23 H :    0.034831
  24 H :    0.025825
  25 C :   -0.049649
  26 H :    0.026117
  27 H :    0.030258
  28 C :   -0.067612
  29 H :    0.017992
  30 H :    0.031316
  31 H :    0.035292
  32 H :    0.018704
  33 H :    0.017685

  Mayer bond orders larger than 0.100000
B(  0-S ,  1-C ) :   1.1201 B(  0-S ,  4-C ) :   1.1562 B(  1-C ,  2-C ) :   1.6329
B(  1-C , 32-H ) :   0.9799 B(  2-C ,  3-C ) :   1.1978 B(  2-C ,  6-C ) :   1.0395
B(  3-C ,  4-C ) :   1.5869 B(  3-C ,  5-H ) :   1.0105 B(  4-C , 20-C ) :   1.0389
B(  6-C ,  7-H ) :   0.9289 B(  6-C ,  8-H ) :   0.9388 B(  6-C ,  9-C ) :   1.0747
B(  9-C , 10-H ) :   0.9517 B(  9-C , 11-H ) :   0.9497 B(  9-C , 12-C ) :   1.0836
B( 12-C , 13-H ) :   0.9711 B( 12-C , 14-H ) :   0.9720 B( 12-C , 15-H ) :   0.9730
B( 16-S , 17-C ) :   1.1372 B( 16-S , 20-C ) :   1.1063 B( 17-C , 18-C ) :   1.6634
B( 17-C , 33-H ) :   0.9728 B( 18-C , 19-C ) :   1.1605 B( 18-C , 21-H ) :   0.9898
B( 19-C , 20-C ) :   1.6438 B( 19-C , 22-C ) :   1.0623 B( 22-C , 23-H ) :   0.9225
B( 22-C , 24-H ) :   0.9274 B( 22-C , 25-C ) :   1.0567 B( 25-C , 26-H ) :   0.9632
B( 25-C , 27-H ) :   0.9491 B( 25-C , 28-C ) :   1.0745 B( 28-C , 29-H ) :   0.9703
B( 28-C , 30-H ) :   0.9694 B( 28-C , 31-H ) :   0.9690

Dispersion correction           -0.014730965
FINAL SINGLE POINT ENERGY     -1339.859201640257

DIPOLE MOMENT
-------------
                                X             Y             Z
Electronic contribution:     -5.91299     -14.58905     -25.77568
Nuclear contribution   :      5.80290      14.96598      26.29171
                        -----------------------------------------
Total Dipole Moment    :     -0.11009       0.37693       0.51603
                        -----------------------------------------
Magnitude (a.u.)       :      0.64845
Magnitude (Debye)      :      1.64822

Rotational constants in cm-1:     0.017231     0.010200     0.006917
Rotational constants in MHz :   516.559625   305.799879   207.378681

                             ****ORCA TERMINATED NORMALLY****
TOTAL RUN TIME: 0 days 0 hours 0 minutes 22 seconds 469 msec
