                         Program Version 4.2.1 -  RELEASE  -
|  1> ! wB97X-D3 SP def2-SVP
|  2> %pal
|  3> nprocs 24
|  4> end
|  5>
|  6> * xyz 0 1
|  7> S 	 21.3765 	 -0.194235 	 -115.009
|  8> C 	 20.1831 	 -0.0914929 	 -116.248
|  9> C 	 19.4955 	 1.12433 	 -116.197
| 10> C 	 19.8854 	 1.96694 	 -115.101
| 11> C 	 20.9503 	 1.43199 	 -114.39
| 12> H 	 19.465 	 2.94347 	 -114.71
| 13> C 	 18.3703 	 1.45248 	 -117.071
| 14> H 	 18.202 	 0.782101 	 -117.902
| 15> H 	 18.6462 	 2.42585 	 -117.5
| 16> C 	 16.9592 	 1.70355 	 -116.367
| 17> H 	 16.6131 	 0.851626 	 -115.768
| 18> H 	 17.132 	 2.43 	 -115.671
| 19> C 	 15.9051 	 2.20499 	 -117.399
| 20> H 	 16.1095 	 3.22178 	 -117.752
| 21> H 	 15.8932 	 1.5565 	 -118.249
| 22> H 	 14.8667 	 2.22744 	 -117.073
| 23> S 	 23.1964 	 2.02828 	 -113.368
| 24> C 	 23.4292 	 3.14239 	 -112.071
| 25> C 	 22.2337 	 3.43587 	 -111.506
| 26> C 	 21.0871 	 2.89027 	 -112.189
| 27> C 	 21.5315 	 2.08526 	 -113.25
| 28> H 	 22.1403 	 4.05407 	 -110.637
| 29> C 	 19.6283 	 2.91397 	 -111.786
| 30> H 	 18.9559 	 3.30711 	 -112.614
| 31> H 	 19.3796 	 3.55493 	 -110.955
| 32> C 	 19.0827 	 1.48624 	 -111.481
| 33> H 	 19.7167 	 1.02144 	 -110.69
| 34> H 	 19.2911 	 0.778299 	 -112.369
| 35> C 	 17.6459 	 1.43694 	 -111.062
| 36> H 	 17.4416 	 1.76344 	 -110.051
| 37> H 	 17.3371 	 0.393369 	 -111.215
| 38> H 	 16.9656 	 2.06118 	 -111.679
| 39> H 	 19.9061 	 -0.803544 	 -117.055
| 40> H 	 24.2964 	 3.52229 	 -111.668
| 41> *
| 42>
| 43>                          ****END OF INPUT****

CARTESIAN COORDINATES (ANGSTROEM)
---------------------------------
  S     21.376500   -0.194235  -115.009000
  C     20.183100   -0.091493  -116.248000
  C     19.495500    1.124330  -116.197000
  C     19.885400    1.966940  -115.101000
  C     20.950300    1.431990  -114.390000
  H     19.465000    2.943470  -114.710000
  C     18.370300    1.452480  -117.071000
  H     18.202000    0.782101  -117.902000
  H     18.646200    2.425850  -117.500000
  C     16.959200    1.703550  -116.367000
  H     16.613100    0.851626  -115.768000
  H     17.132000    2.430000  -115.671000
  C     15.905100    2.204990  -117.399000
  H     16.109500    3.221780  -117.752000
  H     15.893200    1.556500  -118.249000
  H     14.866700    2.227440  -117.073000
  S     23.196400    2.028280  -113.368000
  C     23.429200    3.142390  -112.071000
  C     22.233700    3.435870  -111.506000
  C     21.087100    2.890270  -112.189000
  C     21.531500    2.085260  -113.250000
  H     22.140300    4.054070  -110.637000
  C     19.628300    2.913970  -111.786000
  H     18.955900    3.307110  -112.614000
  H     19.379600    3.554930  -110.955000
  C     19.082700    1.486240  -111.481000
  H     19.716700    1.021440  -110.690000
  H     19.291100    0.778299  -112.369000
  C     17.645900    1.436940  -111.062000
  H     17.441600    1.763440  -110.051000
  H     17.337100    0.393369  -111.215000
  H     16.965600    2.061180  -111.679000
  H     19.906100   -0.803544  -117.055000
  H     24.296400    3.522290  -111.668000

 Total Charge           Charge          ....    0
 Multiplicity           Mult            ....    1
 Number of Electrons    NEL             ....  134
 Basis Dimension        Dim             ....  322

ORBITAL ENERGIES
----------------

  NO   OCC          E(Eh)            E(eV)
   0   2.0000     -88.971742     -2421.0442
   1   2.0000     -88.963520     -2420.8205
   2   2.0000     -10.331557      -281.1360
   3   2.0000     -10.320250      -280.8283
   4   2.0000     -10.315366      -280.6954
   5   2.0000     -10.306412      -280.4517
   6   2.0000     -10.305465      -280.4260
   7   2.0000     -10.300606      -280.2937
   8   2.0000     -10.299085      -280.2523
   9   2.0000     -10.297911      -280.2204
  10   2.0000     -10.291851      -280.0555
  11   2.0000     -10.290189      -280.0103
  12   2.0000     -10.288309      -279.9591
  13   2.0000     -10.286144      -279.9002
  14   2.0000     -10.279263      -279.7130
  15   2.0000     -10.276513      -279.6381
  16   2.0000      -8.085615      -220.0208
  17   2.0000      -8.080387      -219.8785
  18   2.0000      -6.044288      -164.4734
  19   2.0000      -6.040184      -164.3618
  20   2.0000      -6.038775      -164.3234
  21   2.0000      -6.036314      -164.2565
  22   2.0000      -6.034386      -164.2040
  23   2.0000      -6.031326      -164.1207
  24   2.0000      -1.018195       -27.7065
  25   2.0000      -0.986988       -26.8573
  26   2.0000      -0.909671       -24.7534
  27   2.0000      -0.907426       -24.6923
  28   2.0000      -0.878160       -23.8959
  29   2.0000      -0.853454       -23.2237
  30   2.0000      -0.847155       -23.0522
  31   2.0000      -0.819842       -22.3090
  32   2.0000      -0.778096       -21.1731
  33   2.0000      -0.768085       -20.9007
  34   2.0000      -0.716283       -19.4910
  35   2.0000      -0.702546       -19.1173
  36   2.0000      -0.687612       -18.7109
  37   2.0000      -0.670363       -18.2415
  38   2.0000      -0.637168       -17.3382
  39   2.0000      -0.619391       -16.8545
  40   2.0000      -0.600647       -16.3444
  41   2.0000      -0.568119       -15.4593
  42   2.0000      -0.560890       -15.2626
  43   2.0000      -0.555207       -15.1079
  44   2.0000      -0.527517       -14.3545
  45   2.0000      -0.520963       -14.1761
  46   2.0000      -0.515065       -14.0156
  47   2.0000      -0.510803       -13.8997
  48   2.0000      -0.507497       -13.8097
  49   2.0000      -0.499592       -13.5946
  50   2.0000      -0.493795       -13.4369
  51   2.0000      -0.487335       -13.2611
  52   2.0000      -0.471508       -12.8304
  53   2.0000      -0.467993       -12.7347
  54   2.0000      -0.459949       -12.5159
  55   2.0000      -0.450493       -12.2585
  56   2.0000      -0.447271       -12.1709
  57   2.0000      -0.436039       -11.8652
  58   2.0000      -0.432836       -11.7781
  59   2.0000      -0.429923       -11.6988
  60   2.0000      -0.425164       -11.5693
  61   2.0000      -0.418003       -11.3744
  62   2.0000      -0.406290       -11.0557
  63   2.0000      -0.356768        -9.7081
  64   2.0000      -0.331690        -9.0257
  65   2.0000      -0.323457        -8.8017
  66   2.0000      -0.286688        -7.8012
  67   0.0000       0.029105         0.7920
  68   0.0000       0.074622         2.0306
  69   0.0000       0.113655         3.0927
  70   0.0000       0.116366         3.1665
  71   0.0000       0.130432         3.5492

MULLIKEN ATOMIC CHARGES
-----------------------
   0 S :    0.124695
   1 C :   -0.117045
   2 C :   -0.066791
   3 C :   -0.014458
   4 C :   -0.136581
   5 H :    0.042463
   6 C :    0.040890
   7 H :    0.012001
   8 H :    0.029245
   9 C :   -0.040504
  10 H :    0.034524
  11 H :    0.000682
  12 C :   -0.047630
  13 H :    0.030063
  14 H :    0.021754
  15 H :    0.033503
  16 S :    0.115989
  17 C :   -0.035263
  18 C :   -0.039559
  19 C :   -0.009208
  20 C :   -0.180718
  21 H :    0.006405
  22 C :    0.053441
  23 H :    0.025212
  24 H :    0.013020
  25 C :   -0.128568
  26 H :    0.034473
  27 H :    0.056671
  28 C :   -0.026485
  29 H :    0.031142
  30 H :    0.038521
  31 H :    0.020869
  32 H :    0.058862
  33 H :    0.018386
Sum of atomic charges:    0.0000000

LOEWDIN ATOMIC CHARGES
----------------------
   0 S :    0.398776
   1 C :   -0.218916
   2 C :   -0.065901
   3 C :   -0.067242
   4 C :   -0.191672
   5 H :    0.044390
   6 C :   -0.032554
   7 H :    0.023350
   8 H :    0.036105
   9 C :   -0.027323
  10 H :    0.026686
  11 H :    0.006527
  12 C :   -0.065561
  13 H :    0.026841
  14 H :    0.020001
  15 H :    0.027576
  16 S :    0.461381
  17 C :   -0.189384
  18 C :   -0.062291
  19 C :   -0.061792
  20 C :   -0.215376
  21 H :    0.027795
  22 C :   -0.038463
  23 H :    0.031813
  24 H :    0.025483
  25 C :   -0.052038
  26 H :    0.027572
  27 H :    0.035403
  28 C :   -0.070423
  29 H :    0.022791
  30 H :    0.034242
  31 H :    0.023948
  32 H :    0.041904
  33 H :    0.016352

  Mayer bond orders larger than 0.100000
B(  0-S ,  1-C ) :   1.1202 B(  0-S ,  4-C ) :   1.1308 B(  1-C ,  2-C ) :   1.6179
B(  1-C , 32-H ) :   0.9590 B(  2-C ,  3-C ) :   1.2100 B(  2-C ,  6-C ) :   1.0522
B(  3-C ,  4-C ) :   1.5883 B(  3-C ,  5-H ) :   0.9814 B(  4-C , 20-C ) :   1.0403
B(  6-C ,  7-H ) :   0.9463 B(  6-C ,  8-H ) :   0.9303 B(  6-C ,  9-C ) :   1.0473
B(  9-C , 10-H ) :   0.9595 B(  9-C , 11-H ) :   0.9540 B(  9-C , 12-C ) :   1.0764
B( 12-C , 13-H ) :   0.9757 B( 12-C , 14-H ) :   0.9780 B( 12-C , 15-H ) :   0.9755
B( 16-S , 17-C ) :   1.1528 B( 16-S , 20-C ) :   1.1884 B( 17-C , 18-C ) :   1.5934
B( 17-C , 33-H ) :   0.9789 B( 18-C , 19-C ) :   1.2630 B( 18-C , 21-H ) :   0.9929
B( 19-C , 20-C ) :   1.5256 B( 19-C , 22-C ) :   1.0558 B( 22-C , 23-H ) :   0.9299
B( 22-C , 24-H ) :   0.9366 B( 22-C , 25-C ) :   1.0528 B( 25-C , 26-H ) :   0.9506
B( 25-C , 27-H ) :   0.9533 B( 25-C , 28-C ) :   1.0844 B( 28-C , 29-H ) :   0.9728
B( 28-C , 30-H ) :   0.9714 B( 28-C , 31-H ) :   0.9716

Dispersion correction           -0.014687657
FINAL SINGLE POINT ENERGY     -1339.871794438860

DIPOLE MOMENT
-------------
                                X             Y             Z
Electronic contribution:     30.54991      -5.18144       0.55341
Nuclear contribution   :    -31.12937       5.46784      -0.43770
                        -----------------------------------------
Total Dipole Moment    :     -0.57947       0.28640       0.11572
                        -----------------------------------------
Magnitude (a.u.)       :      0.65665
Magnitude (Debye)      :      1.66908

Rotational constants in cm-1:     0.018566     0.009192     0.007240
Rotational constants in MHz :   556.592630   275.567093   217.048412

                             ****ORCA TERMINATED NORMALLY****
TOTAL RUN TIME: 0 days 0 hours 0 minutes 21 seconds 74 msec
