                         Program Version 4.2.1 -  RELEASE  -
|  1> ! wB97X-D3 SP def2-SVP
|  2> %pal
|  3> nprocs 24
|  4> end
|  5>
|  6> * xyz 0 1
|  7> S 	 -85.7814 	 -33.0645 	 -73.3589
|  8> C 	 -84.2843 	 -33.0276 	 -74.2136
|  9> C 	 -84.3912 	 -32.5217 	 -75.5356
| 10> C 	 -85.6566 	 -31.926 	 -75.7073
| 11> C 	 -86.5439 	 -32.1329 	 -74.6508
| 12> H 	 -85.9825 	 -31.2442 	 -76.4981
| 13> C 	 -83.228 	 -32.3672 	 -76.4746
| 14> H 	 -83.4186 	 -33.207 	 -77.0573
| 15> H 	 -82.3585 	 -32.5841 	 -75.9181
| 16> C 	 -83.0996 	 -31.1386 	 -77.4072
| 17> H 	 -82.3862 	 -31.2017 	 -78.1254
| 18> H 	 -83.9634 	 -30.9913 	 -77.9766
| 19> C 	 -83.1006 	 -29.7377 	 -76.79
| 20> H 	 -83.9136 	 -29.5254 	 -76.1161
| 21> H 	 -82.1428 	 -29.4131 	 -76.3381
| 22> H 	 -83.1002 	 -29.1047 	 -77.6933
| 23> S 	 -87.9558 	 -30.3479 	 -73.0217
| 24> C 	 -89.6462 	 -30.3336 	 -73.2718
| 25> C 	 -90.0097 	 -30.7054 	 -74.5563
| 26> C 	 -88.9514 	 -31.3988 	 -75.1642
| 27> C 	 -87.8008 	 -31.3909 	 -74.3945
| 28> H 	 -91.0381 	 -30.5722 	 -74.8709
| 29> C 	 -89.1711 	 -32.0828 	 -76.4678
| 30> H 	 -88.1941 	 -32.4085 	 -76.8781
| 31> H 	 -89.7625 	 -31.4452 	 -77.1082
| 32> C 	 -89.7995 	 -33.4985 	 -76.3503
| 33> H 	 -90.7635 	 -33.369 	 -75.9227
| 34> H 	 -89.3105 	 -34.0288 	 -75.6236
| 35> C 	 -89.8076 	 -34.3323 	 -77.6516
| 36> H 	 -90.5014 	 -35.1766 	 -77.4703
| 37> H 	 -88.8561 	 -34.5743 	 -78.0402
| 38> H 	 -90.3345 	 -33.8115 	 -78.413
| 39> H 	 -83.3894 	 -33.4455 	 -73.9144
| 40> H 	 -90.3678 	 -29.8857 	 -72.5623
| 41> *
| 42>
| 43>                          ****END OF INPUT****

CARTESIAN COORDINATES (ANGSTROEM)
---------------------------------
  S    -85.781400  -33.064500  -73.358900
  C    -84.284300  -33.027600  -74.213600
  C    -84.391200  -32.521700  -75.535600
  C    -85.656600  -31.926000  -75.707300
  C    -86.543900  -32.132900  -74.650800
  H    -85.982500  -31.244200  -76.498100
  C    -83.228000  -32.367200  -76.474600
  H    -83.418600  -33.207000  -77.057300
  H    -82.358500  -32.584100  -75.918100
  C    -83.099600  -31.138600  -77.407200
  H    -82.386200  -31.201700  -78.125400
  H    -83.963400  -30.991300  -77.976600
  C    -83.100600  -29.737700  -76.790000
  H    -83.913600  -29.525400  -76.116100
  H    -82.142800  -29.413100  -76.338100
  H    -83.100200  -29.104700  -77.693300
  S    -87.955800  -30.347900  -73.021700
  C    -89.646200  -30.333600  -73.271800
  C    -90.009700  -30.705400  -74.556300
  C    -88.951400  -31.398800  -75.164200
  C    -87.800800  -31.390900  -74.394500
  H    -91.038100  -30.572200  -74.870900
  C    -89.171100  -32.082800  -76.467800
  H    -88.194100  -32.408500  -76.878100
  H    -89.762500  -31.445200  -77.108200
  C    -89.799500  -33.498500  -76.350300
  H    -90.763500  -33.369000  -75.922700
  H    -89.310500  -34.028800  -75.623600
  C    -89.807600  -34.332300  -77.651600
  H    -90.501400  -35.176600  -77.470300
  H    -88.856100  -34.574300  -78.040200
  H    -90.334500  -33.811500  -78.413000
  H    -83.389400  -33.445500  -73.914400
  H    -90.367800  -29.885700  -72.562300

 Total Charge           Charge          ....    0
 Multiplicity           Mult            ....    1
 Number of Electrons    NEL             ....  134
 Basis Dimension        Dim             ....  322

ORBITAL ENERGIES
----------------

  NO   OCC          E(Eh)            E(eV)
   0   2.0000     -88.968120     -2420.9456
   1   2.0000     -88.965394     -2420.8714
   2   2.0000     -10.326547      -280.9996
   3   2.0000     -10.318876      -280.7909
   4   2.0000     -10.313096      -280.6336
   5   2.0000     -10.308384      -280.5054
   6   2.0000     -10.301901      -280.3290
   7   2.0000     -10.295001      -280.1412
   8   2.0000     -10.293867      -280.1104
   9   2.0000     -10.288700      -279.9698
  10   2.0000     -10.285125      -279.8725
  11   2.0000     -10.285117      -279.8723
  12   2.0000     -10.278750      -279.6990
  13   2.0000     -10.276425      -279.6357
  14   2.0000     -10.272080      -279.5175
  15   2.0000     -10.271511      -279.5020
  16   2.0000      -8.082679      -219.9409
  17   2.0000      -8.081188      -219.9003
  18   2.0000      -6.041016      -164.3844
  19   2.0000      -6.039422      -164.3410
  20   2.0000      -6.037191      -164.2803
  21   2.0000      -6.035803      -164.2426
  22   2.0000      -6.033662      -164.1843
  23   2.0000      -6.031918      -164.1368
  24   2.0000      -1.009492       -27.4697
  25   2.0000      -0.987018       -26.8581
  26   2.0000      -0.914968       -24.8976
  27   2.0000      -0.909338       -24.7443
  28   2.0000      -0.866494       -23.5785
  29   2.0000      -0.854643       -23.2560
  30   2.0000      -0.851263       -23.1640
  31   2.0000      -0.816371       -22.2146
  32   2.0000      -0.786406       -21.3992
  33   2.0000      -0.770671       -20.9710
  34   2.0000      -0.712246       -19.3812
  35   2.0000      -0.703608       -19.1462
  36   2.0000      -0.691911       -18.8279
  37   2.0000      -0.659151       -17.9364
  38   2.0000      -0.640438       -17.4272
  39   2.0000      -0.620678       -16.8895
  40   2.0000      -0.595675       -16.2091
  41   2.0000      -0.570752       -15.5309
  42   2.0000      -0.563220       -15.3260
  43   2.0000      -0.557753       -15.1772
  44   2.0000      -0.547675       -14.9030
  45   2.0000      -0.525398       -14.2968
  46   2.0000      -0.514440       -13.9986
  47   2.0000      -0.512287       -13.9400
  48   2.0000      -0.502528       -13.6745
  49   2.0000      -0.492053       -13.3895
  50   2.0000      -0.488337       -13.2883
  51   2.0000      -0.483136       -13.1468
  52   2.0000      -0.477299       -12.9880
  53   2.0000      -0.468644       -12.7524
  54   2.0000      -0.459817       -12.5123
  55   2.0000      -0.452011       -12.2998
  56   2.0000      -0.445642       -12.1265
  57   2.0000      -0.434452       -11.8220
  58   2.0000      -0.429768       -11.6946
  59   2.0000      -0.427414       -11.6305
  60   2.0000      -0.424542       -11.5524
  61   2.0000      -0.416697       -11.3389
  62   2.0000      -0.413238       -11.2448
  63   2.0000      -0.341859        -9.3024
  64   2.0000      -0.329768        -8.9734
  65   2.0000      -0.322038        -8.7631
  66   2.0000      -0.287357        -7.8194
  67   0.0000       0.027356         0.7444
  68   0.0000       0.069677         1.8960
  69   0.0000       0.108181         2.9438
  70   0.0000       0.125409         3.4125
  71   0.0000       0.133650         3.6368

MULLIKEN ATOMIC CHARGES
-----------------------
   0 S :    0.129979
   1 C :   -0.094684
   2 C :   -0.138607
   3 C :    0.025589
   4 C :   -0.192235
   5 H :    0.027790
   6 C :    0.166136
   7 H :    0.021617
   8 H :    0.005234
   9 C :   -0.011114
  10 H :    0.000802
  11 H :    0.003461
  12 C :   -0.073870
  13 H :    0.049112
  14 H :    0.025239
  15 H :    0.024314
  16 S :    0.137886
  17 C :   -0.120392
  18 C :   -0.036343
  19 C :   -0.020432
  20 C :   -0.170796
  21 H :    0.020567
  22 C :    0.073471
  23 H :    0.011377
  24 H :    0.026816
  25 C :   -0.043340
  26 H :    0.001145
  27 H :    0.007782
  28 C :   -0.008893
  29 H :    0.033981
  30 H :    0.033692
  31 H :    0.008833
  32 H :    0.013766
  33 H :    0.062118
Sum of atomic charges:   -0.0000000

LOEWDIN ATOMIC CHARGES
----------------------
   0 S :    0.418379
   1 C :   -0.197244
   2 C :   -0.057005
   3 C :   -0.062517
   4 C :   -0.197328
   5 H :    0.034645
   6 C :   -0.023520
   7 H :    0.034095
   8 H :    0.025378
   9 C :   -0.031708
  10 H :    0.015882
  11 H :    0.022250
  12 C :   -0.063277
  13 H :    0.024698
  14 H :    0.020763
  15 H :    0.030253
  16 S :    0.430464
  17 C :   -0.195866
  18 C :   -0.072858
  19 C :   -0.055100
  20 C :   -0.217903
  21 H :    0.033135
  22 C :   -0.031564
  23 H :    0.031345
  24 H :    0.028555
  25 C :   -0.028380
  26 H :    0.014363
  27 H :    0.013697
  28 C :   -0.057781
  29 H :    0.035679
  30 H :    0.020174
  31 H :    0.018874
  32 H :    0.008681
  33 H :    0.030741

  Mayer bond orders larger than 0.100000
B(  0-S ,  1-C ) :   1.1617 B(  0-S ,  4-C ) :   1.1573 B(  1-C ,  2-C ) :   1.5742
B(  1-C ,  4-C ) :   0.1025 B(  1-C , 32-H ) :   0.9704 B(  2-C ,  3-C ) :   1.2666
B(  2-C ,  6-C ) :   1.0014 B(  3-C ,  4-C ) :   1.5649 B(  3-C ,  5-H ) :   0.9778
B(  4-C , 20-C ) :   1.0284 B(  6-C ,  7-H ) :   0.9135 B(  6-C ,  8-H ) :   0.9405
B(  6-C ,  9-C ) :   1.0765 B(  9-C , 10-H ) :   0.9506 B(  9-C , 11-H ) :   0.9482
B(  9-C , 12-C ) :   1.0738 B( 12-C , 13-H ) :   0.9754 B( 12-C , 14-H ) :   0.9758
B( 12-C , 15-H ) :   0.9752 B( 16-S , 17-C ) :   1.1786 B( 16-S , 20-C ) :   1.1493
B( 17-C , 18-C ) :   1.5889 B( 17-C , 33-H ) :   0.9631 B( 18-C , 19-C ) :   1.2442
B( 18-C , 21-H ) :   0.9961 B( 19-C , 20-C ) :   1.5792 B( 19-C , 22-C ) :   1.0662
B( 22-C , 23-H ) :   0.9224 B( 22-C , 24-H ) :   0.9336 B( 22-C , 25-C ) :   1.0643
B( 25-C , 26-H ) :   0.9509 B( 25-C , 27-H ) :   0.9519 B( 25-C , 28-C ) :   1.0874
B( 28-C , 29-H ) :   0.9708 B( 28-C , 30-H ) :   0.9758 B( 28-C , 31-H ) :   0.9720

Dispersion correction           -0.014286511
FINAL SINGLE POINT ENERGY     -1339.840542416525

DIPOLE MOMENT
-------------
                                X             Y             Z
Electronic contribution:     -2.79711       2.45239      23.44795
Nuclear contribution   :      2.81139      -2.40821     -24.02220
                        -----------------------------------------
Total Dipole Moment    :      0.01428       0.04417      -0.57425
                        -----------------------------------------
Magnitude (a.u.)       :      0.57612
Magnitude (Debye)      :      1.46439

Rotational constants in cm-1:     0.016765     0.008949     0.007662
Rotational constants in MHz :   502.602809   268.271614   229.707431

                             ****ORCA TERMINATED NORMALLY****
TOTAL RUN TIME: 0 days 0 hours 0 minutes 21 seconds 767 msec
