                         Program Version 4.2.1 -  RELEASE  -
|  1> ! wB97X-D3 SP def2-SVP
|  2> %pal
|  3> nprocs 24
|  4> end
|  5>
|  6> * xyz 0 1
|  7> S 	 -53.5726 	 -49.922 	 -78.6174
|  8> C 	 -53.5826 	 -48.1545 	 -78.6107
|  9> C 	 -53.1149 	 -47.6253 	 -79.8148
| 10> C 	 -52.9441 	 -48.6521 	 -80.7771
| 11> C 	 -53.1511 	 -49.9473 	 -80.2953
| 12> H 	 -52.7677 	 -48.5929 	 -81.8517
| 13> C 	 -52.7019 	 -46.193 	 -80.0882
| 14> H 	 -52.31 	 -46.0861 	 -81.0739
| 15> H 	 -51.8198 	 -46.0355 	 -79.459
| 16> C 	 -53.8478 	 -45.1874 	 -79.8038
| 17> H 	 -54.1285 	 -45.2398 	 -78.8039
| 18> H 	 -53.4986 	 -44.2204 	 -80.0617
| 19> C 	 -55.1776 	 -45.4774 	 -80.6072
| 20> H 	 -55.7878 	 -46.3481 	 -80.3253
| 21> H 	 -55.8224 	 -44.5895 	 -80.6506
| 22> H 	 -54.8811 	 -45.6439 	 -81.6505
| 23> S 	 -53.8856 	 -51.7683 	 -82.2086
| 24> C 	 -52.8326 	 -53.0074 	 -82.6384
| 25> C 	 -51.7555 	 -53.0825 	 -81.7452
| 26> C 	 -51.7645 	 -52.0409 	 -80.762
| 27> C 	 -52.8249 	 -51.1818 	 -80.9853
| 28> H 	 -50.8894 	 -53.6685 	 -81.9691
| 29> C 	 -50.6324 	 -51.831 	 -79.7475
| 30> H 	 -51.0395 	 -52.0609 	 -78.7782
| 31> H 	 -50.5459 	 -50.7519 	 -79.6825
| 32> C 	 -49.3308 	 -52.5628 	 -80.0552
| 33> H 	 -49.1039 	 -52.763 	 -81.1455
| 34> H 	 -49.4316 	 -53.5619 	 -79.551
| 35> C 	 -48.1098 	 -51.8709 	 -79.4738
| 36> H 	 -48.2358 	 -51.635 	 -78.4208
| 37> H 	 -47.8704 	 -50.8777 	 -79.9575
| 38> H 	 -47.2839 	 -52.4976 	 -79.722
| 39> H 	 -53.8638 	 -47.5705 	 -77.7589
| 40> H 	 -52.9843 	 -53.7006 	 -83.4821
| 41> *
| 42>
| 43>                          ****END OF INPUT****

CARTESIAN COORDINATES (ANGSTROEM)
---------------------------------
  S    -53.572600  -49.922000  -78.617400
  C    -53.582600  -48.154500  -78.610700
  C    -53.114900  -47.625300  -79.814800
  C    -52.944100  -48.652100  -80.777100
  C    -53.151100  -49.947300  -80.295300
  H    -52.767700  -48.592900  -81.851700
  C    -52.701900  -46.193000  -80.088200
  H    -52.310000  -46.086100  -81.073900
  H    -51.819800  -46.035500  -79.459000
  C    -53.847800  -45.187400  -79.803800
  H    -54.128500  -45.239800  -78.803900
  H    -53.498600  -44.220400  -80.061700
  C    -55.177600  -45.477400  -80.607200
  H    -55.787800  -46.348100  -80.325300
  H    -55.822400  -44.589500  -80.650600
  H    -54.881100  -45.643900  -81.650500
  S    -53.885600  -51.768300  -82.208600
  C    -52.832600  -53.007400  -82.638400
  C    -51.755500  -53.082500  -81.745200
  C    -51.764500  -52.040900  -80.762000
  C    -52.824900  -51.181800  -80.985300
  H    -50.889400  -53.668500  -81.969100
  C    -50.632400  -51.831000  -79.747500
  H    -51.039500  -52.060900  -78.778200
  H    -50.545900  -50.751900  -79.682500
  C    -49.330800  -52.562800  -80.055200
  H    -49.103900  -52.763000  -81.145500
  H    -49.431600  -53.561900  -79.551000
  C    -48.109800  -51.870900  -79.473800
  H    -48.235800  -51.635000  -78.420800
  H    -47.870400  -50.877700  -79.957500
  H    -47.283900  -52.497600  -79.722000
  H    -53.863800  -47.570500  -77.758900
  H    -52.984300  -53.700600  -83.482100

 Total Charge           Charge          ....    0
 Multiplicity           Mult            ....    1
 Number of Electrons    NEL             ....  134
 Basis Dimension        Dim             ....  322

ORBITAL ENERGIES
----------------

  NO   OCC          E(Eh)            E(eV)
   0   2.0000     -88.967349     -2420.9246
   1   2.0000     -88.963233     -2420.8126
   2   2.0000     -10.323121      -280.9064
   3   2.0000     -10.315541      -280.7002
   4   2.0000     -10.314448      -280.6704
   5   2.0000     -10.312316      -280.6124
   6   2.0000     -10.302749      -280.3520
   7   2.0000     -10.299296      -280.2581
   8   2.0000     -10.292959      -280.0856
   9   2.0000     -10.292704      -280.0787
  10   2.0000     -10.292698      -280.0786
  11   2.0000     -10.287753      -279.9440
  12   2.0000     -10.287632      -279.9407
  13   2.0000     -10.285076      -279.8711
  14   2.0000     -10.278883      -279.7026
  15   2.0000     -10.277566      -279.6668
  16   2.0000      -8.081730      -219.9151
  17   2.0000      -8.079576      -219.8564
  18   2.0000      -6.040116      -164.3599
  19   2.0000      -6.037858      -164.2985
  20   2.0000      -6.036247      -164.2546
  21   2.0000      -6.033724      -164.1860
  22   2.0000      -6.032708      -164.1583
  23   2.0000      -6.030626      -164.1017
  24   2.0000      -1.009530       -27.4707
  25   2.0000      -0.985706       -26.8224
  26   2.0000      -0.911135       -24.7932
  27   2.0000      -0.909285       -24.7429
  28   2.0000      -0.864391       -23.5213
  29   2.0000      -0.851154       -23.1611
  30   2.0000      -0.844782       -22.9877
  31   2.0000      -0.807093       -21.9621
  32   2.0000      -0.784839       -21.3566
  33   2.0000      -0.773141       -21.0382
  34   2.0000      -0.710195       -19.3254
  35   2.0000      -0.701603       -19.0916
  36   2.0000      -0.692878       -18.8542
  37   2.0000      -0.650948       -17.7132
  38   2.0000      -0.640380       -17.4256
  39   2.0000      -0.608786       -16.5659
  40   2.0000      -0.597324       -16.2540
  41   2.0000      -0.579148       -15.7594
  42   2.0000      -0.560286       -15.2462
  43   2.0000      -0.548466       -14.9245
  44   2.0000      -0.538493       -14.6531
  45   2.0000      -0.537716       -14.6320
  46   2.0000      -0.516671       -14.0593
  47   2.0000      -0.512992       -13.9592
  48   2.0000      -0.500072       -13.6077
  49   2.0000      -0.489407       -13.3175
  50   2.0000      -0.483363       -13.1530
  51   2.0000      -0.476431       -12.9644
  52   2.0000      -0.472032       -12.8446
  53   2.0000      -0.468512       -12.7489
  54   2.0000      -0.459188       -12.4951
  55   2.0000      -0.447765       -12.1843
  56   2.0000      -0.442429       -12.0391
  57   2.0000      -0.441318       -12.0089
  58   2.0000      -0.434570       -11.8252
  59   2.0000      -0.428667       -11.6646
  60   2.0000      -0.424444       -11.5497
  61   2.0000      -0.416990       -11.3469
  62   2.0000      -0.407929       -11.1003
  63   2.0000      -0.333621        -9.0783
  64   2.0000      -0.328827        -8.9478
  65   2.0000      -0.325186        -8.8488
  66   2.0000      -0.297424        -8.0933
  67   0.0000       0.038242         1.0406
  68   0.0000       0.066959         1.8221
  69   0.0000       0.113672         3.0932
  70   0.0000       0.127089         3.4583
  71   0.0000       0.132639         3.6093

MULLIKEN ATOMIC CHARGES
-----------------------
   0 S :    0.120379
   1 C :   -0.132313
   2 C :   -0.082953
   3 C :    0.033205
   4 C :   -0.198339
   5 H :    0.016359
   6 C :    0.091955
   7 H :    0.010623
   8 H :    0.043069
   9 C :   -0.031279
  10 H :    0.020005
  11 H :    0.022810
  12 C :   -0.086911
  13 H :    0.053384
  14 H :    0.037231
  15 H :    0.020514
  16 S :    0.136592
  17 C :   -0.103330
  18 C :   -0.050207
  19 C :   -0.053295
  20 C :   -0.197158
  21 H :    0.015166
  22 C :    0.127154
  23 H :    0.027669
  24 H :    0.025819
  25 C :   -0.124650
  26 H :    0.049210
  27 H :    0.042273
  28 C :   -0.041324
  29 H :    0.036117
  30 H :    0.035783
  31 H :    0.028792
  32 H :    0.042107
  33 H :    0.065545
Sum of atomic charges:   -0.0000000

LOEWDIN ATOMIC CHARGES
----------------------
   0 S :    0.415199
   1 C :   -0.193869
   2 C :   -0.058755
   3 C :   -0.062381
   4 C :   -0.209663
   5 H :    0.033863
   6 C :   -0.025715
   7 H :    0.024524
   8 H :    0.038984
   9 C :   -0.024902
  10 H :    0.013635
  11 H :    0.020672
  12 C :   -0.071530
  13 H :    0.030132
  14 H :    0.027409
  15 H :    0.022776
  16 S :    0.451941
  17 C :   -0.214781
  18 C :   -0.080771
  19 C :   -0.049159
  20 C :   -0.226837
  21 H :    0.024729
  22 C :   -0.033831
  23 H :    0.032915
  24 H :    0.031721
  25 C :   -0.049694
  26 H :    0.031244
  27 H :    0.032837
  28 C :   -0.064393
  29 H :    0.024475
  30 H :    0.029860
  31 H :    0.023083
  32 H :    0.021246
  33 H :    0.035037

  Mayer bond orders larger than 0.100000
B(  0-S ,  1-C ) :   1.1493 B(  0-S ,  4-C ) :   1.1626 B(  1-C ,  2-C ) :   1.5833
B(  1-C ,  4-C ) :   0.1041 B(  1-C , 32-H ) :   0.9739 B(  2-C ,  3-C ) :   1.2535
B(  2-C ,  6-C ) :   1.0096 B(  3-C ,  4-C ) :   1.5740 B(  3-C ,  5-H ) :   0.9900
B(  4-C , 20-C ) :   1.0035 B(  6-C ,  7-H ) :   0.9428 B(  6-C ,  8-H ) :   0.9385
B(  6-C ,  9-C ) :   1.0735 B(  9-C , 10-H ) :   0.9606 B(  9-C , 11-H ) :   0.9583
B(  9-C , 12-C ) :   1.0668 B( 12-C , 13-H ) :   0.9739 B( 12-C , 14-H ) :   0.9771
B( 12-C , 15-H ) :   0.9790 B( 16-S , 17-C ) :   1.1887 B( 16-S , 20-C ) :   1.1677
B( 17-C , 18-C ) :   1.5651 B( 17-C , 20-C ) :   0.1024 B( 17-C , 33-H ) :   0.9637
B( 18-C , 19-C ) :   1.2798 B( 18-C , 21-H ) :   0.9851 B( 19-C , 20-C ) :   1.5840
B( 19-C , 22-C ) :   1.0204 B( 22-C , 23-H ) :   0.9155 B( 22-C , 24-H ) :   0.9347
B( 22-C , 25-C ) :   1.0563 B( 25-C , 26-H ) :   0.9605 B( 25-C , 27-H ) :   0.9459
B( 25-C , 28-C ) :   1.0916 B( 28-C , 29-H ) :   0.9734 B( 28-C , 30-H ) :   0.9737
B( 28-C , 31-H ) :   0.9725

Dispersion correction           -0.014343939
FINAL SINGLE POINT ENERGY     -1339.882529396637

DIPOLE MOMENT
-------------
                                X             Y             Z
Electronic contribution:    -13.33734     -13.08007      -2.42125
Nuclear contribution   :     13.84622      13.44138       2.38475
                        -----------------------------------------
Total Dipole Moment    :      0.50888       0.36131      -0.03650
                        -----------------------------------------
Magnitude (a.u.)       :      0.62517
Magnitude (Debye)      :      1.58907

Rotational constants in cm-1:     0.020291     0.007889     0.006562
Rotational constants in MHz :   608.315730   236.514787   196.719114

                             ****ORCA TERMINATED NORMALLY****
TOTAL RUN TIME: 0 days 0 hours 0 minutes 21 seconds 501 msec
