                         Program Version 4.2.1 -  RELEASE  -
|  1> ! wB97X-D3 SP def2-SVP
|  2> %pal
|  3> nprocs 24
|  4> end
|  5>
|  6> * xyz 0 1
|  7> S 	 -50.8334 	 9.86605 	 -22.6087
|  8> C 	 -49.6574 	 10.4355 	 -21.3973
|  9> C 	 -50.2769 	 11.1615 	 -20.4382
| 10> C 	 -51.6908 	 11.1639 	 -20.5036
| 11> C 	 -52.1624 	 10.5115 	 -21.6199
| 12> H 	 -52.3956 	 11.7307 	 -19.9131
| 13> C 	 -49.5765 	 11.9119 	 -19.3803
| 14> H 	 -48.5118 	 11.6506 	 -19.3841
| 15> H 	 -49.8817 	 11.5013 	 -18.5144
| 16> C 	 -49.8903 	 13.3733 	 -19.389
| 17> H 	 -50.9224 	 13.443 	 -19.0978
| 18> H 	 -49.3859 	 13.8645 	 -18.6319
| 19> C 	 -49.7366 	 13.9947 	 -20.7757
| 20> H 	 -48.6936 	 13.7519 	 -21.0477
| 21> H 	 -50.4163 	 13.6026 	 -21.4842
| 22> H 	 -49.9503 	 15.1077 	 -20.5488
| 23> S 	 -54.6246 	 9.17956 	 -22.4178
| 24> C 	 -55.9423 	 10.1494 	 -22.9908
| 25> C 	 -55.6415 	 11.5089 	 -22.7913
| 26> C 	 -54.2636 	 11.7656 	 -22.4361
| 27> C 	 -53.5493 	 10.5991 	 -22.1325
| 28> H 	 -56.4929 	 12.2235 	 -22.8901
| 29> C 	 -53.8263 	 13.1425 	 -21.9376
| 30> H 	 -52.7744 	 13.171 	 -21.7154
| 31> H 	 -54.1826 	 13.277 	 -20.8765
| 32> C 	 -54.2383 	 14.2718 	 -22.9165
| 33> H 	 -55.275 	 14.7389 	 -22.7136
| 34> H 	 -54.2477 	 13.9302 	 -23.939
| 35> C 	 -53.2243 	 15.4317 	 -22.7685
| 36> H 	 -53.4669 	 16.1409 	 -23.4838
| 37> H 	 -52.1957 	 15.0684 	 -22.916
| 38> H 	 -53.2859 	 15.9035 	 -21.7822
| 39> H 	 -48.6413 	 10.2188 	 -21.3146
| 40> H 	 -56.8775 	 9.78258 	 -23.4475
| 41> *
| 42>
| 43>                          ****END OF INPUT****

CARTESIAN COORDINATES (ANGSTROEM)
---------------------------------
  S    -50.833400    9.866050  -22.608700
  C    -49.657400   10.435500  -21.397300
  C    -50.276900   11.161500  -20.438200
  C    -51.690800   11.163900  -20.503600
  C    -52.162400   10.511500  -21.619900
  H    -52.395600   11.730700  -19.913100
  C    -49.576500   11.911900  -19.380300
  H    -48.511800   11.650600  -19.384100
  H    -49.881700   11.501300  -18.514400
  C    -49.890300   13.373300  -19.389000
  H    -50.922400   13.443000  -19.097800
  H    -49.385900   13.864500  -18.631900
  C    -49.736600   13.994700  -20.775700
  H    -48.693600   13.751900  -21.047700
  H    -50.416300   13.602600  -21.484200
  H    -49.950300   15.107700  -20.548800
  S    -54.624600    9.179560  -22.417800
  C    -55.942300   10.149400  -22.990800
  C    -55.641500   11.508900  -22.791300
  C    -54.263600   11.765600  -22.436100
  C    -53.549300   10.599100  -22.132500
  H    -56.492900   12.223500  -22.890100
  C    -53.826300   13.142500  -21.937600
  H    -52.774400   13.171000  -21.715400
  H    -54.182600   13.277000  -20.876500
  C    -54.238300   14.271800  -22.916500
  H    -55.275000   14.738900  -22.713600
  H    -54.247700   13.930200  -23.939000
  C    -53.224300   15.431700  -22.768500
  H    -53.466900   16.140900  -23.483800
  H    -52.195700   15.068400  -22.916000
  H    -53.285900   15.903500  -21.782200
  H    -48.641300   10.218800  -21.314600
  H    -56.877500    9.782580  -23.447500

 Total Charge           Charge          ....    0
 Multiplicity           Mult            ....    1
 Number of Electrons    NEL             ....  134
 Basis Dimension        Dim             ....  322

ORBITAL ENERGIES
----------------

  NO   OCC          E(Eh)            E(eV)
   0   2.0000     -88.966097     -2420.8906
   1   2.0000     -88.965832     -2420.8834
   2   2.0000     -10.333983      -281.2020
   3   2.0000     -10.331984      -281.1476
   4   2.0000     -10.323559      -280.9183
   5   2.0000     -10.309368      -280.5322
   6   2.0000     -10.308158      -280.4992
   7   2.0000     -10.300407      -280.2883
   8   2.0000     -10.294986      -280.1408
   9   2.0000     -10.294722      -280.1336
  10   2.0000     -10.293603      -280.1032
  11   2.0000     -10.292054      -280.0610
  12   2.0000     -10.281499      -279.7738
  13   2.0000     -10.277050      -279.6528
  14   2.0000     -10.275524      -279.6112
  15   2.0000     -10.272611      -279.5320
  16   2.0000      -8.079909      -219.8655
  17   2.0000      -8.079853      -219.8640
  18   2.0000      -6.038583      -164.3182
  19   2.0000      -6.038407      -164.3134
  20   2.0000      -6.034625      -164.2105
  21   2.0000      -6.034359      -164.2032
  22   2.0000      -6.030699      -164.1037
  23   2.0000      -6.030451      -164.0969
  24   2.0000      -1.002842       -27.2887
  25   2.0000      -0.981587       -26.7103
  26   2.0000      -0.925605       -25.1870
  27   2.0000      -0.905542       -24.6411
  28   2.0000      -0.869271       -23.6541
  29   2.0000      -0.849153       -23.1066
  30   2.0000      -0.841977       -22.9114
  31   2.0000      -0.815042       -22.1784
  32   2.0000      -0.786595       -21.4043
  33   2.0000      -0.772539       -21.0219
  34   2.0000      -0.709365       -19.3028
  35   2.0000      -0.701092       -19.0777
  36   2.0000      -0.699372       -19.0309
  37   2.0000      -0.646757       -17.5991
  38   2.0000      -0.642595       -17.4859
  39   2.0000      -0.625811       -17.0292
  40   2.0000      -0.595894       -16.2151
  41   2.0000      -0.569902       -15.5078
  42   2.0000      -0.563833       -15.3427
  43   2.0000      -0.559066       -15.2130
  44   2.0000      -0.551407       -15.0045
  45   2.0000      -0.533849       -14.5268
  46   2.0000      -0.520403       -14.1609
  47   2.0000      -0.509593       -13.8667
  48   2.0000      -0.505760       -13.7624
  49   2.0000      -0.500217       -13.6116
  50   2.0000      -0.487130       -13.2555
  51   2.0000      -0.476042       -12.9538
  52   2.0000      -0.475933       -12.9508
  53   2.0000      -0.463008       -12.5991
  54   2.0000      -0.458239       -12.4693
  55   2.0000      -0.450956       -12.2711
  56   2.0000      -0.446267       -12.1435
  57   2.0000      -0.438435       -11.9304
  58   2.0000      -0.433400       -11.7934
  59   2.0000      -0.424097       -11.5403
  60   2.0000      -0.417345       -11.3565
  61   2.0000      -0.414644       -11.2830
  62   2.0000      -0.410645       -11.1742
  63   2.0000      -0.335428        -9.1275
  64   2.0000      -0.330113        -8.9828
  65   2.0000      -0.325023        -8.8443
  66   2.0000      -0.304825        -8.2947
  67   0.0000       0.028373         0.7721
  68   0.0000       0.063172         1.7190
  69   0.0000       0.106519         2.8985
  70   0.0000       0.114875         3.1259
  71   0.0000       0.130309         3.5459

MULLIKEN ATOMIC CHARGES
-----------------------
   0 S :    0.106781
   1 C :   -0.088641
   2 C :   -0.136819
   3 C :    0.022842
   4 C :   -0.131940
   5 H :    0.015458
   6 C :    0.154321
   7 H :    0.003691
   8 H :   -0.006992
   9 C :   -0.050909
  10 H :    0.005716
  11 H :    0.011202
  12 C :   -0.061123
  13 H :    0.035274
  14 H :    0.061202
  15 H :    0.050925
  16 S :    0.108104
  17 C :   -0.115333
  18 C :   -0.055205
  19 C :   -0.007698
  20 C :   -0.183962
  21 H :    0.042897
  22 C :    0.039600
  23 H :    0.001492
  24 H :    0.047780
  25 C :   -0.093387
  26 H :    0.041548
  27 H :    0.040260
  28 C :   -0.039765
  29 H :    0.017485
  30 H :    0.039107
  31 H :    0.030979
  32 H :    0.018436
  33 H :    0.076676
Sum of atomic charges:   -0.0000000

LOEWDIN ATOMIC CHARGES
----------------------
   0 S :    0.382605
   1 C :   -0.178411
   2 C :   -0.061382
   3 C :   -0.056954
   4 C :   -0.175334
   5 H :    0.031709
   6 C :   -0.027025
   7 H :    0.027323
   8 H :    0.018206
   9 C :   -0.033621
  10 H :    0.017768
  11 H :    0.016051
  12 C :   -0.059479
  13 H :    0.029327
  14 H :    0.016954
  15 H :    0.039509
  16 S :    0.394141
  17 C :   -0.194686
  18 C :   -0.080677
  19 C :   -0.052859
  20 C :   -0.197170
  21 H :    0.038549
  22 C :   -0.037590
  23 H :    0.022567
  24 H :    0.040880
  25 C :   -0.041264
  26 H :    0.031581
  27 H :    0.024102
  28 C :   -0.060225
  29 H :    0.014793
  30 H :    0.026370
  31 H :    0.025222
  32 H :    0.019025
  33 H :    0.039993

  Mayer bond orders larger than 0.100000
B(  0-S ,  1-C ) :   1.1118 B(  0-S ,  4-C ) :   1.1508 B(  1-C ,  2-C ) :   1.6430
B(  1-C , 32-H ) :   0.9697 B(  2-C ,  3-C ) :   1.2083 B(  2-C ,  6-C ) :   1.0244
B(  3-C ,  4-C ) :   1.5884 B(  3-C ,  5-H ) :   0.9971 B(  4-C , 20-C ) :   1.0339
B(  6-C ,  7-H ) :   0.9310 B(  6-C ,  8-H ) :   0.9182 B(  6-C ,  9-C ) :   1.0782
B(  9-C , 10-H ) :   0.9453 B(  9-C , 11-H ) :   0.9504 B(  9-C , 12-C ) :   1.0740
B( 12-C , 13-H ) :   0.9756 B( 12-C , 14-H ) :   0.9599 B( 12-C , 15-H ) :   0.9735
B( 16-S , 17-C ) :   1.1705 B( 16-S , 20-C ) :   1.1297 B( 17-C , 18-C ) :   1.5966
B( 17-C , 20-C ) :   0.1003 B( 17-C , 33-H ) :   0.9648 B( 18-C , 19-C ) :   1.2349
B( 18-C , 21-H ) :   0.9820 B( 19-C , 20-C ) :   1.5732 B( 19-C , 22-C ) :   1.0589
B( 22-C , 23-H ) :   0.9375 B( 22-C , 24-H ) :   0.9244 B( 22-C , 25-C ) :   1.0396
B( 25-C , 26-H ) :   0.9506 B( 25-C , 27-H ) :   0.9659 B( 25-C , 28-C ) :   1.0910
B( 28-C , 29-H ) :   0.9721 B( 28-C , 30-H ) :   0.9760 B( 28-C , 31-H ) :   0.9737

Dispersion correction           -0.016278221
FINAL SINGLE POINT ENERGY     -1339.855775805445

DIPOLE MOMENT
-------------
                                X             Y             Z
Electronic contribution:     -6.41717     -29.07085      -7.23942
Nuclear contribution   :      6.37512      29.78400       7.68203
                        -----------------------------------------
Total Dipole Moment    :     -0.04205       0.71314       0.44261
                        -----------------------------------------
Magnitude (a.u.)       :      0.84038
Magnitude (Debye)      :      2.13609

Rotational constants in cm-1:     0.017492     0.010768     0.007519
Rotational constants in MHz :   524.407086   322.813613   225.416166

                             ****ORCA TERMINATED NORMALLY****
TOTAL RUN TIME: 0 days 0 hours 0 minutes 23 seconds 464 msec
