                         Program Version 4.2.1 -  RELEASE  -
|  1> ! wB97X-D3 SP def2-SVP
|  2> %pal
|  3> nprocs 24
|  4> end
|  5>
|  6> * xyz 0 1
|  7> S 	 -33.4783 	 10.7716 	 6.41933
|  8> C 	 -34.4979 	 12.0371 	 5.74686
|  9> C 	 -33.8142 	 13.2159 	 5.82669
| 10> C 	 -32.4803 	 13.1154 	 6.2736
| 11> C 	 -32.1282 	 11.8046 	 6.6255
| 12> H 	 -31.7256 	 13.8064 	 6.61588
| 13> C 	 -34.414 	 14.6203 	 5.53354
| 14> H 	 -35.2482 	 14.8132 	 6.24928
| 15> H 	 -34.8761 	 14.6615 	 4.51965
| 16> C 	 -33.5022 	 15.7824 	 5.78018
| 17> H 	 -33.1234 	 15.8587 	 6.78907
| 18> H 	 -32.6637 	 15.5254 	 5.15264
| 19> C 	 -34.1303 	 17.1374 	 5.55742
| 20> H 	 -34.5137 	 17.4814 	 6.55053
| 21> H 	 -33.367 	 17.7666 	 5.17066
| 22> H 	 -34.9102 	 17.1904 	 4.80013
| 23> S 	 -31.1209 	 11.093 	 9.10544
| 24> C 	 -29.3803 	 10.9235 	 9.36483
| 25> C 	 -28.725 	 11.0791 	 8.11614
| 26> C 	 -29.6105 	 11.4376 	 7.02478
| 27> C 	 -30.9697 	 11.3762 	 7.36948
| 28> H 	 -27.6318 	 11.1256 	 7.97738
| 29> C 	 -29.028 	 11.8358 	 5.73927
| 30> H 	 -28.0061 	 12.198 	 5.82705
| 31> H 	 -29.3845 	 12.8357 	 5.5253
| 32> C 	 -29.1454 	 10.7788 	 4.66454
| 33> H 	 -28.6352 	 11.0741 	 3.72867
| 34> H 	 -30.1721 	 10.5678 	 4.39569
| 35> C 	 -28.4571 	 9.45592 	 4.99003
| 36> H 	 -28.643 	 8.7555 	 4.17177
| 37> H 	 -28.8169 	 8.88506 	 5.89042
| 38> H 	 -27.318 	 9.60432 	 5.11924
| 39> H 	 -35.5966 	 11.938 	 5.64878
| 40> H 	 -28.9841 	 10.9479 	 10.3525
| 41> *
| 42>
| 43>                          ****END OF INPUT****

CARTESIAN COORDINATES (ANGSTROEM)
---------------------------------
  S    -33.478300   10.771600    6.419330
  C    -34.497900   12.037100    5.746860
  C    -33.814200   13.215900    5.826690
  C    -32.480300   13.115400    6.273600
  C    -32.128200   11.804600    6.625500
  H    -31.725600   13.806400    6.615880
  C    -34.414000   14.620300    5.533540
  H    -35.248200   14.813200    6.249280
  H    -34.876100   14.661500    4.519650
  C    -33.502200   15.782400    5.780180
  H    -33.123400   15.858700    6.789070
  H    -32.663700   15.525400    5.152640
  C    -34.130300   17.137400    5.557420
  H    -34.513700   17.481400    6.550530
  H    -33.367000   17.766600    5.170660
  H    -34.910200   17.190400    4.800130
  S    -31.120900   11.093000    9.105440
  C    -29.380300   10.923500    9.364830
  C    -28.725000   11.079100    8.116140
  C    -29.610500   11.437600    7.024780
  C    -30.969700   11.376200    7.369480
  H    -27.631800   11.125600    7.977380
  C    -29.028000   11.835800    5.739270
  H    -28.006100   12.198000    5.827050
  H    -29.384500   12.835700    5.525300
  C    -29.145400   10.778800    4.664540
  H    -28.635200   11.074100    3.728670
  H    -30.172100   10.567800    4.395690
  C    -28.457100    9.455920    4.990030
  H    -28.643000    8.755500    4.171770
  H    -28.816900    8.885060    5.890420
  H    -27.318000    9.604320    5.119240
  H    -35.596600   11.938000    5.648780
  H    -28.984100   10.947900   10.352500

 Total Charge           Charge          ....    0
 Multiplicity           Mult            ....    1
 Number of Electrons    NEL             ....  134
 Basis Dimension        Dim             ....  322

ORBITAL ENERGIES
----------------

  NO   OCC          E(Eh)            E(eV)
   0   2.0000     -88.966206     -2420.8935
   1   2.0000     -88.964821     -2420.8558
   2   2.0000     -10.328089      -281.0416
   3   2.0000     -10.325944      -280.9832
   4   2.0000     -10.325107      -280.9604
   5   2.0000     -10.314049      -280.6595
   6   2.0000     -10.304548      -280.4010
   7   2.0000     -10.303506      -280.3727
   8   2.0000     -10.302787      -280.3531
   9   2.0000     -10.293428      -280.0984
  10   2.0000     -10.292438      -280.0715
  11   2.0000     -10.285670      -279.8873
  12   2.0000     -10.284244      -279.8485
  13   2.0000     -10.281151      -279.7644
  14   2.0000     -10.277690      -279.6702
  15   2.0000     -10.277585      -279.6673
  16   2.0000      -8.080355      -219.8776
  17   2.0000      -8.080002      -219.8680
  18   2.0000      -6.038931      -164.3277
  19   2.0000      -6.038386      -164.3128
  20   2.0000      -6.034777      -164.2146
  21   2.0000      -6.034216      -164.1994
  22   2.0000      -6.031228      -164.1180
  23   2.0000      -6.031091      -164.1143
  24   2.0000      -1.008682       -27.4476
  25   2.0000      -0.981954       -26.7203
  26   2.0000      -0.916820       -24.9479
  27   2.0000      -0.913217       -24.8499
  28   2.0000      -0.872858       -23.7517
  29   2.0000      -0.848144       -23.0792
  30   2.0000      -0.843677       -22.9576
  31   2.0000      -0.811070       -22.0703
  32   2.0000      -0.783496       -21.3200
  33   2.0000      -0.774340       -21.0709
  34   2.0000      -0.710753       -19.3406
  35   2.0000      -0.693775       -18.8786
  36   2.0000      -0.685104       -18.6426
  37   2.0000      -0.663258       -18.0482
  38   2.0000      -0.646433       -17.5903
  39   2.0000      -0.613983       -16.7073
  40   2.0000      -0.599401       -16.3105
  41   2.0000      -0.578637       -15.7455
  42   2.0000      -0.564124       -15.3506
  43   2.0000      -0.553443       -15.0600
  44   2.0000      -0.551498       -15.0070
  45   2.0000      -0.525213       -14.2918
  46   2.0000      -0.515740       -14.0340
  47   2.0000      -0.507693       -13.8150
  48   2.0000      -0.503977       -13.7139
  49   2.0000      -0.495132       -13.4732
  50   2.0000      -0.487569       -13.2674
  51   2.0000      -0.484486       -13.1835
  52   2.0000      -0.471408       -12.8277
  53   2.0000      -0.466237       -12.6870
  54   2.0000      -0.458701       -12.4819
  55   2.0000      -0.446281       -12.1439
  56   2.0000      -0.439283       -11.9535
  57   2.0000      -0.434593       -11.8259
  58   2.0000      -0.430221       -11.7069
  59   2.0000      -0.416510       -11.3338
  60   2.0000      -0.414082       -11.2678
  61   2.0000      -0.408811       -11.1243
  62   2.0000      -0.406589       -11.0638
  63   2.0000      -0.339049        -9.2260
  64   2.0000      -0.331361        -9.0168
  65   2.0000      -0.326735        -8.8909
  66   2.0000      -0.299083        -8.1385
  67   0.0000       0.031216         0.8494
  68   0.0000       0.053285         1.4500
  69   0.0000       0.113455         3.0873
  70   0.0000       0.122072         3.3218
  71   0.0000       0.132020         3.5925

MULLIKEN ATOMIC CHARGES
-----------------------
   0 S :    0.107529
   1 C :   -0.134269
   2 C :   -0.067187
   3 C :    0.028425
   4 C :   -0.186639
   5 H :    0.020301
   6 C :    0.030608
   7 H :    0.028923
   8 H :    0.045029
   9 C :   -0.108762
  10 H :    0.030875
  11 H :    0.026710
  12 C :   -0.007133
  13 H :    0.044489
  14 H :    0.026593
  15 H :    0.024099
  16 S :    0.103278
  17 C :   -0.099884
  18 C :   -0.020311
  19 C :   -0.079800
  20 C :   -0.144146
  21 H :    0.031623
  22 C :    0.112847
  23 H :    0.001143
  24 H :    0.011942
  25 C :   -0.038296
  26 H :    0.027747
  27 H :    0.037623
  28 C :   -0.110023
  29 H :    0.036596
  30 H :    0.051483
  31 H :    0.034856
  32 H :    0.068034
  33 H :    0.065697
Sum of atomic charges:    0.0000000

LOEWDIN ATOMIC CHARGES
----------------------
   0 S :    0.427394
   1 C :   -0.207330
   2 C :   -0.063981
   3 C :   -0.071255
   4 C :   -0.209197
   5 H :    0.035244
   6 C :   -0.035678
   7 H :    0.031660
   8 H :    0.035066
   9 C :   -0.052826
  10 H :    0.025846
  11 H :    0.018461
  12 C :   -0.059234
  13 H :    0.034037
  14 H :    0.027070
  15 H :    0.022307
  16 S :    0.402500
  17 C :   -0.178117
  18 C :   -0.069473
  19 C :   -0.049160
  20 C :   -0.208919
  21 H :    0.033841
  22 C :   -0.045282
  23 H :    0.031916
  24 H :    0.034487
  25 C :   -0.037467
  26 H :    0.029141
  27 H :    0.025807
  28 C :   -0.077902
  29 H :    0.026894
  30 H :    0.029075
  31 H :    0.028749
  32 H :    0.039933
  33 H :    0.026393

  Mayer bond orders larger than 0.100000
B(  0-S ,  1-C ) :   1.1409 B(  0-S ,  4-C ) :   1.1848 B(  1-C ,  2-C ) :   1.6058
B(  1-C ,  4-C ) :   0.1035 B(  1-C , 32-H ) :   0.9707 B(  2-C ,  3-C ) :   1.2628
B(  2-C ,  6-C ) :   0.9891 B(  3-C ,  4-C ) :   1.5354 B(  3-C ,  5-H ) :   0.9893
B(  4-C , 20-C ) :   1.0314 B(  6-C ,  7-H ) :   0.9395 B(  6-C ,  8-H ) :   0.9422
B(  6-C ,  9-C ) :   1.1034 B(  9-C , 10-H ) :   0.9492 B(  9-C , 11-H ) :   0.9473
B(  9-C , 12-C ) :   1.0649 B( 12-C , 13-H ) :   0.9776 B( 12-C , 14-H ) :   0.9691
B( 12-C , 15-H ) :   0.9759 B( 16-S , 17-C ) :   1.1728 B( 16-S , 20-C ) :   1.1409
B( 17-C , 18-C ) :   1.5528 B( 17-C , 20-C ) :   0.1053 B( 17-C , 33-H ) :   0.9754
B( 18-C , 19-C ) :   1.2738 B( 18-C , 21-H ) :   0.9813 B( 19-C , 20-C ) :   1.5661
B( 19-C , 22-C ) :   1.0543 B( 22-C , 23-H ) :   0.9240 B( 22-C , 24-H ) :   0.9158
B( 22-C , 25-C ) :   1.0698 B( 25-C , 26-H ) :   0.9525 B( 25-C , 27-H ) :   0.9584
B( 25-C , 28-C ) :   1.0752 B( 28-C , 29-H ) :   0.9733 B( 28-C , 30-H ) :   0.9710
B( 28-C , 31-H ) :   0.9736

Dispersion correction           -0.014470701
FINAL SINGLE POINT ENERGY     -1339.863918866308

DIPOLE MOMENT
-------------
                                X             Y             Z
Electronic contribution:     -5.63338     -15.23543      14.39243
Nuclear contribution   :      5.85860      15.90442     -14.47982
                        -----------------------------------------
Total Dipole Moment    :      0.22522       0.66899      -0.08740
                        -----------------------------------------
Magnitude (a.u.)       :      0.71128
Magnitude (Debye)      :      1.80792

Rotational constants in cm-1:     0.019457     0.007800     0.007520
Rotational constants in MHz :   583.296720   233.838740   225.431233

                             ****ORCA TERMINATED NORMALLY****
TOTAL RUN TIME: 0 days 0 hours 0 minutes 20 seconds 637 msec
