                         Program Version 4.2.1 -  RELEASE  -
|  1> ! wB97X-D3 SP def2-SVP
|  2> %pal
|  3> nprocs 24
|  4> end
|  5>
|  6> * xyz 0 1
|  7> S 	 -69.0062 	 0.437249 	 -108.707
|  8> C 	 -69.4318 	 0.301885 	 -107.058
|  9> C 	 -69.1342 	 1.49145 	 -106.384
| 10> C 	 -68.4765 	 2.47548 	 -107.16
| 11> C 	 -68.2847 	 2.00308 	 -108.464
| 12> H 	 -68.1445 	 3.45765 	 -106.856
| 13> C 	 -69.6487 	 1.70363 	 -104.979
| 14> H 	 -70.2576 	 2.62694 	 -104.995
| 15> H 	 -68.7845 	 1.88766 	 -104.34
| 16> C 	 -70.6038 	 0.6996 	 -104.313
| 17> H 	 -71.6601 	 0.805528 	 -104.697
| 18> H 	 -70.3802 	 -0.318938 	 -104.584
| 19> C 	 -70.698 	 0.83268 	 -102.714
| 20> H 	 -71.3751 	 0.122277 	 -102.316
| 21> H 	 -69.6747 	 0.592454 	 -102.392
| 22> H 	 -71.0741 	 1.77669 	 -102.362
| 23> S 	 -68.2777 	 2.92493 	 -111.079
| 24> C 	 -66.9149 	 3.8551 	 -111.699
| 25> C 	 -66.0429 	 4.14484 	 -110.703
| 26> C 	 -66.2741 	 3.45655 	 -109.428
| 27> C 	 -67.4631 	 2.69806 	 -109.526
| 28> H 	 -65.2053 	 4.8098 	 -110.844
| 29> C 	 -65.365 	 3.63323 	 -108.176
| 30> H 	 -65.9871 	 3.97966 	 -107.38
| 31> H 	 -64.7114 	 4.5033 	 -108.289
| 32> C 	 -64.607 	 2.43905 	 -107.569
| 33> H 	 -64.0738 	 2.0509 	 -108.451
| 34> H 	 -65.281 	 1.67288 	 -107.235
| 35> C 	 -63.5619 	 2.77504 	 -106.389
| 36> H 	 -63.0965 	 1.8254 	 -105.987
| 37> H 	 -63.9883 	 3.30293 	 -105.545
| 38> H 	 -62.7389 	 3.40808 	 -106.653
| 39> H 	 -69.9679 	 -0.54895 	 -106.592
| 40> H 	 -66.8232 	 4.234 	 -112.704
| 41> *
| 42>
| 43>                          ****END OF INPUT****

CARTESIAN COORDINATES (ANGSTROEM)
---------------------------------
  S    -69.006200    0.437249  -108.707000
  C    -69.431800    0.301885  -107.058000
  C    -69.134200    1.491450  -106.384000
  C    -68.476500    2.475480  -107.160000
  C    -68.284700    2.003080  -108.464000
  H    -68.144500    3.457650  -106.856000
  C    -69.648700    1.703630  -104.979000
  H    -70.257600    2.626940  -104.995000
  H    -68.784500    1.887660  -104.340000
  C    -70.603800    0.699600  -104.313000
  H    -71.660100    0.805528  -104.697000
  H    -70.380200   -0.318938  -104.584000
  C    -70.698000    0.832680  -102.714000
  H    -71.375100    0.122277  -102.316000
  H    -69.674700    0.592454  -102.392000
  H    -71.074100    1.776690  -102.362000
  S    -68.277700    2.924930  -111.079000
  C    -66.914900    3.855100  -111.699000
  C    -66.042900    4.144840  -110.703000
  C    -66.274100    3.456550  -109.428000
  C    -67.463100    2.698060  -109.526000
  H    -65.205300    4.809800  -110.844000
  C    -65.365000    3.633230  -108.176000
  H    -65.987100    3.979660  -107.380000
  H    -64.711400    4.503300  -108.289000
  C    -64.607000    2.439050  -107.569000
  H    -64.073800    2.050900  -108.451000
  H    -65.281000    1.672880  -107.235000
  C    -63.561900    2.775040  -106.389000
  H    -63.096500    1.825400  -105.987000
  H    -63.988300    3.302930  -105.545000
  H    -62.738900    3.408080  -106.653000
  H    -69.967900   -0.548950  -106.592000
  H    -66.823200    4.234000  -112.704000

 Total Charge           Charge          ....    0
 Multiplicity           Mult            ....    1
 Number of Electrons    NEL             ....  134
 Basis Dimension        Dim             ....  322

ORBITAL ENERGIES
----------------

  NO   OCC          E(Eh)            E(eV)
   0   2.0000     -88.968766     -2420.9632
   1   2.0000     -88.964703     -2420.8526
   2   2.0000     -10.335158      -281.2339
   3   2.0000     -10.333700      -281.1943
   4   2.0000     -10.315877      -280.7093
   5   2.0000     -10.314546      -280.6731
   6   2.0000     -10.312892      -280.6281
   7   2.0000     -10.302009      -280.3319
   8   2.0000     -10.297734      -280.2156
   9   2.0000     -10.295666      -280.1593
  10   2.0000     -10.295367      -280.1512
  11   2.0000     -10.294758      -280.1346
  12   2.0000     -10.292893      -280.0839
  13   2.0000     -10.290760      -280.0258
  14   2.0000     -10.285620      -279.8860
  15   2.0000     -10.282906      -279.8121
  16   2.0000      -8.084020      -219.9774
  17   2.0000      -8.079106      -219.8436
  18   2.0000      -6.042354      -164.4208
  19   2.0000      -6.038381      -164.3127
  20   2.0000      -6.037724      -164.2948
  21   2.0000      -6.035016      -164.2211
  22   2.0000      -6.033720      -164.1859
  23   2.0000      -6.029714      -164.0769
  24   2.0000      -1.004716       -27.3397
  25   2.0000      -0.982072       -26.7235
  26   2.0000      -0.906047       -24.6548
  27   2.0000      -0.898273       -24.4432
  28   2.0000      -0.861899       -23.4535
  29   2.0000      -0.852919       -23.2091
  30   2.0000      -0.839765       -22.8512
  31   2.0000      -0.813955       -22.1488
  32   2.0000      -0.782633       -21.2965
  33   2.0000      -0.770303       -20.9610
  34   2.0000      -0.711766       -19.3681
  35   2.0000      -0.705702       -19.2031
  36   2.0000      -0.685783       -18.6611
  37   2.0000      -0.660509       -17.9734
  38   2.0000      -0.639362       -17.3979
  39   2.0000      -0.611955       -16.6522
  40   2.0000      -0.594434       -16.1754
  41   2.0000      -0.571446       -15.5498
  42   2.0000      -0.564171       -15.3519
  43   2.0000      -0.557296       -15.1648
  44   2.0000      -0.519331       -14.1317
  45   2.0000      -0.516717       -14.0606
  46   2.0000      -0.512520       -13.9464
  47   2.0000      -0.511507       -13.9188
  48   2.0000      -0.509798       -13.8723
  49   2.0000      -0.494047       -13.4437
  50   2.0000      -0.489788       -13.3278
  51   2.0000      -0.483394       -13.1538
  52   2.0000      -0.477498       -12.9934
  53   2.0000      -0.459497       -12.5036
  54   2.0000      -0.457973       -12.4621
  55   2.0000      -0.449232       -12.2242
  56   2.0000      -0.447767       -12.1844
  57   2.0000      -0.440804       -11.9949
  58   2.0000      -0.436167       -11.8687
  59   2.0000      -0.423580       -11.5262
  60   2.0000      -0.417174       -11.3519
  61   2.0000      -0.415853       -11.3159
  62   2.0000      -0.414667       -11.2837
  63   2.0000      -0.347337        -9.4515
  64   2.0000      -0.332262        -9.0413
  65   2.0000      -0.327463        -8.9107
  66   2.0000      -0.292062        -7.9474
  67   0.0000       0.028061         0.7636
  68   0.0000       0.074700         2.0327
  69   0.0000       0.103822         2.8251
  70   0.0000       0.127468         3.4686
  71   0.0000       0.132591         3.6080

MULLIKEN ATOMIC CHARGES
-----------------------
   0 S :    0.131279
   1 C :   -0.139977
   2 C :   -0.091656
   3 C :    0.026884
   4 C :   -0.151003
   5 H :    0.017354
   6 C :    0.064399
   7 H :    0.040195
   8 H :    0.031097
   9 C :   -0.127516
  10 H :    0.036785
  11 H :    0.023662
  12 C :   -0.032948
  13 H :    0.026087
  14 H :    0.038315
  15 H :    0.035016
  16 S :    0.092599
  17 C :   -0.079417
  18 C :   -0.031297
  19 C :   -0.048469
  20 C :   -0.141863
  21 H :    0.015981
  22 C :    0.078239
  23 H :    0.003732
  24 H :    0.012868
  25 C :   -0.058557
  26 H :    0.035369
  27 H :    0.043741
  28 C :   -0.073915
  29 H :    0.046208
  30 H :    0.027613
  31 H :    0.027057
  32 H :    0.065483
  33 H :    0.056657
Sum of atomic charges:   -0.0000000

LOEWDIN ATOMIC CHARGES
----------------------
   0 S :    0.434997
   1 C :   -0.226309
   2 C :   -0.065400
   3 C :   -0.059681
   4 C :   -0.199513
   5 H :    0.033593
   6 C :   -0.039701
   7 H :    0.039897
   8 H :    0.029798
   9 C :   -0.044374
  10 H :    0.027877
  11 H :    0.013212
  12 C :   -0.055014
  13 H :    0.022114
  14 H :    0.027821
  15 H :    0.022985
  16 S :    0.389111
  17 C :   -0.181967
  18 C :   -0.067867
  19 C :   -0.053723
  20 C :   -0.187312
  21 H :    0.029077
  22 C :   -0.037201
  23 H :    0.022374
  24 H :    0.030568
  25 C :   -0.033218
  26 H :    0.027374
  27 H :    0.025145
  28 C :   -0.071118
  29 H :    0.036602
  30 H :    0.021762
  31 H :    0.020429
  32 H :    0.036359
  33 H :    0.031304

  Mayer bond orders larger than 0.100000
B(  0-S ,  1-C ) :   1.1482 B(  0-S ,  4-C ) :   1.1852 B(  1-C ,  2-C ) :   1.5885
B(  1-C , 32-H ) :   0.9561 B(  2-C ,  3-C ) :   1.2723 B(  2-C ,  6-C ) :   1.0107
B(  3-C ,  4-C ) :   1.5332 B(  3-C ,  5-H ) :   1.0007 B(  4-C , 20-C ) :   0.9994
B(  6-C ,  7-H ) :   0.9434 B(  6-C ,  8-H ) :   0.9371 B(  6-C ,  9-C ) :   1.0660
B(  9-C , 10-H ) :   0.9578 B(  9-C , 11-H ) :   0.9533 B(  9-C , 12-C ) :   1.0746
B( 12-C , 13-H ) :   0.9751 B( 12-C , 14-H ) :   0.9790 B( 12-C , 15-H ) :   0.9795
B( 16-S , 17-C ) :   1.1285 B( 16-S , 20-C ) :   1.1520 B( 17-C , 18-C ) :   1.6353
B( 17-C , 33-H ) :   0.9698 B( 18-C , 19-C ) :   1.2294 B( 18-C , 21-H ) :   0.9875
B( 19-C , 20-C ) :   1.6050 B( 19-C , 22-C ) :   1.0342 B( 22-C , 23-H ) :   0.9291
B( 22-C , 24-H ) :   0.9363 B( 22-C , 25-C ) :   1.0540 B( 25-C , 26-H ) :   0.9605
B( 25-C , 27-H ) :   0.9578 B( 25-C , 28-C ) :   1.0654 B( 28-C , 29-H ) :   0.9772
B( 28-C , 30-H ) :   0.9784 B( 28-C , 31-H ) :   0.9780

Dispersion correction           -0.013734273
FINAL SINGLE POINT ENERGY     -1339.874022638030

DIPOLE MOMENT
-------------
                                X             Y             Z
Electronic contribution:     -7.58391      -1.08992     -29.30649
Nuclear contribution   :      7.74881       1.39812      29.92358
                        -----------------------------------------
Total Dipole Moment    :      0.16490       0.30820       0.61710
                        -----------------------------------------
Magnitude (a.u.)       :      0.70922
Magnitude (Debye)      :      1.80269

Rotational constants in cm-1:     0.018705     0.007865     0.006092
Rotational constants in MHz :   560.749022   235.771786   182.627550

                             ****ORCA TERMINATED NORMALLY****
TOTAL RUN TIME: 0 days 0 hours 0 minutes 20 seconds 893 msec
