                         Program Version 4.2.1 -  RELEASE  -
|  1> ! wB97X-D3 SP def2-SVP
|  2> %pal
|  3> nprocs 24
|  4> end
|  5>
|  6> * xyz 0 1
|  7> S 	 -135.97 	 73.2129 	 -68.2016
|  8> C 	 -134.362 	 73.7275 	 -68.6509
|  9> C 	 -133.576 	 73.9711 	 -67.4914
| 10> C 	 -134.328 	 73.987 	 -66.2721
| 11> C 	 -135.689 	 73.5779 	 -66.5025
| 12> H 	 -134.051 	 74.2803 	 -65.2511
| 13> C 	 -132.121 	 74.4027 	 -67.48
| 14> H 	 -131.768 	 74.1921 	 -68.5104
| 15> H 	 -131.653 	 73.8159 	 -66.7066
| 16> C 	 -131.924 	 75.9024 	 -67.2092
| 17> H 	 -132.689 	 76.1514 	 -66.477
| 18> H 	 -131.013 	 76.0496 	 -66.6405
| 19> C 	 -132.203 	 76.8828 	 -68.3846
| 20> H 	 -133.139 	 76.7584 	 -68.9395
| 21> H 	 -132.171 	 77.925 	 -68.0152
| 22> H 	 -131.325 	 76.7213 	 -69.0098
| 23> S 	 -137.306 	 71.7962 	 -65.3024
| 24> C 	 -138.434 	 72.3197 	 -64.1015
| 25> C 	 -138.226 	 73.6585 	 -63.7372
| 26> C 	 -137.254 	 74.2855 	 -64.5348
| 27> C 	 -136.744 	 73.4486 	 -65.5066
| 28> H 	 -138.745 	 74.1476 	 -62.9139
| 29> C 	 -136.964 	 75.7509 	 -64.319
| 30> H 	 -135.96 	 75.8911 	 -64.6863
| 31> H 	 -136.906 	 76.1148 	 -63.2538
| 32> C 	 -137.983 	 76.7241 	 -64.9113
| 33> H 	 -137.637 	 77.7149 	 -64.6524
| 34> H 	 -138.852 	 76.7017 	 -64.3183
| 35> C 	 -138.061 	 76.5538 	 -66.4001
| 36> H 	 -137.171 	 76.8242 	 -66.9395
| 37> H 	 -138.704 	 77.2959 	 -66.7708
| 38> H 	 -138.363 	 75.6036 	 -66.8744
| 39> H 	 -133.953 	 73.8961 	 -69.6907
| 40> H 	 -138.998 	 71.6694 	 -63.4677
| 41> *
| 42>
| 43>                          ****END OF INPUT****

CARTESIAN COORDINATES (ANGSTROEM)
---------------------------------
  S    -135.970000   73.212900  -68.201600
  C    -134.362000   73.727500  -68.650900
  C    -133.576000   73.971100  -67.491400
  C    -134.328000   73.987000  -66.272100
  C    -135.689000   73.577900  -66.502500
  H    -134.051000   74.280300  -65.251100
  C    -132.121000   74.402700  -67.480000
  H    -131.768000   74.192100  -68.510400
  H    -131.653000   73.815900  -66.706600
  C    -131.924000   75.902400  -67.209200
  H    -132.689000   76.151400  -66.477000
  H    -131.013000   76.049600  -66.640500
  C    -132.203000   76.882800  -68.384600
  H    -133.139000   76.758400  -68.939500
  H    -132.171000   77.925000  -68.015200
  H    -131.325000   76.721300  -69.009800
  S    -137.306000   71.796200  -65.302400
  C    -138.434000   72.319700  -64.101500
  C    -138.226000   73.658500  -63.737200
  C    -137.254000   74.285500  -64.534800
  C    -136.744000   73.448600  -65.506600
  H    -138.745000   74.147600  -62.913900
  C    -136.964000   75.750900  -64.319000
  H    -135.960000   75.891100  -64.686300
  H    -136.906000   76.114800  -63.253800
  C    -137.983000   76.724100  -64.911300
  H    -137.637000   77.714900  -64.652400
  H    -138.852000   76.701700  -64.318300
  C    -138.061000   76.553800  -66.400100
  H    -137.171000   76.824200  -66.939500
  H    -138.704000   77.295900  -66.770800
  H    -138.363000   75.603600  -66.874400
  H    -133.953000   73.896100  -69.690700
  H    -138.998000   71.669400  -63.467700

 Total Charge           Charge          ....    0
 Multiplicity           Mult            ....    1
 Number of Electrons    NEL             ....  134
 Basis Dimension        Dim             ....  322

ORBITAL ENERGIES
----------------

  NO   OCC          E(Eh)            E(eV)
   0   2.0000     -88.971367     -2421.0340
   1   2.0000     -88.966343     -2420.8973
   2   2.0000     -10.334265      -281.2096
   3   2.0000     -10.325121      -280.9608
   4   2.0000     -10.322512      -280.8898
   5   2.0000     -10.313799      -280.6527
   6   2.0000     -10.305459      -280.4258
   7   2.0000     -10.302243      -280.3383
   8   2.0000     -10.299214      -280.2559
   9   2.0000     -10.292260      -280.0666
  10   2.0000     -10.291450      -280.0446
  11   2.0000     -10.288007      -279.9509
  12   2.0000     -10.285563      -279.8844
  13   2.0000     -10.282989      -279.8143
  14   2.0000     -10.279628      -279.7229
  15   2.0000     -10.263196      -279.2758
  16   2.0000      -8.085337      -220.0132
  17   2.0000      -8.081347      -219.9046
  18   2.0000      -6.043821      -164.4607
  19   2.0000      -6.039810      -164.3516
  20   2.0000      -6.039688      -164.3483
  21   2.0000      -6.036312      -164.2564
  22   2.0000      -6.035896      -164.2451
  23   2.0000      -6.032178      -164.1439
  24   2.0000      -1.005130       -27.3510
  25   2.0000      -0.979951       -26.6658
  26   2.0000      -0.913590       -24.8600
  27   2.0000      -0.910096       -24.7650
  28   2.0000      -0.863768       -23.5043
  29   2.0000      -0.851827       -23.1794
  30   2.0000      -0.844639       -22.9838
  31   2.0000      -0.805812       -21.9273
  32   2.0000      -0.784891       -21.3580
  33   2.0000      -0.773019       -21.0349
  34   2.0000      -0.711894       -19.3716
  35   2.0000      -0.700214       -19.0538
  36   2.0000      -0.691058       -18.8047
  37   2.0000      -0.662427       -18.0256
  38   2.0000      -0.635801       -17.3010
  39   2.0000      -0.613811       -16.7026
  40   2.0000      -0.594257       -16.1705
  41   2.0000      -0.566892       -15.4259
  42   2.0000      -0.551486       -15.0067
  43   2.0000      -0.550440       -14.9782
  44   2.0000      -0.542432       -14.7603
  45   2.0000      -0.535208       -14.5637
  46   2.0000      -0.515652       -14.0316
  47   2.0000      -0.508466       -13.8361
  48   2.0000      -0.507155       -13.8004
  49   2.0000      -0.495388       -13.4802
  50   2.0000      -0.491050       -13.3621
  51   2.0000      -0.477633       -12.9970
  52   2.0000      -0.468701       -12.7540
  53   2.0000      -0.461800       -12.5662
  54   2.0000      -0.459409       -12.5012
  55   2.0000      -0.451846       -12.2953
  56   2.0000      -0.447506       -12.1773
  57   2.0000      -0.438899       -11.9431
  58   2.0000      -0.432793       -11.7769
  59   2.0000      -0.424691       -11.5564
  60   2.0000      -0.413974       -11.2648
  61   2.0000      -0.410333       -11.1657
  62   2.0000      -0.404750       -11.0138
  63   2.0000      -0.339131        -9.2282
  64   2.0000      -0.333112        -9.0644
  65   2.0000      -0.328622        -8.9422
  66   2.0000      -0.288971        -7.8633
  67   0.0000       0.031064         0.8453
  68   0.0000       0.058054         1.5797
  69   0.0000       0.106679         2.9029
  70   0.0000       0.117949         3.2096
  71   0.0000       0.122456         3.3322

MULLIKEN ATOMIC CHARGES
-----------------------
   0 S :    0.128242
   1 C :   -0.137142
   2 C :   -0.123161
   3 C :    0.041849
   4 C :   -0.187822
   5 H :    0.031853
   6 C :    0.089923
   7 H :    0.016436
   8 H :    0.033035
   9 C :   -0.079688
  10 H :    0.012844
  11 H :    0.027526
  12 C :   -0.055929
  13 H :    0.048162
  14 H :    0.040468
  15 H :    0.031425
  16 S :    0.115454
  17 C :   -0.068823
  18 C :   -0.058106
  19 C :   -0.006060
  20 C :   -0.178997
  21 H :    0.020153
  22 C :    0.044232
  23 H :    0.001266
  24 H :    0.025805
  25 C :   -0.009048
  26 H :    0.012132
  27 H :    0.010041
  28 C :   -0.019464
  29 H :    0.016808
  30 H :    0.006468
  31 H :    0.047827
  32 H :    0.072732
  33 H :    0.049559
Sum of atomic charges:    0.0000000

LOEWDIN ATOMIC CHARGES
----------------------
   0 S :    0.415143
   1 C :   -0.223404
   2 C :   -0.062586
   3 C :   -0.062569
   4 C :   -0.198590
   5 H :    0.036012
   6 C :   -0.029972
   7 H :    0.028396
   8 H :    0.033948
   9 C :   -0.046049
  10 H :    0.019720
  11 H :    0.024352
  12 C :   -0.065538
  13 H :    0.029236
  14 H :    0.031798
  15 H :    0.023976
  16 S :    0.421261
  17 C :   -0.191500
  18 C :   -0.066204
  19 C :   -0.058076
  20 C :   -0.202942
  21 H :    0.032433
  22 C :   -0.034369
  23 H :    0.021124
  24 H :    0.035442
  25 C :   -0.032096
  26 H :    0.026942
  27 H :    0.017397
  28 C :   -0.068816
  29 H :    0.027829
  30 H :    0.019815
  31 H :    0.031530
  32 H :    0.043137
  33 H :    0.023222

  Mayer bond orders larger than 0.100000
B(  0-S ,  1-C ) :   1.1421 B(  0-S ,  4-C ) :   1.1708 B(  1-C ,  2-C ) :   1.5824
B(  1-C ,  4-C ) :   0.1107 B(  1-C , 32-H ) :   0.9588 B(  2-C ,  3-C ) :   1.2451
B(  2-C ,  6-C ) :   1.0372 B(  3-C ,  4-C ) :   1.5450 B(  3-C ,  5-H ) :   0.9845
B(  4-C , 20-C ) :   1.0273 B(  6-C ,  7-H ) :   0.9433 B(  6-C ,  8-H ) :   0.9321
B(  6-C ,  9-C ) :   1.0655 B(  9-C , 10-H ) :   0.9572 B(  9-C , 11-H ) :   0.9574
B(  9-C , 12-C ) :   1.0621 B( 12-C , 13-H ) :   0.9756 B( 12-C , 14-H ) :   0.9743
B( 12-C , 15-H ) :   0.9787 B( 16-S , 17-C ) :   1.1636 B( 16-S , 20-C ) :   1.1609
B( 17-C , 18-C ) :   1.5827 B( 17-C , 20-C ) :   0.1055 B( 17-C , 33-H ) :   0.9676
B( 18-C , 19-C ) :   1.2596 B( 18-C , 21-H ) :   0.9902 B( 19-C , 20-C ) :   1.5809
B( 19-C , 22-C ) :   1.0464 B( 22-C , 23-H ) :   0.9286 B( 22-C , 24-H ) :   0.9383
B( 22-C , 25-C ) :   1.0854 B( 25-C , 26-H ) :   0.9447 B( 25-C , 27-H ) :   0.9524
B( 25-C , 28-C ) :   1.0771 B( 28-C , 29-H ) :   0.9684 B( 28-C , 30-H ) :   0.9668
B( 28-C , 31-H ) :   0.9746

Dispersion correction           -0.015455413
FINAL SINGLE POINT ENERGY     -1339.865833516649

DIPOLE MOMENT
-------------
                                X             Y             Z
Electronic contribution:    -10.50639     -24.41000       0.30616
Nuclear contribution   :     10.80848      25.00886       0.04100
                        -----------------------------------------
Total Dipole Moment    :      0.30208       0.59887       0.34717
                        -----------------------------------------
Magnitude (a.u.)       :      0.75526
Magnitude (Debye)      :      1.91972

Rotational constants in cm-1:     0.020521     0.009010     0.007533
Rotational constants in MHz :   615.206539   270.104288   225.836065

                             ****ORCA TERMINATED NORMALLY****
TOTAL RUN TIME: 0 days 0 hours 0 minutes 22 seconds 542 msec
