                         Program Version 4.2.1 -  RELEASE  -
|  1> ! wB97X-D3 SP def2-SVP
|  2> %pal
|  3> nprocs 24
|  4> end
|  5>
|  6> * xyz 0 1
|  7> S 	 -116.659 	 47.7454 	 -120.25
|  8> C 	 -115.269 	 46.705 	 -119.926
|  9> C 	 -114.359 	 47.1663 	 -119.016
| 10> C 	 -114.766 	 48.5539 	 -118.6
| 11> C 	 -116.012 	 48.922 	 -119.142
| 12> H 	 -114.324 	 49.2007 	 -117.876
| 13> C 	 -113.201 	 46.4336 	 -118.408
| 14> H 	 -113.364 	 45.4098 	 -118.706
| 15> H 	 -113.304 	 46.482 	 -117.32
| 16> C 	 -111.775 	 46.7484 	 -118.989
| 17> H 	 -111.584 	 47.8168 	 -118.763
| 18> H 	 -111.127 	 46.2224 	 -118.374
| 19> C 	 -111.589 	 46.4877 	 -120.506
| 20> H 	 -112.306 	 47.1159 	 -121.071
| 21> H 	 -110.587 	 46.8734 	 -120.793
| 22> H 	 -111.787 	 45.4026 	 -120.738
| 23> S 	 -117.029 	 51.4379 	 -119.807
| 24> C 	 -117.932 	 52.3315 	 -118.593
| 25> C 	 -118.262 	 51.5442 	 -117.549
| 26> C 	 -117.535 	 50.2787 	 -117.53
| 27> C 	 -116.851 	 50.0614 	 -118.714
| 28> H 	 -118.98 	 51.9183 	 -116.894
| 29> C 	 -117.853 	 49.3077 	 -116.441
| 30> H 	 -117.892 	 49.84 	 -115.503
| 31> H 	 -116.879 	 48.7305 	 -116.288
| 32> C 	 -119.024 	 48.2432 	 -116.648
| 33> H 	 -118.91 	 47.4322 	 -115.927
| 34> H 	 -118.977 	 47.8895 	 -117.699
| 35> C 	 -120.448 	 48.7927 	 -116.51
| 36> H 	 -121.253 	 48.1202 	 -116.664
| 37> H 	 -120.545 	 49.496 	 -117.351
| 38> H 	 -120.677 	 49.3271 	 -115.613
| 39> H 	 -115.132 	 45.6989 	 -120.374
| 40> H 	 -118.529 	 53.2037 	 -118.84
| 41> *
| 42>
| 43>                          ****END OF INPUT****

CARTESIAN COORDINATES (ANGSTROEM)
---------------------------------
  S    -116.659000   47.745400  -120.250000
  C    -115.269000   46.705000  -119.926000
  C    -114.359000   47.166300  -119.016000
  C    -114.766000   48.553900  -118.600000
  C    -116.012000   48.922000  -119.142000
  H    -114.324000   49.200700  -117.876000
  C    -113.201000   46.433600  -118.408000
  H    -113.364000   45.409800  -118.706000
  H    -113.304000   46.482000  -117.320000
  C    -111.775000   46.748400  -118.989000
  H    -111.584000   47.816800  -118.763000
  H    -111.127000   46.222400  -118.374000
  C    -111.589000   46.487700  -120.506000
  H    -112.306000   47.115900  -121.071000
  H    -110.587000   46.873400  -120.793000
  H    -111.787000   45.402600  -120.738000
  S    -117.029000   51.437900  -119.807000
  C    -117.932000   52.331500  -118.593000
  C    -118.262000   51.544200  -117.549000
  C    -117.535000   50.278700  -117.530000
  C    -116.851000   50.061400  -118.714000
  H    -118.980000   51.918300  -116.894000
  C    -117.853000   49.307700  -116.441000
  H    -117.892000   49.840000  -115.503000
  H    -116.879000   48.730500  -116.288000
  C    -119.024000   48.243200  -116.648000
  H    -118.910000   47.432200  -115.927000
  H    -118.977000   47.889500  -117.699000
  C    -120.448000   48.792700  -116.510000
  H    -121.253000   48.120200  -116.664000
  H    -120.545000   49.496000  -117.351000
  H    -120.677000   49.327100  -115.613000
  H    -115.132000   45.698900  -120.374000
  H    -118.529000   53.203700  -118.840000

 Total Charge           Charge          ....    0
 Multiplicity           Mult            ....    1
 Number of Electrons    NEL             ....  134
 Basis Dimension        Dim             ....  322

ORBITAL ENERGIES
----------------

  NO   OCC          E(Eh)            E(eV)
   0   2.0000     -88.969092     -2420.9721
   1   2.0000     -88.961000     -2420.7519
   2   2.0000     -10.331470      -281.1336
   3   2.0000     -10.328788      -281.0606
   4   2.0000     -10.316737      -280.7327
   5   2.0000     -10.311455      -280.5889
   6   2.0000     -10.307274      -280.4752
   7   2.0000     -10.304838      -280.4089
   8   2.0000     -10.301368      -280.3145
   9   2.0000     -10.295199      -280.1466
  10   2.0000     -10.294168      -280.1186
  11   2.0000     -10.292518      -280.0737
  12   2.0000     -10.289027      -279.9786
  13   2.0000     -10.288161      -279.9551
  14   2.0000     -10.287399      -279.9344
  15   2.0000     -10.269119      -279.4369
  16   2.0000      -8.083532      -219.9641
  17   2.0000      -8.075756      -219.7525
  18   2.0000      -6.042094      -164.4137
  19   2.0000      -6.038216      -164.3082
  20   2.0000      -6.034350      -164.2030
  21   2.0000      -6.034124      -164.1969
  22   2.0000      -6.030335      -164.0938
  23   2.0000      -6.026353      -163.9854
  24   2.0000      -1.001162       -27.2430
  25   2.0000      -0.979390       -26.6505
  26   2.0000      -0.910390       -24.7730
  27   2.0000      -0.899020       -24.4636
  28   2.0000      -0.866886       -23.5892
  29   2.0000      -0.847465       -23.0607
  30   2.0000      -0.843422       -22.9507
  31   2.0000      -0.814489       -22.1634
  32   2.0000      -0.783927       -21.3317
  33   2.0000      -0.771619       -20.9968
  34   2.0000      -0.710395       -19.3308
  35   2.0000      -0.699663       -19.0388
  36   2.0000      -0.686545       -18.6818
  37   2.0000      -0.658863       -17.9286
  38   2.0000      -0.639718       -17.4076
  39   2.0000      -0.613143       -16.6845
  40   2.0000      -0.591195       -16.0872
  41   2.0000      -0.568341       -15.4653
  42   2.0000      -0.552484       -15.0338
  43   2.0000      -0.545618       -14.8470
  44   2.0000      -0.541474       -14.7342
  45   2.0000      -0.535499       -14.5717
  46   2.0000      -0.519395       -14.1335
  47   2.0000      -0.509682       -13.8692
  48   2.0000      -0.498980       -13.5779
  49   2.0000      -0.491456       -13.3732
  50   2.0000      -0.486082       -13.2270
  51   2.0000      -0.477203       -12.9854
  52   2.0000      -0.467421       -12.7192
  53   2.0000      -0.461782       -12.5657
  54   2.0000      -0.456024       -12.4090
  55   2.0000      -0.451364       -12.2822
  56   2.0000      -0.441675       -12.0186
  57   2.0000      -0.439256       -11.9528
  58   2.0000      -0.431420       -11.7395
  59   2.0000      -0.427574       -11.6349
  60   2.0000      -0.422203       -11.4887
  61   2.0000      -0.416502       -11.3336
  62   2.0000      -0.407649       -11.0927
  63   2.0000      -0.334156        -9.0928
  64   2.0000      -0.329889        -8.9767
  65   2.0000      -0.322937        -8.7876
  66   2.0000      -0.309569        -8.4238
  67   0.0000       0.041791         1.1372
  68   0.0000       0.058602         1.5946
  69   0.0000       0.108074         2.9408
  70   0.0000       0.115100         3.1320
  71   0.0000       0.124984         3.4010

MULLIKEN ATOMIC CHARGES
-----------------------
   0 S :    0.119629
   1 C :   -0.123815
   2 C :   -0.114305
   3 C :    0.062053
   4 C :   -0.170368
   5 H :    0.008331
   6 C :    0.058835
   7 H :    0.004826
   8 H :    0.045105
   9 C :   -0.044638
  10 H :    0.026557
  11 H :    0.017662
  12 C :   -0.075224
  13 H :    0.049230
  14 H :    0.047341
  15 H :    0.043920
  16 S :    0.092410
  17 C :   -0.082155
  18 C :   -0.026583
  19 C :   -0.029672
  20 C :   -0.175476
  21 H :    0.003281
  22 C :    0.049052
  23 H :    0.018404
  24 H :    0.028047
  25 C :   -0.040098
  26 H :    0.036421
  27 H :    0.036547
  28 C :   -0.048956
  29 H :    0.026539
  30 H :    0.023740
  31 H :    0.020750
  32 H :    0.051758
  33 H :    0.060853
Sum of atomic charges:    0.0000000

LOEWDIN ATOMIC CHARGES
----------------------
   0 S :    0.401371
   1 C :   -0.198551
   2 C :   -0.059683
   3 C :   -0.050003
   4 C :   -0.199433
   5 H :    0.026898
   6 C :   -0.034066
   7 H :    0.026315
   8 H :    0.037391
   9 C :   -0.033279
  10 H :    0.024739
  11 H :    0.013185
  12 C :   -0.069442
  13 H :    0.031490
  14 H :    0.033865
  15 H :    0.029965
  16 S :    0.387242
  17 C :   -0.182611
  18 C :   -0.062076
  19 C :   -0.057091
  20 C :   -0.198597
  21 H :    0.023518
  22 C :   -0.041514
  23 H :    0.026568
  24 H :    0.040326
  25 C :   -0.028906
  26 H :    0.023664
  27 H :    0.030503
  28 C :   -0.071478
  29 H :    0.022116
  30 H :    0.027574
  31 H :    0.017170
  32 H :    0.031837
  33 H :    0.030990

  Mayer bond orders larger than 0.100000
B(  0-S ,  1-C ) :   1.1200 B(  0-S ,  4-C ) :   1.1456 B(  1-C ,  2-C ) :   1.6768
B(  1-C , 32-H ) :   0.9532 B(  2-C ,  3-C ) :   1.1676 B(  2-C ,  6-C ) :   1.0270
B(  3-C ,  4-C ) :   1.6333 B(  3-C ,  5-H ) :   0.9942 B(  4-C , 20-C ) :   0.9959
B(  6-C ,  7-H ) :   0.9342 B(  6-C ,  8-H ) :   0.9416 B(  6-C ,  9-C ) :   1.0591
B(  9-C , 10-H ) :   0.9578 B(  9-C , 11-H ) :   0.9578 B(  9-C , 12-C ) :   1.0687
B( 12-C , 13-H ) :   0.9733 B( 12-C , 14-H ) :   0.9727 B( 12-C , 15-H ) :   0.9755
B( 16-S , 17-C ) :   1.1378 B( 16-S , 20-C ) :   1.1394 B( 17-C , 18-C ) :   1.6642
B( 17-C , 33-H ) :   0.9569 B( 18-C , 19-C ) :   1.1931 B( 18-C , 21-H ) :   0.9953
B( 19-C , 20-C ) :   1.6236 B( 19-C , 22-C ) :   1.0669 B( 22-C , 23-H ) :   0.9331
B( 22-C , 24-H ) :   0.9247 B( 22-C , 25-C ) :   1.0503 B( 25-C , 26-H ) :   0.9591
B( 25-C , 27-H ) :   0.9561 B( 25-C , 28-C ) :   1.0762 B( 28-C , 29-H ) :   0.9731
B( 28-C , 30-H ) :   0.9745 B( 28-C , 31-H ) :   0.9766

Dispersion correction           -0.015020356
FINAL SINGLE POINT ENERGY     -1339.872078623959

DIPOLE MOMENT
-------------
                                X             Y             Z
Electronic contribution:     -5.93110      12.46579     -11.34480
Nuclear contribution   :      5.99712     -12.78325      11.85797
                        -----------------------------------------
Total Dipole Moment    :      0.06601      -0.31746       0.51317
                        -----------------------------------------
Magnitude (a.u.)       :      0.60702
Magnitude (Debye)      :      1.54293

Rotational constants in cm-1:     0.022636     0.007565     0.006708
Rotational constants in MHz :   678.611022   226.795821   201.099587

                             ****ORCA TERMINATED NORMALLY****
TOTAL RUN TIME: 0 days 0 hours 0 minutes 21 seconds 465 msec
