                         Program Version 4.2.1 -  RELEASE  -
|  1> ! wB97X-D3 SP def2-SVP
|  2> %pal
|  3> nprocs 24
|  4> end
|  5>
|  6> * xyz 0 1
|  7> S 	 -132.717 	 57.9419 	 -61.4525
|  8> C 	 -131.659 	 58.8486 	 -62.493
|  9> C 	 -130.414 	 58.1878 	 -62.5547
| 10> C 	 -130.406 	 56.9501 	 -61.9065
| 11> C 	 -131.538 	 56.6852 	 -61.2102
| 12> H 	 -129.584 	 56.2294 	 -61.7629
| 13> C 	 -129.101 	 58.708 	 -63.1827
| 14> H 	 -129.389 	 59.1526 	 -64.1164
| 15> H 	 -128.497 	 57.8728 	 -63.5224
| 16> C 	 -128.297 	 59.7333 	 -62.3901
| 17> H 	 -128.99 	 60.5746 	 -62.1332
| 18> H 	 -128.068 	 59.3911 	 -61.3812
| 19> C 	 -126.993 	 60.2261 	 -63.0063
| 20> H 	 -127.005 	 60.2043 	 -64.1241
| 21> H 	 -126.592 	 61.1822 	 -62.523
| 22> H 	 -126.206 	 59.5658 	 -62.7807
| 23> S 	 -132.145 	 55.8944 	 -58.6036
| 24> C 	 -132.312 	 54.1269 	 -58.3191
| 25> C 	 -132.114 	 53.3885 	 -59.4592
| 26> C 	 -131.788 	 54.2392 	 -60.5695
| 27> C 	 -131.776 	 55.5566 	 -60.3237
| 28> H 	 -132.047 	 52.2835 	 -59.5577
| 29> C 	 -131.429 	 53.6427 	 -61.9453
| 30> H 	 -130.756 	 52.828 	 -61.6857
| 31> H 	 -130.846 	 54.4259 	 -62.4171
| 32> C 	 -132.638 	 53.2002 	 -62.8597
| 33> H 	 -133.299 	 54.0883 	 -62.8778
| 34> H 	 -132.997 	 52.278 	 -62.4272
| 35> C 	 -132.195 	 52.8593 	 -64.2913
| 36> H 	 -133.025 	 52.7383 	 -64.9269
| 37> H 	 -131.639 	 51.9206 	 -64.347
| 38> H 	 -131.467 	 53.6188 	 -64.6621
| 39> H 	 -131.869 	 59.7718 	 -62.9456
| 40> H 	 -132.447 	 53.6307 	 -57.3658
| 41> *
| 42>
| 43>                          ****END OF INPUT****

CARTESIAN COORDINATES (ANGSTROEM)
---------------------------------
  S    -132.717000   57.941900  -61.452500
  C    -131.659000   58.848600  -62.493000
  C    -130.414000   58.187800  -62.554700
  C    -130.406000   56.950100  -61.906500
  C    -131.538000   56.685200  -61.210200
  H    -129.584000   56.229400  -61.762900
  C    -129.101000   58.708000  -63.182700
  H    -129.389000   59.152600  -64.116400
  H    -128.497000   57.872800  -63.522400
  C    -128.297000   59.733300  -62.390100
  H    -128.990000   60.574600  -62.133200
  H    -128.068000   59.391100  -61.381200
  C    -126.993000   60.226100  -63.006300
  H    -127.005000   60.204300  -64.124100
  H    -126.592000   61.182200  -62.523000
  H    -126.206000   59.565800  -62.780700
  S    -132.145000   55.894400  -58.603600
  C    -132.312000   54.126900  -58.319100
  C    -132.114000   53.388500  -59.459200
  C    -131.788000   54.239200  -60.569500
  C    -131.776000   55.556600  -60.323700
  H    -132.047000   52.283500  -59.557700
  C    -131.429000   53.642700  -61.945300
  H    -130.756000   52.828000  -61.685700
  H    -130.846000   54.425900  -62.417100
  C    -132.638000   53.200200  -62.859700
  H    -133.299000   54.088300  -62.877800
  H    -132.997000   52.278000  -62.427200
  C    -132.195000   52.859300  -64.291300
  H    -133.025000   52.738300  -64.926900
  H    -131.639000   51.920600  -64.347000
  H    -131.467000   53.618800  -64.662100
  H    -131.869000   59.771800  -62.945600
  H    -132.447000   53.630700  -57.365800

 Total Charge           Charge          ....    0
 Multiplicity           Mult            ....    1
 Number of Electrons    NEL             ....  134
 Basis Dimension        Dim             ....  322

ORBITAL ENERGIES
----------------

  NO   OCC          E(Eh)            E(eV)
   0   2.0000     -88.968577     -2420.9580
   1   2.0000     -88.965528     -2420.8751
   2   2.0000     -10.325059      -280.9591
   3   2.0000     -10.323076      -280.9052
   4   2.0000     -10.322806      -280.8978
   5   2.0000     -10.315629      -280.7025
   6   2.0000     -10.304459      -280.3986
   7   2.0000     -10.297699      -280.2146
   8   2.0000     -10.296706      -280.1876
   9   2.0000     -10.291120      -280.0356
  10   2.0000     -10.289815      -280.0001
  11   2.0000     -10.289632      -279.9951
  12   2.0000     -10.289168      -279.9825
  13   2.0000     -10.287620      -279.9404
  14   2.0000     -10.283090      -279.8171
  15   2.0000     -10.274705      -279.5889
  16   2.0000      -8.083428      -219.9613
  17   2.0000      -8.079047      -219.8420
  18   2.0000      -6.041823      -164.4064
  19   2.0000      -6.037815      -164.2973
  20   2.0000      -6.037771      -164.2961
  21   2.0000      -6.034445      -164.2056
  22   2.0000      -6.033898      -164.1907
  23   2.0000      -6.029418      -164.0688
  24   2.0000      -1.009884       -27.4803
  25   2.0000      -0.983476       -26.7617
  26   2.0000      -0.908645       -24.7255
  27   2.0000      -0.900029       -24.4910
  28   2.0000      -0.871116       -23.7043
  29   2.0000      -0.853893       -23.2356
  30   2.0000      -0.846270       -23.0282
  31   2.0000      -0.816977       -22.2311
  32   2.0000      -0.781771       -21.2731
  33   2.0000      -0.769647       -20.9432
  34   2.0000      -0.704601       -19.1732
  35   2.0000      -0.702362       -19.1122
  36   2.0000      -0.693881       -18.8815
  37   2.0000      -0.664528       -18.0827
  38   2.0000      -0.650207       -17.6930
  39   2.0000      -0.616876       -16.7860
  40   2.0000      -0.586283       -15.9536
  41   2.0000      -0.569647       -15.5009
  42   2.0000      -0.566127       -15.4051
  43   2.0000      -0.551616       -15.0102
  44   2.0000      -0.527879       -14.3643
  45   2.0000      -0.526003       -14.3133
  46   2.0000      -0.520601       -14.1663
  47   2.0000      -0.512875       -13.9560
  48   2.0000      -0.507549       -13.8111
  49   2.0000      -0.498700       -13.5703
  50   2.0000      -0.491519       -13.3749
  51   2.0000      -0.477092       -12.9823
  52   2.0000      -0.469857       -12.7855
  53   2.0000      -0.459753       -12.5105
  54   2.0000      -0.458401       -12.4737
  55   2.0000      -0.450482       -12.2582
  56   2.0000      -0.448123       -12.1941
  57   2.0000      -0.441012       -12.0005
  58   2.0000      -0.428495       -11.6600
  59   2.0000      -0.424345       -11.5470
  60   2.0000      -0.423254       -11.5173
  61   2.0000      -0.413174       -11.2430
  62   2.0000      -0.402794       -10.9606
  63   2.0000      -0.347824        -9.4648
  64   2.0000      -0.333999        -9.0886
  65   2.0000      -0.331638        -9.0243
  66   2.0000      -0.297254        -8.0887
  67   0.0000       0.035822         0.9748
  68   0.0000       0.062651         1.7048
  69   0.0000       0.107312         2.9201
  70   0.0000       0.124032         3.3751
  71   0.0000       0.131044         3.5659

MULLIKEN ATOMIC CHARGES
-----------------------
   0 S :    0.124353
   1 C :   -0.102453
   2 C :   -0.095400
   3 C :    0.034796
   4 C :   -0.181509
   5 H :    0.030947
   6 C :    0.086581
   7 H :    0.011083
   8 H :    0.014934
   9 C :   -0.062112
  10 H :    0.024571
  11 H :    0.020977
  12 C :   -0.046657
  13 H :    0.035001
  14 H :    0.047560
  15 H :    0.016097
  16 S :    0.094429
  17 C :   -0.083167
  18 C :   -0.025320
  19 C :   -0.065154
  20 C :   -0.161733
  21 H :    0.033416
  22 C :    0.064292
  23 H :    0.022366
  24 H :   -0.001909
  25 C :   -0.052646
  26 H :    0.048759
  27 H :    0.028741
  28 C :   -0.035709
  29 H :    0.031902
  30 H :    0.021295
  31 H :    0.032629
  32 H :    0.031366
  33 H :    0.057676
Sum of atomic charges:    0.0000000

LOEWDIN ATOMIC CHARGES
----------------------
   0 S :    0.423886
   1 C :   -0.195707
   2 C :   -0.057689
   3 C :   -0.070583
   4 C :   -0.198222
   5 H :    0.039730
   6 C :   -0.031308
   7 H :    0.026473
   8 H :    0.026870
   9 C :   -0.048937
  10 H :    0.026769
  11 H :    0.023704
  12 C :   -0.073635
  13 H :    0.029149
  14 H :    0.040705
  15 H :    0.017962
  16 S :    0.362826
  17 C :   -0.162702
  18 C :   -0.073074
  19 C :   -0.058424
  20 C :   -0.189672
  21 H :    0.039664
  22 C :   -0.029667
  23 H :    0.026285
  24 H :    0.022465
  25 C :   -0.031975
  26 H :    0.033463
  27 H :    0.023272
  28 C :   -0.065851
  29 H :    0.020238
  30 H :    0.024022
  31 H :    0.028882
  32 H :    0.020089
  33 H :    0.030992

  Mayer bond orders larger than 0.100000
B(  0-S ,  1-C ) :   1.1486 B(  0-S ,  4-C ) :   1.1632 B(  1-C ,  2-C ) :   1.5736
B(  1-C ,  4-C ) :   0.1084 B(  1-C , 32-H ) :   0.9821 B(  2-C ,  3-C ) :   1.2668
B(  2-C ,  6-C ) :   1.0197 B(  3-C ,  4-C ) :   1.5792 B(  3-C ,  5-H ) :   0.9818
B(  4-C , 20-C ) :   1.0158 B(  6-C ,  7-H ) :   0.9287 B(  6-C ,  8-H ) :   0.9447
B(  6-C ,  9-C ) :   1.0644 B(  9-C , 10-H ) :   0.9549 B(  9-C , 11-H ) :   0.9548
B(  9-C , 12-C ) :   1.0728 B( 12-C , 13-H ) :   0.9755 B( 12-C , 14-H ) :   0.9716
B( 12-C , 15-H ) :   0.9729 B( 16-S , 17-C ) :   1.1319 B( 16-S , 20-C ) :   1.0984
B( 17-C , 18-C ) :   1.6442 B( 17-C , 33-H ) :   0.9640 B( 18-C , 19-C ) :   1.2155
B( 18-C , 21-H ) :   0.9786 B( 19-C , 20-C ) :   1.6805 B( 19-C , 22-C ) :   1.0318
B( 22-C , 23-H ) :   0.9330 B( 22-C , 24-H ) :   0.9297 B( 22-C , 25-C ) :   1.0609
B( 25-C , 26-H ) :   0.9574 B( 25-C , 27-H ) :   0.9547 B( 25-C , 28-C ) :   1.0887
B( 28-C , 29-H ) :   0.9751 B( 28-C , 30-H ) :   0.9734 B( 28-C , 31-H ) :   0.9750

Dispersion correction           -0.013851074
FINAL SINGLE POINT ENERGY     -1339.877719465747

DIPOLE MOMENT
-------------
                                X             Y             Z
Electronic contribution:    -16.23893       2.32114      19.42949
Nuclear contribution   :     16.72438      -2.63859     -19.74627
                        -----------------------------------------
Total Dipole Moment    :      0.48545      -0.31745      -0.31678
                        -----------------------------------------
Magnitude (a.u.)       :      0.66090
Magnitude (Debye)      :      1.67987

Rotational constants in cm-1:     0.017993     0.007897     0.006683
Rotational constants in MHz :   539.429374   236.745518   200.348732

                             ****ORCA TERMINATED NORMALLY****
TOTAL RUN TIME: 0 days 0 hours 0 minutes 20 seconds 138 msec
