                         Program Version 4.2.1 -  RELEASE  -
|  1> ! wB97X-D3 SP def2-SVP
|  2> %pal
|  3> nprocs 24
|  4> end
|  5>
|  6> * xyz 0 1
|  7> S 	 -108.255 	 -0.479439 	 -107.35
|  8> C 	 -108.509 	 1.26899 	 -106.937
|  9> C 	 -108.877 	 2.00094 	 -108.098
| 10> C 	 -108.596 	 1.18869 	 -109.289
| 11> C 	 -108.358 	 -0.186266 	 -109.071
| 12> H 	 -108.784 	 1.50548 	 -110.305
| 13> C 	 -109.252 	 3.44739 	 -108.047
| 14> H 	 -108.438 	 4.09511 	 -108.059
| 15> H 	 -109.831 	 3.61195 	 -107.138
| 16> C 	 -110.173 	 3.90594 	 -109.272
| 17> H 	 -110.068 	 5.01624 	 -109.291
| 18> H 	 -109.679 	 3.66289 	 -110.167
| 19> C 	 -111.687 	 3.57027 	 -109.161
| 20> H 	 -112.184 	 4.22988 	 -109.909
| 21> H 	 -111.773 	 2.46328 	 -109.447
| 22> H 	 -112.076 	 3.62917 	 -108.151
| 23> S 	 -106.776 	 -2.20613 	 -109.949
| 24> C 	 -107.215 	 -2.98261 	 -111.489
| 25> C 	 -108.489 	 -2.60323 	 -111.91
| 26> C 	 -109.047 	 -1.53755 	 -111.136
| 27> C 	 -108.239 	 -1.22894 	 -110.039
| 28> H 	 -108.821 	 -3.12769 	 -112.737
| 29> C 	 -110.36 	 -0.881944 	 -111.593
| 30> H 	 -110.676 	 -0.236425 	 -110.793
| 31> H 	 -111.086 	 -1.71168 	 -111.735
| 32> C 	 -110.389 	 -0.174852 	 -112.94
| 33> H 	 -111.408 	 0.115232 	 -113.166
| 34> H 	 -110.081 	 -0.861824 	 -113.696
| 35> C 	 -109.609 	 1.20033 	 -112.954
| 36> H 	 -109.501 	 1.74627 	 -113.927
| 37> H 	 -108.725 	 1.16014 	 -112.398
| 38> H 	 -110.159 	 1.89621 	 -112.366
| 39> H 	 -108.431 	 1.76704 	 -106.024
| 40> H 	 -106.621 	 -3.86196 	 -111.877
| 41> *
| 42>
| 43>                          ****END OF INPUT****

CARTESIAN COORDINATES (ANGSTROEM)
---------------------------------
  S    -108.255000   -0.479439  -107.350000
  C    -108.509000    1.268990  -106.937000
  C    -108.877000    2.000940  -108.098000
  C    -108.596000    1.188690  -109.289000
  C    -108.358000   -0.186266  -109.071000
  H    -108.784000    1.505480  -110.305000
  C    -109.252000    3.447390  -108.047000
  H    -108.438000    4.095110  -108.059000
  H    -109.831000    3.611950  -107.138000
  C    -110.173000    3.905940  -109.272000
  H    -110.068000    5.016240  -109.291000
  H    -109.679000    3.662890  -110.167000
  C    -111.687000    3.570270  -109.161000
  H    -112.184000    4.229880  -109.909000
  H    -111.773000    2.463280  -109.447000
  H    -112.076000    3.629170  -108.151000
  S    -106.776000   -2.206130  -109.949000
  C    -107.215000   -2.982610  -111.489000
  C    -108.489000   -2.603230  -111.910000
  C    -109.047000   -1.537550  -111.136000
  C    -108.239000   -1.228940  -110.039000
  H    -108.821000   -3.127690  -112.737000
  C    -110.360000   -0.881944  -111.593000
  H    -110.676000   -0.236425  -110.793000
  H    -111.086000   -1.711680  -111.735000
  C    -110.389000   -0.174852  -112.940000
  H    -111.408000    0.115232  -113.166000
  H    -110.081000   -0.861824  -113.696000
  C    -109.609000    1.200330  -112.954000
  H    -109.501000    1.746270  -113.927000
  H    -108.725000    1.160140  -112.398000
  H    -110.159000    1.896210  -112.366000
  H    -108.431000    1.767040  -106.024000
  H    -106.621000   -3.861960  -111.877000

 Total Charge           Charge          ....    0
 Multiplicity           Mult            ....    1
 Number of Electrons    NEL             ....  134
 Basis Dimension        Dim             ....  322

ORBITAL ENERGIES
----------------

  NO   OCC          E(Eh)            E(eV)
   0   2.0000     -88.967076     -2420.9172
   1   2.0000     -88.966962     -2420.9141
   2   2.0000     -10.330276      -281.1011
   3   2.0000     -10.329265      -281.0736
   4   2.0000     -10.326068      -280.9866
   5   2.0000     -10.315630      -280.7026
   6   2.0000     -10.311876      -280.6004
   7   2.0000     -10.307929      -280.4930
   8   2.0000     -10.297919      -280.2206
   9   2.0000     -10.296271      -280.1758
  10   2.0000     -10.294228      -280.1202
  11   2.0000     -10.291647      -280.0499
  12   2.0000     -10.290561      -280.0204
  13   2.0000     -10.290145      -280.0091
  14   2.0000     -10.289878      -280.0018
  15   2.0000     -10.275969      -279.6233
  16   2.0000      -8.081358      -219.9049
  17   2.0000      -8.080330      -219.8770
  18   2.0000      -6.039829      -164.3521
  19   2.0000      -6.039030      -164.3304
  20   2.0000      -6.035982      -164.2474
  21   2.0000      -6.034970      -164.2199
  22   2.0000      -6.032114      -164.1422
  23   2.0000      -6.031012      -164.1122
  24   2.0000      -1.001300       -27.2468
  25   2.0000      -0.972181       -26.4544
  26   2.0000      -0.910278       -24.7699
  27   2.0000      -0.906699       -24.6725
  28   2.0000      -0.867860       -23.6157
  29   2.0000      -0.847928       -23.0733
  30   2.0000      -0.837477       -22.7889
  31   2.0000      -0.812463       -22.1082
  32   2.0000      -0.786327       -21.3971
  33   2.0000      -0.775292       -21.0968
  34   2.0000      -0.718530       -19.5522
  35   2.0000      -0.701526       -19.0895
  36   2.0000      -0.692911       -18.8551
  37   2.0000      -0.661345       -17.9961
  38   2.0000      -0.638736       -17.3809
  39   2.0000      -0.615823       -16.7574
  40   2.0000      -0.593770       -16.1573
  41   2.0000      -0.568178       -15.4609
  42   2.0000      -0.555778       -15.1235
  43   2.0000      -0.551396       -15.0042
  44   2.0000      -0.546972       -14.8839
  45   2.0000      -0.528715       -14.3871
  46   2.0000      -0.521385       -14.1876
  47   2.0000      -0.515209       -14.0195
  48   2.0000      -0.505531       -13.7562
  49   2.0000      -0.498410       -13.5624
  50   2.0000      -0.489338       -13.3156
  51   2.0000      -0.482324       -13.1247
  52   2.0000      -0.466664       -12.6986
  53   2.0000      -0.463824       -12.6213
  54   2.0000      -0.458575       -12.4785
  55   2.0000      -0.449544       -12.2327
  56   2.0000      -0.443684       -12.0733
  57   2.0000      -0.438780       -11.9398
  58   2.0000      -0.436962       -11.8903
  59   2.0000      -0.428772       -11.6675
  60   2.0000      -0.418310       -11.3828
  61   2.0000      -0.415486       -11.3059
  62   2.0000      -0.407583       -11.0909
  63   2.0000      -0.342039        -9.3073
  64   2.0000      -0.330642        -8.9972
  65   2.0000      -0.326370        -8.8810
  66   2.0000      -0.291369        -7.9285
  67   0.0000       0.023923         0.6510
  68   0.0000       0.064833         1.7642
  69   0.0000       0.102022         2.7762
  70   0.0000       0.117141         3.1876
  71   0.0000       0.119094         3.2407

MULLIKEN ATOMIC CHARGES
-----------------------
   0 S :    0.107207
   1 C :   -0.090806
   2 C :   -0.109589
   3 C :    0.064770
   4 C :   -0.158184
   5 H :   -0.042172
   6 C :    0.079536
   7 H :    0.033839
   8 H :    0.024315
   9 C :   -0.114266
  10 H :    0.019758
  11 H :    0.021732
  12 C :   -0.053549
  13 H :    0.052535
  14 H :    0.046961
  15 H :    0.040390
  16 S :    0.109191
  17 C :   -0.126436
  18 C :   -0.016756
  19 C :   -0.008882
  20 C :   -0.166367
  21 H :   -0.002473
  22 C :    0.061538
  23 H :    0.024336
  24 H :    0.037700
  25 C :   -0.041508
  26 H :    0.030291
  27 H :    0.025794
  28 C :   -0.052482
  29 H :    0.045869
  30 H :    0.044038
  31 H :    0.006674
  32 H :    0.024743
  33 H :    0.082254
Sum of atomic charges:    0.0000000

LOEWDIN ATOMIC CHARGES
----------------------
   0 S :    0.385498
   1 C :   -0.177630
   2 C :   -0.055415
   3 C :   -0.067365
   4 C :   -0.197878
   5 H :    0.019261
   6 C :   -0.025582
   7 H :    0.026890
   8 H :    0.032059
   9 C :   -0.040796
  10 H :    0.024492
  11 H :    0.012542
  12 C :   -0.068756
  13 H :    0.034298
  14 H :    0.034047
  15 H :    0.025704
  16 S :    0.393518
  17 C :   -0.178513
  18 C :   -0.062668
  19 C :   -0.046089
  20 C :   -0.201566
  21 H :    0.021611
  22 C :   -0.027941
  23 H :    0.026212
  24 H :    0.041545
  25 C :   -0.028876
  26 H :    0.027151
  27 H :    0.018083
  28 C :   -0.069823
  29 H :    0.035646
  30 H :    0.014564
  31 H :    0.018904
  32 H :    0.016790
  33 H :    0.040083

  Mayer bond orders larger than 0.100000
B(  0-S ,  1-C ) :   1.1260 B(  0-S ,  4-C ) :   1.1421 B(  1-C ,  2-C ) :   1.6052
B(  1-C ,  4-C ) :   0.1011 B(  1-C , 32-H ) :   0.9760 B(  2-C ,  3-C ) :   1.2304
B(  2-C ,  6-C ) :   1.0320 B(  3-C ,  4-C ) :   1.5730 B(  3-C ,  5-H ) :   0.9768
B(  4-C , 20-C ) :   1.0595 B(  6-C ,  7-H ) :   0.9373 B(  6-C ,  8-H ) :   0.9426
B(  6-C ,  9-C ) :   1.0782 B(  9-C , 10-H ) :   0.9575 B(  9-C , 11-H ) :   0.9562
B(  9-C , 12-C ) :   1.0606 B( 12-C , 13-H ) :   0.9757 B( 12-C , 14-H ) :   0.9764
B( 12-C , 15-H ) :   0.9740 B( 16-S , 17-C ) :   1.1475 B( 16-S , 20-C ) :   1.1399
B( 17-C , 18-C ) :   1.6251 B( 17-C , 20-C ) :   0.1030 B( 17-C , 33-H ) :   0.9575
B( 18-C , 19-C ) :   1.2016 B( 18-C , 21-H ) :   1.0036 B( 19-C , 20-C ) :   1.5872
B( 19-C , 22-C ) :   1.0461 B( 22-C , 23-H ) :   0.9332 B( 22-C , 24-H ) :   0.9291
B( 22-C , 25-C ) :   1.0814 B( 25-C , 26-H ) :   0.9554 B( 25-C , 27-H ) :   0.9573
B( 25-C , 28-C ) :   1.0635 B( 28-C , 29-H ) :   0.9698 B( 28-C , 30-H ) :   0.9691
B( 28-C , 31-H ) :   0.9692

Dispersion correction           -0.015704144
FINAL SINGLE POINT ENERGY     -1339.856547975424

DIPOLE MOMENT
-------------
                                X             Y             Z
Electronic contribution:     18.00245     -21.67738      13.58560
Nuclear contribution   :    -18.44739      22.07132     -14.07167
                        -----------------------------------------
Total Dipole Moment    :     -0.44494       0.39394      -0.48607
                        -----------------------------------------
Magnitude (a.u.)       :      0.76774
Magnitude (Debye)      :      1.95143

Rotational constants in cm-1:     0.017959     0.010502     0.007223
Rotational constants in MHz :   538.398877   314.844039   216.544601

                             ****ORCA TERMINATED NORMALLY****
TOTAL RUN TIME: 0 days 0 hours 0 minutes 21 seconds 739 msec
