                         Program Version 4.2.1 -  RELEASE  -
|  1> ! wB97X-D3 SP def2-SVP
|  2> %pal
|  3> nprocs 24
|  4> end
|  5>
|  6> * xyz 0 1
|  7> S 	 -61.2629 	 -4.1502 	 -28.2339
|  8> C 	 -60.7579 	 -2.63155 	 -28.9238
|  9> C 	 -61.0703 	 -1.5533 	 -28.0703
| 10> C 	 -61.5353 	 -2.11079 	 -26.8005
| 11> C 	 -61.5445 	 -3.48294 	 -26.648
| 12> H 	 -61.6295 	 -1.45684 	 -25.9038
| 13> C 	 -60.9455 	 -0.0365753 	 -28.2865
| 14> H 	 -60.1818 	 0.254697 	 -29.0363
| 15> H 	 -60.6043 	 0.326079 	 -27.3507
| 16> C 	 -62.3134 	 0.594265 	 -28.5606
| 17> H 	 -62.7677 	 0.0568185 	 -29.3458
| 18> H 	 -62.8763 	 0.443746 	 -27.6606
| 19> C 	 -62.1332 	 2.06381 	 -28.9338
| 20> H 	 -63.1004 	 2.38738 	 -29.1639
| 21> H 	 -61.7211 	 2.59577 	 -28.1073
| 22> H 	 -61.6015 	 2.11395 	 -29.8032
| 23> S 	 -62.8912 	 -5.67181 	 -25.762
| 24> C 	 -63.0918 	 -5.99971 	 -24.083
| 25> C 	 -62.1198 	 -5.22083 	 -23.4185
| 26> C 	 -61.4229 	 -4.21368 	 -24.1632
| 27> C 	 -61.751 	 -4.36192 	 -25.4942
| 28> H 	 -61.9333 	 -5.47154 	 -22.3437
| 29> C 	 -60.3783 	 -3.31829 	 -23.5737
| 30> H 	 -60.7777 	 -2.29233 	 -23.5051
| 31> H 	 -59.5397 	 -3.21923 	 -24.3255
| 32> C 	 -59.7891 	 -3.69038 	 -22.1783
| 33> H 	 -59.4583 	 -4.74151 	 -22.1716
| 34> H 	 -60.6499 	 -3.66023 	 -21.4724
| 35> C 	 -58.7268 	 -2.76623 	 -21.7366
| 36> H 	 -58.4296 	 -2.91989 	 -20.7418
| 37> H 	 -59.1856 	 -1.73405 	 -21.7473
| 38> H 	 -58.0309 	 -2.63917 	 -22.5038
| 39> H 	 -60.5376 	 -2.33232 	 -29.9455
| 40> H 	 -63.704 	 -6.75476 	 -23.6551
| 41> *
| 42>
| 43>                          ****END OF INPUT****

CARTESIAN COORDINATES (ANGSTROEM)
---------------------------------
  S    -61.262900   -4.150200  -28.233900
  C    -60.757900   -2.631550  -28.923800
  C    -61.070300   -1.553300  -28.070300
  C    -61.535300   -2.110790  -26.800500
  C    -61.544500   -3.482940  -26.648000
  H    -61.629500   -1.456840  -25.903800
  C    -60.945500   -0.036575  -28.286500
  H    -60.181800    0.254697  -29.036300
  H    -60.604300    0.326079  -27.350700
  C    -62.313400    0.594265  -28.560600
  H    -62.767700    0.056819  -29.345800
  H    -62.876300    0.443746  -27.660600
  C    -62.133200    2.063810  -28.933800
  H    -63.100400    2.387380  -29.163900
  H    -61.721100    2.595770  -28.107300
  H    -61.601500    2.113950  -29.803200
  S    -62.891200   -5.671810  -25.762000
  C    -63.091800   -5.999710  -24.083000
  C    -62.119800   -5.220830  -23.418500
  C    -61.422900   -4.213680  -24.163200
  C    -61.751000   -4.361920  -25.494200
  H    -61.933300   -5.471540  -22.343700
  C    -60.378300   -3.318290  -23.573700
  H    -60.777700   -2.292330  -23.505100
  H    -59.539700   -3.219230  -24.325500
  C    -59.789100   -3.690380  -22.178300
  H    -59.458300   -4.741510  -22.171600
  H    -60.649900   -3.660230  -21.472400
  C    -58.726800   -2.766230  -21.736600
  H    -58.429600   -2.919890  -20.741800
  H    -59.185600   -1.734050  -21.747300
  H    -58.030900   -2.639170  -22.503800
  H    -60.537600   -2.332320  -29.945500
  H    -63.704000   -6.754760  -23.655100

 Total Charge           Charge          ....    0
 Multiplicity           Mult            ....    1
 Number of Electrons    NEL             ....  134
 Basis Dimension        Dim             ....  322

ORBITAL ENERGIES
----------------

  NO   OCC          E(Eh)            E(eV)
   0   2.0000     -88.965402     -2420.8717
   1   2.0000     -88.962828     -2420.8016
   2   2.0000     -10.330700      -281.1126
   3   2.0000     -10.329549      -281.0813
   4   2.0000     -10.319864      -280.8178
   5   2.0000     -10.314130      -280.6618
   6   2.0000     -10.307854      -280.4910
   7   2.0000     -10.305332      -280.4223
   8   2.0000     -10.301114      -280.3076
   9   2.0000     -10.300121      -280.2805
  10   2.0000     -10.296771      -280.1894
  11   2.0000     -10.292362      -280.0694
  12   2.0000     -10.290744      -280.0254
  13   2.0000     -10.278112      -279.6817
  14   2.0000     -10.273676      -279.5609
  15   2.0000     -10.265031      -279.3257
  16   2.0000      -8.080664      -219.8861
  17   2.0000      -8.077730      -219.8062
  18   2.0000      -6.039104      -164.3324
  19   2.0000      -6.036420      -164.2593
  20   2.0000      -6.034999      -164.2207
  21   2.0000      -6.032195      -164.1444
  22   2.0000      -6.031530      -164.1263
  23   2.0000      -6.028300      -164.0384
  24   2.0000      -1.008229       -27.4353
  25   2.0000      -0.983375       -26.7590
  26   2.0000      -0.917896       -24.9772
  27   2.0000      -0.916439       -24.9376
  28   2.0000      -0.871137       -23.7048
  29   2.0000      -0.860793       -23.4234
  30   2.0000      -0.842011       -22.9123
  31   2.0000      -0.810615       -22.0580
  32   2.0000      -0.784242       -21.3403
  33   2.0000      -0.777684       -21.1619
  34   2.0000      -0.708267       -19.2729
  35   2.0000      -0.704048       -19.1581
  36   2.0000      -0.698608       -19.0101
  37   2.0000      -0.653862       -17.7925
  38   2.0000      -0.635761       -17.2999
  39   2.0000      -0.616460       -16.7747
  40   2.0000      -0.603002       -16.4085
  41   2.0000      -0.578740       -15.7483
  42   2.0000      -0.571638       -15.5551
  43   2.0000      -0.561115       -15.2687
  44   2.0000      -0.546185       -14.8624
  45   2.0000      -0.527269       -14.3477
  46   2.0000      -0.515031       -14.0147
  47   2.0000      -0.513533       -13.9739
  48   2.0000      -0.510499       -13.8914
  49   2.0000      -0.505282       -13.7494
  50   2.0000      -0.493071       -13.4171
  51   2.0000      -0.482386       -13.1264
  52   2.0000      -0.472880       -12.8677
  53   2.0000      -0.461753       -12.5649
  54   2.0000      -0.459138       -12.4938
  55   2.0000      -0.456145       -12.4123
  56   2.0000      -0.442721       -12.0470
  57   2.0000      -0.437595       -11.9076
  58   2.0000      -0.432847       -11.7784
  59   2.0000      -0.425330       -11.5738
  60   2.0000      -0.423859       -11.5338
  61   2.0000      -0.415943       -11.3184
  62   2.0000      -0.409546       -11.1443
  63   2.0000      -0.350433        -9.5358
  64   2.0000      -0.330096        -8.9824
  65   2.0000      -0.323779        -8.8105
  66   2.0000      -0.288194        -7.8422
  67   0.0000       0.026140         0.7113
  68   0.0000       0.068115         1.8535
  69   0.0000       0.108323         2.9476
  70   0.0000       0.119141         3.2420
  71   0.0000       0.137608         3.7445

MULLIKEN ATOMIC CHARGES
-----------------------
   0 S :    0.097858
   1 C :   -0.086525
   2 C :   -0.142408
   3 C :    0.003991
   4 C :   -0.136326
   5 H :    0.015345
   6 C :    0.061351
   7 H :    0.027816
   8 H :    0.009928
   9 C :   -0.088115
  10 H :    0.020164
  11 H :    0.024622
  12 C :    0.052759
  13 H :    0.015782
  14 H :    0.027541
  15 H :    0.008396
  16 S :    0.105808
  17 C :   -0.074693
  18 C :   -0.086961
  19 C :   -0.004966
  20 C :   -0.131296
  21 H :    0.034745
  22 C :    0.007005
  23 H :    0.036383
  24 H :    0.046600
  25 C :   -0.115691
  26 H :    0.037398
  27 H :    0.033539
  28 C :    0.045290
  29 H :    0.033405
  30 H :    0.008721
  31 H :    0.014142
  32 H :    0.044433
  33 H :    0.053960
Sum of atomic charges:   -0.0000000

LOEWDIN ATOMIC CHARGES
----------------------
   0 S :    0.404166
   1 C :   -0.209741
   2 C :   -0.058566
   3 C :   -0.077385
   4 C :   -0.196038
   5 H :    0.028436
   6 C :   -0.029037
   7 H :    0.030697
   8 H :    0.023378
   9 C :   -0.027330
  10 H :    0.017705
  11 H :    0.021981
  12 C :   -0.042942
  13 H :    0.022514
  14 H :    0.024692
  15 H :    0.014157
  16 S :    0.420620
  17 C :   -0.191861
  18 C :   -0.077482
  19 C :   -0.058226
  20 C :   -0.194873
  21 H :    0.033688
  22 C :   -0.037161
  23 H :    0.034198
  24 H :    0.040152
  25 C :   -0.044704
  26 H :    0.024070
  27 H :    0.025031
  28 C :   -0.055797
  29 H :    0.024361
  30 H :    0.032175
  31 H :    0.019703
  32 H :    0.031667
  33 H :    0.027750

  Mayer bond orders larger than 0.100000
B(  0-S ,  1-C ) :   1.1378 B(  0-S ,  4-C ) :   1.1369 B(  1-C ,  2-C ) :   1.6251
B(  1-C , 32-H ) :   0.9617 B(  2-C ,  3-C ) :   1.2407 B(  2-C ,  6-C ) :   1.0240
B(  3-C ,  4-C ) :   1.5963 B(  3-C ,  5-H ) :   0.9784 B(  4-C , 20-C ) :   1.0162
B(  6-C ,  7-H ) :   0.9506 B(  6-C ,  8-H ) :   0.9337 B(  6-C ,  9-C ) :   1.0588
B(  9-C , 10-H ) :   0.9584 B(  9-C , 11-H ) :   0.9544 B(  9-C , 12-C ) :   1.0885
B( 12-C , 13-H ) :   0.9696 B( 12-C , 14-H ) :   0.9729 B( 12-C , 15-H ) :   0.9712
B( 16-S , 17-C ) :   1.1696 B( 16-S , 20-C ) :   1.1540 B( 17-C , 18-C ) :   1.5673
B( 17-C , 20-C ) :   0.1078 B( 17-C , 33-H ) :   0.9744 B( 18-C , 19-C ) :   1.2599
B( 18-C , 21-H ) :   0.9753 B( 19-C , 20-C ) :   1.5853 B( 19-C , 22-C ) :   1.0349
B( 22-C , 23-H ) :   0.9172 B( 22-C , 24-H ) :   0.9406 B( 22-C , 25-C ) :   1.0764
B( 25-C , 26-H ) :   0.9529 B( 25-C , 27-H ) :   0.9432 B( 25-C , 28-C ) :   1.0971
B( 28-C , 29-H ) :   0.9675 B( 28-C , 30-H ) :   0.9625 B( 28-C , 31-H ) :   0.9688

Dispersion correction           -0.013136089
FINAL SINGLE POINT ENERGY     -1339.857926239100

DIPOLE MOMENT
-------------
                                X             Y             Z
Electronic contribution:     -8.57339     -25.19844      -9.39938
Nuclear contribution   :      8.69930      25.81309       9.85484
                        -----------------------------------------
Total Dipole Moment    :      0.12590       0.61466       0.45546
                        -----------------------------------------
Magnitude (a.u.)       :      0.77530
Magnitude (Debye)      :      1.97066

Rotational constants in cm-1:     0.017452     0.007723     0.006068
Rotational constants in MHz :   523.207366   231.523811   181.927133

                             ****ORCA TERMINATED NORMALLY****
TOTAL RUN TIME: 0 days 0 hours 0 minutes 20 seconds 707 msec
