                         Program Version 4.2.1 -  RELEASE  -
|  1> ! wB97X-D3 SP def2-SVP
|  2> %pal
|  3> nprocs 24
|  4> end
|  5>
|  6> * xyz 0 1
|  7> S 	 -107.311 	 41.9605 	 -12.214
|  8> C 	 -108.048 	 43.4011 	 -12.9684
|  9> C 	 -109.392 	 43.4489 	 -12.658
| 10> C 	 -109.806 	 42.4405 	 -11.746
| 11> C 	 -108.855 	 41.477 	 -11.4131
| 12> H 	 -110.774 	 42.3521 	 -11.3432
| 13> C 	 -110.354 	 44.6544 	 -12.9902
| 14> H 	 -109.714 	 45.483 	 -12.952
| 15> H 	 -111.085 	 44.7383 	 -12.1803
| 16> C 	 -111.068 	 44.5965 	 -14.318
| 17> H 	 -111.566 	 45.5874 	 -14.4356
| 18> H 	 -110.351 	 44.5901 	 -15.0886
| 19> C 	 -111.903 	 43.3304 	 -14.5432
| 20> H 	 -112.858 	 43.3771 	 -13.9185
| 21> H 	 -112.254 	 43.372 	 -15.6042
| 22> H 	 -111.445 	 42.3394 	 -14.418
| 23> S 	 -108.086 	 38.8631 	 -10.8481
| 24> C 	 -108.728 	 38.0823 	 -9.48863
| 25> C 	 -109.544 	 38.9031 	 -8.72101
| 26> C 	 -109.738 	 40.1943 	 -9.29026
| 27> C 	 -108.986 	 40.3793 	 -10.4583
| 28> H 	 -109.985 	 38.5357 	 -7.90499
| 29> C 	 -110.534 	 41.2271 	 -8.51131
| 30> H 	 -110.729 	 42.0481 	 -9.11963
| 31> H 	 -109.927 	 41.7171 	 -7.81787
| 32> C 	 -111.911 	 40.8106 	 -7.95885
| 33> H 	 -112.401 	 41.6317 	 -7.39889
| 34> H 	 -111.812 	 39.9169 	 -7.29144
| 35> C 	 -112.873 	 40.428 	 -9.09462
| 36> H 	 -112.623 	 40.8309 	 -10.1155
| 37> H 	 -113.975 	 40.6244 	 -8.8758
| 38> H 	 -112.697 	 39.3436 	 -9.23763
| 39> H 	 -107.672 	 44.0749 	 -13.7127
| 40> H 	 -108.562 	 37.0222 	 -9.29853
| 41> *
| 42>
| 43>                          ****END OF INPUT****

CARTESIAN COORDINATES (ANGSTROEM)
---------------------------------
  S    -107.311000   41.960500  -12.214000
  C    -108.048000   43.401100  -12.968400
  C    -109.392000   43.448900  -12.658000
  C    -109.806000   42.440500  -11.746000
  C    -108.855000   41.477000  -11.413100
  H    -110.774000   42.352100  -11.343200
  C    -110.354000   44.654400  -12.990200
  H    -109.714000   45.483000  -12.952000
  H    -111.085000   44.738300  -12.180300
  C    -111.068000   44.596500  -14.318000
  H    -111.566000   45.587400  -14.435600
  H    -110.351000   44.590100  -15.088600
  C    -111.903000   43.330400  -14.543200
  H    -112.858000   43.377100  -13.918500
  H    -112.254000   43.372000  -15.604200
  H    -111.445000   42.339400  -14.418000
  S    -108.086000   38.863100  -10.848100
  C    -108.728000   38.082300   -9.488630
  C    -109.544000   38.903100   -8.721010
  C    -109.738000   40.194300   -9.290260
  C    -108.986000   40.379300  -10.458300
  H    -109.985000   38.535700   -7.904990
  C    -110.534000   41.227100   -8.511310
  H    -110.729000   42.048100   -9.119630
  H    -109.927000   41.717100   -7.817870
  C    -111.911000   40.810600   -7.958850
  H    -112.401000   41.631700   -7.398890
  H    -111.812000   39.916900   -7.291440
  C    -112.873000   40.428000   -9.094620
  H    -112.623000   40.830900  -10.115500
  H    -113.975000   40.624400   -8.875800
  H    -112.697000   39.343600   -9.237630
  H    -107.672000   44.074900  -13.712700
  H    -108.562000   37.022200   -9.298530

 Total Charge           Charge          ....    0
 Multiplicity           Mult            ....    1
 Number of Electrons    NEL             ....  134
 Basis Dimension        Dim             ....  322

ORBITAL ENERGIES
----------------

  NO   OCC          E(Eh)            E(eV)
   0   2.0000     -88.967796     -2420.9368
   1   2.0000     -88.967609     -2420.9317
   2   2.0000     -10.336995      -281.2839
   3   2.0000     -10.335937      -281.2552
   4   2.0000     -10.318907      -280.7917
   5   2.0000     -10.315917      -280.7104
   6   2.0000     -10.311242      -280.5832
   7   2.0000     -10.300657      -280.2951
   8   2.0000     -10.296103      -280.1712
   9   2.0000     -10.289703      -279.9970
  10   2.0000     -10.289502      -279.9916
  11   2.0000     -10.286777      -279.9174
  12   2.0000     -10.286008      -279.8965
  13   2.0000     -10.284999      -279.8690
  14   2.0000     -10.284862      -279.8653
  15   2.0000     -10.284707      -279.8611
  16   2.0000      -8.082924      -219.9475
  17   2.0000      -8.080591      -219.8841
  18   2.0000      -6.041354      -164.3936
  19   2.0000      -6.039397      -164.3404
  20   2.0000      -6.037269      -164.2825
  21   2.0000      -6.035320      -164.2294
  22   2.0000      -6.033855      -164.1895
  23   2.0000      -6.031137      -164.1156
  24   2.0000      -1.002599       -27.2821
  25   2.0000      -0.979694       -26.6588
  26   2.0000      -0.914029       -24.8720
  27   2.0000      -0.909731       -24.7550
  28   2.0000      -0.869022       -23.6473
  29   2.0000      -0.851594       -23.1730
  30   2.0000      -0.838468       -22.8159
  31   2.0000      -0.813736       -22.1429
  32   2.0000      -0.788050       -21.4439
  33   2.0000      -0.775858       -21.1122
  34   2.0000      -0.708730       -19.2855
  35   2.0000      -0.700653       -19.0657
  36   2.0000      -0.693981       -18.8842
  37   2.0000      -0.663848       -18.0642
  38   2.0000      -0.637026       -17.3344
  39   2.0000      -0.621366       -16.9082
  40   2.0000      -0.603511       -16.4224
  41   2.0000      -0.574093       -15.6219
  42   2.0000      -0.555220       -15.1083
  43   2.0000      -0.554532       -15.0896
  44   2.0000      -0.544242       -14.8096
  45   2.0000      -0.537239       -14.6190
  46   2.0000      -0.514899       -14.0111
  47   2.0000      -0.507064       -13.7979
  48   2.0000      -0.506261       -13.7761
  49   2.0000      -0.495328       -13.4786
  50   2.0000      -0.493082       -13.4174
  51   2.0000      -0.478951       -13.0329
  52   2.0000      -0.471699       -12.8356
  53   2.0000      -0.465593       -12.6694
  54   2.0000      -0.462425       -12.5832
  55   2.0000      -0.449806       -12.2398
  56   2.0000      -0.439309       -11.9542
  57   2.0000      -0.435211       -11.8427
  58   2.0000      -0.431194       -11.7334
  59   2.0000      -0.423887       -11.5345
  60   2.0000      -0.419336       -11.4107
  61   2.0000      -0.414825       -11.2879
  62   2.0000      -0.408080       -11.1044
  63   2.0000      -0.356090        -9.6897
  64   2.0000      -0.335383        -9.1262
  65   2.0000      -0.331160        -9.0113
  66   2.0000      -0.285193        -7.7605
  67   0.0000       0.020318         0.5529
  68   0.0000       0.070125         1.9082
  69   0.0000       0.104552         2.8450
  70   0.0000       0.117736         3.2038
  71   0.0000       0.131111         3.5677

MULLIKEN ATOMIC CHARGES
-----------------------
   0 S :    0.093857
   1 C :   -0.101817
   2 C :   -0.105134
   3 C :    0.013491
   4 C :   -0.106065
   5 H :   -0.014404
   6 C :    0.079206
   7 H :    0.012213
   8 H :    0.023404
   9 C :   -0.036338
  10 H :    0.035608
  11 H :    0.006328
  12 C :   -0.095519
  13 H :    0.035174
  14 H :    0.036803
  15 H :    0.061493
  16 S :    0.108256
  17 C :   -0.087369
  18 C :    0.012211
  19 C :   -0.042584
  20 C :   -0.157415
  21 H :   -0.038204
  22 C :    0.141326
  23 H :   -0.022011
  24 H :    0.025673
  25 C :   -0.096081
  26 H :    0.040622
  27 H :    0.041304
  28 C :   -0.107453
  29 H :    0.042405
  30 H :    0.054971
  31 H :    0.037483
  32 H :    0.043084
  33 H :    0.065482
Sum of atomic charges:   -0.0000000

LOEWDIN ATOMIC CHARGES
----------------------
   0 S :    0.369287
   1 C :   -0.190012
   2 C :   -0.061344
   3 C :   -0.066517
   4 C :   -0.173252
   5 H :    0.017923
   6 C :   -0.020681
   7 H :    0.022643
   8 H :    0.028417
   9 C :   -0.044270
  10 H :    0.032628
  11 H :    0.015139
  12 C :   -0.075916
  13 H :    0.028439
  14 H :    0.031237
  15 H :    0.032891
  16 S :    0.412238
  17 C :   -0.189810
  18 C :   -0.060339
  19 C :   -0.042945
  20 C :   -0.183581
  21 H :    0.007669
  22 C :   -0.026739
  23 H :    0.021309
  24 H :    0.031615
  25 C :   -0.041847
  26 H :    0.029376
  27 H :    0.024603
  28 C :   -0.083036
  29 H :    0.027762
  30 H :    0.034383
  31 H :    0.030057
  32 H :    0.030133
  33 H :    0.032541

  Mayer bond orders larger than 0.100000
B(  0-S ,  1-C ) :   1.1215 B(  0-S ,  4-C ) :   1.1256 B(  1-C ,  2-C ) :   1.6382
B(  1-C ,  4-C ) :   0.1032 B(  1-C , 32-H ) :   0.9608 B(  2-C ,  3-C ) :   1.2417
B(  2-C ,  6-C ) :   0.9938 B(  3-C ,  4-C ) :   1.5758 B(  3-C ,  5-H ) :   0.9976
B(  4-C , 20-C ) :   1.0661 B(  6-C ,  7-H ) :   0.9429 B(  6-C ,  8-H ) :   0.9501
B(  6-C ,  9-C ) :   1.0814 B(  9-C , 10-H ) :   0.9528 B(  9-C , 11-H ) :   0.9525
B(  9-C , 12-C ) :   1.0721 B( 12-C , 13-H ) :   0.9762 B( 12-C , 14-H ) :   0.9740
B( 12-C , 15-H ) :   0.9717 B( 16-S , 17-C ) :   1.1830 B( 16-S , 20-C ) :   1.1337
B( 17-C , 18-C ) :   1.5803 B( 17-C , 33-H ) :   0.9647 B( 18-C , 19-C ) :   1.2451
B( 18-C , 21-H ) :   1.0133 B( 19-C , 20-C ) :   1.5773 B( 19-C , 22-C ) :   1.0311
B( 22-C , 23-H ) :   0.9227 B( 22-C , 24-H ) :   0.9255 B( 22-C , 25-C ) :   1.0714
B( 25-C , 26-H ) :   0.9601 B( 25-C , 27-H ) :   0.9618 B( 25-C , 28-C ) :   1.0486
B( 28-C , 29-H ) :   0.9778 B( 28-C , 30-H ) :   0.9771 B( 28-C , 31-H ) :   0.9745

Dispersion correction           -0.014670796
FINAL SINGLE POINT ENERGY     -1339.864239250894

DIPOLE MOMENT
-------------
                                X             Y             Z
Electronic contribution:     25.82851     -11.78929       0.12720
Nuclear contribution   :    -26.42925      12.04982       0.08637
                        -----------------------------------------
Total Dipole Moment    :     -0.60074       0.26053       0.21356
                        -----------------------------------------
Magnitude (a.u.)       :      0.68875
Magnitude (Debye)      :      1.75066

Rotational constants in cm-1:     0.018115     0.009063     0.006851
Rotational constants in MHz :   543.079651   271.688499   205.387120

                             ****ORCA TERMINATED NORMALLY****
TOTAL RUN TIME: 0 days 0 hours 0 minutes 21 seconds 942 msec
