                         Program Version 4.2.1 -  RELEASE  -
|  1> ! wB97X-D3 SP def2-SVP
|  2> %pal
|  3> nprocs 24
|  4> end
|  5>
|  6> * xyz 0 1
|  7> S 	 -49.8066 	 -44.6006 	 -77.172
|  8> C 	 -50.2474 	 -43.4655 	 -78.4063
|  9> C 	 -49.1405 	 -43.0674 	 -79.0753
| 10> C 	 -47.8933 	 -43.5443 	 -78.6004
| 11> C 	 -48.0854 	 -44.4101 	 -77.5248
| 12> H 	 -46.8668 	 -43.2303 	 -78.8492
| 13> C 	 -49.0897 	 -42.1323 	 -80.2787
| 14> H 	 -49.9376 	 -42.302 	 -80.8939
| 15> H 	 -48.1529 	 -42.4743 	 -80.8057
| 16> C 	 -49.0444 	 -40.6291 	 -80.107
| 17> H 	 -49.9064 	 -40.2641 	 -79.451
| 18> H 	 -48.1584 	 -40.2908 	 -79.6445
| 19> C 	 -49.1749 	 -39.9902 	 -81.5848
| 20> H 	 -50.1101 	 -40.3192 	 -82.0339
| 21> H 	 -49.3355 	 -38.8967 	 -81.5134
| 22> H 	 -48.3927 	 -40.2915 	 -82.2429
| 23> S 	 -47.4936 	 -44.8495 	 -74.8136
| 24> C 	 -45.8652 	 -45.4586 	 -74.392
| 25> C 	 -45.1481 	 -45.7527 	 -75.552
| 26> C 	 -45.7951 	 -45.4188 	 -76.7974
| 27> C 	 -47.1448 	 -44.9816 	 -76.5607
| 28> H 	 -44.115 	 -46.1489 	 -75.6153
| 29> C 	 -45.0427 	 -45.6178 	 -78.1791
| 30> H 	 -44.0002 	 -45.2857 	 -78.0949
| 31> H 	 -45.5311 	 -45.0426 	 -78.9637
| 32> C 	 -44.8791 	 -47.0776 	 -78.6236
| 33> H 	 -45.8489 	 -47.4232 	 -78.5627
| 34> H 	 -44.3651 	 -47.6418 	 -77.8993
| 35> C 	 -44.2843 	 -47.3472 	 -80.0181
| 36> H 	 -43.2067 	 -47.136 	 -80.1556
| 37> H 	 -44.832 	 -46.6611 	 -80.675
| 38> H 	 -44.5141 	 -48.3249 	 -80.3026
| 39> H 	 -51.1528 	 -43.1609 	 -78.7235
| 40> H 	 -45.4424 	 -45.5613 	 -73.4224
| 41> *
| 42>
| 43>                          ****END OF INPUT****

CARTESIAN COORDINATES (ANGSTROEM)
---------------------------------
  S    -49.806600  -44.600600  -77.172000
  C    -50.247400  -43.465500  -78.406300
  C    -49.140500  -43.067400  -79.075300
  C    -47.893300  -43.544300  -78.600400
  C    -48.085400  -44.410100  -77.524800
  H    -46.866800  -43.230300  -78.849200
  C    -49.089700  -42.132300  -80.278700
  H    -49.937600  -42.302000  -80.893900
  H    -48.152900  -42.474300  -80.805700
  C    -49.044400  -40.629100  -80.107000
  H    -49.906400  -40.264100  -79.451000
  H    -48.158400  -40.290800  -79.644500
  C    -49.174900  -39.990200  -81.584800
  H    -50.110100  -40.319200  -82.033900
  H    -49.335500  -38.896700  -81.513400
  H    -48.392700  -40.291500  -82.242900
  S    -47.493600  -44.849500  -74.813600
  C    -45.865200  -45.458600  -74.392000
  C    -45.148100  -45.752700  -75.552000
  C    -45.795100  -45.418800  -76.797400
  C    -47.144800  -44.981600  -76.560700
  H    -44.115000  -46.148900  -75.615300
  C    -45.042700  -45.617800  -78.179100
  H    -44.000200  -45.285700  -78.094900
  H    -45.531100  -45.042600  -78.963700
  C    -44.879100  -47.077600  -78.623600
  H    -45.848900  -47.423200  -78.562700
  H    -44.365100  -47.641800  -77.899300
  C    -44.284300  -47.347200  -80.018100
  H    -43.206700  -47.136000  -80.155600
  H    -44.832000  -46.661100  -80.675000
  H    -44.514100  -48.324900  -80.302600
  H    -51.152800  -43.160900  -78.723500
  H    -45.442400  -45.561300  -73.422400

 Total Charge           Charge          ....    0
 Multiplicity           Mult            ....    1
 Number of Electrons    NEL             ....  134
 Basis Dimension        Dim             ....  322

ORBITAL ENERGIES
----------------

  NO   OCC          E(Eh)            E(eV)
   0   2.0000     -88.973254     -2421.0853
   1   2.0000     -88.965945     -2420.8864
   2   2.0000     -10.338287      -281.3191
   3   2.0000     -10.333884      -281.1993
   4   2.0000     -10.324058      -280.9319
   5   2.0000     -10.315247      -280.6922
   6   2.0000     -10.302983      -280.3584
   7   2.0000     -10.301643      -280.3220
   8   2.0000     -10.300031      -280.2781
   9   2.0000     -10.296892      -280.1927
  10   2.0000     -10.295565      -280.1566
  11   2.0000     -10.292489      -280.0729
  12   2.0000     -10.288439      -279.9627
  13   2.0000     -10.282789      -279.8089
  14   2.0000     -10.278429      -279.6903
  15   2.0000     -10.274468      -279.5825
  16   2.0000      -8.086211      -220.0370
  17   2.0000      -8.080725      -219.8877
  18   2.0000      -6.044936      -164.4911
  19   2.0000      -6.040956      -164.3828
  20   2.0000      -6.039330      -164.3385
  21   2.0000      -6.036829      -164.2705
  22   2.0000      -6.035175      -164.2255
  23   2.0000      -6.031431      -164.1236
  24   2.0000      -1.004644       -27.3377
  25   2.0000      -0.976979       -26.5850
  26   2.0000      -0.909317       -24.7438
  27   2.0000      -0.907091       -24.6832
  28   2.0000      -0.868096       -23.6221
  29   2.0000      -0.851159       -23.1612
  30   2.0000      -0.843011       -22.9395
  31   2.0000      -0.812277       -22.1032
  32   2.0000      -0.782805       -21.3012
  33   2.0000      -0.771846       -21.0030
  34   2.0000      -0.710258       -19.3271
  35   2.0000      -0.705075       -19.1861
  36   2.0000      -0.699363       -19.0306
  37   2.0000      -0.659386       -17.9428
  38   2.0000      -0.644925       -17.5493
  39   2.0000      -0.620019       -16.8716
  40   2.0000      -0.596537       -16.2326
  41   2.0000      -0.569473       -15.4961
  42   2.0000      -0.565197       -15.3798
  43   2.0000      -0.559652       -15.2289
  44   2.0000      -0.527902       -14.3649
  45   2.0000      -0.519385       -14.1332
  46   2.0000      -0.516728       -14.0609
  47   2.0000      -0.510147       -13.8818
  48   2.0000      -0.503811       -13.7094
  49   2.0000      -0.498997       -13.5784
  50   2.0000      -0.495134       -13.4733
  51   2.0000      -0.482823       -13.1383
  52   2.0000      -0.475448       -12.9376
  53   2.0000      -0.461609       -12.5610
  54   2.0000      -0.459366       -12.5000
  55   2.0000      -0.451687       -12.2910
  56   2.0000      -0.443860       -12.0781
  57   2.0000      -0.442029       -12.0282
  58   2.0000      -0.431891       -11.7523
  59   2.0000      -0.427686       -11.6379
  60   2.0000      -0.421817       -11.4782
  61   2.0000      -0.418507       -11.3882
  62   2.0000      -0.408624       -11.1192
  63   2.0000      -0.356357        -9.6970
  64   2.0000      -0.333712        -9.0808
  65   2.0000      -0.330728        -8.9996
  66   2.0000      -0.285771        -7.7762
  67   0.0000       0.019394         0.5277
  68   0.0000       0.071753         1.9525
  69   0.0000       0.103651         2.8205
  70   0.0000       0.112521         3.0619
  71   0.0000       0.134901         3.6708

MULLIKEN ATOMIC CHARGES
-----------------------
   0 S :    0.095781
   1 C :   -0.040134
   2 C :   -0.087486
   3 C :    0.011173
   4 C :   -0.155852
   5 H :    0.036940
   6 C :    0.041383
   7 H :    0.007824
   8 H :    0.028581
   9 C :   -0.053179
  10 H :    0.037475
  11 H :    0.021166
  12 C :   -0.061138
  13 H :    0.021286
  14 H :    0.040953
  15 H :    0.036451
  16 S :    0.111605
  17 C :   -0.079959
  18 C :   -0.031401
  19 C :   -0.064930
  20 C :   -0.131027
  21 H :    0.031386
  22 C :    0.065275
  23 H :    0.025863
  24 H :    0.011846
  25 C :   -0.050925
  26 H :    0.012736
  27 H :    0.010074
  28 C :   -0.021730
  29 H :    0.039763
  30 H :    0.021163
  31 H :    0.028936
  32 H :   -0.013731
  33 H :    0.053829
Sum of atomic charges:    0.0000000

LOEWDIN ATOMIC CHARGES
----------------------
   0 S :    0.402716
   1 C :   -0.185994
   2 C :   -0.063012
   3 C :   -0.069873
   4 C :   -0.176722
   5 H :    0.038225
   6 C :   -0.036146
   7 H :    0.022154
   8 H :    0.036005
   9 C :   -0.032670
  10 H :    0.031023
  11 H :    0.013919
  12 C :   -0.064322
  13 H :    0.022228
  14 H :    0.029842
  15 H :    0.021268
  16 S :    0.388135
  17 C :   -0.175623
  18 C :   -0.070155
  19 C :   -0.050933
  20 C :   -0.195856
  21 H :    0.035716
  22 C :   -0.025916
  23 H :    0.030072
  24 H :    0.023961
  25 C :   -0.036360
  26 H :    0.017549
  27 H :    0.014633
  28 C :   -0.056051
  29 H :    0.028280
  30 H :    0.026525
  31 H :    0.021889
  32 H :    0.007809
  33 H :    0.027679

  Mayer bond orders larger than 0.100000
B(  0-S ,  1-C ) :   1.1125 B(  0-S ,  4-C ) :   1.1554 B(  1-C ,  2-C ) :   1.6365
B(  1-C , 32-H ) :   0.9809 B(  2-C ,  3-C ) :   1.2320 B(  2-C ,  6-C ) :   1.0104
B(  3-C ,  4-C ) :   1.5742 B(  3-C ,  5-H ) :   0.9780 B(  4-C , 20-C ) :   1.0506
B(  6-C ,  7-H ) :   0.9416 B(  6-C ,  8-H ) :   0.9420 B(  6-C ,  9-C ) :   1.0717
B(  9-C , 10-H ) :   0.9556 B(  9-C , 11-H ) :   0.9569 B(  9-C , 12-C ) :   1.0632
B( 12-C , 13-H ) :   0.9765 B( 12-C , 14-H ) :   0.9759 B( 12-C , 15-H ) :   0.9786
B( 16-S , 17-C ) :   1.1342 B( 16-S , 20-C ) :   1.1392 B( 17-C , 18-C ) :   1.5964
B( 17-C , 20-C ) :   0.1036 B( 17-C , 33-H ) :   0.9740 B( 18-C , 19-C ) :   1.2693
B( 18-C , 21-H ) :   0.9753 B( 19-C , 20-C ) :   1.5650 B( 19-C , 22-C ) :   1.0408
B( 22-C , 23-H ) :   0.9381 B( 22-C , 24-H ) :   0.9349 B( 22-C , 25-C ) :   1.0631
B( 25-C , 26-H ) :   0.9508 B( 25-C , 27-H ) :   0.9527 B( 25-C , 28-C ) :   1.0836
B( 28-C , 29-H ) :   0.9762 B( 28-C , 30-H ) :   0.9742 B( 28-C , 31-H ) :   0.9734

Dispersion correction           -0.013206988
FINAL SINGLE POINT ENERGY     -1339.860139623069

DIPOLE MOMENT
-------------
                                X             Y             Z
Electronic contribution:    -10.89937      -6.67650      26.07180
Nuclear contribution   :     11.34957       6.84628     -26.53821
                        -----------------------------------------
Total Dipole Moment    :      0.45020       0.16979      -0.46640
                        -----------------------------------------
Magnitude (a.u.)       :      0.67010
Magnitude (Debye)      :      1.70327

Rotational constants in cm-1:     0.016909     0.007921     0.006188
Rotational constants in MHz :   506.923751   237.471113   185.512188

                             ****ORCA TERMINATED NORMALLY****
TOTAL RUN TIME: 0 days 0 hours 0 minutes 20 seconds 728 msec
