                         Program Version 4.2.1 -  RELEASE  -
|  1> ! wB97X-D3 SP def2-SVP
|  2> %pal
|  3> nprocs 24
|  4> end
|  5>
|  6> * xyz 0 1
|  7> S 	 -63.2843 	 -55.8679 	 -77.9648
|  8> C 	 -64.9748 	 -55.8964 	 -78.1232
|  9> C 	 -65.3058 	 -56.9205 	 -79.004
| 10> C 	 -64.2358 	 -57.7958 	 -79.3228
| 11> C 	 -63.0366 	 -57.3611 	 -78.7186
| 12> H 	 -64.1808 	 -58.8169 	 -79.692
| 13> C 	 -66.7666 	 -57.2759 	 -79.228
| 14> H 	 -67.3103 	 -56.4286 	 -78.8678
| 15> H 	 -67.1626 	 -58.055 	 -78.5246
| 16> C 	 -67.071 	 -57.4545 	 -80.8186
| 17> H 	 -66.5852 	 -58.3376 	 -81.24
| 18> H 	 -68.0537 	 -57.738 	 -81.0639
| 19> C 	 -66.5882 	 -56.3 	 -81.7043
| 20> H 	 -65.5574 	 -56.602 	 -82.05
| 21> H 	 -67.2461 	 -56.2078 	 -82.5948
| 22> H 	 -66.5558 	 -55.3007 	 -81.2795
| 23> S 	 -61.0297 	 -58.2258 	 -77.0661
| 24> C 	 -59.6959 	 -59.2312 	 -77.7101
| 25> C 	 -59.8142 	 -59.3145 	 -79.0952
| 26> C 	 -60.9464 	 -58.6233 	 -79.6458
| 27> C 	 -61.7684 	 -58.0712 	 -78.7046
| 28> H 	 -59.0994 	 -59.8244 	 -79.7008
| 29> C 	 -61.2027 	 -58.592 	 -81.1363
| 30> H 	 -62.271 	 -58.85 	 -81.2661
| 31> H 	 -60.7344 	 -59.4386 	 -81.6048
| 32> C 	 -60.7789 	 -57.3609 	 -81.7966
| 33> H 	 -60.833 	 -57.51 	 -82.9244
| 34> H 	 -59.7204 	 -57.1654 	 -81.5021
| 35> C 	 -61.6098 	 -56.1145 	 -81.5817
| 36> H 	 -62.6699 	 -56.1965 	 -81.6119
| 37> H 	 -61.2901 	 -55.4208 	 -82.3141
| 38> H 	 -61.3348 	 -55.7219 	 -80.5845
| 39> H 	 -65.6409 	 -55.1812 	 -77.7558
| 40> H 	 -58.7956 	 -59.5084 	 -77.1413
| 41> *
| 42>
| 43>                          ****END OF INPUT****

CARTESIAN COORDINATES (ANGSTROEM)
---------------------------------
  S    -63.284300  -55.867900  -77.964800
  C    -64.974800  -55.896400  -78.123200
  C    -65.305800  -56.920500  -79.004000
  C    -64.235800  -57.795800  -79.322800
  C    -63.036600  -57.361100  -78.718600
  H    -64.180800  -58.816900  -79.692000
  C    -66.766600  -57.275900  -79.228000
  H    -67.310300  -56.428600  -78.867800
  H    -67.162600  -58.055000  -78.524600
  C    -67.071000  -57.454500  -80.818600
  H    -66.585200  -58.337600  -81.240000
  H    -68.053700  -57.738000  -81.063900
  C    -66.588200  -56.300000  -81.704300
  H    -65.557400  -56.602000  -82.050000
  H    -67.246100  -56.207800  -82.594800
  H    -66.555800  -55.300700  -81.279500
  S    -61.029700  -58.225800  -77.066100
  C    -59.695900  -59.231200  -77.710100
  C    -59.814200  -59.314500  -79.095200
  C    -60.946400  -58.623300  -79.645800
  C    -61.768400  -58.071200  -78.704600
  H    -59.099400  -59.824400  -79.700800
  C    -61.202700  -58.592000  -81.136300
  H    -62.271000  -58.850000  -81.266100
  H    -60.734400  -59.438600  -81.604800
  C    -60.778900  -57.360900  -81.796600
  H    -60.833000  -57.510000  -82.924400
  H    -59.720400  -57.165400  -81.502100
  C    -61.609800  -56.114500  -81.581700
  H    -62.669900  -56.196500  -81.611900
  H    -61.290100  -55.420800  -82.314100
  H    -61.334800  -55.721900  -80.584500
  H    -65.640900  -55.181200  -77.755800
  H    -58.795600  -59.508400  -77.141300

 Total Charge           Charge          ....    0
 Multiplicity           Mult            ....    1
 Number of Electrons    NEL             ....  134
 Basis Dimension        Dim             ....  322

ORBITAL ENERGIES
----------------

  NO   OCC          E(Eh)            E(eV)
   0   2.0000     -88.967415     -2420.9264
   1   2.0000     -88.963335     -2420.8154
   2   2.0000     -10.329960      -281.0925
   3   2.0000     -10.327472      -281.0248
   4   2.0000     -10.325327      -280.9664
   5   2.0000     -10.308307      -280.5033
   6   2.0000     -10.303187      -280.3640
   7   2.0000     -10.302461      -280.3442
   8   2.0000     -10.297655      -280.2134
   9   2.0000     -10.296570      -280.1839
  10   2.0000     -10.295289      -280.1490
  11   2.0000     -10.286998      -279.9235
  12   2.0000     -10.284905      -279.8665
  13   2.0000     -10.284500      -279.8555
  14   2.0000     -10.280396      -279.7438
  15   2.0000     -10.263325      -279.2793
  16   2.0000      -8.083748      -219.9700
  17   2.0000      -8.076837      -219.7819
  18   2.0000      -6.041943      -164.4096
  19   2.0000      -6.037812      -164.2972
  20   2.0000      -6.035496      -164.2342
  21   2.0000      -6.034934      -164.2189
  22   2.0000      -6.031504      -164.1256
  23   2.0000      -6.027504      -164.0167
  24   2.0000      -1.014384       -27.6028
  25   2.0000      -0.983853       -26.7720
  26   2.0000      -0.915749       -24.9188
  27   2.0000      -0.902997       -24.5718
  28   2.0000      -0.869950       -23.6725
  29   2.0000      -0.849862       -23.1259
  30   2.0000      -0.843697       -22.9582
  31   2.0000      -0.816643       -22.2220
  32   2.0000      -0.785706       -21.3802
  33   2.0000      -0.771192       -20.9852
  34   2.0000      -0.710167       -19.3246
  35   2.0000      -0.697538       -18.9810
  36   2.0000      -0.687248       -18.7010
  37   2.0000      -0.664555       -18.0835
  38   2.0000      -0.649425       -17.6717
  39   2.0000      -0.615307       -16.7433
  40   2.0000      -0.597831       -16.2678
  41   2.0000      -0.567399       -15.4397
  42   2.0000      -0.556307       -15.1379
  43   2.0000      -0.547266       -14.8919
  44   2.0000      -0.538686       -14.6584
  45   2.0000      -0.532947       -14.5022
  46   2.0000      -0.525250       -14.2928
  47   2.0000      -0.516343       -14.0504
  48   2.0000      -0.508255       -13.8303
  49   2.0000      -0.501913       -13.6578
  50   2.0000      -0.484704       -13.1895
  51   2.0000      -0.480566       -13.0769
  52   2.0000      -0.476952       -12.9785
  53   2.0000      -0.465242       -12.6599
  54   2.0000      -0.455870       -12.4049
  55   2.0000      -0.443628       -12.0717
  56   2.0000      -0.440945       -11.9987
  57   2.0000      -0.435944       -11.8626
  58   2.0000      -0.429200       -11.6791
  59   2.0000      -0.419552       -11.4166
  60   2.0000      -0.414606       -11.2820
  61   2.0000      -0.408137       -11.1060
  62   2.0000      -0.399578       -10.8731
  63   2.0000      -0.346911        -9.4399
  64   2.0000      -0.332584        -9.0501
  65   2.0000      -0.329543        -8.9673
  66   2.0000      -0.295242        -8.0339
  67   0.0000       0.023982         0.6526
  68   0.0000       0.068659         1.8683
  69   0.0000       0.110557         3.0084
  70   0.0000       0.113601         3.0912
  71   0.0000       0.128045         3.4843

MULLIKEN ATOMIC CHARGES
-----------------------
   0 S :    0.141063
   1 C :   -0.103474
   2 C :   -0.087949
   3 C :    0.035710
   4 C :   -0.179242
   5 H :    0.030200
   6 C :    0.066320
   7 H :    0.001663
   8 H :    0.054257
   9 C :   -0.058400
  10 H :    0.018897
  11 H :    0.010046
  12 C :   -0.082537
  13 H :    0.046858
  14 H :    0.036378
  15 H :    0.038220
  16 S :    0.083402
  17 C :   -0.094303
  18 C :   -0.026511
  19 C :   -0.054168
  20 C :   -0.169619
  21 H :    0.010839
  22 C :    0.120394
  23 H :    0.013513
  24 H :    0.004511
  25 C :   -0.098001
  26 H :    0.032272
  27 H :    0.031308
  28 C :   -0.011350
  29 H :    0.030496
  30 H :    0.023630
  31 H :    0.026926
  32 H :    0.034191
  33 H :    0.074459
Sum of atomic charges:   -0.0000000

LOEWDIN ATOMIC CHARGES
----------------------
   0 S :    0.462757
   1 C :   -0.208715
   2 C :   -0.065284
   3 C :   -0.067933
   4 C :   -0.213481
   5 H :    0.036296
   6 C :   -0.029476
   7 H :    0.021099
   8 H :    0.039854
   9 C :   -0.044740
  10 H :    0.024365
  11 H :    0.013989
  12 C :   -0.072814
  13 H :    0.032432
  14 H :    0.030874
  15 H :    0.023401
  16 S :    0.366210
  17 C :   -0.174710
  18 C :   -0.067124
  19 C :   -0.055851
  20 C :   -0.179634
  21 H :    0.026511
  22 C :   -0.036496
  23 H :    0.031737
  24 H :    0.028461
  25 C :   -0.045802
  26 H :    0.028999
  27 H :    0.030708
  28 C :   -0.061731
  29 H :    0.020764
  30 H :    0.022604
  31 H :    0.024870
  32 H :    0.020114
  33 H :    0.037744

  Mayer bond orders larger than 0.100000
B(  0-S ,  1-C ) :   1.1603 B(  0-S ,  4-C ) :   1.1994 B(  1-C ,  2-C ) :   1.5547
B(  1-C ,  4-C ) :   0.1021 B(  1-C , 32-H ) :   0.9794 B(  2-C ,  3-C ) :   1.2513
B(  2-C ,  6-C ) :   1.0352 B(  3-C ,  4-C ) :   1.5342 B(  3-C ,  5-H ) :   0.9914
B(  4-C , 20-C ) :   1.0426 B(  6-C ,  7-H ) :   0.9413 B(  6-C ,  8-H ) :   0.9525
B(  6-C ,  9-C ) :   1.0366 B(  9-C , 10-H ) :   0.9624 B(  9-C , 11-H ) :   0.9674
B(  9-C , 12-C ) :   1.0610 B( 12-C , 13-H ) :   0.9785 B( 12-C , 14-H ) :   0.9741
B( 12-C , 15-H ) :   0.9811 B( 16-S , 17-C ) :   1.1421 B( 16-S , 20-C ) :   1.1171
B( 17-C , 18-C ) :   1.6110 B( 17-C , 20-C ) :   0.1023 B( 17-C , 33-H ) :   0.9640
B( 18-C , 19-C ) :   1.2382 B( 18-C , 21-H ) :   0.9886 B( 19-C , 20-C ) :   1.6195
B( 19-C , 22-C ) :   1.0264 B( 22-C , 23-H ) :   0.9296 B( 22-C , 24-H ) :   0.9195
B( 22-C , 25-C ) :   1.0900 B( 25-C , 26-H ) :   0.9540 B( 25-C , 27-H ) :   0.9454
B( 25-C , 28-C ) :   1.0909 B( 28-C , 29-H ) :   0.9734 B( 28-C , 30-H ) :   0.9703
B( 28-C , 31-H ) :   0.9665

Dispersion correction           -0.016224180
FINAL SINGLE POINT ENERGY     -1339.864055717893

DIPOLE MOMENT
-------------
                                X             Y             Z
Electronic contribution:     11.68334      -1.61339      23.34656
Nuclear contribution   :    -11.84325       1.42681     -23.80299
                        -----------------------------------------
Total Dipole Moment    :     -0.15991      -0.18659      -0.45643
                        -----------------------------------------
Magnitude (a.u.)       :      0.51838
Magnitude (Debye)      :      1.31761

Rotational constants in cm-1:     0.021345     0.009467     0.007823
Rotational constants in MHz :   639.892730   283.812978   234.523985

                             ****ORCA TERMINATED NORMALLY****
TOTAL RUN TIME: 0 days 0 hours 0 minutes 21 seconds 959 msec
