                         Program Version 4.2.1 -  RELEASE  -
|  1> ! wB97X-D3 SP def2-SVP
|  2> %pal
|  3> nprocs 24
|  4> end
|  5>
|  6> * xyz 0 1
|  7> S 	 -97.8288 	 -1.56011 	 -118.507
|  8> C 	 -97.3625 	 -3.17766 	 -118.926
|  9> C 	 -97.8359 	 -4.07222 	 -118.03
| 10> C 	 -98.7345 	 -3.59069 	 -117.117
| 11> C 	 -98.9308 	 -2.24906 	 -117.238
| 12> H 	 -99.1564 	 -4.10991 	 -116.248
| 13> C 	 -97.5728 	 -5.58616 	 -118.066
| 14> H 	 -97.488 	 -5.92354 	 -119.111
| 15> H 	 -98.4825 	 -6.09809 	 -117.737
| 16> C 	 -96.4038 	 -5.91475 	 -117.237
| 17> H 	 -96.3805 	 -5.59151 	 -116.178
| 18> H 	 -96.3367 	 -7.0519 	 -117.224
| 19> C 	 -95.1201 	 -5.33453 	 -117.786
| 20> H 	 -94.9241 	 -5.57343 	 -118.79
| 21> H 	 -95.2589 	 -4.25979 	 -117.822
| 22> H 	 -94.3043 	 -5.63828 	 -117.143
| 23> S 	 -99.2949 	 -0.893999 	 -114.822
| 24> C 	 -100.729 	 0.0864669 	 -114.567
| 25> C 	 -101.554 	 0.0401248 	 -115.629
| 26> C 	 -101.096 	 -0.837513 	 -116.712
| 27> C 	 -99.8477 	 -1.40461 	 -116.428
| 28> H 	 -102.499 	 0.628864 	 -115.577
| 29> C 	 -101.905 	 -0.966799 	 -117.987
| 30> H 	 -101.349 	 -1.60777 	 -118.605
| 31> H 	 -102.026 	 0.0577098 	 -118.47
| 32> C 	 -103.219 	 -1.57163 	 -117.71
| 33> H 	 -103.824 	 -0.919981 	 -117.141
| 34> H 	 -103.097 	 -2.47713 	 -117.111
| 35> C 	 -104.095 	 -1.84067 	 -118.955
| 36> H 	 -104.278 	 -1.05392 	 -119.679
| 37> H 	 -105.123 	 -2.17189 	 -118.626
| 38> H 	 -103.73 	 -2.71505 	 -119.457
| 39> H 	 -96.7198 	 -3.38847 	 -119.806
| 40> H 	 -100.952 	 0.899839 	 -113.85
| 41> *
| 42>
| 43>                          ****END OF INPUT****

CARTESIAN COORDINATES (ANGSTROEM)
---------------------------------
  S    -97.828800   -1.560110  -118.507000
  C    -97.362500   -3.177660  -118.926000
  C    -97.835900   -4.072220  -118.030000
  C    -98.734500   -3.590690  -117.117000
  C    -98.930800   -2.249060  -117.238000
  H    -99.156400   -4.109910  -116.248000
  C    -97.572800   -5.586160  -118.066000
  H    -97.488000   -5.923540  -119.111000
  H    -98.482500   -6.098090  -117.737000
  C    -96.403800   -5.914750  -117.237000
  H    -96.380500   -5.591510  -116.178000
  H    -96.336700   -7.051900  -117.224000
  C    -95.120100   -5.334530  -117.786000
  H    -94.924100   -5.573430  -118.790000
  H    -95.258900   -4.259790  -117.822000
  H    -94.304300   -5.638280  -117.143000
  S    -99.294900   -0.893999  -114.822000
  C    -100.729000    0.086467  -114.567000
  C    -101.554000    0.040125  -115.629000
  C    -101.096000   -0.837513  -116.712000
  C    -99.847700   -1.404610  -116.428000
  H    -102.499000    0.628864  -115.577000
  C    -101.905000   -0.966799  -117.987000
  H    -101.349000   -1.607770  -118.605000
  H    -102.026000    0.057710  -118.470000
  C    -103.219000   -1.571630  -117.710000
  H    -103.824000   -0.919981  -117.141000
  H    -103.097000   -2.477130  -117.111000
  C    -104.095000   -1.840670  -118.955000
  H    -104.278000   -1.053920  -119.679000
  H    -105.123000   -2.171890  -118.626000
  H    -103.730000   -2.715050  -119.457000
  H    -96.719800   -3.388470  -119.806000
  H    -100.952000    0.899839  -113.850000

 Total Charge           Charge          ....    0
 Multiplicity           Mult            ....    1
 Number of Electrons    NEL             ....  134
 Basis Dimension        Dim             ....  322

ORBITAL ENERGIES
----------------

  NO   OCC          E(Eh)            E(eV)
   0   2.0000     -88.966262     -2420.8951
   1   2.0000     -88.963461     -2420.8189
   2   2.0000     -10.332698      -281.1670
   3   2.0000     -10.330533      -281.1081
   4   2.0000     -10.314936      -280.6837
   5   2.0000     -10.314747      -280.6785
   6   2.0000     -10.307436      -280.4796
   7   2.0000     -10.293304      -280.0950
   8   2.0000     -10.291520      -280.0465
   9   2.0000     -10.290749      -280.0255
  10   2.0000     -10.289242      -279.9845
  11   2.0000     -10.286040      -279.8974
  12   2.0000     -10.285209      -279.8748
  13   2.0000     -10.278225      -279.6847
  14   2.0000     -10.276962      -279.6504
  15   2.0000     -10.264461      -279.3102
  16   2.0000      -8.080430      -219.8797
  17   2.0000      -8.077709      -219.8056
  18   2.0000      -6.038855      -164.3256
  19   2.0000      -6.036421      -164.2594
  20   2.0000      -6.035143      -164.2246
  21   2.0000      -6.032259      -164.1461
  22   2.0000      -6.031182      -164.1168
  23   2.0000      -6.028288      -164.0381
  24   2.0000      -1.006474       -27.3875
  25   2.0000      -0.985295       -26.8112
  26   2.0000      -0.918900       -25.0045
  27   2.0000      -0.915584       -24.9143
  28   2.0000      -0.868957       -23.6455
  29   2.0000      -0.852947       -23.2099
  30   2.0000      -0.842344       -22.9214
  31   2.0000      -0.816417       -22.2158
  32   2.0000      -0.784878       -21.3576
  33   2.0000      -0.772108       -21.0101
  34   2.0000      -0.705973       -19.2105
  35   2.0000      -0.696274       -18.9466
  36   2.0000      -0.688216       -18.7273
  37   2.0000      -0.651631       -17.7318
  38   2.0000      -0.642268       -17.4770
  39   2.0000      -0.623412       -16.9639
  40   2.0000      -0.591915       -16.1068
  41   2.0000      -0.574786       -15.6407
  42   2.0000      -0.571442       -15.5497
  43   2.0000      -0.555644       -15.1198
  44   2.0000      -0.534762       -14.5516
  45   2.0000      -0.523206       -14.2372
  46   2.0000      -0.519404       -14.1337
  47   2.0000      -0.512712       -13.9516
  48   2.0000      -0.508659       -13.8413
  49   2.0000      -0.498436       -13.5631
  50   2.0000      -0.489349       -13.3159
  51   2.0000      -0.476283       -12.9603
  52   2.0000      -0.471179       -12.8214
  53   2.0000      -0.462637       -12.5890
  54   2.0000      -0.457953       -12.4615
  55   2.0000      -0.446343       -12.1456
  56   2.0000      -0.444646       -12.0994
  57   2.0000      -0.440194       -11.9783
  58   2.0000      -0.435334       -11.8460
  59   2.0000      -0.419888       -11.4257
  60   2.0000      -0.418571       -11.3899
  61   2.0000      -0.411921       -11.2089
  62   2.0000      -0.402416       -10.9503
  63   2.0000      -0.341240        -9.2856
  64   2.0000      -0.332621        -9.0511
  65   2.0000      -0.319835        -8.7032
  66   2.0000      -0.311751        -8.4832
  67   0.0000       0.041371         1.1258
  68   0.0000       0.053019         1.4427
  69   0.0000       0.111020         3.0210
  70   0.0000       0.124971         3.4006
  71   0.0000       0.126475         3.4416

MULLIKEN ATOMIC CHARGES
-----------------------
   0 S :    0.109010
   1 C :   -0.145234
   2 C :   -0.084145
   3 C :    0.039033
   4 C :   -0.171627
   5 H :    0.029959
   6 C :    0.083024
   7 H :    0.027019
   8 H :    0.021127
   9 C :   -0.088405
  10 H :    0.036718
  11 H :    0.033247
  12 C :   -0.026168
  13 H :    0.003918
  14 H :    0.034587
  15 H :    0.035814
  16 S :    0.101506
  17 C :   -0.082472
  18 C :   -0.070412
  19 C :   -0.043485
  20 C :   -0.191151
  21 H :    0.037842
  22 C :    0.136040
  23 H :    0.004410
  24 H :    0.044246
  25 C :   -0.090444
  26 H :    0.014274
  27 H :    0.033029
  28 C :   -0.047892
  29 H :    0.035726
  30 H :    0.027737
  31 H :    0.023966
  32 H :    0.063385
  33 H :    0.065820
Sum of atomic charges:    0.0000000

LOEWDIN ATOMIC CHARGES
----------------------
   0 S :    0.384274
   1 C :   -0.197093
   2 C :   -0.076247
   3 C :   -0.056606
   4 C :   -0.174832
   5 H :    0.043225
   6 C :   -0.029679
   7 H :    0.032173
   8 H :    0.029462
   9 C :   -0.048650
  10 H :    0.030325
  11 H :    0.027284
  12 C :   -0.060768
  13 H :    0.011875
  14 H :    0.025279
  15 H :    0.027071
  16 S :    0.387064
  17 C :   -0.194335
  18 C :   -0.080324
  19 C :   -0.045214
  20 C :   -0.201270
  21 H :    0.038437
  22 C :   -0.028716
  23 H :    0.021379
  24 H :    0.042356
  25 C :   -0.040293
  26 H :    0.015262
  27 H :    0.030653
  28 C :   -0.067834
  29 H :    0.024153
  30 H :    0.031171
  31 H :    0.020046
  32 H :    0.036182
  33 H :    0.044190

  Mayer bond orders larger than 0.100000
B(  0-S ,  1-C ) :   1.1400 B(  0-S ,  4-C ) :   1.1351 B(  1-C ,  2-C ) :   1.6125
B(  1-C , 32-H ) :   0.9633 B(  2-C ,  3-C ) :   1.2531 B(  2-C ,  6-C ) :   1.0025
B(  3-C ,  4-C ) :   1.6025 B(  3-C ,  5-H ) :   0.9889 B(  4-C , 20-C ) :   1.0128
B(  6-C ,  7-H ) :   0.9444 B(  6-C ,  8-H ) :   0.9420 B(  6-C ,  9-C ) :   1.0747
B(  9-C , 10-H ) :   0.9554 B(  9-C , 11-H ) :   0.9511 B(  9-C , 12-C ) :   1.0803
B( 12-C , 13-H ) :   0.9716 B( 12-C , 14-H ) :   0.9683 B( 12-C , 15-H ) :   0.9719
B( 16-S , 17-C ) :   1.1291 B( 16-S , 20-C ) :   1.1272 B( 17-C , 18-C ) :   1.6859
B( 17-C , 33-H ) :   0.9525 B( 18-C , 19-C ) :   1.1941 B( 18-C , 21-H ) :   0.9766
B( 19-C , 20-C ) :   1.6299 B( 19-C , 22-C ) :   1.0505 B( 22-C , 23-H ) :   0.9220
B( 22-C , 24-H ) :   0.9297 B( 22-C , 25-C ) :   1.0740 B( 25-C , 26-H ) :   0.9549
B( 25-C , 27-H ) :   0.9507 B( 25-C , 28-C ) :   1.0865 B( 28-C , 29-H ) :   0.9741
B( 28-C , 30-H ) :   0.9739 B( 28-C , 31-H ) :   0.9754

Dispersion correction           -0.014240753
FINAL SINGLE POINT ENERGY     -1339.870702987740

DIPOLE MOMENT
-------------
                                X             Y             Z
Electronic contribution:      6.92845      14.61601       8.68618
Nuclear contribution   :     -7.25251     -14.85326      -8.86888
                        -----------------------------------------
Total Dipole Moment    :     -0.32406      -0.23725      -0.18270
                        -----------------------------------------
Magnitude (a.u.)       :      0.44123
Magnitude (Debye)      :      1.12152

Rotational constants in cm-1:     0.020582     0.007775     0.006627
Rotational constants in MHz :   617.045548   233.097043   198.662544

                             ****ORCA TERMINATED NORMALLY****
TOTAL RUN TIME: 0 days 0 hours 0 minutes 21 seconds 250 msec
