                         Program Version 4.2.1 -  RELEASE  -
|  1> ! wB97X-D3 SP def2-SVP
|  2> %pal
|  3> nprocs 24
|  4> end
|  5>
|  6> * xyz 0 1
|  7> S 	 26.8449 	 -23.5215 	 -121.839
|  8> C 	 28.2404 	 -23.0597 	 -122.656
|  9> C 	 27.9152 	 -22.3945 	 -123.828
| 10> C 	 26.5012 	 -22.2958 	 -124.043
| 11> C 	 25.7962 	 -22.8245 	 -123.014
| 12> H 	 25.9855 	 -21.9025 	 -124.885
| 13> C 	 28.9021 	 -21.8734 	 -124.821
| 14> H 	 29.8942 	 -21.8962 	 -124.481
| 15> H 	 28.7266 	 -20.8354 	 -124.926
| 16> C 	 28.9052 	 -22.6779 	 -126.18
| 17> H 	 27.8355 	 -22.8394 	 -126.396
| 18> H 	 29.3897 	 -22.1604 	 -126.995
| 19> C 	 29.4568 	 -24.0973 	 -126.085
| 20> H 	 28.8954 	 -24.6657 	 -125.351
| 21> H 	 29.2822 	 -24.6956 	 -126.978
| 22> H 	 30.5012 	 -24.071 	 -125.782
| 23> S 	 23.7631 	 -24.6682 	 -123.453
| 24> C 	 22.0792 	 -24.1499 	 -123.153
| 25> C 	 22.0336 	 -22.7703 	 -123.08
| 26> C 	 23.3147 	 -22.1748 	 -122.917
| 27> C 	 24.3541 	 -23.0518 	 -122.943
| 28> H 	 21.0975 	 -22.2068 	 -123.043
| 29> C 	 23.34 	 -20.6694 	 -122.753
| 30> H 	 22.4295 	 -20.3565 	 -123.256
| 31> H 	 24.1752 	 -20.2619 	 -123.353
| 32> C 	 23.4997 	 -20.2002 	 -121.318
| 33> H 	 22.6425 	 -20.185 	 -120.649
| 34> H 	 23.7286 	 -19.1766 	 -121.496
| 35> C 	 24.5832 	 -20.8019 	 -120.53
| 36> H 	 24.3027 	 -21.6859 	 -119.942
| 37> H 	 25.0085 	 -20.1284 	 -119.821
| 38> H 	 25.4656 	 -20.9677 	 -121.105
| 39> H 	 29.1913 	 -23.1728 	 -122.167
| 40> H 	 21.1855 	 -24.6867 	 -123.361
| 41> *
| 42>
| 43>                          ****END OF INPUT****

CARTESIAN COORDINATES (ANGSTROEM)
---------------------------------
  S     26.844900  -23.521500  -121.839000
  C     28.240400  -23.059700  -122.656000
  C     27.915200  -22.394500  -123.828000
  C     26.501200  -22.295800  -124.043000
  C     25.796200  -22.824500  -123.014000
  H     25.985500  -21.902500  -124.885000
  C     28.902100  -21.873400  -124.821000
  H     29.894200  -21.896200  -124.481000
  H     28.726600  -20.835400  -124.926000
  C     28.905200  -22.677900  -126.180000
  H     27.835500  -22.839400  -126.396000
  H     29.389700  -22.160400  -126.995000
  C     29.456800  -24.097300  -126.085000
  H     28.895400  -24.665700  -125.351000
  H     29.282200  -24.695600  -126.978000
  H     30.501200  -24.071000  -125.782000
  S     23.763100  -24.668200  -123.453000
  C     22.079200  -24.149900  -123.153000
  C     22.033600  -22.770300  -123.080000
  C     23.314700  -22.174800  -122.917000
  C     24.354100  -23.051800  -122.943000
  H     21.097500  -22.206800  -123.043000
  C     23.340000  -20.669400  -122.753000
  H     22.429500  -20.356500  -123.256000
  H     24.175200  -20.261900  -123.353000
  C     23.499700  -20.200200  -121.318000
  H     22.642500  -20.185000  -120.649000
  H     23.728600  -19.176600  -121.496000
  C     24.583200  -20.801900  -120.530000
  H     24.302700  -21.685900  -119.942000
  H     25.008500  -20.128400  -119.821000
  H     25.465600  -20.967700  -121.105000
  H     29.191300  -23.172800  -122.167000
  H     21.185500  -24.686700  -123.361000

 Total Charge           Charge          ....    0
 Multiplicity           Mult            ....    1
 Number of Electrons    NEL             ....  134
 Basis Dimension        Dim             ....  322

ORBITAL ENERGIES
----------------

  NO   OCC          E(Eh)            E(eV)
   0   2.0000     -88.962391     -2420.7897
   1   2.0000     -88.961359     -2420.7616
   2   2.0000     -10.323477      -280.9161
   3   2.0000     -10.322297      -280.8840
   4   2.0000     -10.316462      -280.7252
   5   2.0000     -10.309637      -280.5395
   6   2.0000     -10.300556      -280.2924
   7   2.0000     -10.295280      -280.1488
   8   2.0000     -10.291523      -280.0466
   9   2.0000     -10.291166      -280.0369
  10   2.0000     -10.290637      -280.0225
  11   2.0000     -10.286053      -279.8977
  12   2.0000     -10.283342      -279.8240
  13   2.0000     -10.274727      -279.5895
  14   2.0000     -10.271294      -279.4961
  15   2.0000     -10.259744      -279.1818
  16   2.0000      -8.077988      -219.8132
  17   2.0000      -8.075940      -219.7575
  18   2.0000      -6.036242      -164.2545
  19   2.0000      -6.034678      -164.2119
  20   2.0000      -6.032047      -164.1403
  21   2.0000      -6.030821      -164.1070
  22   2.0000      -6.029070      -164.0593
  23   2.0000      -6.026314      -163.9843
  24   2.0000      -1.013752       -27.5856
  25   2.0000      -0.985361       -26.8130
  26   2.0000      -0.913802       -24.8658
  27   2.0000      -0.909969       -24.7615
  28   2.0000      -0.871408       -23.7122
  29   2.0000      -0.851709       -23.1762
  30   2.0000      -0.847742       -23.0682
  31   2.0000      -0.816403       -22.2154
  32   2.0000      -0.785685       -21.3796
  33   2.0000      -0.773680       -21.0529
  34   2.0000      -0.707296       -19.2465
  35   2.0000      -0.696151       -18.9432
  36   2.0000      -0.688545       -18.7363
  37   2.0000      -0.662278       -18.0215
  38   2.0000      -0.655508       -17.8373
  39   2.0000      -0.624073       -16.9819
  40   2.0000      -0.594128       -16.1670
  41   2.0000      -0.567601       -15.4452
  42   2.0000      -0.555736       -15.1224
  43   2.0000      -0.551438       -15.0054
  44   2.0000      -0.546587       -14.8734
  45   2.0000      -0.540953       -14.7201
  46   2.0000      -0.519984       -14.1495
  47   2.0000      -0.511993       -13.9321
  48   2.0000      -0.506710       -13.7883
  49   2.0000      -0.497926       -13.5493
  50   2.0000      -0.486079       -13.2269
  51   2.0000      -0.474965       -12.9245
  52   2.0000      -0.472784       -12.8651
  53   2.0000      -0.461792       -12.5660
  54   2.0000      -0.459709       -12.5093
  55   2.0000      -0.453957       -12.3528
  56   2.0000      -0.444329       -12.0908
  57   2.0000      -0.440897       -11.9974
  58   2.0000      -0.427569       -11.6348
  59   2.0000      -0.420719       -11.4484
  60   2.0000      -0.419481       -11.4147
  61   2.0000      -0.408893       -11.1266
  62   2.0000      -0.400479       -10.8976
  63   2.0000      -0.343185        -9.3385
  64   2.0000      -0.326573        -8.8865
  65   2.0000      -0.322598        -8.7783
  66   2.0000      -0.306013        -8.3270
  67   0.0000       0.039260         1.0683
  68   0.0000       0.059947         1.6312
  69   0.0000       0.103472         2.8156
  70   0.0000       0.122646         3.3374
  71   0.0000       0.137264         3.7351

MULLIKEN ATOMIC CHARGES
-----------------------
   0 S :    0.121760
   1 C :   -0.112315
   2 C :   -0.116653
   3 C :    0.059756
   4 C :   -0.210429
   5 H :    0.008298
   6 C :    0.127694
   7 H :   -0.007216
   8 H :    0.020784
   9 C :   -0.084953
  10 H :    0.025471
  11 H :    0.033704
  12 C :   -0.053404
  13 H :    0.029699
  14 H :    0.036204
  15 H :    0.028408
  16 S :    0.093447
  17 C :   -0.063419
  18 C :   -0.057298
  19 C :   -0.045212
  20 C :   -0.143568
  21 H :    0.026473
  22 C :    0.087150
  23 H :    0.016077
  24 H :    0.023558
  25 C :   -0.023172
  26 H :    0.024770
  27 H :    0.013768
  28 C :   -0.028302
  29 H :    0.043634
  30 H :    0.011572
  31 H :    0.013587
  32 H :    0.051545
  33 H :    0.048582
Sum of atomic charges:    0.0000000

LOEWDIN ATOMIC CHARGES
----------------------
   0 S :    0.451321
   1 C :   -0.212421
   2 C :   -0.064522
   3 C :   -0.054673
   4 C :   -0.207703
   5 H :    0.030455
   6 C :   -0.027496
   7 H :    0.019260
   8 H :    0.028179
   9 C :   -0.036191
  10 H :    0.024106
  11 H :    0.021017
  12 C :   -0.067520
  13 H :    0.025637
  14 H :    0.028997
  15 H :    0.021025
  16 S :    0.370902
  17 C :   -0.167952
  18 C :   -0.070959
  19 C :   -0.058310
  20 C :   -0.190223
  21 H :    0.032949
  22 C :   -0.026648
  23 H :    0.030792
  24 H :    0.032294
  25 C :   -0.041877
  26 H :    0.026036
  27 H :    0.024003
  28 C :   -0.069177
  29 H :    0.030205
  30 H :    0.026642
  31 H :    0.019094
  32 H :    0.027585
  33 H :    0.025174

  Mayer bond orders larger than 0.100000
B(  0-S ,  1-C ) :   1.1678 B(  0-S ,  4-C ) :   1.1780 B(  1-C ,  2-C ) :   1.5727
B(  1-C , 32-H ) :   0.9762 B(  2-C ,  3-C ) :   1.2337 B(  2-C ,  6-C ) :   1.0383
B(  3-C ,  4-C ) :   1.5845 B(  3-C ,  5-H ) :   1.0015 B(  4-C , 20-C ) :   0.9959
B(  6-C ,  7-H ) :   0.9393 B(  6-C ,  8-H ) :   0.9335 B(  6-C ,  9-C ) :   1.0514
B(  9-C , 10-H ) :   0.9619 B(  9-C , 11-H ) :   0.9600 B(  9-C , 12-C ) :   1.0777
B( 12-C , 13-H ) :   0.9740 B( 12-C , 14-H ) :   0.9719 B( 12-C , 15-H ) :   0.9754
B( 16-S , 17-C ) :   1.1390 B( 16-S , 20-C ) :   1.1233 B( 17-C , 18-C ) :   1.6321
B( 17-C , 33-H ) :   0.9659 B( 18-C , 19-C ) :   1.2381 B( 18-C , 21-H ) :   0.9812
B( 19-C , 20-C ) :   1.6326 B( 19-C , 22-C ) :   1.0365 B( 22-C , 23-H ) :   0.9321
B( 22-C , 24-H ) :   0.9291 B( 22-C , 25-C ) :   1.0749 B( 25-C , 26-H ) :   0.9528
B( 25-C , 27-H ) :   0.9484 B( 25-C , 28-C ) :   1.1047 B( 28-C , 29-H ) :   0.9696
B( 28-C , 30-H ) :   0.9594 B( 28-C , 31-H ) :   0.9641

Dispersion correction           -0.015750600
FINAL SINGLE POINT ENERGY     -1339.871393643602

DIPOLE MOMENT
-------------
                                X             Y             Z
Electronic contribution:     -8.62453     -12.72200       5.67932
Nuclear contribution   :      8.65086      13.30958      -5.94388
                        -----------------------------------------
Total Dipole Moment    :      0.02633       0.58758      -0.26455
                        -----------------------------------------
Magnitude (a.u.)       :      0.64493
Magnitude (Debye)      :      1.63928

Rotational constants in cm-1:     0.021440     0.008863     0.007781
Rotational constants in MHz :   642.764437   265.704835   233.266965

                             ****ORCA TERMINATED NORMALLY****
TOTAL RUN TIME: 0 days 0 hours 0 minutes 21 seconds 582 msec
