                         Program Version 4.2.1 -  RELEASE  -
|  1> ! wB97X-D3 SP def2-SVP
|  2> %pal
|  3> nprocs 24
|  4> end
|  5>
|  6> * xyz 0 1
|  7> S 	 -52.8061 	 11.0556 	 22.075
|  8> C 	 -53.6124 	 10.5079 	 20.5974
|  9> C 	 -54.8679 	 10.0062 	 20.9565
| 10> C 	 -55.1584 	 10.2105 	 22.3694
| 11> C 	 -54.1587 	 10.8276 	 23.1153
| 12> H 	 -56.1236 	 9.93297 	 22.8799
| 13> C 	 -56.0049 	 9.44223 	 20.1049
| 14> H 	 -56.6611 	 8.97643 	 20.7501
| 15> H 	 -55.5156 	 8.6695 	 19.5351
| 16> C 	 -57.0028 	 10.4076 	 19.3909
| 17> H 	 -57.2717 	 11.2227 	 20.033
| 18> H 	 -56.5237 	 10.9824 	 18.5951
| 19> C 	 -58.2445 	 9.63249 	 18.8314
| 20> H 	 -58.959 	 9.42858 	 19.6378
| 21> H 	 -58.7712 	 10.1936 	 18.1003
| 22> H 	 -57.8783 	 8.70398 	 18.3594
| 23> S 	 -54.9923 	 12.5905 	 25.0985
| 24> C 	 -54.6999 	 12.2267 	 26.7168
| 25> C 	 -54.2288 	 10.9563 	 26.8452
| 26> C 	 -53.9523 	 10.2909 	 25.6054
| 27> C 	 -54.223 	 11.1116 	 24.5214
| 28> H 	 -53.9611 	 10.5544 	 27.8374
| 29> C 	 -53.4506 	 8.87488 	 25.47
| 30> H 	 -53.1314 	 8.59503 	 26.4742
| 31> H 	 -52.6052 	 8.88141 	 24.8143
| 32> C 	 -54.4413 	 7.73593 	 25.1291
| 33> H 	 -53.9241 	 6.82628 	 24.7603
| 34> H 	 -55.063 	 7.96415 	 24.2719
| 35> C 	 -55.4151 	 7.32134 	 26.3359
| 36> H 	 -56.0355 	 8.16294 	 26.6508
| 37> H 	 -54.8443 	 6.93949 	 27.1898
| 38> H 	 -56.1598 	 6.48891 	 26.0732
| 39> H 	 -53.2004 	 10.3972 	 19.5724
| 40> H 	 -54.8576 	 12.9723 	 27.4882
| 41> *
| 42>
| 43>                          ****END OF INPUT****

CARTESIAN COORDINATES (ANGSTROEM)
---------------------------------
  S    -52.806100   11.055600   22.075000
  C    -53.612400   10.507900   20.597400
  C    -54.867900   10.006200   20.956500
  C    -55.158400   10.210500   22.369400
  C    -54.158700   10.827600   23.115300
  H    -56.123600    9.932970   22.879900
  C    -56.004900    9.442230   20.104900
  H    -56.661100    8.976430   20.750100
  H    -55.515600    8.669500   19.535100
  C    -57.002800   10.407600   19.390900
  H    -57.271700   11.222700   20.033000
  H    -56.523700   10.982400   18.595100
  C    -58.244500    9.632490   18.831400
  H    -58.959000    9.428580   19.637800
  H    -58.771200   10.193600   18.100300
  H    -57.878300    8.703980   18.359400
  S    -54.992300   12.590500   25.098500
  C    -54.699900   12.226700   26.716800
  C    -54.228800   10.956300   26.845200
  C    -53.952300   10.290900   25.605400
  C    -54.223000   11.111600   24.521400
  H    -53.961100   10.554400   27.837400
  C    -53.450600    8.874880   25.470000
  H    -53.131400    8.595030   26.474200
  H    -52.605200    8.881410   24.814300
  C    -54.441300    7.735930   25.129100
  H    -53.924100    6.826280   24.760300
  H    -55.063000    7.964150   24.271900
  C    -55.415100    7.321340   26.335900
  H    -56.035500    8.162940   26.650800
  H    -54.844300    6.939490   27.189800
  H    -56.159800    6.488910   26.073200
  H    -53.200400   10.397200   19.572400
  H    -54.857600   12.972300   27.488200

 Total Charge           Charge          ....    0
 Multiplicity           Mult            ....    1
 Number of Electrons    NEL             ....  134
 Basis Dimension        Dim             ....  322

ORBITAL ENERGIES
----------------

  NO   OCC          E(Eh)            E(eV)
   0   2.0000     -88.967582     -2420.9310
   1   2.0000     -88.961751     -2420.7723
   2   2.0000     -10.326264      -280.9919
   3   2.0000     -10.323165      -280.9076
   4   2.0000     -10.323110      -280.9061
   5   2.0000     -10.313491      -280.6443
   6   2.0000     -10.305537      -280.4279
   7   2.0000     -10.303921      -280.3840
   8   2.0000     -10.297412      -280.2068
   9   2.0000     -10.293478      -280.0998
  10   2.0000     -10.290771      -280.0261
  11   2.0000     -10.290092      -280.0076
  12   2.0000     -10.288890      -279.9749
  13   2.0000     -10.287278      -279.9311
  14   2.0000     -10.285648      -279.8867
  15   2.0000     -10.281757      -279.7808
  16   2.0000      -8.081929      -219.9205
  17   2.0000      -8.077938      -219.8119
  18   2.0000      -6.040521      -164.3709
  19   2.0000      -6.036281      -164.2556
  20   2.0000      -6.036261      -164.2550
  21   2.0000      -6.032792      -164.1606
  22   2.0000      -6.032165      -164.1435
  23   2.0000      -6.028879      -164.0541
  24   2.0000      -1.010417       -27.4948
  25   2.0000      -0.986594       -26.8466
  26   2.0000      -0.908965       -24.7342
  27   2.0000      -0.903086       -24.5742
  28   2.0000      -0.870982       -23.7006
  29   2.0000      -0.843690       -22.9580
  30   2.0000      -0.842674       -22.9303
  31   2.0000      -0.809211       -22.0198
  32   2.0000      -0.781610       -21.2687
  33   2.0000      -0.774282       -21.0693
  34   2.0000      -0.709081       -19.2951
  35   2.0000      -0.708905       -19.2903
  36   2.0000      -0.693291       -18.8654
  37   2.0000      -0.659924       -17.9575
  38   2.0000      -0.639086       -17.3904
  39   2.0000      -0.611451       -16.6384
  40   2.0000      -0.593713       -16.1558
  41   2.0000      -0.572188       -15.5700
  42   2.0000      -0.558337       -15.1931
  43   2.0000      -0.551675       -15.0118
  44   2.0000      -0.541530       -14.7358
  45   2.0000      -0.526605       -14.3297
  46   2.0000      -0.511015       -13.9054
  47   2.0000      -0.509488       -13.8639
  48   2.0000      -0.504782       -13.7358
  49   2.0000      -0.498734       -13.5712
  50   2.0000      -0.481998       -13.1158
  51   2.0000      -0.478047       -13.0083
  52   2.0000      -0.474557       -12.9134
  53   2.0000      -0.466871       -12.7042
  54   2.0000      -0.458160       -12.4672
  55   2.0000      -0.444540       -12.0965
  56   2.0000      -0.443836       -12.0774
  57   2.0000      -0.443005       -12.0548
  58   2.0000      -0.432928       -11.7806
  59   2.0000      -0.424594       -11.5538
  60   2.0000      -0.416199       -11.3253
  61   2.0000      -0.414603       -11.2819
  62   2.0000      -0.410817       -11.1789
  63   2.0000      -0.332475        -9.0471
  64   2.0000      -0.325516        -8.8577
  65   2.0000      -0.323409        -8.8004
  66   2.0000      -0.315341        -8.5809
  67   0.0000       0.044947         1.2231
  68   0.0000       0.050546         1.3754
  69   0.0000       0.112120         3.0509
  70   0.0000       0.124500         3.3878
  71   0.0000       0.133066         3.6209

MULLIKEN ATOMIC CHARGES
-----------------------
   0 S :    0.116322
   1 C :   -0.129902
   2 C :   -0.118551
   3 C :    0.016386
   4 C :   -0.170126
   5 H :    0.037330
   6 C :    0.102093
   7 H :   -0.008196
   8 H :    0.027560
   9 C :   -0.051956
  10 H :    0.022984
  11 H :    0.019686
  12 C :   -0.055450
  13 H :    0.041001
  14 H :    0.030187
  15 H :    0.039137
  16 S :    0.114894
  17 C :   -0.091667
  18 C :   -0.038052
  19 C :   -0.038726
  20 C :   -0.191440
  21 H :    0.023733
  22 C :    0.125234
  23 H :    0.004514
  24 H :    0.031833
  25 C :   -0.060447
  26 H :    0.032305
  27 H :    0.022064
  28 C :   -0.105793
  29 H :    0.044362
  30 H :    0.034647
  31 H :    0.043614
  32 H :    0.066104
  33 H :    0.064315
Sum of atomic charges:   -0.0000000

LOEWDIN ATOMIC CHARGES
----------------------
   0 S :    0.419139
   1 C :   -0.203839
   2 C :   -0.064933
   3 C :   -0.067067
   4 C :   -0.218140
   5 H :    0.037217
   6 C :   -0.029399
   7 H :    0.019965
   8 H :    0.030025
   9 C :   -0.035246
  10 H :    0.023392
  11 H :    0.020135
  12 C :   -0.061981
  13 H :    0.027550
  14 H :    0.022522
  15 H :    0.029760
  16 S :    0.429336
  17 C :   -0.199381
  18 C :   -0.082866
  19 C :   -0.048785
  20 C :   -0.204416
  21 H :    0.033803
  22 C :   -0.028179
  23 H :    0.029772
  24 H :    0.032652
  25 C :   -0.038163
  26 H :    0.029363
  27 H :    0.019265
  28 C :   -0.077390
  29 H :    0.024704
  30 H :    0.021557
  31 H :    0.034314
  32 H :    0.042363
  33 H :    0.032950

  Mayer bond orders larger than 0.100000
B(  0-S ,  1-C ) :   1.1412 B(  0-S ,  4-C ) :   1.1542 B(  1-C ,  2-C ) :   1.5903
B(  1-C , 32-H ) :   0.9697 B(  2-C ,  3-C ) :   1.2545 B(  2-C ,  6-C ) :   1.0273
B(  3-C ,  4-C ) :   1.5755 B(  3-C ,  5-H ) :   0.9762 B(  4-C , 20-C ) :   1.0311
B(  6-C ,  7-H ) :   0.9381 B(  6-C ,  8-H ) :   0.9348 B(  6-C ,  9-C ) :   1.0497
B(  9-C , 10-H ) :   0.9555 B(  9-C , 11-H ) :   0.9581 B(  9-C , 12-C ) :   1.0711
B( 12-C , 13-H ) :   0.9767 B( 12-C , 14-H ) :   0.9758 B( 12-C , 15-H ) :   0.9780
B( 16-S , 17-C ) :   1.1835 B( 16-S , 20-C ) :   1.1508 B( 17-C , 18-C ) :   1.5771
B( 17-C , 33-H ) :   0.9686 B( 18-C , 19-C ) :   1.2609 B( 18-C , 21-H ) :   0.9866
B( 19-C , 20-C ) :   1.5859 B( 19-C , 22-C ) :   1.0468 B( 22-C , 23-H ) :   0.9298
B( 22-C , 24-H ) :   0.9253 B( 22-C , 25-C ) :   1.0635 B( 25-C , 26-H ) :   0.9555
B( 25-C , 27-H ) :   0.9568 B( 25-C , 28-C ) :   1.0628 B( 28-C , 29-H ) :   0.9795
B( 28-C , 30-H ) :   0.9769 B( 28-C , 31-H ) :   0.9766

Dispersion correction           -0.014660091
FINAL SINGLE POINT ENERGY     -1339.875454790752

DIPOLE MOMENT
-------------
                                X             Y             Z
Electronic contribution:     14.90346      19.46593       6.59242
Nuclear contribution   :    -15.24100     -19.87974      -6.63301
                        -----------------------------------------
Total Dipole Moment    :     -0.33754      -0.41381      -0.04058
                        -----------------------------------------
Magnitude (a.u.)       :      0.53555
Magnitude (Debye)      :      1.36127

Rotational constants in cm-1:     0.018374     0.007905     0.007220
Rotational constants in MHz :   550.833086   236.984112   216.453941

                             ****ORCA TERMINATED NORMALLY****
TOTAL RUN TIME: 0 days 0 hours 0 minutes 20 seconds 187 msec
