                         Program Version 4.2.1 -  RELEASE  -
|  1> ! wB97X-D3 SP def2-SVP
|  2> %pal
|  3> nprocs 24
|  4> end
|  5>
|  6> * xyz 0 1
|  7> S 	 -102.5 	 19.3527 	 -122.635
|  8> C 	 -103.083 	 20.2146 	 -121.201
|  9> C 	 -103.445 	 19.3318 	 -120.164
| 10> C 	 -103.255 	 17.9613 	 -120.555
| 11> C 	 -102.715 	 17.8147 	 -121.826
| 12> H 	 -103.365 	 17.1283 	 -119.871
| 13> C 	 -103.964 	 19.6697 	 -118.801
| 14> H 	 -104.983 	 19.2547 	 -118.606
| 15> H 	 -104.024 	 20.7055 	 -118.701
| 16> C 	 -102.991 	 19.1577 	 -117.682
| 17> H 	 -103.053 	 18.048 	 -117.751
| 18> H 	 -101.974 	 19.3767 	 -117.932
| 19> C 	 -103.345 	 19.5173 	 -116.202
| 20> H 	 -104.272 	 19.0637 	 -115.88
| 21> H 	 -102.631 	 19.1275 	 -115.535
| 22> H 	 -103.438 	 20.6013 	 -116.045
| 23> S 	 -100.391 	 16.4805 	 -122.299
| 24> C 	 -100.445 	 14.7684 	 -122.725
| 25> C 	 -101.767 	 14.3564 	 -122.968
| 26> C 	 -102.754 	 15.3954 	 -122.681
| 27> C 	 -102.121 	 16.58 	 -122.386
| 28> H 	 -102 	 13.3257 	 -123.047
| 29> C 	 -104.236 	 15.1257 	 -122.601
| 30> H 	 -104.497 	 14.6698 	 -123.567
| 31> H 	 -104.713 	 16.0741 	 -122.456
| 32> C 	 -104.665 	 14.2305 	 -121.452
| 33> H 	 -104.313 	 14.633 	 -120.475
| 34> H 	 -104.116 	 13.2416 	 -121.539
| 35> C 	 -106.225 	 14.0531 	 -121.397
| 36> H 	 -106.557 	 13.6493 	 -122.322
| 37> H 	 -106.769 	 14.9836 	 -121.084
| 38> H 	 -106.575 	 13.3702 	 -120.657
| 39> H 	 -103.122 	 21.2836 	 -121.085
| 40> H 	 -99.5976 	 14.1156 	 -122.623
| 41> *
| 42>
| 43>                          ****END OF INPUT****

CARTESIAN COORDINATES (ANGSTROEM)
---------------------------------
  S    -102.500000   19.352700  -122.635000
  C    -103.083000   20.214600  -121.201000
  C    -103.445000   19.331800  -120.164000
  C    -103.255000   17.961300  -120.555000
  C    -102.715000   17.814700  -121.826000
  H    -103.365000   17.128300  -119.871000
  C    -103.964000   19.669700  -118.801000
  H    -104.983000   19.254700  -118.606000
  H    -104.024000   20.705500  -118.701000
  C    -102.991000   19.157700  -117.682000
  H    -103.053000   18.048000  -117.751000
  H    -101.974000   19.376700  -117.932000
  C    -103.345000   19.517300  -116.202000
  H    -104.272000   19.063700  -115.880000
  H    -102.631000   19.127500  -115.535000
  H    -103.438000   20.601300  -116.045000
  S    -100.391000   16.480500  -122.299000
  C    -100.445000   14.768400  -122.725000
  C    -101.767000   14.356400  -122.968000
  C    -102.754000   15.395400  -122.681000
  C    -102.121000   16.580000  -122.386000
  H    -102.000000   13.325700  -123.047000
  C    -104.236000   15.125700  -122.601000
  H    -104.497000   14.669800  -123.567000
  H    -104.713000   16.074100  -122.456000
  C    -104.665000   14.230500  -121.452000
  H    -104.313000   14.633000  -120.475000
  H    -104.116000   13.241600  -121.539000
  C    -106.225000   14.053100  -121.397000
  H    -106.557000   13.649300  -122.322000
  H    -106.769000   14.983600  -121.084000
  H    -106.575000   13.370200  -120.657000
  H    -103.122000   21.283600  -121.085000
  H    -99.597600   14.115600  -122.623000

 Total Charge           Charge          ....    0
 Multiplicity           Mult            ....    1
 Number of Electrons    NEL             ....  134
 Basis Dimension        Dim             ....  322

ORBITAL ENERGIES
----------------

  NO   OCC          E(Eh)            E(eV)
   0   2.0000     -88.968172     -2420.9471
   1   2.0000     -88.965085     -2420.8630
   2   2.0000     -10.329429      -281.0780
   3   2.0000     -10.322304      -280.8842
   4   2.0000     -10.321332      -280.8577
   5   2.0000     -10.317604      -280.7563
   6   2.0000     -10.303690      -280.3777
   7   2.0000     -10.303190      -280.3641
   8   2.0000     -10.296712      -280.1878
   9   2.0000     -10.296672      -280.1867
  10   2.0000     -10.294608      -280.1305
  11   2.0000     -10.292334      -280.0686
  12   2.0000     -10.290712      -280.0245
  13   2.0000     -10.289203      -279.9834
  14   2.0000     -10.280085      -279.7353
  15   2.0000     -10.278462      -279.6912
  16   2.0000      -8.082331      -219.9314
  17   2.0000      -8.079948      -219.8666
  18   2.0000      -6.040886      -164.3809
  19   2.0000      -6.038480      -164.3154
  20   2.0000      -6.036882      -164.2719
  21   2.0000      -6.034473      -164.2064
  22   2.0000      -6.033126      -164.1697
  23   2.0000      -6.030633      -164.1019
  24   2.0000      -1.002687       -27.2845
  25   2.0000      -0.978148       -26.6168
  26   2.0000      -0.909368       -24.7452
  27   2.0000      -0.907668       -24.6989
  28   2.0000      -0.862527       -23.4705
  29   2.0000      -0.848120       -23.0785
  30   2.0000      -0.844789       -22.9879
  31   2.0000      -0.812006       -22.0958
  32   2.0000      -0.784285       -21.3415
  33   2.0000      -0.772746       -21.0275
  34   2.0000      -0.707107       -19.2414
  35   2.0000      -0.699878       -19.0447
  36   2.0000      -0.691339       -18.8123
  37   2.0000      -0.662838       -18.0367
  38   2.0000      -0.640766       -17.4361
  39   2.0000      -0.620688       -16.8898
  40   2.0000      -0.595455       -16.2032
  41   2.0000      -0.569265       -15.4905
  42   2.0000      -0.566593       -15.4178
  43   2.0000      -0.554398       -15.0859
  44   2.0000      -0.525502       -14.2996
  45   2.0000      -0.518053       -14.0969
  46   2.0000      -0.516464       -14.0537
  47   2.0000      -0.510440       -13.8898
  48   2.0000      -0.505847       -13.7648
  49   2.0000      -0.502157       -13.6644
  50   2.0000      -0.489234       -13.3127
  51   2.0000      -0.477107       -12.9827
  52   2.0000      -0.471268       -12.8238
  53   2.0000      -0.462732       -12.5916
  54   2.0000      -0.458510       -12.4767
  55   2.0000      -0.453390       -12.3374
  56   2.0000      -0.444465       -12.0945
  57   2.0000      -0.438388       -11.9291
  58   2.0000      -0.435826       -11.8594
  59   2.0000      -0.428337       -11.6556
  60   2.0000      -0.424618       -11.5544
  61   2.0000      -0.418689       -11.3931
  62   2.0000      -0.416522       -11.3341
  63   2.0000      -0.340530        -9.2663
  64   2.0000      -0.326511        -8.8848
  65   2.0000      -0.325215        -8.8496
  66   2.0000      -0.300917        -8.1884
  67   0.0000       0.041464         1.1283
  68   0.0000       0.057137         1.5548
  69   0.0000       0.115997         3.1564
  70   0.0000       0.118643         3.2284
  71   0.0000       0.121635         3.3099

MULLIKEN ATOMIC CHARGES
-----------------------
   0 S :    0.114673
   1 C :   -0.112970
   2 C :   -0.107793
   3 C :    0.043206
   4 C :   -0.182177
   5 H :    0.015974
   6 C :    0.111470
   7 H :    0.041933
   8 H :   -0.004389
   9 C :   -0.126251
  10 H :    0.027679
  11 H :    0.033803
  12 C :   -0.015422
  13 H :    0.021354
  14 H :    0.027870
  15 H :    0.033675
  16 S :    0.115895
  17 C :   -0.105904
  18 C :   -0.010576
  19 C :   -0.054846
  20 C :   -0.151705
  21 H :    0.012225
  22 C :    0.103889
  23 H :    0.033247
  24 H :    0.022844
  25 C :   -0.114391
  26 H :    0.029274
  27 H :    0.031848
  28 C :   -0.025170
  29 H :    0.024759
  30 H :    0.040628
  31 H :    0.022978
  32 H :    0.041345
  33 H :    0.061025
Sum of atomic charges:   -0.0000000

LOEWDIN ATOMIC CHARGES
----------------------
   0 S :    0.401488
   1 C :   -0.193548
   2 C :   -0.058835
   3 C :   -0.059770
   4 C :   -0.196324
   5 H :    0.029178
   6 C :   -0.028146
   7 H :    0.038240
   8 H :    0.016991
   9 C :   -0.037316
  10 H :    0.023497
  11 H :    0.021394
  12 C :   -0.062363
  13 H :    0.023848
  14 H :    0.023009
  15 H :    0.025780
  16 S :    0.408944
  17 C :   -0.176824
  18 C :   -0.065247
  19 C :   -0.050270
  20 C :   -0.212133
  21 H :    0.022991
  22 C :   -0.030357
  23 H :    0.035793
  24 H :    0.029254
  25 C :   -0.041662
  26 H :    0.023277
  27 H :    0.025824
  28 C :   -0.065090
  29 H :    0.020276
  30 H :    0.033779
  31 H :    0.022584
  32 H :    0.024770
  33 H :    0.026971

  Mayer bond orders larger than 0.100000
B(  0-S ,  1-C ) :   1.1325 B(  0-S ,  4-C ) :   1.1581 B(  1-C ,  2-C ) :   1.6156
B(  1-C , 32-H ) :   0.9671 B(  2-C ,  3-C ) :   1.2325 B(  2-C ,  6-C ) :   1.0446
B(  3-C ,  4-C ) :   1.5855 B(  3-C ,  5-H ) :   0.9889 B(  4-C , 20-C ) :   0.9877
B(  6-C ,  7-H ) :   0.9377 B(  6-C ,  8-H ) :   0.9345 B(  6-C ,  9-C ) :   1.0462
B(  9-C , 10-H ) :   0.9561 B(  9-C , 11-H ) :   0.9615 B(  9-C , 12-C ) :   1.0827
B( 12-C , 13-H ) :   0.9730 B( 12-C , 14-H ) :   0.9737 B( 12-C , 15-H ) :   0.9770
B( 16-S , 17-C ) :   1.1541 B( 16-S , 20-C ) :   1.1452 B( 17-C , 18-C ) :   1.6192
B( 17-C , 33-H ) :   0.9704 B( 18-C , 19-C ) :   1.2153 B( 18-C , 21-H ) :   0.9876
B( 19-C , 20-C ) :   1.6348 B( 19-C , 22-C ) :   1.0544 B( 22-C , 23-H ) :   0.9276
B( 22-C , 24-H ) :   0.9263 B( 22-C , 25-C ) :   1.0647 B( 25-C , 26-H ) :   0.9539
B( 25-C , 27-H ) :   0.9545 B( 25-C , 28-C ) :   1.0778 B( 28-C , 29-H ) :   0.9751
B( 28-C , 30-H ) :   0.9744 B( 28-C , 31-H ) :   0.9744

Dispersion correction           -0.014188202
FINAL SINGLE POINT ENERGY     -1339.887558569647

DIPOLE MOMENT
-------------
                                X             Y             Z
Electronic contribution:     17.95575       6.70971     -21.01686
Nuclear contribution   :    -18.28473      -7.05944      21.69456
                        -----------------------------------------
Total Dipole Moment    :     -0.32899      -0.34973       0.67770
                        -----------------------------------------
Magnitude (a.u.)       :      0.83056
Magnitude (Debye)      :      2.11110

Rotational constants in cm-1:     0.015809     0.008768     0.007216
Rotational constants in MHz :   473.932766   262.851680   216.337211

                             ****ORCA TERMINATED NORMALLY****
TOTAL RUN TIME: 0 days 0 hours 0 minutes 21 seconds 363 msec
