                         Program Version 4.2.1 -  RELEASE  -
|  1> ! wB97X-D3 SP def2-SVP
|  2> %pal
|  3> nprocs 24
|  4> end
|  5>
|  6> * xyz 0 1
|  7> S 	 -87.4161 	 -3.82517 	 -118.551
|  8> C 	 -86.9906 	 -5.45255 	 -118.602
|  9> C 	 -88.07 	 -6.31823 	 -118.581
| 10> C 	 -89.2968 	 -5.62528 	 -118.489
| 11> C 	 -89.1589 	 -4.30141 	 -118.375
| 12> H 	 -90.2333 	 -6.18408 	 -118.425
| 13> C 	 -88.0123 	 -7.81443 	 -118.378
| 14> H 	 -87.2035 	 -8.2222 	 -119.011
| 15> H 	 -88.9125 	 -8.28289 	 -118.682
| 16> C 	 -87.7889 	 -8.1549 	 -116.88
| 17> H 	 -86.8522 	 -7.71253 	 -116.501
| 18> H 	 -88.5446 	 -7.63419 	 -116.42
| 19> C 	 -87.9405 	 -9.67493 	 -116.514
| 20> H 	 -86.9655 	 -10.171 	 -116.423
| 21> H 	 -88.3958 	 -10.0227 	 -115.559
| 22> H 	 -88.5635 	 -10.2316 	 -117.213
| 23> S 	 -89.7876 	 -2.15262 	 -116.86
| 24> C 	 -91.3843 	 -1.61191 	 -116.956
| 25> C 	 -92.2064 	 -2.33699 	 -117.75
| 26> C 	 -91.5549 	 -3.37172 	 -118.393
| 27> C 	 -90.2603 	 -3.4002 	 -118.011
| 28> H 	 -93.2318 	 -2.00835 	 -117.823
| 29> C 	 -92.1873 	 -4.40564 	 -119.311
| 30> H 	 -91.4048 	 -5.00084 	 -119.868
| 31> H 	 -92.7862 	 -3.88845 	 -120.027
| 32> C 	 -93.2194 	 -5.38606 	 -118.64
| 33> H 	 -94.0501 	 -4.8914 	 -118.253
| 34> H 	 -92.9395 	 -6.01658 	 -117.777
| 35> C 	 -93.7911 	 -6.2895 	 -119.68
| 36> H 	 -94.509 	 -6.89652 	 -119.18
| 37> H 	 -92.9233 	 -6.90119 	 -120.069
| 38> H 	 -94.3805 	 -5.79742 	 -120.512
| 39> H 	 -85.9552 	 -5.71969 	 -118.591
| 40> H 	 -91.6519 	 -0.724109 	 -116.39
| 41> *
| 42>
| 43>                          ****END OF INPUT****

CARTESIAN COORDINATES (ANGSTROEM)
---------------------------------
  S    -87.416100   -3.825170  -118.551000
  C    -86.990600   -5.452550  -118.602000
  C    -88.070000   -6.318230  -118.581000
  C    -89.296800   -5.625280  -118.489000
  C    -89.158900   -4.301410  -118.375000
  H    -90.233300   -6.184080  -118.425000
  C    -88.012300   -7.814430  -118.378000
  H    -87.203500   -8.222200  -119.011000
  H    -88.912500   -8.282890  -118.682000
  C    -87.788900   -8.154900  -116.880000
  H    -86.852200   -7.712530  -116.501000
  H    -88.544600   -7.634190  -116.420000
  C    -87.940500   -9.674930  -116.514000
  H    -86.965500  -10.171000  -116.423000
  H    -88.395800  -10.022700  -115.559000
  H    -88.563500  -10.231600  -117.213000
  S    -89.787600   -2.152620  -116.860000
  C    -91.384300   -1.611910  -116.956000
  C    -92.206400   -2.336990  -117.750000
  C    -91.554900   -3.371720  -118.393000
  C    -90.260300   -3.400200  -118.011000
  H    -93.231800   -2.008350  -117.823000
  C    -92.187300   -4.405640  -119.311000
  H    -91.404800   -5.000840  -119.868000
  H    -92.786200   -3.888450  -120.027000
  C    -93.219400   -5.386060  -118.640000
  H    -94.050100   -4.891400  -118.253000
  H    -92.939500   -6.016580  -117.777000
  C    -93.791100   -6.289500  -119.680000
  H    -94.509000   -6.896520  -119.180000
  H    -92.923300   -6.901190  -120.069000
  H    -94.380500   -5.797420  -120.512000
  H    -85.955200   -5.719690  -118.591000
  H    -91.651900   -0.724109  -116.390000

 Total Charge           Charge          ....    0
 Multiplicity           Mult            ....    1
 Number of Electrons    NEL             ....  134
 Basis Dimension        Dim             ....  322

ORBITAL ENERGIES
----------------

  NO   OCC          E(Eh)            E(eV)
   0   2.0000     -88.965871     -2420.8844
   1   2.0000     -88.962617     -2420.7959
   2   2.0000     -10.324515      -280.9443
   3   2.0000     -10.318406      -280.7781
   4   2.0000     -10.306527      -280.4549
   5   2.0000     -10.305962      -280.4395
   6   2.0000     -10.298452      -280.2351
   7   2.0000     -10.295210      -280.1469
   8   2.0000     -10.293888      -280.1109
   9   2.0000     -10.289762      -279.9987
  10   2.0000     -10.285819      -279.8914
  11   2.0000     -10.284838      -279.8647
  12   2.0000     -10.284519      -279.8560
  13   2.0000     -10.283935      -279.8401
  14   2.0000     -10.281745      -279.7805
  15   2.0000     -10.281718      -279.7798
  16   2.0000      -8.080959      -219.8941
  17   2.0000      -8.078996      -219.8406
  18   2.0000      -6.039479      -164.3426
  19   2.0000      -6.037040      -164.2762
  20   2.0000      -6.035519      -164.2348
  21   2.0000      -6.033595      -164.1825
  22   2.0000      -6.031594      -164.1280
  23   2.0000      -6.029816      -164.0796
  24   2.0000      -1.016196       -27.6521
  25   2.0000      -0.994022       -27.0487
  26   2.0000      -0.914714       -24.8906
  27   2.0000      -0.907276       -24.6882
  28   2.0000      -0.873423       -23.7671
  29   2.0000      -0.864348       -23.5201
  30   2.0000      -0.848246       -23.0819
  31   2.0000      -0.813050       -22.1242
  32   2.0000      -0.783546       -21.3214
  33   2.0000      -0.767435       -20.8830
  34   2.0000      -0.707462       -19.2510
  35   2.0000      -0.700571       -19.0635
  36   2.0000      -0.695659       -18.9298
  37   2.0000      -0.667286       -18.1578
  38   2.0000      -0.641306       -17.4508
  39   2.0000      -0.626825       -17.0568
  40   2.0000      -0.604633       -16.4529
  41   2.0000      -0.570574       -15.5261
  42   2.0000      -0.568079       -15.4582
  43   2.0000      -0.551435       -15.0053
  44   2.0000      -0.532021       -14.4770
  45   2.0000      -0.522819       -14.2266
  46   2.0000      -0.516208       -14.0467
  47   2.0000      -0.508965       -13.8496
  48   2.0000      -0.506748       -13.7893
  49   2.0000      -0.495659       -13.4876
  50   2.0000      -0.483675       -13.1615
  51   2.0000      -0.476476       -12.9656
  52   2.0000      -0.475703       -12.9445
  53   2.0000      -0.463530       -12.6133
  54   2.0000      -0.456443       -12.4204
  55   2.0000      -0.452991       -12.3265
  56   2.0000      -0.450436       -12.2570
  57   2.0000      -0.441887       -12.0244
  58   2.0000      -0.433910       -11.8073
  59   2.0000      -0.427887       -11.6434
  60   2.0000      -0.425984       -11.5916
  61   2.0000      -0.420456       -11.4412
  62   2.0000      -0.413663       -11.2564
  63   2.0000      -0.358109        -9.7446
  64   2.0000      -0.338244        -9.2041
  65   2.0000      -0.328301        -8.9335
  66   2.0000      -0.283349        -7.7103
  67   0.0000       0.033825         0.9204
  68   0.0000       0.077870         2.1189
  69   0.0000       0.106083         2.8867
  70   0.0000       0.123793         3.3686
  71   0.0000       0.132192         3.5971

MULLIKEN ATOMIC CHARGES
-----------------------
   0 S :    0.114720
   1 C :   -0.130258
   2 C :   -0.081376
   3 C :   -0.004886
   4 C :   -0.113095
   5 H :    0.014507
   6 C :    0.075958
   7 H :    0.029800
   8 H :    0.005188
   9 C :   -0.021575
  10 H :    0.030501
  11 H :    0.006966
  12 C :   -0.068335
  13 H :    0.033528
  14 H :    0.031222
  15 H :    0.023773
  16 S :    0.112410
  17 C :   -0.091246
  18 C :   -0.040280
  19 C :    0.020300
  20 C :   -0.175621
  21 H :    0.007623
  22 C :    0.062733
  23 H :    0.041235
  24 H :    0.013561
  25 C :   -0.060819
  26 H :    0.004878
  27 H :    0.031994
  28 C :   -0.066302
  29 H :    0.025213
  30 H :    0.036136
  31 H :    0.041501
  32 H :    0.041039
  33 H :    0.049003
Sum of atomic charges:    0.0000000

LOEWDIN ATOMIC CHARGES
----------------------
   0 S :    0.400450
   1 C :   -0.209460
   2 C :   -0.067107
   3 C :   -0.065643
   4 C :   -0.173842
   5 H :    0.035784
   6 C :   -0.024267
   7 H :    0.030327
   8 H :    0.020568
   9 C :   -0.030071
  10 H :    0.027869
  11 H :    0.013886
  12 C :   -0.081203
  13 H :    0.027453
  14 H :    0.030829
  15 H :    0.023192
  16 S :    0.419017
  17 C :   -0.195103
  18 C :   -0.073554
  19 C :   -0.061482
  20 C :   -0.180372
  21 H :    0.032594
  22 C :   -0.022834
  23 H :    0.037083
  24 H :    0.029234
  25 C :   -0.044183
  26 H :    0.014866
  27 H :    0.027596
  28 C :   -0.067076
  29 H :    0.021079
  30 H :    0.028426
  31 H :    0.029839
  32 H :    0.022238
  33 H :    0.023865

  Mayer bond orders larger than 0.100000
B(  0-S ,  1-C ) :   1.1518 B(  0-S ,  4-C ) :   1.1280 B(  1-C ,  2-C ) :   1.5919
B(  1-C , 32-H ) :   0.9715 B(  2-C ,  3-C ) :   1.2522 B(  2-C ,  6-C ) :   1.0474
B(  3-C ,  4-C ) :   1.5791 B(  3-C ,  5-H ) :   0.9926 B(  4-C , 20-C ) :   1.0416
B(  6-C ,  7-H ) :   0.9368 B(  6-C ,  8-H ) :   0.9358 B(  6-C ,  9-C ) :   1.0584
B(  9-C , 10-H ) :   0.9610 B(  9-C , 11-H ) :   0.9575 B(  9-C , 12-C ) :   1.0549
B( 12-C , 13-H ) :   0.9789 B( 12-C , 14-H ) :   0.9785 B( 12-C , 15-H ) :   0.9770
B( 16-S , 17-C ) :   1.1653 B( 16-S , 20-C ) :   1.1425 B( 17-C , 18-C ) :   1.6129
B( 17-C , 33-H ) :   0.9660 B( 18-C , 19-C ) :   1.2167 B( 18-C , 21-H ) :   1.0022
B( 19-C , 20-C ) :   1.6281 B( 19-C , 22-C ) :   1.0411 B( 22-C , 23-H ) :   0.9378
B( 22-C , 24-H ) :   0.9220 B( 22-C , 25-C ) :   1.0573 B( 25-C , 26-H ) :   0.9462
B( 25-C , 27-H ) :   0.9528 B( 25-C , 28-C ) :   1.0952 B( 28-C , 29-H ) :   0.9720
B( 28-C , 30-H ) :   0.9739 B( 28-C , 31-H ) :   0.9723

Dispersion correction           -0.013966546
FINAL SINGLE POINT ENERGY     -1339.867535359857

DIPOLE MOMENT
-------------
                                X             Y             Z
Electronic contribution:     12.38860      27.91215       1.69964
Nuclear contribution   :    -12.87497     -28.33522      -1.59074
                        -----------------------------------------
Total Dipole Moment    :     -0.48637      -0.42307       0.10890
                        -----------------------------------------
Magnitude (a.u.)       :      0.65376
Magnitude (Debye)      :      1.66173

Rotational constants in cm-1:     0.016087     0.009485     0.006905
Rotational constants in MHz :   482.275497   284.359087   207.010372

                             ****ORCA TERMINATED NORMALLY****
TOTAL RUN TIME: 0 days 0 hours 0 minutes 21 seconds 626 msec
