                         Program Version 4.2.1 -  RELEASE  -
|  1> ! wB97X-D3 SP def2-SVP
|  2> %pal
|  3> nprocs 24
|  4> end
|  5>
|  6> * xyz 0 1
|  7> S 	 -132.899 	 68.9369 	 -60.6065
|  8> C 	 -132.272 	 67.2584 	 -60.7928
|  9> C 	 -133.392 	 66.4606 	 -60.9042
| 10> C 	 -134.618 	 67.0928 	 -60.9083
| 11> C 	 -134.516 	 68.4558 	 -60.8893
| 12> H 	 -135.592 	 66.6895 	 -60.8839
| 13> C 	 -133.248 	 64.8963 	 -60.9409
| 14> H 	 -132.174 	 64.6646 	 -60.8619
| 15> H 	 -133.538 	 64.5627 	 -61.9713
| 16> C 	 -134.056 	 64.0621 	 -59.875
| 17> H 	 -135.161 	 64.2304 	 -60.0413
| 18> H 	 -133.905 	 62.9719 	 -59.9812
| 19> C 	 -133.723 	 64.4697 	 -58.4322
| 20> H 	 -132.599 	 64.5575 	 -58.2935
| 21> H 	 -134.098 	 65.463 	 -58.32
| 22> H 	 -134.077 	 63.7189 	 -57.7512
| 23> S 	 -135.572 	 70.8107 	 -59.7447
| 24> C 	 -137.248 	 71.1914 	 -60.2717
| 25> C 	 -137.694 	 70.3778 	 -61.2471
| 26> C 	 -136.775 	 69.3426 	 -61.6098
| 27> C 	 -135.614 	 69.3987 	 -60.8421
| 28> H 	 -138.632 	 70.6252 	 -61.6386
| 29> C 	 -137.015 	 68.4375 	 -62.7711
| 30> H 	 -138.086 	 68.1898 	 -62.8041
| 31> H 	 -136.621 	 67.4297 	 -62.6917
| 32> C 	 -136.475 	 68.9714 	 -64.1241
| 33> H 	 -135.439 	 69.2452 	 -64.1002
| 34> H 	 -137.058 	 69.8913 	 -64.3254
| 35> C 	 -136.683 	 68.0745 	 -65.2959
| 36> H 	 -137.8 	 68.1568 	 -65.4958
| 37> H 	 -136.326 	 67.056 	 -65.0112
| 38> H 	 -136.274 	 68.4503 	 -66.2116
| 39> H 	 -131.254 	 66.9703 	 -60.6792
| 40> H 	 -137.881 	 72.0584 	 -59.9382
| 41> *
| 42>
| 43>                          ****END OF INPUT****

CARTESIAN COORDINATES (ANGSTROEM)
---------------------------------
  S    -132.899000   68.936900  -60.606500
  C    -132.272000   67.258400  -60.792800
  C    -133.392000   66.460600  -60.904200
  C    -134.618000   67.092800  -60.908300
  C    -134.516000   68.455800  -60.889300
  H    -135.592000   66.689500  -60.883900
  C    -133.248000   64.896300  -60.940900
  H    -132.174000   64.664600  -60.861900
  H    -133.538000   64.562700  -61.971300
  C    -134.056000   64.062100  -59.875000
  H    -135.161000   64.230400  -60.041300
  H    -133.905000   62.971900  -59.981200
  C    -133.723000   64.469700  -58.432200
  H    -132.599000   64.557500  -58.293500
  H    -134.098000   65.463000  -58.320000
  H    -134.077000   63.718900  -57.751200
  S    -135.572000   70.810700  -59.744700
  C    -137.248000   71.191400  -60.271700
  C    -137.694000   70.377800  -61.247100
  C    -136.775000   69.342600  -61.609800
  C    -135.614000   69.398700  -60.842100
  H    -138.632000   70.625200  -61.638600
  C    -137.015000   68.437500  -62.771100
  H    -138.086000   68.189800  -62.804100
  H    -136.621000   67.429700  -62.691700
  C    -136.475000   68.971400  -64.124100
  H    -135.439000   69.245200  -64.100200
  H    -137.058000   69.891300  -64.325400
  C    -136.683000   68.074500  -65.295900
  H    -137.800000   68.156800  -65.495800
  H    -136.326000   67.056000  -65.011200
  H    -136.274000   68.450300  -66.211600
  H    -131.254000   66.970300  -60.679200
  H    -137.881000   72.058400  -59.938200

 Total Charge           Charge          ....    0
 Multiplicity           Mult            ....    1
 Number of Electrons    NEL             ....  134
 Basis Dimension        Dim             ....  322

ORBITAL ENERGIES
----------------

  NO   OCC          E(Eh)            E(eV)
   0   2.0000     -88.970194     -2421.0021
   1   2.0000     -88.964224     -2420.8396
   2   2.0000     -10.331153      -281.1250
   3   2.0000     -10.326401      -280.9956
   4   2.0000     -10.321610      -280.8653
   5   2.0000     -10.316352      -280.7222
   6   2.0000     -10.306318      -280.4492
   7   2.0000     -10.302756      -280.3522
   8   2.0000     -10.299998      -280.2772
   9   2.0000     -10.294313      -280.1225
  10   2.0000     -10.292165      -280.0641
  11   2.0000     -10.289871      -280.0016
  12   2.0000     -10.284891      -279.8661
  13   2.0000     -10.280705      -279.7522
  14   2.0000     -10.279869      -279.7295
  15   2.0000     -10.274346      -279.5792
  16   2.0000      -8.083504      -219.9633
  17   2.0000      -8.079111      -219.8438
  18   2.0000      -6.042180      -164.4161
  19   2.0000      -6.038440      -164.3143
  20   2.0000      -6.037578      -164.2908
  21   2.0000      -6.033944      -164.1920
  22   2.0000      -6.033601      -164.1826
  23   2.0000      -6.029907      -164.0821
  24   2.0000      -1.011330       -27.5197
  25   2.0000      -0.984344       -26.7854
  26   2.0000      -0.911709       -24.8089
  27   2.0000      -0.902875       -24.5685
  28   2.0000      -0.871730       -23.7210
  29   2.0000      -0.856561       -23.3082
  30   2.0000      -0.843727       -22.9590
  31   2.0000      -0.820565       -22.3287
  32   2.0000      -0.782128       -21.2828
  33   2.0000      -0.769641       -20.9430
  34   2.0000      -0.709637       -19.3102
  35   2.0000      -0.691040       -18.8042
  36   2.0000      -0.690158       -18.7802
  37   2.0000      -0.658244       -17.9117
  38   2.0000      -0.643935       -17.5224
  39   2.0000      -0.624996       -17.0070
  40   2.0000      -0.600276       -16.3343
  41   2.0000      -0.571552       -15.5527
  42   2.0000      -0.560830       -15.2609
  43   2.0000      -0.551232       -14.9998
  44   2.0000      -0.539005       -14.6671
  45   2.0000      -0.528956       -14.3936
  46   2.0000      -0.524635       -14.2760
  47   2.0000      -0.517106       -14.0712
  48   2.0000      -0.504870       -13.7382
  49   2.0000      -0.499532       -13.5930
  50   2.0000      -0.489081       -13.3086
  51   2.0000      -0.478150       -13.0111
  52   2.0000      -0.466082       -12.6827
  53   2.0000      -0.462202       -12.5772
  54   2.0000      -0.455850       -12.4043
  55   2.0000      -0.453918       -12.3517
  56   2.0000      -0.448361       -12.2005
  57   2.0000      -0.434593       -11.8259
  58   2.0000      -0.429024       -11.6743
  59   2.0000      -0.422785       -11.5046
  60   2.0000      -0.415577       -11.3084
  61   2.0000      -0.410200       -11.1621
  62   2.0000      -0.409727       -11.1492
  63   2.0000      -0.355537        -9.6746
  64   2.0000      -0.336747        -9.1634
  65   2.0000      -0.332180        -9.0391
  66   2.0000      -0.288030        -7.8377
  67   0.0000       0.020200         0.5497
  68   0.0000       0.075116         2.0440
  69   0.0000       0.098571         2.6822
  70   0.0000       0.123459         3.3595
  71   0.0000       0.133856         3.6424

MULLIKEN ATOMIC CHARGES
-----------------------
   0 S :    0.085578
   1 C :   -0.120389
   2 C :   -0.071371
   3 C :    0.020401
   4 C :   -0.134870
   5 H :    0.006191
   6 C :    0.055160
   7 H :    0.016517
   8 H :    0.041655
   9 C :   -0.113368
  10 H :    0.037359
  11 H :    0.037360
  12 C :   -0.042682
  13 H :    0.028069
  14 H :    0.041714
  15 H :    0.039596
  16 S :    0.102938
  17 C :   -0.108320
  18 C :   -0.004892
  19 C :   -0.024399
  20 C :   -0.132157
  21 H :   -0.003606
  22 C :    0.065322
  23 H :    0.018553
  24 H :   -0.000986
  25 C :   -0.068940
  26 H :    0.033625
  27 H :    0.018912
  28 C :   -0.039913
  29 H :    0.028108
  30 H :    0.041176
  31 H :    0.033477
  32 H :    0.043792
  33 H :    0.070390
Sum of atomic charges:   -0.0000000

LOEWDIN ATOMIC CHARGES
----------------------
   0 S :    0.398905
   1 C :   -0.182933
   2 C :   -0.062106
   3 C :   -0.071471
   4 C :   -0.189325
   5 H :    0.027218
   6 C :   -0.029983
   7 H :    0.025122
   8 H :    0.033419
   9 C :   -0.048492
  10 H :    0.025471
  11 H :    0.025701
  12 C :   -0.065397
  13 H :    0.029109
  14 H :    0.024786
  15 H :    0.024412
  16 S :    0.364812
  17 C :   -0.172458
  18 C :   -0.063694
  19 C :   -0.051873
  20 C :   -0.179301
  21 H :    0.026345
  22 C :   -0.037417
  23 H :    0.032569
  24 H :    0.023834
  25 C :   -0.039839
  26 H :    0.023006
  27 H :    0.023512
  28 C :   -0.067037
  29 H :    0.031767
  30 H :    0.027988
  31 H :    0.024558
  32 H :    0.025775
  33 H :    0.043019

  Mayer bond orders larger than 0.100000
B(  0-S ,  1-C ) :   1.1197 B(  0-S ,  4-C ) :   1.1690 B(  1-C ,  2-C ) :   1.5847
B(  1-C ,  4-C ) :   0.1052 B(  1-C , 32-H ) :   0.9811 B(  2-C ,  3-C ) :   1.2554
B(  2-C ,  6-C ) :   1.0043 B(  3-C ,  4-C ) :   1.5441 B(  3-C ,  5-H ) :   1.0018
B(  4-C , 20-C ) :   1.0679 B(  6-C ,  7-H ) :   0.9478 B(  6-C ,  8-H ) :   0.9454
B(  6-C ,  9-C ) :   1.0640 B(  9-C , 10-H ) :   0.9553 B(  9-C , 11-H ) :   0.9598
B(  9-C , 12-C ) :   1.0682 B( 12-C , 13-H ) :   0.9766 B( 12-C , 14-H ) :   0.9742
B( 12-C , 15-H ) :   0.9751 B( 16-S , 17-C ) :   1.1159 B( 16-S , 20-C ) :   1.1145
B( 17-C , 18-C ) :   1.6770 B( 17-C , 33-H ) :   0.9555 B( 18-C , 19-C ) :   1.1971
B( 18-C , 21-H ) :   0.9967 B( 19-C , 20-C ) :   1.6100 B( 19-C , 22-C ) :   1.0639
B( 22-C , 23-H ) :   0.9273 B( 22-C , 24-H ) :   0.9231 B( 22-C , 25-C ) :   1.0538
B( 25-C , 26-H ) :   0.9558 B( 25-C , 27-H ) :   0.9548 B( 25-C , 28-C ) :   1.0897
B( 28-C , 29-H ) :   0.9756 B( 28-C , 30-H ) :   0.9716 B( 28-C , 31-H ) :   0.9708

Dispersion correction           -0.014550216
FINAL SINGLE POINT ENERGY     -1339.875021862709

DIPOLE MOMENT
-------------
                                X             Y             Z
Electronic contribution:      5.91949      21.56988      10.67210
Nuclear contribution   :     -6.32234     -21.94730     -10.95722
                        -----------------------------------------
Total Dipole Moment    :     -0.40285      -0.37742      -0.28512
                        -----------------------------------------
Magnitude (a.u.)       :      0.62131
Magnitude (Debye)      :      1.57924

Rotational constants in cm-1:     0.017389     0.009141     0.007480
Rotational constants in MHz :   521.296120   274.034624   224.243767

                             ****ORCA TERMINATED NORMALLY****
TOTAL RUN TIME: 0 days 0 hours 0 minutes 20 seconds 907 msec
