                         Program Version 4.2.1 -  RELEASE  -
|  1> ! wB97X-D3 SP def2-SVP
|  2> %pal
|  3> nprocs 24
|  4> end
|  5>
|  6> * xyz 0 1
|  7> S 	 -16.1456 	 -25.2557 	 -94.4725
|  8> C 	 -15.2748 	 -26.2281 	 -93.2818
|  9> C 	 -15.75 	 -27.5301 	 -93.1481
| 10> C 	 -16.7867 	 -27.7887 	 -94.0197
| 11> C 	 -17.0072 	 -26.7445 	 -94.901
| 12> H 	 -17.4492 	 -28.7135 	 -94.138
| 13> C 	 -15.2909 	 -28.5015 	 -92.083
| 14> H 	 -16.1555 	 -29.0538 	 -91.7873
| 15> H 	 -15.0037 	 -27.9178 	 -91.1596
| 16> C 	 -14.3042 	 -29.6062 	 -92.5577
| 17> H 	 -14.4378 	 -30.2683 	 -91.7282
| 18> H 	 -14.7406 	 -29.9531 	 -93.5347
| 19> C 	 -12.8461 	 -29.222 	 -92.6934
| 20> H 	 -12.6092 	 -28.3435 	 -93.3411
| 21> H 	 -12.3576 	 -28.9309 	 -91.7323
| 22> H 	 -12.2189 	 -30.0843 	 -93.0505
| 23> S 	 -19.5105 	 -25.8313 	 -95.8557
| 24> C 	 -20.0887 	 -26.4224 	 -97.3515
| 25> C 	 -19.203 	 -27.3355 	 -97.886
| 26> C 	 -18.0499 	 -27.6214 	 -97.0404
| 27> C 	 -18.0586 	 -26.792 	 -95.9721
| 28> H 	 -19.428 	 -27.9775 	 -98.7792
| 29> C 	 -16.8833 	 -28.4537 	 -97.5254
| 30> H 	 -17.1612 	 -29.3662 	 -98.0226
| 31> H 	 -16.3638 	 -28.7233 	 -96.6755
| 32> C 	 -16.0138 	 -27.5891 	 -98.3572
| 33> H 	 -15.7088 	 -26.5971 	 -97.9231
| 34> H 	 -16.5615 	 -27.3822 	 -99.3269
| 35> C 	 -14.7489 	 -28.3553 	 -98.7652
| 36> H 	 -14.3485 	 -28.7096 	 -97.8487
| 37> H 	 -13.9855 	 -27.6893 	 -99.2619
| 38> H 	 -14.8848 	 -29.3136 	 -99.2694
| 39> H 	 -14.416 	 -25.8371 	 -92.7573
| 40> H 	 -21.0773 	 -26.1799 	 -97.7088
| 41> *
| 42>
| 43>                          ****END OF INPUT****

CARTESIAN COORDINATES (ANGSTROEM)
---------------------------------
  S    -16.145600  -25.255700  -94.472500
  C    -15.274800  -26.228100  -93.281800
  C    -15.750000  -27.530100  -93.148100
  C    -16.786700  -27.788700  -94.019700
  C    -17.007200  -26.744500  -94.901000
  H    -17.449200  -28.713500  -94.138000
  C    -15.290900  -28.501500  -92.083000
  H    -16.155500  -29.053800  -91.787300
  H    -15.003700  -27.917800  -91.159600
  C    -14.304200  -29.606200  -92.557700
  H    -14.437800  -30.268300  -91.728200
  H    -14.740600  -29.953100  -93.534700
  C    -12.846100  -29.222000  -92.693400
  H    -12.609200  -28.343500  -93.341100
  H    -12.357600  -28.930900  -91.732300
  H    -12.218900  -30.084300  -93.050500
  S    -19.510500  -25.831300  -95.855700
  C    -20.088700  -26.422400  -97.351500
  C    -19.203000  -27.335500  -97.886000
  C    -18.049900  -27.621400  -97.040400
  C    -18.058600  -26.792000  -95.972100
  H    -19.428000  -27.977500  -98.779200
  C    -16.883300  -28.453700  -97.525400
  H    -17.161200  -29.366200  -98.022600
  H    -16.363800  -28.723300  -96.675500
  C    -16.013800  -27.589100  -98.357200
  H    -15.708800  -26.597100  -97.923100
  H    -16.561500  -27.382200  -99.326900
  C    -14.748900  -28.355300  -98.765200
  H    -14.348500  -28.709600  -97.848700
  H    -13.985500  -27.689300  -99.261900
  H    -14.884800  -29.313600  -99.269400
  H    -14.416000  -25.837100  -92.757300
  H    -21.077300  -26.179900  -97.708800

 Total Charge           Charge          ....    0
 Multiplicity           Mult            ....    1
 Number of Electrons    NEL             ....  134
 Basis Dimension        Dim             ....  322

ORBITAL ENERGIES
----------------

  NO   OCC          E(Eh)            E(eV)
   0   2.0000     -88.972070     -2421.0531
   1   2.0000     -88.961626     -2420.7689
   2   2.0000     -10.330167      -281.0981
   3   2.0000     -10.319924      -280.8194
   4   2.0000     -10.313930      -280.6563
   5   2.0000     -10.313813      -280.6531
   6   2.0000     -10.297949      -280.2214
   7   2.0000     -10.296880      -280.1924
   8   2.0000     -10.296696      -280.1873
   9   2.0000     -10.295192      -280.1464
  10   2.0000     -10.293472      -280.0996
  11   2.0000     -10.293121      -280.0901
  12   2.0000     -10.285610      -279.8857
  13   2.0000     -10.285384      -279.8795
  14   2.0000     -10.280406      -279.7441
  15   2.0000     -10.272477      -279.5283
  16   2.0000      -8.085889      -220.0282
  17   2.0000      -8.077461      -219.7989
  18   2.0000      -6.044159      -164.4699
  19   2.0000      -6.040724      -164.3765
  20   2.0000      -6.036778      -164.2691
  21   2.0000      -6.035920      -164.2457
  22   2.0000      -6.031811      -164.1339
  23   2.0000      -6.028228      -164.0364
  24   2.0000      -1.007419       -27.4133
  25   2.0000      -0.987030       -26.8584
  26   2.0000      -0.919736       -25.0273
  27   2.0000      -0.910711       -24.7817
  28   2.0000      -0.862763       -23.4770
  29   2.0000      -0.854089       -23.2409
  30   2.0000      -0.844251       -22.9732
  31   2.0000      -0.809017       -22.0145
  32   2.0000      -0.784081       -21.3359
  33   2.0000      -0.773995       -21.0615
  34   2.0000      -0.698913       -19.0184
  35   2.0000      -0.693750       -18.8779
  36   2.0000      -0.692739       -18.8504
  37   2.0000      -0.658175       -17.9098
  38   2.0000      -0.638031       -17.3617
  39   2.0000      -0.616718       -16.7817
  40   2.0000      -0.599910       -16.3244
  41   2.0000      -0.569651       -15.5010
  42   2.0000      -0.567381       -15.4392
  43   2.0000      -0.540603       -14.7106
  44   2.0000      -0.536798       -14.6070
  45   2.0000      -0.528877       -14.3915
  46   2.0000      -0.521325       -14.1860
  47   2.0000      -0.510097       -13.8804
  48   2.0000      -0.504627       -13.7316
  49   2.0000      -0.491701       -13.3799
  50   2.0000      -0.480434       -13.0733
  51   2.0000      -0.477641       -12.9973
  52   2.0000      -0.472002       -12.8438
  53   2.0000      -0.461433       -12.5562
  54   2.0000      -0.455956       -12.4072
  55   2.0000      -0.446822       -12.1586
  56   2.0000      -0.445959       -12.1352
  57   2.0000      -0.442723       -12.0471
  58   2.0000      -0.431512       -11.7420
  59   2.0000      -0.427309       -11.6277
  60   2.0000      -0.421158       -11.4603
  61   2.0000      -0.416687       -11.3386
  62   2.0000      -0.406782       -11.0691
  63   2.0000      -0.342084        -9.3086
  64   2.0000      -0.333571        -9.0769
  65   2.0000      -0.326973        -8.8974
  66   2.0000      -0.296421        -8.0660
  67   0.0000       0.037277         1.0144
  68   0.0000       0.065399         1.7796
  69   0.0000       0.106881         2.9084
  70   0.0000       0.124608         3.3908
  71   0.0000       0.131449         3.5769

MULLIKEN ATOMIC CHARGES
-----------------------
   0 S :    0.119462
   1 C :   -0.130456
   2 C :   -0.062615
   3 C :    0.013891
   4 C :   -0.193732
   5 H :    0.050109
   6 C :    0.044268
   7 H :    0.014347
   8 H :    0.034646
   9 C :   -0.038977
  10 H :    0.031218
  11 H :    0.038948
  12 C :   -0.079593
  13 H :    0.039635
  14 H :    0.026118
  15 H :    0.044445
  16 S :    0.110691
  17 C :   -0.093015
  18 C :   -0.038587
  19 C :   -0.067121
  20 C :   -0.169693
  21 H :    0.032998
  22 C :    0.147105
  23 H :    0.017688
  24 H :   -0.014116
  25 C :   -0.103562
  26 H :    0.046080
  27 H :    0.030764
  28 C :   -0.023753
  29 H :    0.001867
  30 H :    0.047705
  31 H :    0.021584
  32 H :    0.043181
  33 H :    0.058471
Sum of atomic charges:   -0.0000000

LOEWDIN ATOMIC CHARGES
----------------------
   0 S :    0.394926
   1 C :   -0.190909
   2 C :   -0.070242
   3 C :   -0.068608
   4 C :   -0.184643
   5 H :    0.050093
   6 C :   -0.032159
   7 H :    0.028290
   8 H :    0.035380
   9 C :   -0.037903
  10 H :    0.025908
  11 H :    0.032983
  12 C :   -0.082169
  13 H :    0.028498
  14 H :    0.026708
  15 H :    0.032882
  16 S :    0.414561
  17 C :   -0.196592
  18 C :   -0.077676
  19 C :   -0.054033
  20 C :   -0.207047
  21 H :    0.035804
  22 C :   -0.024447
  23 H :    0.030742
  24 H :    0.016604
  25 C :   -0.039354
  26 H :    0.034250
  27 H :    0.026577
  28 C :   -0.072759
  29 H :    0.016149
  30 H :    0.033473
  31 H :    0.023639
  32 H :    0.022257
  33 H :    0.028819

  Mayer bond orders larger than 0.100000
B(  0-S ,  1-C ) :   1.1390 B(  0-S ,  4-C ) :   1.1581 B(  1-C ,  2-C ) :   1.5972
B(  1-C ,  4-C ) :   0.1057 B(  1-C , 32-H ) :   0.9689 B(  2-C ,  3-C ) :   1.2564
B(  2-C ,  6-C ) :   1.0187 B(  3-C ,  4-C ) :   1.5851 B(  3-C ,  5-H ) :   0.9748
B(  4-C , 20-C ) :   0.9903 B(  6-C ,  7-H ) :   0.9392 B(  6-C ,  8-H ) :   0.9437
B(  6-C ,  9-C ) :   1.0558 B(  9-C , 10-H ) :   0.9570 B(  9-C , 11-H ) :   0.9536
B(  9-C , 12-C ) :   1.0824 B( 12-C , 13-H ) :   0.9746 B( 12-C , 14-H ) :   0.9727
B( 12-C , 15-H ) :   0.9728 B( 16-S , 17-C ) :   1.1565 B( 16-S , 20-C ) :   1.1463
B( 17-C , 18-C ) :   1.6061 B( 17-C , 33-H ) :   0.9718 B( 18-C , 19-C ) :   1.2324
B( 18-C , 21-H ) :   0.9782 B( 19-C , 20-C ) :   1.6351 B( 19-C , 22-C ) :   1.0556
B( 22-C , 23-H ) :   0.9259 B( 22-C , 24-H ) :   0.9098 B( 22-C , 25-C ) :   1.0765
B( 25-C , 26-H ) :   0.9543 B( 25-C , 27-H ) :   0.9522 B( 25-C , 28-C ) :   1.0772
B( 28-C , 29-H ) :   0.9702 B( 28-C , 30-H ) :   0.9729 B( 28-C , 31-H ) :   0.9696

Dispersion correction           -0.014788840
FINAL SINGLE POINT ENERGY     -1339.874009789614

DIPOLE MOMENT
-------------
                                X             Y             Z
Electronic contribution:    -20.78157      19.34058       1.89120
Nuclear contribution   :     20.98755     -19.93144      -1.77992
                        -----------------------------------------
Total Dipole Moment    :      0.20598      -0.59086       0.11128
                        -----------------------------------------
Magnitude (a.u.)       :      0.63555
Magnitude (Debye)      :      1.61545

Rotational constants in cm-1:     0.019062     0.008935     0.007257
Rotational constants in MHz :   571.474255   267.867908   217.571676

                             ****ORCA TERMINATED NORMALLY****
TOTAL RUN TIME: 0 days 0 hours 0 minutes 21 seconds 24 msec
