                         Program Version 4.2.1 -  RELEASE  -
|  1> ! wB97X-D3 SP def2-SVP
|  2> %pal
|  3> nprocs 24
|  4> end
|  5>
|  6> * xyz 0 1
|  7> S 	 -133.204 	 67.9016 	 -54.4969
|  8> C 	 -132.936 	 68.3145 	 -56.1755
|  9> C 	 -134.086 	 68.526 	 -56.8804
| 10> C 	 -135.174 	 68.5635 	 -55.9881
| 11> C 	 -134.861 	 68.2737 	 -54.6939
| 12> H 	 -136.138 	 68.7999 	 -56.2267
| 13> C 	 -134.317 	 68.8345 	 -58.3374
| 14> H 	 -133.471 	 69.4715 	 -58.7203
| 15> H 	 -135.176 	 69.3961 	 -58.5722
| 16> C 	 -134.332 	 67.5258 	 -59.1667
| 17> H 	 -134.755 	 66.6357 	 -58.6159
| 18> H 	 -134.855 	 67.6264 	 -60.0822
| 19> C 	 -132.882 	 67.0735 	 -59.4377
| 20> H 	 -132.469 	 67.8285 	 -60.1708
| 21> H 	 -132.146 	 66.9022 	 -58.585
| 22> H 	 -132.848 	 66.1905 	 -60.1508
| 23> S 	 -135.244 	 69.1299 	 -52.1378
| 24> C 	 -136.783 	 68.9022 	 -51.3257
| 25> C 	 -137.713 	 68.6531 	 -52.2776
| 26> C 	 -137.173 	 68.2893 	 -53.548
| 27> C 	 -135.817 	 68.487 	 -53.628
| 28> H 	 -138.753 	 68.5987 	 -52.069
| 29> C 	 -137.964 	 67.5233 	 -54.5731
| 30> H 	 -138.439 	 66.7885 	 -53.9654
| 31> H 	 -137.236 	 67.0606 	 -55.2565
| 32> C 	 -139.127 	 68.243 	 -55.2835
| 33> H 	 -138.956 	 69.3327 	 -55.1868
| 34> H 	 -140.126 	 68.0496 	 -54.8472
| 35> C 	 -139.113 	 67.9445 	 -56.8164
| 36> H 	 -139.474 	 66.9013 	 -56.9506
| 37> H 	 -138.17 	 68.0787 	 -57.3589
| 38> H 	 -139.927 	 68.3825 	 -57.3277
| 39> H 	 -131.991 	 68.2356 	 -56.6168
| 40> H 	 -136.941 	 68.7374 	 -50.3343
| 41> *
| 42>
| 43>                          ****END OF INPUT****

CARTESIAN COORDINATES (ANGSTROEM)
---------------------------------
  S    -133.204000   67.901600  -54.496900
  C    -132.936000   68.314500  -56.175500
  C    -134.086000   68.526000  -56.880400
  C    -135.174000   68.563500  -55.988100
  C    -134.861000   68.273700  -54.693900
  H    -136.138000   68.799900  -56.226700
  C    -134.317000   68.834500  -58.337400
  H    -133.471000   69.471500  -58.720300
  H    -135.176000   69.396100  -58.572200
  C    -134.332000   67.525800  -59.166700
  H    -134.755000   66.635700  -58.615900
  H    -134.855000   67.626400  -60.082200
  C    -132.882000   67.073500  -59.437700
  H    -132.469000   67.828500  -60.170800
  H    -132.146000   66.902200  -58.585000
  H    -132.848000   66.190500  -60.150800
  S    -135.244000   69.129900  -52.137800
  C    -136.783000   68.902200  -51.325700
  C    -137.713000   68.653100  -52.277600
  C    -137.173000   68.289300  -53.548000
  C    -135.817000   68.487000  -53.628000
  H    -138.753000   68.598700  -52.069000
  C    -137.964000   67.523300  -54.573100
  H    -138.439000   66.788500  -53.965400
  H    -137.236000   67.060600  -55.256500
  C    -139.127000   68.243000  -55.283500
  H    -138.956000   69.332700  -55.186800
  H    -140.126000   68.049600  -54.847200
  C    -139.113000   67.944500  -56.816400
  H    -139.474000   66.901300  -56.950600
  H    -138.170000   68.078700  -57.358900
  H    -139.927000   68.382500  -57.327700
  H    -131.991000   68.235600  -56.616800
  H    -136.941000   68.737400  -50.334300

 Total Charge           Charge          ....    0
 Multiplicity           Mult            ....    1
 Number of Electrons    NEL             ....  134
 Basis Dimension        Dim             ....  322

ORBITAL ENERGIES
----------------

  NO   OCC          E(Eh)            E(eV)
   0   2.0000     -88.969970     -2420.9960
   1   2.0000     -88.955687     -2420.6073
   2   2.0000     -10.321569      -280.8642
   3   2.0000     -10.318516      -280.7811
   4   2.0000     -10.310531      -280.5638
   5   2.0000     -10.306272      -280.4479
   6   2.0000     -10.299703      -280.2692
   7   2.0000     -10.296316      -280.1770
   8   2.0000     -10.293494      -280.1002
   9   2.0000     -10.293353      -280.0964
  10   2.0000     -10.292271      -280.0669
  11   2.0000     -10.290822      -280.0275
  12   2.0000     -10.287407      -279.9346
  13   2.0000     -10.285714      -279.8885
  14   2.0000     -10.280881      -279.7570
  15   2.0000     -10.280354      -279.7427
  16   2.0000      -8.085399      -220.0149
  17   2.0000      -8.071480      -219.6361
  18   2.0000      -6.043806      -164.4603
  19   2.0000      -6.039938      -164.3551
  20   2.0000      -6.036091      -164.2504
  21   2.0000      -6.030074      -164.0867
  22   2.0000      -6.025840      -163.9714
  23   2.0000      -6.022075      -163.8690
  24   2.0000      -1.017517       -27.6880
  25   2.0000      -0.992836       -27.0164
  26   2.0000      -0.916441       -24.9376
  27   2.0000      -0.907323       -24.6895
  28   2.0000      -0.874261       -23.7898
  29   2.0000      -0.856350       -23.3025
  30   2.0000      -0.845783       -23.0149
  31   2.0000      -0.816917       -22.2294
  32   2.0000      -0.783087       -21.3089
  33   2.0000      -0.775069       -21.0907
  34   2.0000      -0.708622       -19.2826
  35   2.0000      -0.702333       -19.1115
  36   2.0000      -0.697599       -18.9826
  37   2.0000      -0.667782       -18.1713
  38   2.0000      -0.650016       -17.6878
  39   2.0000      -0.626163       -17.0388
  40   2.0000      -0.595583       -16.2066
  41   2.0000      -0.583530       -15.8786
  42   2.0000      -0.569964       -15.5095
  43   2.0000      -0.548958       -14.9379
  44   2.0000      -0.540580       -14.7099
  45   2.0000      -0.528609       -14.3842
  46   2.0000      -0.518479       -14.1085
  47   2.0000      -0.516660       -14.0590
  48   2.0000      -0.503784       -13.7087
  49   2.0000      -0.497259       -13.5311
  50   2.0000      -0.492991       -13.4150
  51   2.0000      -0.484175       -13.1751
  52   2.0000      -0.474430       -12.9099
  53   2.0000      -0.471057       -12.8181
  54   2.0000      -0.458251       -12.4696
  55   2.0000      -0.457219       -12.4415
  56   2.0000      -0.445786       -12.1305
  57   2.0000      -0.438759       -11.9392
  58   2.0000      -0.434368       -11.8197
  59   2.0000      -0.421623       -11.4729
  60   2.0000      -0.418131       -11.3779
  61   2.0000      -0.413112       -11.2413
  62   2.0000      -0.405119       -11.0239
  63   2.0000      -0.351851        -9.5743
  64   2.0000      -0.336042        -9.1442
  65   2.0000      -0.323923        -8.8144
  66   2.0000      -0.286887        -7.8066
  67   0.0000       0.024454         0.6654
  68   0.0000       0.084020         2.2863
  69   0.0000       0.109127         2.9695
  70   0.0000       0.119133         3.2418
  71   0.0000       0.133365         3.6290

MULLIKEN ATOMIC CHARGES
-----------------------
   0 S :    0.130329
   1 C :   -0.120957
   2 C :   -0.032615
   3 C :    0.037186
   4 C :   -0.125380
   5 H :   -0.052717
   6 C :    0.078757
   7 H :    0.034993
   8 H :    0.016526
   9 C :   -0.052064
  10 H :    0.046912
  11 H :    0.026023
  12 C :   -0.128035
  13 H :    0.024881
  14 H :    0.061853
  15 H :    0.035947
  16 S :    0.082827
  17 C :   -0.062269
  18 C :   -0.003166
  19 C :   -0.079064
  20 C :   -0.130488
  21 H :    0.003046
  22 C :    0.068814
  23 H :    0.023572
  24 H :    0.038939
  25 C :   -0.080038
  26 H :    0.039217
  27 H :    0.037004
  28 C :   -0.062874
  29 H :    0.022046
  30 H :    0.047900
  31 H :    0.017201
  32 H :    0.023341
  33 H :    0.032350
Sum of atomic charges:    0.0000000

LOEWDIN ATOMIC CHARGES
----------------------
   0 S :    0.426088
   1 C :   -0.182993
   2 C :   -0.053749
   3 C :   -0.045305
   4 C :   -0.205500
   5 H :    0.011912
   6 C :   -0.026269
   7 H :    0.038264
   8 H :    0.023412
   9 C :   -0.038539
  10 H :    0.032792
  11 H :    0.019748
  12 C :   -0.087247
  13 H :    0.024624
  14 H :    0.032818
  15 H :    0.029714
  16 S :    0.396375
  17 C :   -0.167557
  18 C :   -0.058534
  19 C :   -0.068618
  20 C :   -0.197892
  21 H :    0.024110
  22 C :   -0.033483
  23 H :    0.032018
  24 H :    0.034106
  25 C :   -0.042323
  26 H :    0.024373
  27 H :    0.028266
  28 C :   -0.071435
  29 H :    0.029334
  30 H :    0.025398
  31 H :    0.019513
  32 H :    0.011745
  33 H :    0.014831

  Mayer bond orders larger than 0.100000
B(  0-S ,  1-C ) :   1.1404 B(  0-S ,  4-C ) :   1.1492 B(  1-C ,  2-C ) :   1.6018
B(  1-C , 32-H ) :   0.9693 B(  2-C ,  3-C ) :   1.2449 B(  2-C ,  6-C ) :   1.0190
B(  3-C ,  4-C ) :   1.5502 B(  3-C ,  5-H ) :   1.0144 B(  4-C , 20-C ) :   1.0556
B(  6-C ,  7-H ) :   0.9447 B(  6-C ,  8-H ) :   0.9470 B(  6-C ,  9-C ) :   1.0496
B(  9-C , 10-H ) :   0.9589 B(  9-C , 11-H ) :   0.9555 B(  9-C , 12-C ) :   1.0723
B( 12-C , 13-H ) :   0.9725 B( 12-C , 14-H ) :   0.9726 B( 12-C , 15-H ) :   0.9721
B( 16-S , 17-C ) :   1.1396 B( 16-S , 20-C ) :   1.1284 B( 17-C , 18-C ) :   1.6106
B( 17-C , 33-H ) :   0.9835 B( 18-C , 19-C ) :   1.2419 B( 18-C , 21-H ) :   0.9920
B( 19-C , 20-C ) :   1.6010 B( 19-C , 22-C ) :   1.0475 B( 22-C , 23-H ) :   0.9269
B( 22-C , 24-H ) :   0.9479 B( 22-C , 25-C ) :   1.0238 B( 25-C , 26-H ) :   0.9703
B( 25-C , 27-H ) :   0.9540 B( 25-C , 28-C ) :   1.0848 B( 28-C , 29-H ) :   0.9693
B( 28-C , 30-H ) :   0.9772 B( 28-C , 31-H ) :   0.9706

Dispersion correction           -0.014758662
FINAL SINGLE POINT ENERGY     -1339.850528756881

DIPOLE MOMENT
-------------
                                X             Y             Z
Electronic contribution:     12.00596       5.44278      27.19570
Nuclear contribution   :    -12.51535      -5.65429     -27.79987
                        -----------------------------------------
Total Dipole Moment    :     -0.50940      -0.21151      -0.60417
                        -----------------------------------------
Magnitude (a.u.)       :      0.81808
Magnitude (Debye)      :      2.07938

Rotational constants in cm-1:     0.019411     0.009513     0.006685
Rotational constants in MHz :   581.912852   285.196324   200.417910

                             ****ORCA TERMINATED NORMALLY****
TOTAL RUN TIME: 0 days 0 hours 0 minutes 22 seconds 469 msec
