                         Program Version 4.2.1 -  RELEASE  -
|  1> ! wB97X-D3 SP def2-SVP
|  2> %pal
|  3> nprocs 24
|  4> end
|  5>
|  6> * xyz 0 1
|  7> S 	 -50.1961 	 21.2482 	 24.2265
|  8> C 	 -51.8205 	 21.0092 	 23.5607
|  9> C 	 -51.9357 	 19.684 	 23.142
| 10> C 	 -50.8478 	 18.8621 	 23.6104
| 11> C 	 -49.7896 	 19.5931 	 24.1449
| 12> H 	 -50.7435 	 17.807 	 23.4084
| 13> C 	 -53.1826 	 19.1113 	 22.3881
| 14> H 	 -54.0315 	 19.7388 	 22.5404
| 15> H 	 -53.4164 	 18.2253 	 22.8982
| 16> C 	 -53.0212 	 18.9226 	 20.885
| 17> H 	 -51.9576 	 18.6766 	 20.684
| 18> H 	 -53.6093 	 18.0556 	 20.6693
| 19> C 	 -53.4336 	 20.1076 	 19.9683
| 20> H 	 -53.3293 	 19.7651 	 18.944
| 21> H 	 -54.2869 	 20.6081 	 20.3287
| 22> H 	 -52.5654 	 20.8402 	 20.1292
| 23> S 	 -47.1276 	 20.2943 	 24.1049
| 24> C 	 -45.9494 	 19.1945 	 24.7505
| 25> C 	 -46.5863 	 18.0355 	 25.1784
| 26> C 	 -47.9553 	 17.9821 	 25.0191
| 27> C 	 -48.4901 	 19.1514 	 24.487
| 28> H 	 -45.9057 	 17.2167 	 25.4138
| 29> C 	 -48.7499 	 16.7477 	 25.5111
| 30> H 	 -48.0054 	 15.9052 	 25.3131
| 31> H 	 -49.6854 	 16.5673 	 24.9187
| 32> C 	 -48.9183 	 16.6491 	 26.9852
| 33> H 	 -49.5657 	 17.5221 	 27.3616
| 34> H 	 -48.0509 	 16.624 	 27.6538
| 35> C 	 -49.7868 	 15.4091 	 27.2952
| 36> H 	 -49.8091 	 15.0965 	 28.3896
| 37> H 	 -49.422 	 14.4846 	 26.7859
| 38> H 	 -50.8301 	 15.6421 	 26.9331
| 39> H 	 -52.6067 	 21.8087 	 23.4357
| 40> H 	 -44.9015 	 19.2076 	 24.8126
| 41> *
| 42>
| 43>                          ****END OF INPUT****

CARTESIAN COORDINATES (ANGSTROEM)
---------------------------------
  S    -50.196100   21.248200   24.226500
  C    -51.820500   21.009200   23.560700
  C    -51.935700   19.684000   23.142000
  C    -50.847800   18.862100   23.610400
  C    -49.789600   19.593100   24.144900
  H    -50.743500   17.807000   23.408400
  C    -53.182600   19.111300   22.388100
  H    -54.031500   19.738800   22.540400
  H    -53.416400   18.225300   22.898200
  C    -53.021200   18.922600   20.885000
  H    -51.957600   18.676600   20.684000
  H    -53.609300   18.055600   20.669300
  C    -53.433600   20.107600   19.968300
  H    -53.329300   19.765100   18.944000
  H    -54.286900   20.608100   20.328700
  H    -52.565400   20.840200   20.129200
  S    -47.127600   20.294300   24.104900
  C    -45.949400   19.194500   24.750500
  C    -46.586300   18.035500   25.178400
  C    -47.955300   17.982100   25.019100
  C    -48.490100   19.151400   24.487000
  H    -45.905700   17.216700   25.413800
  C    -48.749900   16.747700   25.511100
  H    -48.005400   15.905200   25.313100
  H    -49.685400   16.567300   24.918700
  C    -48.918300   16.649100   26.985200
  H    -49.565700   17.522100   27.361600
  H    -48.050900   16.624000   27.653800
  C    -49.786800   15.409100   27.295200
  H    -49.809100   15.096500   28.389600
  H    -49.422000   14.484600   26.785900
  H    -50.830100   15.642100   26.933100
  H    -52.606700   21.808700   23.435700
  H    -44.901500   19.207600   24.812600

 Total Charge           Charge          ....    0
 Multiplicity           Mult            ....    1
 Number of Electrons    NEL             ....  134
 Basis Dimension        Dim             ....  322

ORBITAL ENERGIES
----------------

  NO   OCC          E(Eh)            E(eV)
   0   2.0000     -88.968804     -2420.9642
   1   2.0000     -88.966482     -2420.9010
   2   2.0000     -10.331717      -281.1403
   3   2.0000     -10.328949      -281.0650
   4   2.0000     -10.320409      -280.8326
   5   2.0000     -10.314291      -280.6661
   6   2.0000     -10.307209      -280.4734
   7   2.0000     -10.304044      -280.3873
   8   2.0000     -10.303524      -280.3731
   9   2.0000     -10.295739      -280.1613
  10   2.0000     -10.291256      -280.0393
  11   2.0000     -10.288731      -279.9706
  12   2.0000     -10.288070      -279.9526
  13   2.0000     -10.287480      -279.9366
  14   2.0000     -10.283979      -279.8413
  15   2.0000     -10.281039      -279.7613
  16   2.0000      -8.082468      -219.9351
  17   2.0000      -8.081581      -219.9110
  18   2.0000      -6.041135      -164.3876
  19   2.0000      -6.040159      -164.3611
  20   2.0000      -6.037016      -164.2756
  21   2.0000      -6.035925      -164.2459
  22   2.0000      -6.033207      -164.1719
  23   2.0000      -6.032337      -164.1482
  24   2.0000      -1.010221       -27.4895
  25   2.0000      -0.983799       -26.7705
  26   2.0000      -0.913601       -24.8603
  27   2.0000      -0.910667       -24.7805
  28   2.0000      -0.872726       -23.7481
  29   2.0000      -0.853104       -23.2141
  30   2.0000      -0.841505       -22.8985
  31   2.0000      -0.811250       -22.0752
  32   2.0000      -0.784619       -21.3506
  33   2.0000      -0.771436       -20.9918
  34   2.0000      -0.712268       -19.3818
  35   2.0000      -0.694503       -18.8984
  36   2.0000      -0.689530       -18.7631
  37   2.0000      -0.662006       -18.0141
  38   2.0000      -0.639192       -17.3933
  39   2.0000      -0.621756       -16.9188
  40   2.0000      -0.596276       -16.2255
  41   2.0000      -0.569438       -15.4952
  42   2.0000      -0.564827       -15.3697
  43   2.0000      -0.556258       -15.1366
  44   2.0000      -0.538877       -14.6636
  45   2.0000      -0.525335       -14.2951
  46   2.0000      -0.519501       -14.1363
  47   2.0000      -0.514650       -14.0043
  48   2.0000      -0.509269       -13.8579
  49   2.0000      -0.500450       -13.6179
  50   2.0000      -0.489128       -13.3099
  51   2.0000      -0.481837       -13.1115
  52   2.0000      -0.468150       -12.7390
  53   2.0000      -0.464949       -12.6519
  54   2.0000      -0.457023       -12.4362
  55   2.0000      -0.448895       -12.2151
  56   2.0000      -0.443266       -12.0619
  57   2.0000      -0.440283       -11.9807
  58   2.0000      -0.430122       -11.7042
  59   2.0000      -0.427048       -11.6206
  60   2.0000      -0.416227       -11.3261
  61   2.0000      -0.405795       -11.0422
  62   2.0000      -0.401900       -10.9363
  63   2.0000      -0.357991        -9.7414
  64   2.0000      -0.335633        -9.1330
  65   2.0000      -0.331343        -9.0163
  66   2.0000      -0.281457        -7.6588
  67   0.0000       0.019270         0.5244
  68   0.0000       0.072800         1.9810
  69   0.0000       0.107116         2.9148
  70   0.0000       0.116794         3.1781
  71   0.0000       0.131548         3.5796

MULLIKEN ATOMIC CHARGES
-----------------------
   0 S :    0.106287
   1 C :   -0.142164
   2 C :   -0.113801
   3 C :    0.007898
   4 C :   -0.123801
   5 H :    0.010866
   6 C :    0.100143
   7 H :    0.002486
   8 H :    0.013985
   9 C :   -0.084805
  10 H :    0.033315
  11 H :    0.021765
  12 C :   -0.037901
  13 H :    0.048697
  14 H :    0.028335
  15 H :    0.034845
  16 S :    0.101918
  17 C :   -0.056557
  18 C :   -0.079158
  19 C :    0.012904
  20 C :   -0.144502
  21 H :    0.020329
  22 C :    0.035236
  23 H :    0.029829
  24 H :    0.035942
  25 C :   -0.074346
  26 H :    0.043245
  27 H :    0.040024
  28 C :   -0.098406
  29 H :    0.045811
  30 H :    0.029158
  31 H :    0.044193
  32 H :    0.073171
  33 H :    0.035055
Sum of atomic charges:   -0.0000000

LOEWDIN ATOMIC CHARGES
----------------------
   0 S :    0.418138
   1 C :   -0.210520
   2 C :   -0.056204
   3 C :   -0.073996
   4 C :   -0.204259
   5 H :    0.026213
   6 C :   -0.023683
   7 H :    0.023587
   8 H :    0.024837
   9 C :   -0.042037
  10 H :    0.028046
  11 H :    0.017824
  12 C :   -0.062995
  13 H :    0.031620
  14 H :    0.016014
  15 H :    0.036539
  16 S :    0.390176
  17 C :   -0.184356
  18 C :   -0.078203
  19 C :   -0.059816
  20 C :   -0.173250
  21 H :    0.032807
  22 C :   -0.032913
  23 H :    0.040373
  24 H :    0.034385
  25 C :   -0.051246
  26 H :    0.033727
  27 H :    0.026952
  28 C :   -0.078257
  29 H :    0.031312
  30 H :    0.021648
  31 H :    0.029574
  32 H :    0.042744
  33 H :    0.025220

  Mayer bond orders larger than 0.100000
B(  0-S ,  1-C ) :   1.1247 B(  0-S ,  4-C ) :   1.1632 B(  1-C ,  2-C ) :   1.6016
B(  1-C , 32-H ) :   0.9638 B(  2-C ,  3-C ) :   1.2614 B(  2-C ,  6-C ) :   1.0206
B(  3-C ,  4-C ) :   1.5311 B(  3-C ,  5-H ) :   0.9884 B(  4-C , 20-C ) :   1.1048
B(  6-C ,  7-H ) :   0.9428 B(  6-C ,  8-H ) :   0.9416 B(  6-C ,  9-C ) :   1.0569
B(  9-C , 10-H ) :   0.9615 B(  9-C , 11-H ) :   0.9565 B(  9-C , 12-C ) :   1.0736
B( 12-C , 13-H ) :   0.9734 B( 12-C , 14-H ) :   0.9775 B( 12-C , 15-H ) :   0.9768
B( 16-S , 17-C ) :   1.1518 B( 16-S , 20-C ) :   1.1216 B( 17-C , 18-C ) :   1.6107
B( 17-C , 20-C ) :   0.1117 B( 17-C , 33-H ) :   0.9686 B( 18-C , 19-C ) :   1.2715
B( 18-C , 21-H ) :   0.9807 B( 19-C , 20-C ) :   1.5692 B( 19-C , 22-C ) :   1.0231
B( 22-C , 23-H ) :   0.9274 B( 22-C , 24-H ) :   0.9421 B( 22-C , 25-C ) :   1.0693
B( 25-C , 26-H ) :   0.9536 B( 25-C , 27-H ) :   0.9549 B( 25-C , 28-C ) :   1.0685
B( 28-C , 29-H ) :   0.9745 B( 28-C , 30-H ) :   0.9730 B( 28-C , 31-H ) :   0.9766

Dispersion correction           -0.013540634
FINAL SINGLE POINT ENERGY     -1339.861247696900

DIPOLE MOMENT
-------------
                                X             Y             Z
Electronic contribution:     16.33286      18.49806       2.59315
Nuclear contribution   :    -16.54076     -19.11203      -2.67212
                        -----------------------------------------
Total Dipole Moment    :     -0.20790      -0.61398      -0.07897
                        -----------------------------------------
Magnitude (a.u.)       :      0.65301
Magnitude (Debye)      :      1.65983

Rotational constants in cm-1:     0.018490     0.008106     0.006485
Rotational constants in MHz :   554.306187   243.017991   194.414513

                             ****ORCA TERMINATED NORMALLY****
TOTAL RUN TIME: 0 days 0 hours 0 minutes 19 seconds 939 msec
