                         Program Version 4.2.1 -  RELEASE  -
|  1> ! wB97X-D3 SP def2-SVP
|  2> %pal
|  3> nprocs 24
|  4> end
|  5>
|  6> * xyz 0 1
|  7> S 	 42.7313 	 -13.1863 	 -121.538
|  8> C 	 41.1703 	 -12.7649 	 -120.937
|  9> C 	 40.1725 	 -13.227 	 -121.804
| 10> C 	 40.7509 	 -13.9855 	 -122.923
| 11> C 	 42.1385 	 -13.9873 	 -122.938
| 12> H 	 40.0807 	 -14.5247 	 -123.608
| 13> C 	 38.681 	 -13.1107 	 -121.54
| 14> H 	 38.5107 	 -13.1564 	 -120.451
| 15> H 	 38.2078 	 -13.9634 	 -121.898
| 16> C 	 37.9142 	 -11.986 	 -122.169
| 17> H 	 38.0643 	 -11.9072 	 -123.244
| 18> H 	 36.8996 	 -12.3271 	 -122.224
| 19> C 	 37.9427 	 -10.6113 	 -121.415
| 20> H 	 38.9385 	 -10.196 	 -121.263
| 21> H 	 37.2619 	 -9.86553 	 -121.965
| 22> H 	 37.6601 	 -10.6759 	 -120.391
| 23> S 	 43.4441 	 -16.3368 	 -123.412
| 24> C 	 44.2091 	 -16.6321 	 -124.964
| 25> C 	 44.1388 	 -15.5073 	 -125.831
| 26> C 	 43.4392 	 -14.3521 	 -125.205
| 27> C 	 43.0003 	 -14.6779 	 -123.9
| 28> H 	 44.6124 	 -15.5341 	 -126.753
| 29> C 	 43.0353 	 -13.0916 	 -126
| 30> H 	 43.8811 	 -12.9491 	 -126.67
| 31> H 	 43.0138 	 -12.2635 	 -125.348
| 32> C 	 41.6461 	 -13.1048 	 -126.697
| 33> H 	 40.9422 	 -13.1631 	 -125.982
| 34> H 	 41.7285 	 -13.928 	 -127.406
| 35> C 	 41.4605 	 -11.8128 	 -127.551
| 36> H 	 41.3412 	 -11.0391 	 -126.881
| 37> H 	 40.4442 	 -11.9317 	 -127.973
| 38> H 	 42.2102 	 -11.6482 	 -128.292
| 39> H 	 41.0122 	 -12.3272 	 -119.965
| 40> H 	 44.7255 	 -17.5583 	 -125.14
| 41> *
| 42>
| 43>                          ****END OF INPUT****

CARTESIAN COORDINATES (ANGSTROEM)
---------------------------------
  S     42.731300  -13.186300  -121.538000
  C     41.170300  -12.764900  -120.937000
  C     40.172500  -13.227000  -121.804000
  C     40.750900  -13.985500  -122.923000
  C     42.138500  -13.987300  -122.938000
  H     40.080700  -14.524700  -123.608000
  C     38.681000  -13.110700  -121.540000
  H     38.510700  -13.156400  -120.451000
  H     38.207800  -13.963400  -121.898000
  C     37.914200  -11.986000  -122.169000
  H     38.064300  -11.907200  -123.244000
  H     36.899600  -12.327100  -122.224000
  C     37.942700  -10.611300  -121.415000
  H     38.938500  -10.196000  -121.263000
  H     37.261900   -9.865530  -121.965000
  H     37.660100  -10.675900  -120.391000
  S     43.444100  -16.336800  -123.412000
  C     44.209100  -16.632100  -124.964000
  C     44.138800  -15.507300  -125.831000
  C     43.439200  -14.352100  -125.205000
  C     43.000300  -14.677900  -123.900000
  H     44.612400  -15.534100  -126.753000
  C     43.035300  -13.091600  -126.000000
  H     43.881100  -12.949100  -126.670000
  H     43.013800  -12.263500  -125.348000
  C     41.646100  -13.104800  -126.697000
  H     40.942200  -13.163100  -125.982000
  H     41.728500  -13.928000  -127.406000
  C     41.460500  -11.812800  -127.551000
  H     41.341200  -11.039100  -126.881000
  H     40.444200  -11.931700  -127.973000
  H     42.210200  -11.648200  -128.292000
  H     41.012200  -12.327200  -119.965000
  H     44.725500  -17.558300  -125.140000

 Total Charge           Charge          ....    0
 Multiplicity           Mult            ....    1
 Number of Electrons    NEL             ....  134
 Basis Dimension        Dim             ....  322

ORBITAL ENERGIES
----------------

  NO   OCC          E(Eh)            E(eV)
   0   2.0000     -88.964736     -2420.8535
   1   2.0000     -88.964459     -2420.8460
   2   2.0000     -10.330038      -281.0946
   3   2.0000     -10.328634      -281.0564
   4   2.0000     -10.322692      -280.8947
   5   2.0000     -10.314618      -280.6750
   6   2.0000     -10.314607      -280.6747
   7   2.0000     -10.304650      -280.4038
   8   2.0000     -10.300097      -280.2799
   9   2.0000     -10.299956      -280.2761
  10   2.0000     -10.287518      -279.9376
  11   2.0000     -10.287333      -279.9326
  12   2.0000     -10.285887      -279.8932
  13   2.0000     -10.282586      -279.8034
  14   2.0000     -10.279341      -279.7151
  15   2.0000     -10.271966      -279.5144
  16   2.0000      -8.080394      -219.8787
  17   2.0000      -8.078636      -219.8309
  18   2.0000      -6.038826      -164.3248
  19   2.0000      -6.037095      -164.2777
  20   2.0000      -6.034526      -164.2078
  21   2.0000      -6.033164      -164.1707
  22   2.0000      -6.031421      -164.1233
  23   2.0000      -6.029539      -164.0721
  24   2.0000      -1.002108       -27.2687
  25   2.0000      -0.973080       -26.4788
  26   2.0000      -0.913326       -24.8529
  27   2.0000      -0.906131       -24.6571
  28   2.0000      -0.864343       -23.5200
  29   2.0000      -0.846993       -23.0478
  30   2.0000      -0.842857       -22.9353
  31   2.0000      -0.809008       -22.0142
  32   2.0000      -0.785670       -21.3792
  33   2.0000      -0.773090       -21.0368
  34   2.0000      -0.710383       -19.3305
  35   2.0000      -0.704300       -19.1650
  36   2.0000      -0.689109       -18.7516
  37   2.0000      -0.663429       -18.0528
  38   2.0000      -0.643403       -17.5079
  39   2.0000      -0.617671       -16.8077
  40   2.0000      -0.590939       -16.0803
  41   2.0000      -0.580566       -15.7980
  42   2.0000      -0.567169       -15.4335
  43   2.0000      -0.547700       -14.9037
  44   2.0000      -0.535836       -14.5808
  45   2.0000      -0.522809       -14.2264
  46   2.0000      -0.518409       -14.1066
  47   2.0000      -0.511232       -13.9113
  48   2.0000      -0.508568       -13.8389
  49   2.0000      -0.496859       -13.5202
  50   2.0000      -0.485383       -13.2079
  51   2.0000      -0.476045       -12.9538
  52   2.0000      -0.474570       -12.9137
  53   2.0000      -0.467990       -12.7347
  54   2.0000      -0.455989       -12.4081
  55   2.0000      -0.452810       -12.3216
  56   2.0000      -0.447851       -12.1866
  57   2.0000      -0.438770       -11.9395
  58   2.0000      -0.433842       -11.8054
  59   2.0000      -0.425553       -11.5799
  60   2.0000      -0.418658       -11.3923
  61   2.0000      -0.415144       -11.2967
  62   2.0000      -0.407495       -11.0885
  63   2.0000      -0.333941        -9.0870
  64   2.0000      -0.323450        -8.8015
  65   2.0000      -0.318604        -8.6697
  66   2.0000      -0.312271        -8.4973
  67   0.0000       0.042975         1.1694
  68   0.0000       0.054674         1.4878
  69   0.0000       0.112319         3.0564
  70   0.0000       0.119356         3.2478
  71   0.0000       0.121430         3.3043

MULLIKEN ATOMIC CHARGES
-----------------------
   0 S :    0.125075
   1 C :   -0.125499
   2 C :   -0.105308
   3 C :    0.044682
   4 C :   -0.166082
   5 H :    0.025107
   6 C :    0.086532
   7 H :    0.023438
   8 H :   -0.002355
   9 C :   -0.040624
  10 H :    0.016788
  11 H :    0.013127
  12 C :   -0.055775
  13 H :    0.030012
  14 H :    0.049461
  15 H :    0.015438
  16 S :    0.107742
  17 C :   -0.097630
  18 C :   -0.018304
  19 C :   -0.017701
  20 C :   -0.187847
  21 H :    0.000473
  22 C :    0.068900
  23 H :    0.017199
  24 H :    0.010733
  25 C :   -0.022999
  26 H :    0.004031
  27 H :    0.026587
  28 C :   -0.017948
  29 H :    0.011740
  30 H :    0.031554
  31 H :    0.037564
  32 H :    0.050546
  33 H :    0.061344
Sum of atomic charges:    0.0000000

LOEWDIN ATOMIC CHARGES
----------------------
   0 S :    0.434984
   1 C :   -0.206847
   2 C :   -0.062110
   3 C :   -0.061699
   4 C :   -0.222469
   5 H :    0.033483
   6 C :   -0.032480
   7 H :    0.034783
   8 H :    0.024536
   9 C :   -0.041770
  10 H :    0.025457
  11 H :    0.023678
  12 C :   -0.071648
  13 H :    0.024439
  14 H :    0.037301
  15 H :    0.018310
  16 S :    0.395474
  17 C :   -0.178400
  18 C :   -0.064311
  19 C :   -0.040557
  20 C :   -0.198212
  21 H :    0.018745
  22 C :   -0.027720
  23 H :    0.028141
  24 H :    0.022316
  25 C :   -0.014040
  26 H :    0.007217
  27 H :    0.023870
  28 C :   -0.051977
  29 H :    0.013477
  30 H :    0.032669
  31 H :    0.022797
  32 H :    0.027494
  33 H :    0.025069

  Mayer bond orders larger than 0.100000
B(  0-S ,  1-C ) :   1.1578 B(  0-S ,  4-C ) :   1.1744 B(  1-C ,  2-C ) :   1.5813
B(  1-C , 32-H ) :   0.9730 B(  2-C ,  3-C ) :   1.2652 B(  2-C ,  6-C ) :   1.0278
B(  3-C ,  4-C ) :   1.5586 B(  3-C ,  5-H ) :   0.9869 B(  4-C , 20-C ) :   1.0042
B(  6-C ,  7-H ) :   0.9429 B(  6-C ,  8-H ) :   0.9294 B(  6-C ,  9-C ) :   1.0867
B(  9-C , 10-H ) :   0.9498 B(  9-C , 11-H ) :   0.9502 B(  9-C , 12-C ) :   1.0685
B( 12-C , 13-H ) :   0.9775 B( 12-C , 14-H ) :   0.9753 B( 12-C , 15-H ) :   0.9733
B( 16-S , 17-C ) :   1.1610 B( 16-S , 20-C ) :   1.1471 B( 17-C , 18-C ) :   1.6055
B( 17-C , 33-H ) :   0.9703 B( 18-C , 19-C ) :   1.2109 B( 18-C , 21-H ) :   0.9986
B( 19-C , 20-C ) :   1.6109 B( 19-C , 22-C ) :   1.0499 B( 22-C , 23-H ) :   0.9356
B( 22-C , 24-H ) :   0.9294 B( 22-C , 25-C ) :   1.0658 B( 25-C , 26-H ) :   0.9526
B( 25-C , 27-H ) :   0.9598 B( 25-C , 28-C ) :   1.0879 B( 28-C , 29-H ) :   0.9746
B( 28-C , 30-H ) :   0.9723 B( 28-C , 31-H ) :   0.9779

Dispersion correction           -0.014117249
FINAL SINGLE POINT ENERGY     -1339.862443934699

DIPOLE MOMENT
-------------
                                X             Y             Z
Electronic contribution:     20.58091     -17.51589      11.09663
Nuclear contribution   :    -21.08597      17.61142     -11.38235
                        -----------------------------------------
Total Dipole Moment    :     -0.50506       0.09552      -0.28573
                        -----------------------------------------
Magnitude (a.u.)       :      0.58809
Magnitude (Debye)      :      1.49481

Rotational constants in cm-1:     0.017983     0.008660     0.006650
Rotational constants in MHz :   539.102774   259.628674   199.349224

                             ****ORCA TERMINATED NORMALLY****
TOTAL RUN TIME: 0 days 0 hours 0 minutes 21 seconds 233 msec
