                         Program Version 4.2.1 -  RELEASE  -
|  1> ! wB97X-D3 SP def2-SVP
|  2> %pal
|  3> nprocs 24
|  4> end
|  5>
|  6> * xyz 0 1
|  7> S 	 -119.281 	 32.9617 	 -113.096
|  8> C 	 -119.262 	 31.5707 	 -114.159
|  9> C 	 -118.81 	 31.8677 	 -115.408
| 10> C 	 -118.538 	 33.3012 	 -115.465
| 11> C 	 -118.869 	 34.0715 	 -114.394
| 12> H 	 -118.12 	 33.7997 	 -116.349
| 13> C 	 -118.715 	 30.9222 	 -116.635
| 14> H 	 -117.874 	 30.2295 	 -116.55
| 15> H 	 -118.504 	 31.5269 	 -117.505
| 16> C 	 -119.996 	 30.0222 	 -116.872
| 17> H 	 -120.345 	 29.7028 	 -115.923
| 18> H 	 -120.825 	 30.703 	 -117.211
| 19> C 	 -119.749 	 28.7952 	 -117.827
| 20> H 	 -119.171 	 28.0456 	 -117.347
| 21> H 	 -120.623 	 28.4098 	 -118.288
| 22> H 	 -119.065 	 29.1001 	 -118.623
| 23> S 	 -117.02 	 35.9367 	 -113.456
| 24> C 	 -117.421 	 37.6803 	 -113.551
| 25> C 	 -118.666 	 37.9019 	 -114.107
| 26> C 	 -119.305 	 36.6924 	 -114.44
| 27> C 	 -118.605 	 35.4877 	 -114.112
| 28> H 	 -118.928 	 38.9134 	 -114.29
| 29> C 	 -120.607 	 36.5945 	 -115.188
| 30> H 	 -120.443 	 36.2511 	 -116.183
| 31> H 	 -120.857 	 37.6378 	 -115.295
| 32> C 	 -121.745 	 35.7998 	 -114.46
| 33> H 	 -121.917 	 36.192 	 -113.488
| 34> H 	 -121.482 	 34.7886 	 -114.412
| 35> C 	 -123.091 	 36.0673 	 -115.103
| 36> H 	 -123.061 	 35.7979 	 -116.138
| 37> H 	 -123.353 	 37.0772 	 -115.116
| 38> H 	 -123.752 	 35.498 	 -114.534
| 39> H 	 -119.471 	 30.532 	 -113.835
| 40> H 	 -116.809 	 38.4658 	 -113.262
| 41> *
| 42>
| 43>                          ****END OF INPUT****

CARTESIAN COORDINATES (ANGSTROEM)
---------------------------------
  S    -119.281000   32.961700  -113.096000
  C    -119.262000   31.570700  -114.159000
  C    -118.810000   31.867700  -115.408000
  C    -118.538000   33.301200  -115.465000
  C    -118.869000   34.071500  -114.394000
  H    -118.120000   33.799700  -116.349000
  C    -118.715000   30.922200  -116.635000
  H    -117.874000   30.229500  -116.550000
  H    -118.504000   31.526900  -117.505000
  C    -119.996000   30.022200  -116.872000
  H    -120.345000   29.702800  -115.923000
  H    -120.825000   30.703000  -117.211000
  C    -119.749000   28.795200  -117.827000
  H    -119.171000   28.045600  -117.347000
  H    -120.623000   28.409800  -118.288000
  H    -119.065000   29.100100  -118.623000
  S    -117.020000   35.936700  -113.456000
  C    -117.421000   37.680300  -113.551000
  C    -118.666000   37.901900  -114.107000
  C    -119.305000   36.692400  -114.440000
  C    -118.605000   35.487700  -114.112000
  H    -118.928000   38.913400  -114.290000
  C    -120.607000   36.594500  -115.188000
  H    -120.443000   36.251100  -116.183000
  H    -120.857000   37.637800  -115.295000
  C    -121.745000   35.799800  -114.460000
  H    -121.917000   36.192000  -113.488000
  H    -121.482000   34.788600  -114.412000
  C    -123.091000   36.067300  -115.103000
  H    -123.061000   35.797900  -116.138000
  H    -123.353000   37.077200  -115.116000
  H    -123.752000   35.498000  -114.534000
  H    -119.471000   30.532000  -113.835000
  H    -116.809000   38.465800  -113.262000

 Total Charge           Charge          ....    0
 Multiplicity           Mult            ....    1
 Number of Electrons    NEL             ....  134
 Basis Dimension        Dim             ....  322

ORBITAL ENERGIES
----------------

  NO   OCC          E(Eh)            E(eV)
   0   2.0000     -88.965943     -2420.8864
   1   2.0000     -88.962177     -2420.7839
   2   2.0000     -10.329662      -281.0844
   3   2.0000     -10.329003      -281.0665
   4   2.0000     -10.317801      -280.7616
   5   2.0000     -10.317139      -280.7436
   6   2.0000     -10.305848      -280.4364
   7   2.0000     -10.305040      -280.4144
   8   2.0000     -10.301063      -280.3062
   9   2.0000     -10.297871      -280.2193
  10   2.0000     -10.294995      -280.1411
  11   2.0000     -10.292964      -280.0858
  12   2.0000     -10.280656      -279.7509
  13   2.0000     -10.279523      -279.7200
  14   2.0000     -10.271113      -279.4912
  15   2.0000     -10.258541      -279.1491
  16   2.0000      -8.079411      -219.8520
  17   2.0000      -8.076954      -219.7851
  18   2.0000      -6.037902      -164.2997
  19   2.0000      -6.035581      -164.2365
  20   2.0000      -6.034003      -164.1936
  21   2.0000      -6.031445      -164.1240
  22   2.0000      -6.030353      -164.0943
  23   2.0000      -6.027556      -164.0181
  24   2.0000      -1.003033       -27.2939
  25   2.0000      -0.980068       -26.6690
  26   2.0000      -0.905507       -24.6401
  27   2.0000      -0.903783       -24.5932
  28   2.0000      -0.869855       -23.6699
  29   2.0000      -0.851199       -23.1623
  30   2.0000      -0.842718       -22.9315
  31   2.0000      -0.818418       -22.2703
  32   2.0000      -0.784063       -21.3354
  33   2.0000      -0.766623       -20.8609
  34   2.0000      -0.711949       -19.3731
  35   2.0000      -0.709371       -19.3030
  36   2.0000      -0.692429       -18.8420
  37   2.0000      -0.660831       -17.9821
  38   2.0000      -0.642164       -17.4742
  39   2.0000      -0.614988       -16.7347
  40   2.0000      -0.591689       -16.1007
  41   2.0000      -0.574603       -15.6358
  42   2.0000      -0.566218       -15.4076
  43   2.0000      -0.557631       -15.1739
  44   2.0000      -0.534148       -14.5349
  45   2.0000      -0.524737       -14.2788
  46   2.0000      -0.519910       -14.1475
  47   2.0000      -0.509165       -13.8551
  48   2.0000      -0.505103       -13.7446
  49   2.0000      -0.500917       -13.6306
  50   2.0000      -0.487835       -13.2747
  51   2.0000      -0.482409       -13.1270
  52   2.0000      -0.469725       -12.7819
  53   2.0000      -0.466747       -12.7008
  54   2.0000      -0.459576       -12.5057
  55   2.0000      -0.448552       -12.2057
  56   2.0000      -0.447114       -12.1666
  57   2.0000      -0.435799       -11.8587
  58   2.0000      -0.430384       -11.7114
  59   2.0000      -0.425076       -11.5669
  60   2.0000      -0.420871       -11.4525
  61   2.0000      -0.416993       -11.3469
  62   2.0000      -0.409478       -11.1425
  63   2.0000      -0.339874        -9.2484
  64   2.0000      -0.326940        -8.8965
  65   2.0000      -0.322596        -8.7783
  66   2.0000      -0.306626        -8.3437
  67   0.0000       0.039958         1.0873
  68   0.0000       0.049238         1.3398
  69   0.0000       0.116611         3.1732
  70   0.0000       0.121407         3.3036
  71   0.0000       0.131374         3.5749

MULLIKEN ATOMIC CHARGES
-----------------------
   0 S :    0.103378
   1 C :   -0.141616
   2 C :   -0.081082
   3 C :    0.034201
   4 C :   -0.180453
   5 H :    0.015115
   6 C :    0.078597
   7 H :    0.034622
   8 H :    0.022597
   9 C :   -0.095870
  10 H :    0.016483
  11 H :    0.040440
  12 C :   -0.023363
  13 H :    0.025993
  14 H :    0.038216
  15 H :    0.023020
  16 S :    0.111186
  17 C :   -0.072726
  18 C :   -0.023669
  19 C :   -0.038898
  20 C :   -0.155232
  21 H :    0.011378
  22 C :    0.090600
  23 H :    0.025960
  24 H :   -0.007916
  25 C :   -0.059553
  26 H :    0.018105
  27 H :    0.036067
  28 C :    0.017371
  29 H :    0.011784
  30 H :    0.010575
  31 H :    0.021242
  32 H :    0.062522
  33 H :    0.030925
Sum of atomic charges:   -0.0000000

LOEWDIN ATOMIC CHARGES
----------------------
   0 S :    0.399306
   1 C :   -0.191005
   2 C :   -0.070399
   3 C :   -0.055987
   4 C :   -0.205290
   5 H :    0.031673
   6 C :   -0.026653
   7 H :    0.030774
   8 H :    0.027328
   9 C :   -0.036173
  10 H :    0.012503
  11 H :    0.030810
  12 C :   -0.060804
  13 H :    0.022481
  14 H :    0.024922
  15 H :    0.027257
  16 S :    0.392134
  17 C :   -0.155551
  18 C :   -0.071808
  19 C :   -0.044920
  20 C :   -0.207480
  21 H :    0.031863
  22 C :   -0.030307
  23 H :    0.027832
  24 H :    0.023251
  25 C :   -0.022670
  26 H :    0.023089
  27 H :    0.015273
  28 C :   -0.048014
  29 H :    0.019238
  30 H :    0.016286
  31 H :    0.020605
  32 H :    0.034780
  33 H :    0.015656

  Mayer bond orders larger than 0.100000
B(  0-S ,  1-C ) :   1.1477 B(  0-S ,  4-C ) :   1.1218 B(  1-C ,  2-C ) :   1.6346
B(  1-C , 32-H ) :   0.9587 B(  2-C ,  3-C ) :   1.2263 B(  2-C ,  6-C ) :   1.0076
B(  3-C ,  4-C ) :   1.6325 B(  3-C ,  5-H ) :   0.9888 B(  4-C , 20-C ) :   1.0117
B(  6-C ,  7-H ) :   0.9432 B(  6-C ,  8-H ) :   0.9445 B(  6-C ,  9-C ) :   1.0503
B(  9-C , 10-H ) :   0.9641 B(  9-C , 11-H ) :   0.9600 B(  9-C , 12-C ) :   1.0668
B( 12-C , 13-H ) :   0.9747 B( 12-C , 14-H ) :   0.9769 B( 12-C , 15-H ) :   0.9769
B( 16-S , 17-C ) :   1.1710 B( 16-S , 20-C ) :   1.1406 B( 17-C , 18-C ) :   1.5955
B( 17-C , 20-C ) :   0.1111 B( 17-C , 33-H ) :   0.9688 B( 18-C , 19-C ) :   1.2686
B( 18-C , 21-H ) :   0.9965 B( 19-C , 20-C ) :   1.5587 B( 19-C , 22-C ) :   1.0413
B( 22-C , 23-H ) :   0.9247 B( 22-C , 24-H ) :   0.9308 B( 22-C , 25-C ) :   1.0667
B( 25-C , 26-H ) :   0.9562 B( 25-C , 27-H ) :   0.9556 B( 25-C , 28-C ) :   1.0934
B( 28-C , 29-H ) :   0.9709 B( 28-C , 30-H ) :   0.9741 B( 28-C , 31-H ) :   0.9734

Dispersion correction           -0.013997446
FINAL SINGLE POINT ENERGY     -1339.864445616024

DIPOLE MOMENT
-------------
                                X             Y             Z
Electronic contribution:     17.27436      10.65747      18.03618
Nuclear contribution   :    -17.42533     -10.70705     -18.62950
                        -----------------------------------------
Total Dipole Moment    :     -0.15097      -0.04958      -0.59332
                        -----------------------------------------
Magnitude (a.u.)       :      0.61423
Magnitude (Debye)      :      1.56125

Rotational constants in cm-1:     0.020178     0.007626     0.006421
Rotational constants in MHz :   604.925900   228.612362   192.494018

                             ****ORCA TERMINATED NORMALLY****
TOTAL RUN TIME: 0 days 0 hours 0 minutes 21 seconds 346 msec
