                         Program Version 4.2.1 -  RELEASE  -
|  1> ! wB97X-D3 SP def2-SVP
|  2> %pal
|  3> nprocs 24
|  4> end
|  5>
|  6> * xyz 0 1
|  7> S 	 -98.2771 	 18.0209 	 -122.714
|  8> C 	 -97.1435 	 18.5702 	 -121.525
|  9> C 	 -97.8028 	 18.7939 	 -120.295
| 10> C 	 -99.1928 	 18.7163 	 -120.43
| 11> C 	 -99.5837 	 18.4216 	 -121.699
| 12> H 	 -99.9129 	 19.015 	 -119.716
| 13> C 	 -97.1681 	 19.184 	 -118.978
| 14> H 	 -97.7001 	 20.0341 	 -118.537
| 15> H 	 -96.121 	 19.6078 	 -119.151
| 16> C 	 -97.0853 	 18.0209 	 -117.917
| 17> H 	 -97.9228 	 17.3595 	 -118.064
| 18> H 	 -96.0944 	 17.4429 	 -117.969
| 19> C 	 -97.0772 	 18.5457 	 -116.468
| 20> H 	 -97.1064 	 17.7019 	 -115.77
| 21> H 	 -96.2048 	 19.1812 	 -116.371
| 22> H 	 -97.9678 	 19.1498 	 -116.2
| 23> S 	 -101.343 	 18.7522 	 -123.692
| 24> C 	 -102.646 	 17.6647 	 -123.865
| 25> C 	 -102.846 	 16.8794 	 -122.728
| 26> C 	 -101.759 	 17.0159 	 -121.815
| 27> C 	 -100.892 	 18.0306 	 -122.174
| 28> H 	 -103.697 	 16.2159 	 -122.741
| 29> C 	 -101.738 	 16.2897 	 -120.474
| 30> H 	 -100.835 	 16.6246 	 -119.965
| 31> H 	 -101.564 	 15.2336 	 -120.74
| 32> C 	 -102.877 	 16.4009 	 -119.496
| 33> H 	 -102.658 	 15.8167 	 -118.699
| 34> H 	 -103.772 	 15.9475 	 -119.763
| 35> C 	 -103.182 	 17.8822 	 -118.974
| 36> H 	 -102.304 	 18.5339 	 -118.963
| 37> H 	 -103.608 	 17.8957 	 -117.988
| 38> H 	 -103.92 	 18.4193 	 -119.568
| 39> H 	 -96.0784 	 18.687 	 -121.658
| 40> H 	 -103.359 	 17.778 	 -124.692
| 41> *
| 42>
| 43>                          ****END OF INPUT****

CARTESIAN COORDINATES (ANGSTROEM)
---------------------------------
  S    -98.277100   18.020900  -122.714000
  C    -97.143500   18.570200  -121.525000
  C    -97.802800   18.793900  -120.295000
  C    -99.192800   18.716300  -120.430000
  C    -99.583700   18.421600  -121.699000
  H    -99.912900   19.015000  -119.716000
  C    -97.168100   19.184000  -118.978000
  H    -97.700100   20.034100  -118.537000
  H    -96.121000   19.607800  -119.151000
  C    -97.085300   18.020900  -117.917000
  H    -97.922800   17.359500  -118.064000
  H    -96.094400   17.442900  -117.969000
  C    -97.077200   18.545700  -116.468000
  H    -97.106400   17.701900  -115.770000
  H    -96.204800   19.181200  -116.371000
  H    -97.967800   19.149800  -116.200000
  S    -101.343000   18.752200  -123.692000
  C    -102.646000   17.664700  -123.865000
  C    -102.846000   16.879400  -122.728000
  C    -101.759000   17.015900  -121.815000
  C    -100.892000   18.030600  -122.174000
  H    -103.697000   16.215900  -122.741000
  C    -101.738000   16.289700  -120.474000
  H    -100.835000   16.624600  -119.965000
  H    -101.564000   15.233600  -120.740000
  C    -102.877000   16.400900  -119.496000
  H    -102.658000   15.816700  -118.699000
  H    -103.772000   15.947500  -119.763000
  C    -103.182000   17.882200  -118.974000
  H    -102.304000   18.533900  -118.963000
  H    -103.608000   17.895700  -117.988000
  H    -103.920000   18.419300  -119.568000
  H    -96.078400   18.687000  -121.658000
  H    -103.359000   17.778000  -124.692000

 Total Charge           Charge          ....    0
 Multiplicity           Mult            ....    1
 Number of Electrons    NEL             ....  134
 Basis Dimension        Dim             ....  322

ORBITAL ENERGIES
----------------

  NO   OCC          E(Eh)            E(eV)
   0   2.0000     -88.965410     -2420.8719
   1   2.0000     -88.962090     -2420.7815
   2   2.0000     -10.318878      -280.7910
   3   2.0000     -10.317905      -280.7645
   4   2.0000     -10.314397      -280.6690
   5   2.0000     -10.312128      -280.6073
   6   2.0000     -10.302654      -280.3495
   7   2.0000     -10.299869      -280.2737
   8   2.0000     -10.298576      -280.2385
   9   2.0000     -10.293315      -280.0953
  10   2.0000     -10.293245      -280.0934
  11   2.0000     -10.289272      -279.9853
  12   2.0000     -10.284323      -279.8506
  13   2.0000     -10.280120      -279.7363
  14   2.0000     -10.278227      -279.6848
  15   2.0000     -10.277622      -279.6683
  16   2.0000      -8.081207      -219.9008
  17   2.0000      -8.078096      -219.8162
  18   2.0000      -6.039574      -164.3452
  19   2.0000      -6.036275      -164.2554
  20   2.0000      -6.035506      -164.2345
  21   2.0000      -6.032356      -164.1487
  22   2.0000      -6.032077      -164.1412
  23   2.0000      -6.029205      -164.0630
  24   2.0000      -1.016378       -27.6570
  25   2.0000      -0.989113       -26.9151
  26   2.0000      -0.908835       -24.7307
  27   2.0000      -0.905965       -24.6526
  28   2.0000      -0.868237       -23.6259
  29   2.0000      -0.853900       -23.2358
  30   2.0000      -0.846952       -23.0467
  31   2.0000      -0.812454       -22.1080
  32   2.0000      -0.784536       -21.3483
  33   2.0000      -0.769237       -20.9320
  34   2.0000      -0.717272       -19.5180
  35   2.0000      -0.695225       -18.9180
  36   2.0000      -0.692233       -18.8366
  37   2.0000      -0.659555       -17.9474
  38   2.0000      -0.645733       -17.5713
  39   2.0000      -0.624443       -16.9920
  40   2.0000      -0.593930       -16.1616
  41   2.0000      -0.566244       -15.4083
  42   2.0000      -0.555990       -15.1293
  43   2.0000      -0.552970       -15.0471
  44   2.0000      -0.540574       -14.7098
  45   2.0000      -0.526223       -14.3192
  46   2.0000      -0.521543       -14.1919
  47   2.0000      -0.509813       -13.8727
  48   2.0000      -0.497899       -13.5485
  49   2.0000      -0.495036       -13.4706
  50   2.0000      -0.493334       -13.4243
  51   2.0000      -0.477888       -13.0040
  52   2.0000      -0.467359       -12.7175
  53   2.0000      -0.461987       -12.5713
  54   2.0000      -0.455263       -12.3883
  55   2.0000      -0.453008       -12.3270
  56   2.0000      -0.452159       -12.3039
  57   2.0000      -0.439018       -11.9463
  58   2.0000      -0.434302       -11.8179
  59   2.0000      -0.424805       -11.5595
  60   2.0000      -0.421593       -11.4721
  61   2.0000      -0.417085       -11.3495
  62   2.0000      -0.414318       -11.2742
  63   2.0000      -0.338177        -9.2023
  64   2.0000      -0.334777        -9.1097
  65   2.0000      -0.327406        -8.9092
  66   2.0000      -0.294796        -8.0218
  67   0.0000       0.035657         0.9703
  68   0.0000       0.068913         1.8752
  69   0.0000       0.117399         3.1946
  70   0.0000       0.121647         3.3102
  71   0.0000       0.128742         3.5033

MULLIKEN ATOMIC CHARGES
-----------------------
   0 S :    0.134738
   1 C :   -0.113643
   2 C :   -0.077232
   3 C :    0.021768
   4 C :   -0.110789
   5 H :   -0.003185
   6 C :    0.029328
   7 H :    0.030457
   8 H :    0.029352
   9 C :   -0.082913
  10 H :    0.032887
  11 H :    0.047679
  12 C :   -0.070906
  13 H :    0.039027
  14 H :    0.035655
  15 H :    0.030627
  16 S :    0.110400
  17 C :   -0.110882
  18 C :   -0.036364
  19 C :   -0.007303
  20 C :   -0.207025
  21 H :    0.020094
  22 C :    0.057611
  23 H :    0.015348
  24 H :    0.030847
  25 C :    0.030566
  26 H :   -0.001818
  27 H :    0.001092
  28 C :   -0.066584
  29 H :    0.022903
  30 H :    0.026114
  31 H :    0.035627
  32 H :    0.042014
  33 H :    0.064508
Sum of atomic charges:   -0.0000000

LOEWDIN ATOMIC CHARGES
----------------------
   0 S :    0.446140
   1 C :   -0.206661
   2 C :   -0.062424
   3 C :   -0.065711
   4 C :   -0.210888
   5 H :    0.026170
   6 C :   -0.039240
   7 H :    0.029454
   8 H :    0.035480
   9 C :   -0.041089
  10 H :    0.018223
  11 H :    0.035794
  12 C :   -0.069781
  13 H :    0.027765
  14 H :    0.023823
  15 H :    0.022751
  16 S :    0.428274
  17 C :   -0.197761
  18 C :   -0.072453
  19 C :   -0.051353
  20 C :   -0.214113
  21 H :    0.031790
  22 C :   -0.030297
  23 H :    0.029212
  24 H :    0.037217
  25 C :   -0.026995
  26 H :    0.016980
  27 H :    0.016278
  28 C :   -0.064969
  29 H :    0.022240
  30 H :    0.023427
  31 H :    0.027248
  32 H :    0.026047
  33 H :    0.029424

  Mayer bond orders larger than 0.100000
B(  0-S ,  1-C ) :   1.1553 B(  0-S ,  4-C ) :   1.1860 B(  1-C ,  2-C ) :   1.5730
B(  1-C ,  4-C ) :   0.1017 B(  1-C , 32-H ) :   0.9724 B(  2-C ,  3-C ) :   1.2591
B(  2-C ,  6-C ) :   1.0368 B(  3-C ,  4-C ) :   1.5554 B(  3-C ,  5-H ) :   1.0116
B(  4-C , 20-C ) :   1.0085 B(  6-C ,  7-H ) :   0.9534 B(  6-C ,  8-H ) :   0.9390
B(  6-C ,  9-C ) :   1.0370 B(  9-C , 10-H ) :   0.9658 B(  9-C , 11-H ) :   0.9571
B(  9-C , 12-C ) :   1.0758 B( 12-C , 13-H ) :   0.9742 B( 12-C , 14-H ) :   0.9769
B( 12-C , 15-H ) :   0.9762 B( 16-S , 17-C ) :   1.1870 B( 16-S , 20-C ) :   1.1507
B( 17-C , 18-C ) :   1.5862 B( 17-C , 33-H ) :   0.9642 B( 18-C , 19-C ) :   1.2347
B( 18-C , 21-H ) :   0.9967 B( 19-C , 20-C ) :   1.5790 B( 19-C , 22-C ) :   1.0404
B( 22-C , 23-H ) :   0.9371 B( 22-C , 24-H ) :   0.9214 B( 22-C , 25-C ) :   1.0935
B( 25-C , 26-H ) :   0.9450 B( 25-C , 27-H ) :   0.9459 B( 25-C , 28-C ) :   1.0546
B( 28-C , 29-H ) :   0.9824 B( 28-C , 30-H ) :   0.9762 B( 28-C , 31-H ) :   0.9770

Dispersion correction           -0.014580375
FINAL SINGLE POINT ENERGY     -1339.873440119851

DIPOLE MOMENT
-------------
                                X             Y             Z
Electronic contribution:      0.57303       3.11917     -30.63697
Nuclear contribution   :     -0.74629      -3.33032      31.21031
                        -----------------------------------------
Total Dipole Moment    :     -0.17326      -0.21115       0.57334
                        -----------------------------------------
Magnitude (a.u.)       :      0.63508
Magnitude (Debye)      :      1.61423

Rotational constants in cm-1:     0.018825     0.009350     0.006778
Rotational constants in MHz :   564.373811   280.302439   203.187026

                             ****ORCA TERMINATED NORMALLY****
TOTAL RUN TIME: 0 days 0 hours 0 minutes 21 seconds 32 msec
