                         Program Version 4.2.1 -  RELEASE  -
|  1> ! wB97X-D3 SP def2-SVP
|  2> %pal
|  3> nprocs 24
|  4> end
|  5>
|  6> * xyz 0 1
|  7> S 	 -40.8126 	 14.7825 	 19.8454
|  8> C 	 -42.2863 	 14.9149 	 20.8686
|  9> C 	 -43.3382 	 15.506 	 20.1039
| 10> C 	 -43.0238 	 15.6962 	 18.7284
| 11> C 	 -41.707 	 15.4063 	 18.4174
| 12> H 	 -43.745 	 15.8921 	 18.0147
| 13> C 	 -44.6735 	 15.7558 	 20.733
| 14> H 	 -44.82 	 16.8412 	 20.8524
| 15> H 	 -44.6042 	 15.4389 	 21.8354
| 16> C 	 -45.97 	 15.086 	 20.073
| 17> H 	 -46.0882 	 15.4023 	 19.0409
| 18> H 	 -45.883 	 13.9692 	 20.165
| 19> C 	 -47.2504 	 15.5171 	 20.847
| 20> H 	 -47.3899 	 16.5613 	 20.7478
| 21> H 	 -48.1257 	 14.8846 	 20.5591
| 22> H 	 -47.1229 	 15.4143 	 21.9707
| 23> S 	 -39.9063 	 14.4474 	 16.5931
| 24> C 	 -39.6017 	 15.3377 	 15.1037
| 25> C 	 -40.5495 	 16.3266 	 14.9197
| 26> C 	 -41.3141 	 16.5896 	 16.1144
| 27> C 	 -41.1034 	 15.6055 	 17.0985
| 28> H 	 -40.471 	 16.9082 	 13.9924
| 29> C 	 -42.2724 	 17.7928 	 16.1887
| 30> H 	 -41.7132 	 18.6641 	 16.1062
| 31> H 	 -42.6752 	 17.7811 	 17.2174
| 32> C 	 -43.3677 	 17.7478 	 15.1342
| 33> H 	 -42.9402 	 17.9857 	 14.1629
| 34> H 	 -44.074 	 18.5219 	 15.3351
| 35> C 	 -44.1093 	 16.394 	 15.0131
| 36> H 	 -44.8204 	 16.3241 	 14.182
| 37> H 	 -44.5354 	 16.2424 	 16.0288
| 38> H 	 -43.4348 	 15.5623 	 15.0202
| 39> H 	 -42.4886 	 14.6049 	 21.8449
| 40> H 	 -38.9588 	 15.1487 	 14.2927
| 41> *
| 42>
| 43>                          ****END OF INPUT****

CARTESIAN COORDINATES (ANGSTROEM)
---------------------------------
  S    -40.812600   14.782500   19.845400
  C    -42.286300   14.914900   20.868600
  C    -43.338200   15.506000   20.103900
  C    -43.023800   15.696200   18.728400
  C    -41.707000   15.406300   18.417400
  H    -43.745000   15.892100   18.014700
  C    -44.673500   15.755800   20.733000
  H    -44.820000   16.841200   20.852400
  H    -44.604200   15.438900   21.835400
  C    -45.970000   15.086000   20.073000
  H    -46.088200   15.402300   19.040900
  H    -45.883000   13.969200   20.165000
  C    -47.250400   15.517100   20.847000
  H    -47.389900   16.561300   20.747800
  H    -48.125700   14.884600   20.559100
  H    -47.122900   15.414300   21.970700
  S    -39.906300   14.447400   16.593100
  C    -39.601700   15.337700   15.103700
  C    -40.549500   16.326600   14.919700
  C    -41.314100   16.589600   16.114400
  C    -41.103400   15.605500   17.098500
  H    -40.471000   16.908200   13.992400
  C    -42.272400   17.792800   16.188700
  H    -41.713200   18.664100   16.106200
  H    -42.675200   17.781100   17.217400
  C    -43.367700   17.747800   15.134200
  H    -42.940200   17.985700   14.162900
  H    -44.074000   18.521900   15.335100
  C    -44.109300   16.394000   15.013100
  H    -44.820400   16.324100   14.182000
  H    -44.535400   16.242400   16.028800
  H    -43.434800   15.562300   15.020200
  H    -42.488600   14.604900   21.844900
  H    -38.958800   15.148700   14.292700

 Total Charge           Charge          ....    0
 Multiplicity           Mult            ....    1
 Number of Electrons    NEL             ....  134
 Basis Dimension        Dim             ....  322

ORBITAL ENERGIES
----------------

  NO   OCC          E(Eh)            E(eV)
   0   2.0000     -88.972370     -2421.0613
   1   2.0000     -88.968497     -2420.9559
   2   2.0000     -10.337332      -281.2931
   3   2.0000     -10.330899      -281.1181
   4   2.0000     -10.317836      -280.7626
   5   2.0000     -10.315780      -280.7067
   6   2.0000     -10.309651      -280.5399
   7   2.0000     -10.304663      -280.4041
   8   2.0000     -10.302492      -280.3451
   9   2.0000     -10.299486      -280.2632
  10   2.0000     -10.296436      -280.1803
  11   2.0000     -10.291122      -280.0357
  12   2.0000     -10.288625      -279.9677
  13   2.0000     -10.285355      -279.8787
  14   2.0000     -10.285045      -279.8703
  15   2.0000     -10.277823      -279.6738
  16   2.0000      -8.084941      -220.0024
  17   2.0000      -8.083007      -219.9498
  18   2.0000      -6.043684      -164.4570
  19   2.0000      -6.041621      -164.4009
  20   2.0000      -6.039773      -164.3506
  21   2.0000      -6.037522      -164.2893
  22   2.0000      -6.035544      -164.2355
  23   2.0000      -6.033688      -164.1850
  24   2.0000      -1.002391       -27.2765
  25   2.0000      -0.976467       -26.5710
  26   2.0000      -0.911884       -24.8136
  27   2.0000      -0.902290       -24.5525
  28   2.0000      -0.867960       -23.6184
  29   2.0000      -0.849124       -23.1058
  30   2.0000      -0.841906       -22.9094
  31   2.0000      -0.818894       -22.2832
  32   2.0000      -0.783730       -21.3264
  33   2.0000      -0.766214       -20.8498
  34   2.0000      -0.714874       -19.4527
  35   2.0000      -0.698964       -19.0198
  36   2.0000      -0.696932       -18.9645
  37   2.0000      -0.656840       -17.8735
  38   2.0000      -0.639979       -17.4147
  39   2.0000      -0.626739       -17.0544
  40   2.0000      -0.591073       -16.0839
  41   2.0000      -0.567887       -15.4530
  42   2.0000      -0.562346       -15.3022
  43   2.0000      -0.557440       -15.1687
  44   2.0000      -0.543695       -14.7947
  45   2.0000      -0.526219       -14.3191
  46   2.0000      -0.514390       -13.9973
  47   2.0000      -0.509514       -13.8646
  48   2.0000      -0.504791       -13.7361
  49   2.0000      -0.500128       -13.6092
  50   2.0000      -0.494106       -13.4453
  51   2.0000      -0.477899       -13.0043
  52   2.0000      -0.464610       -12.6427
  53   2.0000      -0.460869       -12.5409
  54   2.0000      -0.456470       -12.4212
  55   2.0000      -0.448834       -12.2134
  56   2.0000      -0.445693       -12.1279
  57   2.0000      -0.443260       -12.0617
  58   2.0000      -0.434893       -11.8340
  59   2.0000      -0.431297       -11.7362
  60   2.0000      -0.422339       -11.4924
  61   2.0000      -0.414286       -11.2733
  62   2.0000      -0.410625       -11.1737
  63   2.0000      -0.351827        -9.5737
  64   2.0000      -0.333038        -9.0624
  65   2.0000      -0.329600        -8.9689
  66   2.0000      -0.285880        -7.7792
  67   0.0000       0.018568         0.5053
  68   0.0000       0.076617         2.0848
  69   0.0000       0.100172         2.7258
  70   0.0000       0.115055         3.1308
  71   0.0000       0.130897         3.5619

MULLIKEN ATOMIC CHARGES
-----------------------
   0 S :    0.109458
   1 C :   -0.090991
   2 C :   -0.078554
   3 C :    0.061407
   4 C :   -0.100857
   5 H :   -0.048686
   6 C :    0.000287
   7 H :    0.040314
   8 H :    0.021384
   9 C :   -0.082537
  10 H :    0.042193
  11 H :    0.049996
  12 C :   -0.067195
  13 H :    0.025118
  14 H :    0.052206
  15 H :    0.029521
  16 S :    0.109620
  17 C :   -0.064616
  18 C :   -0.058708
  19 C :   -0.096027
  20 C :   -0.150244
  21 H :    0.032256
  22 C :    0.121100
  23 H :    0.019135
  24 H :    0.019760
  25 C :   -0.069827
  26 H :    0.022787
  27 H :    0.027202
  28 C :   -0.049733
  29 H :    0.048353
  30 H :    0.023002
  31 H :    0.038561
  32 H :    0.025944
  33 H :    0.038374
Sum of atomic charges:    0.0000000

LOEWDIN ATOMIC CHARGES
----------------------
   0 S :    0.373980
   1 C :   -0.183075
   2 C :   -0.056200
   3 C :   -0.058419
   4 C :   -0.169954
   5 H :    0.014489
   6 C :   -0.044169
   7 H :    0.032548
   8 H :    0.035406
   9 C :   -0.038411
  10 H :    0.022062
  11 H :    0.032342
  12 C :   -0.071874
  13 H :    0.017417
  14 H :    0.033272
  15 H :    0.029159
  16 S :    0.406103
  17 C :   -0.175985
  18 C :   -0.072116
  19 C :   -0.050991
  20 C :   -0.204082
  21 H :    0.036059
  22 C :   -0.023797
  23 H :    0.025355
  24 H :    0.031486
  25 C :   -0.036149
  26 H :    0.018622
  27 H :    0.022426
  28 C :   -0.066378
  29 H :    0.029913
  30 H :    0.025140
  31 H :    0.024189
  32 H :    0.017903
  33 H :    0.023731

  Mayer bond orders larger than 0.100000
B(  0-S ,  1-C ) :   1.1161 B(  0-S ,  4-C ) :   1.1352 B(  1-C ,  2-C ) :   1.6001
B(  1-C ,  4-C ) :   0.1009 B(  1-C , 32-H ) :   0.9708 B(  2-C ,  3-C ) :   1.2484
B(  2-C ,  6-C ) :   1.0404 B(  3-C ,  4-C ) :   1.5554 B(  3-C ,  5-H ) :   1.0005
B(  4-C , 20-C ) :   1.0660 B(  6-C ,  7-H ) :   0.9367 B(  6-C ,  8-H ) :   0.9409
B(  6-C ,  9-C ) :   1.0451 B(  9-C , 10-H ) :   0.9561 B(  9-C , 11-H ) :   0.9604
B(  9-C , 12-C ) :   1.0753 B( 12-C , 13-H ) :   0.9764 B( 12-C , 14-H ) :   0.9746
B( 12-C , 15-H ) :   0.9749 B( 16-S , 17-C ) :   1.1418 B( 16-S , 20-C ) :   1.1363
B( 17-C , 18-C ) :   1.6444 B( 17-C , 33-H ) :   0.9685 B( 18-C , 19-C ) :   1.2244
B( 18-C , 21-H ) :   0.9811 B( 19-C , 20-C ) :   1.5810 B( 19-C , 22-C ) :   1.0323
B( 22-C , 23-H ) :   0.9277 B( 22-C , 24-H ) :   0.9324 B( 22-C , 25-C ) :   1.0752
B( 25-C , 26-H ) :   0.9520 B( 25-C , 27-H ) :   0.9567 B( 25-C , 28-C ) :   1.0722
B( 28-C , 29-H ) :   0.9722 B( 28-C , 30-H ) :   0.9703 B( 28-C , 31-H ) :   0.9700

Dispersion correction           -0.014908492
FINAL SINGLE POINT ENERGY     -1339.870194091526

DIPOLE MOMENT
-------------
                                X             Y             Z
Electronic contribution:     29.40135      -9.53312       0.86260
Nuclear contribution   :    -30.00130       9.91985      -1.10370
                        -----------------------------------------
Total Dipole Moment    :     -0.59994       0.38673      -0.24111
                        -----------------------------------------
Magnitude (a.u.)       :      0.75341
Magnitude (Debye)      :      1.91501

Rotational constants in cm-1:     0.018911     0.009016     0.006610
Rotational constants in MHz :   566.950341   270.294407   198.160211

                             ****ORCA TERMINATED NORMALLY****
TOTAL RUN TIME: 0 days 0 hours 0 minutes 21 seconds 94 msec
