                         Program Version 4.2.1 -  RELEASE  -
|  1> ! wB97X-D3 SP def2-SVP
|  2> %pal
|  3> nprocs 24
|  4> end
|  5>
|  6> * xyz 0 1
|  7> S 	 -57.6519 	 15.2146 	 -90.0758
|  8> C 	 -56.7644 	 13.6771 	 -89.7184
|  9> C 	 -55.553 	 13.9351 	 -89.107
| 10> C 	 -55.4368 	 15.3032 	 -88.7287
| 11> C 	 -56.4394 	 16.1023 	 -89.1821
| 12> H 	 -54.7474 	 15.6742 	 -88.0089
| 13> C 	 -54.5204 	 12.9109 	 -88.6997
| 14> H 	 -54.7506 	 11.9171 	 -89.1687
| 15> H 	 -54.4332 	 12.8975 	 -87.5731
| 16> C 	 -53.2201 	 13.4473 	 -89.359
| 17> H 	 -53.2797 	 13.4523 	 -90.4207
| 18> H 	 -52.9288 	 14.4766 	 -89.1056
| 19> C 	 -51.9899 	 12.4849 	 -89.0498
| 20> H 	 -51.8504 	 12.5681 	 -87.959
| 21> H 	 -52.1112 	 11.4604 	 -89.4825
| 22> H 	 -51.0531 	 12.7168 	 -89.5364
| 23> S 	 -58.1085 	 17.9619 	 -88.1778
| 24> C 	 -57.4111 	 19.3793 	 -87.5765
| 25> C 	 -56.0899 	 19.639 	 -87.9375
| 26> C 	 -55.5669 	 18.611 	 -88.8141
| 27> C 	 -56.5168 	 17.5061 	 -88.8084
| 28> H 	 -55.6087 	 20.6093 	 -87.655
| 29> C 	 -54.2769 	 18.6824 	 -89.4978
| 30> H 	 -53.995 	 17.7577 	 -89.9491
| 31> H 	 -53.5152 	 18.9458 	 -88.7539
| 32> C 	 -54.2687 	 19.7057 	 -90.7073
| 33> H 	 -54.5205 	 20.6727 	 -90.3255
| 34> H 	 -55.0616 	 19.4569 	 -91.255
| 35> C 	 -53.0474 	 19.5168 	 -91.5855
| 36> H 	 -52.1012 	 19.9446 	 -91.1455
| 37> H 	 -53.2768 	 20.1829 	 -92.4555
| 38> H 	 -52.7851 	 18.5277 	 -91.9881
| 39> H 	 -57.0271 	 12.687 	 -90.071
| 40> H 	 -58.0221 	 20.0261 	 -86.9916
| 41> *
| 42>
| 43>                          ****END OF INPUT****

CARTESIAN COORDINATES (ANGSTROEM)
---------------------------------
  S    -57.651900   15.214600  -90.075800
  C    -56.764400   13.677100  -89.718400
  C    -55.553000   13.935100  -89.107000
  C    -55.436800   15.303200  -88.728700
  C    -56.439400   16.102300  -89.182100
  H    -54.747400   15.674200  -88.008900
  C    -54.520400   12.910900  -88.699700
  H    -54.750600   11.917100  -89.168700
  H    -54.433200   12.897500  -87.573100
  C    -53.220100   13.447300  -89.359000
  H    -53.279700   13.452300  -90.420700
  H    -52.928800   14.476600  -89.105600
  C    -51.989900   12.484900  -89.049800
  H    -51.850400   12.568100  -87.959000
  H    -52.111200   11.460400  -89.482500
  H    -51.053100   12.716800  -89.536400
  S    -58.108500   17.961900  -88.177800
  C    -57.411100   19.379300  -87.576500
  C    -56.089900   19.639000  -87.937500
  C    -55.566900   18.611000  -88.814100
  C    -56.516800   17.506100  -88.808400
  H    -55.608700   20.609300  -87.655000
  C    -54.276900   18.682400  -89.497800
  H    -53.995000   17.757700  -89.949100
  H    -53.515200   18.945800  -88.753900
  C    -54.268700   19.705700  -90.707300
  H    -54.520500   20.672700  -90.325500
  H    -55.061600   19.456900  -91.255000
  C    -53.047400   19.516800  -91.585500
  H    -52.101200   19.944600  -91.145500
  H    -53.276800   20.182900  -92.455500
  H    -52.785100   18.527700  -91.988100
  H    -57.027100   12.687000  -90.071000
  H    -58.022100   20.026100  -86.991600

 Total Charge           Charge          ....    0
 Multiplicity           Mult            ....    1
 Number of Electrons    NEL             ....  134
 Basis Dimension        Dim             ....  322

ORBITAL ENERGIES
----------------

  NO   OCC          E(Eh)            E(eV)
   0   2.0000     -88.965042     -2420.8619
   1   2.0000     -88.964669     -2420.8517
   2   2.0000     -10.328959      -281.0653
   3   2.0000     -10.324057      -280.9319
   4   2.0000     -10.313906      -280.6556
   5   2.0000     -10.312889      -280.6280
   6   2.0000     -10.312060      -280.6054
   7   2.0000     -10.304391      -280.3967
   8   2.0000     -10.300082      -280.2795
   9   2.0000     -10.298283      -280.2305
  10   2.0000     -10.289384      -279.9884
  11   2.0000     -10.286700      -279.9153
  12   2.0000     -10.286649      -279.9140
  13   2.0000     -10.283191      -279.8199
  14   2.0000     -10.281626      -279.7773
  15   2.0000     -10.278471      -279.6914
  16   2.0000      -8.080913      -219.8928
  17   2.0000      -8.078531      -219.8280
  18   2.0000      -6.038948      -164.3281
  19   2.0000      -6.037231      -164.2814
  20   2.0000      -6.035488      -164.2340
  21   2.0000      -6.033346      -164.1757
  22   2.0000      -6.031874      -164.1356
  23   2.0000      -6.028967      -164.0565
  24   2.0000      -1.003419       -27.3044
  25   2.0000      -0.980188       -26.6723
  26   2.0000      -0.915017       -24.8989
  27   2.0000      -0.909169       -24.7397
  28   2.0000      -0.862150       -23.4603
  29   2.0000      -0.856887       -23.3171
  30   2.0000      -0.839939       -22.8559
  31   2.0000      -0.809210       -22.0197
  32   2.0000      -0.780880       -21.2488
  33   2.0000      -0.766421       -20.8554
  34   2.0000      -0.712956       -19.4005
  35   2.0000      -0.700907       -19.0727
  36   2.0000      -0.691681       -18.8216
  37   2.0000      -0.654896       -17.8206
  38   2.0000      -0.635860       -17.3026
  39   2.0000      -0.621695       -16.9172
  40   2.0000      -0.600631       -16.3440
  41   2.0000      -0.569093       -15.4858
  42   2.0000      -0.567538       -15.4435
  43   2.0000      -0.550381       -14.9766
  44   2.0000      -0.520992       -14.1769
  45   2.0000      -0.519129       -14.1262
  46   2.0000      -0.515355       -14.0235
  47   2.0000      -0.511166       -13.9095
  48   2.0000      -0.508848       -13.8465
  49   2.0000      -0.499088       -13.5809
  50   2.0000      -0.487079       -13.2541
  51   2.0000      -0.479254       -13.0412
  52   2.0000      -0.471990       -12.8435
  53   2.0000      -0.461130       -12.5480
  54   2.0000      -0.456984       -12.4352
  55   2.0000      -0.454860       -12.3774
  56   2.0000      -0.445519       -12.1232
  57   2.0000      -0.440997       -12.0001
  58   2.0000      -0.430358       -11.7106
  59   2.0000      -0.427770       -11.6402
  60   2.0000      -0.427426       -11.6308
  61   2.0000      -0.414064       -11.2673
  62   2.0000      -0.410351       -11.1662
  63   2.0000      -0.342628        -9.3234
  64   2.0000      -0.328880        -8.9493
  65   2.0000      -0.327207        -8.9038
  66   2.0000      -0.281610        -7.6630
  67   0.0000       0.027850         0.7578
  68   0.0000       0.071959         1.9581
  69   0.0000       0.102783         2.7969
  70   0.0000       0.120915         3.2903
  71   0.0000       0.131867         3.5883

MULLIKEN ATOMIC CHARGES
-----------------------
   0 S :    0.091134
   1 C :   -0.124492
   2 C :   -0.079454
   3 C :    0.010196
   4 C :   -0.113495
   5 H :    0.013109
   6 C :    0.080253
   7 H :    0.031777
   8 H :    0.057032
   9 C :   -0.118144
  10 H :    0.026594
  11 H :    0.039567
  12 C :   -0.059934
  13 H :    0.038075
  14 H :    0.034445
  15 H :    0.024697
  16 S :    0.116691
  17 C :   -0.077920
  18 C :   -0.053212
  19 C :   -0.031069
  20 C :   -0.188685
  21 H :    0.037664
  22 C :    0.072052
  23 H :    0.005847
  24 H :    0.030864
  25 C :   -0.014527
  26 H :    0.019954
  27 H :    0.000305
  28 C :   -0.072865
  29 H :    0.036064
  30 H :    0.037886
  31 H :    0.046601
  32 H :    0.039238
  33 H :    0.043752
Sum of atomic charges:    0.0000000

LOEWDIN ATOMIC CHARGES
----------------------
   0 S :    0.365556
   1 C :   -0.185496
   2 C :   -0.059180
   3 C :   -0.066670
   4 C :   -0.194110
   5 H :    0.028211
   6 C :   -0.026022
   7 H :    0.037159
   8 H :    0.041251
   9 C :   -0.038536
  10 H :    0.020886
  11 H :    0.024592
  12 C :   -0.077585
  13 H :    0.025797
  14 H :    0.028656
  15 H :    0.020998
  16 S :    0.425203
  17 C :   -0.195119
  18 C :   -0.080620
  19 C :   -0.042744
  20 C :   -0.192813
  21 H :    0.039974
  22 C :   -0.033903
  23 H :    0.025275
  24 H :    0.032570
  25 C :   -0.022053
  26 H :    0.023260
  27 H :    0.010737
  28 C :   -0.071011
  29 H :    0.028464
  30 H :    0.034562
  31 H :    0.029894
  32 H :    0.025600
  33 H :    0.017219

  Mayer bond orders larger than 0.100000
B(  0-S ,  1-C ) :   1.0947 B(  0-S ,  4-C ) :   1.1310 B(  1-C ,  2-C ) :   1.6562
B(  1-C , 32-H ) :   0.9671 B(  2-C ,  3-C ) :   1.1943 B(  2-C ,  6-C ) :   1.0316
B(  3-C ,  4-C ) :   1.6104 B(  3-C ,  5-H ) :   0.9932 B(  4-C , 20-C ) :   1.0566
B(  6-C ,  7-H ) :   0.9403 B(  6-C ,  8-H ) :   0.9409 B(  6-C ,  9-C ) :   1.0426
B(  9-C , 10-H ) :   0.9581 B(  9-C , 11-H ) :   0.9610 B(  9-C , 12-C ) :   1.0761
B( 12-C , 13-H ) :   0.9778 B( 12-C , 14-H ) :   0.9740 B( 12-C , 15-H ) :   0.9759
B( 16-S , 17-C ) :   1.1824 B( 16-S , 20-C ) :   1.1499 B( 17-C , 18-C ) :   1.5928
B( 17-C , 33-H ) :   0.9706 B( 18-C , 19-C ) :   1.2289 B( 18-C , 21-H ) :   0.9838
B( 19-C , 20-C ) :   1.5351 B( 19-C , 22-C ) :   1.0816 B( 22-C , 23-H ) :   0.9299
B( 22-C , 24-H ) :   0.9276 B( 22-C , 25-C ) :   1.0525 B( 25-C , 26-H ) :   0.9553
B( 25-C , 27-H ) :   0.9484 B( 25-C , 28-C ) :   1.0851 B( 28-C , 29-H ) :   0.9750
B( 28-C , 30-H ) :   0.9735 B( 28-C , 31-H ) :   0.9726

Dispersion correction           -0.013735495
FINAL SINGLE POINT ENERGY     -1339.851617618683

DIPOLE MOMENT
-------------
                                X             Y             Z
Electronic contribution:    -29.31349       3.05479       5.78480
Nuclear contribution   :     29.94663      -2.93976      -5.77838
                        -----------------------------------------
Total Dipole Moment    :      0.63314       0.11504       0.00642
                        -----------------------------------------
Magnitude (a.u.)       :      0.64354
Magnitude (Debye)      :      1.63575

Rotational constants in cm-1:     0.015996     0.009089     0.006771
Rotational constants in MHz :   479.552699   272.480645   203.004383

                             ****ORCA TERMINATED NORMALLY****
TOTAL RUN TIME: 0 days 0 hours 0 minutes 21 seconds 316 msec
