                         Program Version 4.2.1 -  RELEASE  -
|  1> ! wB97X-D3 SP def2-SVP
|  2> %pal
|  3> nprocs 24
|  4> end
|  5>
|  6> * xyz 0 1
|  7> S 	 17.7192 	 -7.43244 	 -116.313
|  8> C 	 18.1652 	 -7.28645 	 -114.651
|  9> C 	 17.5238 	 -6.24086 	 -113.981
| 10> C 	 16.4479 	 -5.68017 	 -114.773
| 11> C 	 16.3699 	 -6.27426 	 -116.025
| 12> H 	 15.8597 	 -4.79621 	 -114.524
| 13> C 	 17.8794 	 -5.8711 	 -112.557
| 14> H 	 18.9715 	 -5.86645 	 -112.563
| 15> H 	 17.6854 	 -6.75154 	 -111.962
| 16> C 	 17.1541 	 -4.75669 	 -111.853
| 17> H 	 16.0489 	 -4.93577 	 -112.004
| 18> H 	 17.3935 	 -5.00923 	 -110.795
| 19> C 	 17.6804 	 -3.25178 	 -112.214
| 20> H 	 18.6935 	 -3.04298 	 -111.769
| 21> H 	 17.6845 	 -2.92553 	 -113.284
| 22> H 	 17.1427 	 -2.56976 	 -111.608
| 23> S 	 16.1884 	 -5.51972 	 -118.644
| 24> C 	 14.6919 	 -5.6532 	 -119.475
| 25> C 	 13.6972 	 -5.44124 	 -118.548
| 26> C 	 14.0814 	 -5.57266 	 -117.186
| 27> C 	 15.4818 	 -5.88451 	 -117.098
| 28> H 	 12.6998 	 -5.33939 	 -118.864
| 29> C 	 13.0997 	 -5.53191 	 -116.031
| 30> H 	 12.5395 	 -4.64142 	 -116.178
| 31> H 	 13.6674 	 -5.31123 	 -115.14
| 32> C 	 12.1409 	 -6.75765 	 -116.111
| 33> H 	 12.7463 	 -7.58677 	 -116.451
| 34> H 	 11.4093 	 -6.54067 	 -116.864
| 35> C 	 11.5288 	 -7.09991 	 -114.792
| 36> H 	 10.7803 	 -6.37359 	 -114.398
| 37> H 	 12.2475 	 -7.15997 	 -113.975
| 38> H 	 11.0602 	 -8.10238 	 -114.841
| 39> H 	 19.021 	 -7.83651 	 -114.358
| 40> H 	 14.497 	 -5.66597 	 -120.484
| 41> *
| 42>
| 43>                          ****END OF INPUT****

CARTESIAN COORDINATES (ANGSTROEM)
---------------------------------
  S     17.719200   -7.432440  -116.313000
  C     18.165200   -7.286450  -114.651000
  C     17.523800   -6.240860  -113.981000
  C     16.447900   -5.680170  -114.773000
  C     16.369900   -6.274260  -116.025000
  H     15.859700   -4.796210  -114.524000
  C     17.879400   -5.871100  -112.557000
  H     18.971500   -5.866450  -112.563000
  H     17.685400   -6.751540  -111.962000
  C     17.154100   -4.756690  -111.853000
  H     16.048900   -4.935770  -112.004000
  H     17.393500   -5.009230  -110.795000
  C     17.680400   -3.251780  -112.214000
  H     18.693500   -3.042980  -111.769000
  H     17.684500   -2.925530  -113.284000
  H     17.142700   -2.569760  -111.608000
  S     16.188400   -5.519720  -118.644000
  C     14.691900   -5.653200  -119.475000
  C     13.697200   -5.441240  -118.548000
  C     14.081400   -5.572660  -117.186000
  C     15.481800   -5.884510  -117.098000
  H     12.699800   -5.339390  -118.864000
  C     13.099700   -5.531910  -116.031000
  H     12.539500   -4.641420  -116.178000
  H     13.667400   -5.311230  -115.140000
  C     12.140900   -6.757650  -116.111000
  H     12.746300   -7.586770  -116.451000
  H     11.409300   -6.540670  -116.864000
  C     11.528800   -7.099910  -114.792000
  H     10.780300   -6.373590  -114.398000
  H     12.247500   -7.159970  -113.975000
  H     11.060200   -8.102380  -114.841000
  H     19.021000   -7.836510  -114.358000
  H     14.497000   -5.665970  -120.484000

 Total Charge           Charge          ....    0
 Multiplicity           Mult            ....    1
 Number of Electrons    NEL             ....  134
 Basis Dimension        Dim             ....  322

ORBITAL ENERGIES
----------------

  NO   OCC          E(Eh)            E(eV)
   0   2.0000     -88.965898     -2420.8852
   1   2.0000     -88.957571     -2420.6586
   2   2.0000     -10.331109      -281.1238
   3   2.0000     -10.322786      -280.8973
   4   2.0000     -10.309169      -280.5268
   5   2.0000     -10.305672      -280.4316
   6   2.0000     -10.304698      -280.4051
   7   2.0000     -10.303675      -280.3772
   8   2.0000     -10.301414      -280.3157
   9   2.0000     -10.299917      -280.2750
  10   2.0000     -10.290529      -280.0195
  11   2.0000     -10.289212      -279.9837
  12   2.0000     -10.285150      -279.8732
  13   2.0000     -10.283649      -279.8323
  14   2.0000     -10.282075      -279.7895
  15   2.0000     -10.276909      -279.6489
  16   2.0000      -8.080286      -219.8758
  17   2.0000      -8.073180      -219.6824
  18   2.0000      -6.038720      -164.3219
  19   2.0000      -6.034954      -164.2195
  20   2.0000      -6.031636      -164.1292
  21   2.0000      -6.031021      -164.1124
  22   2.0000      -6.027731      -164.0229
  23   2.0000      -6.023780      -163.9154
  24   2.0000      -1.003632       -27.3102
  25   2.0000      -0.981600       -26.7107
  26   2.0000      -0.910448       -24.7746
  27   2.0000      -0.908596       -24.7241
  28   2.0000      -0.868323       -23.6283
  29   2.0000      -0.848824       -23.0977
  30   2.0000      -0.840248       -22.8643
  31   2.0000      -0.814899       -22.1745
  32   2.0000      -0.783260       -21.3136
  33   2.0000      -0.769802       -20.9474
  34   2.0000      -0.713515       -19.4157
  35   2.0000      -0.702342       -19.1117
  36   2.0000      -0.691010       -18.8033
  37   2.0000      -0.654793       -17.8178
  38   2.0000      -0.642089       -17.4721
  39   2.0000      -0.623497       -16.9662
  40   2.0000      -0.592695       -16.1280
  41   2.0000      -0.565294       -15.3824
  42   2.0000      -0.561315       -15.2742
  43   2.0000      -0.546809       -14.8794
  44   2.0000      -0.533681       -14.5222
  45   2.0000      -0.528875       -14.3914
  46   2.0000      -0.517872       -14.0920
  47   2.0000      -0.512118       -13.9354
  48   2.0000      -0.502689       -13.6789
  49   2.0000      -0.497492       -13.5375
  50   2.0000      -0.491407       -13.3719
  51   2.0000      -0.482112       -13.1189
  52   2.0000      -0.471524       -12.8308
  53   2.0000      -0.463591       -12.6150
  54   2.0000      -0.459213       -12.4958
  55   2.0000      -0.451126       -12.2758
  56   2.0000      -0.441469       -12.0130
  57   2.0000      -0.435690       -11.8557
  58   2.0000      -0.428708       -11.6657
  59   2.0000      -0.425433       -11.5766
  60   2.0000      -0.421788       -11.4774
  61   2.0000      -0.418942       -11.4000
  62   2.0000      -0.412104       -11.2139
  63   2.0000      -0.347510        -9.4562
  64   2.0000      -0.324033        -8.8174
  65   2.0000      -0.320618        -8.7245
  66   2.0000      -0.279818        -7.6142
  67   0.0000       0.018283         0.4975
  68   0.0000       0.070459         1.9173
  69   0.0000       0.103595         2.8190
  70   0.0000       0.124437         3.3861
  71   0.0000       0.132046         3.5932

MULLIKEN ATOMIC CHARGES
-----------------------
   0 S :    0.116825
   1 C :   -0.119746
   2 C :   -0.084257
   3 C :    0.002679
   4 C :   -0.139687
   5 H :    0.037024
   6 C :    0.056535
   7 H :    0.025670
   8 H :    0.032148
   9 C :   -0.086543
  10 H :    0.047730
  11 H :    0.040084
  12 C :   -0.065706
  13 H :    0.033040
  14 H :    0.060595
  15 H :    0.024932
  16 S :    0.099908
  17 C :   -0.049388
  18 C :   -0.036441
  19 C :   -0.067421
  20 C :   -0.182511
  21 H :   -0.004604
  22 C :    0.127439
  23 H :    0.013791
  24 H :   -0.001454
  25 C :   -0.053600
  26 H :    0.043088
  27 H :    0.029133
  28 C :   -0.053525
  29 H :    0.030070
  30 H :    0.026225
  31 H :    0.036368
  32 H :    0.037937
  33 H :    0.023661
Sum of atomic charges:    0.0000000

LOEWDIN ATOMIC CHARGES
----------------------
   0 S :    0.402181
   1 C :   -0.199368
   2 C :   -0.057737
   3 C :   -0.061664
   4 C :   -0.182221
   5 H :    0.035205
   6 C :   -0.046859
   7 H :    0.033976
   8 H :    0.037001
   9 C :   -0.043591
  10 H :    0.033000
  11 H :    0.035961
  12 C :   -0.078140
  13 H :    0.034122
  14 H :    0.033393
  15 H :    0.019607
  16 S :    0.414679
  17 C :   -0.184419
  18 C :   -0.068252
  19 C :   -0.054442
  20 C :   -0.205392
  21 H :    0.019312
  22 C :   -0.028588
  23 H :    0.028801
  24 H :    0.024031
  25 C :   -0.033495
  26 H :    0.029535
  27 H :    0.023739
  28 C :   -0.071817
  29 H :    0.026629
  30 H :    0.024070
  31 H :    0.029838
  32 H :    0.016405
  33 H :    0.014500

  Mayer bond orders larger than 0.100000
B(  0-S ,  1-C ) :   1.1477 B(  0-S ,  4-C ) :   1.1448 B(  1-C ,  2-C ) :   1.5929
B(  1-C , 32-H ) :   0.9779 B(  2-C ,  3-C ) :   1.2475 B(  2-C ,  6-C ) :   1.0049
B(  3-C ,  4-C ) :   1.5589 B(  3-C ,  5-H ) :   0.9785 B(  4-C , 20-C ) :   1.0863
B(  6-C ,  7-H ) :   0.9328 B(  6-C ,  8-H ) :   0.9389 B(  6-C ,  9-C ) :   1.0799
B(  9-C , 10-H ) :   0.9498 B(  9-C , 11-H ) :   0.9551 B(  9-C , 12-C ) :   1.0580
B( 12-C , 13-H ) :   0.9731 B( 12-C , 14-H ) :   0.9801 B( 12-C , 15-H ) :   0.9763
B( 16-S , 17-C ) :   1.1488 B( 16-S , 20-C ) :   1.1680 B( 17-C , 18-C ) :   1.5787
B( 17-C , 20-C ) :   0.1083 B( 17-C , 33-H ) :   0.9831 B( 18-C , 19-C ) :   1.2632
B( 18-C , 21-H ) :   0.9971 B( 19-C , 20-C ) :   1.5167 B( 19-C , 22-C ) :   1.0546
B( 22-C , 23-H ) :   0.9192 B( 22-C , 24-H ) :   0.9371 B( 22-C , 25-C ) :   1.0419
B( 25-C , 26-H ) :   0.9633 B( 25-C , 27-H ) :   0.9492 B( 25-C , 28-C ) :   1.0964
B( 28-C , 29-H ) :   0.9713 B( 28-C , 30-H ) :   0.9754 B( 28-C , 31-H ) :   0.9725

Dispersion correction           -0.013927297
FINAL SINGLE POINT ENERGY     -1339.850110984450

DIPOLE MOMENT
-------------
                                X             Y             Z
Electronic contribution:     12.95257      -6.25305     -23.12386
Nuclear contribution   :    -13.20023       6.46868      23.74825
                        -----------------------------------------
Total Dipole Moment    :     -0.24766       0.21562       0.62439
                        -----------------------------------------
Magnitude (a.u.)       :      0.70547
Magnitude (Debye)      :      1.79317

Rotational constants in cm-1:     0.016491     0.008976     0.007146
Rotational constants in MHz :   494.372964   269.091856   214.221674

                             ****ORCA TERMINATED NORMALLY****
TOTAL RUN TIME: 0 days 0 hours 0 minutes 22 seconds 543 msec
