                         Program Version 4.2.1 -  RELEASE  -
|  1> ! wB97X-D3 SP def2-SVP
|  2> %pal
|  3> nprocs 24
|  4> end
|  5>
|  6> * xyz 0 1
|  7> S 	 -65.8394 	 -53.3988 	 -83.3239
|  8> C 	 -64.1827 	 -53.8732 	 -83.6422
|  9> C 	 -63.448 	 -53.9734 	 -82.4743
| 10> C 	 -64.0677 	 -53.202 	 -81.3803
| 11> C 	 -65.425 	 -52.9184 	 -81.6678
| 12> H 	 -63.6367 	 -52.9879 	 -80.4611
| 13> C 	 -62.0563 	 -54.5898 	 -82.3641
| 14> H 	 -62.0604 	 -55.4155 	 -83.0709
| 15> H 	 -61.9728 	 -54.9964 	 -81.3276
| 16> C 	 -60.8665 	 -53.5523 	 -82.6627
| 17> H 	 -59.8944 	 -54.1655 	 -82.5303
| 18> H 	 -60.8288 	 -53.3977 	 -83.741
| 19> C 	 -60.9138 	 -52.2489 	 -81.8372
| 20> H 	 -61.7497 	 -51.5985 	 -82.1912
| 21> H 	 -61.0579 	 -52.3025 	 -80.771
| 22> H 	 -59.9735 	 -51.6926 	 -81.9488
| 23> S 	 -66.5197 	 -50.4701 	 -81.155
| 24> C 	 -67.6291 	 -50.2763 	 -79.8698
| 25> C 	 -67.8982 	 -51.4734 	 -79.2543
| 26> C 	 -67.1129 	 -52.5611 	 -79.7747
| 27> C 	 -66.4013 	 -52.1833 	 -80.8864
| 28> H 	 -68.5885 	 -51.4482 	 -78.4027
| 29> C 	 -67.1682 	 -53.9129 	 -79.1348
| 30> H 	 -67.2351 	 -54.7795 	 -79.755
| 31> H 	 -68.0701 	 -53.9089 	 -78.6224
| 32> C 	 -66.029 	 -54.2895 	 -78.1146
| 33> H 	 -65.134 	 -54.1398 	 -78.7158
| 34> H 	 -66.2066 	 -55.265 	 -77.6703
| 35> C 	 -65.8872 	 -53.2409 	 -76.9451
| 36> H 	 -64.9583 	 -53.5073 	 -76.4188
| 37> H 	 -66.8598 	 -53.1405 	 -76.3753
| 38> H 	 -65.6437 	 -52.2837 	 -77.3601
| 39> H 	 -63.7747 	 -54.2559 	 -84.5941
| 40> H 	 -68.3096 	 -49.4853 	 -79.557
| 41> *
| 42>
| 43>                          ****END OF INPUT****

CARTESIAN COORDINATES (ANGSTROEM)
---------------------------------
  S    -65.839400  -53.398800  -83.323900
  C    -64.182700  -53.873200  -83.642200
  C    -63.448000  -53.973400  -82.474300
  C    -64.067700  -53.202000  -81.380300
  C    -65.425000  -52.918400  -81.667800
  H    -63.636700  -52.987900  -80.461100
  C    -62.056300  -54.589800  -82.364100
  H    -62.060400  -55.415500  -83.070900
  H    -61.972800  -54.996400  -81.327600
  C    -60.866500  -53.552300  -82.662700
  H    -59.894400  -54.165500  -82.530300
  H    -60.828800  -53.397700  -83.741000
  C    -60.913800  -52.248900  -81.837200
  H    -61.749700  -51.598500  -82.191200
  H    -61.057900  -52.302500  -80.771000
  H    -59.973500  -51.692600  -81.948800
  S    -66.519700  -50.470100  -81.155000
  C    -67.629100  -50.276300  -79.869800
  C    -67.898200  -51.473400  -79.254300
  C    -67.112900  -52.561100  -79.774700
  C    -66.401300  -52.183300  -80.886400
  H    -68.588500  -51.448200  -78.402700
  C    -67.168200  -53.912900  -79.134800
  H    -67.235100  -54.779500  -79.755000
  H    -68.070100  -53.908900  -78.622400
  C    -66.029000  -54.289500  -78.114600
  H    -65.134000  -54.139800  -78.715800
  H    -66.206600  -55.265000  -77.670300
  C    -65.887200  -53.240900  -76.945100
  H    -64.958300  -53.507300  -76.418800
  H    -66.859800  -53.140500  -76.375300
  H    -65.643700  -52.283700  -77.360100
  H    -63.774700  -54.255900  -84.594100
  H    -68.309600  -49.485300  -79.557000

 Total Charge           Charge          ....    0
 Multiplicity           Mult            ....    1
 Number of Electrons    NEL             ....  134
 Basis Dimension        Dim             ....  322

ORBITAL ENERGIES
----------------

  NO   OCC          E(Eh)            E(eV)
   0   2.0000     -88.965963     -2420.8869
   1   2.0000     -88.965571     -2420.8763
   2   2.0000     -10.332710      -281.1673
   3   2.0000     -10.321235      -280.8551
   4   2.0000     -10.316173      -280.7173
   5   2.0000     -10.312063      -280.6055
   6   2.0000     -10.304703      -280.4052
   7   2.0000     -10.302589      -280.3477
   8   2.0000     -10.302432      -280.3434
   9   2.0000     -10.300462      -280.2898
  10   2.0000     -10.300412      -280.2885
  11   2.0000     -10.291281      -280.0400
  12   2.0000     -10.287537      -279.9381
  13   2.0000     -10.283243      -279.8213
  14   2.0000     -10.279446      -279.7180
  15   2.0000     -10.277720      -279.6710
  16   2.0000      -8.081461      -219.9077
  17   2.0000      -8.079831      -219.8634
  18   2.0000      -6.039958      -164.3556
  19   2.0000      -6.038390      -164.3129
  20   2.0000      -6.035769      -164.2416
  21   2.0000      -6.034448      -164.2057
  22   2.0000      -6.032253      -164.1459
  23   2.0000      -6.030514      -164.0986
  24   2.0000      -1.008504       -27.4428
  25   2.0000      -0.981008       -26.6946
  26   2.0000      -0.905438       -24.6382
  27   2.0000      -0.901254       -24.5244
  28   2.0000      -0.867555       -23.6074
  29   2.0000      -0.844562       -22.9817
  30   2.0000      -0.840238       -22.8640
  31   2.0000      -0.815188       -22.1824
  32   2.0000      -0.784439       -21.3457
  33   2.0000      -0.772158       -21.0115
  34   2.0000      -0.708630       -19.2828
  35   2.0000      -0.702292       -19.1103
  36   2.0000      -0.687004       -18.6943
  37   2.0000      -0.657512       -17.8918
  38   2.0000      -0.640939       -17.4408
  39   2.0000      -0.612775       -16.6745
  40   2.0000      -0.591272       -16.0893
  41   2.0000      -0.568427       -15.4677
  42   2.0000      -0.555720       -15.1219
  43   2.0000      -0.544075       -14.8050
  44   2.0000      -0.538083       -14.6420
  45   2.0000      -0.533521       -14.5178
  46   2.0000      -0.520066       -14.1517
  47   2.0000      -0.512499       -13.9458
  48   2.0000      -0.503283       -13.6950
  49   2.0000      -0.489524       -13.3206
  50   2.0000      -0.483605       -13.1596
  51   2.0000      -0.478924       -13.0322
  52   2.0000      -0.473840       -12.8938
  53   2.0000      -0.465297       -12.6614
  54   2.0000      -0.462066       -12.5734
  55   2.0000      -0.441397       -12.0110
  56   2.0000      -0.439886       -11.9699
  57   2.0000      -0.437658       -11.9093
  58   2.0000      -0.430259       -11.7079
  59   2.0000      -0.425941       -11.5904
  60   2.0000      -0.424480       -11.5507
  61   2.0000      -0.411462       -11.1965
  62   2.0000      -0.410663       -11.1747
  63   2.0000      -0.336200        -9.1485
  64   2.0000      -0.323953        -8.8152
  65   2.0000      -0.319358        -8.6902
  66   2.0000      -0.311679        -8.4812
  67   0.0000       0.038576         1.0497
  68   0.0000       0.057971         1.5775
  69   0.0000       0.101161         2.7527
  70   0.0000       0.125124         3.4048
  71   0.0000       0.129068         3.5121

MULLIKEN ATOMIC CHARGES
-----------------------
   0 S :    0.116453
   1 C :   -0.121264
   2 C :   -0.124856
   3 C :    0.082232
   4 C :   -0.183317
   5 H :   -0.005924
   6 C :    0.049822
   7 H :    0.027678
   8 H :    0.040022
   9 C :   -0.081658
  10 H :    0.038686
  11 H :    0.030046
  12 C :   -0.064392
  13 H :    0.055739
  14 H :    0.029782
  15 H :    0.040139
  16 S :    0.134951
  17 C :   -0.073790
  18 C :   -0.075145
  19 C :   -0.022453
  20 C :   -0.179786
  21 H :    0.023882
  22 C :    0.119458
  23 H :    0.024677
  24 H :   -0.011059
  25 C :   -0.076899
  26 H :    0.021841
  27 H :    0.041842
  28 C :   -0.076655
  29 H :    0.037429
  30 H :    0.043260
  31 H :    0.029240
  32 H :    0.055547
  33 H :    0.054474
Sum of atomic charges:   -0.0000000

LOEWDIN ATOMIC CHARGES
----------------------
   0 S :    0.397216
   1 C :   -0.201950
   2 C :   -0.063452
   3 C :   -0.042573
   4 C :   -0.191065
   5 H :    0.016677
   6 C :   -0.035067
   7 H :    0.029182
   8 H :    0.035011
   9 C :   -0.041543
  10 H :    0.030208
  11 H :    0.023623
  12 C :   -0.075591
  13 H :    0.036557
  14 H :    0.021892
  15 H :    0.031774
  16 S :    0.435508
  17 C :   -0.207030
  18 C :   -0.076516
  19 C :   -0.049556
  20 C :   -0.217936
  21 H :    0.032864
  22 C :   -0.029200
  23 H :    0.030520
  24 H :    0.017799
  25 C :   -0.028367
  26 H :    0.021768
  27 H :    0.024503
  28 C :   -0.074964
  29 H :    0.028961
  30 H :    0.029084
  31 H :    0.019438
  32 H :    0.033043
  33 H :    0.039181

  Mayer bond orders larger than 0.100000
B(  0-S ,  1-C ) :   1.1358 B(  0-S ,  4-C ) :   1.1479 B(  1-C ,  2-C ) :   1.6326
B(  1-C , 32-H ) :   0.9620 B(  2-C ,  3-C ) :   1.1965 B(  2-C ,  6-C ) :   1.0265
B(  3-C ,  4-C ) :   1.5964 B(  3-C ,  5-H ) :   0.9942 B(  4-C , 20-C ) :   1.0163
B(  6-C ,  7-H ) :   0.9428 B(  6-C ,  8-H ) :   0.9448 B(  6-C ,  9-C ) :   1.0585
B(  9-C , 10-H ) :   0.9593 B(  9-C , 11-H ) :   0.9577 B(  9-C , 12-C ) :   1.0686
B( 12-C , 13-H ) :   0.9681 B( 12-C , 14-H ) :   0.9769 B( 12-C , 15-H ) :   0.9720
B( 16-S , 17-C ) :   1.1592 B( 16-S , 20-C ) :   1.1474 B( 17-C , 18-C ) :   1.6400
B( 17-C , 33-H ) :   0.9560 B( 18-C , 19-C ) :   1.2323 B( 18-C , 21-H ) :   0.9821
B( 19-C , 20-C ) :   1.6045 B( 19-C , 22-C ) :   1.0451 B( 22-C , 23-H ) :   0.9356
B( 22-C , 24-H ) :   0.9246 B( 22-C , 25-C ) :   1.0620 B( 25-C , 26-H ) :   0.9555
B( 25-C , 27-H ) :   0.9594 B( 25-C , 28-C ) :   1.0775 B( 28-C , 29-H ) :   0.9738
B( 28-C , 30-H ) :   0.9767 B( 28-C , 31-H ) :   0.9727

Dispersion correction           -0.015541293
FINAL SINGLE POINT ENERGY     -1339.864272025266

DIPOLE MOMENT
-------------
                                X             Y             Z
Electronic contribution:    -16.31036       8.34259     -14.46604
Nuclear contribution   :     16.63891      -8.56746      14.80031
                        -----------------------------------------
Total Dipole Moment    :      0.32855      -0.22487       0.33426
                        -----------------------------------------
Magnitude (a.u.)       :      0.51985
Magnitude (Debye)      :      1.32135

Rotational constants in cm-1:     0.019211     0.008763     0.007753
Rotational constants in MHz :   575.927725   262.718982   232.428045

                             ****ORCA TERMINATED NORMALLY****
TOTAL RUN TIME: 0 days 0 hours 0 minutes 22 seconds 169 msec
