                         Program Version 4.2.1 -  RELEASE  -
|  1> ! wB97X-D3 SP def2-SVP
|  2> %pal
|  3> nprocs 24
|  4> end
|  5>
|  6> * xyz 0 1
|  7> S 	 -134.516 	 13.4338 	 -5.95131
|  8> C 	 -133.358 	 13.6227 	 -4.6506
|  9> C 	 -132.864 	 12.3805 	 -4.22331
| 10> C 	 -133.512 	 11.3218 	 -4.87902
| 11> C 	 -134.478 	 11.6824 	 -5.81334
| 12> H 	 -133.43 	 10.2658 	 -4.65474
| 13> C 	 -131.968 	 12.157 	 -3.00907
| 14> H 	 -132.39 	 11.3811 	 -2.36092
| 15> H 	 -132.033 	 13.0663 	 -2.40995
| 16> C 	 -130.511 	 11.757 	 -3.42008
| 17> H 	 -129.933 	 11.5144 	 -2.54207
| 18> H 	 -130.501 	 10.8597 	 -4.05088
| 19> C 	 -129.772 	 12.95 	 -4.09746
| 20> H 	 -129.996 	 13.2379 	 -5.08627
| 21> H 	 -129.937 	 13.8233 	 -3.51368
| 22> H 	 -128.602 	 12.74 	 -4.24274
| 23> S 	 -137.107 	 10.9945 	 -5.91749
| 24> C 	 -137.555 	 9.68429 	 -7.02087
| 25> C 	 -136.504 	 9.02171 	 -7.56921
| 26> C 	 -135.272 	 9.71446 	 -7.27377
| 27> C 	 -135.47 	 10.8706 	 -6.48769
| 28> H 	 -136.675 	 8.10738 	 -8.0861
| 29> C 	 -133.908 	 9.32009 	 -7.77136
| 30> H 	 -133.875 	 8.37203 	 -8.2756
| 31> H 	 -133.378 	 9.12101 	 -6.82108
| 32> C 	 -133.162 	 10.3217 	 -8.70056
| 33> H 	 -133.623 	 11.297 	 -8.65198
| 34> H 	 -133.266 	 9.96412 	 -9.73797
| 35> C 	 -131.671 	 10.3787 	 -8.34732
| 36> H 	 -131.432 	 10.7231 	 -7.27719
| 37> H 	 -131.148 	 11.0088 	 -9.05688
| 38> H 	 -131.188 	 9.38209 	 -8.42534
| 39> H 	 -133.071 	 14.5845 	 -4.26247
| 40> H 	 -138.55 	 9.19475 	 -7.02529
| 41> *
| 42>
| 43>                          ****END OF INPUT****

CARTESIAN COORDINATES (ANGSTROEM)
---------------------------------
  S    -134.516000   13.433800   -5.951310
  C    -133.358000   13.622700   -4.650600
  C    -132.864000   12.380500   -4.223310
  C    -133.512000   11.321800   -4.879020
  C    -134.478000   11.682400   -5.813340
  H    -133.430000   10.265800   -4.654740
  C    -131.968000   12.157000   -3.009070
  H    -132.390000   11.381100   -2.360920
  H    -132.033000   13.066300   -2.409950
  C    -130.511000   11.757000   -3.420080
  H    -129.933000   11.514400   -2.542070
  H    -130.501000   10.859700   -4.050880
  C    -129.772000   12.950000   -4.097460
  H    -129.996000   13.237900   -5.086270
  H    -129.937000   13.823300   -3.513680
  H    -128.602000   12.740000   -4.242740
  S    -137.107000   10.994500   -5.917490
  C    -137.555000    9.684290   -7.020870
  C    -136.504000    9.021710   -7.569210
  C    -135.272000    9.714460   -7.273770
  C    -135.470000   10.870600   -6.487690
  H    -136.675000    8.107380   -8.086100
  C    -133.908000    9.320090   -7.771360
  H    -133.875000    8.372030   -8.275600
  H    -133.378000    9.121010   -6.821080
  C    -133.162000   10.321700   -8.700560
  H    -133.623000   11.297000   -8.651980
  H    -133.266000    9.964120   -9.737970
  C    -131.671000   10.378700   -8.347320
  H    -131.432000   10.723100   -7.277190
  H    -131.148000   11.008800   -9.056880
  H    -131.188000    9.382090   -8.425340
  H    -133.071000   14.584500   -4.262470
  H    -138.550000    9.194750   -7.025290

 Total Charge           Charge          ....    0
 Multiplicity           Mult            ....    1
 Number of Electrons    NEL             ....  134
 Basis Dimension        Dim             ....  322

ORBITAL ENERGIES
----------------

  NO   OCC          E(Eh)            E(eV)
   0   2.0000     -88.967047     -2420.9164
   1   2.0000     -88.965377     -2420.8710
   2   2.0000     -10.327632      -281.0292
   3   2.0000     -10.322704      -280.8951
   4   2.0000     -10.316787      -280.7340
   5   2.0000     -10.316719      -280.7322
   6   2.0000     -10.306925      -280.4657
   7   2.0000     -10.302360      -280.3415
   8   2.0000     -10.297590      -280.2117
   9   2.0000     -10.293191      -280.0920
  10   2.0000     -10.293112      -280.0898
  11   2.0000     -10.293008      -280.0870
  12   2.0000     -10.287336      -279.9326
  13   2.0000     -10.284412      -279.8531
  14   2.0000     -10.280597      -279.7493
  15   2.0000     -10.279584      -279.7217
  16   2.0000      -8.081612      -219.9119
  17   2.0000      -8.079893      -219.8651
  18   2.0000      -6.040103      -164.3595
  19   2.0000      -6.038235      -164.3087
  20   2.0000      -6.036305      -164.2562
  21   2.0000      -6.034315      -164.2021
  22   2.0000      -6.032229      -164.1453
  23   2.0000      -6.030969      -164.1110
  24   2.0000      -1.005740       -27.3676
  25   2.0000      -0.982274       -26.7290
  26   2.0000      -0.907055       -24.6822
  27   2.0000      -0.903509       -24.5857
  28   2.0000      -0.868954       -23.6454
  29   2.0000      -0.846991       -23.0478
  30   2.0000      -0.844124       -22.9698
  31   2.0000      -0.813696       -22.1418
  32   2.0000      -0.780479       -21.2379
  33   2.0000      -0.764411       -20.8007
  34   2.0000      -0.710688       -19.3388
  35   2.0000      -0.698915       -19.0184
  36   2.0000      -0.688941       -18.7470
  37   2.0000      -0.659660       -17.9503
  38   2.0000      -0.644420       -17.5356
  39   2.0000      -0.619906       -16.8685
  40   2.0000      -0.593347       -16.1458
  41   2.0000      -0.569011       -15.4836
  42   2.0000      -0.554395       -15.0859
  43   2.0000      -0.547423       -14.8961
  44   2.0000      -0.537559       -14.6277
  45   2.0000      -0.521577       -14.1928
  46   2.0000      -0.517421       -14.0797
  47   2.0000      -0.505017       -13.7422
  48   2.0000      -0.497715       -13.5435
  49   2.0000      -0.495204       -13.4752
  50   2.0000      -0.485892       -13.2218
  51   2.0000      -0.480627       -13.0785
  52   2.0000      -0.469482       -12.7753
  53   2.0000      -0.464857       -12.6494
  54   2.0000      -0.455294       -12.3892
  55   2.0000      -0.446864       -12.1598
  56   2.0000      -0.442075       -12.0295
  57   2.0000      -0.439384       -11.9562
  58   2.0000      -0.433700       -11.8016
  59   2.0000      -0.426267       -11.5993
  60   2.0000      -0.421658       -11.4739
  61   2.0000      -0.413713       -11.2577
  62   2.0000      -0.410337       -11.1658
  63   2.0000      -0.344621        -9.3776
  64   2.0000      -0.330766        -9.0006
  65   2.0000      -0.324535        -8.8311
  66   2.0000      -0.294265        -8.0074
  67   0.0000       0.029248         0.7959
  68   0.0000       0.062673         1.7054
  69   0.0000       0.107154         2.9158
  70   0.0000       0.120923         3.2905
  71   0.0000       0.123685         3.3656

MULLIKEN ATOMIC CHARGES
-----------------------
   0 S :    0.112617
   1 C :   -0.124317
   2 C :   -0.071035
   3 C :    0.051131
   4 C :   -0.206771
   5 H :    0.013159
   6 C :    0.041149
   7 H :    0.035998
   8 H :    0.023624
   9 C :   -0.041413
  10 H :    0.031722
  11 H :    0.034575
  12 C :   -0.079429
  13 H :    0.030346
  14 H :    0.021158
  15 H :    0.041006
  16 S :    0.119067
  17 C :   -0.094518
  18 C :   -0.023937
  19 C :   -0.052200
  20 C :   -0.145144
  21 H :    0.013264
  22 C :    0.073585
  23 H :    0.009770
  24 H :    0.025978
  25 C :   -0.039312
  26 H :    0.037346
  27 H :    0.033524
  28 C :   -0.089243
  29 H :    0.051297
  30 H :    0.031133
  31 H :    0.027570
  32 H :    0.045134
  33 H :    0.063167
Sum of atomic charges:   -0.0000000

LOEWDIN ATOMIC CHARGES
----------------------
   0 S :    0.406573
   1 C :   -0.193082
   2 C :   -0.065392
   3 C :   -0.059563
   4 C :   -0.199367
   5 H :    0.030255
   6 C :   -0.028077
   7 H :    0.033132
   8 H :    0.029126
   9 C :   -0.035080
  10 H :    0.024147
  11 H :    0.024840
  12 C :   -0.072595
  13 H :    0.016715
  14 H :    0.017747
  15 H :    0.038937
  16 S :    0.409833
  17 C :   -0.181901
  18 C :   -0.067905
  19 C :   -0.045226
  20 C :   -0.219530
  21 H :    0.031843
  22 C :   -0.038167
  23 H :    0.026568
  24 H :    0.034246
  25 C :   -0.033997
  26 H :    0.022373
  27 H :    0.028408
  28 C :   -0.071544
  29 H :    0.033041
  30 H :    0.022133
  31 H :    0.023549
  32 H :    0.023619
  33 H :    0.034343

  Mayer bond orders larger than 0.100000
B(  0-S ,  1-C ) :   1.1583 B(  0-S ,  4-C ) :   1.1561 B(  1-C ,  2-C ) :   1.5722
B(  1-C ,  4-C ) :   0.1065 B(  1-C , 32-H ) :   0.9718 B(  2-C ,  3-C ) :   1.2618
B(  2-C ,  6-C ) :   1.0148 B(  3-C ,  4-C ) :   1.5686 B(  3-C ,  5-H ) :   0.9896
B(  4-C , 20-C ) :   1.0313 B(  6-C ,  7-H ) :   0.9483 B(  6-C ,  8-H ) :   0.9491
B(  6-C ,  9-C ) :   1.0637 B(  9-C , 10-H ) :   0.9572 B(  9-C , 11-H ) :   0.9597
B(  9-C , 12-C ) :   1.0591 B( 12-C , 13-H ) :   0.9778 B( 12-C , 14-H ) :   0.9770
B( 12-C , 15-H ) :   0.9755 B( 16-S , 17-C ) :   1.1496 B( 16-S , 20-C ) :   1.1471
B( 17-C , 18-C ) :   1.6330 B( 17-C , 33-H ) :   0.9567 B( 18-C , 19-C ) :   1.2329
B( 18-C , 21-H ) :   0.9973 B( 19-C , 20-C ) :   1.5774 B( 19-C , 22-C ) :   1.0447
B( 22-C , 23-H ) :   0.9332 B( 22-C , 24-H ) :   0.9356 B( 22-C , 25-C ) :   1.0347
B( 25-C , 26-H ) :   0.9666 B( 25-C , 27-H ) :   0.9563 B( 25-C , 28-C ) :   1.0776
B( 28-C , 29-H ) :   0.9739 B( 28-C , 30-H ) :   0.9730 B( 28-C , 31-H ) :   0.9748

Dispersion correction           -0.015672369
FINAL SINGLE POINT ENERGY     -1339.879025582425

DIPOLE MOMENT
-------------
                                X             Y             Z
Electronic contribution:    -27.93345       5.19013      -0.25208
Nuclear contribution   :     28.29002      -5.69721       0.44121
                        -----------------------------------------
Total Dipole Moment    :      0.35657      -0.50708       0.18913
                        -----------------------------------------
Magnitude (a.u.)       :      0.64811
Magnitude (Debye)      :      1.64736

Rotational constants in cm-1:     0.020744     0.009152     0.007521
Rotational constants in MHz :   621.904196   274.356743   225.477797

                             ****ORCA TERMINATED NORMALLY****
TOTAL RUN TIME: 0 days 0 hours 0 minutes 22 seconds 628 msec
