                         Program Version 4.2.1 -  RELEASE  -
|  1> ! wB97X-D3 SP def2-SVP
|  2> %pal
|  3> nprocs 24
|  4> end
|  5>
|  6> * xyz 0 1
|  7> S 	 25.7684 	 -1.74724 	 -112.055
|  8> C 	 25.2522 	 -1.98849 	 -113.67
|  9> C 	 25.1307 	 -0.772232 	 -114.296
| 10> C 	 25.4 	 0.329861 	 -113.445
| 11> C 	 25.9389 	 -0.0182805 	 -112.216
| 12> H 	 25.2827 	 1.42423 	 -113.63
| 13> C 	 24.6908 	 -0.592094 	 -115.693
| 14> H 	 24.7724 	 -1.61171 	 -116.184
| 15> H 	 25.332 	 0.0740015 	 -116.182
| 16> C 	 23.1777 	 -0.13133 	 -115.858
| 17> H 	 22.5305 	 -0.853416 	 -115.331
| 18> H 	 23.1027 	 0.765003 	 -115.31
| 19> C 	 22.6459 	 0.0234639 	 -117.318
| 20> H 	 21.6865 	 0.487628 	 -117.317
| 21> H 	 23.3188 	 0.428789 	 -118.008
| 22> H 	 22.4031 	 -0.924366 	 -117.724
| 23> S 	 25.2221 	 0.541488 	 -109.578
| 24> C 	 26.0888 	 1.78361 	 -108.716
| 25> C 	 26.9193 	 2.50047 	 -109.586
| 26> C 	 26.9635 	 1.94489 	 -110.892
| 27> C 	 26.1578 	 0.854458 	 -111.098
| 28> H 	 27.4428 	 3.33321 	 -109.236
| 29> C 	 27.7483 	 2.66821 	 -111.992
| 30> H 	 27.9214 	 1.97833 	 -112.761
| 31> H 	 28.73 	 2.87869 	 -111.554
| 32> C 	 27.1274 	 3.86482 	 -112.743
| 33> H 	 26.3497 	 3.49524 	 -113.402
| 34> H 	 27.7936 	 4.04816 	 -113.549
| 35> C 	 26.7471 	 5.12284 	 -111.938
| 36> H 	 27.5572 	 5.42819 	 -111.307
| 37> H 	 25.8527 	 4.90818 	 -111.332
| 38> H 	 26.579 	 5.86243 	 -112.744
| 39> H 	 25.0042 	 -2.9883 	 -114.024
| 40> H 	 26.0075 	 2.14201 	 -107.69
| 41> *
| 42>
| 43>                          ****END OF INPUT****

CARTESIAN COORDINATES (ANGSTROEM)
---------------------------------
  S     25.768400   -1.747240  -112.055000
  C     25.252200   -1.988490  -113.670000
  C     25.130700   -0.772232  -114.296000
  C     25.400000    0.329861  -113.445000
  C     25.938900   -0.018281  -112.216000
  H     25.282700    1.424230  -113.630000
  C     24.690800   -0.592094  -115.693000
  H     24.772400   -1.611710  -116.184000
  H     25.332000    0.074001  -116.182000
  C     23.177700   -0.131330  -115.858000
  H     22.530500   -0.853416  -115.331000
  H     23.102700    0.765003  -115.310000
  C     22.645900    0.023464  -117.318000
  H     21.686500    0.487628  -117.317000
  H     23.318800    0.428789  -118.008000
  H     22.403100   -0.924366  -117.724000
  S     25.222100    0.541488  -109.578000
  C     26.088800    1.783610  -108.716000
  C     26.919300    2.500470  -109.586000
  C     26.963500    1.944890  -110.892000
  C     26.157800    0.854458  -111.098000
  H     27.442800    3.333210  -109.236000
  C     27.748300    2.668210  -111.992000
  H     27.921400    1.978330  -112.761000
  H     28.730000    2.878690  -111.554000
  C     27.127400    3.864820  -112.743000
  H     26.349700    3.495240  -113.402000
  H     27.793600    4.048160  -113.549000
  C     26.747100    5.122840  -111.938000
  H     27.557200    5.428190  -111.307000
  H     25.852700    4.908180  -111.332000
  H     26.579000    5.862430  -112.744000
  H     25.004200   -2.988300  -114.024000
  H     26.007500    2.142010  -107.690000

 Total Charge           Charge          ....    0
 Multiplicity           Mult            ....    1
 Number of Electrons    NEL             ....  134
 Basis Dimension        Dim             ....  322

ORBITAL ENERGIES
----------------

  NO   OCC          E(Eh)            E(eV)
   0   2.0000     -88.965308     -2420.8691
   1   2.0000     -88.963409     -2420.8174
   2   2.0000     -10.327272      -281.0194
   3   2.0000     -10.327044      -281.0132
   4   2.0000     -10.318861      -280.7905
   5   2.0000     -10.315053      -280.6869
   6   2.0000     -10.300137      -280.2810
   7   2.0000     -10.298764      -280.2436
   8   2.0000     -10.297396      -280.2064
   9   2.0000     -10.290216      -280.0110
  10   2.0000     -10.288413      -279.9620
  11   2.0000     -10.287931      -279.9488
  12   2.0000     -10.284964      -279.8681
  13   2.0000     -10.284653      -279.8596
  14   2.0000     -10.281285      -279.7680
  15   2.0000     -10.270899      -279.4854
  16   2.0000      -8.079101      -219.8435
  17   2.0000      -8.079032      -219.8416
  18   2.0000      -6.037685      -164.2938
  19   2.0000      -6.037447      -164.2873
  20   2.0000      -6.033638      -164.1836
  21   2.0000      -6.033351      -164.1758
  22   2.0000      -6.030055      -164.0861
  23   2.0000      -6.029735      -164.0774
  24   2.0000      -1.010671       -27.5018
  25   2.0000      -0.984337       -26.7852
  26   2.0000      -0.908371       -24.7180
  27   2.0000      -0.905976       -24.6529
  28   2.0000      -0.872580       -23.7441
  29   2.0000      -0.851875       -23.1807
  30   2.0000      -0.845939       -23.0192
  31   2.0000      -0.816502       -22.2181
  32   2.0000      -0.787193       -21.4206
  33   2.0000      -0.775010       -21.0891
  34   2.0000      -0.715052       -19.4575
  35   2.0000      -0.706469       -19.2240
  36   2.0000      -0.694565       -18.9001
  37   2.0000      -0.663845       -18.0641
  38   2.0000      -0.647913       -17.6306
  39   2.0000      -0.617036       -16.7904
  40   2.0000      -0.584004       -15.8916
  41   2.0000      -0.572533       -15.5794
  42   2.0000      -0.558232       -15.1903
  43   2.0000      -0.547109       -14.8876
  44   2.0000      -0.545481       -14.8433
  45   2.0000      -0.530794       -14.4436
  46   2.0000      -0.519973       -14.1492
  47   2.0000      -0.514376       -13.9969
  48   2.0000      -0.511001       -13.9050
  49   2.0000      -0.503412       -13.6985
  50   2.0000      -0.493214       -13.4210
  51   2.0000      -0.483994       -13.1701
  52   2.0000      -0.473544       -12.8858
  53   2.0000      -0.467325       -12.7166
  54   2.0000      -0.462702       -12.5908
  55   2.0000      -0.448788       -12.2121
  56   2.0000      -0.443156       -12.0589
  57   2.0000      -0.438327       -11.9275
  58   2.0000      -0.433887       -11.8067
  59   2.0000      -0.424300       -11.5458
  60   2.0000      -0.420661       -11.4468
  61   2.0000      -0.415036       -11.2937
  62   2.0000      -0.405278       -11.0282
  63   2.0000      -0.347969        -9.4687
  64   2.0000      -0.331535        -9.0215
  65   2.0000      -0.324840        -8.8394
  66   2.0000      -0.294325        -8.0090
  67   0.0000       0.027291         0.7426
  68   0.0000       0.067314         1.8317
  69   0.0000       0.113749         3.0953
  70   0.0000       0.124092         3.3767
  71   0.0000       0.133456         3.6315

MULLIKEN ATOMIC CHARGES
-----------------------
   0 S :    0.105909
   1 C :   -0.125217
   2 C :   -0.069341
   3 C :    0.003624
   4 C :   -0.152721
   5 H :    0.028155
   6 C :    0.072342
   7 H :    0.021235
   8 H :    0.017662
   9 C :   -0.084632
  10 H :    0.028902
  11 H :    0.017830
  12 C :    0.008710
  13 H :    0.028561
  14 H :    0.021786
  15 H :    0.010170
  16 S :    0.104596
  17 C :   -0.087297
  18 C :   -0.033429
  19 C :   -0.031891
  20 C :   -0.157885
  21 H :   -0.004877
  22 C :    0.084017
  23 H :    0.003143
  24 H :    0.022420
  25 C :   -0.059255
  26 H :    0.002412
  27 H :    0.010313
  28 C :   -0.030413
  29 H :    0.029807
  30 H :    0.055396
  31 H :    0.041580
  32 H :    0.058405
  33 H :    0.059982
Sum of atomic charges:   -0.0000000

LOEWDIN ATOMIC CHARGES
----------------------
   0 S :    0.426722
   1 C :   -0.199873
   2 C :   -0.074315
   3 C :   -0.060626
   4 C :   -0.203931
   5 H :    0.036707
   6 C :   -0.029017
   7 H :    0.033917
   8 H :    0.020557
   9 C :   -0.030607
  10 H :    0.027499
  11 H :    0.013145
  12 C :   -0.059186
  13 H :    0.028371
  14 H :    0.018121
  15 H :    0.022106
  16 S :    0.384967
  17 C :   -0.187014
  18 C :   -0.069906
  19 C :   -0.055575
  20 C :   -0.182475
  21 H :    0.020681
  22 C :   -0.028649
  23 H :    0.023205
  24 H :    0.029703
  25 C :   -0.042969
  26 H :    0.020601
  27 H :    0.022874
  28 C :   -0.062594
  29 H :    0.021072
  30 H :    0.032668
  31 H :    0.034706
  32 H :    0.033169
  33 H :    0.035946

  Mayer bond orders larger than 0.100000
B(  0-S ,  1-C ) :   1.1624 B(  0-S ,  4-C ) :   1.1589 B(  1-C ,  2-C ) :   1.5629
B(  1-C , 32-H ) :   0.9733 B(  2-C ,  3-C ) :   1.2573 B(  2-C ,  6-C ) :   1.0445
B(  3-C ,  4-C ) :   1.5433 B(  3-C ,  5-H ) :   0.9853 B(  4-C , 20-C ) :   1.0635
B(  6-C ,  7-H ) :   0.9416 B(  6-C ,  8-H ) :   0.9348 B(  6-C ,  9-C ) :   1.0541
B(  9-C , 10-H ) :   0.9572 B(  9-C , 11-H ) :   0.9631 B(  9-C , 12-C ) :   1.0779
B( 12-C , 13-H ) :   0.9717 B( 12-C , 14-H ) :   0.9769 B( 12-C , 15-H ) :   0.9724
B( 16-S , 17-C ) :   1.1574 B( 16-S , 20-C ) :   1.1104 B( 17-C , 18-C ) :   1.6050
B( 17-C , 33-H ) :   0.9632 B( 18-C , 19-C ) :   1.2368 B( 18-C , 21-H ) :   0.9993
B( 19-C , 20-C ) :   1.6169 B( 19-C , 22-C ) :   1.0482 B( 22-C , 23-H ) :   0.9195
B( 22-C , 24-H ) :   0.9338 B( 22-C , 25-C ) :   1.0868 B( 25-C , 26-H ) :   0.9432
B( 25-C , 27-H ) :   0.9446 B( 25-C , 28-C ) :   1.0688 B( 28-C , 29-H ) :   0.9761
B( 28-C , 30-H ) :   0.9739 B( 28-C , 31-H ) :   0.9721

Dispersion correction           -0.014279261
FINAL SINGLE POINT ENERGY     -1339.870153163597

DIPOLE MOMENT
-------------
                                X             Y             Z
Electronic contribution:      3.49439     -16.47107      22.61336
Nuclear contribution   :     -3.55194      16.92424     -23.14868
                        -----------------------------------------
Total Dipole Moment    :     -0.05756       0.45317      -0.53531
                        -----------------------------------------
Magnitude (a.u.)       :      0.70373
Magnitude (Debye)      :      1.78874

Rotational constants in cm-1:     0.018507     0.008388     0.006511
Rotational constants in MHz :   554.838076   251.451635   195.185063

                             ****ORCA TERMINATED NORMALLY****
TOTAL RUN TIME: 0 days 0 hours 0 minutes 20 seconds 200 msec
