                         Program Version 4.2.1 -  RELEASE  -
|  1> ! wB97X-D3 SP def2-SVP
|  2> %pal
|  3> nprocs 24
|  4> end
|  5>
|  6> * xyz 0 1
|  7> S 	 -84.1525 	 -31.1254 	 -78.0925
|  8> C 	 -83.8203 	 -31.129 	 -79.8454
|  9> C 	 -84.9783 	 -30.8754 	 -80.5619
| 10> C 	 -86.0735 	 -30.5689 	 -79.7038
| 11> C 	 -85.7745 	 -30.5526 	 -78.382
| 12> H 	 -87.0246 	 -30.2507 	 -79.9919
| 13> C 	 -85.1723 	 -30.8147 	 -82.0469
| 14> H 	 -85.8438 	 -31.5866 	 -82.5038
| 15> H 	 -84.2465 	 -31.2481 	 -82.4711
| 16> C 	 -85.4384 	 -29.5202 	 -82.7621
| 17> H 	 -85.3934 	 -29.6499 	 -83.864
| 18> H 	 -86.4386 	 -29.126 	 -82.5226
| 19> C 	 -84.473 	 -28.3022 	 -82.5822
| 20> H 	 -84.6153 	 -27.4343 	 -83.1703
| 21> H 	 -84.5536 	 -27.8838 	 -81.5705
| 22> H 	 -83.3846 	 -28.52 	 -82.787
| 23> S 	 -86.5458 	 -31.1641 	 -75.8868
| 24> C 	 -87.8726 	 -30.3127 	 -75.1461
| 25> C 	 -88.4243 	 -29.4196 	 -75.9374
| 26> C 	 -87.778 	 -29.2691 	 -77.1845
| 27> C 	 -86.7418 	 -30.2285 	 -77.3201
| 28> H 	 -89.244 	 -28.8638 	 -75.5517
| 29> C 	 -88.1081 	 -28.1735 	 -78.2173
| 30> H 	 -88.5063 	 -28.5797 	 -79.1207
| 31> H 	 -87.076 	 -27.8555 	 -78.5523
| 32> C 	 -88.944 	 -26.981 	 -77.7754
| 33> H 	 -88.3785 	 -26.3605 	 -77.0558
| 34> H 	 -89.86 	 -27.2329 	 -77.1346
| 35> C 	 -89.4276 	 -26.0166 	 -78.8863
| 36> H 	 -88.6959 	 -25.8539 	 -79.6437
| 37> H 	 -89.6399 	 -24.9679 	 -78.475
| 38> H 	 -90.3731 	 -26.4474 	 -79.3898
| 39> H 	 -82.8568 	 -31.0819 	 -80.3616
| 40> H 	 -88.4288 	 -30.6623 	 -74.2392
| 41> *
| 42>
| 43>                          ****END OF INPUT****

CARTESIAN COORDINATES (ANGSTROEM)
---------------------------------
  S    -84.152500  -31.125400  -78.092500
  C    -83.820300  -31.129000  -79.845400
  C    -84.978300  -30.875400  -80.561900
  C    -86.073500  -30.568900  -79.703800
  C    -85.774500  -30.552600  -78.382000
  H    -87.024600  -30.250700  -79.991900
  C    -85.172300  -30.814700  -82.046900
  H    -85.843800  -31.586600  -82.503800
  H    -84.246500  -31.248100  -82.471100
  C    -85.438400  -29.520200  -82.762100
  H    -85.393400  -29.649900  -83.864000
  H    -86.438600  -29.126000  -82.522600
  C    -84.473000  -28.302200  -82.582200
  H    -84.615300  -27.434300  -83.170300
  H    -84.553600  -27.883800  -81.570500
  H    -83.384600  -28.520000  -82.787000
  S    -86.545800  -31.164100  -75.886800
  C    -87.872600  -30.312700  -75.146100
  C    -88.424300  -29.419600  -75.937400
  C    -87.778000  -29.269100  -77.184500
  C    -86.741800  -30.228500  -77.320100
  H    -89.244000  -28.863800  -75.551700
  C    -88.108100  -28.173500  -78.217300
  H    -88.506300  -28.579700  -79.120700
  H    -87.076000  -27.855500  -78.552300
  C    -88.944000  -26.981000  -77.775400
  H    -88.378500  -26.360500  -77.055800
  H    -89.860000  -27.232900  -77.134600
  C    -89.427600  -26.016600  -78.886300
  H    -88.695900  -25.853900  -79.643700
  H    -89.639900  -24.967900  -78.475000
  H    -90.373100  -26.447400  -79.389800
  H    -82.856800  -31.081900  -80.361600
  H    -88.428800  -30.662300  -74.239200

 Total Charge           Charge          ....    0
 Multiplicity           Mult            ....    1
 Number of Electrons    NEL             ....  134
 Basis Dimension        Dim             ....  322

ORBITAL ENERGIES
----------------

  NO   OCC          E(Eh)            E(eV)
   0   2.0000     -88.969982     -2420.9963
   1   2.0000     -88.964540     -2420.8482
   2   2.0000     -10.329007      -281.0666
   3   2.0000     -10.328483      -281.0523
   4   2.0000     -10.319667      -280.8124
   5   2.0000     -10.308908      -280.5196
   6   2.0000     -10.308841      -280.5178
   7   2.0000     -10.303426      -280.3705
   8   2.0000     -10.299496      -280.2635
   9   2.0000     -10.297678      -280.2141
  10   2.0000     -10.297311      -280.2041
  11   2.0000     -10.295208      -280.1469
  12   2.0000     -10.291961      -280.0585
  13   2.0000     -10.283966      -279.8409
  14   2.0000     -10.283954      -279.8406
  15   2.0000     -10.278467      -279.6913
  16   2.0000      -8.084095      -219.9794
  17   2.0000      -8.080228      -219.8742
  18   2.0000      -6.042852      -164.4344
  19   2.0000      -6.038782      -164.3236
  20   2.0000      -6.038647      -164.3200
  21   2.0000      -6.034655      -164.2113
  22   2.0000      -6.034530      -164.2079
  23   2.0000      -6.030980      -164.1113
  24   2.0000      -1.012841       -27.5608
  25   2.0000      -0.989241       -26.9186
  26   2.0000      -0.912886       -24.8409
  27   2.0000      -0.906473       -24.6664
  28   2.0000      -0.873703       -23.7747
  29   2.0000      -0.852605       -23.2006
  30   2.0000      -0.844673       -22.9847
  31   2.0000      -0.820755       -22.3339
  32   2.0000      -0.787824       -21.4378
  33   2.0000      -0.773802       -21.0562
  34   2.0000      -0.709540       -19.3076
  35   2.0000      -0.699142       -19.0246
  36   2.0000      -0.698196       -18.9989
  37   2.0000      -0.653597       -17.7853
  38   2.0000      -0.637943       -17.3593
  39   2.0000      -0.627333       -17.0706
  40   2.0000      -0.599175       -16.3044
  41   2.0000      -0.571767       -15.5586
  42   2.0000      -0.560787       -15.2598
  43   2.0000      -0.545499       -14.8438
  44   2.0000      -0.543341       -14.7851
  45   2.0000      -0.525533       -14.3005
  46   2.0000      -0.520078       -14.1520
  47   2.0000      -0.509327       -13.8595
  48   2.0000      -0.503841       -13.7102
  49   2.0000      -0.494880       -13.4664
  50   2.0000      -0.491476       -13.3737
  51   2.0000      -0.478000       -13.0071
  52   2.0000      -0.471356       -12.8263
  53   2.0000      -0.467941       -12.7333
  54   2.0000      -0.460256       -12.5242
  55   2.0000      -0.456018       -12.4089
  56   2.0000      -0.444699       -12.1009
  57   2.0000      -0.443966       -12.0809
  58   2.0000      -0.431675       -11.7465
  59   2.0000      -0.425122       -11.5682
  60   2.0000      -0.414534       -11.2800
  61   2.0000      -0.412741       -11.2313
  62   2.0000      -0.407428       -11.0867
  63   2.0000      -0.360412        -9.8073
  64   2.0000      -0.336130        -9.1466
  65   2.0000      -0.331204        -9.0125
  66   2.0000      -0.286598        -7.7987
  67   0.0000       0.025800         0.7021
  68   0.0000       0.074483         2.0268
  69   0.0000       0.099122         2.6972
  70   0.0000       0.126568         3.4441
  71   0.0000       0.127802         3.4777

MULLIKEN ATOMIC CHARGES
-----------------------
   0 S :    0.108177
   1 C :   -0.116370
   2 C :   -0.061552
   3 C :    0.021014
   4 C :   -0.108435
   5 H :   -0.024030
   6 C :    0.066014
   7 H :    0.047494
   8 H :    0.001686
   9 C :   -0.075528
  10 H :    0.038794
  11 H :    0.029698
  12 C :   -0.074600
  13 H :    0.022402
  14 H :    0.033289
  15 H :    0.027628
  16 S :    0.096025
  17 C :   -0.085014
  18 C :   -0.044749
  19 C :   -0.026992
  20 C :   -0.160675
  21 H :    0.006188
  22 C :    0.071904
  23 H :    0.030755
  24 H :    0.042612
  25 C :   -0.109834
  26 H :    0.031894
  27 H :    0.042677
  28 C :   -0.079093
  29 H :    0.028040
  30 H :    0.047886
  31 H :    0.049257
  32 H :    0.057473
  33 H :    0.065967
Sum of atomic charges:    0.0000000

LOEWDIN ATOMIC CHARGES
----------------------
   0 S :    0.389172
   1 C :   -0.189697
   2 C :   -0.058549
   3 C :   -0.060011
   4 C :   -0.188701
   5 H :    0.019517
   6 C :   -0.047070
   7 H :    0.046654
   8 H :    0.031400
   9 C :   -0.044021
  10 H :    0.033139
  11 H :    0.022829
  12 C :   -0.077887
  13 H :    0.020799
  14 H :    0.025042
  15 H :    0.027100
  16 S :    0.414435
  17 C :   -0.195334
  18 C :   -0.074891
  19 C :   -0.055129
  20 C :   -0.194938
  21 H :    0.030628
  22 C :   -0.038151
  23 H :    0.023624
  24 H :    0.044436
  25 C :   -0.055279
  26 H :    0.026408
  27 H :    0.030541
  28 C :   -0.072856
  29 H :    0.017176
  30 H :    0.037696
  31 H :    0.033910
  32 H :    0.036970
  33 H :    0.041034

  Mayer bond orders larger than 0.100000
B(  0-S ,  1-C ) :   1.1170 B(  0-S ,  4-C ) :   1.1320 B(  1-C ,  2-C ) :   1.6368
B(  1-C , 32-H ) :   0.9580 B(  2-C ,  3-C ) :   1.2055 B(  2-C ,  6-C ) :   1.0325
B(  3-C ,  4-C ) :   1.5924 B(  3-C ,  5-H ) :   1.0110 B(  4-C , 20-C ) :   1.0450
B(  6-C ,  7-H ) :   0.9351 B(  6-C ,  8-H ) :   0.9264 B(  6-C ,  9-C ) :   1.0770
B(  9-C , 10-H ) :   0.9545 B(  9-C , 11-H ) :   0.9551 B(  9-C , 12-C ) :   1.0688
B( 12-C , 13-H ) :   0.9759 B( 12-C , 14-H ) :   0.9743 B( 12-C , 15-H ) :   0.9754
B( 16-S , 17-C ) :   1.1391 B( 16-S , 20-C ) :   1.1603 B( 17-C , 18-C ) :   1.6535
B( 17-C , 33-H ) :   0.9493 B( 18-C , 19-C ) :   1.2453 B( 18-C , 21-H ) :   0.9910
B( 19-C , 20-C ) :   1.5781 B( 19-C , 22-C ) :   1.0181 B( 22-C , 23-H ) :   0.9349
B( 22-C , 24-H ) :   0.9278 B( 22-C , 25-C ) :   1.0655 B( 25-C , 26-H ) :   0.9556
B( 25-C , 27-H ) :   0.9521 B( 25-C , 28-C ) :   1.0785 B( 28-C , 29-H ) :   0.9760
B( 28-C , 30-H ) :   0.9746 B( 28-C , 31-H ) :   0.9752

Dispersion correction           -0.013920790
FINAL SINGLE POINT ENERGY     -1339.863633731047

DIPOLE MOMENT
-------------
                                X             Y             Z
Electronic contribution:      9.57070     -21.17090      22.26792
Nuclear contribution   :     -9.97011      21.64894     -22.77568
                        -----------------------------------------
Total Dipole Moment    :     -0.39941       0.47804      -0.50776
                        -----------------------------------------
Magnitude (a.u.)       :      0.80366
Magnitude (Debye)      :      2.04274

Rotational constants in cm-1:     0.015718     0.009929     0.006472
Rotational constants in MHz :   471.207116   297.658423   194.032242

                             ****ORCA TERMINATED NORMALLY****
TOTAL RUN TIME: 0 days 0 hours 0 minutes 21 seconds 278 msec
