                         Program Version 4.2.1 -  RELEASE  -
|  1> ! wB97X-D3 SP def2-SVP
|  2> %pal
|  3> nprocs 24
|  4> end
|  5>
|  6> * xyz 0 1
|  7> S 	 5.51314 	 -26.3345 	 -114.19
|  8> C 	 6.72512 	 -25.158 	 -114.186
|  9> C 	 6.2553 	 -23.9003 	 -114.441
| 10> C 	 4.85278 	 -23.9053 	 -114.74
| 11> C 	 4.26219 	 -25.1657 	 -114.747
| 12> H 	 4.30675 	 -23.05 	 -115.127
| 13> C 	 7.07597 	 -22.5974 	 -114.292
| 14> H 	 7.29258 	 -22.0157 	 -115.196
| 15> H 	 8.04026 	 -23.0029 	 -114.012
| 16> C 	 6.63249 	 -21.5931 	 -113.218
| 17> H 	 5.63206 	 -21.2162 	 -113.452
| 18> H 	 6.57201 	 -22.1304 	 -112.295
| 19> C 	 7.64314 	 -20.3977 	 -112.975
| 20> H 	 7.21266 	 -19.6484 	 -112.394
| 21> H 	 8.52933 	 -20.8283 	 -112.383
| 22> H 	 8.21527 	 -19.9076 	 -113.846
| 23> S 	 1.83228 	 -24.1269 	 -115.432
| 24> C 	 0.40523 	 -25.1219 	 -115.61
| 25> C 	 0.653662 	 -26.4151 	 -115.316
| 26> C 	 2.04376 	 -26.6061 	 -114.993
| 27> C 	 2.84782 	 -25.4622 	 -115.108
| 28> H 	 -0.283098 	 -26.9947 	 -115.292
| 29> C 	 2.58173 	 -27.9783 	 -114.641
| 30> H 	 3.09299 	 -27.9786 	 -113.723
| 31> H 	 3.2667 	 -28.2317 	 -115.39
| 32> C 	 1.50244 	 -29.1251 	 -114.635
| 33> H 	 1.10809 	 -29.1932 	 -115.655
| 34> H 	 0.643078 	 -28.908 	 -113.959
| 35> C 	 2.03879 	 -30.4961 	 -114.21
| 36> H 	 2.43696 	 -30.5573 	 -113.214
| 37> H 	 2.83821 	 -30.8625 	 -114.87
| 38> H 	 1.25537 	 -31.2069 	 -114.424
| 39> H 	 7.69747 	 -25.2134 	 -113.701
| 40> H 	 -0.527271 	 -24.7337 	 -115.797
| 41> *
| 42>
| 43>                          ****END OF INPUT****

CARTESIAN COORDINATES (ANGSTROEM)
---------------------------------
  S      5.513140  -26.334500  -114.190000
  C      6.725120  -25.158000  -114.186000
  C      6.255300  -23.900300  -114.441000
  C      4.852780  -23.905300  -114.740000
  C      4.262190  -25.165700  -114.747000
  H      4.306750  -23.050000  -115.127000
  C      7.075970  -22.597400  -114.292000
  H      7.292580  -22.015700  -115.196000
  H      8.040260  -23.002900  -114.012000
  C      6.632490  -21.593100  -113.218000
  H      5.632060  -21.216200  -113.452000
  H      6.572010  -22.130400  -112.295000
  C      7.643140  -20.397700  -112.975000
  H      7.212660  -19.648400  -112.394000
  H      8.529330  -20.828300  -112.383000
  H      8.215270  -19.907600  -113.846000
  S      1.832280  -24.126900  -115.432000
  C      0.405230  -25.121900  -115.610000
  C      0.653662  -26.415100  -115.316000
  C      2.043760  -26.606100  -114.993000
  C      2.847820  -25.462200  -115.108000
  H     -0.283098  -26.994700  -115.292000
  C      2.581730  -27.978300  -114.641000
  H      3.092990  -27.978600  -113.723000
  H      3.266700  -28.231700  -115.390000
  C      1.502440  -29.125100  -114.635000
  H      1.108090  -29.193200  -115.655000
  H      0.643078  -28.908000  -113.959000
  C      2.038790  -30.496100  -114.210000
  H      2.436960  -30.557300  -113.214000
  H      2.838210  -30.862500  -114.870000
  H      1.255370  -31.206900  -114.424000
  H      7.697470  -25.213400  -113.701000
  H     -0.527271  -24.733700  -115.797000

 Total Charge           Charge          ....    0
 Multiplicity           Mult            ....    1
 Number of Electrons    NEL             ....  134
 Basis Dimension        Dim             ....  322

ORBITAL ENERGIES
----------------

  NO   OCC          E(Eh)            E(eV)
   0   2.0000     -88.971105     -2421.0268
   1   2.0000     -88.962979     -2420.8057
   2   2.0000     -10.341183      -281.3979
   3   2.0000     -10.330664      -281.1117
   4   2.0000     -10.310070      -280.5513
   5   2.0000     -10.309138      -280.5259
   6   2.0000     -10.308451      -280.5072
   7   2.0000     -10.301487      -280.3177
   8   2.0000     -10.295126      -280.1446
   9   2.0000     -10.294011      -280.1143
  10   2.0000     -10.293459      -280.0993
  11   2.0000     -10.290641      -280.0226
  12   2.0000     -10.290339      -280.0144
  13   2.0000     -10.289041      -279.9790
  14   2.0000     -10.282241      -279.7940
  15   2.0000     -10.275283      -279.6047
  16   2.0000      -8.085257      -220.0110
  17   2.0000      -8.078605      -219.8300
  18   2.0000      -6.043968      -164.4647
  19   2.0000      -6.039718      -164.3491
  20   2.0000      -6.037138      -164.2789
  21   2.0000      -6.035974      -164.2472
  22   2.0000      -6.033006      -164.1665
  23   2.0000      -6.029292      -164.0654
  24   2.0000      -1.010542       -27.4982
  25   2.0000      -0.991197       -26.9718
  26   2.0000      -0.906220       -24.6595
  27   2.0000      -0.904383       -24.6095
  28   2.0000      -0.877758       -23.8850
  29   2.0000      -0.850911       -23.1545
  30   2.0000      -0.842373       -22.9221
  31   2.0000      -0.822635       -22.3850
  32   2.0000      -0.780807       -21.2468
  33   2.0000      -0.771532       -20.9945
  34   2.0000      -0.710725       -19.3398
  35   2.0000      -0.705244       -19.1907
  36   2.0000      -0.693106       -18.8604
  37   2.0000      -0.659956       -17.9583
  38   2.0000      -0.631259       -17.1774
  39   2.0000      -0.622020       -16.9260
  40   2.0000      -0.598575       -16.2881
  41   2.0000      -0.578107       -15.7311
  42   2.0000      -0.571604       -15.5541
  43   2.0000      -0.558355       -15.1936
  44   2.0000      -0.531764       -14.4700
  45   2.0000      -0.521516       -14.1912
  46   2.0000      -0.518248       -14.1022
  47   2.0000      -0.512343       -13.9416
  48   2.0000      -0.505477       -13.7547
  49   2.0000      -0.495818       -13.4919
  50   2.0000      -0.486979       -13.2514
  51   2.0000      -0.480754       -13.0820
  52   2.0000      -0.473180       -12.8759
  53   2.0000      -0.468615       -12.7517
  54   2.0000      -0.456515       -12.4224
  55   2.0000      -0.449004       -12.2180
  56   2.0000      -0.448144       -12.1946
  57   2.0000      -0.435705       -11.8561
  58   2.0000      -0.431467       -11.7408
  59   2.0000      -0.426656       -11.6099
  60   2.0000      -0.420112       -11.4318
  61   2.0000      -0.414994       -11.2925
  62   2.0000      -0.408485       -11.1154
  63   2.0000      -0.371744       -10.1157
  64   2.0000      -0.332069        -9.0361
  65   2.0000      -0.329544        -8.9674
  66   2.0000      -0.284909        -7.7528
  67   0.0000       0.020703         0.5634
  68   0.0000       0.088678         2.4131
  69   0.0000       0.116985         3.1833
  70   0.0000       0.123038         3.3480
  71   0.0000       0.132988         3.6188

MULLIKEN ATOMIC CHARGES
-----------------------
   0 S :    0.102719
   1 C :   -0.085672
   2 C :   -0.108607
   3 C :   -0.012900
   4 C :   -0.119648
   5 H :    0.028162
   6 C :    0.071891
   7 H :    0.037367
   8 H :   -0.005469
   9 C :   -0.063530
  10 H :    0.035702
  11 H :    0.028641
  12 C :   -0.085758
  13 H :    0.033290
  14 H :    0.034289
  15 H :    0.043681
  16 S :    0.068946
  17 C :   -0.044918
  18 C :   -0.050689
  19 C :   -0.088659
  20 C :   -0.084282
  21 H :    0.036112
  22 C :    0.089019
  23 H :    0.023589
  24 H :    0.027685
  25 C :   -0.126367
  26 H :    0.032557
  27 H :    0.038976
  28 C :   -0.014500
  29 H :    0.037401
  30 H :    0.020626
  31 H :    0.027779
  32 H :    0.052485
  33 H :    0.020080
Sum of atomic charges:   -0.0000000

LOEWDIN ATOMIC CHARGES
----------------------
   0 S :    0.416548
   1 C :   -0.221043
   2 C :   -0.064270
   3 C :   -0.074433
   4 C :   -0.169518
   5 H :    0.025369
   6 C :   -0.031952
   7 H :    0.031387
   8 H :    0.023073
   9 C :   -0.034889
  10 H :    0.022093
  11 H :    0.024114
  12 C :   -0.074793
  13 H :    0.016523
  14 H :    0.032411
  15 H :    0.033367
  16 S :    0.422320
  17 C :   -0.164963
  18 C :   -0.079350
  19 C :   -0.054947
  20 C :   -0.205514
  21 H :    0.046297
  22 C :   -0.032783
  23 H :    0.019286
  24 H :    0.027226
  25 C :   -0.040490
  26 H :    0.025008
  27 H :    0.025223
  28 C :   -0.065251
  29 H :    0.023498
  30 H :    0.025300
  31 H :    0.027998
  32 H :    0.035096
  33 H :    0.012058

  Mayer bond orders larger than 0.100000
B(  0-S ,  1-C ) :   1.1437 B(  0-S ,  4-C ) :   1.1299 B(  1-C ,  2-C ) :   1.6387
B(  1-C , 32-H ) :   0.9456 B(  2-C ,  3-C ) :   1.2595 B(  2-C ,  6-C ) :   1.0205
B(  3-C ,  4-C ) :   1.5710 B(  3-C ,  5-H ) :   0.9770 B(  4-C , 20-C ) :   1.0840
B(  6-C ,  7-H ) :   0.9424 B(  6-C ,  8-H ) :   0.9386 B(  6-C ,  9-C ) :   1.0602
B(  9-C , 10-H ) :   0.9592 B(  9-C , 11-H ) :   0.9566 B(  9-C , 12-C ) :   1.0669
B( 12-C , 13-H ) :   0.9777 B( 12-C , 14-H ) :   0.9767 B( 12-C , 15-H ) :   0.9776
B( 16-S , 17-C ) :   1.1608 B( 16-S , 20-C ) :   1.1430 B( 17-C , 18-C ) :   1.6202
B( 17-C , 33-H ) :   0.9697 B( 18-C , 19-C ) :   1.2270 B( 18-C , 21-H ) :   0.9919
B( 19-C , 20-C ) :   1.5725 B( 19-C , 22-C ) :   1.0225 B( 22-C , 23-H ) :   0.9271
B( 22-C , 24-H ) :   0.9334 B( 22-C , 25-C ) :   1.0946 B( 25-C , 26-H ) :   0.9476
B( 25-C , 27-H ) :   0.9532 B( 25-C , 28-C ) :   1.0889 B( 28-C , 29-H ) :   0.9751
B( 28-C , 30-H ) :   0.9710 B( 28-C , 31-H ) :   0.9698

Dispersion correction           -0.013135894
FINAL SINGLE POINT ENERGY     -1339.867979777662

DIPOLE MOMENT
-------------
                                X             Y             Z
Electronic contribution:     -6.56853       0.76622      -6.69874
Nuclear contribution   :      6.45532      -0.77008       6.90619
                        -----------------------------------------
Total Dipole Moment    :     -0.11322      -0.00386       0.20745
                        -----------------------------------------
Magnitude (a.u.)       :      0.23636
Magnitude (Debye)      :      0.60079

Rotational constants in cm-1:     0.024298     0.006861     0.005513
Rotational constants in MHz :   728.433907   205.684917   165.264659

                             ****ORCA TERMINATED NORMALLY****
TOTAL RUN TIME: 0 days 0 hours 0 minutes 20 seconds 523 msec
