                         Program Version 4.2.1 -  RELEASE  -
|  1> ! wB97X-D3 SP def2-SVP
|  2> %pal
|  3> nprocs 24
|  4> end
|  5>
|  6> * xyz 0 1
|  7> S 	 -141.714 	 3.58369 	 15.4179
|  8> C 	 -141.793 	 2.744 	 13.8629
|  9> C 	 -141.44 	 3.55925 	 12.8095
| 10> C 	 -141.211 	 4.93772 	 13.2869
| 11> C 	 -141.292 	 5.11509 	 14.5948
| 12> H 	 -140.972 	 5.77313 	 12.7092
| 13> C 	 -141.065 	 3.08209 	 11.3872
| 14> H 	 -141.434 	 2.10007 	 11.4389
| 15> H 	 -140.034 	 3.09124 	 11.3744
| 16> C 	 -141.73 	 3.89593 	 10.1989
| 17> H 	 -142.855 	 3.95234 	 10.2826
| 18> H 	 -141.375 	 4.92644 	 10.2779
| 19> C 	 -141.323 	 3.43348 	 8.81293
| 20> H 	 -141.753 	 4.06677 	 8.04318
| 21> H 	 -140.249 	 3.42473 	 8.67826
| 22> H 	 -141.704 	 2.43976 	 8.4324
| 23> S 	 -139.811 	 7.24499 	 15.3964
| 24> C 	 -140.518 	 8.56785 	 16.3182
| 25> C 	 -141.74 	 8.1342 	 16.8099
| 26> C 	 -142.215 	 6.94262 	 16.248
| 27> C 	 -141.315 	 6.38769 	 15.3502
| 28> H 	 -142.245 	 8.65985 	 17.557
| 29> C 	 -143.647 	 6.45028 	 16.4415
| 30> H 	 -144.162 	 7.11615 	 17.1221
| 31> H 	 -143.62 	 5.48587 	 16.9013
| 32> C 	 -144.544 	 6.26405 	 15.148
| 33> H 	 -144.155 	 5.32306 	 14.7319
| 34> H 	 -144.29 	 7.0869 	 14.4835
| 35> C 	 -146.029 	 6.01582 	 15.393
| 36> H 	 -146.448 	 6.99136 	 15.7332
| 37> H 	 -146.159 	 5.26987 	 16.1717
| 38> H 	 -146.655 	 5.75161 	 14.4998
| 39> H 	 -141.881 	 1.64162 	 13.8523
| 40> H 	 -139.907 	 9.23706 	 16.8755
| 41> *
| 42>
| 43>                          ****END OF INPUT****

CARTESIAN COORDINATES (ANGSTROEM)
---------------------------------
  S    -141.714000    3.583690   15.417900
  C    -141.793000    2.744000   13.862900
  C    -141.440000    3.559250   12.809500
  C    -141.211000    4.937720   13.286900
  C    -141.292000    5.115090   14.594800
  H    -140.972000    5.773130   12.709200
  C    -141.065000    3.082090   11.387200
  H    -141.434000    2.100070   11.438900
  H    -140.034000    3.091240   11.374400
  C    -141.730000    3.895930   10.198900
  H    -142.855000    3.952340   10.282600
  H    -141.375000    4.926440   10.277900
  C    -141.323000    3.433480    8.812930
  H    -141.753000    4.066770    8.043180
  H    -140.249000    3.424730    8.678260
  H    -141.704000    2.439760    8.432400
  S    -139.811000    7.244990   15.396400
  C    -140.518000    8.567850   16.318200
  C    -141.740000    8.134200   16.809900
  C    -142.215000    6.942620   16.248000
  C    -141.315000    6.387690   15.350200
  H    -142.245000    8.659850   17.557000
  C    -143.647000    6.450280   16.441500
  H    -144.162000    7.116150   17.122100
  H    -143.620000    5.485870   16.901300
  C    -144.544000    6.264050   15.148000
  H    -144.155000    5.323060   14.731900
  H    -144.290000    7.086900   14.483500
  C    -146.029000    6.015820   15.393000
  H    -146.448000    6.991360   15.733200
  H    -146.159000    5.269870   16.171700
  H    -146.655000    5.751610   14.499800
  H    -141.881000    1.641620   13.852300
  H    -139.907000    9.237060   16.875500

 Total Charge           Charge          ....    0
 Multiplicity           Mult            ....    1
 Number of Electrons    NEL             ....  134
 Basis Dimension        Dim             ....  322

ORBITAL ENERGIES
----------------

  NO   OCC          E(Eh)            E(eV)
   0   2.0000     -88.964936     -2420.8590
   1   2.0000     -88.962839     -2420.8019
   2   2.0000     -10.328721      -281.0588
   3   2.0000     -10.327614      -281.0287
   4   2.0000     -10.321179      -280.8536
   5   2.0000     -10.312559      -280.6190
   6   2.0000     -10.309314      -280.5307
   7   2.0000     -10.300931      -280.3026
   8   2.0000     -10.298181      -280.2277
   9   2.0000     -10.292004      -280.0597
  10   2.0000     -10.290054      -280.0066
  11   2.0000     -10.289873      -280.0017
  12   2.0000     -10.286676      -279.9147
  13   2.0000     -10.281798      -279.7820
  14   2.0000     -10.281529      -279.7746
  15   2.0000     -10.280810      -279.7551
  16   2.0000      -8.079846      -219.8638
  17   2.0000      -8.076796      -219.7808
  18   2.0000      -6.038220      -164.3083
  19   2.0000      -6.035520      -164.2349
  20   2.0000      -6.034317      -164.2021
  21   2.0000      -6.031534      -164.1264
  22   2.0000      -6.030738      -164.1047
  23   2.0000      -6.027251      -164.0098
  24   2.0000      -1.007993       -27.4289
  25   2.0000      -0.983884       -26.7729
  26   2.0000      -0.906730       -24.6734
  27   2.0000      -0.899634       -24.4803
  28   2.0000      -0.872551       -23.7433
  29   2.0000      -0.850133       -23.1333
  30   2.0000      -0.844846       -22.9894
  31   2.0000      -0.822696       -22.3867
  32   2.0000      -0.781064       -21.2538
  33   2.0000      -0.769665       -20.9437
  34   2.0000      -0.708923       -19.2908
  35   2.0000      -0.696465       -18.9518
  36   2.0000      -0.684427       -18.6242
  37   2.0000      -0.670289       -18.2395
  38   2.0000      -0.646043       -17.5797
  39   2.0000      -0.618875       -16.8405
  40   2.0000      -0.593095       -16.1389
  41   2.0000      -0.574697       -15.6383
  42   2.0000      -0.562731       -15.3127
  43   2.0000      -0.554001       -15.0751
  44   2.0000      -0.527876       -14.3642
  45   2.0000      -0.521363       -14.1870
  46   2.0000      -0.515149       -14.0179
  47   2.0000      -0.512956       -13.9582
  48   2.0000      -0.508814       -13.8455
  49   2.0000      -0.503057       -13.6889
  50   2.0000      -0.491839       -13.3836
  51   2.0000      -0.477134       -12.9835
  52   2.0000      -0.469821       -12.7845
  53   2.0000      -0.466186       -12.6856
  54   2.0000      -0.459051       -12.4914
  55   2.0000      -0.449932       -12.2433
  56   2.0000      -0.445607       -12.1256
  57   2.0000      -0.438299       -11.9267
  58   2.0000      -0.430895       -11.7253
  59   2.0000      -0.421289       -11.4639
  60   2.0000      -0.417996       -11.3743
  61   2.0000      -0.417286       -11.3549
  62   2.0000      -0.401104       -10.9146
  63   2.0000      -0.349621        -9.5137
  64   2.0000      -0.332636        -9.0515
  65   2.0000      -0.325051        -8.8451
  66   2.0000      -0.302915        -8.2427
  67   0.0000       0.030655         0.8342
  68   0.0000       0.064842         1.7644
  69   0.0000       0.108551         2.9538
  70   0.0000       0.118999         3.2381
  71   0.0000       0.123166         3.3515

MULLIKEN ATOMIC CHARGES
-----------------------
   0 S :    0.081729
   1 C :   -0.148164
   2 C :   -0.093968
   3 C :    0.048051
   4 C :   -0.128314
   5 H :   -0.010598
   6 C :    0.137558
   7 H :    0.006190
   8 H :    0.031028
   9 C :   -0.103532
  10 H :    0.046547
  11 H :    0.035137
  12 C :   -0.053878
  13 H :    0.029609
  14 H :    0.030512
  15 H :    0.031412
  16 S :    0.099225
  17 C :   -0.067473
  18 C :   -0.045419
  19 C :   -0.027560
  20 C :   -0.169971
  21 H :   -0.000468
  22 C :    0.078628
  23 H :    0.005644
  24 H :    0.020506
  25 C :   -0.079930
  26 H :    0.036821
  27 H :    0.036364
  28 C :   -0.058101
  29 H :    0.027545
  30 H :    0.033601
  31 H :    0.048555
  32 H :    0.064853
  33 H :    0.057859
Sum of atomic charges:    0.0000000

LOEWDIN ATOMIC CHARGES
----------------------
   0 S :    0.368350
   1 C :   -0.189795
   2 C :   -0.055537
   3 C :   -0.053846
   4 C :   -0.178438
   5 H :    0.022636
   6 C :   -0.013294
   7 H :    0.024510
   8 H :    0.025358
   9 C :   -0.042355
  10 H :    0.034394
  11 H :    0.025509
  12 C :   -0.075164
  13 H :    0.027656
  14 H :    0.023430
  15 H :    0.028576
  16 S :    0.419709
  17 C :   -0.192372
  18 C :   -0.054065
  19 C :   -0.064269
  20 C :   -0.195240
  21 H :    0.022129
  22 C :   -0.029024
  23 H :    0.021623
  24 H :    0.022450
  25 C :   -0.040515
  26 H :    0.023324
  27 H :    0.022029
  28 C :   -0.070128
  29 H :    0.025083
  30 H :    0.025038
  31 H :    0.034591
  32 H :    0.033265
  33 H :    0.024384

  Mayer bond orders larger than 0.100000
B(  0-S ,  1-C ) :   1.1213 B(  0-S ,  4-C ) :   1.1003 B(  1-C ,  2-C ) :   1.6681
B(  1-C , 32-H ) :   0.9608 B(  2-C ,  3-C ) :   1.1628 B(  2-C ,  6-C ) :   1.0107
B(  3-C ,  4-C ) :   1.6832 B(  3-C ,  5-H ) :   0.9975 B(  4-C , 20-C ) :   0.9892
B(  6-C ,  7-H ) :   0.9369 B(  6-C ,  8-H ) :   0.9418 B(  6-C ,  9-C ) :   1.0532
B(  9-C , 10-H ) :   0.9591 B(  9-C , 11-H ) :   0.9540 B(  9-C , 12-C ) :   1.0906
B( 12-C , 13-H ) :   0.9716 B( 12-C , 14-H ) :   0.9736 B( 12-C , 15-H ) :   0.9740
B( 16-S , 17-C ) :   1.1554 B( 16-S , 20-C ) :   1.1838 B( 17-C , 18-C ) :   1.5765
B( 17-C , 20-C ) :   0.1085 B( 17-C , 33-H ) :   0.9644 B( 18-C , 19-C ) :   1.2914
B( 18-C , 21-H ) :   0.9939 B( 19-C , 20-C ) :   1.5451 B( 19-C , 22-C ) :   1.0482
B( 22-C , 23-H ) :   0.9408 B( 22-C , 24-H ) :   0.9207 B( 22-C , 25-C ) :   1.0517
B( 25-C , 26-H ) :   0.9492 B( 25-C , 27-H ) :   0.9648 B( 25-C , 28-C ) :   1.0830
B( 28-C , 29-H ) :   0.9754 B( 28-C , 30-H ) :   0.9732 B( 28-C , 31-H ) :   0.9738

Dispersion correction           -0.014473278
FINAL SINGLE POINT ENERGY     -1339.870107119787

DIPOLE MOMENT
-------------
                                X             Y             Z
Electronic contribution:     15.83496       4.10451      17.55174
Nuclear contribution   :    -15.99854      -4.23837     -17.85132
                        -----------------------------------------
Total Dipole Moment    :     -0.16358      -0.13386      -0.29959
                        -----------------------------------------
Magnitude (a.u.)       :      0.36665
Magnitude (Debye)      :      0.93195

Rotational constants in cm-1:     0.017970     0.008167     0.007043
Rotational constants in MHz :   538.718226   244.845014   211.149508

                             ****ORCA TERMINATED NORMALLY****
TOTAL RUN TIME: 0 days 0 hours 0 minutes 20 seconds 184 msec
