                         Program Version 4.2.1 -  RELEASE  -
|  1> ! wB97X-D3 SP def2-SVP
|  2> %pal
|  3> nprocs 24
|  4> end
|  5>
|  6> * xyz 0 1
|  7> S 	 -42.865 	 -3.34789 	 17.0714
|  8> C 	 -43.0563 	 -1.85498 	 16.1887
|  9> C 	 -43.6218 	 -2.1054 	 14.9655
| 10> C 	 -43.8525 	 -3.49135 	 14.6559
| 11> C 	 -43.3836 	 -4.30486 	 15.6667
| 12> H 	 -44.2764 	 -3.91149 	 13.771
| 13> C 	 -44.0128 	 -1.01494 	 14.03
| 14> H 	 -43.7578 	 -1.07462 	 12.9888
| 15> H 	 -43.365 	 -0.138449 	 14.2401
| 16> C 	 -45.5042 	 -0.559188 	 14.1874
| 17> H 	 -46.223 	 -1.38088 	 14.1364
| 18> H 	 -45.6421 	 -0.324245 	 15.2578
| 19> C 	 -45.8193 	 0.569765 	 13.2236
| 20> H 	 -44.8976 	 1.18541 	 13.0309
| 21> H 	 -46.0846 	 0.120993 	 12.2641
| 22> H 	 -46.6096 	 1.18159 	 13.6996
| 23> S 	 -44.6234 	 -6.6154 	 16.5052
| 24> C 	 -44.0335 	 -8.12228 	 16.1391
| 25> C 	 -42.72 	 -8.10184 	 15.7264
| 26> C 	 -42.3647 	 -6.73311 	 15.4809
| 27> C 	 -43.3735 	 -5.7747 	 15.7096
| 28> H 	 -42.057 	 -8.96398 	 15.6226
| 29> C 	 -40.9247 	 -6.4083 	 15.1524
| 30> H 	 -40.3314 	 -7.15935 	 15.6259
| 31> H 	 -40.7816 	 -5.44258 	 15.6603
| 32> C 	 -40.6538 	 -6.25756 	 13.6356
| 33> H 	 -40.7424 	 -5.13933 	 13.4819
| 34> H 	 -41.4667 	 -6.72972 	 13.0315
| 35> C 	 -39.2407 	 -6.73426 	 13.3398
| 36> H 	 -38.5936 	 -6.16865 	 14.0213
| 37> H 	 -38.9893 	 -6.46418 	 12.3129
| 38> H 	 -39.2072 	 -7.86139 	 13.4623
| 39> H 	 -42.8578 	 -0.845413 	 16.4846
| 40> H 	 -44.5245 	 -9.14861 	 16.4157
| 41> *
| 42>
| 43>                          ****END OF INPUT****

CARTESIAN COORDINATES (ANGSTROEM)
---------------------------------
  S    -42.865000   -3.347890   17.071400
  C    -43.056300   -1.854980   16.188700
  C    -43.621800   -2.105400   14.965500
  C    -43.852500   -3.491350   14.655900
  C    -43.383600   -4.304860   15.666700
  H    -44.276400   -3.911490   13.771000
  C    -44.012800   -1.014940   14.030000
  H    -43.757800   -1.074620   12.988800
  H    -43.365000   -0.138449   14.240100
  C    -45.504200   -0.559188   14.187400
  H    -46.223000   -1.380880   14.136400
  H    -45.642100   -0.324245   15.257800
  C    -45.819300    0.569765   13.223600
  H    -44.897600    1.185410   13.030900
  H    -46.084600    0.120993   12.264100
  H    -46.609600    1.181590   13.699600
  S    -44.623400   -6.615400   16.505200
  C    -44.033500   -8.122280   16.139100
  C    -42.720000   -8.101840   15.726400
  C    -42.364700   -6.733110   15.480900
  C    -43.373500   -5.774700   15.709600
  H    -42.057000   -8.963980   15.622600
  C    -40.924700   -6.408300   15.152400
  H    -40.331400   -7.159350   15.625900
  H    -40.781600   -5.442580   15.660300
  C    -40.653800   -6.257560   13.635600
  H    -40.742400   -5.139330   13.481900
  H    -41.466700   -6.729720   13.031500
  C    -39.240700   -6.734260   13.339800
  H    -38.593600   -6.168650   14.021300
  H    -38.989300   -6.464180   12.312900
  H    -39.207200   -7.861390   13.462300
  H    -42.857800   -0.845413   16.484600
  H    -44.524500   -9.148610   16.415700

 Total Charge           Charge          ....    0
 Multiplicity           Mult            ....    1
 Number of Electrons    NEL             ....  134
 Basis Dimension        Dim             ....  322

ORBITAL ENERGIES
----------------

  NO   OCC          E(Eh)            E(eV)
   0   2.0000     -88.967482     -2420.9283
   1   2.0000     -88.962497     -2420.7926
   2   2.0000     -10.333311      -281.1837
   3   2.0000     -10.319187      -280.7994
   4   2.0000     -10.317497      -280.7534
   5   2.0000     -10.313311      -280.6395
   6   2.0000     -10.300036      -280.2782
   7   2.0000     -10.299268      -280.2573
   8   2.0000     -10.296230      -280.1747
   9   2.0000     -10.291109      -280.0353
  10   2.0000     -10.289306      -279.9862
  11   2.0000     -10.286040      -279.8974
  12   2.0000     -10.285263      -279.8762
  13   2.0000     -10.284088      -279.8443
  14   2.0000     -10.281109      -279.7632
  15   2.0000     -10.279511      -279.7197
  16   2.0000      -8.081640      -219.9126
  17   2.0000      -8.079731      -219.8607
  18   2.0000      -6.040257      -164.3638
  19   2.0000      -6.037980      -164.3018
  20   2.0000      -6.036216      -164.2538
  21   2.0000      -6.033816      -164.1885
  22   2.0000      -6.032319      -164.1477
  23   2.0000      -6.030675      -164.1030
  24   2.0000      -1.014414       -27.6036
  25   2.0000      -0.990602       -26.9556
  26   2.0000      -0.910415       -24.7736
  27   2.0000      -0.907315       -24.6893
  28   2.0000      -0.870481       -23.6870
  29   2.0000      -0.849231       -23.1088
  30   2.0000      -0.848299       -23.0834
  31   2.0000      -0.818833       -22.2816
  32   2.0000      -0.775909       -21.1136
  33   2.0000      -0.762734       -20.7551
  34   2.0000      -0.703113       -19.1327
  35   2.0000      -0.699162       -19.0252
  36   2.0000      -0.683942       -18.6110
  37   2.0000      -0.656920       -17.8757
  38   2.0000      -0.647496       -17.6193
  39   2.0000      -0.620464       -16.8837
  40   2.0000      -0.592386       -16.1196
  41   2.0000      -0.574503       -15.6330
  42   2.0000      -0.557875       -15.1805
  43   2.0000      -0.551268       -15.0008
  44   2.0000      -0.526628       -14.3303
  45   2.0000      -0.524431       -14.2705
  46   2.0000      -0.515583       -14.0297
  47   2.0000      -0.510823       -13.9002
  48   2.0000      -0.508779       -13.8446
  49   2.0000      -0.502679       -13.6786
  50   2.0000      -0.495981       -13.4963
  51   2.0000      -0.481426       -13.1003
  52   2.0000      -0.469306       -12.7705
  53   2.0000      -0.461236       -12.5509
  54   2.0000      -0.457452       -12.4479
  55   2.0000      -0.449890       -12.2421
  56   2.0000      -0.444761       -12.1026
  57   2.0000      -0.441214       -12.0060
  58   2.0000      -0.431123       -11.7314
  59   2.0000      -0.420452       -11.4411
  60   2.0000      -0.416649       -11.3376
  61   2.0000      -0.405794       -11.0422
  62   2.0000      -0.403754       -10.9867
  63   2.0000      -0.335903        -9.1404
  64   2.0000      -0.326858        -8.8943
  65   2.0000      -0.318726        -8.6730
  66   2.0000      -0.310347        -8.4450
  67   0.0000       0.045986         1.2513
  68   0.0000       0.052822         1.4374
  69   0.0000       0.112429         3.0594
  70   0.0000       0.122900         3.3443
  71   0.0000       0.127320         3.4645

MULLIKEN ATOMIC CHARGES
-----------------------
   0 S :    0.115970
   1 C :   -0.088280
   2 C :   -0.083387
   3 C :    0.074995
   4 C :   -0.174341
   5 H :    0.010666
   6 C :    0.026503
   7 H :    0.017148
   8 H :    0.010680
   9 C :   -0.081401
  10 H :    0.025067
  11 H :    0.017989
  12 C :   -0.039242
  13 H :    0.034549
  14 H :    0.040719
  15 H :    0.048897
  16 S :    0.135281
  17 C :   -0.111046
  18 C :   -0.044330
  19 C :   -0.087971
  20 C :   -0.169140
  21 H :    0.026603
  22 C :    0.077293
  23 H :    0.014603
  24 H :    0.027974
  25 C :   -0.099152
  26 H :    0.038069
  27 H :    0.043901
  28 C :   -0.051297
  29 H :    0.039109
  30 H :    0.032832
  31 H :    0.046671
  32 H :    0.036716
  33 H :    0.087350
Sum of atomic charges:   -0.0000000

LOEWDIN ATOMIC CHARGES
----------------------
   0 S :    0.395937
   1 C :   -0.193375
   2 C :   -0.065140
   3 C :   -0.044743
   4 C :   -0.186578
   5 H :    0.033533
   6 C :   -0.041587
   7 H :    0.023552
   8 H :    0.030276
   9 C :   -0.045168
  10 H :    0.022412
  11 H :    0.022212
  12 C :   -0.068195
  13 H :    0.029072
  14 H :    0.028330
  15 H :    0.034054
  16 S :    0.469271
  17 C :   -0.226107
  18 C :   -0.087182
  19 C :   -0.045531
  20 C :   -0.244551
  21 H :    0.035682
  22 C :   -0.034917
  23 H :    0.022043
  24 H :    0.031249
  25 C :   -0.048098
  26 H :    0.031206
  27 H :    0.024384
  28 C :   -0.066698
  29 H :    0.028851
  30 H :    0.023414
  31 H :    0.031679
  32 H :    0.028971
  33 H :    0.051744

  Mayer bond orders larger than 0.100000
B(  0-S ,  1-C ) :   1.1233 B(  0-S ,  4-C ) :   1.1421 B(  1-C ,  2-C ) :   1.6360
B(  1-C , 32-H ) :   0.9662 B(  2-C ,  3-C ) :   1.2104 B(  2-C ,  6-C ) :   1.0356
B(  3-C ,  4-C ) :   1.6026 B(  3-C ,  5-H ) :   1.0009 B(  4-C , 20-C ) :   1.0150
B(  6-C ,  7-H ) :   0.9471 B(  6-C ,  8-H ) :   0.9349 B(  6-C ,  9-C ) :   1.0446
B(  9-C , 10-H ) :   0.9588 B(  9-C , 11-H ) :   0.9572 B(  9-C , 12-C ) :   1.0634
B( 12-C , 13-H ) :   0.9744 B( 12-C , 14-H ) :   0.9749 B( 12-C , 15-H ) :   0.9741
B( 16-S , 17-C ) :   1.2220 B( 16-S , 20-C ) :   1.1629 B( 17-C , 18-C ) :   1.5352
B( 17-C , 33-H ) :   0.9506 B( 18-C , 19-C ) :   1.2987 B( 18-C , 21-H ) :   0.9951
B( 19-C , 20-C ) :   1.5418 B( 19-C , 22-C ) :   1.0447 B( 22-C , 23-H ) :   0.9497
B( 22-C , 24-H ) :   0.9238 B( 22-C , 25-C ) :   1.0327 B( 25-C , 26-H ) :   0.9528
B( 25-C , 27-H ) :   0.9672 B( 25-C , 28-C ) :   1.0788 B( 28-C , 29-H ) :   0.9712
B( 28-C , 30-H ) :   0.9736 B( 28-C , 31-H ) :   0.9769

Dispersion correction           -0.013934520
FINAL SINGLE POINT ENERGY     -1339.865717282377

DIPOLE MOMENT
-------------
                                X             Y             Z
Electronic contribution:     -6.70437     -11.37555      18.56025
Nuclear contribution   :      6.83008      11.48769     -18.89184
                        -----------------------------------------
Total Dipole Moment    :      0.12571       0.11214      -0.33158
                        -----------------------------------------
Magnitude (a.u.)       :      0.37192
Magnitude (Debye)      :      0.94535

Rotational constants in cm-1:     0.019858     0.007483     0.006464
Rotational constants in MHz :   595.332995   224.324581   193.773900

                             ****ORCA TERMINATED NORMALLY****
TOTAL RUN TIME: 0 days 0 hours 0 minutes 21 seconds 108 msec
