                         Program Version 4.2.1 -  RELEASE  -
|  1> ! wB97X-D3 SP def2-SVP
|  2> %pal
|  3> nprocs 24
|  4> end
|  5>
|  6> * xyz 0 1
|  7> S 	 -64.2969 	 7.63688 	 -78.1286
|  8> C 	 -64.3977 	 6.31864 	 -79.1979
|  9> C 	 -65.6706 	 5.73972 	 -79.1494
| 10> C 	 -66.4935 	 6.36787 	 -78.1743
| 11> C 	 -65.8868 	 7.36398 	 -77.5137
| 12> H 	 -67.5271 	 6.06769 	 -77.9633
| 13> C 	 -66.1676 	 4.59342 	 -79.9701
| 14> H 	 -66.4138 	 3.75529 	 -79.3193
| 15> H 	 -65.2669 	 4.32216 	 -80.5287
| 16> C 	 -67.1781 	 4.92295 	 -81.0108
| 17> H 	 -68.1334 	 5.07769 	 -80.4364
| 18> H 	 -66.8726 	 5.87287 	 -81.4346
| 19> C 	 -67.3454 	 3.79356 	 -82.0815
| 20> H 	 -67.5436 	 2.82325 	 -81.6403
| 21> H 	 -68.2402 	 3.92247 	 -82.727
| 22> H 	 -66.4954 	 3.72122 	 -82.7046
| 23> S 	 -68.0012 	 9.2301 	 -77.0338
| 24> C 	 -68.271 	 9.75506 	 -75.3971
| 25> C 	 -67.2012 	 9.42749 	 -74.6043
| 26> C 	 -66.1714 	 8.68207 	 -75.2703
| 27> C 	 -66.4821 	 8.33535 	 -76.595
| 28> H 	 -67.1594 	 9.70284 	 -73.584
| 29> C 	 -64.9439 	 8.17419 	 -74.5612
| 30> H 	 -64.3113 	 7.75262 	 -75.3206
| 31> H 	 -65.2386 	 7.35748 	 -73.9815
| 32> C 	 -64.0855 	 9.19216 	 -73.7916
| 33> H 	 -64.5818 	 9.73658 	 -72.9764
| 34> H 	 -63.7272 	 9.96132 	 -74.4482
| 35> C 	 -62.9367 	 8.51167 	 -73.0058
| 36> H 	 -62.4209 	 9.24045 	 -72.3445
| 37> H 	 -62.2408 	 7.99806 	 -73.6795
| 38> H 	 -63.4657 	 7.79976 	 -72.3746
| 39> H 	 -63.6986 	 5.97946 	 -79.8683
| 40> H 	 -69.1063 	 10.3488 	 -74.9734
| 41> *
| 42>
| 43>                          ****END OF INPUT****

CARTESIAN COORDINATES (ANGSTROEM)
---------------------------------
  S    -64.296900    7.636880  -78.128600
  C    -64.397700    6.318640  -79.197900
  C    -65.670600    5.739720  -79.149400
  C    -66.493500    6.367870  -78.174300
  C    -65.886800    7.363980  -77.513700
  H    -67.527100    6.067690  -77.963300
  C    -66.167600    4.593420  -79.970100
  H    -66.413800    3.755290  -79.319300
  H    -65.266900    4.322160  -80.528700
  C    -67.178100    4.922950  -81.010800
  H    -68.133400    5.077690  -80.436400
  H    -66.872600    5.872870  -81.434600
  C    -67.345400    3.793560  -82.081500
  H    -67.543600    2.823250  -81.640300
  H    -68.240200    3.922470  -82.727000
  H    -66.495400    3.721220  -82.704600
  S    -68.001200    9.230100  -77.033800
  C    -68.271000    9.755060  -75.397100
  C    -67.201200    9.427490  -74.604300
  C    -66.171400    8.682070  -75.270300
  C    -66.482100    8.335350  -76.595000
  H    -67.159400    9.702840  -73.584000
  C    -64.943900    8.174190  -74.561200
  H    -64.311300    7.752620  -75.320600
  H    -65.238600    7.357480  -73.981500
  C    -64.085500    9.192160  -73.791600
  H    -64.581800    9.736580  -72.976400
  H    -63.727200    9.961320  -74.448200
  C    -62.936700    8.511670  -73.005800
  H    -62.420900    9.240450  -72.344500
  H    -62.240800    7.998060  -73.679500
  H    -63.465700    7.799760  -72.374600
  H    -63.698600    5.979460  -79.868300
  H    -69.106300   10.348800  -74.973400

 Total Charge           Charge          ....    0
 Multiplicity           Mult            ....    1
 Number of Electrons    NEL             ....  134
 Basis Dimension        Dim             ....  322

ORBITAL ENERGIES
----------------

  NO   OCC          E(Eh)            E(eV)
   0   2.0000     -88.967283     -2420.9228
   1   2.0000     -88.963631     -2420.8235
   2   2.0000     -10.330177      -281.0984
   3   2.0000     -10.324490      -280.9437
   4   2.0000     -10.319396      -280.8050
   5   2.0000     -10.308568      -280.5104
   6   2.0000     -10.303596      -280.3751
   7   2.0000     -10.297396      -280.2064
   8   2.0000     -10.289377      -279.9882
   9   2.0000     -10.289213      -279.9837
  10   2.0000     -10.288166      -279.9552
  11   2.0000     -10.285225      -279.8752
  12   2.0000     -10.284045      -279.8431
  13   2.0000     -10.281693      -279.7791
  14   2.0000     -10.280005      -279.7331
  15   2.0000     -10.279618      -279.7226
  16   2.0000      -8.082943      -219.9481
  17   2.0000      -8.077369      -219.7964
  18   2.0000      -6.041318      -164.3926
  19   2.0000      -6.037206      -164.2807
  20   2.0000      -6.035995      -164.2478
  21   2.0000      -6.033898      -164.1907
  22   2.0000      -6.031990      -164.1388
  23   2.0000      -6.028080      -164.0324
  24   2.0000      -1.012613       -27.5546
  25   2.0000      -0.983327       -26.7577
  26   2.0000      -0.918750       -25.0005
  27   2.0000      -0.907570       -24.6962
  28   2.0000      -0.871220       -23.7071
  29   2.0000      -0.852179       -23.1890
  30   2.0000      -0.846084       -23.0231
  31   2.0000      -0.817342       -22.2410
  32   2.0000      -0.783739       -21.3266
  33   2.0000      -0.769898       -20.9500
  34   2.0000      -0.708737       -19.2857
  35   2.0000      -0.700416       -19.0593
  36   2.0000      -0.695446       -18.9241
  37   2.0000      -0.660251       -17.9663
  38   2.0000      -0.640941       -17.4409
  39   2.0000      -0.621658       -16.9162
  40   2.0000      -0.595081       -16.1930
  41   2.0000      -0.578148       -15.7322
  42   2.0000      -0.568467       -15.4688
  43   2.0000      -0.565360       -15.3842
  44   2.0000      -0.527664       -14.3585
  45   2.0000      -0.521742       -14.1973
  46   2.0000      -0.519000       -14.1227
  47   2.0000      -0.511452       -13.9173
  48   2.0000      -0.507175       -13.8009
  49   2.0000      -0.504132       -13.7181
  50   2.0000      -0.497469       -13.5368
  51   2.0000      -0.473466       -12.8837
  52   2.0000      -0.471370       -12.8266
  53   2.0000      -0.464431       -12.6378
  54   2.0000      -0.461709       -12.5638
  55   2.0000      -0.449712       -12.2373
  56   2.0000      -0.447653       -12.1813
  57   2.0000      -0.437561       -11.9067
  58   2.0000      -0.433404       -11.7935
  59   2.0000      -0.425859       -11.5882
  60   2.0000      -0.418037       -11.3754
  61   2.0000      -0.414107       -11.2684
  62   2.0000      -0.410725       -11.1764
  63   2.0000      -0.344991        -9.3877
  64   2.0000      -0.332160        -9.0385
  65   2.0000      -0.327207        -8.9038
  66   2.0000      -0.297279        -8.0894
  67   0.0000       0.032678         0.8892
  68   0.0000       0.069662         1.8956
  69   0.0000       0.111126         3.0239
  70   0.0000       0.120370         3.2754
  71   0.0000       0.136523         3.7150

MULLIKEN ATOMIC CHARGES
-----------------------
   0 S :    0.127374
   1 C :   -0.068701
   2 C :   -0.140911
   3 C :    0.012850
   4 C :   -0.149026
   5 H :    0.019093
   6 C :    0.082520
   7 H :    0.038101
   8 H :   -0.005204
   9 C :   -0.074751
  10 H :    0.032736
  11 H :    0.032392
  12 C :   -0.031669
  13 H :    0.023948
  14 H :    0.036474
  15 H :    0.028208
  16 S :    0.102538
  17 C :   -0.096156
  18 C :   -0.019755
  19 C :   -0.039448
  20 C :   -0.145395
  21 H :    0.002849
  22 C :    0.119458
  23 H :   -0.000558
  24 H :    0.018872
  25 C :   -0.089971
  26 H :    0.024413
  27 H :    0.029145
  28 C :   -0.055997
  29 H :    0.042061
  30 H :    0.038485
  31 H :    0.025472
  32 H :    0.010046
  33 H :    0.070506
Sum of atomic charges:    0.0000000

LOEWDIN ATOMIC CHARGES
----------------------
   0 S :    0.446052
   1 C :   -0.200359
   2 C :   -0.061543
   3 C :   -0.061758
   4 C :   -0.203341
   5 H :    0.036281
   6 C :   -0.038460
   7 H :    0.031781
   8 H :    0.026432
   9 C :   -0.038904
  10 H :    0.026893
  11 H :    0.026056
  12 C :   -0.062771
  13 H :    0.025067
  14 H :    0.032004
  15 H :    0.018907
  16 S :    0.381265
  17 C :   -0.189346
  18 C :   -0.074278
  19 C :   -0.046159
  20 C :   -0.187415
  21 H :    0.024229
  22 C :   -0.030145
  23 H :    0.020356
  24 H :    0.026523
  25 C :   -0.039329
  26 H :    0.021860
  27 H :    0.020691
  28 C :   -0.062174
  29 H :    0.029719
  30 H :    0.023275
  31 H :    0.023556
  32 H :    0.012283
  33 H :    0.042753

  Mayer bond orders larger than 0.100000
B(  0-S ,  1-C ) :   1.1562 B(  0-S ,  4-C ) :   1.1601 B(  1-C ,  2-C ) :   1.5913
B(  1-C , 32-H ) :   0.9747 B(  2-C ,  3-C ) :   1.2418 B(  2-C ,  6-C ) :   1.0337
B(  3-C ,  4-C ) :   1.5855 B(  3-C ,  5-H ) :   1.0016 B(  4-C , 20-C ) :   1.0174
B(  6-C ,  7-H ) :   0.9340 B(  6-C ,  8-H ) :   0.9314 B(  6-C ,  9-C ) :   1.0618
B(  9-C , 10-H ) :   0.9533 B(  9-C , 11-H ) :   0.9555 B(  9-C , 12-C ) :   1.0789
B( 12-C , 13-H ) :   0.9738 B( 12-C , 14-H ) :   0.9757 B( 12-C , 15-H ) :   0.9770
B( 16-S , 17-C ) :   1.1552 B( 16-S , 20-C ) :   1.1153 B( 17-C , 18-C ) :   1.6100
B( 17-C , 33-H ) :   0.9601 B( 18-C , 19-C ) :   1.2441 B( 18-C , 21-H ) :   0.9961
B( 19-C , 20-C ) :   1.5818 B( 19-C , 22-C ) :   1.0522 B( 22-C , 23-H ) :   0.9190
B( 22-C , 24-H ) :   0.9269 B( 22-C , 25-C ) :   1.0575 B( 25-C , 26-H ) :   0.9586
B( 25-C , 27-H ) :   0.9575 B( 25-C , 28-C ) :   1.0747 B( 28-C , 29-H ) :   0.9760
B( 28-C , 30-H ) :   0.9775 B( 28-C , 31-H ) :   0.9771

Dispersion correction           -0.013618312
FINAL SINGLE POINT ENERGY     -1339.883473589572

DIPOLE MOMENT
-------------
                                X             Y             Z
Electronic contribution:     -4.88668      12.45138      -0.53240
Nuclear contribution   :      4.86706     -12.79469       0.66586
                        -----------------------------------------
Total Dipole Moment    :     -0.01962      -0.34331       0.13346
                        -----------------------------------------
Magnitude (a.u.)       :      0.36886
Magnitude (Debye)      :      0.93757

Rotational constants in cm-1:     0.022455     0.007245     0.005870
Rotational constants in MHz :   673.171315   217.194173   175.969258

                             ****ORCA TERMINATED NORMALLY****
TOTAL RUN TIME: 0 days 0 hours 0 minutes 20 seconds 758 msec
