                         Program Version 4.2.1 -  RELEASE  -
|  1> ! wB97X-D3 SP def2-SVP
|  2> %pal
|  3> nprocs 24
|  4> end
|  5>
|  6> * xyz 0 1
|  7> S 	 2.52796 	 -24.8948 	 -114.7
|  8> C 	 3.05828 	 -25.2394 	 -116.328
|  9> C 	 3.51924 	 -26.551 	 -116.327
| 10> C 	 3.26162 	 -27.2832 	 -115.113
| 11> C 	 2.66185 	 -26.4997 	 -114.133
| 12> H 	 3.4421 	 -28.3042 	 -114.949
| 13> C 	 4.03018 	 -27.2716 	 -117.606
| 14> H 	 3.44247 	 -28.1878 	 -117.846
| 15> H 	 4.98451 	 -27.6296 	 -117.476
| 16> C 	 4.18283 	 -26.347 	 -118.843
| 17> H 	 3.29264 	 -25.7502 	 -119.095
| 18> H 	 5.02914 	 -25.6278 	 -118.82
| 19> C 	 4.38227 	 -27.2366 	 -120.071
| 20> H 	 3.49832 	 -27.8209 	 -120.284
| 21> H 	 4.29687 	 -26.5186 	 -120.87
| 22> H 	 5.33358 	 -27.7668 	 -120.104
| 23> S 	 1.67542 	 -25.798 	 -111.623
| 24> C 	 1.09928 	 -27.0798 	 -110.562
| 25> C 	 1.12203 	 -28.3215 	 -111.2
| 26> C 	 1.44635 	 -28.2409 	 -112.586
| 27> C 	 1.94982 	 -26.9555 	 -112.927
| 28> H 	 0.868499 	 -29.2352 	 -110.631
| 29> C 	 1.41358 	 -29.5592 	 -113.386
| 30> H 	 1.1601 	 -30.3301 	 -112.687
| 31> H 	 2.4692 	 -29.6776 	 -113.756
| 32> C 	 0.509589 	 -29.6699 	 -114.628
| 33> H 	 0.818461 	 -29.013 	 -115.365
| 34> H 	 -0.384687 	 -29.2451 	 -114.15
| 35> C 	 0.230952 	 -31.1015 	 -115.07
| 36> H 	 1.14899 	 -31.7513 	 -115.138
| 37> H 	 -0.337349 	 -31.1777 	 -116.12
| 38> H 	 -0.310864 	 -31.5942 	 -114.286
| 39> H 	 3.21462 	 -24.5741 	 -117.083
| 40> H 	 0.802876 	 -26.8356 	 -109.583
| 41> *
| 42>
| 43>                          ****END OF INPUT****

CARTESIAN COORDINATES (ANGSTROEM)
---------------------------------
  S      2.527960  -24.894800  -114.700000
  C      3.058280  -25.239400  -116.328000
  C      3.519240  -26.551000  -116.327000
  C      3.261620  -27.283200  -115.113000
  C      2.661850  -26.499700  -114.133000
  H      3.442100  -28.304200  -114.949000
  C      4.030180  -27.271600  -117.606000
  H      3.442470  -28.187800  -117.846000
  H      4.984510  -27.629600  -117.476000
  C      4.182830  -26.347000  -118.843000
  H      3.292640  -25.750200  -119.095000
  H      5.029140  -25.627800  -118.820000
  C      4.382270  -27.236600  -120.071000
  H      3.498320  -27.820900  -120.284000
  H      4.296870  -26.518600  -120.870000
  H      5.333580  -27.766800  -120.104000
  S      1.675420  -25.798000  -111.623000
  C      1.099280  -27.079800  -110.562000
  C      1.122030  -28.321500  -111.200000
  C      1.446350  -28.240900  -112.586000
  C      1.949820  -26.955500  -112.927000
  H      0.868499  -29.235200  -110.631000
  C      1.413580  -29.559200  -113.386000
  H      1.160100  -30.330100  -112.687000
  H      2.469200  -29.677600  -113.756000
  C      0.509589  -29.669900  -114.628000
  H      0.818461  -29.013000  -115.365000
  H     -0.384687  -29.245100  -114.150000
  C      0.230952  -31.101500  -115.070000
  H      1.148990  -31.751300  -115.138000
  H     -0.337349  -31.177700  -116.120000
  H     -0.310864  -31.594200  -114.286000
  H      3.214620  -24.574100  -117.083000
  H      0.802876  -26.835600  -109.583000

 Total Charge           Charge          ....    0
 Multiplicity           Mult            ....    1
 Number of Electrons    NEL             ....  134
 Basis Dimension        Dim             ....  322

ORBITAL ENERGIES
----------------

  NO   OCC          E(Eh)            E(eV)
   0   2.0000     -88.968412     -2420.9536
   1   2.0000     -88.962638     -2420.7964
   2   2.0000     -10.336316      -281.2655
   3   2.0000     -10.330302      -281.1018
   4   2.0000     -10.319378      -280.8046
   5   2.0000     -10.311621      -280.5935
   6   2.0000     -10.309654      -280.5399
   7   2.0000     -10.305239      -280.4198
   8   2.0000     -10.301029      -280.3053
   9   2.0000     -10.297696      -280.2146
  10   2.0000     -10.292900      -280.0841
  11   2.0000     -10.291573      -280.0479
  12   2.0000     -10.291299      -280.0405
  13   2.0000     -10.291170      -280.0370
  14   2.0000     -10.280931      -279.7584
  15   2.0000     -10.275353      -279.6066
  16   2.0000      -8.082802      -219.9442
  17   2.0000      -8.078339      -219.8228
  18   2.0000      -6.041289      -164.3918
  19   2.0000      -6.037339      -164.2843
  20   2.0000      -6.036945      -164.2736
  21   2.0000      -6.033647      -164.1839
  22   2.0000      -6.032566      -164.1545
  23   2.0000      -6.029089      -164.0599
  24   2.0000      -1.007540       -27.4166
  25   2.0000      -0.983121       -26.7521
  26   2.0000      -0.912353       -24.8264
  27   2.0000      -0.910256       -24.7693
  28   2.0000      -0.869109       -23.6497
  29   2.0000      -0.853874       -23.2351
  30   2.0000      -0.845757       -23.0142
  31   2.0000      -0.813747       -22.1432
  32   2.0000      -0.781620       -21.2690
  33   2.0000      -0.772657       -21.0251
  34   2.0000      -0.713281       -19.4094
  35   2.0000      -0.701660       -19.0931
  36   2.0000      -0.687525       -18.7085
  37   2.0000      -0.667655       -18.1678
  38   2.0000      -0.646176       -17.5834
  39   2.0000      -0.616587       -16.7782
  40   2.0000      -0.593614       -16.1531
  41   2.0000      -0.575637       -15.6639
  42   2.0000      -0.574395       -15.6301
  43   2.0000      -0.566157       -15.4059
  44   2.0000      -0.526576       -14.3289
  45   2.0000      -0.521829       -14.1997
  46   2.0000      -0.519360       -14.1325
  47   2.0000      -0.512836       -13.9550
  48   2.0000      -0.509856       -13.8739
  49   2.0000      -0.500106       -13.6086
  50   2.0000      -0.491847       -13.3838
  51   2.0000      -0.484605       -13.1868
  52   2.0000      -0.481224       -13.0948
  53   2.0000      -0.466545       -12.6953
  54   2.0000      -0.458816       -12.4850
  55   2.0000      -0.450738       -12.2652
  56   2.0000      -0.446791       -12.1578
  57   2.0000      -0.437247       -11.8981
  58   2.0000      -0.433225       -11.7886
  59   2.0000      -0.429736       -11.6937
  60   2.0000      -0.414941       -11.2911
  61   2.0000      -0.409095       -11.1320
  62   2.0000      -0.406491       -11.0612
  63   2.0000      -0.356903        -9.7118
  64   2.0000      -0.334807        -9.1106
  65   2.0000      -0.326316        -8.8795
  66   2.0000      -0.283093        -7.7033
  67   0.0000       0.016862         0.4588
  68   0.0000       0.081856         2.2274
  69   0.0000       0.096957         2.6383
  70   0.0000       0.116106         3.1594
  71   0.0000       0.137387         3.7385

MULLIKEN ATOMIC CHARGES
-----------------------
   0 S :    0.094384
   1 C :   -0.077400
   2 C :   -0.088056
   3 C :    0.005756
   4 C :   -0.075826
   5 H :   -0.020977
   6 C :    0.096581
   7 H :    0.038990
   8 H :    0.007144
   9 C :   -0.148904
  10 H :    0.032982
  11 H :    0.043259
  12 C :   -0.032256
  13 H :    0.028811
  14 H :    0.013216
  15 H :    0.045431
  16 S :    0.100187
  17 C :   -0.082318
  18 C :   -0.043114
  19 C :   -0.059248
  20 C :   -0.126918
  21 H :    0.037347
  22 C :    0.031012
  23 H :    0.006891
  24 H :    0.037626
  25 C :   -0.025591
  26 H :    0.024298
  27 H :    0.030047
  28 C :   -0.081222
  29 H :    0.032081
  30 H :    0.063141
  31 H :    0.027268
  32 H :    0.019703
  33 H :    0.045675
Sum of atomic charges:    0.0000000

LOEWDIN ATOMIC CHARGES
----------------------
   0 S :    0.420086
   1 C :   -0.187697
   2 C :   -0.054699
   3 C :   -0.066991
   4 C :   -0.198632
   5 H :    0.019421
   6 C :   -0.028499
   7 H :    0.036989
   8 H :    0.020987
   9 C :   -0.045548
  10 H :    0.022646
  11 H :    0.027739
  12 C :   -0.063625
  13 H :    0.024630
  14 H :    0.024961
  15 H :    0.025402
  16 S :    0.398189
  17 C :   -0.171901
  18 C :   -0.072305
  19 C :   -0.054918
  20 C :   -0.191578
  21 H :    0.038624
  22 C :   -0.027185
  23 H :    0.024311
  24 H :    0.029686
  25 C :   -0.039943
  26 H :    0.013774
  27 H :    0.030972
  28 C :   -0.076544
  29 H :    0.026664
  30 H :    0.045132
  31 H :    0.021816
  32 H :    0.010465
  33 H :    0.017572

  Mayer bond orders larger than 0.100000
B(  0-S ,  1-C ) :   1.1297 B(  0-S ,  4-C ) :   1.1674 B(  1-C ,  2-C ) :   1.6014
B(  1-C , 32-H ) :   0.9739 B(  2-C ,  3-C ) :   1.2574 B(  2-C ,  6-C ) :   1.0084
B(  3-C ,  4-C ) :   1.5388 B(  3-C ,  5-H ) :   1.0097 B(  4-C , 20-C ) :   1.0570
B(  6-C ,  7-H ) :   0.9519 B(  6-C ,  8-H ) :   0.9287 B(  6-C ,  9-C ) :   1.0665
B(  9-C , 10-H ) :   0.9530 B(  9-C , 11-H ) :   0.9566 B(  9-C , 12-C ) :   1.0911
B( 12-C , 13-H ) :   0.9730 B( 12-C , 14-H ) :   0.9707 B( 12-C , 15-H ) :   0.9753
B( 16-S , 17-C ) :   1.1598 B( 16-S , 20-C ) :   1.1452 B( 17-C , 18-C ) :   1.5823
B( 17-C , 20-C ) :   0.1067 B( 17-C , 33-H ) :   0.9774 B( 18-C , 19-C ) :   1.2668
B( 18-C , 21-H ) :   0.9828 B( 19-C , 20-C ) :   1.5500 B( 19-C , 22-C ) :   1.0371
B( 22-C , 23-H ) :   0.9377 B( 22-C , 24-H ) :   0.9291 B( 22-C , 25-C ) :   1.0481
B( 25-C , 26-H ) :   0.9573 B( 25-C , 27-H ) :   0.9560 B( 25-C , 28-C ) :   1.0745
B( 28-C , 29-H ) :   0.9741 B( 28-C , 30-H ) :   0.9726 B( 28-C , 31-H ) :   0.9721

Dispersion correction           -0.013681223
FINAL SINGLE POINT ENERGY     -1339.853278701823

DIPOLE MOMENT
-------------
                                X             Y             Z
Electronic contribution:     -1.48601      20.83449      24.56030
Nuclear contribution   :      1.51897     -21.46410     -24.89296
                        -----------------------------------------
Total Dipole Moment    :      0.03296      -0.62962      -0.33266
                        -----------------------------------------
Magnitude (a.u.)       :      0.71286
Magnitude (Debye)      :      1.81194

Rotational constants in cm-1:     0.019219     0.008333     0.006074
Rotational constants in MHz :   576.170729   249.810563   182.098060

                             ****ORCA TERMINATED NORMALLY****
TOTAL RUN TIME: 0 days 0 hours 0 minutes 21 seconds 422 msec
