                         Program Version 4.2.1 -  RELEASE  -
|  1> ! wB97X-D3 SP def2-SVP
|  2> %pal
|  3> nprocs 24
|  4> end
|  5>
|  6> * xyz 0 1
|  7> S 	 -66.1915 	 -45.0222 	 -88.713
|  8> C 	 -64.4726 	 -45.0144 	 -88.994
|  9> C 	 -63.8381 	 -46.147 	 -88.5635
| 10> C 	 -64.7227 	 -47.0605 	 -87.8977
| 11> C 	 -66.0158 	 -46.592 	 -87.8465
| 12> H 	 -64.3318 	 -47.9163 	 -87.4674
| 13> C 	 -62.327 	 -46.3133 	 -88.5831
| 14> H 	 -62.0429 	 -47.0312 	 -87.8655
| 15> H 	 -61.9377 	 -45.3577 	 -88.1678
| 16> C 	 -61.6803 	 -46.7348 	 -89.9953
| 17> H 	 -62.0003 	 -47.736 	 -90.3536
| 18> H 	 -62.0389 	 -46.0044 	 -90.7666
| 19> C 	 -60.1274 	 -46.7529 	 -90.0928
| 20> H 	 -59.7792 	 -47.5175 	 -89.3906
| 21> H 	 -59.7524 	 -46.9608 	 -91.1025
| 22> H 	 -59.7216 	 -45.8702 	 -89.7459
| 23> S 	 -68.3767 	 -45.9832 	 -86.8579
| 24> C 	 -69.2278 	 -47.0568 	 -85.8389
| 25> C 	 -68.7444 	 -48.3443 	 -85.9078
| 26> C 	 -67.5448 	 -48.4913 	 -86.6413
| 27> C 	 -67.1805 	 -47.2038 	 -87.1779
| 28> H 	 -69.2119 	 -49.1629 	 -85.4014
| 29> C 	 -66.7359 	 -49.866 	 -86.8142
| 30> H 	 -66.7594 	 -50.333 	 -85.8567
| 31> H 	 -65.6715 	 -49.58 	 -86.7999
| 32> C 	 -67.1333 	 -50.6748 	 -88.065
| 33> H 	 -66.7594 	 -50.031 	 -88.9546
| 34> H 	 -68.2057 	 -50.5947 	 -88.0805
| 35> C 	 -66.7779 	 -52.1246 	 -88.2176
| 36> H 	 -67.4235 	 -52.6736 	 -88.8577
| 37> H 	 -66.6834 	 -52.7314 	 -87.2952
| 38> H 	 -65.6845 	 -52.1559 	 -88.5492
| 39> H 	 -64.0122 	 -44.2488 	 -89.5935
| 40> H 	 -70.1802 	 -46.7604 	 -85.3515
| 41> *
| 42>
| 43>                          ****END OF INPUT****

CARTESIAN COORDINATES (ANGSTROEM)
---------------------------------
  S    -66.191500  -45.022200  -88.713000
  C    -64.472600  -45.014400  -88.994000
  C    -63.838100  -46.147000  -88.563500
  C    -64.722700  -47.060500  -87.897700
  C    -66.015800  -46.592000  -87.846500
  H    -64.331800  -47.916300  -87.467400
  C    -62.327000  -46.313300  -88.583100
  H    -62.042900  -47.031200  -87.865500
  H    -61.937700  -45.357700  -88.167800
  C    -61.680300  -46.734800  -89.995300
  H    -62.000300  -47.736000  -90.353600
  H    -62.038900  -46.004400  -90.766600
  C    -60.127400  -46.752900  -90.092800
  H    -59.779200  -47.517500  -89.390600
  H    -59.752400  -46.960800  -91.102500
  H    -59.721600  -45.870200  -89.745900
  S    -68.376700  -45.983200  -86.857900
  C    -69.227800  -47.056800  -85.838900
  C    -68.744400  -48.344300  -85.907800
  C    -67.544800  -48.491300  -86.641300
  C    -67.180500  -47.203800  -87.177900
  H    -69.211900  -49.162900  -85.401400
  C    -66.735900  -49.866000  -86.814200
  H    -66.759400  -50.333000  -85.856700
  H    -65.671500  -49.580000  -86.799900
  C    -67.133300  -50.674800  -88.065000
  H    -66.759400  -50.031000  -88.954600
  H    -68.205700  -50.594700  -88.080500
  C    -66.777900  -52.124600  -88.217600
  H    -67.423500  -52.673600  -88.857700
  H    -66.683400  -52.731400  -87.295200
  H    -65.684500  -52.155900  -88.549200
  H    -64.012200  -44.248800  -89.593500
  H    -70.180200  -46.760400  -85.351500

 Total Charge           Charge          ....    0
 Multiplicity           Mult            ....    1
 Number of Electrons    NEL             ....  134
 Basis Dimension        Dim             ....  322

ORBITAL ENERGIES
----------------

  NO   OCC          E(Eh)            E(eV)
   0   2.0000     -88.966583     -2420.9038
   1   2.0000     -88.965474     -2420.8736
   2   2.0000     -10.335046      -281.2309
   3   2.0000     -10.331656      -281.1387
   4   2.0000     -10.314219      -280.6642
   5   2.0000     -10.313945      -280.6567
   6   2.0000     -10.308073      -280.4969
   7   2.0000     -10.301025      -280.3051
   8   2.0000     -10.297447      -280.2078
   9   2.0000     -10.297311      -280.2041
  10   2.0000     -10.296983      -280.1952
  11   2.0000     -10.292408      -280.0707
  12   2.0000     -10.291635      -280.0496
  13   2.0000     -10.288766      -279.9716
  14   2.0000     -10.283226      -279.8208
  15   2.0000     -10.274998      -279.5969
  16   2.0000      -8.081547      -219.9101
  17   2.0000      -8.080847      -219.8910
  18   2.0000      -6.039757      -164.3501
  19   2.0000      -6.039510      -164.3434
  20   2.0000      -6.035912      -164.2455
  21   2.0000      -6.035621      -164.2376
  22   2.0000      -6.032486      -164.1523
  23   2.0000      -6.031283      -164.1195
  24   2.0000      -1.006987       -27.4015
  25   2.0000      -0.982752       -26.7420
  26   2.0000      -0.904961       -24.6253
  27   2.0000      -0.899298       -24.4711
  28   2.0000      -0.866263       -23.5722
  29   2.0000      -0.855311       -23.2742
  30   2.0000      -0.847526       -23.0624
  31   2.0000      -0.814450       -22.1623
  32   2.0000      -0.786452       -21.4004
  33   2.0000      -0.768434       -20.9101
  34   2.0000      -0.703558       -19.1448
  35   2.0000      -0.700860       -19.0714
  36   2.0000      -0.692296       -18.8383
  37   2.0000      -0.664582       -18.0842
  38   2.0000      -0.637562       -17.3489
  39   2.0000      -0.623404       -16.9637
  40   2.0000      -0.594886       -16.1877
  41   2.0000      -0.564064       -15.3490
  42   2.0000      -0.556597       -15.1458
  43   2.0000      -0.545901       -14.8547
  44   2.0000      -0.530702       -14.4411
  45   2.0000      -0.525658       -14.3039
  46   2.0000      -0.522041       -14.2055
  47   2.0000      -0.511425       -13.9166
  48   2.0000      -0.507364       -13.8061
  49   2.0000      -0.497386       -13.5346
  50   2.0000      -0.491181       -13.3657
  51   2.0000      -0.474746       -12.9185
  52   2.0000      -0.473868       -12.8946
  53   2.0000      -0.464197       -12.6315
  54   2.0000      -0.463227       -12.6050
  55   2.0000      -0.450244       -12.2518
  56   2.0000      -0.447152       -12.1676
  57   2.0000      -0.435450       -11.8492
  58   2.0000      -0.432359       -11.7651
  59   2.0000      -0.424451       -11.5499
  60   2.0000      -0.420070       -11.4307
  61   2.0000      -0.415787       -11.3141
  62   2.0000      -0.404597       -11.0096
  63   2.0000      -0.359894        -9.7932
  64   2.0000      -0.340923        -9.2770
  65   2.0000      -0.327391        -8.9088
  66   2.0000      -0.276732        -7.5303
  67   0.0000       0.019080         0.5192
  68   0.0000       0.075863         2.0643
  69   0.0000       0.097874         2.6633
  70   0.0000       0.122969         3.3461
  71   0.0000       0.135312         3.6820

MULLIKEN ATOMIC CHARGES
-----------------------
   0 S :    0.093110
   1 C :   -0.117634
   2 C :   -0.083646
   3 C :    0.014459
   4 C :   -0.070405
   5 H :   -0.024477
   6 C :    0.065231
   7 H :    0.004538
   8 H :    0.040554
   9 C :   -0.107806
  10 H :    0.035912
  11 H :    0.032136
  12 C :   -0.017444
  13 H :    0.023643
  14 H :    0.042860
  15 H :    0.010437
  16 S :    0.095263
  17 C :   -0.090860
  18 C :   -0.033396
  19 C :   -0.072692
  20 C :   -0.145238
  21 H :    0.008050
  22 C :    0.088455
  23 H :    0.010899
  24 H :    0.011321
  25 C :   -0.070372
  26 H :    0.053746
  27 H :    0.025735
  28 C :   -0.037902
  29 H :    0.039981
  30 H :    0.027627
  31 H :    0.034128
  32 H :    0.045234
  33 H :    0.068554
Sum of atomic charges:   -0.0000000

LOEWDIN ATOMIC CHARGES
----------------------
   0 S :    0.375832
   1 C :   -0.194580
   2 C :   -0.062262
   3 C :   -0.059019
   4 C :   -0.168567
   5 H :    0.017501
   6 C :   -0.029527
   7 H :    0.019653
   8 H :    0.038977
   9 C :   -0.040927
  10 H :    0.026334
  11 H :    0.023259
  12 C :   -0.061997
  13 H :    0.024987
  14 H :    0.031058
  15 H :    0.010989
  16 S :    0.432351
  17 C :   -0.207106
  18 C :   -0.073161
  19 C :   -0.053237
  20 C :   -0.191962
  21 H :    0.028480
  22 C :   -0.027375
  23 H :    0.024145
  24 H :    0.027315
  25 C :   -0.051191
  26 H :    0.042780
  27 H :    0.022460
  28 C :   -0.073188
  29 H :    0.025361
  30 H :    0.028490
  31 H :    0.034726
  32 H :    0.024639
  33 H :    0.034761

  Mayer bond orders larger than 0.100000
B(  0-S ,  1-C ) :   1.1214 B(  0-S ,  4-C ) :   1.1298 B(  1-C ,  2-C ) :   1.6402
B(  1-C , 32-H ) :   0.9664 B(  2-C ,  3-C ) :   1.2410 B(  2-C ,  6-C ) :   1.0173
B(  3-C ,  4-C ) :   1.5781 B(  3-C ,  5-H ) :   1.0083 B(  4-C , 20-C ) :   1.0630
B(  6-C ,  7-H ) :   0.9411 B(  6-C ,  8-H ) :   0.9491 B(  6-C ,  9-C ) :   1.0381
B(  9-C , 10-H ) :   0.9607 B(  9-C , 11-H ) :   0.9639 B(  9-C , 12-C ) :   1.0775
B( 12-C , 13-H ) :   0.9751 B( 12-C , 14-H ) :   0.9752 B( 12-C , 15-H ) :   0.9757
B( 16-S , 17-C ) :   1.1719 B( 16-S , 20-C ) :   1.1721 B( 17-C , 18-C ) :   1.5686
B( 17-C , 20-C ) :   0.1032 B( 17-C , 33-H ) :   0.9648 B( 18-C , 19-C ) :   1.2911
B( 18-C , 21-H ) :   0.9929 B( 19-C , 20-C ) :   1.5292 B( 19-C , 22-C ) :   1.0185
B( 22-C , 23-H ) :   0.9335 B( 22-C , 24-H ) :   0.9391 B( 22-C , 25-C ) :   1.0462
B( 25-C , 26-H ) :   0.9524 B( 25-C , 27-H ) :   0.9606 B( 25-C , 28-C ) :   1.0780
B( 28-C , 29-H ) :   0.9750 B( 28-C , 30-H ) :   0.9735 B( 28-C , 31-H ) :   0.9723

Dispersion correction           -0.013264078
FINAL SINGLE POINT ENERGY     -1339.861442838317

DIPOLE MOMENT
-------------
                                X             Y             Z
Electronic contribution:    -21.68331      20.85725       7.01348
Nuclear contribution   :     22.03703     -21.37376      -6.91281
                        -----------------------------------------
Total Dipole Moment    :      0.35371      -0.51651       0.10067
                        -----------------------------------------
Magnitude (a.u.)       :      0.63406
Magnitude (Debye)      :      1.61165

Rotational constants in cm-1:     0.017296     0.008089     0.005839
Rotational constants in MHz :   518.532557   242.490259   175.059553

                             ****ORCA TERMINATED NORMALLY****
TOTAL RUN TIME: 0 days 0 hours 0 minutes 19 seconds 420 msec
