                         Program Version 4.2.1 -  RELEASE  -
|  1> ! wB97X-D3 SP def2-SVP
|  2> %pal
|  3> nprocs 24
|  4> end
|  5>
|  6> * xyz 0 1
|  7> S 	 -95.3926 	 12.8943 	 -116.135
|  8> C 	 -95.8192 	 11.4576 	 -115.164
|  9> C 	 -96.6461 	 10.5462 	 -115.893
| 10> C 	 -97.0205 	 11.0442 	 -117.151
| 11> C 	 -96.3677 	 12.2287 	 -117.47
| 12> H 	 -97.7438 	 10.6137 	 -117.884
| 13> C 	 -97.2699 	 9.30886 	 -115.225
| 14> H 	 -97.9687 	 9.62509 	 -114.445
| 15> H 	 -96.5123 	 8.85061 	 -114.614
| 16> C 	 -97.8623 	 8.32318 	 -116.239
| 17> H 	 -98.2578 	 7.49185 	 -115.624
| 18> H 	 -98.7346 	 8.59275 	 -116.761
| 19> C 	 -96.8036 	 7.7508 	 -117.208
| 20> H 	 -97.0845 	 8.09198 	 -118.213
| 21> H 	 -95.8669 	 8.11284 	 -116.97
| 22> H 	 -96.6708 	 6.62313 	 -117.178
| 23> S 	 -95.0889 	 13.0622 	 -119.719
| 24> C 	 -95.9948 	 13.8412 	 -121.033
| 25> C 	 -97.277 	 14.0567 	 -120.681
| 26> C 	 -97.6872 	 13.5069 	 -119.413
| 27> C 	 -96.6055 	 12.9905 	 -118.716
| 28> H 	 -98.0001 	 14.3368 	 -121.344
| 29> C 	 -99.1738 	 13.6219 	 -118.908
| 30> H 	 -99.1199 	 13.0436 	 -117.972
| 31> H 	 -99.7687 	 13.0325 	 -119.605
| 32> C 	 -99.5709 	 15.1309 	 -118.717
| 33> H 	 -99.3558 	 15.702 	 -119.656
| 34> H 	 -99.1371 	 15.4653 	 -117.818
| 35> C 	 -101.041 	 15.1713 	 -118.504
| 36> H 	 -101.619 	 14.859 	 -119.366
| 37> H 	 -101.413 	 16.1436 	 -118.169
| 38> H 	 -101.429 	 14.3701 	 -117.841
| 39> H 	 -95.4258 	 11.1854 	 -114.178
| 40> H 	 -95.4804 	 14.1544 	 -121.986
| 41> *
| 42>
| 43>                          ****END OF INPUT****

CARTESIAN COORDINATES (ANGSTROEM)
---------------------------------
  S    -95.392600   12.894300  -116.135000
  C    -95.819200   11.457600  -115.164000
  C    -96.646100   10.546200  -115.893000
  C    -97.020500   11.044200  -117.151000
  C    -96.367700   12.228700  -117.470000
  H    -97.743800   10.613700  -117.884000
  C    -97.269900    9.308860  -115.225000
  H    -97.968700    9.625090  -114.445000
  H    -96.512300    8.850610  -114.614000
  C    -97.862300    8.323180  -116.239000
  H    -98.257800    7.491850  -115.624000
  H    -98.734600    8.592750  -116.761000
  C    -96.803600    7.750800  -117.208000
  H    -97.084500    8.091980  -118.213000
  H    -95.866900    8.112840  -116.970000
  H    -96.670800    6.623130  -117.178000
  S    -95.088900   13.062200  -119.719000
  C    -95.994800   13.841200  -121.033000
  C    -97.277000   14.056700  -120.681000
  C    -97.687200   13.506900  -119.413000
  C    -96.605500   12.990500  -118.716000
  H    -98.000100   14.336800  -121.344000
  C    -99.173800   13.621900  -118.908000
  H    -99.119900   13.043600  -117.972000
  H    -99.768700   13.032500  -119.605000
  C    -99.570900   15.130900  -118.717000
  H    -99.355800   15.702000  -119.656000
  H    -99.137100   15.465300  -117.818000
  C    -101.041000   15.171300  -118.504000
  H    -101.619000   14.859000  -119.366000
  H    -101.413000   16.143600  -118.169000
  H    -101.429000   14.370100  -117.841000
  H    -95.425800   11.185400  -114.178000
  H    -95.480400   14.154400  -121.986000

 Total Charge           Charge          ....    0
 Multiplicity           Mult            ....    1
 Number of Electrons    NEL             ....  134
 Basis Dimension        Dim             ....  322

ORBITAL ENERGIES
----------------

  NO   OCC          E(Eh)            E(eV)
   0   2.0000     -88.973048     -2421.0797
   1   2.0000     -88.956562     -2420.6311
   2   2.0000     -10.332035      -281.1490
   3   2.0000     -10.329333      -281.0754
   4   2.0000     -10.320345      -280.8309
   5   2.0000     -10.320010      -280.8218
   6   2.0000     -10.306264      -280.4477
   7   2.0000     -10.304416      -280.3974
   8   2.0000     -10.300463      -280.2898
   9   2.0000     -10.297966      -280.2219
  10   2.0000     -10.294687      -280.1327
  11   2.0000     -10.289568      -279.9934
  12   2.0000     -10.285232      -279.8754
  13   2.0000     -10.283544      -279.8295
  14   2.0000     -10.274955      -279.5957
  15   2.0000     -10.274258      -279.5768
  16   2.0000      -8.086073      -220.0332
  17   2.0000      -8.070582      -219.6117
  18   2.0000      -6.044600      -164.4819
  19   2.0000      -6.040877      -164.3806
  20   2.0000      -6.036868      -164.2715
  21   2.0000      -6.029247      -164.0641
  22   2.0000      -6.025260      -163.9557
  23   2.0000      -6.021140      -163.8435
  24   2.0000      -0.995072       -27.0773
  25   2.0000      -0.973963       -26.5029
  26   2.0000      -0.910589       -24.7784
  27   2.0000      -0.908533       -24.7224
  28   2.0000      -0.862619       -23.4731
  29   2.0000      -0.848409       -23.0864
  30   2.0000      -0.842813       -22.9341
  31   2.0000      -0.812878       -22.1195
  32   2.0000      -0.780307       -21.2332
  33   2.0000      -0.765852       -20.8399
  34   2.0000      -0.709506       -19.3066
  35   2.0000      -0.701375       -19.0854
  36   2.0000      -0.690191       -18.7811
  37   2.0000      -0.661985       -18.0135
  38   2.0000      -0.636113       -17.3095
  39   2.0000      -0.618941       -16.8422
  40   2.0000      -0.591007       -16.0821
  41   2.0000      -0.571836       -15.5605
  42   2.0000      -0.561343       -15.2749
  43   2.0000      -0.552034       -15.0216
  44   2.0000      -0.532349       -14.4860
  45   2.0000      -0.526475       -14.3261
  46   2.0000      -0.516951       -14.0670
  47   2.0000      -0.512119       -13.9355
  48   2.0000      -0.504274       -13.7220
  49   2.0000      -0.494112       -13.4455
  50   2.0000      -0.481984       -13.1154
  51   2.0000      -0.476845       -12.9756
  52   2.0000      -0.463189       -12.6040
  53   2.0000      -0.458812       -12.4849
  54   2.0000      -0.453756       -12.3473
  55   2.0000      -0.448248       -12.1975
  56   2.0000      -0.446946       -12.1620
  57   2.0000      -0.438756       -11.9392
  58   2.0000      -0.438299       -11.9267
  59   2.0000      -0.431416       -11.7394
  60   2.0000      -0.422509       -11.4970
  61   2.0000      -0.408971       -11.1287
  62   2.0000      -0.406568       -11.0633
  63   2.0000      -0.340957        -9.2779
  64   2.0000      -0.329679        -8.9710
  65   2.0000      -0.325793        -8.8653
  66   2.0000      -0.294711        -8.0195
  67   0.0000       0.033565         0.9133
  68   0.0000       0.059495         1.6189
  69   0.0000       0.110389         3.0038
  70   0.0000       0.114537         3.1167
  71   0.0000       0.128000         3.4831

MULLIKEN ATOMIC CHARGES
-----------------------
   0 S :    0.128612
   1 C :   -0.128325
   2 C :   -0.103514
   3 C :    0.021435
   4 C :   -0.156015
   5 H :    0.036976
   6 C :    0.076787
   7 H :    0.042982
   8 H :    0.018516
   9 C :   -0.080958
  10 H :    0.025847
  11 H :    0.022096
  12 C :   -0.045702
  13 H :    0.036586
  14 H :    0.022234
  15 H :    0.043538
  16 S :    0.066869
  17 C :   -0.098715
  18 C :    0.015110
  19 C :   -0.066224
  20 C :   -0.183071
  21 H :   -0.013091
  22 C :    0.043572
  23 H :    0.031347
  24 H :    0.033831
  25 C :   -0.028943
  26 H :    0.050748
  27 H :    0.035539
  28 C :   -0.049511
  29 H :    0.013435
  30 H :    0.037205
  31 H :    0.019430
  32 H :    0.051137
  33 H :    0.080238
Sum of atomic charges:    0.0000000

LOEWDIN ATOMIC CHARGES
----------------------
   0 S :    0.394401
   1 C :   -0.198544
   2 C :   -0.062718
   3 C :   -0.065763
   4 C :   -0.194585
   5 H :    0.043204
   6 C :   -0.030737
   7 H :    0.036582
   8 H :    0.029194
   9 C :   -0.047551
  10 H :    0.030961
  11 H :    0.016155
  12 C :   -0.062101
  13 H :    0.028572
  14 H :    0.015087
  15 H :    0.035390
  16 S :    0.354020
  17 C :   -0.171393
  18 C :   -0.073324
  19 C :   -0.052749
  20 C :   -0.178383
  21 H :    0.014941
  22 C :   -0.024279
  23 H :    0.033642
  24 H :    0.028728
  25 C :   -0.029801
  26 H :    0.034808
  27 H :    0.027351
  28 C :   -0.074824
  29 H :    0.021043
  30 H :    0.024391
  31 H :    0.027344
  32 H :    0.029147
  33 H :    0.041790

  Mayer bond orders larger than 0.100000
B(  0-S ,  1-C ) :   1.1379 B(  0-S ,  4-C ) :   1.1565 B(  1-C ,  2-C ) :   1.5962
B(  1-C ,  4-C ) :   0.1153 B(  1-C , 32-H ) :   0.9663 B(  2-C ,  3-C ) :   1.2585
B(  2-C ,  6-C ) :   1.0056 B(  3-C ,  4-C ) :   1.5680 B(  3-C ,  5-H ) :   0.9833
B(  4-C , 20-C ) :   0.9984 B(  6-C ,  7-H ) :   0.9397 B(  6-C ,  8-H ) :   0.9369
B(  6-C ,  9-C ) :   1.0860 B(  9-C , 10-H ) :   0.9543 B(  9-C , 11-H ) :   0.9599
B(  9-C , 12-C ) :   1.0524 B( 12-C , 13-H ) :   0.9777 B( 12-C , 14-H ) :   0.9831
B( 12-C , 15-H ) :   0.9774 B( 16-S , 17-C ) :   1.1335 B( 16-S , 20-C ) :   1.1215
B( 17-C , 18-C ) :   1.6457 B( 17-C , 33-H ) :   0.9588 B( 18-C , 19-C ) :   1.2068
B( 18-C , 21-H ) :   0.9907 B( 19-C , 20-C ) :   1.6654 B( 19-C , 22-C ) :   1.0176
B( 22-C , 23-H ) :   0.9337 B( 22-C , 24-H ) :   0.9427 B( 22-C , 25-C ) :   1.0615
B( 25-C , 26-H ) :   0.9589 B( 25-C , 27-H ) :   0.9511 B( 25-C , 28-C ) :   1.0902
B( 28-C , 29-H ) :   0.9718 B( 28-C , 30-H ) :   0.9725 B( 28-C , 31-H ) :   0.9645

Dispersion correction           -0.014124602
FINAL SINGLE POINT ENERGY     -1339.856198040829

DIPOLE MOMENT
-------------
                                X             Y             Z
Electronic contribution:     21.74134       9.73089      -2.09114
Nuclear contribution   :    -22.45176     -10.02841       2.13575
                        -----------------------------------------
Total Dipole Moment    :     -0.71042      -0.29752       0.04460
                        -----------------------------------------
Magnitude (a.u.)       :      0.77149
Magnitude (Debye)      :      1.96097

Rotational constants in cm-1:     0.016722     0.008450     0.007377
Rotational constants in MHz :   501.305492   253.336616   221.165599

                             ****ORCA TERMINATED NORMALLY****
TOTAL RUN TIME: 0 days 0 hours 0 minutes 21 seconds 377 msec
