                         Program Version 4.2.1 -  RELEASE  -
|  1> ! wB97X-D3 SP def2-SVP
|  2> %pal
|  3> nprocs 24
|  4> end
|  5>
|  6> * xyz 0 1
|  7> S 	 -111.117 	 51.8817 	 -117.108
|  8> C 	 -111.029 	 50.7024 	 -118.365
|  9> C 	 -110.052 	 49.7552 	 -118.191
| 10> C 	 -109.429 	 49.9441 	 -116.914
| 11> C 	 -109.985 	 50.9187 	 -116.155
| 12> H 	 -108.539 	 49.4068 	 -116.542
| 13> C 	 -109.662 	 48.7402 	 -119.237
| 14> H 	 -108.608 	 48.5801 	 -119.097
| 15> H 	 -109.846 	 49.2566 	 -120.174
| 16> C 	 -110.542 	 47.4157 	 -119.314
| 17> H 	 -111.587 	 47.7916 	 -119.245
| 18> H 	 -110.378 	 47.0002 	 -120.333
| 19> C 	 -110.203 	 46.3537 	 -118.226
| 20> H 	 -110.377 	 46.6006 	 -117.216
| 21> H 	 -110.788 	 45.4436 	 -118.307
| 22> H 	 -109.161 	 46.0788 	 -118.31
| 23> S 	 -109.434 	 52.9035 	 -114.45
| 24> C 	 -108.839 	 52.4017 	 -112.833
| 25> C 	 -109.326 	 51.1705 	 -112.506
| 26> C 	 -109.707 	 50.4302 	 -113.644
| 27> C 	 -109.669 	 51.236 	 -114.814
| 28> H 	 -109.269 	 50.8858 	 -111.475
| 29> C 	 -110.16 	 48.976 	 -113.514
| 30> H 	 -109.649 	 48.6272 	 -112.608
| 31> H 	 -109.665 	 48.3439 	 -114.335
| 32> C 	 -111.704 	 48.8148 	 -113.439
| 33> H 	 -111.925 	 47.7267 	 -113.382
| 34> H 	 -112.218 	 49.1484 	 -114.342
| 35> C 	 -112.42 	 49.3789 	 -112.175
| 36> H 	 -112.182 	 50.5085 	 -112.167
| 37> H 	 -112.089 	 48.9926 	 -111.206
| 38> H 	 -113.498 	 49.2355 	 -112.111
| 39> H 	 -111.728 	 50.616 	 -119.181
| 40> H 	 -108.562 	 53.1304 	 -112.087
| 41> *
| 42>
| 43>                          ****END OF INPUT****

CARTESIAN COORDINATES (ANGSTROEM)
---------------------------------
  S    -111.117000   51.881700  -117.108000
  C    -111.029000   50.702400  -118.365000
  C    -110.052000   49.755200  -118.191000
  C    -109.429000   49.944100  -116.914000
  C    -109.985000   50.918700  -116.155000
  H    -108.539000   49.406800  -116.542000
  C    -109.662000   48.740200  -119.237000
  H    -108.608000   48.580100  -119.097000
  H    -109.846000   49.256600  -120.174000
  C    -110.542000   47.415700  -119.314000
  H    -111.587000   47.791600  -119.245000
  H    -110.378000   47.000200  -120.333000
  C    -110.203000   46.353700  -118.226000
  H    -110.377000   46.600600  -117.216000
  H    -110.788000   45.443600  -118.307000
  H    -109.161000   46.078800  -118.310000
  S    -109.434000   52.903500  -114.450000
  C    -108.839000   52.401700  -112.833000
  C    -109.326000   51.170500  -112.506000
  C    -109.707000   50.430200  -113.644000
  C    -109.669000   51.236000  -114.814000
  H    -109.269000   50.885800  -111.475000
  C    -110.160000   48.976000  -113.514000
  H    -109.649000   48.627200  -112.608000
  H    -109.665000   48.343900  -114.335000
  C    -111.704000   48.814800  -113.439000
  H    -111.925000   47.726700  -113.382000
  H    -112.218000   49.148400  -114.342000
  C    -112.420000   49.378900  -112.175000
  H    -112.182000   50.508500  -112.167000
  H    -112.089000   48.992600  -111.206000
  H    -113.498000   49.235500  -112.111000
  H    -111.728000   50.616000  -119.181000
  H    -108.562000   53.130400  -112.087000

 Total Charge           Charge          ....    0
 Multiplicity           Mult            ....    1
 Number of Electrons    NEL             ....  134
 Basis Dimension        Dim             ....  322

ORBITAL ENERGIES
----------------

  NO   OCC          E(Eh)            E(eV)
   0   2.0000     -88.964670     -2420.8518
   1   2.0000     -88.963771     -2420.8273
   2   2.0000     -10.323289      -280.9110
   3   2.0000     -10.321245      -280.8553
   4   2.0000     -10.313970      -280.6574
   5   2.0000     -10.307156      -280.4720
   6   2.0000     -10.304795      -280.4077
   7   2.0000     -10.301764      -280.3252
   8   2.0000     -10.300224      -280.2833
   9   2.0000     -10.296258      -280.1754
  10   2.0000     -10.292682      -280.0781
  11   2.0000     -10.292036      -280.0605
  12   2.0000     -10.291909      -280.0571
  13   2.0000     -10.290711      -280.0245
  14   2.0000     -10.283338      -279.8238
  15   2.0000     -10.275447      -279.6091
  16   2.0000      -8.079887      -219.8649
  17   2.0000      -8.078827      -219.8361
  18   2.0000      -6.038394      -164.3131
  19   2.0000      -6.037200      -164.2806
  20   2.0000      -6.034519      -164.2076
  21   2.0000      -6.033736      -164.1863
  22   2.0000      -6.030449      -164.0969
  23   2.0000      -6.029260      -164.0645
  24   2.0000      -1.011625       -27.5277
  25   2.0000      -0.985850       -26.8263
  26   2.0000      -0.906855       -24.6768
  27   2.0000      -0.899286       -24.4708
  28   2.0000      -0.873590       -23.7716
  29   2.0000      -0.848815       -23.0974
  30   2.0000      -0.842541       -22.9267
  31   2.0000      -0.816559       -22.2197
  32   2.0000      -0.783746       -21.3268
  33   2.0000      -0.768307       -20.9067
  34   2.0000      -0.709966       -19.3192
  35   2.0000      -0.706954       -19.2372
  36   2.0000      -0.689612       -18.7653
  37   2.0000      -0.662704       -18.0331
  38   2.0000      -0.637164       -17.3381
  39   2.0000      -0.613538       -16.6952
  40   2.0000      -0.588818       -16.0225
  41   2.0000      -0.571031       -15.5386
  42   2.0000      -0.547740       -14.9048
  43   2.0000      -0.541083       -14.7236
  44   2.0000      -0.539689       -14.6857
  45   2.0000      -0.534702       -14.5500
  46   2.0000      -0.517283       -14.0760
  47   2.0000      -0.510291       -13.8857
  48   2.0000      -0.501391       -13.6435
  49   2.0000      -0.493867       -13.4388
  50   2.0000      -0.487480       -13.2650
  51   2.0000      -0.474289       -12.9061
  52   2.0000      -0.471017       -12.8170
  53   2.0000      -0.466824       -12.7029
  54   2.0000      -0.458229       -12.4691
  55   2.0000      -0.449312       -12.2264
  56   2.0000      -0.445837       -12.1318
  57   2.0000      -0.438377       -11.9288
  58   2.0000      -0.433140       -11.7863
  59   2.0000      -0.429862       -11.6971
  60   2.0000      -0.424400       -11.5485
  61   2.0000      -0.420998       -11.4559
  62   2.0000      -0.403403       -10.9772
  63   2.0000      -0.351904        -9.5758
  64   2.0000      -0.333209        -9.0671
  65   2.0000      -0.324527        -8.8308
  66   2.0000      -0.281035        -7.6474
  67   0.0000       0.022903         0.6232
  68   0.0000       0.060654         1.6505
  69   0.0000       0.096308         2.6207
  70   0.0000       0.116009         3.1568
  71   0.0000       0.129679         3.5287

MULLIKEN ATOMIC CHARGES
-----------------------
   0 S :    0.110289
   1 C :   -0.112137
   2 C :   -0.098121
   3 C :    0.004570
   4 C :   -0.138972
   5 H :    0.022677
   6 C :    0.065649
   7 H :    0.023955
   8 H :    0.026083
   9 C :   -0.069341
  10 H :    0.032183
  11 H :    0.041155
  12 C :   -0.030912
  13 H :    0.023478
  14 H :    0.028815
  15 H :    0.025042
  16 S :    0.090933
  17 C :   -0.088169
  18 C :   -0.037107
  19 C :   -0.042886
  20 C :   -0.157474
  21 H :    0.019530
  22 C :    0.066384
  23 H :    0.019614
  24 H :    0.043738
  25 C :   -0.051877
  26 H :    0.029315
  27 H :    0.045516
  28 C :   -0.094379
  29 H :    0.048686
  30 H :    0.023712
  31 H :    0.041139
  32 H :    0.037412
  33 H :    0.051499
Sum of atomic charges:   -0.0000000

LOEWDIN ATOMIC CHARGES
----------------------
   0 S :    0.395292
   1 C :   -0.200971
   2 C :   -0.065828
   3 C :   -0.065833
   4 C :   -0.190368
   5 H :    0.036155
   6 C :   -0.029534
   7 H :    0.027573
   8 H :    0.033681
   9 C :   -0.033474
  10 H :    0.026431
  11 H :    0.028376
  12 C :   -0.068421
  13 H :    0.020089
  14 H :    0.027882
  15 H :    0.024641
  16 S :    0.393470
  17 C :   -0.171032
  18 C :   -0.063639
  19 C :   -0.059010
  20 C :   -0.199888
  21 H :    0.032865
  22 C :   -0.035277
  23 H :    0.029844
  24 H :    0.041489
  25 C :   -0.040477
  26 H :    0.025948
  27 H :    0.029787
  28 C :   -0.078379
  29 H :    0.033705
  30 H :    0.020719
  31 H :    0.027569
  32 H :    0.023609
  33 H :    0.023006

  Mayer bond orders larger than 0.100000
B(  0-S ,  1-C ) :   1.1330 B(  0-S ,  4-C ) :   1.1177 B(  1-C ,  2-C ) :   1.6415
B(  1-C , 32-H ) :   0.9610 B(  2-C ,  3-C ) :   1.2121 B(  2-C ,  6-C ) :   1.0150
B(  3-C ,  4-C ) :   1.6116 B(  3-C ,  5-H ) :   0.9914 B(  4-C , 20-C ) :   1.0865
B(  6-C ,  7-H ) :   0.9450 B(  6-C ,  8-H ) :   0.9388 B(  6-C ,  9-C ) :   1.0592
B(  9-C , 10-H ) :   0.9574 B(  9-C , 11-H ) :   0.9592 B(  9-C , 12-C ) :   1.0688
B( 12-C , 13-H ) :   0.9777 B( 12-C , 14-H ) :   0.9732 B( 12-C , 15-H ) :   0.9762
B( 16-S , 17-C ) :   1.1351 B( 16-S , 20-C ) :   1.1497 B( 17-C , 18-C ) :   1.6254
B( 17-C , 20-C ) :   0.1122 B( 17-C , 33-H ) :   0.9665 B( 18-C , 19-C ) :   1.2380
B( 18-C , 21-H ) :   0.9902 B( 19-C , 20-C ) :   1.5479 B( 19-C , 22-C ) :   1.0332
B( 22-C , 23-H ) :   0.9359 B( 22-C , 24-H ) :   0.9364 B( 22-C , 25-C ) :   1.0598
B( 25-C , 26-H ) :   0.9561 B( 25-C , 27-H ) :   0.9598 B( 25-C , 28-C ) :   1.0673
B( 28-C , 29-H ) :   0.9749 B( 28-C , 30-H ) :   0.9753 B( 28-C , 31-H ) :   0.9757

Dispersion correction           -0.015022762
FINAL SINGLE POINT ENERGY     -1339.864840922051

DIPOLE MOMENT
-------------
                                X             Y             Z
Electronic contribution:      5.31335      26.43855      -0.27128
Nuclear contribution   :     -5.36005     -27.10710       0.38274
                        -----------------------------------------
Total Dipole Moment    :     -0.04670      -0.66855       0.11146
                        -----------------------------------------
Magnitude (a.u.)       :      0.67939
Magnitude (Debye)      :      1.72686

Rotational constants in cm-1:     0.019313     0.009168     0.007310
Rotational constants in MHz :   578.978045   274.840735   219.154435

                             ****ORCA TERMINATED NORMALLY****
TOTAL RUN TIME: 0 days 0 hours 0 minutes 22 seconds 245 msec
