                         Program Version 4.2.1 -  RELEASE  -
|  1> ! wB97X-D3 SP def2-SVP
|  2> %pal
|  3> nprocs 24
|  4> end
|  5>
|  6> * xyz 0 1
|  7> S 	 -95.1508 	 44.2661 	 -86.174
|  8> C 	 -94.1334 	 42.9552 	 -86.6592
|  9> C 	 -94.8526 	 42.0095 	 -87.3893
| 10> C 	 -96.2228 	 42.4231 	 -87.4069
| 11> C 	 -96.5723 	 43.6453 	 -86.9391
| 12> H 	 -97.1052 	 41.9011 	 -87.7553
| 13> C 	 -94.2692 	 40.7477 	 -87.8948
| 14> H 	 -93.3938 	 40.5349 	 -87.3199
| 15> H 	 -93.8318 	 40.7784 	 -88.9102
| 16> C 	 -95.1543 	 39.4766 	 -87.7364
| 17> H 	 -95.6108 	 39.379 	 -86.7778
| 18> H 	 -95.9384 	 39.6316 	 -88.4143
| 19> C 	 -94.5753 	 38.1268 	 -88.1822
| 20> H 	 -93.7995 	 37.9489 	 -87.4249
| 21> H 	 -95.3747 	 37.399 	 -88.1274
| 22> H 	 -94.0527 	 38.1693 	 -89.1787
| 23> S 	 -98.4273 	 44.6805 	 -85.1158
| 24> C 	 -99.8405 	 45.432 	 -85.7456
| 25> C 	 -99.985 	 45.1616 	 -87.1089
| 26> C 	 -98.9244 	 44.3614 	 -87.6687
| 27> C 	 -97.9071 	 44.2295 	 -86.7516
| 28> H 	 -100.755 	 45.7368 	 -87.613
| 29> C 	 -98.852 	 44.0255 	 -89.1922
| 30> H 	 -97.8366 	 43.9888 	 -89.4058
| 31> H 	 -99.1671 	 44.8957 	 -89.8379
| 32> C 	 -99.365 	 42.6638 	 -89.6659
| 33> H 	 -99.1446 	 41.8583 	 -88.9251
| 34> H 	 -98.8115 	 42.3415 	 -90.5917
| 35> C 	 -100.951 	 42.4768 	 -89.7429
| 36> H 	 -101.304 	 41.4386 	 -89.8497
| 37> H 	 -101.359 	 43.0936 	 -90.584
| 38> H 	 -101.32 	 42.8948 	 -88.7292
| 39> H 	 -93.04 	 42.8698 	 -86.4785
| 40> H 	 -100.577 	 45.9727 	 -85.2271
| 41> *
| 42>
| 43>                          ****END OF INPUT****

CARTESIAN COORDINATES (ANGSTROEM)
---------------------------------
  S    -95.150800   44.266100  -86.174000
  C    -94.133400   42.955200  -86.659200
  C    -94.852600   42.009500  -87.389300
  C    -96.222800   42.423100  -87.406900
  C    -96.572300   43.645300  -86.939100
  H    -97.105200   41.901100  -87.755300
  C    -94.269200   40.747700  -87.894800
  H    -93.393800   40.534900  -87.319900
  H    -93.831800   40.778400  -88.910200
  C    -95.154300   39.476600  -87.736400
  H    -95.610800   39.379000  -86.777800
  H    -95.938400   39.631600  -88.414300
  C    -94.575300   38.126800  -88.182200
  H    -93.799500   37.948900  -87.424900
  H    -95.374700   37.399000  -88.127400
  H    -94.052700   38.169300  -89.178700
  S    -98.427300   44.680500  -85.115800
  C    -99.840500   45.432000  -85.745600
  C    -99.985000   45.161600  -87.108900
  C    -98.924400   44.361400  -87.668700
  C    -97.907100   44.229500  -86.751600
  H    -100.755000   45.736800  -87.613000
  C    -98.852000   44.025500  -89.192200
  H    -97.836600   43.988800  -89.405800
  H    -99.167100   44.895700  -89.837900
  C    -99.365000   42.663800  -89.665900
  H    -99.144600   41.858300  -88.925100
  H    -98.811500   42.341500  -90.591700
  C    -100.951000   42.476800  -89.742900
  H    -101.304000   41.438600  -89.849700
  H    -101.359000   43.093600  -90.584000
  H    -101.320000   42.894800  -88.729200
  H    -93.040000   42.869800  -86.478500
  H    -100.577000   45.972700  -85.227100

 Total Charge           Charge          ....    0
 Multiplicity           Mult            ....    1
 Number of Electrons    NEL             ....  134
 Basis Dimension        Dim             ....  322

ORBITAL ENERGIES
----------------

  NO   OCC          E(Eh)            E(eV)
   0   2.0000     -88.968455     -2420.9547
   1   2.0000     -88.963366     -2420.8163
   2   2.0000     -10.332668      -281.1662
   3   2.0000     -10.324537      -280.9449
   4   2.0000     -10.318912      -280.7919
   5   2.0000     -10.313542      -280.6458
   6   2.0000     -10.310471      -280.5622
   7   2.0000     -10.304605      -280.4026
   8   2.0000     -10.298317      -280.2314
   9   2.0000     -10.296059      -280.1700
  10   2.0000     -10.295385      -280.1517
  11   2.0000     -10.292616      -280.0763
  12   2.0000     -10.290494      -280.0186
  13   2.0000     -10.290444      -280.0172
  14   2.0000     -10.284274      -279.8493
  15   2.0000     -10.279095      -279.7084
  16   2.0000      -8.083230      -219.9559
  17   2.0000      -8.078887      -219.8377
  18   2.0000      -6.041742      -164.4041
  19   2.0000      -6.037776      -164.2962
  20   2.0000      -6.037321      -164.2839
  21   2.0000      -6.033926      -164.1915
  22   2.0000      -6.033145      -164.1702
  23   2.0000      -6.029780      -164.0787
  24   2.0000      -1.012163       -27.5423
  25   2.0000      -0.988990       -26.9118
  26   2.0000      -0.914692       -24.8900
  27   2.0000      -0.902430       -24.5564
  28   2.0000      -0.872375       -23.7385
  29   2.0000      -0.849463       -23.1151
  30   2.0000      -0.842014       -22.9124
  31   2.0000      -0.818365       -22.2688
  32   2.0000      -0.785217       -21.3668
  33   2.0000      -0.775270       -21.0962
  34   2.0000      -0.711243       -19.3539
  35   2.0000      -0.693951       -18.8834
  36   2.0000      -0.686338       -18.6762
  37   2.0000      -0.659941       -17.9579
  38   2.0000      -0.649879       -17.6841
  39   2.0000      -0.616213       -16.7680
  40   2.0000      -0.595668       -16.2089
  41   2.0000      -0.575199       -15.6520
  42   2.0000      -0.566487       -15.4149
  43   2.0000      -0.546468       -14.8702
  44   2.0000      -0.538424       -14.6513
  45   2.0000      -0.530526       -14.4363
  46   2.0000      -0.514850       -14.0098
  47   2.0000      -0.511411       -13.9162
  48   2.0000      -0.505255       -13.7487
  49   2.0000      -0.497536       -13.5387
  50   2.0000      -0.494383       -13.4528
  51   2.0000      -0.484677       -13.1887
  52   2.0000      -0.470410       -12.8005
  53   2.0000      -0.464978       -12.6527
  54   2.0000      -0.463180       -12.6038
  55   2.0000      -0.448616       -12.2075
  56   2.0000      -0.445316       -12.1177
  57   2.0000      -0.439495       -11.9593
  58   2.0000      -0.435068       -11.8388
  59   2.0000      -0.418479       -11.3874
  60   2.0000      -0.414943       -11.2912
  61   2.0000      -0.408111       -11.1053
  62   2.0000      -0.406515       -11.0618
  63   2.0000      -0.349887        -9.5209
  64   2.0000      -0.335045        -9.1170
  65   2.0000      -0.326497        -8.8844
  66   2.0000      -0.296518        -8.0687
  67   0.0000       0.028572         0.7775
  68   0.0000       0.070419         1.9162
  69   0.0000       0.112209         3.0534
  70   0.0000       0.126373         3.4388
  71   0.0000       0.130467         3.5502

MULLIKEN ATOMIC CHARGES
-----------------------
   0 S :    0.104231
   1 C :   -0.131164
   2 C :   -0.058519
   3 C :    0.021589
   4 C :   -0.167532
   5 H :   -0.010123
   6 C :    0.091843
   7 H :   -0.000397
   8 H :    0.037644
   9 C :   -0.102012
  10 H :    0.030360
  11 H :    0.017647
  12 C :   -0.049028
  13 H :    0.029751
  14 H :    0.043611
  15 H :    0.041043
  16 S :    0.123411
  17 C :   -0.077401
  18 C :   -0.052898
  19 C :   -0.023033
  20 C :   -0.149813
  21 H :    0.026609
  22 C :    0.087423
  23 H :    0.008842
  24 H :    0.042655
  25 C :   -0.116172
  26 H :    0.043868
  27 H :    0.043145
  28 C :   -0.095861
  29 H :    0.047556
  30 H :    0.039649
  31 H :    0.047782
  32 H :    0.065691
  33 H :    0.039602
Sum of atomic charges:    0.0000000

LOEWDIN ATOMIC CHARGES
----------------------
   0 S :    0.421101
   1 C :   -0.198949
   2 C :   -0.068176
   3 C :   -0.065003
   4 C :   -0.209377
   5 H :    0.026516
   6 C :   -0.034573
   7 H :    0.024267
   8 H :    0.037089
   9 C :   -0.039400
  10 H :    0.023017
  11 H :    0.013139
  12 C :   -0.062046
  13 H :    0.024075
  14 H :    0.028859
  15 H :    0.030878
  16 S :    0.409236
  17 C :   -0.189883
  18 C :   -0.073096
  19 C :   -0.052107
  20 C :   -0.185520
  21 H :    0.032257
  22 C :   -0.032846
  23 H :    0.025253
  24 H :    0.040468
  25 C :   -0.049212
  26 H :    0.027414
  27 H :    0.028895
  28 C :   -0.079224
  29 H :    0.026237
  30 H :    0.023717
  31 H :    0.036036
  32 H :    0.039159
  33 H :    0.021799

  Mayer bond orders larger than 0.100000
B(  0-S ,  1-C ) :   1.1704 B(  0-S ,  4-C ) :   1.1403 B(  1-C ,  2-C ) :   1.5798
B(  1-C , 32-H ) :   0.9626 B(  2-C ,  3-C ) :   1.2336 B(  2-C ,  6-C ) :   1.0359
B(  3-C ,  4-C ) :   1.5872 B(  3-C ,  5-H ) :   0.9925 B(  4-C , 20-C ) :   1.0291
B(  6-C ,  7-H ) :   0.9370 B(  6-C ,  8-H ) :   0.9246 B(  6-C ,  9-C ) :   1.0623
B(  9-C , 10-H ) :   0.9610 B(  9-C , 11-H ) :   0.9494 B(  9-C , 12-C ) :   1.0856
B( 12-C , 13-H ) :   0.9783 B( 12-C , 14-H ) :   0.9733 B( 12-C , 15-H ) :   0.9729
B( 16-S , 17-C ) :   1.1449 B( 16-S , 20-C ) :   1.1446 B( 17-C , 18-C ) :   1.6328
B( 17-C , 33-H ) :   0.9723 B( 18-C , 19-C ) :   1.2098 B( 18-C , 21-H ) :   0.9890
B( 19-C , 20-C ) :   1.6188 B( 19-C , 22-C ) :   1.0312 B( 22-C , 23-H ) :   0.9211
B( 22-C , 24-H ) :   0.9462 B( 22-C , 25-C ) :   1.0629 B( 25-C , 26-H ) :   0.9519
B( 25-C , 27-H ) :   0.9589 B( 25-C , 28-C ) :   1.0534 B( 28-C , 29-H ) :   0.9787
B( 28-C , 30-H ) :   0.9785 B( 28-C , 31-H ) :   0.9743

Dispersion correction           -0.014047393
FINAL SINGLE POINT ENERGY     -1339.860372974322

DIPOLE MOMENT
-------------
                                X             Y             Z
Electronic contribution:      3.55719      22.76797      19.24970
Nuclear contribution   :     -3.60104     -23.15667     -19.67014
                        -----------------------------------------
Total Dipole Moment    :     -0.04384      -0.38869      -0.42044
                        -----------------------------------------
Magnitude (a.u.)       :      0.57426
Magnitude (Debye)      :      1.45964

Rotational constants in cm-1:     0.017088     0.008935     0.006549
Rotational constants in MHz :   512.295672   267.862810   196.347028

                             ****ORCA TERMINATED NORMALLY****
TOTAL RUN TIME: 0 days 0 hours 0 minutes 21 seconds 357 msec
