                         Program Version 4.2.1 -  RELEASE  -
|  1> ! wB97X-D3 SP def2-SVP
|  2> %pal
|  3> nprocs 24
|  4> end
|  5>
|  6> * xyz 0 1
|  7> S 	 -37.5432 	 6.49754 	 2.85543
|  8> C 	 -37.5559 	 5.73986 	 1.26758
|  9> C 	 -38.7788 	 5.19335 	 0.993572
| 10> C 	 -39.7455 	 5.50224 	 1.97353
| 11> C 	 -39.3222 	 6.26221 	 3.02856
| 12> H 	 -40.7588 	 5.12013 	 1.93711
| 13> C 	 -39.0343 	 4.46096 	 -0.294811
| 14> H 	 -38.5875 	 3.3844 	 -0.229317
| 15> H 	 -38.4391 	 4.90397 	 -1.0717
| 16> C 	 -40.5384 	 4.4499 	 -0.768321
| 17> H 	 -41.1979 	 4.11885 	 0.0375248
| 18> H 	 -40.794 	 5.54501 	 -0.819144
| 19> C 	 -40.7564 	 3.58604 	 -2.00933
| 20> H 	 -40.6904 	 2.56115 	 -1.83374
| 21> H 	 -41.6945 	 3.84383 	 -2.42831
| 22> H 	 -40.0608 	 3.83071 	 -2.80305
| 23> S 	 -39.1019 	 6.61632 	 5.71267
| 24> C 	 -40.4023 	 6.99035 	 6.73491
| 25> C 	 -41.5694 	 7.04562 	 6.00466
| 26> C 	 -41.353 	 6.79077 	 4.57027
| 27> C 	 -40.0353 	 6.51331 	 4.26735
| 28> H 	 -42.4242 	 7.28971 	 6.52145
| 29> C 	 -42.4805 	 7.01124 	 3.56591
| 30> H 	 -42.0671 	 6.89326 	 2.53754
| 31> H 	 -42.7569 	 8.05592 	 3.88703
| 32> C 	 -43.6819 	 6.12647 	 3.73956
| 33> H 	 -44.3444 	 6.28583 	 2.80902
| 34> H 	 -44.2111 	 6.43172 	 4.60079
| 35> C 	 -43.395 	 4.65462 	 3.94389
| 36> H 	 -42.7205 	 4.2471 	 3.14686
| 37> H 	 -44.2738 	 4.07932 	 3.91478
| 38> H 	 -42.8754 	 4.38532 	 4.88825
| 39> H 	 -36.7969 	 5.74363 	 0.542338
| 40> H 	 -40.3951 	 7.07672 	 7.75467
| 41> *
| 42>
| 43>                          ****END OF INPUT****

CARTESIAN COORDINATES (ANGSTROEM)
---------------------------------
  S    -37.543200    6.497540    2.855430
  C    -37.555900    5.739860    1.267580
  C    -38.778800    5.193350    0.993572
  C    -39.745500    5.502240    1.973530
  C    -39.322200    6.262210    3.028560
  H    -40.758800    5.120130    1.937110
  C    -39.034300    4.460960   -0.294811
  H    -38.587500    3.384400   -0.229317
  H    -38.439100    4.903970   -1.071700
  C    -40.538400    4.449900   -0.768321
  H    -41.197900    4.118850    0.037525
  H    -40.794000    5.545010   -0.819144
  C    -40.756400    3.586040   -2.009330
  H    -40.690400    2.561150   -1.833740
  H    -41.694500    3.843830   -2.428310
  H    -40.060800    3.830710   -2.803050
  S    -39.101900    6.616320    5.712670
  C    -40.402300    6.990350    6.734910
  C    -41.569400    7.045620    6.004660
  C    -41.353000    6.790770    4.570270
  C    -40.035300    6.513310    4.267350
  H    -42.424200    7.289710    6.521450
  C    -42.480500    7.011240    3.565910
  H    -42.067100    6.893260    2.537540
  H    -42.756900    8.055920    3.887030
  C    -43.681900    6.126470    3.739560
  H    -44.344400    6.285830    2.809020
  H    -44.211100    6.431720    4.600790
  C    -43.395000    4.654620    3.943890
  H    -42.720500    4.247100    3.146860
  H    -44.273800    4.079320    3.914780
  H    -42.875400    4.385320    4.888250
  H    -36.796900    5.743630    0.542338
  H    -40.395100    7.076720    7.754670

 Total Charge           Charge          ....    0
 Multiplicity           Mult            ....    1
 Number of Electrons    NEL             ....  134
 Basis Dimension        Dim             ....  322

ORBITAL ENERGIES
----------------

  NO   OCC          E(Eh)            E(eV)
   0   2.0000     -88.966633     -2420.9052
   1   2.0000     -88.960249     -2420.7314
   2   2.0000     -10.334292      -281.2104
   3   2.0000     -10.325170      -280.9622
   4   2.0000     -10.309566      -280.5376
   5   2.0000     -10.308801      -280.5167
   6   2.0000     -10.305674      -280.4316
   7   2.0000     -10.298840      -280.2457
   8   2.0000     -10.296380      -280.1787
   9   2.0000     -10.295583      -280.1570
  10   2.0000     -10.294889      -280.1382
  11   2.0000     -10.292090      -280.0620
  12   2.0000     -10.290263      -280.0123
  13   2.0000     -10.287059      -279.9251
  14   2.0000     -10.275290      -279.6049
  15   2.0000     -10.274116      -279.5729
  16   2.0000      -8.080302      -219.8762
  17   2.0000      -8.076751      -219.7796
  18   2.0000      -6.039032      -164.3304
  19   2.0000      -6.035293      -164.2287
  20   2.0000      -6.035044      -164.2219
  21   2.0000      -6.030905      -164.1093
  22   2.0000      -6.030779      -164.1058
  23   2.0000      -6.027458      -164.0155
  24   2.0000      -1.011316       -27.5193
  25   2.0000      -0.987695       -26.8765
  26   2.0000      -0.915391       -24.9091
  27   2.0000      -0.908650       -24.7256
  28   2.0000      -0.876913       -23.8620
  29   2.0000      -0.851095       -23.1595
  30   2.0000      -0.842455       -22.9244
  31   2.0000      -0.824719       -22.4417
  32   2.0000      -0.783675       -21.3249
  33   2.0000      -0.775370       -21.0989
  34   2.0000      -0.721039       -19.6205
  35   2.0000      -0.696792       -18.9607
  36   2.0000      -0.695466       -18.9246
  37   2.0000      -0.661818       -18.0090
  38   2.0000      -0.641894       -17.4668
  39   2.0000      -0.626779       -17.0555
  40   2.0000      -0.596734       -16.2379
  41   2.0000      -0.572254       -15.5718
  42   2.0000      -0.563062       -15.3217
  43   2.0000      -0.556861       -15.1530
  44   2.0000      -0.544125       -14.8064
  45   2.0000      -0.526645       -14.3307
  46   2.0000      -0.522515       -14.2184
  47   2.0000      -0.515789       -14.0353
  48   2.0000      -0.503878       -13.7112
  49   2.0000      -0.502829       -13.6827
  50   2.0000      -0.496189       -13.5020
  51   2.0000      -0.487994       -13.2790
  52   2.0000      -0.478337       -13.0162
  53   2.0000      -0.467939       -12.7333
  54   2.0000      -0.458133       -12.4664
  55   2.0000      -0.454461       -12.3665
  56   2.0000      -0.441441       -12.0122
  57   2.0000      -0.440420       -11.9844
  58   2.0000      -0.431774       -11.7492
  59   2.0000      -0.423093       -11.5129
  60   2.0000      -0.417791       -11.3687
  61   2.0000      -0.414650       -11.2832
  62   2.0000      -0.404552       -11.0084
  63   2.0000      -0.363839        -9.9006
  64   2.0000      -0.332154        -9.0384
  65   2.0000      -0.322993        -8.7891
  66   2.0000      -0.286050        -7.7838
  67   0.0000       0.025153         0.6844
  68   0.0000       0.079125         2.1531
  69   0.0000       0.106921         2.9095
  70   0.0000       0.118733         3.2309
  71   0.0000       0.129001         3.5103

MULLIKEN ATOMIC CHARGES
-----------------------
   0 S :    0.096715
   1 C :   -0.095040
   2 C :   -0.065072
   3 C :    0.000328
   4 C :   -0.092753
   5 H :   -0.007754
   6 C :    0.029154
   7 H :    0.050285
   8 H :    0.021273
   9 C :   -0.131650
  10 H :    0.036853
  11 H :    0.039682
  12 C :    0.022173
  13 H :    0.029647
  14 H :    0.022135
  15 H :    0.020221
  16 S :    0.095155
  17 C :   -0.045775
  18 C :   -0.025368
  19 C :   -0.079525
  20 C :   -0.133364
  21 H :   -0.012367
  22 C :    0.056528
  23 H :    0.033897
  24 H :    0.050245
  25 C :   -0.071045
  26 H :    0.045686
  27 H :    0.018668
  28 C :   -0.051146
  29 H :    0.023285
  30 H :    0.023904
  31 H :    0.045755
  32 H :    0.024295
  33 H :    0.024977
Sum of atomic charges:    0.0000000

LOEWDIN ATOMIC CHARGES
----------------------
   0 S :    0.378524
   1 C :   -0.179664
   2 C :   -0.067918
   3 C :   -0.066522
   4 C :   -0.168649
   5 H :    0.025172
   6 C :   -0.038174
   7 H :    0.041099
   8 H :    0.026122
   9 C :   -0.045189
  10 H :    0.020490
  11 H :    0.031007
  12 C :   -0.054440
  13 H :    0.021351
  14 H :    0.025511
  15 H :    0.026273
  16 S :    0.430094
  17 C :   -0.182438
  18 C :   -0.066103
  19 C :   -0.057440
  20 C :   -0.206428
  21 H :    0.015985
  22 C :   -0.037074
  23 H :    0.032082
  24 H :    0.046175
  25 C :   -0.047387
  26 H :    0.036843
  27 H :    0.017067
  28 C :   -0.068958
  29 H :    0.024294
  30 H :    0.019436
  31 H :    0.032844
  32 H :    0.020346
  33 H :    0.015669

  Mayer bond orders larger than 0.100000
B(  0-S ,  1-C ) :   1.1262 B(  0-S ,  4-C ) :   1.1281 B(  1-C ,  2-C ) :   1.6160
B(  1-C , 32-H ) :   0.9731 B(  2-C ,  3-C ) :   1.2663 B(  2-C ,  6-C ) :   1.0138
B(  3-C ,  4-C ) :   1.5566 B(  3-C ,  5-H ) :   0.9855 B(  4-C , 20-C ) :   1.0710
B(  6-C ,  7-H ) :   0.9338 B(  6-C ,  8-H ) :   0.9434 B(  6-C ,  9-C ) :   1.0636
B(  9-C , 10-H ) :   0.9501 B(  9-C , 11-H ) :   0.9589 B(  9-C , 12-C ) :   1.0791
B( 12-C , 13-H ) :   0.9745 B( 12-C , 14-H ) :   0.9695 B( 12-C , 15-H ) :   0.9729
B( 16-S , 17-C ) :   1.1673 B( 16-S , 20-C ) :   1.1324 B( 17-C , 18-C ) :   1.6123
B( 17-C , 33-H ) :   0.9786 B( 18-C , 19-C ) :   1.2146 B( 18-C , 21-H ) :   1.0065
B( 19-C , 20-C ) :   1.5976 B( 19-C , 22-C ) :   1.0294 B( 22-C , 23-H ) :   0.9346
B( 22-C , 24-H ) :   0.9379 B( 22-C , 25-C ) :   1.0784 B( 25-C , 26-H ) :   0.9560
B( 25-C , 27-H ) :   0.9468 B( 25-C , 28-C ) :   1.0894 B( 28-C , 29-H ) :   0.9732
B( 28-C , 30-H ) :   0.9700 B( 28-C , 31-H ) :   0.9635

Dispersion correction           -0.014571643
FINAL SINGLE POINT ENERGY     -1339.871761039584

DIPOLE MOMENT
-------------
                                X             Y             Z
Electronic contribution:     21.55850      11.60126      19.17167
Nuclear contribution   :    -22.18197     -11.83041     -19.52336
                        -----------------------------------------
Total Dipole Moment    :     -0.62347      -0.22916      -0.35168
                        -----------------------------------------
Magnitude (a.u.)       :      0.75160
Magnitude (Debye)      :      1.91043

Rotational constants in cm-1:     0.018375     0.009515     0.006590
Rotational constants in MHz :   550.862357   285.245324   197.569831

                             ****ORCA TERMINATED NORMALLY****
TOTAL RUN TIME: 0 days 0 hours 0 minutes 22 seconds 251 msec
