                         Program Version 4.2.1 -  RELEASE  -
|  1> ! wB97X-D3 SP def2-SVP
|  2> %pal
|  3> nprocs 24
|  4> end
|  5>
|  6> * xyz 0 1
|  7> S 	 -115.482 	 24.8016 	 -116.595
|  8> C 	 -117.092 	 24.6848 	 -117.187
|  9> C 	 -118.077 	 25.2899 	 -116.43
| 10> C 	 -117.423 	 25.9947 	 -115.367
| 11> C 	 -116.111 	 25.7016 	 -115.238
| 12> H 	 -117.817 	 26.715 	 -114.683
| 13> C 	 -119.507 	 25.6209 	 -116.872
| 14> H 	 -119.837 	 24.9272 	 -117.587
| 15> H 	 -119.521 	 26.5579 	 -117.487
| 16> C 	 -120.594 	 25.4296 	 -115.795
| 17> H 	 -120.378 	 25.8907 	 -114.859
| 18> H 	 -121.542 	 25.6396 	 -116.176
| 19> C 	 -120.718 	 23.954 	 -115.367
| 20> H 	 -119.871 	 23.558 	 -114.655
| 21> H 	 -121.692 	 23.8574 	 -114.888
| 22> H 	 -120.692 	 23.3503 	 -116.288
| 23> S 	 -113.836 	 26.9276 	 -114.719
| 24> C 	 -113.31 	 27.1812 	 -113.051
| 25> C 	 -114.228 	 26.7913 	 -112.119
| 26> C 	 -115.438 	 26.369 	 -112.765
| 27> C 	 -115.267 	 26.1912 	 -114.16
| 28> H 	 -114.119 	 26.8962 	 -111.08
| 29> C 	 -116.592 	 25.8338 	 -112.006
| 30> H 	 -117.445 	 25.9989 	 -112.661
| 31> H 	 -116.746 	 26.4284 	 -111.115
| 32> C 	 -116.586 	 24.383 	 -111.716
| 33> H 	 -117.531 	 23.9705 	 -111.356
| 34> H 	 -115.829 	 24.1319 	 -110.988
| 35> C 	 -116.325 	 23.4102 	 -112.841
| 36> H 	 -116.401 	 22.4224 	 -112.434
| 37> H 	 -115.341 	 23.459 	 -113.24
| 38> H 	 -117.026 	 23.5218 	 -113.672
| 39> H 	 -117.335 	 24.2892 	 -118.206
| 40> H 	 -112.318 	 27.5498 	 -112.9
| 41> *
| 42>
| 43>                          ****END OF INPUT****

CARTESIAN COORDINATES (ANGSTROEM)
---------------------------------
  S    -115.482000   24.801600  -116.595000
  C    -117.092000   24.684800  -117.187000
  C    -118.077000   25.289900  -116.430000
  C    -117.423000   25.994700  -115.367000
  C    -116.111000   25.701600  -115.238000
  H    -117.817000   26.715000  -114.683000
  C    -119.507000   25.620900  -116.872000
  H    -119.837000   24.927200  -117.587000
  H    -119.521000   26.557900  -117.487000
  C    -120.594000   25.429600  -115.795000
  H    -120.378000   25.890700  -114.859000
  H    -121.542000   25.639600  -116.176000
  C    -120.718000   23.954000  -115.367000
  H    -119.871000   23.558000  -114.655000
  H    -121.692000   23.857400  -114.888000
  H    -120.692000   23.350300  -116.288000
  S    -113.836000   26.927600  -114.719000
  C    -113.310000   27.181200  -113.051000
  C    -114.228000   26.791300  -112.119000
  C    -115.438000   26.369000  -112.765000
  C    -115.267000   26.191200  -114.160000
  H    -114.119000   26.896200  -111.080000
  C    -116.592000   25.833800  -112.006000
  H    -117.445000   25.998900  -112.661000
  H    -116.746000   26.428400  -111.115000
  C    -116.586000   24.383000  -111.716000
  H    -117.531000   23.970500  -111.356000
  H    -115.829000   24.131900  -110.988000
  C    -116.325000   23.410200  -112.841000
  H    -116.401000   22.422400  -112.434000
  H    -115.341000   23.459000  -113.240000
  H    -117.026000   23.521800  -113.672000
  H    -117.335000   24.289200  -118.206000
  H    -112.318000   27.549800  -112.900000

 Total Charge           Charge          ....    0
 Multiplicity           Mult            ....    1
 Number of Electrons    NEL             ....  134
 Basis Dimension        Dim             ....  322

ORBITAL ENERGIES
----------------

  NO   OCC          E(Eh)            E(eV)
   0   2.0000     -88.970914     -2421.0216
   1   2.0000     -88.962227     -2420.7853
   2   2.0000     -10.321814      -280.8708
   3   2.0000     -10.321522      -280.8629
   4   2.0000     -10.315768      -280.7063
   5   2.0000     -10.313658      -280.6489
   6   2.0000     -10.303435      -280.3707
   7   2.0000     -10.300896      -280.3016
   8   2.0000     -10.295135      -280.1449
   9   2.0000     -10.292525      -280.0739
  10   2.0000     -10.286911      -279.9211
  11   2.0000     -10.284213      -279.8477
  12   2.0000     -10.282007      -279.7876
  13   2.0000     -10.281064      -279.7620
  14   2.0000     -10.274091      -279.5722
  15   2.0000     -10.259170      -279.1662
  16   2.0000      -8.086075      -220.0333
  17   2.0000      -8.077990      -219.8133
  18   2.0000      -6.044454      -164.4780
  19   2.0000      -6.040740      -164.3769
  20   2.0000      -6.036730      -164.2678
  21   2.0000      -6.036299      -164.2561
  22   2.0000      -6.032366      -164.1490
  23   2.0000      -6.028899      -164.0547
  24   2.0000      -1.014120       -27.5956
  25   2.0000      -0.988236       -26.8913
  26   2.0000      -0.917693       -24.9717
  27   2.0000      -0.914292       -24.8792
  28   2.0000      -0.874521       -23.7969
  29   2.0000      -0.854651       -23.2562
  30   2.0000      -0.847163       -23.0525
  31   2.0000      -0.816680       -22.2230
  32   2.0000      -0.784193       -21.3390
  33   2.0000      -0.770640       -20.9702
  34   2.0000      -0.704089       -19.1592
  35   2.0000      -0.691779       -18.8243
  36   2.0000      -0.687625       -18.7112
  37   2.0000      -0.666625       -18.1398
  38   2.0000      -0.644100       -17.5268
  39   2.0000      -0.627210       -17.0673
  40   2.0000      -0.597855       -16.2685
  41   2.0000      -0.569345       -15.4927
  42   2.0000      -0.559322       -15.2199
  43   2.0000      -0.555248       -15.1091
  44   2.0000      -0.552793       -15.0423
  45   2.0000      -0.543882       -14.7998
  46   2.0000      -0.517293       -14.0763
  47   2.0000      -0.506516       -13.7830
  48   2.0000      -0.499702       -13.5976
  49   2.0000      -0.491737       -13.3808
  50   2.0000      -0.488572       -13.2947
  51   2.0000      -0.477868       -13.0035
  52   2.0000      -0.468065       -12.7367
  53   2.0000      -0.463424       -12.6104
  54   2.0000      -0.450634       -12.2624
  55   2.0000      -0.449306       -12.2262
  56   2.0000      -0.445994       -12.1361
  57   2.0000      -0.443022       -12.0552
  58   2.0000      -0.438775       -11.9397
  59   2.0000      -0.428773       -11.6675
  60   2.0000      -0.414242       -11.2721
  61   2.0000      -0.412815       -11.2333
  62   2.0000      -0.407469       -11.0878
  63   2.0000      -0.350878        -9.5479
  64   2.0000      -0.334983        -9.1154
  65   2.0000      -0.328836        -8.9481
  66   2.0000      -0.286653        -7.8002
  67   0.0000       0.027472         0.7476
  68   0.0000       0.074043         2.0148
  69   0.0000       0.105936         2.8827
  70   0.0000       0.118636         3.2282
  71   0.0000       0.128550         3.4980

MULLIKEN ATOMIC CHARGES
-----------------------
   0 S :    0.133313
   1 C :   -0.129007
   2 C :   -0.072424
   3 C :    0.004597
   4 C :   -0.149988
   5 H :    0.020370
   6 C :    0.065565
   7 H :   -0.007014
   8 H :    0.055422
   9 C :   -0.026403
  10 H :    0.026969
  11 H :    0.020028
  12 C :   -0.119245
  13 H :    0.062957
  14 H :    0.038890
  15 H :    0.026226
  16 S :    0.095790
  17 C :   -0.083166
  18 C :    0.011035
  19 C :   -0.082687
  20 C :   -0.160923
  21 H :    0.004299
  22 C :    0.128797
  23 H :   -0.005859
  24 H :    0.017733
  25 C :   -0.053493
  26 H :    0.023119
  27 H :    0.011660
  28 C :   -0.042051
  29 H :    0.019525
  30 H :    0.023974
  31 H :    0.035228
  32 H :    0.057983
  33 H :    0.048779
Sum of atomic charges:   -0.0000000

LOEWDIN ATOMIC CHARGES
----------------------
   0 S :    0.418138
   1 C :   -0.205204
   2 C :   -0.065932
   3 C :   -0.059075
   4 C :   -0.200812
   5 H :    0.028850
   6 C :   -0.032684
   7 H :    0.020270
   8 H :    0.041814
   9 C :   -0.033676
  10 H :    0.019277
  11 H :    0.019821
  12 C :   -0.070207
  13 H :    0.036642
  14 H :    0.025393
  15 H :    0.020112
  16 S :    0.415684
  17 C :   -0.171543
  18 C :   -0.057276
  19 C :   -0.056026
  20 C :   -0.206783
  21 H :    0.027452
  22 C :   -0.039146
  23 H :    0.028270
  24 H :    0.031739
  25 C :   -0.040227
  26 H :    0.027389
  27 H :    0.020035
  28 C :   -0.059646
  29 H :    0.024148
  30 H :    0.017065
  31 H :    0.023201
  32 H :    0.033844
  33 H :    0.019088

  Mayer bond orders larger than 0.100000
B(  0-S ,  1-C ) :   1.1466 B(  0-S ,  4-C ) :   1.1320 B(  1-C ,  2-C ) :   1.6298
B(  1-C , 32-H ) :   0.9553 B(  2-C ,  3-C ) :   1.2032 B(  2-C ,  6-C ) :   1.0300
B(  3-C ,  4-C ) :   1.6220 B(  3-C ,  5-H ) :   0.9889 B(  4-C , 20-C ) :   1.0334
B(  6-C ,  7-H ) :   0.9334 B(  6-C ,  8-H ) :   0.9443 B(  6-C ,  9-C ) :   1.0661
B(  9-C , 10-H ) :   0.9610 B(  9-C , 11-H ) :   0.9580 B(  9-C , 12-C ) :   1.0666
B( 12-C , 13-H ) :   0.9721 B( 12-C , 14-H ) :   0.9759 B( 12-C , 15-H ) :   0.9756
B( 16-S , 17-C ) :   1.1528 B( 16-S , 20-C ) :   1.1713 B( 17-C , 18-C ) :   1.5929
B( 17-C , 20-C ) :   0.1022 B( 17-C , 33-H ) :   0.9734 B( 18-C , 19-C ) :   1.2346
B( 18-C , 21-H ) :   1.0009 B( 19-C , 20-C ) :   1.5603 B( 19-C , 22-C ) :   1.0686
B( 22-C , 23-H ) :   0.9173 B( 22-C , 24-H ) :   0.9202 B( 22-C , 25-C ) :   1.0845
B( 25-C , 26-H ) :   0.9544 B( 25-C , 27-H ) :   0.9490 B( 25-C , 28-C ) :   1.0948
B( 28-C , 29-H ) :   0.9702 B( 28-C , 30-H ) :   0.9653 B( 28-C , 31-H ) :   0.9698

Dispersion correction           -0.016347997
FINAL SINGLE POINT ENERGY     -1339.863734294689

DIPOLE MOMENT
-------------
                                X             Y             Z
Electronic contribution:     23.76234      10.09003      -9.06746
Nuclear contribution   :    -24.25454     -10.02062       9.22255
                        -----------------------------------------
Total Dipole Moment    :     -0.49221       0.06940       0.15510
                        -----------------------------------------
Magnitude (a.u.)       :      0.52071
Magnitude (Debye)      :      1.32354

Rotational constants in cm-1:     0.021219     0.009890     0.007986
Rotational constants in MHz :   636.133620   296.494779   239.419043

                             ****ORCA TERMINATED NORMALLY****
TOTAL RUN TIME: 0 days 0 hours 0 minutes 24 seconds 48 msec
