                         Program Version 4.2.1 -  RELEASE  -
|  1> ! wB97X-D3 SP def2-SVP
|  2> %pal
|  3> nprocs 24
|  4> end
|  5>
|  6> * xyz 0 1
|  7> S 	 -105.628 	 0.254789 	 -104.567
|  8> C 	 -105.473 	 1.40038 	 -105.812
|  9> C 	 -104.245 	 2.04329 	 -105.642
| 10> C 	 -103.466 	 1.53034 	 -104.596
| 11> C 	 -104.019 	 0.459946 	 -103.925
| 12> H 	 -102.442 	 1.91467 	 -104.324
| 13> C 	 -103.668 	 3.15696 	 -106.481
| 14> H 	 -103.075 	 3.85692 	 -105.86
| 15> H 	 -104.442 	 3.81071 	 -106.929
| 16> C 	 -102.718 	 2.65574 	 -107.502
| 17> H 	 -101.923 	 2.09011 	 -106.98
| 18> H 	 -103.108 	 2.01736 	 -108.259
| 19> C 	 -101.955 	 3.80124 	 -108.207
| 20> H 	 -101.592 	 4.5313 	 -107.474
| 21> H 	 -101.105 	 3.27137 	 -108.674
| 22> H 	 -102.478 	 4.37513 	 -108.95
| 23> S 	 -104.648 	 -0.503376 	 -101.446
| 24> C 	 -103.345 	 -1.10337 	 -100.459
| 25> C 	 -102.174 	 -1.27354 	 -101.141
| 26> C 	 -102.291 	 -0.81457 	 -102.525
| 27> C 	 -103.482 	 -0.311951 	 -102.803
| 28> H 	 -101.35 	 -1.57891 	 -100.621
| 29> C 	 -101.027 	 -0.684589 	 -103.421
| 30> H 	 -101.353 	 -0.437528 	 -104.475
| 31> H 	 -100.569 	 -1.69142 	 -103.319
| 32> C 	 -99.973 	 0.348938 	 -103.004
| 33> H 	 -99.4873 	 0.148779 	 -102.011
| 34> H 	 -100.459 	 1.31236 	 -102.919
| 35> C 	 -98.7713 	 0.515045 	 -103.968
| 36> H 	 -97.8853 	 0.980936 	 -103.475
| 37> H 	 -98.961 	 1.17007 	 -104.83
| 38> H 	 -98.4478 	 -0.433467 	 -104.444
| 39> H 	 -106.144 	 1.58262 	 -106.618
| 40> H 	 -103.357 	 -1.33252 	 -99.3478
| 41> *
| 42>
| 43>                          ****END OF INPUT****

CARTESIAN COORDINATES (ANGSTROEM)
---------------------------------
  S    -105.628000    0.254789  -104.567000
  C    -105.473000    1.400380  -105.812000
  C    -104.245000    2.043290  -105.642000
  C    -103.466000    1.530340  -104.596000
  C    -104.019000    0.459946  -103.925000
  H    -102.442000    1.914670  -104.324000
  C    -103.668000    3.156960  -106.481000
  H    -103.075000    3.856920  -105.860000
  H    -104.442000    3.810710  -106.929000
  C    -102.718000    2.655740  -107.502000
  H    -101.923000    2.090110  -106.980000
  H    -103.108000    2.017360  -108.259000
  C    -101.955000    3.801240  -108.207000
  H    -101.592000    4.531300  -107.474000
  H    -101.105000    3.271370  -108.674000
  H    -102.478000    4.375130  -108.950000
  S    -104.648000   -0.503376  -101.446000
  C    -103.345000   -1.103370  -100.459000
  C    -102.174000   -1.273540  -101.141000
  C    -102.291000   -0.814570  -102.525000
  C    -103.482000   -0.311951  -102.803000
  H    -101.350000   -1.578910  -100.621000
  C    -101.027000   -0.684589  -103.421000
  H    -101.353000   -0.437528  -104.475000
  H    -100.569000   -1.691420  -103.319000
  C    -99.973000    0.348938  -103.004000
  H    -99.487300    0.148779  -102.011000
  H    -100.459000    1.312360  -102.919000
  C    -98.771300    0.515045  -103.968000
  H    -97.885300    0.980936  -103.475000
  H    -98.961000    1.170070  -104.830000
  H    -98.447800   -0.433467  -104.444000
  H    -106.144000    1.582620  -106.618000
  H    -103.357000   -1.332520  -99.347800

 Total Charge           Charge          ....    0
 Multiplicity           Mult            ....    1
 Number of Electrons    NEL             ....  134
 Basis Dimension        Dim             ....  322

ORBITAL ENERGIES
----------------

  NO   OCC          E(Eh)            E(eV)
   0   2.0000     -88.965768     -2420.8816
   1   2.0000     -88.963365     -2420.8162
   2   2.0000     -10.330303      -281.1018
   3   2.0000     -10.327045      -281.0132
   4   2.0000     -10.321152      -280.8528
   5   2.0000     -10.313035      -280.6319
   6   2.0000     -10.305054      -280.4148
   7   2.0000     -10.303629      -280.3760
   8   2.0000     -10.297955      -280.2216
   9   2.0000     -10.294819      -280.1363
  10   2.0000     -10.294582      -280.1298
  11   2.0000     -10.289974      -280.0044
  12   2.0000     -10.289793      -279.9995
  13   2.0000     -10.286274      -279.9037
  14   2.0000     -10.281811      -279.7823
  15   2.0000     -10.277577      -279.6671
  16   2.0000      -8.081323      -219.9040
  17   2.0000      -8.078050      -219.8149
  18   2.0000      -6.039767      -164.3504
  19   2.0000      -6.036778      -164.2691
  20   2.0000      -6.035494      -164.2342
  21   2.0000      -6.032771      -164.1600
  22   2.0000      -6.032316      -164.1477
  23   2.0000      -6.028353      -164.0398
  24   2.0000      -1.013064       -27.5669
  25   2.0000      -0.990021       -26.9398
  26   2.0000      -0.918910       -25.0048
  27   2.0000      -0.905044       -24.6275
  28   2.0000      -0.873663       -23.7736
  29   2.0000      -0.853105       -23.2142
  30   2.0000      -0.846344       -23.0302
  31   2.0000      -0.818105       -22.2618
  32   2.0000      -0.781599       -21.2684
  33   2.0000      -0.773261       -21.0415
  34   2.0000      -0.706646       -19.2288
  35   2.0000      -0.697833       -18.9890
  36   2.0000      -0.693182       -18.8625
  37   2.0000      -0.666750       -18.1432
  38   2.0000      -0.643897       -17.5213
  39   2.0000      -0.624752       -17.0004
  40   2.0000      -0.590112       -16.0578
  41   2.0000      -0.576772       -15.6948
  42   2.0000      -0.569816       -15.5055
  43   2.0000      -0.560118       -15.2416
  44   2.0000      -0.532232       -14.4828
  45   2.0000      -0.526320       -14.3219
  46   2.0000      -0.520491       -14.1633
  47   2.0000      -0.515119       -14.0171
  48   2.0000      -0.500687       -13.6244
  49   2.0000      -0.499065       -13.5803
  50   2.0000      -0.491472       -13.3736
  51   2.0000      -0.482958       -13.1420
  52   2.0000      -0.468359       -12.7447
  53   2.0000      -0.467279       -12.7153
  54   2.0000      -0.463216       -12.6048
  55   2.0000      -0.452413       -12.3108
  56   2.0000      -0.445895       -12.1334
  57   2.0000      -0.440850       -11.9961
  58   2.0000      -0.430897       -11.7253
  59   2.0000      -0.421065       -11.4578
  60   2.0000      -0.419921       -11.4266
  61   2.0000      -0.414265       -11.2727
  62   2.0000      -0.410692       -11.1755
  63   2.0000      -0.356603        -9.7037
  64   2.0000      -0.332214        -9.0400
  65   2.0000      -0.331013        -9.0073
  66   2.0000      -0.293373        -7.9831
  67   0.0000       0.033924         0.9231
  68   0.0000       0.068807         1.8723
  69   0.0000       0.107679         2.9301
  70   0.0000       0.116149         3.1606
  71   0.0000       0.125307         3.4098

MULLIKEN ATOMIC CHARGES
-----------------------
   0 S :    0.112702
   1 C :   -0.095663
   2 C :   -0.081795
   3 C :   -0.002440
   4 C :   -0.135900
   5 H :    0.022431
   6 C :    0.059647
   7 H :    0.018316
   8 H :    0.023498
   9 C :   -0.074078
  10 H :    0.022773
  11 H :    0.024747
  12 C :   -0.050589
  13 H :    0.023171
  14 H :    0.036841
  15 H :    0.032088
  16 S :    0.094176
  17 C :   -0.099218
  18 C :   -0.012893
  19 C :   -0.028012
  20 C :   -0.132139
  21 H :   -0.015979
  22 C :    0.040807
  23 H :    0.046413
  24 H :    0.034504
  25 C :   -0.072626
  26 H :    0.035407
  27 H :    0.028922
  28 C :   -0.074895
  29 H :    0.041718
  30 H :    0.028682
  31 H :    0.032445
  32 H :    0.040964
  33 H :    0.075974
Sum of atomic charges:    0.0000000

LOEWDIN ATOMIC CHARGES
----------------------
   0 S :    0.433322
   1 C :   -0.208789
   2 C :   -0.067331
   3 C :   -0.073547
   4 C :   -0.197424
   5 H :    0.037111
   6 C :   -0.038169
   7 H :    0.032051
   8 H :    0.029261
   9 C :   -0.039536
  10 H :    0.025871
  11 H :    0.019900
  12 C :   -0.064920
  13 H :    0.022346
  14 H :    0.031042
  15 H :    0.019075
  16 S :    0.374002
  17 C :   -0.183789
  18 C :   -0.063361
  19 C :   -0.054414
  20 C :   -0.173543
  21 H :    0.016083
  22 C :   -0.031677
  23 H :    0.037152
  24 H :    0.035607
  25 C :   -0.047244
  26 H :    0.029386
  27 H :    0.020737
  28 C :   -0.075427
  29 H :    0.032187
  30 H :    0.022758
  31 H :    0.026630
  32 H :    0.029032
  33 H :    0.045617

  Mayer bond orders larger than 0.100000
B(  0-S ,  1-C ) :   1.1577 B(  0-S ,  4-C ) :   1.1711 B(  1-C ,  2-C ) :   1.5573
B(  1-C ,  4-C ) :   0.1096 B(  1-C , 32-H ) :   0.9792 B(  2-C ,  3-C ) :   1.2896
B(  2-C ,  6-C ) :   1.0300 B(  3-C ,  4-C ) :   1.5301 B(  3-C ,  5-H ) :   0.9862
B(  4-C , 20-C ) :   1.0222 B(  6-C ,  7-H ) :   0.9365 B(  6-C ,  8-H ) :   0.9410
B(  6-C ,  9-C ) :   1.0752 B(  9-C , 10-H ) :   0.9546 B(  9-C , 11-H ) :   0.9533
B(  9-C , 12-C ) :   1.0767 B( 12-C , 13-H ) :   0.9732 B( 12-C , 14-H ) :   0.9773
B( 12-C , 15-H ) :   0.9776 B( 16-S , 17-C ) :   1.1309 B( 16-S , 20-C ) :   1.0936
B( 17-C , 18-C ) :   1.6902 B( 17-C , 33-H ) :   0.9539 B( 18-C , 19-C ) :   1.1426
B( 18-C , 21-H ) :   1.0047 B( 19-C , 20-C ) :   1.7184 B( 19-C , 22-C ) :   1.0467
B( 22-C , 23-H ) :   0.9397 B( 22-C , 24-H ) :   0.9249 B( 22-C , 25-C ) :   1.0681
B( 25-C , 26-H ) :   0.9543 B( 25-C , 27-H ) :   0.9545 B( 25-C , 28-C ) :   1.0721
B( 28-C , 29-H ) :   0.9768 B( 28-C , 30-H ) :   0.9762 B( 28-C , 31-H ) :   0.9754

Dispersion correction           -0.014096907
FINAL SINGLE POINT ENERGY     -1339.878848709375

DIPOLE MOMENT
-------------
                                X             Y             Z
Electronic contribution:    -26.75540     -13.06158      16.59470
Nuclear contribution   :     27.45982      13.35244     -16.76592
                        -----------------------------------------
Total Dipole Moment    :      0.70443       0.29086      -0.17122
                        -----------------------------------------
Magnitude (a.u.)       :      0.78111
Magnitude (Debye)      :      1.98542

Rotational constants in cm-1:     0.016979     0.009712     0.006477
Rotational constants in MHz :   509.004918   291.158843   194.178639

                             ****ORCA TERMINATED NORMALLY****
TOTAL RUN TIME: 0 days 0 hours 0 minutes 21 seconds 667 msec
