                         Program Version 4.2.1 -  RELEASE  -
|  1> ! wB97X-D3 SP def2-SVP
|  2> %pal
|  3> nprocs 24
|  4> end
|  5>
|  6> * xyz 0 1
|  7> S 	 -49.1915 	 -45.5305 	 -78.9018
|  8> C 	 -49.2679 	 -43.9704 	 -79.6645
|  9> C 	 -48.166 	 -43.1885 	 -79.3549
| 10> C 	 -47.272 	 -43.8634 	 -78.3871
| 11> C 	 -47.7239 	 -45.1172 	 -78.0187
| 12> H 	 -46.3642 	 -43.4897 	 -77.8665
| 13> C 	 -47.9467 	 -41.7712 	 -79.8528
| 14> H 	 -48.7388 	 -41.5691 	 -80.5412
| 15> H 	 -47.0135 	 -41.9454 	 -80.4284
| 16> C 	 -48.0237 	 -40.7371 	 -78.7419
| 17> H 	 -49.0509 	 -40.8145 	 -78.4575
| 18> H 	 -47.3903 	 -41.1171 	 -77.9249
| 19> C 	 -47.4813 	 -39.3604 	 -79.1325
| 20> H 	 -47.9689 	 -38.7886 	 -79.9399
| 21> H 	 -47.5525 	 -38.6299 	 -78.2868
| 22> H 	 -46.363 	 -39.4416 	 -79.2754
| 23> S 	 -48.178 	 -45.6878 	 -75.4115
| 24> C 	 -46.9721 	 -46.6191 	 -74.579
| 25> C 	 -45.9175 	 -47.0705 	 -75.377
| 26> C 	 -46.0218 	 -46.6005 	 -76.7129
| 27> C 	 -47.1886 	 -45.8783 	 -76.8676
| 28> H 	 -45.1231 	 -47.5755 	 -74.9405
| 29> C 	 -45.0922 	 -46.8941 	 -77.8753
| 30> H 	 -45.6797 	 -46.7128 	 -78.809
| 31> H 	 -44.8351 	 -47.9514 	 -77.8461
| 32> C 	 -43.8336 	 -46.1163 	 -77.8896
| 33> H 	 -43.1681 	 -46.1875 	 -77.0205
| 34> H 	 -44.1367 	 -45.0768 	 -77.7079
| 35> C 	 -43.0763 	 -46.241 	 -79.1885
| 36> H 	 -43.8269 	 -46.2437 	 -80.0331
| 37> H 	 -42.4701 	 -47.1519 	 -79.2546
| 38> H 	 -42.5434 	 -45.2654 	 -79.3762
| 39> H 	 -49.9878 	 -43.5303 	 -80.3043
| 40> H 	 -47.0343 	 -46.8796 	 -73.5467
| 41> *
| 42>
| 43>                          ****END OF INPUT****

CARTESIAN COORDINATES (ANGSTROEM)
---------------------------------
  S    -49.191500  -45.530500  -78.901800
  C    -49.267900  -43.970400  -79.664500
  C    -48.166000  -43.188500  -79.354900
  C    -47.272000  -43.863400  -78.387100
  C    -47.723900  -45.117200  -78.018700
  H    -46.364200  -43.489700  -77.866500
  C    -47.946700  -41.771200  -79.852800
  H    -48.738800  -41.569100  -80.541200
  H    -47.013500  -41.945400  -80.428400
  C    -48.023700  -40.737100  -78.741900
  H    -49.050900  -40.814500  -78.457500
  H    -47.390300  -41.117100  -77.924900
  C    -47.481300  -39.360400  -79.132500
  H    -47.968900  -38.788600  -79.939900
  H    -47.552500  -38.629900  -78.286800
  H    -46.363000  -39.441600  -79.275400
  S    -48.178000  -45.687800  -75.411500
  C    -46.972100  -46.619100  -74.579000
  C    -45.917500  -47.070500  -75.377000
  C    -46.021800  -46.600500  -76.712900
  C    -47.188600  -45.878300  -76.867600
  H    -45.123100  -47.575500  -74.940500
  C    -45.092200  -46.894100  -77.875300
  H    -45.679700  -46.712800  -78.809000
  H    -44.835100  -47.951400  -77.846100
  C    -43.833600  -46.116300  -77.889600
  H    -43.168100  -46.187500  -77.020500
  H    -44.136700  -45.076800  -77.707900
  C    -43.076300  -46.241000  -79.188500
  H    -43.826900  -46.243700  -80.033100
  H    -42.470100  -47.151900  -79.254600
  H    -42.543400  -45.265400  -79.376200
  H    -49.987800  -43.530300  -80.304300
  H    -47.034300  -46.879600  -73.546700

 Total Charge           Charge          ....    0
 Multiplicity           Mult            ....    1
 Number of Electrons    NEL             ....  134
 Basis Dimension        Dim             ....  322

ORBITAL ENERGIES
----------------

  NO   OCC          E(Eh)            E(eV)
   0   2.0000     -88.968047     -2420.9436
   1   2.0000     -88.965145     -2420.8647
   2   2.0000     -10.327924      -281.0371
   3   2.0000     -10.324747      -280.9506
   4   2.0000     -10.315356      -280.6951
   5   2.0000     -10.309913      -280.5470
   6   2.0000     -10.303162      -280.3633
   7   2.0000     -10.302687      -280.3504
   8   2.0000     -10.299273      -280.2575
   9   2.0000     -10.290460      -280.0177
  10   2.0000     -10.290072      -280.0071
  11   2.0000     -10.289545      -279.9928
  12   2.0000     -10.288489      -279.9640
  13   2.0000     -10.288242      -279.9573
  14   2.0000     -10.284428      -279.8535
  15   2.0000     -10.280798      -279.7547
  16   2.0000      -8.082761      -219.9431
  17   2.0000      -8.079615      -219.8575
  18   2.0000      -6.041045      -164.3852
  19   2.0000      -6.038248      -164.3091
  20   2.0000      -6.037443      -164.2872
  21   2.0000      -6.034139      -164.1973
  22   2.0000      -6.033580      -164.1821
  23   2.0000      -6.030272      -164.0920
  24   2.0000      -1.003399       -27.3039
  25   2.0000      -0.980754       -26.6877
  26   2.0000      -0.917766       -24.9737
  27   2.0000      -0.914118       -24.8744
  28   2.0000      -0.866589       -23.5811
  29   2.0000      -0.855334       -23.2748
  30   2.0000      -0.842147       -22.9160
  31   2.0000      -0.813218       -22.1288
  32   2.0000      -0.781097       -21.2547
  33   2.0000      -0.769884       -20.9496
  34   2.0000      -0.705225       -19.1902
  35   2.0000      -0.698576       -19.0092
  36   2.0000      -0.692988       -18.8572
  37   2.0000      -0.665256       -18.1025
  38   2.0000      -0.638472       -17.3737
  39   2.0000      -0.614519       -16.7219
  40   2.0000      -0.598953       -16.2983
  41   2.0000      -0.571270       -15.5451
  42   2.0000      -0.568248       -15.4628
  43   2.0000      -0.559690       -15.2299
  44   2.0000      -0.525268       -14.2933
  45   2.0000      -0.522200       -14.2098
  46   2.0000      -0.513224       -13.9655
  47   2.0000      -0.507969       -13.8225
  48   2.0000      -0.505314       -13.7503
  49   2.0000      -0.504299       -13.7227
  50   2.0000      -0.492355       -13.3977
  51   2.0000      -0.475621       -12.9423
  52   2.0000      -0.471015       -12.8170
  53   2.0000      -0.462822       -12.5940
  54   2.0000      -0.456827       -12.4309
  55   2.0000      -0.450774       -12.2662
  56   2.0000      -0.445946       -12.1348
  57   2.0000      -0.439221       -11.9518
  58   2.0000      -0.431584       -11.7440
  59   2.0000      -0.427507       -11.6331
  60   2.0000      -0.421364       -11.4659
  61   2.0000      -0.413846       -11.2613
  62   2.0000      -0.405870       -11.0443
  63   2.0000      -0.340072        -9.2538
  64   2.0000      -0.330390        -8.9904
  65   2.0000      -0.319491        -8.6938
  66   2.0000      -0.305536        -8.3141
  67   0.0000       0.042447         1.1550
  68   0.0000       0.060421         1.6441
  69   0.0000       0.115391         3.1399
  70   0.0000       0.121046         3.2938
  71   0.0000       0.130044         3.5387

MULLIKEN ATOMIC CHARGES
-----------------------
   0 S :    0.116281
   1 C :   -0.086972
   2 C :   -0.148307
   3 C :    0.035249
   4 C :   -0.186785
   5 H :    0.034005
   6 C :    0.082817
   7 H :    0.002133
   8 H :    0.043430
   9 C :   -0.052072
  10 H :    0.027258
  11 H :    0.033316
  12 C :   -0.064932
  13 H :    0.040904
  14 H :    0.033119
  15 H :    0.039768
  16 S :    0.129514
  17 C :   -0.082359
  18 C :   -0.017395
  19 C :   -0.004414
  20 C :   -0.203049
  21 H :   -0.008268
  22 C :    0.083967
  23 H :    0.039646
  24 H :    0.023219
  25 C :   -0.081510
  26 H :    0.024092
  27 H :    0.006341
  28 C :   -0.048974
  29 H :    0.027195
  30 H :    0.048057
  31 H :    0.042488
  32 H :    0.027417
  33 H :    0.044822
Sum of atomic charges:   -0.0000000

LOEWDIN ATOMIC CHARGES
----------------------
   0 S :    0.397841
   1 C :   -0.205424
   2 C :   -0.060519
   3 C :   -0.066001
   4 C :   -0.204644
   5 H :    0.036250
   6 C :   -0.033682
   7 H :    0.021973
   8 H :    0.037511
   9 C :   -0.038424
  10 H :    0.026006
  11 H :    0.028961
  12 C :   -0.077433
  13 H :    0.026341
  14 H :    0.029773
  15 H :    0.034134
  16 S :    0.412258
  17 C :   -0.179247
  18 C :   -0.063365
  19 C :   -0.048195
  20 C :   -0.193579
  21 H :    0.020726
  22 C :   -0.030131
  23 H :    0.038864
  24 H :    0.030192
  25 C :   -0.056883
  26 H :    0.025199
  27 H :    0.022100
  28 C :   -0.069793
  29 H :    0.029968
  30 H :    0.027375
  31 H :    0.036357
  32 H :    0.024501
  33 H :    0.020991

  Mayer bond orders larger than 0.100000
B(  0-S ,  1-C ) :   1.1206 B(  0-S ,  4-C ) :   1.1372 B(  1-C ,  2-C ) :   1.6520
B(  1-C , 32-H ) :   0.9644 B(  2-C ,  3-C ) :   1.1915 B(  2-C ,  6-C ) :   1.0218
B(  3-C ,  4-C ) :   1.6227 B(  3-C ,  5-H ) :   0.9790 B(  4-C , 20-C ) :   0.9997
B(  6-C ,  7-H ) :   0.9372 B(  6-C ,  8-H ) :   0.9373 B(  6-C ,  9-C ) :   1.0492
B(  9-C , 10-H ) :   0.9528 B(  9-C , 11-H ) :   0.9613 B(  9-C , 12-C ) :   1.0774
B( 12-C , 13-H ) :   0.9757 B( 12-C , 14-H ) :   0.9732 B( 12-C , 15-H ) :   0.9733
B( 16-S , 17-C ) :   1.1596 B( 16-S , 20-C ) :   1.1483 B( 17-C , 18-C ) :   1.6186
B( 17-C , 33-H ) :   0.9676 B( 18-C , 19-C ) :   1.2209 B( 18-C , 21-H ) :   1.0008
B( 19-C , 20-C ) :   1.6243 B( 19-C , 22-C ) :   1.0407 B( 22-C , 23-H ) :   0.9262
B( 22-C , 24-H ) :   0.9299 B( 22-C , 25-C ) :   1.0689 B( 25-C , 26-H ) :   0.9475
B( 25-C , 27-H ) :   0.9458 B( 25-C , 28-C ) :   1.0849 B( 28-C , 29-H ) :   0.9719
B( 28-C , 30-H ) :   0.9743 B( 28-C , 31-H ) :   0.9733

Dispersion correction           -0.014165885
FINAL SINGLE POINT ENERGY     -1339.874522531544

DIPOLE MOMENT
-------------
                                X             Y             Z
Electronic contribution:    -18.24611     -15.80824      10.56208
Nuclear contribution   :     18.69751      16.18210     -10.55175
                        -----------------------------------------
Total Dipole Moment    :      0.45140       0.37385       0.01034
                        -----------------------------------------
Magnitude (a.u.)       :      0.58621
Magnitude (Debye)      :      1.49002

Rotational constants in cm-1:     0.016476     0.008482     0.007235
Rotational constants in MHz :   493.933936   254.285347   216.892523

                             ****ORCA TERMINATED NORMALLY****
TOTAL RUN TIME: 0 days 0 hours 0 minutes 21 seconds 433 msec
