                         Program Version 4.2.1 -  RELEASE  -
|  1> ! wB97X-D3 SP def2-SVP
|  2> %pal
|  3> nprocs 24
|  4> end
|  5>
|  6> * xyz 0 1
|  7> S 	 -83.9533 	 -34.8612 	 -76.8653
|  8> C 	 -83.4856 	 -34.9858 	 -78.5101
|  9> C 	 -84.5082 	 -34.4688 	 -79.2484
| 10> C 	 -85.5549 	 -33.8448 	 -78.5025
| 11> C 	 -85.3083 	 -33.7614 	 -77.1399
| 12> H 	 -86.4865 	 -33.3978 	 -78.9167
| 13> C 	 -84.6292 	 -34.658 	 -80.8127
| 14> H 	 -84.7575 	 -35.7524 	 -80.983
| 15> H 	 -83.6587 	 -34.4158 	 -81.1992
| 16> C 	 -85.6926 	 -33.7981 	 -81.5116
| 17> H 	 -85.7014 	 -34.1036 	 -82.5843
| 18> H 	 -86.7056 	 -34.1171 	 -81.1999
| 19> C 	 -85.5463 	 -32.2736 	 -81.3698
| 20> H 	 -85.7062 	 -31.9244 	 -80.3393
| 21> H 	 -84.503 	 -31.9674 	 -81.6743
| 22> H 	 -86.174 	 -31.7538 	 -82.0216
| 23> S 	 -86.7462 	 -34.1956 	 -74.7772
| 24> C 	 -87.4964 	 -32.8771 	 -73.9924
| 25> C 	 -87.4238 	 -31.7349 	 -74.7613
| 26> C 	 -86.6583 	 -31.9067 	 -75.9847
| 27> C 	 -86.1598 	 -33.1945 	 -76.1244
| 28> H 	 -87.9666 	 -30.9085 	 -74.4049
| 29> C 	 -86.5613 	 -30.7697 	 -76.9763
| 30> H 	 -87.3918 	 -30.0933 	 -76.7158
| 31> H 	 -86.6026 	 -31.1205 	 -77.9503
| 32> C 	 -85.2242 	 -29.9926 	 -76.8801
| 33> H 	 -84.3752 	 -30.6772 	 -76.9524
| 34> H 	 -85.065 	 -29.6578 	 -75.8472
| 35> C 	 -85.1935 	 -28.8852 	 -77.8852
| 36> H 	 -85.4413 	 -29.1619 	 -78.8973
| 37> H 	 -84.1925 	 -28.4675 	 -77.9039
| 38> H 	 -85.9679 	 -28.1405 	 -77.5566
| 39> H 	 -82.6746 	 -35.5774 	 -78.9017
| 40> H 	 -88.1432 	 -33.0377 	 -73.1232
| 41> *
| 42>
| 43>                          ****END OF INPUT****

CARTESIAN COORDINATES (ANGSTROEM)
---------------------------------
  S    -83.953300  -34.861200  -76.865300
  C    -83.485600  -34.985800  -78.510100
  C    -84.508200  -34.468800  -79.248400
  C    -85.554900  -33.844800  -78.502500
  C    -85.308300  -33.761400  -77.139900
  H    -86.486500  -33.397800  -78.916700
  C    -84.629200  -34.658000  -80.812700
  H    -84.757500  -35.752400  -80.983000
  H    -83.658700  -34.415800  -81.199200
  C    -85.692600  -33.798100  -81.511600
  H    -85.701400  -34.103600  -82.584300
  H    -86.705600  -34.117100  -81.199900
  C    -85.546300  -32.273600  -81.369800
  H    -85.706200  -31.924400  -80.339300
  H    -84.503000  -31.967400  -81.674300
  H    -86.174000  -31.753800  -82.021600
  S    -86.746200  -34.195600  -74.777200
  C    -87.496400  -32.877100  -73.992400
  C    -87.423800  -31.734900  -74.761300
  C    -86.658300  -31.906700  -75.984700
  C    -86.159800  -33.194500  -76.124400
  H    -87.966600  -30.908500  -74.404900
  C    -86.561300  -30.769700  -76.976300
  H    -87.391800  -30.093300  -76.715800
  H    -86.602600  -31.120500  -77.950300
  C    -85.224200  -29.992600  -76.880100
  H    -84.375200  -30.677200  -76.952400
  H    -85.065000  -29.657800  -75.847200
  C    -85.193500  -28.885200  -77.885200
  H    -85.441300  -29.161900  -78.897300
  H    -84.192500  -28.467500  -77.903900
  H    -85.967900  -28.140500  -77.556600
  H    -82.674600  -35.577400  -78.901700
  H    -88.143200  -33.037700  -73.123200

 Total Charge           Charge          ....    0
 Multiplicity           Mult            ....    1
 Number of Electrons    NEL             ....  134
 Basis Dimension        Dim             ....  322

ORBITAL ENERGIES
----------------

  NO   OCC          E(Eh)            E(eV)
   0   2.0000     -88.962838     -2420.8019
   1   2.0000     -88.962042     -2420.7802
   2   2.0000     -10.331135      -281.1245
   3   2.0000     -10.328461      -281.0517
   4   2.0000     -10.316174      -280.7174
   5   2.0000     -10.310609      -280.5659
   6   2.0000     -10.306907      -280.4652
   7   2.0000     -10.300459      -280.2897
   8   2.0000     -10.296492      -280.1818
   9   2.0000     -10.296277      -280.1759
  10   2.0000     -10.294040      -280.1151
  11   2.0000     -10.292072      -280.0615
  12   2.0000     -10.287361      -279.9333
  13   2.0000     -10.280700      -279.7521
  14   2.0000     -10.280132      -279.7366
  15   2.0000     -10.275987      -279.6238
  16   2.0000      -8.078169      -219.8182
  17   2.0000      -8.077131      -219.7899
  18   2.0000      -6.036682      -164.2665
  19   2.0000      -6.035656      -164.2385
  20   2.0000      -6.032502      -164.1527
  21   2.0000      -6.031587      -164.1278
  22   2.0000      -6.028973      -164.0567
  23   2.0000      -6.027800      -164.0248
  24   2.0000      -1.008715       -27.4485
  25   2.0000      -0.988146       -26.8888
  26   2.0000      -0.912861       -24.8402
  27   2.0000      -0.905529       -24.6407
  28   2.0000      -0.875984       -23.8367
  29   2.0000      -0.851921       -23.1819
  30   2.0000      -0.836820       -22.7710
  31   2.0000      -0.818027       -22.2596
  32   2.0000      -0.784417       -21.3451
  33   2.0000      -0.773482       -21.0475
  34   2.0000      -0.710993       -19.3471
  35   2.0000      -0.696946       -18.9649
  36   2.0000      -0.691532       -18.8175
  37   2.0000      -0.661840       -18.0096
  38   2.0000      -0.638997       -17.3880
  39   2.0000      -0.623380       -16.9630
  40   2.0000      -0.599307       -16.3080
  41   2.0000      -0.571438       -15.5496
  42   2.0000      -0.561659       -15.2835
  43   2.0000      -0.554507       -15.0889
  44   2.0000      -0.530135       -14.4257
  45   2.0000      -0.525193       -14.2912
  46   2.0000      -0.517305       -14.0766
  47   2.0000      -0.515627       -14.0309
  48   2.0000      -0.509194       -13.8559
  49   2.0000      -0.500039       -13.6067
  50   2.0000      -0.495168       -13.4742
  51   2.0000      -0.489259       -13.3134
  52   2.0000      -0.472875       -12.8676
  53   2.0000      -0.470041       -12.7905
  54   2.0000      -0.455809       -12.4032
  55   2.0000      -0.449787       -12.2393
  56   2.0000      -0.445613       -12.1257
  57   2.0000      -0.438222       -11.9246
  58   2.0000      -0.432890       -11.7795
  59   2.0000      -0.425289       -11.5727
  60   2.0000      -0.418812       -11.3965
  61   2.0000      -0.411243       -11.1905
  62   2.0000      -0.403036       -10.9672
  63   2.0000      -0.351689        -9.5699
  64   2.0000      -0.327820        -8.9204
  65   2.0000      -0.323237        -8.7957
  66   2.0000      -0.293181        -7.9779
  67   0.0000       0.027537         0.7493
  68   0.0000       0.066612         1.8126
  69   0.0000       0.110600         3.0096
  70   0.0000       0.128965         3.5093
  71   0.0000       0.130735         3.5575

MULLIKEN ATOMIC CHARGES
-----------------------
   0 S :    0.102219
   1 C :   -0.110948
   2 C :   -0.109281
   3 C :    0.000700
   4 C :   -0.145342
   5 H :    0.037412
   6 C :    0.074492
   7 H :    0.049404
   8 H :    0.018321
   9 C :   -0.099714
  10 H :    0.032654
  11 H :    0.028161
  12 C :   -0.032532
  13 H :    0.038069
  14 H :    0.029982
  15 H :    0.024413
  16 S :    0.104920
  17 C :   -0.100312
  18 C :   -0.030200
  19 C :   -0.041474
  20 C :   -0.162214
  21 H :    0.003346
  22 C :    0.123831
  23 H :    0.023895
  24 H :   -0.013179
  25 C :   -0.096038
  26 H :    0.030719
  27 H :    0.019443
  28 C :   -0.013446
  29 H :    0.024195
  30 H :    0.036983
  31 H :    0.031522
  32 H :    0.050035
  33 H :    0.069964
Sum of atomic charges:   -0.0000000

LOEWDIN ATOMIC CHARGES
----------------------
   0 S :    0.413824
   1 C :   -0.206541
   2 C :   -0.071025
   3 C :   -0.071236
   4 C :   -0.192207
   5 H :    0.036587
   6 C :   -0.030342
   7 H :    0.038529
   8 H :    0.024342
   9 C :   -0.051339
  10 H :    0.031546
  11 H :    0.022716
  12 C :   -0.062748
  13 H :    0.023748
  14 H :    0.031995
  15 H :    0.018457
  16 S :    0.409419
  17 C :   -0.194554
  18 C :   -0.073773
  19 C :   -0.045352
  20 C :   -0.196923
  21 H :    0.024215
  22 C :   -0.020900
  23 H :    0.034274
  24 H :    0.015092
  25 C :   -0.042285
  26 H :    0.024780
  27 H :    0.024188
  28 C :   -0.064467
  29 H :    0.020986
  30 H :    0.028641
  31 H :    0.031557
  32 H :    0.033739
  33 H :    0.035057

  Mayer bond orders larger than 0.100000
B(  0-S ,  1-C ) :   1.1461 B(  0-S ,  4-C ) :   1.1515 B(  1-C ,  2-C ) :   1.5985
B(  1-C ,  4-C ) :   0.1051 B(  1-C , 32-H ) :   0.9779 B(  2-C ,  3-C ) :   1.2754
B(  2-C ,  6-C ) :   0.9828 B(  3-C ,  4-C ) :   1.5344 B(  3-C ,  5-H ) :   0.9780
B(  4-C , 20-C ) :   1.0768 B(  6-C ,  7-H ) :   0.9442 B(  6-C ,  8-H ) :   0.9422
B(  6-C ,  9-C ) :   1.0878 B(  9-C , 10-H ) :   0.9516 B(  9-C , 11-H ) :   0.9463
B(  9-C , 12-C ) :   1.0742 B( 12-C , 13-H ) :   0.9735 B( 12-C , 14-H ) :   0.9710
B( 12-C , 15-H ) :   0.9721 B( 16-S , 17-C ) :   1.1715 B( 16-S , 20-C ) :   1.1323
B( 17-C , 18-C ) :   1.6024 B( 17-C , 33-H ) :   0.9629 B( 18-C , 19-C ) :   1.2304
B( 18-C , 21-H ) :   1.0000 B( 19-C , 20-C ) :   1.5946 B( 19-C , 22-C ) :   1.0464
B( 22-C , 23-H ) :   0.9322 B( 22-C , 24-H ) :   0.9275 B( 22-C , 25-C ) :   1.0643
B( 25-C , 26-H ) :   0.9555 B( 25-C , 27-H ) :   0.9508 B( 25-C , 28-C ) :   1.0844
B( 28-C , 29-H ) :   0.9727 B( 28-C , 30-H ) :   0.9709 B( 28-C , 31-H ) :   0.9708

Dispersion correction           -0.015015911
FINAL SINGLE POINT ENERGY     -1339.880715031353

DIPOLE MOMENT
-------------
                                X             Y             Z
Electronic contribution:      0.60242     -19.61761      22.28845
Nuclear contribution   :     -0.87258      19.93035     -22.83679
                        -----------------------------------------
Total Dipole Moment    :     -0.27016       0.31274      -0.54834
                        -----------------------------------------
Magnitude (a.u.)       :      0.68664
Magnitude (Debye)      :      1.74530

Rotational constants in cm-1:     0.016657     0.010360     0.007536
Rotational constants in MHz :   499.351633   310.599442   225.917740

                             ****ORCA TERMINATED NORMALLY****
TOTAL RUN TIME: 0 days 0 hours 0 minutes 21 seconds 405 msec
