                         Program Version 4.2.1 -  RELEASE  -
|  1> ! wB97X-D3 SP def2-SVP
|  2> %pal
|  3> nprocs 24
|  4> end
|  5>
|  6> * xyz 0 1
|  7> S 	 -109.612 	 54.525 	 -89.7336
|  8> C 	 -110.548 	 54.1843 	 -88.3403
|  9> C 	 -109.912 	 54.6481 	 -87.1875
| 10> C 	 -108.535 	 55.072 	 -87.3746
| 11> C 	 -108.268 	 55.0474 	 -88.685
| 12> H 	 -107.761 	 55.2673 	 -86.5977
| 13> C 	 -110.543 	 54.3478 	 -85.8143
| 14> H 	 -111.452 	 53.7449 	 -86.0201
| 15> H 	 -110.847 	 55.3376 	 -85.3571
| 16> C 	 -109.723 	 53.4763 	 -84.856
| 17> H 	 -108.756 	 54.0718 	 -84.8782
| 18> H 	 -110.228 	 53.4865 	 -83.8723
| 19> C 	 -109.391 	 52.0073 	 -85.1134
| 20> H 	 -110.343 	 51.5811 	 -85.4033
| 21> H 	 -108.804 	 51.8208 	 -86.017
| 22> H 	 -108.883 	 51.3809 	 -84.3719
| 23> S 	 -106.179 	 53.6917 	 -89.9197
| 24> C 	 -104.843 	 54.6233 	 -90.5706
| 25> C 	 -104.92 	 55.9171 	 -90.2051
| 26> C 	 -106.07 	 56.2688 	 -89.4568
| 27> C 	 -106.939 	 55.2138 	 -89.3586
| 28> H 	 -104.097 	 56.6347 	 -90.3366
| 29> C 	 -106.286 	 57.5992 	 -88.7877
| 30> H 	 -105.325 	 58.0663 	 -88.5963
| 31> H 	 -106.864 	 57.4416 	 -87.8475
| 32> C 	 -106.999 	 58.6535 	 -89.6135
| 33> H 	 -107.735 	 57.9779 	 -90.2213
| 34> H 	 -106.336 	 59.169 	 -90.3851
| 35> C 	 -107.753 	 59.6352 	 -88.6934
| 36> H 	 -108.106 	 60.4925 	 -89.3216
| 37> H 	 -107.081 	 60.1578 	 -88.0247
| 38> H 	 -108.6 	 59.2255 	 -88.1761
| 39> H 	 -111.528 	 53.7675 	 -88.3126
| 40> H 	 -104.027 	 54.2821 	 -91.1525
| 41> *
| 42>
| 43>                          ****END OF INPUT****

CARTESIAN COORDINATES (ANGSTROEM)
---------------------------------
  S    -109.612000   54.525000  -89.733600
  C    -110.548000   54.184300  -88.340300
  C    -109.912000   54.648100  -87.187500
  C    -108.535000   55.072000  -87.374600
  C    -108.268000   55.047400  -88.685000
  H    -107.761000   55.267300  -86.597700
  C    -110.543000   54.347800  -85.814300
  H    -111.452000   53.744900  -86.020100
  H    -110.847000   55.337600  -85.357100
  C    -109.723000   53.476300  -84.856000
  H    -108.756000   54.071800  -84.878200
  H    -110.228000   53.486500  -83.872300
  C    -109.391000   52.007300  -85.113400
  H    -110.343000   51.581100  -85.403300
  H    -108.804000   51.820800  -86.017000
  H    -108.883000   51.380900  -84.371900
  S    -106.179000   53.691700  -89.919700
  C    -104.843000   54.623300  -90.570600
  C    -104.920000   55.917100  -90.205100
  C    -106.070000   56.268800  -89.456800
  C    -106.939000   55.213800  -89.358600
  H    -104.097000   56.634700  -90.336600
  C    -106.286000   57.599200  -88.787700
  H    -105.325000   58.066300  -88.596300
  H    -106.864000   57.441600  -87.847500
  C    -106.999000   58.653500  -89.613500
  H    -107.735000   57.977900  -90.221300
  H    -106.336000   59.169000  -90.385100
  C    -107.753000   59.635200  -88.693400
  H    -108.106000   60.492500  -89.321600
  H    -107.081000   60.157800  -88.024700
  H    -108.600000   59.225500  -88.176100
  H    -111.528000   53.767500  -88.312600
  H    -104.027000   54.282100  -91.152500

 Total Charge           Charge          ....    0
 Multiplicity           Mult            ....    1
 Number of Electrons    NEL             ....  134
 Basis Dimension        Dim             ....  322

ORBITAL ENERGIES
----------------

  NO   OCC          E(Eh)            E(eV)
   0   2.0000     -88.966387     -2420.8985
   1   2.0000     -88.963455     -2420.8187
   2   2.0000     -10.330830      -281.1162
   3   2.0000     -10.325208      -280.9632
   4   2.0000     -10.312052      -280.6052
   5   2.0000     -10.311339      -280.5858
   6   2.0000     -10.304195      -280.3914
   7   2.0000     -10.302352      -280.3413
   8   2.0000     -10.299553      -280.2651
   9   2.0000     -10.297707      -280.2149
  10   2.0000     -10.294543      -280.1287
  11   2.0000     -10.293045      -280.0880
  12   2.0000     -10.289124      -279.9813
  13   2.0000     -10.288465      -279.9634
  14   2.0000     -10.278484      -279.6918
  15   2.0000     -10.276788      -279.6456
  16   2.0000      -8.081434      -219.9070
  17   2.0000      -8.077644      -219.8039
  18   2.0000      -6.039907      -164.3542
  19   2.0000      -6.036245      -164.2546
  20   2.0000      -6.035992      -164.2477
  21   2.0000      -6.032400      -164.1500
  22   2.0000      -6.032097      -164.1417
  23   2.0000      -6.028162      -164.0346
  24   2.0000      -1.007196       -27.4072
  25   2.0000      -0.986488       -26.8437
  26   2.0000      -0.909478       -24.7482
  27   2.0000      -0.906698       -24.6725
  28   2.0000      -0.868528       -23.6339
  29   2.0000      -0.849857       -23.1258
  30   2.0000      -0.845946       -23.0194
  31   2.0000      -0.819353       -22.2957
  32   2.0000      -0.781885       -21.2762
  33   2.0000      -0.770981       -20.9795
  34   2.0000      -0.705511       -19.1979
  35   2.0000      -0.686388       -18.6776
  36   2.0000      -0.685778       -18.6610
  37   2.0000      -0.660334       -17.9686
  38   2.0000      -0.642621       -17.4866
  39   2.0000      -0.620920       -16.8961
  40   2.0000      -0.597145       -16.2491
  41   2.0000      -0.567227       -15.4350
  42   2.0000      -0.559570       -15.2267
  43   2.0000      -0.551621       -15.0104
  44   2.0000      -0.542997       -14.7757
  45   2.0000      -0.520436       -14.1618
  46   2.0000      -0.514336       -13.9958
  47   2.0000      -0.510194       -13.8831
  48   2.0000      -0.501301       -13.6411
  49   2.0000      -0.496075       -13.4989
  50   2.0000      -0.491176       -13.3656
  51   2.0000      -0.483555       -13.1582
  52   2.0000      -0.473983       -12.8977
  53   2.0000      -0.466411       -12.6917
  54   2.0000      -0.457496       -12.4491
  55   2.0000      -0.452674       -12.3179
  56   2.0000      -0.443259       -12.0617
  57   2.0000      -0.441828       -12.0227
  58   2.0000      -0.436943       -11.8898
  59   2.0000      -0.422695       -11.5021
  60   2.0000      -0.408812       -11.1243
  61   2.0000      -0.401696       -10.9307
  62   2.0000      -0.394911       -10.7461
  63   2.0000      -0.349001        -9.4968
  64   2.0000      -0.329718        -8.9721
  65   2.0000      -0.322472        -8.7749
  66   2.0000      -0.304565        -8.2876
  67   0.0000       0.037084         1.0091
  68   0.0000       0.065234         1.7751
  69   0.0000       0.105216         2.8631
  70   0.0000       0.116135         3.1602
  71   0.0000       0.125071         3.4034

MULLIKEN ATOMIC CHARGES
-----------------------
   0 S :    0.123343
   1 C :   -0.106200
   2 C :   -0.105317
   3 C :    0.034293
   4 C :   -0.173421
   5 H :    0.055338
   6 C :    0.041075
   7 H :    0.012070
   8 H :    0.052663
   9 C :   -0.100629
  10 H :    0.024893
  11 H :    0.042380
  12 C :   -0.037753
  13 H :    0.011487
  14 H :    0.027539
  15 H :    0.049316
  16 S :    0.105702
  17 C :   -0.058994
  18 C :   -0.039491
  19 C :   -0.022946
  20 C :   -0.192152
  21 H :    0.018496
  22 C :    0.091428
  23 H :    0.016239
  24 H :    0.028261
  25 C :   -0.128289
  26 H :    0.042699
  27 H :    0.043401
  28 C :   -0.042768
  29 H :    0.030580
  30 H :    0.025485
  31 H :    0.047236
  32 H :    0.043852
  33 H :    0.040183
Sum of atomic charges:   -0.0000000

LOEWDIN ATOMIC CHARGES
----------------------
   0 S :    0.406766
   1 C :   -0.203824
   2 C :   -0.066700
   3 C :   -0.064830
   4 C :   -0.179835
   5 H :    0.047907
   6 C :   -0.036904
   7 H :    0.024398
   8 H :    0.040968
   9 C :   -0.051279
  10 H :    0.023116
  11 H :    0.030673
  12 C :   -0.074144
  13 H :    0.022187
  14 H :    0.027157
  15 H :    0.033355
  16 S :    0.385374
  17 C :   -0.174686
  18 C :   -0.075631
  19 C :   -0.059048
  20 C :   -0.190199
  21 H :    0.033745
  22 C :   -0.036559
  23 H :    0.029147
  24 H :    0.035449
  25 C :   -0.050501
  26 H :    0.031991
  27 H :    0.029044
  28 C :   -0.068649
  29 H :    0.031953
  30 H :    0.022516
  31 H :    0.026617
  32 H :    0.024773
  33 H :    0.025653

  Mayer bond orders larger than 0.100000
B(  0-S ,  1-C ) :   1.1320 B(  0-S ,  4-C ) :   1.1489 B(  1-C ,  2-C ) :   1.6403
B(  1-C , 32-H ) :   0.9681 B(  2-C ,  3-C ) :   1.1837 B(  2-C ,  6-C ) :   1.0263
B(  3-C ,  4-C ) :   1.6515 B(  3-C ,  5-H ) :   0.9755 B(  4-C , 20-C ) :   0.9785
B(  6-C ,  7-H ) :   0.9453 B(  6-C ,  8-H ) :   0.9354 B(  6-C ,  9-C ) :   1.0667
B(  9-C , 10-H ) :   0.9543 B(  9-C , 11-H ) :   0.9542 B(  9-C , 12-C ) :   1.0677
B( 12-C , 13-H ) :   0.9695 B( 12-C , 14-H ) :   0.9720 B( 12-C , 15-H ) :   0.9770
B( 16-S , 17-C ) :   1.1351 B( 16-S , 20-C ) :   1.1376 B( 17-C , 18-C ) :   1.6402
B( 17-C , 33-H ) :   0.9676 B( 18-C , 19-C ) :   1.2373 B( 18-C , 21-H ) :   0.9797
B( 19-C , 20-C ) :   1.6250 B( 19-C , 22-C ) :   1.0550 B( 22-C , 23-H ) :   0.9192
B( 22-C , 24-H ) :   0.9359 B( 22-C , 25-C ) :   1.0453 B( 25-C , 26-H ) :   0.9629
B( 25-C , 27-H ) :   0.9554 B( 25-C , 28-C ) :   1.0791 B( 28-C , 29-H ) :   0.9723
B( 28-C , 30-H ) :   0.9718 B( 28-C , 31-H ) :   0.9753

Dispersion correction           -0.014500223
FINAL SINGLE POINT ENERGY     -1339.862336267113

DIPOLE MOMENT
-------------
                                X             Y             Z
Electronic contribution:      4.01948     -10.34442     -17.12758
Nuclear contribution   :     -3.89521      10.59452      17.56534
                        -----------------------------------------
Total Dipole Moment    :      0.12427       0.25010       0.43776
                        -----------------------------------------
Magnitude (a.u.)       :      0.51926
Magnitude (Debye)      :      1.31986

Rotational constants in cm-1:     0.017884     0.008950     0.007462
Rotational constants in MHz :   536.159106   268.319052   223.717318

                             ****ORCA TERMINATED NORMALLY****
TOTAL RUN TIME: 0 days 0 hours 0 minutes 21 seconds 722 msec
