                         Program Version 4.2.1 -  RELEASE  -
|  1> ! wB97X-D3 SP def2-SVP
|  2> %pal
|  3> nprocs 24
|  4> end
|  5>
|  6> * xyz 0 1
|  7> S 	 -124.953 	 12.7207 	 -12.0039
|  8> C 	 -123.302 	 13.0759 	 -12.1666
|  9> C 	 -122.601 	 11.9881 	 -12.5637
| 10> C 	 -123.387 	 10.7845 	 -12.6516
| 11> C 	 -124.722 	 11.0311 	 -12.3836
| 12> H 	 -123.079 	 9.81721 	 -12.8918
| 13> C 	 -121.117 	 11.9225 	 -12.8318
| 14> H 	 -120.99 	 11.741 	 -13.8929
| 15> H 	 -120.736 	 11.0011 	 -12.4031
| 16> C 	 -120.253 	 13.0415 	 -12.2913
| 17> H 	 -120.432 	 14.0107 	 -12.7846
| 18> H 	 -120.568 	 13.3056 	 -11.2594
| 19> C 	 -118.764 	 12.7299 	 -12.2663
| 20> H 	 -118.591 	 11.8781 	 -11.627
| 21> H 	 -118.249 	 12.5897 	 -13.2094
| 22> H 	 -118.325 	 13.6115 	 -11.8226
| 23> S 	 -127.198 	 10.0455 	 -13.3569
| 24> C 	 -128.142 	 9.04674 	 -12.2886
| 25> C 	 -127.306 	 8.46773 	 -11.396
| 26> C 	 -126.007 	 9.09899 	 -11.2933
| 27> C 	 -125.867 	 10.1549 	 -12.1759
| 28> H 	 -127.744 	 7.631 	 -10.8296
| 29> C 	 -124.972 	 8.66107 	 -10.3376
| 30> H 	 -124.339 	 9.53225 	 -10.2227
| 31> H 	 -124.428 	 7.93657 	 -10.9699
| 32> C 	 -125.451 	 8.05168 	 -9.0165
| 33> H 	 -125.993 	 7.13179 	 -9.14687
| 34> H 	 -126.176 	 8.62338 	 -8.54519
| 35> C 	 -124.261 	 7.81131 	 -8.11336
| 36> H 	 -123.473 	 7.21726 	 -8.55375
| 37> H 	 -124.606 	 7.39804 	 -7.14371
| 38> H 	 -123.789 	 8.72649 	 -7.88171
| 39> H 	 -122.938 	 14.0559 	 -11.9107
| 40> H 	 -129.146 	 8.66906 	 -12.4795
| 41> *
| 42>
| 43>                          ****END OF INPUT****

CARTESIAN COORDINATES (ANGSTROEM)
---------------------------------
  S    -124.953000   12.720700  -12.003900
  C    -123.302000   13.075900  -12.166600
  C    -122.601000   11.988100  -12.563700
  C    -123.387000   10.784500  -12.651600
  C    -124.722000   11.031100  -12.383600
  H    -123.079000    9.817210  -12.891800
  C    -121.117000   11.922500  -12.831800
  H    -120.990000   11.741000  -13.892900
  H    -120.736000   11.001100  -12.403100
  C    -120.253000   13.041500  -12.291300
  H    -120.432000   14.010700  -12.784600
  H    -120.568000   13.305600  -11.259400
  C    -118.764000   12.729900  -12.266300
  H    -118.591000   11.878100  -11.627000
  H    -118.249000   12.589700  -13.209400
  H    -118.325000   13.611500  -11.822600
  S    -127.198000   10.045500  -13.356900
  C    -128.142000    9.046740  -12.288600
  C    -127.306000    8.467730  -11.396000
  C    -126.007000    9.098990  -11.293300
  C    -125.867000   10.154900  -12.175900
  H    -127.744000    7.631000  -10.829600
  C    -124.972000    8.661070  -10.337600
  H    -124.339000    9.532250  -10.222700
  H    -124.428000    7.936570  -10.969900
  C    -125.451000    8.051680   -9.016500
  H    -125.993000    7.131790   -9.146870
  H    -126.176000    8.623380   -8.545190
  C    -124.261000    7.811310   -8.113360
  H    -123.473000    7.217260   -8.553750
  H    -124.606000    7.398040   -7.143710
  H    -123.789000    8.726490   -7.881710
  H    -122.938000   14.055900  -11.910700
  H    -129.146000    8.669060  -12.479500

 Total Charge           Charge          ....    0
 Multiplicity           Mult            ....    1
 Number of Electrons    NEL             ....  134
 Basis Dimension        Dim             ....  322

ORBITAL ENERGIES
----------------

  NO   OCC          E(Eh)            E(eV)
   0   2.0000     -88.958555     -2420.6854
   1   2.0000     -88.955334     -2420.5977
   2   2.0000     -10.327111      -281.0150
   3   2.0000     -10.321367      -280.8587
   4   2.0000     -10.312398      -280.6146
   5   2.0000     -10.307516      -280.4818
   6   2.0000     -10.300829      -280.2998
   7   2.0000     -10.298644      -280.2403
   8   2.0000     -10.294241      -280.1205
   9   2.0000     -10.290018      -280.0056
  10   2.0000     -10.288889      -279.9749
  11   2.0000     -10.287825      -279.9460
  12   2.0000     -10.287378      -279.9338
  13   2.0000     -10.278428      -279.6903
  14   2.0000     -10.276779      -279.6454
  15   2.0000     -10.272547      -279.5302
  16   2.0000      -8.074918      -219.7297
  17   2.0000      -8.070206      -219.6015
  18   2.0000      -6.033293      -164.1742
  19   2.0000      -6.029074      -164.0595
  20   2.0000      -6.028812      -164.0523
  21   2.0000      -6.025824      -163.9710
  22   2.0000      -6.025022      -163.9492
  23   2.0000      -6.020518      -163.8266
  24   2.0000      -1.009469       -27.4690
  25   2.0000      -0.988108       -26.8878
  26   2.0000      -0.915094       -24.9010
  27   2.0000      -0.914658       -24.8891
  28   2.0000      -0.873628       -23.7726
  29   2.0000      -0.855324       -23.2745
  30   2.0000      -0.848072       -23.0772
  31   2.0000      -0.818152       -22.2630
  32   2.0000      -0.783076       -21.3086
  33   2.0000      -0.768487       -20.9116
  34   2.0000      -0.714852       -19.4521
  35   2.0000      -0.710870       -19.3438
  36   2.0000      -0.695879       -18.9358
  37   2.0000      -0.656963       -17.8769
  38   2.0000      -0.642882       -17.4937
  39   2.0000      -0.613387       -16.6911
  40   2.0000      -0.593272       -16.1438
  41   2.0000      -0.572772       -15.5859
  42   2.0000      -0.569430       -15.4950
  43   2.0000      -0.568033       -15.4570
  44   2.0000      -0.535865       -14.5816
  45   2.0000      -0.530452       -14.4343
  46   2.0000      -0.518336       -14.1046
  47   2.0000      -0.516648       -14.0587
  48   2.0000      -0.505693       -13.7606
  49   2.0000      -0.502223       -13.6662
  50   2.0000      -0.489425       -13.3179
  51   2.0000      -0.486981       -13.2514
  52   2.0000      -0.473991       -12.8979
  53   2.0000      -0.468430       -12.7466
  54   2.0000      -0.455669       -12.3994
  55   2.0000      -0.452281       -12.3072
  56   2.0000      -0.444610       -12.0984
  57   2.0000      -0.439576       -11.9615
  58   2.0000      -0.431973       -11.7546
  59   2.0000      -0.423448       -11.5226
  60   2.0000      -0.420792       -11.4503
  61   2.0000      -0.418214       -11.3802
  62   2.0000      -0.412537       -11.2257
  63   2.0000      -0.337114        -9.1733
  64   2.0000      -0.327238        -8.9046
  65   2.0000      -0.318381        -8.6636
  66   2.0000      -0.302493        -8.2312
  67   0.0000       0.037706         1.0260
  68   0.0000       0.066321         1.8047
  69   0.0000       0.111713         3.0399
  70   0.0000       0.130975         3.5640
  71   0.0000       0.132790         3.6134

MULLIKEN ATOMIC CHARGES
-----------------------
   0 S :    0.116397
   1 C :   -0.132640
   2 C :   -0.081315
   3 C :    0.056974
   4 C :   -0.187566
   5 H :   -0.012153
   6 C :    0.104250
   7 H :    0.033655
   8 H :    0.008645
   9 C :   -0.114107
  10 H :    0.027596
  11 H :    0.025778
  12 C :   -0.021203
  13 H :    0.030525
  14 H :    0.035030
  15 H :    0.026487
  16 S :    0.087001
  17 C :   -0.082507
  18 C :   -0.057838
  19 C :   -0.029254
  20 C :   -0.156124
  21 H :    0.025827
  22 C :    0.063092
  23 H :    0.035140
  24 H :    0.041794
  25 C :   -0.035968
  26 H :    0.019532
  27 H :    0.012274
  28 C :   -0.013584
  29 H :    0.024181
  30 H :    0.031722
  31 H :    0.013003
  32 H :    0.046401
  33 H :    0.058954
Sum of atomic charges:   -0.0000000

LOEWDIN ATOMIC CHARGES
----------------------
   0 S :    0.432010
   1 C :   -0.209418
   2 C :   -0.065961
   3 C :   -0.047375
   4 C :   -0.193818
   5 H :    0.022827
   6 C :   -0.035428
   7 H :    0.034871
   8 H :    0.028752
   9 C :   -0.048716
  10 H :    0.022676
  11 H :    0.026839
  12 C :   -0.059173
  13 H :    0.023471
  14 H :    0.024519
  15 H :    0.028862
  16 S :    0.378330
  17 C :   -0.180269
  18 C :   -0.083361
  19 C :   -0.047198
  20 C :   -0.208931
  21 H :    0.034760
  22 C :   -0.033894
  23 H :    0.034161
  24 H :    0.042456
  25 C :   -0.035310
  26 H :    0.022166
  27 H :    0.018171
  28 C :   -0.057585
  29 H :    0.023838
  30 H :    0.029300
  31 H :    0.018449
  32 H :    0.026544
  33 H :    0.033432

  Mayer bond orders larger than 0.100000
B(  0-S ,  1-C ) :   1.1493 B(  0-S ,  4-C ) :   1.1719 B(  1-C ,  2-C ) :   1.6139
B(  1-C , 32-H ) :   0.9714 B(  2-C ,  3-C ) :   1.2230 B(  2-C ,  6-C ) :   1.0133
B(  3-C ,  4-C ) :   1.5757 B(  3-C ,  5-H ) :   1.0185 B(  4-C , 20-C ) :   1.0182
B(  6-C ,  7-H ) :   0.9235 B(  6-C ,  8-H ) :   0.9397 B(  6-C ,  9-C ) :   1.0774
B(  9-C , 10-H ) :   0.9456 B(  9-C , 11-H ) :   0.9535 B(  9-C , 12-C ) :   1.0927
B( 12-C , 13-H ) :   0.9738 B( 12-C , 14-H ) :   0.9759 B( 12-C , 15-H ) :   0.9708
B( 16-S , 17-C ) :   1.1425 B( 16-S , 20-C ) :   1.1221 B( 17-C , 18-C ) :   1.6388
B( 17-C , 33-H ) :   0.9640 B( 18-C , 19-C ) :   1.1980 B( 18-C , 21-H ) :   0.9877
B( 19-C , 20-C ) :   1.6031 B( 19-C , 22-C ) :   1.0481 B( 22-C , 23-H ) :   0.9301
B( 22-C , 24-H ) :   0.9152 B( 22-C , 25-C ) :   1.0743 B( 25-C , 26-H ) :   0.9398
B( 25-C , 27-H ) :   0.9561 B( 25-C , 28-C ) :   1.0953 B( 28-C , 29-H ) :   0.9723
B( 28-C , 30-H ) :   0.9715 B( 28-C , 31-H ) :   0.9729

Dispersion correction           -0.013648239
FINAL SINGLE POINT ENERGY     -1339.877345035768

DIPOLE MOMENT
-------------
                                X             Y             Z
Electronic contribution:    -24.61845       6.13149     -13.63022
Nuclear contribution   :     25.20079      -6.53024      13.98574
                        -----------------------------------------
Total Dipole Moment    :      0.58234      -0.39874       0.35552
                        -----------------------------------------
Magnitude (a.u.)       :      0.79026
Magnitude (Debye)      :      2.00868

Rotational constants in cm-1:     0.019430     0.007656     0.006049
Rotational constants in MHz :   582.492276   229.534826   181.341925

                             ****ORCA TERMINATED NORMALLY****
TOTAL RUN TIME: 0 days 0 hours 0 minutes 21 seconds 110 msec
