                         Program Version 4.2.1 -  RELEASE  -
|  1> ! wB97X-D3 SP def2-SVP
|  2> %pal
|  3> nprocs 24
|  4> end
|  5>
|  6> * xyz 0 1
|  7> S 	 -40.3144 	 16.6192 	 -99.1311
|  8> C 	 -39.3504 	 15.5597 	 -100.087
|  9> C 	 -38.0421 	 15.5447 	 -99.7057
| 10> C 	 -37.9164 	 16.0551 	 -98.3947
| 11> C 	 -39.0756 	 16.6376 	 -97.9157
| 12> H 	 -37.0568 	 16.1129 	 -97.7114
| 13> C 	 -36.9477 	 14.96 	 -100.537
| 14> H 	 -36.0666 	 14.9667 	 -99.9309
| 15> H 	 -36.6988 	 15.6473 	 -101.362
| 16> C 	 -37.1442 	 13.5049 	 -101.062
| 17> H 	 -38.0694 	 13.3263 	 -101.501
| 18> H 	 -36.4462 	 13.2792 	 -101.861
| 19> C 	 -36.8313 	 12.3856 	 -100.064
| 20> H 	 -36.3846 	 11.5546 	 -100.549
| 21> H 	 -36.1512 	 12.7256 	 -99.3306
| 22> H 	 -37.7407 	 12.1636 	 -99.5085
| 23> S 	 -39.2145 	 18.7547 	 -96.1296
| 24> C 	 -39.5354 	 18.2681 	 -94.5128
| 25> C 	 -39.6001 	 16.8793 	 -94.2786
| 26> C 	 -39.5012 	 16.1511 	 -95.4406
| 27> C 	 -39.3047 	 17.02 	 -96.5365
| 28> H 	 -39.694 	 16.5222 	 -93.2966
| 29> C 	 -39.4981 	 14.6482 	 -95.5597
| 30> H 	 -38.8473 	 14.3272 	 -96.3227
| 31> H 	 -40.5588 	 14.3805 	 -95.7164
| 32> C 	 -39.0737 	 13.8622 	 -94.3452
| 33> H 	 -39.6977 	 14.0548 	 -93.4819
| 34> H 	 -38.0907 	 14.2843 	 -94.026
| 35> C 	 -38.9004 	 12.3553 	 -94.6206
| 36> H 	 -38.2125 	 11.9944 	 -93.8919
| 37> H 	 -38.409 	 12.1687 	 -95.6139
| 38> H 	 -39.9437 	 11.9199 	 -94.4369
| 39> H 	 -39.5847 	 15.1959 	 -101.107
| 40> H 	 -39.7487 	 18.9571 	 -93.7326
| 41> *
| 42>
| 43>                          ****END OF INPUT****

CARTESIAN COORDINATES (ANGSTROEM)
---------------------------------
  S    -40.314400   16.619200  -99.131100
  C    -39.350400   15.559700  -100.087000
  C    -38.042100   15.544700  -99.705700
  C    -37.916400   16.055100  -98.394700
  C    -39.075600   16.637600  -97.915700
  H    -37.056800   16.112900  -97.711400
  C    -36.947700   14.960000  -100.537000
  H    -36.066600   14.966700  -99.930900
  H    -36.698800   15.647300  -101.362000
  C    -37.144200   13.504900  -101.062000
  H    -38.069400   13.326300  -101.501000
  H    -36.446200   13.279200  -101.861000
  C    -36.831300   12.385600  -100.064000
  H    -36.384600   11.554600  -100.549000
  H    -36.151200   12.725600  -99.330600
  H    -37.740700   12.163600  -99.508500
  S    -39.214500   18.754700  -96.129600
  C    -39.535400   18.268100  -94.512800
  C    -39.600100   16.879300  -94.278600
  C    -39.501200   16.151100  -95.440600
  C    -39.304700   17.020000  -96.536500
  H    -39.694000   16.522200  -93.296600
  C    -39.498100   14.648200  -95.559700
  H    -38.847300   14.327200  -96.322700
  H    -40.558800   14.380500  -95.716400
  C    -39.073700   13.862200  -94.345200
  H    -39.697700   14.054800  -93.481900
  H    -38.090700   14.284300  -94.026000
  C    -38.900400   12.355300  -94.620600
  H    -38.212500   11.994400  -93.891900
  H    -38.409000   12.168700  -95.613900
  H    -39.943700   11.919900  -94.436900
  H    -39.584700   15.195900  -101.107000
  H    -39.748700   18.957100  -93.732600

 Total Charge           Charge          ....    0
 Multiplicity           Mult            ....    1
 Number of Electrons    NEL             ....  134
 Basis Dimension        Dim             ....  322

ORBITAL ENERGIES
----------------

  NO   OCC          E(Eh)            E(eV)
   0   2.0000     -88.970539     -2421.0115
   1   2.0000     -88.962492     -2420.7925
   2   2.0000     -10.320029      -280.8223
   3   2.0000     -10.316607      -280.7292
   4   2.0000     -10.311927      -280.6018
   5   2.0000     -10.306592      -280.4566
   6   2.0000     -10.299544      -280.2648
   7   2.0000     -10.293870      -280.1104
   8   2.0000     -10.291281      -280.0400
   9   2.0000     -10.290230      -280.0114
  10   2.0000     -10.286420      -279.9077
  11   2.0000     -10.286165      -279.9008
  12   2.0000     -10.284089      -279.8443
  13   2.0000     -10.283970      -279.8411
  14   2.0000     -10.281285      -279.7680
  15   2.0000     -10.268507      -279.4203
  16   2.0000      -8.085029      -220.0048
  17   2.0000      -8.078030      -219.8144
  18   2.0000      -6.043083      -164.4406
  19   2.0000      -6.039778      -164.3507
  20   2.0000      -6.036352      -164.2575
  21   2.0000      -6.036107      -164.2508
  22   2.0000      -6.032508      -164.1529
  23   2.0000      -6.028871      -164.0539
  24   2.0000      -1.008348       -27.4385
  25   2.0000      -0.986846       -26.8535
  26   2.0000      -0.914545       -24.8860
  27   2.0000      -0.911616       -24.8063
  28   2.0000      -0.866064       -23.5668
  29   2.0000      -0.857018       -23.3206
  30   2.0000      -0.850595       -23.1459
  31   2.0000      -0.809382       -22.0244
  32   2.0000      -0.786852       -21.4113
  33   2.0000      -0.769212       -20.9313
  34   2.0000      -0.710840       -19.3429
  35   2.0000      -0.698063       -18.9953
  36   2.0000      -0.694970       -18.9111
  37   2.0000      -0.651904       -17.7392
  38   2.0000      -0.638660       -17.3788
  39   2.0000      -0.610608       -16.6155
  40   2.0000      -0.599226       -16.3058
  41   2.0000      -0.577240       -15.7075
  42   2.0000      -0.575906       -15.6712
  43   2.0000      -0.556398       -15.1404
  44   2.0000      -0.537301       -14.6207
  45   2.0000      -0.520008       -14.1501
  46   2.0000      -0.517984       -14.0951
  47   2.0000      -0.509125       -13.8540
  48   2.0000      -0.502421       -13.6716
  49   2.0000      -0.492197       -13.3934
  50   2.0000      -0.484111       -13.1733
  51   2.0000      -0.477475       -12.9928
  52   2.0000      -0.473578       -12.8867
  53   2.0000      -0.467370       -12.7178
  54   2.0000      -0.457933       -12.4610
  55   2.0000      -0.457207       -12.4412
  56   2.0000      -0.442565       -12.0428
  57   2.0000      -0.440361       -11.9828
  58   2.0000      -0.434012       -11.8101
  59   2.0000      -0.427940       -11.6448
  60   2.0000      -0.426893       -11.6164
  61   2.0000      -0.416087       -11.3223
  62   2.0000      -0.409847       -11.1525
  63   2.0000      -0.339719        -9.2442
  64   2.0000      -0.330215        -8.9856
  65   2.0000      -0.315962        -8.5978
  66   2.0000      -0.296482        -8.0677
  67   0.0000       0.041462         1.1282
  68   0.0000       0.051334         1.3969
  69   0.0000       0.112267         3.0549
  70   0.0000       0.117491         3.1971
  71   0.0000       0.129416         3.5216

MULLIKEN ATOMIC CHARGES
-----------------------
   0 S :    0.130516
   1 C :   -0.133498
   2 C :   -0.084514
   3 C :    0.030885
   4 C :   -0.190759
   5 H :    0.017015
   6 C :    0.089684
   7 H :    0.003727
   8 H :    0.044352
   9 C :   -0.066442
  10 H :    0.012058
  11 H :    0.016984
  12 C :   -0.022674
  13 H :    0.031039
  14 H :    0.008035
  15 H :    0.035861
  16 S :    0.134766
  17 C :   -0.072140
  18 C :   -0.050887
  19 C :    0.005117
  20 C :   -0.219325
  21 H :   -0.004860
  22 C :    0.152128
  23 H :    0.014627
  24 H :    0.039173
  25 C :   -0.152697
  26 H :    0.027537
  27 H :    0.020528
  28 C :   -0.034145
  29 H :    0.029953
  30 H :    0.044456
  31 H :    0.052835
  32 H :    0.051704
  33 H :    0.038960
Sum of atomic charges:    0.0000000

LOEWDIN ATOMIC CHARGES
----------------------
   0 S :    0.422396
   1 C :   -0.207738
   2 C :   -0.073476
   3 C :   -0.062233
   4 C :   -0.212019
   5 H :    0.035390
   6 C :   -0.028468
   7 H :    0.024696
   8 H :    0.039240
   9 C :   -0.034276
  10 H :    0.012162
  11 H :    0.025114
  12 C :   -0.056306
  13 H :    0.023398
  14 H :    0.017609
  15 H :    0.027683
  16 S :    0.418381
  17 C :   -0.187311
  18 C :   -0.068555
  19 C :   -0.042642
  20 C :   -0.203720
  21 H :    0.023478
  22 C :   -0.026344
  23 H :    0.025533
  24 H :    0.041929
  25 C :   -0.049701
  26 H :    0.017525
  27 H :    0.020465
  28 C :   -0.064868
  29 H :    0.023064
  30 H :    0.032897
  31 H :    0.038692
  32 H :    0.030647
  33 H :    0.017359

  Mayer bond orders larger than 0.100000
B(  0-S ,  1-C ) :   1.1566 B(  0-S ,  4-C ) :   1.1542 B(  1-C ,  2-C ) :   1.6079
B(  1-C , 32-H ) :   0.9595 B(  2-C ,  3-C ) :   1.2283 B(  2-C ,  6-C ) :   1.0238
B(  3-C ,  4-C ) :   1.5859 B(  3-C ,  5-H ) :   0.9942 B(  4-C , 20-C ) :   1.0212
B(  6-C ,  7-H ) :   0.9423 B(  6-C ,  8-H ) :   0.9291 B(  6-C ,  9-C ) :   1.0765
B(  9-C , 10-H ) :   0.9611 B(  9-C , 11-H ) :   0.9584 B(  9-C , 12-C ) :   1.0716
B( 12-C , 13-H ) :   0.9798 B( 12-C , 14-H ) :   0.9746 B( 12-C , 15-H ) :   0.9773
B( 16-S , 17-C ) :   1.1808 B( 16-S , 20-C ) :   1.1600 B( 17-C , 18-C ) :   1.5685
B( 17-C , 20-C ) :   0.1163 B( 17-C , 33-H ) :   0.9654 B( 18-C , 19-C ) :   1.2797
B( 18-C , 21-H ) :   0.9997 B( 19-C , 20-C ) :   1.5598 B( 19-C , 22-C ) :   1.0328
B( 22-C , 23-H ) :   0.9282 B( 22-C , 24-H ) :   0.9128 B( 22-C , 25-C ) :   1.0817
B( 25-C , 26-H ) :   0.9461 B( 25-C , 27-H ) :   0.9592 B( 25-C , 28-C ) :   1.0821
B( 28-C , 29-H ) :   0.9741 B( 28-C , 30-H ) :   0.9721 B( 28-C , 31-H ) :   0.9750

Dispersion correction           -0.014386796
FINAL SINGLE POINT ENERGY     -1339.859646915539

DIPOLE MOMENT
-------------
                                X             Y             Z
Electronic contribution:    -11.40993      28.63522      -0.31041
Nuclear contribution   :     11.78458     -29.11859       0.41321
                        -----------------------------------------
Total Dipole Moment    :      0.37464      -0.48336       0.10280
                        -----------------------------------------
Magnitude (a.u.)       :      0.62013
Magnitude (Debye)      :      1.57625

Rotational constants in cm-1:     0.017148     0.009422     0.006845
Rotational constants in MHz :   514.090611   282.478653   205.195893

                             ****ORCA TERMINATED NORMALLY****
TOTAL RUN TIME: 0 days 0 hours 0 minutes 22 seconds 114 msec
