                         Program Version 4.2.1 -  RELEASE  -
|  1> ! wB97X-D3 SP def2-SVP
|  2> %pal
|  3> nprocs 24
|  4> end
|  5>
|  6> * xyz 0 1
|  7> S 	 -106.575 	 51.6607 	 -80.6517
|  8> C 	 -107.201 	 52.3995 	 -82.1083
|  9> C 	 -108.564 	 52.7761 	 -82.0326
| 10> C 	 -109.148 	 52.1329 	 -80.8729
| 11> C 	 -108.263 	 51.4861 	 -80.0704
| 12> H 	 -110.204 	 52.1563 	 -80.5612
| 13> C 	 -109.356 	 53.3994 	 -83.1838
| 14> H 	 -109.353 	 54.4428 	 -83.0708
| 15> H 	 -110.397 	 53.0645 	 -83.0313
| 16> C 	 -108.823 	 53.0942 	 -84.6172
| 17> H 	 -107.769 	 53.3612 	 -84.6229
| 18> H 	 -108.895 	 52.0623 	 -84.9271
| 19> C 	 -109.503 	 54.0363 	 -85.6402
| 20> H 	 -109.166 	 53.7395 	 -86.6908
| 21> H 	 -110.6 	 54.0941 	 -85.6079
| 22> H 	 -109.186 	 55.0797 	 -85.5338
| 23> S 	 -109.759 	 51.4369 	 -77.773
| 24> C 	 -109.677 	 50.1015 	 -76.7984
| 25> C 	 -108.96 	 49.0797 	 -77.3511
| 26> C 	 -108.377 	 49.4021 	 -78.6109
| 27> C 	 -108.619 	 50.6941 	 -78.9255
| 28> H 	 -108.911 	 48.1895 	 -76.7938
| 29> C 	 -107.438 	 48.4116 	 -79.3198
| 30> H 	 -107.412 	 47.3981 	 -78.809
| 31> H 	 -106.434 	 48.8862 	 -79.3342
| 32> C 	 -107.924 	 48.1451 	 -80.7469
| 33> H 	 -107.132 	 47.6094 	 -81.2839
| 34> H 	 -108.109 	 49.0792 	 -81.2062
| 35> C 	 -109.238 	 47.3624 	 -80.9536
| 36> H 	 -110.047 	 47.497 	 -80.2544
| 37> H 	 -109.026 	 46.3474 	 -80.7284
| 38> H 	 -109.63 	 47.3457 	 -81.9731
| 39> H 	 -106.499 	 52.6424 	 -82.8599
| 40> H 	 -110.064 	 50.0245 	 -75.8173
| 41> *
| 42>
| 43>                          ****END OF INPUT****

CARTESIAN COORDINATES (ANGSTROEM)
---------------------------------
  S    -106.575000   51.660700  -80.651700
  C    -107.201000   52.399500  -82.108300
  C    -108.564000   52.776100  -82.032600
  C    -109.148000   52.132900  -80.872900
  C    -108.263000   51.486100  -80.070400
  H    -110.204000   52.156300  -80.561200
  C    -109.356000   53.399400  -83.183800
  H    -109.353000   54.442800  -83.070800
  H    -110.397000   53.064500  -83.031300
  C    -108.823000   53.094200  -84.617200
  H    -107.769000   53.361200  -84.622900
  H    -108.895000   52.062300  -84.927100
  C    -109.503000   54.036300  -85.640200
  H    -109.166000   53.739500  -86.690800
  H    -110.600000   54.094100  -85.607900
  H    -109.186000   55.079700  -85.533800
  S    -109.759000   51.436900  -77.773000
  C    -109.677000   50.101500  -76.798400
  C    -108.960000   49.079700  -77.351100
  C    -108.377000   49.402100  -78.610900
  C    -108.619000   50.694100  -78.925500
  H    -108.911000   48.189500  -76.793800
  C    -107.438000   48.411600  -79.319800
  H    -107.412000   47.398100  -78.809000
  H    -106.434000   48.886200  -79.334200
  C    -107.924000   48.145100  -80.746900
  H    -107.132000   47.609400  -81.283900
  H    -108.109000   49.079200  -81.206200
  C    -109.238000   47.362400  -80.953600
  H    -110.047000   47.497000  -80.254400
  H    -109.026000   46.347400  -80.728400
  H    -109.630000   47.345700  -81.973100
  H    -106.499000   52.642400  -82.859900
  H    -110.064000   50.024500  -75.817300

 Total Charge           Charge          ....    0
 Multiplicity           Mult            ....    1
 Number of Electrons    NEL             ....  134
 Basis Dimension        Dim             ....  322

ORBITAL ENERGIES
----------------

  NO   OCC          E(Eh)            E(eV)
   0   2.0000     -88.965839     -2420.8836
   1   2.0000     -88.961981     -2420.7786
   2   2.0000     -10.325083      -280.9598
   3   2.0000     -10.318899      -280.7915
   4   2.0000     -10.314205      -280.6638
   5   2.0000     -10.308276      -280.5025
   6   2.0000     -10.303931      -280.3842
   7   2.0000     -10.299534      -280.2646
   8   2.0000     -10.298913      -280.2477
   9   2.0000     -10.294795      -280.1356
  10   2.0000     -10.294286      -280.1218
  11   2.0000     -10.292063      -280.0613
  12   2.0000     -10.286698      -279.9153
  13   2.0000     -10.282386      -279.7979
  14   2.0000     -10.276408      -279.6353
  15   2.0000     -10.266528      -279.3664
  16   2.0000      -8.079805      -219.8627
  17   2.0000      -8.078401      -219.8245
  18   2.0000      -6.038285      -164.3101
  19   2.0000      -6.036671      -164.2662
  20   2.0000      -6.034641      -164.2109
  21   2.0000      -6.032734      -164.1590
  22   2.0000      -6.030444      -164.0967
  23   2.0000      -6.029250      -164.0642
  24   2.0000      -1.012075       -27.5400
  25   2.0000      -0.983119       -26.7520
  26   2.0000      -0.910389       -24.7729
  27   2.0000      -0.905484       -24.6395
  28   2.0000      -0.869882       -23.6707
  29   2.0000      -0.851913       -23.1817
  30   2.0000      -0.846249       -23.0276
  31   2.0000      -0.810195       -22.0465
  32   2.0000      -0.785397       -21.3717
  33   2.0000      -0.769331       -20.9346
  34   2.0000      -0.711865       -19.3708
  35   2.0000      -0.703382       -19.1400
  36   2.0000      -0.684981       -18.6393
  37   2.0000      -0.667731       -18.1699
  38   2.0000      -0.640545       -17.4301
  39   2.0000      -0.612344       -16.6627
  40   2.0000      -0.594722       -16.1832
  41   2.0000      -0.568190       -15.4612
  42   2.0000      -0.562313       -15.3013
  43   2.0000      -0.551065       -14.9953
  44   2.0000      -0.544287       -14.8108
  45   2.0000      -0.519752       -14.1432
  46   2.0000      -0.515320       -14.0226
  47   2.0000      -0.511135       -13.9087
  48   2.0000      -0.502660       -13.6781
  49   2.0000      -0.499420       -13.5899
  50   2.0000      -0.482400       -13.1268
  51   2.0000      -0.476255       -12.9596
  52   2.0000      -0.472394       -12.8545
  53   2.0000      -0.468360       -12.7447
  54   2.0000      -0.459709       -12.5093
  55   2.0000      -0.452941       -12.3251
  56   2.0000      -0.445796       -12.1307
  57   2.0000      -0.435212       -11.8427
  58   2.0000      -0.432036       -11.7563
  59   2.0000      -0.425735       -11.5848
  60   2.0000      -0.424451       -11.5499
  61   2.0000      -0.411802       -11.2057
  62   2.0000      -0.407851       -11.0982
  63   2.0000      -0.349263        -9.5039
  64   2.0000      -0.332721        -9.0538
  65   2.0000      -0.327621        -8.9150
  66   2.0000      -0.288621        -7.8538
  67   0.0000       0.031355         0.8532
  68   0.0000       0.072625         1.9762
  69   0.0000       0.101721         2.7680
  70   0.0000       0.113992         3.1019
  71   0.0000       0.135107         3.6764

MULLIKEN ATOMIC CHARGES
-----------------------
   0 S :    0.106685
   1 C :   -0.145590
   2 C :   -0.048566
   3 C :   -0.013215
   4 C :   -0.158462
   5 H :    0.027557
   6 C :    0.084503
   7 H :    0.022163
   8 H :    0.030138
   9 C :   -0.073360
  10 H :    0.032315
  11 H :    0.042811
  12 C :   -0.086825
  13 H :    0.040886
  14 H :    0.038006
  15 H :    0.030761
  16 S :    0.115635
  17 C :   -0.062920
  18 C :   -0.043446
  19 C :   -0.005895
  20 C :   -0.176286
  21 H :   -0.006610
  22 C :    0.062845
  23 H :    0.030770
  24 H :    0.050538
  25 C :   -0.065143
  26 H :    0.028753
  27 H :    0.038589
  28 C :   -0.040561
  29 H :    0.024773
  30 H :    0.000212
  31 H :    0.039144
  32 H :    0.040265
  33 H :    0.039529
Sum of atomic charges:    0.0000000

LOEWDIN ATOMIC CHARGES
----------------------
   0 S :    0.384530
   1 C :   -0.189625
   2 C :   -0.055472
   3 C :   -0.067896
   4 C :   -0.182294
   5 H :    0.033419
   6 C :   -0.027171
   7 H :    0.026917
   8 H :    0.033406
   9 C :   -0.033803
  10 H :    0.025225
  11 H :    0.025336
  12 C :   -0.073710
  13 H :    0.033250
  14 H :    0.024023
  15 H :    0.024016
  16 S :    0.430889
  17 C :   -0.203390
  18 C :   -0.073813
  19 C :   -0.050838
  20 C :   -0.190982
  21 H :    0.022166
  22 C :   -0.028110
  23 H :    0.035094
  24 H :    0.036558
  25 C :   -0.039388
  26 H :    0.025908
  27 H :    0.017593
  28 C :   -0.070213
  29 H :    0.024034
  30 H :    0.016723
  31 H :    0.030471
  32 H :    0.012669
  33 H :    0.024477

  Mayer bond orders larger than 0.100000
B(  0-S ,  1-C ) :   1.1423 B(  0-S ,  4-C ) :   1.1188 B(  1-C ,  2-C ) :   1.6027
B(  1-C , 32-H ) :   0.9718 B(  2-C ,  3-C ) :   1.2171 B(  2-C ,  6-C ) :   1.0191
B(  3-C ,  4-C ) :   1.6299 B(  3-C ,  5-H ) :   0.9803 B(  4-C , 20-C ) :   1.0424
B(  6-C ,  7-H ) :   0.9259 B(  6-C ,  8-H ) :   0.9476 B(  6-C ,  9-C ) :   1.0733
B(  9-C , 10-H ) :   0.9478 B(  9-C , 11-H ) :   0.9634 B(  9-C , 12-C ) :   1.0761
B( 12-C , 13-H ) :   0.9744 B( 12-C , 14-H ) :   0.9779 B( 12-C , 15-H ) :   0.9755
B( 16-S , 17-C ) :   1.1753 B( 16-S , 20-C ) :   1.1332 B( 17-C , 18-C ) :   1.6144
B( 17-C , 33-H ) :   0.9672 B( 18-C , 19-C ) :   1.2180 B( 18-C , 21-H ) :   1.0025
B( 19-C , 20-C ) :   1.6009 B( 19-C , 22-C ) :   1.0264 B( 22-C , 23-H ) :   0.9431
B( 22-C , 24-H ) :   0.9359 B( 22-C , 25-C ) :   1.0644 B( 25-C , 26-H ) :   0.9555
B( 25-C , 27-H ) :   0.9610 B( 25-C , 28-C ) :   1.0666 B( 28-C , 29-H ) :   0.9755
B( 28-C , 30-H ) :   0.9699 B( 28-C , 31-H ) :   0.9759

Dispersion correction           -0.014720264
FINAL SINGLE POINT ENERGY     -1339.875907851473

DIPOLE MOMENT
-------------
                                X             Y             Z
Electronic contribution:      4.70841       5.38339      22.89524
Nuclear contribution   :     -4.84450      -5.53774     -23.19020
                        -----------------------------------------
Total Dipole Moment    :     -0.13609      -0.15435      -0.29496
                        -----------------------------------------
Magnitude (a.u.)       :      0.35965
Magnitude (Debye)      :      0.91415

Rotational constants in cm-1:     0.022072     0.007758     0.006994
Rotational constants in MHz :   661.706056   232.581782   209.686358

                             ****ORCA TERMINATED NORMALLY****
TOTAL RUN TIME: 0 days 0 hours 0 minutes 21 seconds 906 msec
