                         Program Version 4.2.1 -  RELEASE  -
|  1> ! wB97X-D3 SP def2-SVP
|  2> %pal
|  3> nprocs 24
|  4> end
|  5>
|  6> * xyz 0 1
|  7> S 	 -61.058 	 8.68931 	 -96.2836
|  8> C 	 -61.0071 	 10.2922 	 -95.7156
|  9> C 	 -60.8635 	 11.2125 	 -96.7334
| 10> C 	 -60.621 	 10.5649 	 -97.9629
| 11> C 	 -60.6698 	 9.16523 	 -97.8973
| 12> H 	 -60.5695 	 11.107 	 -98.9095
| 13> C 	 -60.815 	 12.7544 	 -96.5455
| 14> H 	 -60.4648 	 12.8344 	 -95.4718
| 15> H 	 -61.8052 	 13.275 	 -96.6898
| 16> C 	 -59.6921 	 13.4931 	 -97.2477
| 17> H 	 -59.8907 	 13.6935 	 -98.3169
| 18> H 	 -59.6222 	 14.5515 	 -96.9428
| 19> C 	 -58.2675 	 12.7689 	 -97.0221
| 20> H 	 -58.1205 	 11.8095 	 -97.5839
| 21> H 	 -57.5291 	 13.4244 	 -97.4221
| 22> H 	 -57.8698 	 12.6186 	 -96.0249
| 23> S 	 -58.7414 	 8.12913 	 -99.5897
| 24> C 	 -59.2069 	 6.90004 	 -100.81
| 25> C 	 -60.4439 	 6.44635 	 -100.442
| 26> C 	 -61.0913 	 7.17376 	 -99.3727
| 27> C 	 -60.3142 	 8.19174 	 -98.8874
| 28> H 	 -60.7817 	 5.51838 	 -100.917
| 29> C 	 -62.5314 	 6.93891 	 -98.9788
| 30> H 	 -62.5695 	 7.0308 	 -97.8815
| 31> H 	 -62.9919 	 5.93589 	 -99.2554
| 32> C 	 -63.4458 	 8.07891 	 -99.4752
| 33> H 	 -63.485 	 8.18813 	 -100.598
| 34> H 	 -63.0619 	 9.01183 	 -99.1069
| 35> C 	 -64.9114 	 7.99662 	 -98.994
| 36> H 	 -65.4246 	 7.08285 	 -99.4042
| 37> H 	 -65.4308 	 8.68256 	 -99.5699
| 38> H 	 -65.0884 	 7.9238 	 -97.8874
| 39> H 	 -61.1602 	 10.5992 	 -94.679
| 40> H 	 -58.5972 	 6.59055 	 -101.724
| 41> *
| 42>
| 43>                          ****END OF INPUT****

CARTESIAN COORDINATES (ANGSTROEM)
---------------------------------
  S    -61.058000    8.689310  -96.283600
  C    -61.007100   10.292200  -95.715600
  C    -60.863500   11.212500  -96.733400
  C    -60.621000   10.564900  -97.962900
  C    -60.669800    9.165230  -97.897300
  H    -60.569500   11.107000  -98.909500
  C    -60.815000   12.754400  -96.545500
  H    -60.464800   12.834400  -95.471800
  H    -61.805200   13.275000  -96.689800
  C    -59.692100   13.493100  -97.247700
  H    -59.890700   13.693500  -98.316900
  H    -59.622200   14.551500  -96.942800
  C    -58.267500   12.768900  -97.022100
  H    -58.120500   11.809500  -97.583900
  H    -57.529100   13.424400  -97.422100
  H    -57.869800   12.618600  -96.024900
  S    -58.741400    8.129130  -99.589700
  C    -59.206900    6.900040  -100.810000
  C    -60.443900    6.446350  -100.442000
  C    -61.091300    7.173760  -99.372700
  C    -60.314200    8.191740  -98.887400
  H    -60.781700    5.518380  -100.917000
  C    -62.531400    6.938910  -98.978800
  H    -62.569500    7.030800  -97.881500
  H    -62.991900    5.935890  -99.255400
  C    -63.445800    8.078910  -99.475200
  H    -63.485000    8.188130  -100.598000
  H    -63.061900    9.011830  -99.106900
  C    -64.911400    7.996620  -98.994000
  H    -65.424600    7.082850  -99.404200
  H    -65.430800    8.682560  -99.569900
  H    -65.088400    7.923800  -97.887400
  H    -61.160200   10.599200  -94.679000
  H    -58.597200    6.590550  -101.724000

 Total Charge           Charge          ....    0
 Multiplicity           Mult            ....    1
 Number of Electrons    NEL             ....  134
 Basis Dimension        Dim             ....  322

ORBITAL ENERGIES
----------------

  NO   OCC          E(Eh)            E(eV)
   0   2.0000     -88.969873     -2420.9933
   1   2.0000     -88.961252     -2420.7587
   2   2.0000     -10.327498      -281.0255
   3   2.0000     -10.323820      -280.9254
   4   2.0000     -10.320398      -280.8323
   5   2.0000     -10.313046      -280.6322
   6   2.0000     -10.303243      -280.3655
   7   2.0000     -10.300721      -280.2969
   8   2.0000     -10.299758      -280.2707
   9   2.0000     -10.297282      -280.2033
  10   2.0000     -10.295701      -280.1603
  11   2.0000     -10.294091      -280.1165
  12   2.0000     -10.293982      -280.1135
  13   2.0000     -10.283058      -279.8162
  14   2.0000     -10.278506      -279.6924
  15   2.0000     -10.274071      -279.5717
  16   2.0000      -8.085425      -220.0156
  17   2.0000      -8.075845      -219.7549
  18   2.0000      -6.043749      -164.4588
  19   2.0000      -6.039700      -164.3486
  20   2.0000      -6.036454      -164.2603
  21   2.0000      -6.034453      -164.2058
  22   2.0000      -6.030415      -164.0959
  23   2.0000      -6.026423      -163.9873
  24   2.0000      -1.013915       -27.5900
  25   2.0000      -0.988010       -26.8851
  26   2.0000      -0.907490       -24.6940
  27   2.0000      -0.901428       -24.5291
  28   2.0000      -0.871134       -23.7047
  29   2.0000      -0.845891       -23.0179
  30   2.0000      -0.840454       -22.8699
  31   2.0000      -0.814033       -22.1510
  32   2.0000      -0.782216       -21.2852
  33   2.0000      -0.768714       -20.9178
  34   2.0000      -0.712164       -19.3790
  35   2.0000      -0.696126       -18.9425
  36   2.0000      -0.684036       -18.6136
  37   2.0000      -0.659794       -17.9539
  38   2.0000      -0.638271       -17.3682
  39   2.0000      -0.619285       -16.8516
  40   2.0000      -0.590698       -16.0737
  41   2.0000      -0.564495       -15.3607
  42   2.0000      -0.560211       -15.2441
  43   2.0000      -0.554598       -15.0914
  44   2.0000      -0.532060       -14.4781
  45   2.0000      -0.524623       -14.2757
  46   2.0000      -0.515591       -14.0299
  47   2.0000      -0.507140       -13.8000
  48   2.0000      -0.505103       -13.7446
  49   2.0000      -0.493742       -13.4354
  50   2.0000      -0.488159       -13.2835
  51   2.0000      -0.479391       -13.0449
  52   2.0000      -0.466358       -12.6902
  53   2.0000      -0.461628       -12.5615
  54   2.0000      -0.455748       -12.4015
  55   2.0000      -0.449877       -12.2418
  56   2.0000      -0.438212       -11.9243
  57   2.0000      -0.435096       -11.8396
  58   2.0000      -0.430274       -11.7084
  59   2.0000      -0.426115       -11.5952
  60   2.0000      -0.415840       -11.3156
  61   2.0000      -0.407519       -11.0892
  62   2.0000      -0.406343       -11.0571
  63   2.0000      -0.338685        -9.2161
  64   2.0000      -0.336155        -9.1473
  65   2.0000      -0.325526        -8.8580
  66   2.0000      -0.296308        -8.0629
  67   0.0000       0.029918         0.8141
  68   0.0000       0.068508         1.8642
  69   0.0000       0.111785         3.0418
  70   0.0000       0.115426         3.1409
  71   0.0000       0.135901         3.6980

MULLIKEN ATOMIC CHARGES
-----------------------
   0 S :    0.138348
   1 C :   -0.125125
   2 C :   -0.099462
   3 C :    0.036380
   4 C :   -0.212590
   5 H :    0.022586
   6 C :    0.057675
   7 H :    0.030296
   8 H :    0.060230
   9 C :   -0.095584
  10 H :    0.028268
  11 H :    0.032761
  12 C :   -0.067126
  13 H :    0.051521
  14 H :    0.018232
  15 H :    0.033070
  16 S :    0.106141
  17 C :   -0.140068
  18 C :   -0.033707
  19 C :   -0.019927
  20 C :   -0.126756
  21 H :    0.027007
  22 C :    0.072461
  23 H :    0.014879
  24 H :    0.035266
  25 C :   -0.098540
  26 H :    0.032374
  27 H :    0.033857
  28 C :   -0.028484
  29 H :    0.010603
  30 H :    0.014313
  31 H :    0.050157
  32 H :    0.049193
  33 H :    0.091751
Sum of atomic charges:    0.0000000

LOEWDIN ATOMIC CHARGES
----------------------
   0 S :    0.453983
   1 C :   -0.209248
   2 C :   -0.071712
   3 C :   -0.056217
   4 C :   -0.207525
   5 H :    0.035467
   6 C :   -0.040079
   7 H :    0.038586
   8 H :    0.038787
   9 C :   -0.048689
  10 H :    0.022987
  11 H :    0.029975
  12 C :   -0.074389
  13 H :    0.034501
  14 H :    0.021564
  15 H :    0.025616
  16 S :    0.396291
  17 C :   -0.188513
  18 C :   -0.074375
  19 C :   -0.062029
  20 C :   -0.212805
  21 H :    0.034262
  22 C :   -0.040028
  23 H :    0.021975
  24 H :    0.035878
  25 C :   -0.040037
  26 H :    0.028587
  27 H :    0.020919
  28 C :   -0.072632
  29 H :    0.025349
  30 H :    0.018394
  31 H :    0.032390
  32 H :    0.031039
  33 H :    0.051728

  Mayer bond orders larger than 0.100000
B(  0-S ,  1-C ) :   1.1747 B(  0-S ,  4-C ) :   1.1754 B(  1-C ,  2-C ) :   1.5892
B(  1-C ,  4-C ) :   0.1028 B(  1-C , 32-H ) :   0.9616 B(  2-C ,  3-C ) :   1.2862
B(  2-C ,  6-C ) :   0.9982 B(  3-C ,  4-C ) :   1.5261 B(  3-C ,  5-H ) :   0.9961
B(  4-C , 20-C ) :   1.0470 B(  6-C ,  7-H ) :   0.9485 B(  6-C ,  8-H ) :   0.9411
B(  6-C ,  9-C ) :   1.0759 B(  9-C , 10-H ) :   0.9494 B(  9-C , 11-H ) :   0.9571
B(  9-C , 12-C ) :   1.0615 B( 12-C , 13-H ) :   0.9724 B( 12-C , 14-H ) :   0.9732
B( 12-C , 15-H ) :   0.9785 B( 16-S , 17-C ) :   1.1352 B( 16-S , 20-C ) :   1.1412
B( 17-C , 18-C ) :   1.6211 B( 17-C , 33-H ) :   0.9598 B( 18-C , 19-C ) :   1.2372
B( 18-C , 21-H ) :   0.9869 B( 19-C , 20-C ) :   1.5729 B( 19-C , 22-C ) :   1.0575
B( 22-C , 23-H ) :   0.9159 B( 22-C , 24-H ) :   0.9432 B( 22-C , 25-C ) :   1.0629
B( 25-C , 26-H ) :   0.9541 B( 25-C , 27-H ) :   0.9520 B( 25-C , 28-C ) :   1.0885
B( 28-C , 29-H ) :   0.9682 B( 28-C , 30-H ) :   0.9693 B( 28-C , 31-H ) :   0.9736

Dispersion correction           -0.015323507
FINAL SINGLE POINT ENERGY     -1339.866176904972

DIPOLE MOMENT
-------------
                                X             Y             Z
Electronic contribution:     10.28848     -12.98854       0.68033
Nuclear contribution   :    -10.52684      13.31644      -0.79643
                        -----------------------------------------
Total Dipole Moment    :     -0.23835       0.32790      -0.11611
                        -----------------------------------------
Magnitude (a.u.)       :      0.42168
Magnitude (Debye)      :      1.07182

Rotational constants in cm-1:     0.018665     0.009659     0.007555
Rotational constants in MHz :   559.556901   289.581009   226.479966

                             ****ORCA TERMINATED NORMALLY****
TOTAL RUN TIME: 0 days 0 hours 0 minutes 21 seconds 128 msec
