                         Program Version 4.2.1 -  RELEASE  -
|  1> ! wB97X-D3 SP def2-SVP
|  2> %pal
|  3> nprocs 24
|  4> end
|  5>
|  6> * xyz 0 1
|  7> S 	 -112.335 	 59.3448 	 -22.508
|  8> C 	 -111.94 	 61.0663 	 -22.2625
|  9> C 	 -112.841 	 61.9116 	 -22.9027
| 10> C 	 -113.836 	 61.2351 	 -23.6565
| 11> C 	 -113.722 	 59.8478 	 -23.4972
| 12> H 	 -114.751 	 61.5586 	 -24.1087
| 13> C 	 -112.842 	 63.479 	 -22.7982
| 14> H 	 -113.298 	 63.6687 	 -21.8404
| 15> H 	 -113.352 	 63.8513 	 -23.6648
| 16> C 	 -111.467 	 64.1225 	 -22.8065
| 17> H 	 -110.91 	 64.0607 	 -21.8808
| 18> H 	 -111.02 	 63.6998 	 -23.7049
| 19> C 	 -111.71 	 65.6597 	 -22.9686
| 20> H 	 -110.821 	 66.2735 	 -22.991
| 21> H 	 -112.236 	 65.8352 	 -23.9056
| 22> H 	 -112.299 	 66.1136 	 -22.1236
| 23> S 	 -114.968 	 57.4235 	 -22.9766
| 24> C 	 -116.082 	 56.6981 	 -24.0936
| 25> C 	 -116.36 	 57.6142 	 -25.1081
| 26> C 	 -115.43 	 58.7094 	 -25.1428
| 27> C 	 -114.611 	 58.7913 	 -24.0105
| 28> H 	 -116.919 	 57.399 	 -25.9965
| 29> C 	 -115.32 	 59.7576 	 -26.2454
| 30> H 	 -115.388 	 59.1422 	 -27.138
| 31> H 	 -114.334 	 60.1697 	 -26.2538
| 32> C 	 -116.451 	 60.8306 	 -26.2948
| 33> H 	 -116.506 	 61.3328 	 -25.3364
| 34> H 	 -117.423 	 60.3372 	 -26.4472
| 35> C 	 -116.378 	 61.8067 	 -27.4676
| 36> H 	 -117.059 	 62.589 	 -27.2288
| 37> H 	 -116.606 	 61.235 	 -28.288
| 38> H 	 -115.369 	 62.0619 	 -27.6168
| 39> H 	 -110.943 	 61.3825 	 -21.7742
| 40> H 	 -116.518 	 55.7222 	 -23.9844
| 41> *
| 42>
| 43>                          ****END OF INPUT****

CARTESIAN COORDINATES (ANGSTROEM)
---------------------------------
  S    -112.335000   59.344800  -22.508000
  C    -111.940000   61.066300  -22.262500
  C    -112.841000   61.911600  -22.902700
  C    -113.836000   61.235100  -23.656500
  C    -113.722000   59.847800  -23.497200
  H    -114.751000   61.558600  -24.108700
  C    -112.842000   63.479000  -22.798200
  H    -113.298000   63.668700  -21.840400
  H    -113.352000   63.851300  -23.664800
  C    -111.467000   64.122500  -22.806500
  H    -110.910000   64.060700  -21.880800
  H    -111.020000   63.699800  -23.704900
  C    -111.710000   65.659700  -22.968600
  H    -110.821000   66.273500  -22.991000
  H    -112.236000   65.835200  -23.905600
  H    -112.299000   66.113600  -22.123600
  S    -114.968000   57.423500  -22.976600
  C    -116.082000   56.698100  -24.093600
  C    -116.360000   57.614200  -25.108100
  C    -115.430000   58.709400  -25.142800
  C    -114.611000   58.791300  -24.010500
  H    -116.919000   57.399000  -25.996500
  C    -115.320000   59.757600  -26.245400
  H    -115.388000   59.142200  -27.138000
  H    -114.334000   60.169700  -26.253800
  C    -116.451000   60.830600  -26.294800
  H    -116.506000   61.332800  -25.336400
  H    -117.423000   60.337200  -26.447200
  C    -116.378000   61.806700  -27.467600
  H    -117.059000   62.589000  -27.228800
  H    -116.606000   61.235000  -28.288000
  H    -115.369000   62.061900  -27.616800
  H    -110.943000   61.382500  -21.774200
  H    -116.518000   55.722200  -23.984400

 Total Charge           Charge          ....    0
 Multiplicity           Mult            ....    1
 Number of Electrons    NEL             ....  134
 Basis Dimension        Dim             ....  322

ORBITAL ENERGIES
----------------

  NO   OCC          E(Eh)            E(eV)
   0   2.0000     -88.969058     -2420.9712
   1   2.0000     -88.963405     -2420.8173
   2   2.0000     -10.336100      -281.2596
   3   2.0000     -10.325645      -280.9751
   4   2.0000     -10.322331      -280.8849
   5   2.0000     -10.320658      -280.8394
   6   2.0000     -10.306602      -280.4569
   7   2.0000     -10.302689      -280.3504
   8   2.0000     -10.296922      -280.1935
   9   2.0000     -10.295773      -280.1622
  10   2.0000     -10.292099      -280.0623
  11   2.0000     -10.289526      -279.9922
  12   2.0000     -10.288317      -279.9593
  13   2.0000     -10.286848      -279.9194
  14   2.0000     -10.281716      -279.7797
  15   2.0000     -10.266555      -279.3672
  16   2.0000      -8.082737      -219.9425
  17   2.0000      -8.078386      -219.8241
  18   2.0000      -6.041170      -164.3886
  19   2.0000      -6.037498      -164.2887
  20   2.0000      -6.036873      -164.2717
  21   2.0000      -6.033537      -164.1809
  22   2.0000      -6.032704      -164.1582
  23   2.0000      -6.029297      -164.0655
  24   2.0000      -1.003019       -27.2935
  25   2.0000      -0.979206       -26.6455
  26   2.0000      -0.912987       -24.8436
  27   2.0000      -0.909924       -24.7603
  28   2.0000      -0.865151       -23.5420
  29   2.0000      -0.857249       -23.3269
  30   2.0000      -0.845762       -23.0144
  31   2.0000      -0.810725       -22.0609
  32   2.0000      -0.782050       -21.2807
  33   2.0000      -0.768419       -20.9097
  34   2.0000      -0.704925       -19.1820
  35   2.0000      -0.702074       -19.1044
  36   2.0000      -0.691303       -18.8113
  37   2.0000      -0.665552       -18.1106
  38   2.0000      -0.636345       -17.3158
  39   2.0000      -0.611496       -16.6396
  40   2.0000      -0.595210       -16.1965
  41   2.0000      -0.589878       -16.0514
  42   2.0000      -0.568710       -15.4754
  43   2.0000      -0.559698       -15.2302
  44   2.0000      -0.542452       -14.7609
  45   2.0000      -0.519057       -14.1243
  46   2.0000      -0.517427       -14.0799
  47   2.0000      -0.510405       -13.8888
  48   2.0000      -0.508684       -13.8420
  49   2.0000      -0.492151       -13.3921
  50   2.0000      -0.487768       -13.2728
  51   2.0000      -0.481932       -13.1140
  52   2.0000      -0.477103       -12.9826
  53   2.0000      -0.462135       -12.5753
  54   2.0000      -0.457971       -12.4620
  55   2.0000      -0.449110       -12.2209
  56   2.0000      -0.443903       -12.0792
  57   2.0000      -0.440337       -11.9822
  58   2.0000      -0.437218       -11.8973
  59   2.0000      -0.426154       -11.5963
  60   2.0000      -0.422069       -11.4851
  61   2.0000      -0.414654       -11.2833
  62   2.0000      -0.409754       -11.1500
  63   2.0000      -0.352375        -9.5886
  64   2.0000      -0.336017        -9.1435
  65   2.0000      -0.327816        -8.9203
  66   2.0000      -0.284104        -7.7309
  67   0.0000       0.019918         0.5420
  68   0.0000       0.074723         2.0333
  69   0.0000       0.103125         2.8062
  70   0.0000       0.121707         3.3118
  71   0.0000       0.132980         3.6186

MULLIKEN ATOMIC CHARGES
-----------------------
   0 S :    0.103888
   1 C :   -0.163131
   2 C :   -0.080053
   3 C :    0.034785
   4 C :   -0.151581
   5 H :   -0.005605
   6 C :    0.085249
   7 H :    0.044657
   8 H :    0.020421
   9 C :   -0.086473
  10 H :    0.040096
  11 H :    0.040746
  12 C :   -0.068786
  13 H :    0.029856
  14 H :    0.026413
  15 H :    0.034997
  16 S :    0.096317
  17 C :   -0.093505
  18 C :    0.003232
  19 C :   -0.104467
  20 C :   -0.116131
  21 H :    0.015737
  22 C :    0.056676
  23 H :    0.012960
  24 H :    0.027719
  25 C :   -0.111996
  26 H :    0.028394
  27 H :    0.022908
  28 C :    0.050670
  29 H :    0.041112
  30 H :    0.006168
  31 H :    0.009373
  32 H :    0.085256
  33 H :    0.064099
Sum of atomic charges:    0.0000000

LOEWDIN ATOMIC CHARGES
----------------------
   0 S :    0.384297
   1 C :   -0.209938
   2 C :   -0.061345
   3 C :   -0.066678
   4 C :   -0.170024
   5 H :    0.031066
   6 C :   -0.020627
   7 H :    0.034647
   8 H :    0.026870
   9 C :   -0.039575
  10 H :    0.024425
  11 H :    0.028607
  12 C :   -0.069253
  13 H :    0.021101
  14 H :    0.021131
  15 H :    0.030177
  16 S :    0.409220
  17 C :   -0.182697
  18 C :   -0.072641
  19 C :   -0.059280
  20 C :   -0.205950
  21 H :    0.026970
  22 C :   -0.033216
  23 H :    0.028697
  24 H :    0.026761
  25 C :   -0.037083
  26 H :    0.013791
  27 H :    0.025382
  28 C :   -0.045859
  29 H :    0.029704
  30 H :    0.016365
  31 H :    0.018527
  32 H :    0.045772
  33 H :    0.030658

  Mayer bond orders larger than 0.100000
B(  0-S ,  1-C ) :   1.1197 B(  0-S ,  4-C ) :   1.1590 B(  1-C ,  2-C ) :   1.6216
B(  1-C ,  4-C ) :   0.1013 B(  1-C , 32-H ) :   0.9555 B(  2-C ,  3-C ) :   1.2369
B(  2-C ,  6-C ) :   0.9997 B(  3-C ,  4-C ) :   1.5665 B(  3-C ,  5-H ) :   0.9891
B(  4-C , 20-C ) :   1.0436 B(  6-C ,  7-H ) :   0.9326 B(  6-C ,  8-H ) :   0.9509
B(  6-C ,  9-C ) :   1.0754 B(  9-C , 10-H ) :   0.9492 B(  9-C , 11-H ) :   0.9628
B(  9-C , 12-C ) :   1.0831 B( 12-C , 13-H ) :   0.9754 B( 12-C , 14-H ) :   0.9759
B( 12-C , 15-H ) :   0.9738 B( 16-S , 17-C ) :   1.1697 B( 16-S , 20-C ) :   1.1366
B( 17-C , 18-C ) :   1.5645 B( 17-C , 20-C ) :   0.1014 B( 17-C , 33-H ) :   0.9733
B( 18-C , 19-C ) :   1.2840 B( 18-C , 21-H ) :   0.9808 B( 19-C , 20-C ) :   1.5734
B( 19-C , 22-C ) :   1.0452 B( 22-C , 23-H ) :   0.9260 B( 22-C , 24-H ) :   0.9377
B( 22-C , 25-C ) :   1.0594 B( 25-C , 26-H ) :   0.9574 B( 25-C , 27-H ) :   0.9534
B( 25-C , 28-C ) :   1.0718 B( 28-C , 29-H ) :   0.9737 B( 28-C , 30-H ) :   0.9736
B( 28-C , 31-H ) :   0.9728

Dispersion correction           -0.013744543
FINAL SINGLE POINT ENERGY     -1339.865972887039

DIPOLE MOMENT
-------------
                                X             Y             Z
Electronic contribution:      2.19641     -28.93782      13.16421
Nuclear contribution   :     -2.37427      29.46207     -13.55736
                        -----------------------------------------
Total Dipole Moment    :     -0.17786       0.52425      -0.39315
                        -----------------------------------------
Magnitude (a.u.)       :      0.67900
Magnitude (Debye)      :      1.72587

Rotational constants in cm-1:     0.018546     0.008412     0.006013
Rotational constants in MHz :   556.001107   252.181803   180.264920

                             ****ORCA TERMINATED NORMALLY****
TOTAL RUN TIME: 0 days 0 hours 0 minutes 20 seconds 228 msec
