                         Program Version 4.2.1 -  RELEASE  -
|  1> ! wB97X-D3 SP def2-SVP
|  2> %pal
|  3> nprocs 24
|  4> end
|  5>
|  6> * xyz 0 1
|  7> S 	 -107.59 	 43.039 	 -6.18902
|  8> C 	 -108.895 	 43.3366 	 -5.06494
|  9> C 	 -109.579 	 44.4368 	 -5.36203
| 10> C 	 -109.136 	 45.063 	 -6.56183
| 11> C 	 -108.162 	 44.343 	 -7.17944
| 12> H 	 -109.527 	 45.9637 	 -7.06042
| 13> C 	 -110.781 	 45.081 	 -4.64453
| 14> H 	 -111.187 	 44.2145 	 -4.10962
| 15> H 	 -111.534 	 45.407 	 -5.3349
| 16> C 	 -110.593 	 46.1701 	 -3.52532
| 17> H 	 -111.597 	 46.4866 	 -3.15263
| 18> H 	 -110.093 	 45.8098 	 -2.68914
| 19> C 	 -109.757 	 47.3949 	 -3.89794
| 20> H 	 -108.9 	 47.1736 	 -4.50317
| 21> H 	 -110.308 	 48.0468 	 -4.57822
| 22> H 	 -109.262 	 47.8214 	 -3.00357
| 23> S 	 -107.716 	 43.643 	 -9.75745
| 24> C 	 -107.208 	 44.8185 	 -10.9557
| 25> C 	 -106.866 	 46.0147 	 -10.3302
| 26> C 	 -107.191 	 45.9823 	 -8.91573
| 27> C 	 -107.602 	 44.7374 	 -8.4819
| 28> H 	 -106.449 	 46.8173 	 -11.0007
| 29> C 	 -106.952 	 47.1371 	 -8.01948
| 30> H 	 -105.875 	 47.3574 	 -8.03493
| 31> H 	 -107.023 	 46.8038 	 -6.98628
| 32> C 	 -107.804 	 48.4045 	 -8.18756
| 33> H 	 -107.843 	 48.8959 	 -7.24235
| 34> H 	 -108.861 	 48.1597 	 -8.56566
| 35> C 	 -107.156 	 49.3754 	 -9.20041
| 36> H 	 -107.552 	 50.3452 	 -9.30724
| 37> H 	 -107.172 	 48.8301 	 -10.1251
| 38> H 	 -106.034 	 49.4859 	 -8.95113
| 39> H 	 -109.028 	 42.6402 	 -4.2481
| 40> H 	 -107.398 	 44.6974 	 -12.0664
| 41> *
| 42>
| 43>                          ****END OF INPUT****

CARTESIAN COORDINATES (ANGSTROEM)
---------------------------------
  S    -107.590000   43.039000   -6.189020
  C    -108.895000   43.336600   -5.064940
  C    -109.579000   44.436800   -5.362030
  C    -109.136000   45.063000   -6.561830
  C    -108.162000   44.343000   -7.179440
  H    -109.527000   45.963700   -7.060420
  C    -110.781000   45.081000   -4.644530
  H    -111.187000   44.214500   -4.109620
  H    -111.534000   45.407000   -5.334900
  C    -110.593000   46.170100   -3.525320
  H    -111.597000   46.486600   -3.152630
  H    -110.093000   45.809800   -2.689140
  C    -109.757000   47.394900   -3.897940
  H    -108.900000   47.173600   -4.503170
  H    -110.308000   48.046800   -4.578220
  H    -109.262000   47.821400   -3.003570
  S    -107.716000   43.643000   -9.757450
  C    -107.208000   44.818500  -10.955700
  C    -106.866000   46.014700  -10.330200
  C    -107.191000   45.982300   -8.915730
  C    -107.602000   44.737400   -8.481900
  H    -106.449000   46.817300  -11.000700
  C    -106.952000   47.137100   -8.019480
  H    -105.875000   47.357400   -8.034930
  H    -107.023000   46.803800   -6.986280
  C    -107.804000   48.404500   -8.187560
  H    -107.843000   48.895900   -7.242350
  H    -108.861000   48.159700   -8.565660
  C    -107.156000   49.375400   -9.200410
  H    -107.552000   50.345200   -9.307240
  H    -107.172000   48.830100  -10.125100
  H    -106.034000   49.485900   -8.951130
  H    -109.028000   42.640200   -4.248100
  H    -107.398000   44.697400  -12.066400

 Total Charge           Charge          ....    0
 Multiplicity           Mult            ....    1
 Number of Electrons    NEL             ....  134
 Basis Dimension        Dim             ....  322

ORBITAL ENERGIES
----------------

  NO   OCC          E(Eh)            E(eV)
   0   2.0000     -88.965711     -2420.8801
   1   2.0000     -88.962682     -2420.7977
   2   2.0000     -10.325100      -280.9602
   3   2.0000     -10.322124      -280.8793
   4   2.0000     -10.321178      -280.8535
   5   2.0000     -10.311404      -280.5876
   6   2.0000     -10.302688      -280.3504
   7   2.0000     -10.302456      -280.3441
   8   2.0000     -10.298780      -280.2440
   9   2.0000     -10.294021      -280.1146
  10   2.0000     -10.291619      -280.0492
  11   2.0000     -10.289331      -279.9869
  12   2.0000     -10.286763      -279.9171
  13   2.0000     -10.285053      -279.8705
  14   2.0000     -10.277494      -279.6648
  15   2.0000     -10.274331      -279.5788
  16   2.0000      -8.081174      -219.8999
  17   2.0000      -8.078858      -219.8369
  18   2.0000      -6.039657      -164.3474
  19   2.0000      -6.037278      -164.2827
  20   2.0000      -6.035761      -164.2414
  21   2.0000      -6.032961      -164.1652
  22   2.0000      -6.031743      -164.1321
  23   2.0000      -6.029815      -164.0796
  24   2.0000      -1.015491       -27.6329
  25   2.0000      -0.992227       -26.9999
  26   2.0000      -0.910640       -24.7798
  27   2.0000      -0.905355       -24.6360
  28   2.0000      -0.872599       -23.7446
  29   2.0000      -0.852200       -23.1895
  30   2.0000      -0.846266       -23.0281
  31   2.0000      -0.817830       -22.2543
  32   2.0000      -0.784778       -21.3549
  33   2.0000      -0.772242       -21.0138
  34   2.0000      -0.704528       -19.1712
  35   2.0000      -0.703319       -19.1383
  36   2.0000      -0.690123       -18.7792
  37   2.0000      -0.662127       -18.0174
  38   2.0000      -0.644205       -17.5297
  39   2.0000      -0.614873       -16.7315
  40   2.0000      -0.596895       -16.2423
  41   2.0000      -0.575411       -15.6577
  42   2.0000      -0.552523       -15.0349
  43   2.0000      -0.548194       -14.9171
  44   2.0000      -0.537705       -14.6317
  45   2.0000      -0.533810       -14.5257
  46   2.0000      -0.522186       -14.2094
  47   2.0000      -0.515195       -14.0192
  48   2.0000      -0.506050       -13.7703
  49   2.0000      -0.499466       -13.5911
  50   2.0000      -0.487659       -13.2699
  51   2.0000      -0.481275       -13.0961
  52   2.0000      -0.476440       -12.9646
  53   2.0000      -0.468993       -12.7619
  54   2.0000      -0.458916       -12.4877
  55   2.0000      -0.443934       -12.0801
  56   2.0000      -0.442142       -12.0313
  57   2.0000      -0.435097       -11.8396
  58   2.0000      -0.430515       -11.7149
  59   2.0000      -0.422022       -11.4838
  60   2.0000      -0.417675       -11.3655
  61   2.0000      -0.414526       -11.2798
  62   2.0000      -0.410411       -11.1678
  63   2.0000      -0.348744        -9.4898
  64   2.0000      -0.334010        -9.0889
  65   2.0000      -0.327023        -8.8987
  66   2.0000      -0.299119        -8.1394
  67   0.0000       0.038860         1.0574
  68   0.0000       0.068184         1.8554
  69   0.0000       0.118014         3.2113
  70   0.0000       0.119001         3.2382
  71   0.0000       0.124524         3.3885

MULLIKEN ATOMIC CHARGES
-----------------------
   0 S :    0.109060
   1 C :   -0.146210
   2 C :   -0.036599
   3 C :    0.000998
   4 C :   -0.147179
   5 H :    0.020266
   6 C :    0.067227
   7 H :    0.018283
   8 H :    0.031958
   9 C :   -0.032136
  10 H :    0.035060
  11 H :    0.006452
  12 C :   -0.061950
  13 H :    0.017735
  14 H :    0.026969
  15 H :    0.038934
  16 S :    0.110783
  17 C :   -0.138836
  18 C :   -0.057259
  19 C :   -0.034076
  20 C :   -0.135192
  21 H :    0.053949
  22 C :    0.020600
  23 H :    0.032708
  24 H :    0.021428
  25 C :   -0.065413
  26 H :    0.028672
  27 H :    0.048459
  28 C :   -0.043865
  29 H :    0.033275
  30 H :    0.014644
  31 H :    0.027684
  32 H :    0.045056
  33 H :    0.088518
Sum of atomic charges:   -0.0000000

LOEWDIN ATOMIC CHARGES
----------------------
   0 S :    0.403564
   1 C :   -0.187901
   2 C :   -0.066864
   3 C :   -0.063393
   4 C :   -0.195712
   5 H :    0.037232
   6 C :   -0.027329
   7 H :    0.033688
   8 H :    0.028012
   9 C :   -0.034278
  10 H :    0.030661
  11 H :    0.014233
  12 C :   -0.075056
  13 H :    0.021149
  14 H :    0.023272
  15 H :    0.033398
  16 S :    0.433023
  17 C :   -0.201993
  18 C :   -0.080081
  19 C :   -0.061903
  20 C :   -0.219560
  21 H :    0.044159
  22 C :   -0.043220
  23 H :    0.036973
  24 H :    0.031426
  25 C :   -0.037947
  26 H :    0.019702
  27 H :    0.032224
  28 C :   -0.066457
  29 H :    0.016883
  30 H :    0.018493
  31 H :    0.030865
  32 H :    0.026936
  33 H :    0.045798

  Mayer bond orders larger than 0.100000
B(  0-S ,  1-C ) :   1.1206 B(  0-S ,  4-C ) :   1.1530 B(  1-C ,  2-C ) :   1.6513
B(  1-C , 32-H ) :   0.9720 B(  2-C ,  3-C ) :   1.2011 B(  2-C ,  6-C ) :   1.0031
B(  3-C ,  4-C ) :   1.6049 B(  3-C ,  5-H ) :   0.9992 B(  4-C , 20-C ) :   0.9942
B(  6-C ,  7-H ) :   0.9365 B(  6-C ,  8-H ) :   0.9501 B(  6-C ,  9-C ) :   1.0741
B(  9-C , 10-H ) :   0.9555 B(  9-C , 11-H ) :   0.9569 B(  9-C , 12-C ) :   1.0801
B( 12-C , 13-H ) :   0.9712 B( 12-C , 14-H ) :   0.9750 B( 12-C , 15-H ) :   0.9745
B( 16-S , 17-C ) :   1.1696 B( 16-S , 20-C ) :   1.1614 B( 17-C , 18-C ) :   1.6014
B( 17-C , 33-H ) :   0.9578 B( 18-C , 19-C ) :   1.2267 B( 18-C , 21-H ) :   0.9780
B( 19-C , 20-C ) :   1.5933 B( 19-C , 22-C ) :   1.0600 B( 22-C , 23-H ) :   0.9308
B( 22-C , 24-H ) :   0.9306 B( 22-C , 25-C ) :   1.0511 B( 25-C , 26-H ) :   0.9571
B( 25-C , 27-H ) :   0.9566 B( 25-C , 28-C ) :   1.0697 B( 28-C , 29-H ) :   0.9736
B( 28-C , 30-H ) :   0.9754 B( 28-C , 31-H ) :   0.9750

Dispersion correction           -0.015291283
FINAL SINGLE POINT ENERGY     -1339.867375988415

DIPOLE MOMENT
-------------
                                X             Y             Z
Electronic contribution:      6.81956     -27.21108     -10.35513
Nuclear contribution   :     -7.06335      27.74740      10.51591
                        -----------------------------------------
Total Dipole Moment    :     -0.24379       0.53632       0.16077
                        -----------------------------------------
Magnitude (a.u.)       :      0.61067
Magnitude (Debye)      :      1.55220

Rotational constants in cm-1:     0.017393     0.010172     0.006994
Rotational constants in MHz :   521.416811   304.945555   209.677585

                             ****ORCA TERMINATED NORMALLY****
TOTAL RUN TIME: 0 days 0 hours 0 minutes 22 seconds 669 msec
