                         Program Version 4.2.1 -  RELEASE  -
|  1> ! wB97X-D3 SP def2-SVP
|  2> %pal
|  3> nprocs 24
|  4> end
|  5>
|  6> * xyz 0 1
|  7> S 	 -101.707 	 8.41044 	 1.23552
|  8> C 	 -102.873 	 7.48108 	 0.235751
|  9> C 	 -102.208 	 6.74903 	 -0.704139
| 10> C 	 -100.805 	 6.68105 	 -0.542369
| 11> C 	 -100.34 	 7.41869 	 0.54687
| 12> H 	 -100.075 	 6.09836 	 -1.11991
| 13> C 	 -102.841 	 5.88841 	 -1.77267
| 14> H 	 -102.741 	 4.84652 	 -1.51075
| 15> H 	 -102.242 	 6.01551 	 -2.70027
| 16> C 	 -104.328 	 6.12091 	 -2.01212
| 17> H 	 -104.925 	 5.85078 	 -1.13581
| 18> H 	 -104.425 	 7.11813 	 -2.4353
| 19> C 	 -104.693 	 5.23021 	 -3.20374
| 20> H 	 -104.173 	 4.26083 	 -3.08297
| 21> H 	 -105.758 	 5.0501 	 -3.37024
| 22> H 	 -104.314 	 5.71655 	 -4.13958
| 23> S 	 -98.8128 	 7.08753 	 2.58886
| 24> C 	 -97.1927 	 7.65494 	 2.70768
| 25> C 	 -96.7149 	 8.01656 	 1.44836
| 26> C 	 -97.7317 	 7.86609 	 0.465112
| 27> C 	 -98.9766 	 7.55751 	 1.01135
| 28> H 	 -95.659 	 8.06909 	 1.36011
| 29> C 	 -97.4123 	 7.89296 	 -0.999049
| 30> H 	 -98.2161 	 7.29139 	 -1.42795
| 31> H 	 -96.4729 	 7.31624 	 -1.1745
| 32> C 	 -97.3731 	 9.40853 	 -1.54844
| 33> H 	 -96.6521 	 9.40202 	 -2.3284
| 34> H 	 -96.9794 	 10.0547 	 -0.717301
| 35> C 	 -98.6589 	 9.85028 	 -1.94432
| 36> H 	 -98.8079 	 10.8716 	 -1.78581
| 37> H 	 -99.5441 	 9.38131 	 -1.4543
| 38> H 	 -98.9561 	 9.60659 	 -3.01871
| 39> H 	 -103.86 	 7.74589 	 0.174273
| 40> H 	 -96.5573 	 7.55606 	 3.57521
| 41> *
| 42>
| 43>                          ****END OF INPUT****

CARTESIAN COORDINATES (ANGSTROEM)
---------------------------------
  S    -101.707000    8.410440    1.235520
  C    -102.873000    7.481080    0.235751
  C    -102.208000    6.749030   -0.704139
  C    -100.805000    6.681050   -0.542369
  C    -100.340000    7.418690    0.546870
  H    -100.075000    6.098360   -1.119910
  C    -102.841000    5.888410   -1.772670
  H    -102.741000    4.846520   -1.510750
  H    -102.242000    6.015510   -2.700270
  C    -104.328000    6.120910   -2.012120
  H    -104.925000    5.850780   -1.135810
  H    -104.425000    7.118130   -2.435300
  C    -104.693000    5.230210   -3.203740
  H    -104.173000    4.260830   -3.082970
  H    -105.758000    5.050100   -3.370240
  H    -104.314000    5.716550   -4.139580
  S    -98.812800    7.087530    2.588860
  C    -97.192700    7.654940    2.707680
  C    -96.714900    8.016560    1.448360
  C    -97.731700    7.866090    0.465112
  C    -98.976600    7.557510    1.011350
  H    -95.659000    8.069090    1.360110
  C    -97.412300    7.892960   -0.999049
  H    -98.216100    7.291390   -1.427950
  H    -96.472900    7.316240   -1.174500
  C    -97.373100    9.408530   -1.548440
  H    -96.652100    9.402020   -2.328400
  H    -96.979400   10.054700   -0.717301
  C    -98.658900    9.850280   -1.944320
  H    -98.807900   10.871600   -1.785810
  H    -99.544100    9.381310   -1.454300
  H    -98.956100    9.606590   -3.018710
  H    -103.860000    7.745890    0.174273
  H    -96.557300    7.556060    3.575210

 Total Charge           Charge          ....    0
 Multiplicity           Mult            ....    1
 Number of Electrons    NEL             ....  134
 Basis Dimension        Dim             ....  322

ORBITAL ENERGIES
----------------

  NO   OCC          E(Eh)            E(eV)
   0   2.0000     -88.964637     -2420.8508
   1   2.0000     -88.961580     -2420.7677
   2   2.0000     -10.336420      -281.2683
   3   2.0000     -10.315716      -280.7049
   4   2.0000     -10.312005      -280.6039
   5   2.0000     -10.309875      -280.5460
   6   2.0000     -10.300779      -280.2984
   7   2.0000     -10.299049      -280.2514
   8   2.0000     -10.297031      -280.1965
   9   2.0000     -10.292124      -280.0629
  10   2.0000     -10.291798      -280.0541
  11   2.0000     -10.289549      -279.9929
  12   2.0000     -10.287929      -279.9488
  13   2.0000     -10.282262      -279.7946
  14   2.0000     -10.281641      -279.7777
  15   2.0000     -10.264929      -279.3229
  16   2.0000      -8.078741      -219.8337
  17   2.0000      -8.077640      -219.8038
  18   2.0000      -6.036912      -164.2727
  19   2.0000      -6.036368      -164.2579
  20   2.0000      -6.032837      -164.1618
  21   2.0000      -6.032530      -164.1535
  22   2.0000      -6.029735      -164.0774
  23   2.0000      -6.028115      -164.0334
  24   2.0000      -1.016315       -27.6553
  25   2.0000      -0.982834       -26.7443
  26   2.0000      -0.917374       -24.9630
  27   2.0000      -0.911836       -24.8123
  28   2.0000      -0.875118       -23.8132
  29   2.0000      -0.855607       -23.2823
  30   2.0000      -0.846926       -23.0460
  31   2.0000      -0.816450       -22.2167
  32   2.0000      -0.775311       -21.0973
  33   2.0000      -0.765327       -20.8256
  34   2.0000      -0.714225       -19.4351
  35   2.0000      -0.700835       -19.0707
  36   2.0000      -0.690525       -18.7902
  37   2.0000      -0.663609       -18.0577
  38   2.0000      -0.643528       -17.5113
  39   2.0000      -0.615023       -16.7356
  40   2.0000      -0.593318       -16.1450
  41   2.0000      -0.585084       -15.9210
  42   2.0000      -0.571808       -15.5597
  43   2.0000      -0.550687       -14.9849
  44   2.0000      -0.539439       -14.6789
  45   2.0000      -0.531589       -14.4653
  46   2.0000      -0.521368       -14.1871
  47   2.0000      -0.511831       -13.9276
  48   2.0000      -0.503710       -13.7067
  49   2.0000      -0.500334       -13.6148
  50   2.0000      -0.494733       -13.4624
  51   2.0000      -0.482591       -13.1320
  52   2.0000      -0.469902       -12.7867
  53   2.0000      -0.466516       -12.6945
  54   2.0000      -0.452036       -12.3005
  55   2.0000      -0.443449       -12.0669
  56   2.0000      -0.442600       -12.0437
  57   2.0000      -0.435387       -11.8475
  58   2.0000      -0.429014       -11.6741
  59   2.0000      -0.425761       -11.5856
  60   2.0000      -0.419817       -11.4238
  61   2.0000      -0.417421       -11.3586
  62   2.0000      -0.402657       -10.9569
  63   2.0000      -0.342990        -9.3332
  64   2.0000      -0.328795        -8.9470
  65   2.0000      -0.324129        -8.8200
  66   2.0000      -0.293104        -7.9758
  67   0.0000       0.028128         0.7654
  68   0.0000       0.064648         1.7592
  69   0.0000       0.105554         2.8723
  70   0.0000       0.106135         2.8881
  71   0.0000       0.135754         3.6940

MULLIKEN ATOMIC CHARGES
-----------------------
   0 S :    0.095680
   1 C :   -0.091495
   2 C :   -0.046121
   3 C :    0.017812
   4 C :   -0.138601
   5 H :    0.031421
   6 C :   -0.003639
   7 H :    0.036833
   8 H :    0.033756
   9 C :   -0.071582
  10 H :    0.049902
  11 H :    0.037938
  12 C :   -0.059906
  13 H :    0.025548
  14 H :    0.035549
  15 H :    0.033380
  16 S :    0.131911
  17 C :   -0.101102
  18 C :   -0.029990
  19 C :   -0.037379
  20 C :   -0.193957
  21 H :    0.014464
  22 C :    0.030583
  23 H :    0.005107
  24 H :    0.035468
  25 C :   -0.020881
  26 H :    0.020525
  27 H :    0.039196
  28 C :   -0.038321
  29 H :    0.018896
  30 H :    0.030605
  31 H :    0.026170
  32 H :    0.027717
  33 H :    0.054513
Sum of atomic charges:    0.0000000

LOEWDIN ATOMIC CHARGES
----------------------
   0 S :    0.356568
   1 C :   -0.170880
   2 C :   -0.062455
   3 C :   -0.062654
   4 C :   -0.170153
   5 H :    0.035016
   6 C :   -0.034423
   7 H :    0.031162
   8 H :    0.035324
   9 C :   -0.045051
  10 H :    0.028978
  11 H :    0.028894
  12 C :   -0.066498
  13 H :    0.022771
  14 H :    0.023040
  15 H :    0.028854
  16 S :    0.474897
  17 C :   -0.196349
  18 C :   -0.071837
  19 C :   -0.057520
  20 C :   -0.245350
  21 H :    0.028942
  22 C :   -0.030757
  23 H :    0.024182
  24 H :    0.034167
  25 C :   -0.036045
  26 H :    0.018814
  27 H :    0.033547
  28 C :   -0.076315
  29 H :    0.019503
  30 H :    0.032758
  31 H :    0.031745
  32 H :    0.010533
  33 H :    0.026589

  Mayer bond orders larger than 0.100000
B(  0-S ,  1-C ) :   1.1069 B(  0-S ,  4-C ) :   1.1285 B(  1-C ,  2-C ) :   1.6473
B(  1-C , 32-H ) :   0.9666 B(  2-C ,  3-C ) :   1.2168 B(  2-C ,  6-C ) :   1.0062
B(  3-C ,  4-C ) :   1.5959 B(  3-C ,  5-H ) :   0.9883 B(  4-C , 20-C ) :   1.0275
B(  6-C ,  7-H ) :   0.9346 B(  6-C ,  8-H ) :   0.9452 B(  6-C ,  9-C ) :   1.0869
B(  9-C , 10-H ) :   0.9446 B(  9-C , 11-H ) :   0.9584 B(  9-C , 12-C ) :   1.0812
B( 12-C , 13-H ) :   0.9720 B( 12-C , 14-H ) :   0.9734 B( 12-C , 15-H ) :   0.9778
B( 16-S , 17-C ) :   1.1902 B( 16-S , 20-C ) :   1.1987 B( 17-C , 18-C ) :   1.5636
B( 17-C , 20-C ) :   0.1077 B( 17-C , 33-H ) :   0.9701 B( 18-C , 19-C ) :   1.2769
B( 18-C , 21-H ) :   0.9933 B( 19-C , 20-C ) :   1.5303 B( 19-C , 22-C ) :   1.0422
B( 22-C , 23-H ) :   0.9444 B( 22-C , 24-H ) :   0.9402 B( 22-C , 25-C ) :   1.0423
B( 25-C , 26-H ) :   0.9529 B( 25-C , 27-H ) :   0.9621 B( 25-C , 28-C ) :   1.0875
B( 28-C , 29-H ) :   0.9665 B( 28-C , 30-H ) :   0.9710 B( 28-C , 31-H ) :   0.9666

Dispersion correction           -0.014571104
FINAL SINGLE POINT ENERGY     -1339.847434207148

DIPOLE MOMENT
-------------
                                X             Y             Z
Electronic contribution:      6.29835       2.21228      25.53764
Nuclear contribution   :     -6.14685      -2.52406     -26.14149
                        -----------------------------------------
Total Dipole Moment    :      0.15150      -0.31178      -0.60385
                        -----------------------------------------
Magnitude (a.u.)       :      0.69627
Magnitude (Debye)      :      1.76979

Rotational constants in cm-1:     0.022473     0.007811     0.006684
Rotational constants in MHz :   673.724841   234.179214   200.383689

                             ****ORCA TERMINATED NORMALLY****
TOTAL RUN TIME: 0 days 0 hours 0 minutes 22 seconds 69 msec
