                         Program Version 4.2.1 -  RELEASE  -
|  1> ! wB97X-D3 SP def2-SVP
|  2> %pal
|  3> nprocs 24
|  4> end
|  5>
|  6> * xyz 0 1
|  7> S 	 -18.9203 	 -34.6706 	 -92.4233
|  8> C 	 -17.3634 	 -35.3851 	 -92.706
|  9> C 	 -16.5935 	 -34.7377 	 -93.6626
| 10> C 	 -17.4134 	 -33.6655 	 -94.2348
| 11> C 	 -18.5731 	 -33.3715 	 -93.534
| 12> H 	 -17.2029 	 -33.049 	 -95.0892
| 13> C 	 -15.1898 	 -35.0955 	 -94.0509
| 14> H 	 -14.7849 	 -35.8064 	 -93.2954
| 15> H 	 -14.5263 	 -34.1681 	 -94.1017
| 16> C 	 -15.0512 	 -35.741 	 -95.4486
| 17> H 	 -13.9923 	 -35.9995 	 -95.5887
| 18> H 	 -15.455 	 -36.749 	 -95.5086
| 19> C 	 -15.6601 	 -35.056 	 -96.7566
| 20> H 	 -15.4256 	 -34.046 	 -96.9122
| 21> H 	 -15.4128 	 -35.5523 	 -97.6497
| 22> H 	 -16.6909 	 -35.0996 	 -96.8418
| 23> S 	 -20.9762 	 -32.7449 	 -94.7101
| 24> C 	 -21.4915 	 -31.1305 	 -94.9655
| 25> C 	 -20.4881 	 -30.2985 	 -94.587
| 26> C 	 -19.3489 	 -30.9276 	 -94.02
| 27> C 	 -19.44 	 -32.2863 	 -93.9785
| 28> H 	 -20.515 	 -29.2736 	 -94.8938
| 29> C 	 -18.1657 	 -30.0914 	 -93.5476
| 30> H 	 -18.2675 	 -29.0463 	 -93.8565
| 31> H 	 -17.1969 	 -30.4622 	 -93.9307
| 32> C 	 -18.0372 	 -29.8959 	 -91.9782
| 33> H 	 -17.9924 	 -30.911 	 -91.5305
| 34> H 	 -18.9398 	 -29.3999 	 -91.6844
| 35> C 	 -16.7152 	 -29.2228 	 -91.5223
| 36> H 	 -16.6491 	 -28.2018 	 -91.948
| 37> H 	 -15.7881 	 -29.6764 	 -91.8626
| 38> H 	 -16.6742 	 -29.122 	 -90.4421
| 39> H 	 -16.8806 	 -36.2608 	 -92.2069
| 40> H 	 -22.2573 	 -30.7888 	 -95.6474
| 41> *
| 42>
| 43>                          ****END OF INPUT****

CARTESIAN COORDINATES (ANGSTROEM)
---------------------------------
  S    -18.920300  -34.670600  -92.423300
  C    -17.363400  -35.385100  -92.706000
  C    -16.593500  -34.737700  -93.662600
  C    -17.413400  -33.665500  -94.234800
  C    -18.573100  -33.371500  -93.534000
  H    -17.202900  -33.049000  -95.089200
  C    -15.189800  -35.095500  -94.050900
  H    -14.784900  -35.806400  -93.295400
  H    -14.526300  -34.168100  -94.101700
  C    -15.051200  -35.741000  -95.448600
  H    -13.992300  -35.999500  -95.588700
  H    -15.455000  -36.749000  -95.508600
  C    -15.660100  -35.056000  -96.756600
  H    -15.425600  -34.046000  -96.912200
  H    -15.412800  -35.552300  -97.649700
  H    -16.690900  -35.099600  -96.841800
  S    -20.976200  -32.744900  -94.710100
  C    -21.491500  -31.130500  -94.965500
  C    -20.488100  -30.298500  -94.587000
  C    -19.348900  -30.927600  -94.020000
  C    -19.440000  -32.286300  -93.978500
  H    -20.515000  -29.273600  -94.893800
  C    -18.165700  -30.091400  -93.547600
  H    -18.267500  -29.046300  -93.856500
  H    -17.196900  -30.462200  -93.930700
  C    -18.037200  -29.895900  -91.978200
  H    -17.992400  -30.911000  -91.530500
  H    -18.939800  -29.399900  -91.684400
  C    -16.715200  -29.222800  -91.522300
  H    -16.649100  -28.201800  -91.948000
  H    -15.788100  -29.676400  -91.862600
  H    -16.674200  -29.122000  -90.442100
  H    -16.880600  -36.260800  -92.206900
  H    -22.257300  -30.788800  -95.647400

 Total Charge           Charge          ....    0
 Multiplicity           Mult            ....    1
 Number of Electrons    NEL             ....  134
 Basis Dimension        Dim             ....  322

ORBITAL ENERGIES
----------------

  NO   OCC          E(Eh)            E(eV)
   0   2.0000     -88.971393     -2421.0347
   1   2.0000     -88.959770     -2420.7184
   2   2.0000     -10.329038      -281.0674
   3   2.0000     -10.326655      -281.0026
   4   2.0000     -10.318134      -280.7707
   5   2.0000     -10.311459      -280.5891
   6   2.0000     -10.307322      -280.4765
   7   2.0000     -10.305185      -280.4183
   8   2.0000     -10.301262      -280.3116
   9   2.0000     -10.296149      -280.1725
  10   2.0000     -10.294343      -280.1233
  11   2.0000     -10.292465      -280.0722
  12   2.0000     -10.286578      -279.9120
  13   2.0000     -10.285708      -279.8884
  14   2.0000     -10.278486      -279.6918
  15   2.0000     -10.269061      -279.4354
  16   2.0000      -8.085927      -220.0293
  17   2.0000      -8.075356      -219.7416
  18   2.0000      -6.044577      -164.4813
  19   2.0000      -6.040503      -164.3704
  20   2.0000      -6.036487      -164.2611
  21   2.0000      -6.033861      -164.1897
  22   2.0000      -6.029592      -164.0735
  23   2.0000      -6.026193      -163.9810
  24   2.0000      -1.010874       -27.5073
  25   2.0000      -0.988613       -26.9015
  26   2.0000      -0.908227       -24.7141
  27   2.0000      -0.898962       -24.4620
  28   2.0000      -0.872037       -23.7293
  29   2.0000      -0.847610       -23.0647
  30   2.0000      -0.843435       -22.9510
  31   2.0000      -0.817025       -22.2324
  32   2.0000      -0.789689       -21.4885
  33   2.0000      -0.773606       -21.0509
  34   2.0000      -0.710999       -19.3473
  35   2.0000      -0.703018       -19.1301
  36   2.0000      -0.689596       -18.7648
  37   2.0000      -0.663327       -18.0500
  38   2.0000      -0.639183       -17.3930
  39   2.0000      -0.614518       -16.7219
  40   2.0000      -0.593647       -16.1539
  41   2.0000      -0.574079       -15.6215
  42   2.0000      -0.559832       -15.2338
  43   2.0000      -0.547803       -14.9065
  44   2.0000      -0.532510       -14.4903
  45   2.0000      -0.518186       -14.1006
  46   2.0000      -0.514469       -13.9994
  47   2.0000      -0.513534       -13.9740
  48   2.0000      -0.506254       -13.7759
  49   2.0000      -0.499783       -13.5998
  50   2.0000      -0.490660       -13.3515
  51   2.0000      -0.480087       -13.0638
  52   2.0000      -0.473971       -12.8974
  53   2.0000      -0.467920       -12.7328
  54   2.0000      -0.463821       -12.6212
  55   2.0000      -0.445866       -12.1326
  56   2.0000      -0.441520       -12.0144
  57   2.0000      -0.437557       -11.9065
  58   2.0000      -0.432944       -11.7810
  59   2.0000      -0.430801       -11.7227
  60   2.0000      -0.419419       -11.4130
  61   2.0000      -0.413938       -11.2638
  62   2.0000      -0.406630       -11.0650
  63   2.0000      -0.342262        -9.3134
  64   2.0000      -0.329744        -8.9728
  65   2.0000      -0.325120        -8.8470
  66   2.0000      -0.303404        -8.2560
  67   0.0000       0.037392         1.0175
  68   0.0000       0.061984         1.6867
  69   0.0000       0.112672         3.0660
  70   0.0000       0.122273         3.3272
  71   0.0000       0.131635         3.5820

MULLIKEN ATOMIC CHARGES
-----------------------
   0 S :    0.136481
   1 C :   -0.121552
   2 C :   -0.081976
   3 C :    0.020445
   4 C :   -0.151129
   5 H :    0.015253
   6 C :    0.064507
   7 H :    0.030139
   8 H :    0.050936
   9 C :   -0.087221
  10 H :    0.028872
  11 H :    0.021817
  12 C :   -0.005949
  13 H :    0.015403
  14 H :    0.013741
  15 H :    0.018179
  16 S :    0.093354
  17 C :   -0.070721
  18 C :   -0.054235
  19 C :   -0.013736
  20 C :   -0.176755
  21 H :    0.013170
  22 C :    0.052832
  23 H :    0.012009
  24 H :    0.025807
  25 C :   -0.081646
  26 H :    0.040453
  27 H :    0.029489
  28 C :   -0.047157
  29 H :    0.019969
  30 H :    0.030777
  31 H :    0.040324
  32 H :    0.055808
  33 H :    0.062310
Sum of atomic charges:   -0.0000000

LOEWDIN ATOMIC CHARGES
----------------------
   0 S :    0.416596
   1 C :   -0.207287
   2 C :   -0.065935
   3 C :   -0.048424
   4 C :   -0.210596
   5 H :    0.027192
   6 C :   -0.036145
   7 H :    0.038175
   8 H :    0.042848
   9 C :   -0.041601
  10 H :    0.025566
  11 H :    0.024469
  12 C :   -0.061478
  13 H :    0.015673
  14 H :    0.026511
  15 H :    0.020197
  16 S :    0.411889
  17 C :   -0.196449
  18 C :   -0.075928
  19 C :   -0.061416
  20 C :   -0.187725
  21 H :    0.027751
  22 C :   -0.031717
  23 H :    0.026468
  24 H :    0.027757
  25 C :   -0.035339
  26 H :    0.026504
  27 H :    0.020669
  28 C :   -0.069440
  29 H :    0.023206
  30 H :    0.025241
  31 H :    0.028035
  32 H :    0.038755
  33 H :    0.035977

  Mayer bond orders larger than 0.100000
B(  0-S ,  1-C ) :   1.1387 B(  0-S ,  4-C ) :   1.1252 B(  1-C ,  2-C ) :   1.6381
B(  1-C , 32-H ) :   0.9522 B(  2-C ,  3-C ) :   1.2051 B(  2-C ,  6-C ) :   1.0353
B(  3-C ,  4-C ) :   1.6046 B(  3-C ,  5-H ) :   0.9877 B(  4-C , 20-C ) :   1.0366
B(  6-C ,  7-H ) :   0.9334 B(  6-C ,  8-H ) :   0.9397 B(  6-C ,  9-C ) :   1.0716
B(  9-C , 10-H ) :   0.9586 B(  9-C , 11-H ) :   0.9530 B(  9-C , 12-C ) :   1.0702
B( 12-C , 13-H ) :   0.9770 B( 12-C , 14-H ) :   0.9677 B( 12-C , 15-H ) :   0.9703
B( 16-S , 17-C ) :   1.1629 B( 16-S , 20-C ) :   1.1435 B( 17-C , 18-C ) :   1.6083
B( 17-C , 33-H ) :   0.9615 B( 18-C , 19-C ) :   1.2632 B( 18-C , 21-H ) :   0.9853
B( 19-C , 20-C ) :   1.6095 B( 19-C , 22-C ) :   1.0476 B( 22-C , 23-H ) :   0.9365
B( 22-C , 24-H ) :   0.9383 B( 22-C , 25-C ) :   1.0541 B( 25-C , 26-H ) :   0.9613
B( 25-C , 27-H ) :   0.9575 B( 25-C , 28-C ) :   1.0779 B( 28-C , 29-H ) :   0.9737
B( 28-C , 30-H ) :   0.9746 B( 28-C , 31-H ) :   0.9748

Dispersion correction           -0.014318624
FINAL SINGLE POINT ENERGY     -1339.868010015915

DIPOLE MOMENT
-------------
                                X             Y             Z
Electronic contribution:    -22.73172      -7.84177       3.20874
Nuclear contribution   :     23.35676       8.01983      -3.56732
                        -----------------------------------------
Total Dipole Moment    :      0.62503       0.17806      -0.35858
                        -----------------------------------------
Magnitude (a.u.)       :      0.74226
Magnitude (Debye)      :      1.88667

Rotational constants in cm-1:     0.016462     0.008911     0.007670
Rotational constants in MHz :   493.528359   267.137328   229.933207

                             ****ORCA TERMINATED NORMALLY****
TOTAL RUN TIME: 0 days 0 hours 0 minutes 21 seconds 459 msec
