                         Program Version 4.2.1 -  RELEASE  -
|  1> ! wB97X-D3 SP def2-SVP
|  2> %pal
|  3> nprocs 24
|  4> end
|  5>
|  6> * xyz 0 1
|  7> S 	 -65.6012 	 -48.053 	 -94.5804
|  8> C 	 -64.0481 	 -47.4413 	 -94.0932
|  9> C 	 -63.6203 	 -47.9321 	 -92.857
| 10> C 	 -64.5092 	 -48.9651 	 -92.4122
| 11> C 	 -65.5724 	 -49.1533 	 -93.2559
| 12> H 	 -64.4931 	 -49.5563 	 -91.5223
| 13> C 	 -62.3032 	 -47.5619 	 -92.0927
| 14> H 	 -61.5284 	 -47.9603 	 -92.7239
| 15> H 	 -62.3303 	 -48.2314 	 -91.2436
| 16> C 	 -62.1308 	 -46.1048 	 -91.8214
| 17> H 	 -61.9543 	 -45.5549 	 -92.7528
| 18> H 	 -63.1578 	 -45.8562 	 -91.4416
| 19> C 	 -61.2255 	 -45.8231 	 -90.691
| 20> H 	 -60.4329 	 -46.5142 	 -90.8239
| 21> H 	 -60.7898 	 -44.7794 	 -90.6049
| 22> H 	 -61.6207 	 -46.0067 	 -89.7186
| 23> S 	 -68.1699 	 -48.7994 	 -92.728
| 24> C 	 -69.2628 	 -50.1029 	 -92.8462
| 25> C 	 -68.6289 	 -51.2809 	 -93.0249
| 26> C 	 -67.2141 	 -51.1753 	 -93.1461
| 27> C 	 -66.8343 	 -49.8221 	 -93.0093
| 28> H 	 -69.2401 	 -52.1935 	 -92.875
| 29> C 	 -66.3331 	 -52.4278 	 -93.3072
| 30> H 	 -66.7113 	 -53.2581 	 -92.7925
| 31> H 	 -65.3843 	 -52.1301 	 -92.8324
| 32> C 	 -65.9018 	 -52.8765 	 -94.7342
| 33> H 	 -64.8497 	 -53.1226 	 -94.6308
| 34> H 	 -65.7608 	 -51.9646 	 -95.3122
| 35> C 	 -66.8889 	 -53.8473 	 -95.3834
| 36> H 	 -67.739 	 -53.3181 	 -95.8493
| 37> H 	 -67.1703 	 -54.7089 	 -94.7174
| 38> H 	 -66.3503 	 -54.3953 	 -96.2216
| 39> H 	 -63.4151 	 -46.8646 	 -94.7402
| 40> H 	 -70.3535 	 -50.0149 	 -92.6419
| 41> *
| 42>
| 43>                          ****END OF INPUT****

CARTESIAN COORDINATES (ANGSTROEM)
---------------------------------
  S    -65.601200  -48.053000  -94.580400
  C    -64.048100  -47.441300  -94.093200
  C    -63.620300  -47.932100  -92.857000
  C    -64.509200  -48.965100  -92.412200
  C    -65.572400  -49.153300  -93.255900
  H    -64.493100  -49.556300  -91.522300
  C    -62.303200  -47.561900  -92.092700
  H    -61.528400  -47.960300  -92.723900
  H    -62.330300  -48.231400  -91.243600
  C    -62.130800  -46.104800  -91.821400
  H    -61.954300  -45.554900  -92.752800
  H    -63.157800  -45.856200  -91.441600
  C    -61.225500  -45.823100  -90.691000
  H    -60.432900  -46.514200  -90.823900
  H    -60.789800  -44.779400  -90.604900
  H    -61.620700  -46.006700  -89.718600
  S    -68.169900  -48.799400  -92.728000
  C    -69.262800  -50.102900  -92.846200
  C    -68.628900  -51.280900  -93.024900
  C    -67.214100  -51.175300  -93.146100
  C    -66.834300  -49.822100  -93.009300
  H    -69.240100  -52.193500  -92.875000
  C    -66.333100  -52.427800  -93.307200
  H    -66.711300  -53.258100  -92.792500
  H    -65.384300  -52.130100  -92.832400
  C    -65.901800  -52.876500  -94.734200
  H    -64.849700  -53.122600  -94.630800
  H    -65.760800  -51.964600  -95.312200
  C    -66.888900  -53.847300  -95.383400
  H    -67.739000  -53.318100  -95.849300
  H    -67.170300  -54.708900  -94.717400
  H    -66.350300  -54.395300  -96.221600
  H    -63.415100  -46.864600  -94.740200
  H    -70.353500  -50.014900  -92.641900

 Total Charge           Charge          ....    0
 Multiplicity           Mult            ....    1
 Number of Electrons    NEL             ....  134
 Basis Dimension        Dim             ....  322

ORBITAL ENERGIES
----------------

  NO   OCC          E(Eh)            E(eV)
   0   2.0000     -88.964885     -2420.8576
   1   2.0000     -88.962877     -2420.8029
   2   2.0000     -10.320177      -280.8263
   3   2.0000     -10.319209      -280.7999
   4   2.0000     -10.310914      -280.5742
   5   2.0000     -10.307773      -280.4888
   6   2.0000     -10.304601      -280.4024
   7   2.0000     -10.301929      -280.3297
   8   2.0000     -10.291904      -280.0570
   9   2.0000     -10.291315      -280.0409
  10   2.0000     -10.286387      -279.9068
  11   2.0000     -10.286019      -279.8968
  12   2.0000     -10.285984      -279.8959
  13   2.0000     -10.284392      -279.8525
  14   2.0000     -10.282053      -279.7889
  15   2.0000     -10.273695      -279.5615
  16   2.0000      -8.080367      -219.8780
  17   2.0000      -8.079317      -219.8494
  18   2.0000      -6.038677      -164.3208
  19   2.0000      -6.037645      -164.2927
  20   2.0000      -6.034731      -164.2134
  21   2.0000      -6.033479      -164.1793
  22   2.0000      -6.031315      -164.1204
  23   2.0000      -6.030260      -164.0917
  24   2.0000      -1.014972       -27.6188
  25   2.0000      -0.987828       -26.8802
  26   2.0000      -0.921404       -25.0727
  27   2.0000      -0.902789       -24.5661
  28   2.0000      -0.872162       -23.7327
  29   2.0000      -0.851740       -23.1770
  30   2.0000      -0.845549       -23.0086
  31   2.0000      -0.813928       -22.1481
  32   2.0000      -0.784653       -21.3515
  33   2.0000      -0.770144       -20.9567
  34   2.0000      -0.705688       -19.2027
  35   2.0000      -0.702606       -19.1189
  36   2.0000      -0.685637       -18.6571
  37   2.0000      -0.655992       -17.8505
  38   2.0000      -0.645000       -17.5514
  39   2.0000      -0.614741       -16.7280
  40   2.0000      -0.593362       -16.1462
  41   2.0000      -0.572510       -15.5788
  42   2.0000      -0.565817       -15.3967
  43   2.0000      -0.545130       -14.8337
  44   2.0000      -0.537703       -14.6316
  45   2.0000      -0.529381       -14.4052
  46   2.0000      -0.524308       -14.2671
  47   2.0000      -0.507728       -13.8160
  48   2.0000      -0.496840       -13.5197
  49   2.0000      -0.494213       -13.4482
  50   2.0000      -0.492854       -13.4112
  51   2.0000      -0.478241       -13.0136
  52   2.0000      -0.474938       -12.9237
  53   2.0000      -0.468426       -12.7465
  54   2.0000      -0.457994       -12.4626
  55   2.0000      -0.453705       -12.3459
  56   2.0000      -0.440303       -11.9813
  57   2.0000      -0.434829       -11.8323
  58   2.0000      -0.433483       -11.7957
  59   2.0000      -0.426295       -11.6001
  60   2.0000      -0.419499       -11.4151
  61   2.0000      -0.407388       -11.0856
  62   2.0000      -0.403226       -10.9723
  63   2.0000      -0.343096        -9.3361
  64   2.0000      -0.329628        -8.9696
  65   2.0000      -0.325108        -8.8466
  66   2.0000      -0.295396        -8.0381
  67   0.0000       0.045175         1.2293
  68   0.0000       0.057174         1.5558
  69   0.0000       0.121683         3.3112
  70   0.0000       0.123039         3.3481
  71   0.0000       0.131793         3.5863

MULLIKEN ATOMIC CHARGES
-----------------------
   0 S :    0.123151
   1 C :   -0.121625
   2 C :   -0.116495
   3 C :    0.049693
   4 C :   -0.168249
   5 H :    0.004448
   6 C :    0.091114
   7 H :    0.031366
   8 H :    0.010506
   9 C :   -0.070139
  10 H :    0.039175
  11 H :    0.035406
  12 C :   -0.027472
  13 H :    0.013305
  14 H :    0.041463
  15 H :    0.026088
  16 S :    0.131537
  17 C :   -0.115924
  18 C :   -0.046189
  19 C :   -0.016627
  20 C :   -0.206051
  21 H :    0.027059
  22 C :    0.074636
  23 H :    0.009611
  24 H :    0.015312
  25 C :   -0.043974
  26 H :    0.020832
  27 H :    0.018612
  28 C :   -0.070050
  29 H :    0.056940
  30 H :    0.038654
  31 H :    0.036450
  32 H :    0.041053
  33 H :    0.066383
Sum of atomic charges:   -0.0000000

LOEWDIN ATOMIC CHARGES
----------------------
   0 S :    0.427765
   1 C :   -0.201994
   2 C :   -0.055514
   3 C :   -0.061922
   4 C :   -0.207984
   5 H :    0.029708
   6 C :   -0.027447
   7 H :    0.029467
   8 H :    0.027845
   9 C :   -0.049906
  10 H :    0.028647
  11 H :    0.033131
  12 C :   -0.065661
  13 H :    0.018409
  14 H :    0.035616
  15 H :    0.023516
  16 S :    0.446319
  17 C :   -0.211176
  18 C :   -0.084174
  19 C :   -0.055383
  20 C :   -0.227139
  21 H :    0.037226
  22 C :   -0.026576
  23 H :    0.019789
  24 H :    0.033391
  25 C :   -0.047021
  26 H :    0.025667
  27 H :    0.027980
  28 C :   -0.076995
  29 H :    0.034239
  30 H :    0.028984
  31 H :    0.033584
  32 H :    0.020745
  33 H :    0.036868

  Mayer bond orders larger than 0.100000
B(  0-S ,  1-C ) :   1.1511 B(  0-S ,  4-C ) :   1.1669 B(  1-C ,  2-C ) :   1.6012
B(  1-C , 32-H ) :   0.9730 B(  2-C ,  3-C ) :   1.2414 B(  2-C ,  6-C ) :   1.0046
B(  3-C ,  4-C ) :   1.5931 B(  3-C ,  5-H ) :   0.9946 B(  4-C , 20-C ) :   0.9929
B(  6-C ,  7-H ) :   0.9246 B(  6-C ,  8-H ) :   0.9450 B(  6-C ,  9-C ) :   1.0565
B(  9-C , 10-H ) :   0.9509 B(  9-C , 11-H ) :   0.9647 B(  9-C , 12-C ) :   1.0819
B( 12-C , 13-H ) :   0.9713 B( 12-C , 14-H ) :   0.9719 B( 12-C , 15-H ) :   0.9749
B( 16-S , 17-C ) :   1.1630 B( 16-S , 20-C ) :   1.1840 B( 17-C , 18-C ) :   1.6128
B( 17-C , 33-H ) :   0.9592 B( 18-C , 19-C ) :   1.2580 B( 18-C , 21-H ) :   0.9829
B( 19-C , 20-C ) :   1.5680 B( 19-C , 22-C ) :   1.0443 B( 22-C , 23-H ) :   0.9436
B( 22-C , 24-H ) :   0.9304 B( 22-C , 25-C ) :   1.0687 B( 25-C , 26-H ) :   0.9594
B( 25-C , 27-H ) :   0.9509 B( 25-C , 28-C ) :   1.0632 B( 28-C , 29-H ) :   0.9747
B( 28-C , 30-H ) :   0.9769 B( 28-C , 31-H ) :   0.9727

Dispersion correction           -0.013746088
FINAL SINGLE POINT ENERGY     -1339.861495857872

DIPOLE MOMENT
-------------
                                X             Y             Z
Electronic contribution:    -17.32744       7.95154      -3.65069
Nuclear contribution   :     17.69307      -8.19348       3.88473
                        -----------------------------------------
Total Dipole Moment    :      0.36563      -0.24194       0.23404
                        -----------------------------------------
Magnitude (a.u.)       :      0.49699
Magnitude (Debye)      :      1.26324

Rotational constants in cm-1:     0.023355     0.007001     0.006227
Rotational constants in MHz :   700.160917   209.875389   186.670698

                             ****ORCA TERMINATED NORMALLY****
TOTAL RUN TIME: 0 days 0 hours 0 minutes 20 seconds 971 msec
