                         Program Version 4.2.1 -  RELEASE  -
|  1> ! wB97X-D3 SP def2-SVP
|  2> %pal
|  3> nprocs 24
|  4> end
|  5>
|  6> * xyz 0 1
|  7> S 	 -91.458 	 6.44682 	 0.193501
|  8> C 	 -89.9625 	 5.75891 	 -0.171223
|  9> C 	 -89.6981 	 4.8344 	 0.84735
| 10> C 	 -90.8558 	 4.60652 	 1.70248
| 11> C 	 -91.9372 	 5.40484 	 1.41477
| 12> H 	 -90.8949 	 3.83386 	 2.50697
| 13> C 	 -88.3634 	 4.03988 	 0.956635
| 14> H 	 -88.3131 	 3.38739 	 1.86557
| 15> H 	 -87.5528 	 4.75512 	 1.10836
| 16> C 	 -88.011 	 3.08987 	 -0.188204
| 17> H 	 -88.8694 	 2.37698 	 -0.181639
| 18> H 	 -88.0423 	 3.68783 	 -1.08302
| 19> C 	 -86.7828 	 2.21122 	 -0.0690123
| 20> H 	 -86.0181 	 2.79725 	 -0.57435
| 21> H 	 -86.551 	 1.98633 	 0.991243
| 22> H 	 -86.8683 	 1.2156 	 -0.537657
| 23> S 	 -94.7138 	 5.21056 	 1.48367
| 24> C 	 -95.5456 	 5.70505 	 2.95795
| 25> C 	 -94.6111 	 6.10919 	 3.88596
| 26> C 	 -93.2229 	 5.95833 	 3.49047
| 27> C 	 -93.1257 	 5.5579 	 2.19721
| 28> H 	 -94.9218 	 6.48306 	 4.82216
| 29> C 	 -92.0043 	 6.30733 	 4.38705
| 30> H 	 -91.4562 	 5.34789 	 4.646
| 31> H 	 -92.376 	 6.62672 	 5.33845
| 32> C 	 -91.0938 	 7.50147 	 3.89539
| 33> H 	 -90.3205 	 7.16863 	 3.18287
| 34> H 	 -90.5629 	 7.81272 	 4.81823
| 35> C 	 -91.9519 	 8.64942 	 3.34523
| 36> H 	 -92.5038 	 8.27701 	 2.44447
| 37> H 	 -91.4131 	 9.57965 	 3.17626
| 38> H 	 -92.6468 	 8.82497 	 4.2288
| 39> H 	 -89.2435 	 5.99043 	 -1.00749
| 40> H 	 -96.5349 	 5.67865 	 3.19925
| 41> *
| 42>
| 43>                          ****END OF INPUT****

CARTESIAN COORDINATES (ANGSTROEM)
---------------------------------
  S    -91.458000    6.446820    0.193501
  C    -89.962500    5.758910   -0.171223
  C    -89.698100    4.834400    0.847350
  C    -90.855800    4.606520    1.702480
  C    -91.937200    5.404840    1.414770
  H    -90.894900    3.833860    2.506970
  C    -88.363400    4.039880    0.956635
  H    -88.313100    3.387390    1.865570
  H    -87.552800    4.755120    1.108360
  C    -88.011000    3.089870   -0.188204
  H    -88.869400    2.376980   -0.181639
  H    -88.042300    3.687830   -1.083020
  C    -86.782800    2.211220   -0.069012
  H    -86.018100    2.797250   -0.574350
  H    -86.551000    1.986330    0.991243
  H    -86.868300    1.215600   -0.537657
  S    -94.713800    5.210560    1.483670
  C    -95.545600    5.705050    2.957950
  C    -94.611100    6.109190    3.885960
  C    -93.222900    5.958330    3.490470
  C    -93.125700    5.557900    2.197210
  H    -94.921800    6.483060    4.822160
  C    -92.004300    6.307330    4.387050
  H    -91.456200    5.347890    4.646000
  H    -92.376000    6.626720    5.338450
  C    -91.093800    7.501470    3.895390
  H    -90.320500    7.168630    3.182870
  H    -90.562900    7.812720    4.818230
  C    -91.951900    8.649420    3.345230
  H    -92.503800    8.277010    2.444470
  H    -91.413100    9.579650    3.176260
  H    -92.646800    8.824970    4.228800
  H    -89.243500    5.990430   -1.007490
  H    -96.534900    5.678650    3.199250

 Total Charge           Charge          ....    0
 Multiplicity           Mult            ....    1
 Number of Electrons    NEL             ....  134
 Basis Dimension        Dim             ....  322

ORBITAL ENERGIES
----------------

  NO   OCC          E(Eh)            E(eV)
   0   2.0000     -88.965706     -2420.8799
   1   2.0000     -88.965430     -2420.8724
   2   2.0000     -10.324035      -280.9313
   3   2.0000     -10.320890      -280.8457
   4   2.0000     -10.318890      -280.7913
   5   2.0000     -10.314934      -280.6836
   6   2.0000     -10.308339      -280.5042
   7   2.0000     -10.305355      -280.4230
   8   2.0000     -10.299208      -280.2557
   9   2.0000     -10.297962      -280.2218
  10   2.0000     -10.295574      -280.1568
  11   2.0000     -10.293000      -280.0868
  12   2.0000     -10.288367      -279.9607
  13   2.0000     -10.283915      -279.8396
  14   2.0000     -10.282178      -279.7923
  15   2.0000     -10.279497      -279.7193
  16   2.0000      -8.082138      -219.9262
  17   2.0000      -8.079816      -219.8630
  18   2.0000      -6.040442      -164.3688
  19   2.0000      -6.038511      -164.3162
  20   2.0000      -6.036060      -164.2495
  21   2.0000      -6.034358      -164.2032
  22   2.0000      -6.033241      -164.1728
  23   2.0000      -6.030466      -164.0973
  24   2.0000      -1.019020       -27.7289
  25   2.0000      -0.987941       -26.8833
  26   2.0000      -0.910761       -24.7831
  27   2.0000      -0.901238       -24.5239
  28   2.0000      -0.876209       -23.8429
  29   2.0000      -0.846943       -23.0465
  30   2.0000      -0.839983       -22.8571
  31   2.0000      -0.817458       -22.2442
  32   2.0000      -0.782079       -21.2814
  33   2.0000      -0.772067       -21.0090
  34   2.0000      -0.707973       -19.2649
  35   2.0000      -0.693162       -18.8619
  36   2.0000      -0.684618       -18.6294
  37   2.0000      -0.666753       -18.1433
  38   2.0000      -0.643571       -17.5125
  39   2.0000      -0.613422       -16.6920
  40   2.0000      -0.587202       -15.9786
  41   2.0000      -0.578576       -15.7439
  42   2.0000      -0.568087       -15.4584
  43   2.0000      -0.555995       -15.1294
  44   2.0000      -0.545584       -14.8461
  45   2.0000      -0.522853       -14.2276
  46   2.0000      -0.516659       -14.0590
  47   2.0000      -0.511553       -13.9201
  48   2.0000      -0.506319       -13.7776
  49   2.0000      -0.500905       -13.6303
  50   2.0000      -0.486129       -13.2282
  51   2.0000      -0.477455       -12.9922
  52   2.0000      -0.476099       -12.9553
  53   2.0000      -0.462619       -12.5885
  54   2.0000      -0.459811       -12.5121
  55   2.0000      -0.453973       -12.3532
  56   2.0000      -0.440231       -11.9793
  57   2.0000      -0.434584       -11.8256
  58   2.0000      -0.425027       -11.5656
  59   2.0000      -0.416854       -11.3432
  60   2.0000      -0.413256       -11.2453
  61   2.0000      -0.411368       -11.1939
  62   2.0000      -0.402469       -10.9517
  63   2.0000      -0.340992        -9.2789
  64   2.0000      -0.331723        -9.0267
  65   2.0000      -0.326165        -8.8754
  66   2.0000      -0.307307        -8.3623
  67   0.0000       0.035000         0.9524
  68   0.0000       0.066022         1.7965
  69   0.0000       0.117740         3.2039
  70   0.0000       0.120056         3.2669
  71   0.0000       0.127933         3.4812

MULLIKEN ATOMIC CHARGES
-----------------------
   0 S :    0.129173
   1 C :   -0.129823
   2 C :   -0.111483
   3 C :    0.014151
   4 C :   -0.136084
   5 H :    0.025725
   6 C :    0.042811
   7 H :    0.015860
   8 H :    0.028150
   9 C :   -0.092385
  10 H :    0.029909
  11 H :    0.020104
  12 C :   -0.042231
  13 H :    0.036276
  14 H :    0.031754
  15 H :    0.044524
  16 S :    0.111766
  17 C :   -0.036488
  18 C :   -0.025596
  19 C :   -0.040626
  20 C :   -0.196431
  21 H :   -0.001935
  22 C :    0.075291
  23 H :    0.048525
  24 H :    0.000569
  25 C :   -0.090380
  26 H :    0.045805
  27 H :    0.033497
  28 C :   -0.055051
  29 H :    0.057216
  30 H :    0.043450
  31 H :    0.024168
  32 H :    0.080158
  33 H :    0.019630
Sum of atomic charges:   -0.0000000

LOEWDIN ATOMIC CHARGES
----------------------
   0 S :    0.477097
   1 C :   -0.230578
   2 C :   -0.066838
   3 C :   -0.067572
   4 C :   -0.230608
   5 H :    0.036052
   6 C :   -0.038143
   7 H :    0.028205
   8 H :    0.025008
   9 C :   -0.049134
  10 H :    0.028042
  11 H :    0.015633
  12 C :   -0.067956
  13 H :    0.027971
  14 H :    0.028349
  15 H :    0.032623
  16 S :    0.391406
  17 C :   -0.162855
  18 C :   -0.062149
  19 C :   -0.049675
  20 C :   -0.198461
  21 H :    0.020916
  22 C :   -0.032032
  23 H :    0.040763
  24 H :    0.021533
  25 C :   -0.043032
  26 H :    0.021911
  27 H :    0.026006
  28 C :   -0.069699
  29 H :    0.028665
  30 H :    0.025372
  31 H :    0.029876
  32 H :    0.048650
  33 H :    0.014652

  Mayer bond orders larger than 0.100000
B(  0-S ,  1-C ) :   1.1762 B(  0-S ,  4-C ) :   1.1984 B(  1-C ,  2-C ) :   1.5383
B(  1-C , 32-H ) :   0.9682 B(  2-C ,  3-C ) :   1.2928 B(  2-C ,  6-C ) :   1.0184
B(  3-C ,  4-C ) :   1.5226 B(  3-C ,  5-H ) :   0.9964 B(  4-C , 20-C ) :   1.0342
B(  6-C ,  7-H ) :   0.9460 B(  6-C ,  8-H ) :   0.9412 B(  6-C ,  9-C ) :   1.0636
B(  9-C , 10-H ) :   0.9580 B(  9-C , 11-H ) :   0.9616 B(  9-C , 12-C ) :   1.0727
B( 12-C , 13-H ) :   0.9768 B( 12-C , 14-H ) :   0.9727 B( 12-C , 15-H ) :   0.9770
B( 16-S , 17-C ) :   1.1359 B( 16-S , 20-C ) :   1.1268 B( 17-C , 18-C ) :   1.6351
B( 17-C , 33-H ) :   0.9784 B( 18-C , 19-C ) :   1.2229 B( 18-C , 21-H ) :   0.9892
B( 19-C , 20-C ) :   1.6257 B( 19-C , 22-C ) :   1.0350 B( 22-C , 23-H ) :   0.9374
B( 22-C , 24-H ) :   0.9310 B( 22-C , 25-C ) :   1.0509 B( 25-C , 26-H ) :   0.9551
B( 25-C , 27-H ) :   0.9601 B( 25-C , 28-C ) :   1.0766 B( 28-C , 29-H ) :   0.9626
B( 28-C , 30-H ) :   0.9737 B( 28-C , 31-H ) :   0.9756

Dispersion correction           -0.015799904
FINAL SINGLE POINT ENERGY     -1339.869892810167

DIPOLE MOMENT
-------------
                                X             Y             Z
Electronic contribution:    -22.44744       3.08447      -6.65162
Nuclear contribution   :     22.90275      -3.17296       7.10861
                        -----------------------------------------
Total Dipole Moment    :      0.45531      -0.08850       0.45699
                        -----------------------------------------
Magnitude (a.u.)       :      0.65114
Magnitude (Debye)      :      1.65506

Rotational constants in cm-1:     0.024188     0.007667     0.007041
Rotational constants in MHz :   725.125202   229.839889   211.090237

                             ****ORCA TERMINATED NORMALLY****
TOTAL RUN TIME: 0 days 0 hours 0 minutes 22 seconds 335 msec
