                         Program Version 4.2.1 -  RELEASE  -
|  1> ! wB97X-D3 SP def2-SVP
|  2> %pal
|  3> nprocs 24
|  4> end
|  5>
|  6> * xyz 0 1
|  7> S 	 -103.848 	 21.6495 	 -112.414
|  8> C 	 -103.961 	 20.5005 	 -113.72
|  9> C 	 -105.215 	 20.4012 	 -114.218
| 10> C 	 -106.104 	 21.261 	 -113.537
| 11> C 	 -105.562 	 22.0409 	 -112.586
| 12> H 	 -107.118 	 21.3562 	 -113.658
| 13> C 	 -105.723 	 19.5226 	 -115.295
| 14> H 	 -106.024 	 20.1931 	 -116.13
| 15> H 	 -106.675 	 19.115 	 -114.93
| 16> C 	 -104.935 	 18.3607 	 -115.844
| 17> H 	 -105.319 	 18.0483 	 -116.875
| 18> H 	 -103.903 	 18.6405 	 -115.902
| 19> C 	 -104.955 	 17.0424 	 -115.022
| 20> H 	 -106.007 	 16.6705 	 -115.134
| 21> H 	 -104.244 	 16.3214 	 -115.433
| 22> H 	 -104.692 	 17.1492 	 -113.944
| 23> S 	 -105.68 	 23.1753 	 -110.101
| 24> C 	 -106.92 	 24.2137 	 -109.666
| 25> C 	 -107.708 	 24.5425 	 -110.716
| 26> C 	 -107.435 	 23.7757 	 -111.936
| 27> C 	 -106.269 	 22.9993 	 -111.725
| 28> H 	 -108.451 	 25.3049 	 -110.625
| 29> C 	 -108.185 	 24.019 	 -113.176
| 30> H 	 -107.433 	 24.0533 	 -114.062
| 31> H 	 -108.596 	 24.994 	 -112.99
| 32> C 	 -109.393 	 23.117 	 -113.445
| 33> H 	 -110.217 	 23.3969 	 -112.693
| 34> H 	 -109.195 	 22.0572 	 -113.241
| 35> C 	 -110.013 	 23.3467 	 -114.802
| 36> H 	 -109.323 	 23.0462 	 -115.587
| 37> H 	 -110.188 	 24.4104 	 -114.936
| 38> H 	 -110.968 	 22.7851 	 -114.831
| 39> H 	 -103.174 	 19.9551 	 -114.224
| 40> H 	 -107.021 	 24.6536 	 -108.663
| 41> *
| 42>
| 43>                          ****END OF INPUT****

CARTESIAN COORDINATES (ANGSTROEM)
---------------------------------
  S    -103.848000   21.649500  -112.414000
  C    -103.961000   20.500500  -113.720000
  C    -105.215000   20.401200  -114.218000
  C    -106.104000   21.261000  -113.537000
  C    -105.562000   22.040900  -112.586000
  H    -107.118000   21.356200  -113.658000
  C    -105.723000   19.522600  -115.295000
  H    -106.024000   20.193100  -116.130000
  H    -106.675000   19.115000  -114.930000
  C    -104.935000   18.360700  -115.844000
  H    -105.319000   18.048300  -116.875000
  H    -103.903000   18.640500  -115.902000
  C    -104.955000   17.042400  -115.022000
  H    -106.007000   16.670500  -115.134000
  H    -104.244000   16.321400  -115.433000
  H    -104.692000   17.149200  -113.944000
  S    -105.680000   23.175300  -110.101000
  C    -106.920000   24.213700  -109.666000
  C    -107.708000   24.542500  -110.716000
  C    -107.435000   23.775700  -111.936000
  C    -106.269000   22.999300  -111.725000
  H    -108.451000   25.304900  -110.625000
  C    -108.185000   24.019000  -113.176000
  H    -107.433000   24.053300  -114.062000
  H    -108.596000   24.994000  -112.990000
  C    -109.393000   23.117000  -113.445000
  H    -110.217000   23.396900  -112.693000
  H    -109.195000   22.057200  -113.241000
  C    -110.013000   23.346700  -114.802000
  H    -109.323000   23.046200  -115.587000
  H    -110.188000   24.410400  -114.936000
  H    -110.968000   22.785100  -114.831000
  H    -103.174000   19.955100  -114.224000
  H    -107.021000   24.653600  -108.663000

 Total Charge           Charge          ....    0
 Multiplicity           Mult            ....    1
 Number of Electrons    NEL             ....  134
 Basis Dimension        Dim             ....  322

ORBITAL ENERGIES
----------------

  NO   OCC          E(Eh)            E(eV)
   0   2.0000     -88.964018     -2420.8340
   1   2.0000     -88.963879     -2420.8302
   2   2.0000     -10.328969      -281.0655
   3   2.0000     -10.326473      -280.9976
   4   2.0000     -10.310802      -280.5712
   5   2.0000     -10.307597      -280.4840
   6   2.0000     -10.306900      -280.4650
   7   2.0000     -10.296646      -280.1860
   8   2.0000     -10.293776      -280.1079
   9   2.0000     -10.293314      -280.0953
  10   2.0000     -10.292600      -280.0759
  11   2.0000     -10.292405      -280.0706
  12   2.0000     -10.291115      -280.0355
  13   2.0000     -10.284042      -279.8430
  14   2.0000     -10.280485      -279.7462
  15   2.0000     -10.278822      -279.7010
  16   2.0000      -8.080666      -219.8861
  17   2.0000      -8.078514      -219.8276
  18   2.0000      -6.039073      -164.3315
  19   2.0000      -6.037226      -164.2813
  20   2.0000      -6.034851      -164.2167
  21   2.0000      -6.033140      -164.1701
  22   2.0000      -6.031475      -164.1248
  23   2.0000      -6.028973      -164.0567
  24   2.0000      -1.013299       -27.5733
  25   2.0000      -0.993006       -27.0211
  26   2.0000      -0.918480       -24.9931
  27   2.0000      -0.915641       -24.9159
  28   2.0000      -0.871124       -23.7045
  29   2.0000      -0.859479       -23.3876
  30   2.0000      -0.850666       -23.1478
  31   2.0000      -0.818147       -22.2629
  32   2.0000      -0.784430       -21.3454
  33   2.0000      -0.774701       -21.0807
  34   2.0000      -0.709803       -19.3147
  35   2.0000      -0.700352       -19.0575
  36   2.0000      -0.687938       -18.7197
  37   2.0000      -0.666993       -18.1498
  38   2.0000      -0.638609       -17.3774
  39   2.0000      -0.614013       -16.7081
  40   2.0000      -0.598676       -16.2908
  41   2.0000      -0.581654       -15.8276
  42   2.0000      -0.567860       -15.4523
  43   2.0000      -0.554005       -15.0752
  44   2.0000      -0.540396       -14.7049
  45   2.0000      -0.530566       -14.4374
  46   2.0000      -0.519889       -14.1469
  47   2.0000      -0.512347       -13.9417
  48   2.0000      -0.506909       -13.7937
  49   2.0000      -0.500387       -13.6162
  50   2.0000      -0.495712       -13.4890
  51   2.0000      -0.485290       -13.2054
  52   2.0000      -0.476009       -12.9529
  53   2.0000      -0.465645       -12.6708
  54   2.0000      -0.458564       -12.4782
  55   2.0000      -0.451640       -12.2897
  56   2.0000      -0.442209       -12.0331
  57   2.0000      -0.439238       -11.9523
  58   2.0000      -0.435635       -11.8542
  59   2.0000      -0.426120       -11.5953
  60   2.0000      -0.421519       -11.4701
  61   2.0000      -0.416193       -11.3252
  62   2.0000      -0.412250       -11.2179
  63   2.0000      -0.361650        -9.8410
  64   2.0000      -0.330745        -9.0000
  65   2.0000      -0.325853        -8.8669
  66   2.0000      -0.287265        -7.8169
  67   0.0000       0.030302         0.8245
  68   0.0000       0.085179         2.3178
  69   0.0000       0.112261         3.0548
  70   0.0000       0.122139         3.3236
  71   0.0000       0.128227         3.4892

MULLIKEN ATOMIC CHARGES
-----------------------
   0 S :    0.099746
   1 C :   -0.114536
   2 C :   -0.058309
   3 C :    0.024392
   4 C :   -0.086586
   5 H :   -0.071511
   6 C :    0.066110
   7 H :    0.044286
   8 H :    0.022842
   9 C :   -0.080748
  10 H :    0.041088
  11 H :    0.018654
  12 C :   -0.084128
  13 H :    0.037303
  14 H :    0.040867
  15 H :    0.047410
  16 S :    0.113767
  17 C :   -0.087367
  18 C :   -0.026593
  19 C :   -0.046376
  20 C :   -0.145385
  21 H :    0.005662
  22 C :    0.027065
  23 H :    0.056815
  24 H :    0.015288
  25 C :   -0.118657
  26 H :    0.030819
  27 H :    0.046026
  28 C :   -0.016144
  29 H :    0.029641
  30 H :    0.025381
  31 H :    0.045204
  32 H :    0.033182
  33 H :    0.064793
Sum of atomic charges:   -0.0000000

LOEWDIN ATOMIC CHARGES
----------------------
   0 S :    0.386273
   1 C :   -0.201156
   2 C :   -0.064148
   3 C :   -0.059232
   4 C :   -0.174914
   5 H :    0.014089
   6 C :   -0.039928
   7 H :    0.042669
   8 H :    0.033902
   9 C :   -0.046705
  10 H :    0.037437
  11 H :    0.015116
  12 C :   -0.071744
  13 H :    0.027589
  14 H :    0.026749
  15 H :    0.028411
  16 S :    0.439581
  17 C :   -0.211924
  18 C :   -0.072575
  19 C :   -0.054493
  20 C :   -0.198406
  21 H :    0.025317
  22 C :   -0.045007
  23 H :    0.044109
  24 H :    0.032443
  25 C :   -0.048280
  26 H :    0.032175
  27 H :    0.019268
  28 C :   -0.063171
  29 H :    0.022832
  30 H :    0.024706
  31 H :    0.033037
  32 H :    0.028777
  33 H :    0.037203

  Mayer bond orders larger than 0.100000
B(  0-S ,  1-C ) :   1.1111 B(  0-S ,  4-C ) :   1.1215 B(  1-C ,  2-C ) :   1.6601
B(  1-C , 32-H ) :   0.9567 B(  2-C ,  3-C ) :   1.2082 B(  2-C ,  6-C ) :   1.0118
B(  3-C ,  4-C ) :   1.6120 B(  3-C ,  5-H ) :   1.0140 B(  4-C , 20-C ) :   1.0510
B(  6-C ,  7-H ) :   0.9248 B(  6-C ,  8-H ) :   0.9407 B(  6-C ,  9-C ) :   1.0769
B(  9-C , 10-H ) :   0.9522 B(  9-C , 11-H ) :   0.9531 B(  9-C , 12-C ) :   1.0786
B( 12-C , 13-H ) :   0.9749 B( 12-C , 14-H ) :   0.9757 B( 12-C , 15-H ) :   0.9772
B( 16-S , 17-C ) :   1.1700 B( 16-S , 20-C ) :   1.1539 B( 17-C , 18-C ) :   1.6080
B( 17-C , 33-H ) :   0.9623 B( 18-C , 19-C ) :   1.2472 B( 18-C , 21-H ) :   0.9901
B( 19-C , 20-C ) :   1.5588 B( 19-C , 22-C ) :   1.0570 B( 22-C , 23-H ) :   0.9407
B( 22-C , 24-H ) :   0.9191 B( 22-C , 25-C ) :   1.0548 B( 25-C , 26-H ) :   0.9465
B( 25-C , 27-H ) :   0.9549 B( 25-C , 28-C ) :   1.0866 B( 28-C , 29-H ) :   0.9734
B( 28-C , 30-H ) :   0.9693 B( 28-C , 31-H ) :   0.9726

Dispersion correction           -0.013903362
FINAL SINGLE POINT ENERGY     -1339.884615582945

DIPOLE MOMENT
-------------
                                X             Y             Z
Electronic contribution:     15.92857      11.54855      21.49781
Nuclear contribution   :    -16.52068     -11.54971     -21.91775
                        -----------------------------------------
Total Dipole Moment    :     -0.59212      -0.00116      -0.41994
                        -----------------------------------------
Magnitude (a.u.)       :      0.72592
Magnitude (Debye)      :      1.84513

Rotational constants in cm-1:     0.018586     0.008684     0.006303
Rotational constants in MHz :   557.194579   260.330562   188.965780

                             ****ORCA TERMINATED NORMALLY****
TOTAL RUN TIME: 0 days 0 hours 0 minutes 21 seconds 438 msec
