                         Program Version 4.2.1 -  RELEASE  -
|  1> ! wB97X-D3 SP def2-SVP
|  2> %pal
|  3> nprocs 24
|  4> end
|  5>
|  6> * xyz 0 1
|  7> S 	 -61.339 	 18.3579 	 -106.165
|  8> C 	 -63.0603 	 18.2553 	 -105.756
|  9> C 	 -63.2487 	 17.1305 	 -104.994
| 10> C 	 -62.1138 	 16.2795 	 -104.941
| 11> C 	 -60.9799 	 16.7687 	 -105.524
| 12> H 	 -62.1787 	 15.2646 	 -104.61
| 13> C 	 -64.6134 	 16.7504 	 -104.386
| 14> H 	 -64.5086 	 15.7427 	 -104.027
| 15> H 	 -65.3961 	 16.6908 	 -105.157
| 16> C 	 -64.8906 	 17.5512 	 -103.051
| 17> H 	 -64.1105 	 17.3884 	 -102.323
| 18> H 	 -64.7709 	 18.6472 	 -103.103
| 19> C 	 -66.2784 	 17.2062 	 -102.516
| 20> H 	 -66.3529 	 16.1445 	 -102.282
| 21> H 	 -66.5734 	 17.7565 	 -101.608
| 22> H 	 -67.1006 	 17.4687 	 -103.127
| 23> S 	 -59.1654 	 15.543 	 -107.178
| 24> C 	 -57.7374 	 14.7888 	 -106.457
| 25> C 	 -57.7462 	 14.9679 	 -105.145
| 26> C 	 -58.8945 	 15.6487 	 -104.599
| 27> C 	 -59.6534 	 16.1705 	 -105.644
| 28> H 	 -56.9319 	 14.5197 	 -104.689
| 29> C 	 -59.2877 	 15.6144 	 -103.189
| 30> H 	 -58.6488 	 15.0474 	 -102.523
| 31> H 	 -60.233 	 15.0967 	 -103.092
| 32> C 	 -59.4514 	 16.9571 	 -102.494
| 33> H 	 -60.2233 	 17.5059 	 -103.082
| 34> H 	 -58.6459 	 17.5661 	 -102.446
| 35> C 	 -60.0063 	 16.7654 	 -101.019
| 36> H 	 -60.8462 	 16.0757 	 -100.942
| 37> H 	 -60.3744 	 17.6337 	 -100.514
| 38> H 	 -59.2175 	 16.2855 	 -100.395
| 39> H 	 -63.7295 	 18.9846 	 -106.011
| 40> H 	 -56.9907 	 14.2458 	 -107.067
| 41> *
| 42>
| 43>                          ****END OF INPUT****

CARTESIAN COORDINATES (ANGSTROEM)
---------------------------------
  S    -61.339000   18.357900  -106.165000
  C    -63.060300   18.255300  -105.756000
  C    -63.248700   17.130500  -104.994000
  C    -62.113800   16.279500  -104.941000
  C    -60.979900   16.768700  -105.524000
  H    -62.178700   15.264600  -104.610000
  C    -64.613400   16.750400  -104.386000
  H    -64.508600   15.742700  -104.027000
  H    -65.396100   16.690800  -105.157000
  C    -64.890600   17.551200  -103.051000
  H    -64.110500   17.388400  -102.323000
  H    -64.770900   18.647200  -103.103000
  C    -66.278400   17.206200  -102.516000
  H    -66.352900   16.144500  -102.282000
  H    -66.573400   17.756500  -101.608000
  H    -67.100600   17.468700  -103.127000
  S    -59.165400   15.543000  -107.178000
  C    -57.737400   14.788800  -106.457000
  C    -57.746200   14.967900  -105.145000
  C    -58.894500   15.648700  -104.599000
  C    -59.653400   16.170500  -105.644000
  H    -56.931900   14.519700  -104.689000
  C    -59.287700   15.614400  -103.189000
  H    -58.648800   15.047400  -102.523000
  H    -60.233000   15.096700  -103.092000
  C    -59.451400   16.957100  -102.494000
  H    -60.223300   17.505900  -103.082000
  H    -58.645900   17.566100  -102.446000
  C    -60.006300   16.765400  -101.019000
  H    -60.846200   16.075700  -100.942000
  H    -60.374400   17.633700  -100.514000
  H    -59.217500   16.285500  -100.395000
  H    -63.729500   18.984600  -106.011000
  H    -56.990700   14.245800  -107.067000

 Total Charge           Charge          ....    0
 Multiplicity           Mult            ....    1
 Number of Electrons    NEL             ....  134
 Basis Dimension        Dim             ....  322

ORBITAL ENERGIES
----------------

  NO   OCC          E(Eh)            E(eV)
   0   2.0000     -88.961642     -2420.7693
   1   2.0000     -88.960562     -2420.7400
   2   2.0000     -10.327223      -281.0180
   3   2.0000     -10.324463      -280.9429
   4   2.0000     -10.315828      -280.7079
   5   2.0000     -10.309189      -280.5273
   6   2.0000     -10.305621      -280.4302
   7   2.0000     -10.299887      -280.2742
   8   2.0000     -10.297075      -280.1977
   9   2.0000     -10.291470      -280.0451
  10   2.0000     -10.289887      -280.0020
  11   2.0000     -10.286710      -279.9156
  12   2.0000     -10.285614      -279.8858
  13   2.0000     -10.278385      -279.6891
  14   2.0000     -10.278027      -279.6793
  15   2.0000     -10.275315      -279.6055
  16   2.0000      -8.076934      -219.7845
  17   2.0000      -8.075169      -219.7365
  18   2.0000      -6.035432      -164.2324
  19   2.0000      -6.033645      -164.1838
  20   2.0000      -6.031414      -164.1231
  21   2.0000      -6.029582      -164.0733
  22   2.0000      -6.027599      -164.0193
  23   2.0000      -6.026072      -163.9778
  24   2.0000      -1.010473       -27.4964
  25   2.0000      -0.987352       -26.8672
  26   2.0000      -0.912538       -24.8314
  27   2.0000      -0.905929       -24.6516
  28   2.0000      -0.873988       -23.7824
  29   2.0000      -0.846902       -23.0454
  30   2.0000      -0.844726       -22.9862
  31   2.0000      -0.822030       -22.3686
  32   2.0000      -0.781650       -21.2698
  33   2.0000      -0.770897       -20.9772
  34   2.0000      -0.714282       -19.4366
  35   2.0000      -0.709246       -19.2996
  36   2.0000      -0.697235       -18.9727
  37   2.0000      -0.661729       -18.0066
  38   2.0000      -0.649539       -17.6749
  39   2.0000      -0.622499       -16.9391
  40   2.0000      -0.603722       -16.4281
  41   2.0000      -0.573935       -15.6176
  42   2.0000      -0.564809       -15.3692
  43   2.0000      -0.553562       -15.0632
  44   2.0000      -0.527128       -14.3439
  45   2.0000      -0.519866       -14.1463
  46   2.0000      -0.519428       -14.1344
  47   2.0000      -0.516903       -14.0656
  48   2.0000      -0.511825       -13.9275
  49   2.0000      -0.497169       -13.5287
  50   2.0000      -0.494728       -13.4622
  51   2.0000      -0.488367       -13.2892
  52   2.0000      -0.472289       -12.8516
  53   2.0000      -0.462604       -12.5881
  54   2.0000      -0.458922       -12.4879
  55   2.0000      -0.451818       -12.2946
  56   2.0000      -0.443336       -12.0638
  57   2.0000      -0.436644       -11.8817
  58   2.0000      -0.431530       -11.7425
  59   2.0000      -0.426490       -11.6054
  60   2.0000      -0.418167       -11.3789
  61   2.0000      -0.410926       -11.1819
  62   2.0000      -0.408535       -11.1168
  63   2.0000      -0.345499        -9.4015
  64   2.0000      -0.329303        -8.9608
  65   2.0000      -0.322916        -8.7870
  66   2.0000      -0.304489        -8.2856
  67   0.0000       0.033459         0.9105
  68   0.0000       0.066757         1.8166
  69   0.0000       0.116612         3.1732
  70   0.0000       0.122780         3.3410
  71   0.0000       0.133877         3.6430

MULLIKEN ATOMIC CHARGES
-----------------------
   0 S :    0.094524
   1 C :   -0.087144
   2 C :   -0.092133
   3 C :    0.041056
   4 C :   -0.175875
   5 H :    0.010402
   6 C :    0.067842
   7 H :    0.007559
   8 H :    0.046580
   9 C :   -0.069047
  10 H :    0.023206
  11 H :    0.026157
  12 C :   -0.032074
  13 H :    0.027310
  14 H :    0.025878
  15 H :    0.021546
  16 S :    0.101853
  17 C :   -0.113642
  18 C :    0.004361
  19 C :    0.004661
  20 C :   -0.132515
  21 H :   -0.011261
  22 C :    0.085855
  23 H :    0.006909
  24 H :    0.016703
  25 C :   -0.057322
  26 H :    0.046069
  27 H :    0.011088
  28 C :   -0.062751
  29 H :    0.015811
  30 H :    0.032783
  31 H :    0.029018
  32 H :    0.017011
  33 H :    0.069581
Sum of atomic charges:    0.0000000

LOEWDIN ATOMIC CHARGES
----------------------
   0 S :    0.394454
   1 C :   -0.167489
   2 C :   -0.063416
   3 C :   -0.068167
   4 C :   -0.193359
   5 H :    0.028077
   6 C :   -0.025899
   7 H :    0.025863
   8 H :    0.034457
   9 C :   -0.040468
  10 H :    0.025722
  11 H :    0.023639
  12 C :   -0.069963
  13 H :    0.024216
  14 H :    0.028971
  15 H :    0.020154
  16 S :    0.403703
  17 C :   -0.173947
  18 C :   -0.066861
  19 C :   -0.043843
  20 C :   -0.209553
  21 H :    0.023554
  22 C :   -0.034483
  23 H :    0.028454
  24 H :    0.033883
  25 C :   -0.023965
  26 H :    0.029357
  27 H :    0.008214
  28 C :   -0.069016
  29 H :    0.020363
  30 H :    0.022664
  31 H :    0.025816
  32 H :    0.010666
  33 H :    0.038199

  Mayer bond orders larger than 0.100000
B(  0-S ,  1-C ) :   1.1371 B(  0-S ,  4-C ) :   1.1548 B(  1-C ,  2-C ) :   1.5935
B(  1-C ,  4-C ) :   0.1006 B(  1-C , 32-H ) :   0.9929 B(  2-C ,  3-C ) :   1.2558
B(  2-C ,  6-C ) :   1.0154 B(  3-C ,  4-C ) :   1.5812 B(  3-C ,  5-H ) :   0.9935
B(  4-C , 20-C ) :   1.0035 B(  6-C ,  7-H ) :   0.9398 B(  6-C ,  8-H ) :   0.9549
B(  6-C ,  9-C ) :   1.0360 B(  9-C , 10-H ) :   0.9531 B(  9-C , 11-H ) :   0.9626
B(  9-C , 12-C ) :   1.0817 B( 12-C , 13-H ) :   0.9742 B( 12-C , 14-H ) :   0.9709
B( 12-C , 15-H ) :   0.9756 B( 16-S , 17-C ) :   1.1363 B( 16-S , 20-C ) :   1.1588
B( 17-C , 18-C ) :   1.6471 B( 17-C , 33-H ) :   0.9629 B( 18-C , 19-C ) :   1.1974
B( 18-C , 21-H ) :   1.0059 B( 19-C , 20-C ) :   1.5850 B( 19-C , 22-C ) :   1.0608
B( 22-C , 23-H ) :   0.9351 B( 22-C , 24-H ) :   0.9203 B( 22-C , 25-C ) :   1.0541
B( 25-C , 26-H ) :   0.9554 B( 25-C , 27-H ) :   0.9608 B( 25-C , 28-C ) :   1.0735
B( 28-C , 29-H ) :   0.9752 B( 28-C , 30-H ) :   0.9768 B( 28-C , 31-H ) :   0.9751

Dispersion correction           -0.014755119
FINAL SINGLE POINT ENERGY     -1339.865066008342

DIPOLE MOMENT
-------------
                                X             Y             Z
Electronic contribution:     16.21629       0.53138     -27.17993
Nuclear contribution   :    -16.46038      -0.92320      27.72360
                        -----------------------------------------
Total Dipole Moment    :     -0.24408      -0.39182       0.54367
                        -----------------------------------------
Magnitude (a.u.)       :      0.71322
Magnitude (Debye)      :      1.81286

Rotational constants in cm-1:     0.020245     0.008583     0.006880
Rotational constants in MHz :   606.931877   257.303062   206.252067

                             ****ORCA TERMINATED NORMALLY****
TOTAL RUN TIME: 0 days 0 hours 0 minutes 22 seconds 255 msec
