                         Program Version 4.2.1 -  RELEASE  -
|  1> ! wB97X-D3 SP def2-SVP
|  2> %pal
|  3> nprocs 24
|  4> end
|  5>
|  6> * xyz 0 1
|  7> S 	 -89.9718 	 -4.59 	 -111.808
|  8> C 	 -89.0074 	 -4.4441 	 -113.222
|  9> C 	 -89.7905 	 -4.07622 	 -114.28
| 10> C 	 -91.175 	 -4.08418 	 -113.94
| 11> C 	 -91.4993 	 -4.38993 	 -112.654
| 12> H 	 -92.0198 	 -3.83677 	 -114.597
| 13> C 	 -89.3748 	 -3.65173 	 -115.648
| 14> H 	 -88.6667 	 -2.82781 	 -115.609
| 15> H 	 -90.2083 	 -3.13207 	 -116.161
| 16> C 	 -88.8692 	 -4.71375 	 -116.627
| 17> H 	 -87.9122 	 -5.08839 	 -116.22
| 18> H 	 -89.3919 	 -5.57099 	 -116.521
| 19> C 	 -88.7212 	 -4.18551 	 -118.082
| 20> H 	 -89.6931 	 -3.93649 	 -118.623
| 21> H 	 -88.1416 	 -3.24457 	 -118.037
| 22> H 	 -88.0642 	 -4.83206 	 -118.689
| 23> S 	 -93.4207 	 -6.31081 	 -111.706
| 24> C 	 -94.9799 	 -5.71972 	 -111.391
| 25> C 	 -95.0776 	 -4.32127 	 -111.479
| 26> C 	 -93.8777 	 -3.74415 	 -112.009
| 27> C 	 -92.7867 	 -4.61115 	 -112.028
| 28> H 	 -95.9841 	 -3.7532 	 -111.537
| 29> C 	 -93.8139 	 -2.29925 	 -112.585
| 30> H 	 -92.7709 	 -1.85893 	 -112.566
| 31> H 	 -94.3554 	 -1.62108 	 -111.834
| 32> C 	 -94.2831 	 -2.06237 	 -114.038
| 33> H 	 -93.7159 	 -2.69519 	 -114.758
| 34> H 	 -94.034 	 -1.01415 	 -114.227
| 35> C 	 -95.7143 	 -2.25656 	 -114.288
| 36> H 	 -96.3632 	 -1.9102 	 -113.507
| 37> H 	 -95.8356 	 -3.3055 	 -114.402
| 38> H 	 -96.1236 	 -1.73103 	 -115.255
| 39> H 	 -87.9388 	 -4.56553 	 -113.196
| 40> H 	 -95.83 	 -6.36805 	 -111.263
| 41> *
| 42>
| 43>                          ****END OF INPUT****

CARTESIAN COORDINATES (ANGSTROEM)
---------------------------------
  S    -89.971800   -4.590000  -111.808000
  C    -89.007400   -4.444100  -113.222000
  C    -89.790500   -4.076220  -114.280000
  C    -91.175000   -4.084180  -113.940000
  C    -91.499300   -4.389930  -112.654000
  H    -92.019800   -3.836770  -114.597000
  C    -89.374800   -3.651730  -115.648000
  H    -88.666700   -2.827810  -115.609000
  H    -90.208300   -3.132070  -116.161000
  C    -88.869200   -4.713750  -116.627000
  H    -87.912200   -5.088390  -116.220000
  H    -89.391900   -5.570990  -116.521000
  C    -88.721200   -4.185510  -118.082000
  H    -89.693100   -3.936490  -118.623000
  H    -88.141600   -3.244570  -118.037000
  H    -88.064200   -4.832060  -118.689000
  S    -93.420700   -6.310810  -111.706000
  C    -94.979900   -5.719720  -111.391000
  C    -95.077600   -4.321270  -111.479000
  C    -93.877700   -3.744150  -112.009000
  C    -92.786700   -4.611150  -112.028000
  H    -95.984100   -3.753200  -111.537000
  C    -93.813900   -2.299250  -112.585000
  H    -92.770900   -1.858930  -112.566000
  H    -94.355400   -1.621080  -111.834000
  C    -94.283100   -2.062370  -114.038000
  H    -93.715900   -2.695190  -114.758000
  H    -94.034000   -1.014150  -114.227000
  C    -95.714300   -2.256560  -114.288000
  H    -96.363200   -1.910200  -113.507000
  H    -95.835600   -3.305500  -114.402000
  H    -96.123600   -1.731030  -115.255000
  H    -87.938800   -4.565530  -113.196000
  H    -95.830000   -6.368050  -111.263000

 Total Charge           Charge          ....    0
 Multiplicity           Mult            ....    1
 Number of Electrons    NEL             ....  134
 Basis Dimension        Dim             ....  322

ORBITAL ENERGIES
----------------

  NO   OCC          E(Eh)            E(eV)
   0   2.0000     -88.969416     -2420.9809
   1   2.0000     -88.958903     -2420.6948
   2   2.0000     -10.330283      -281.1013
   3   2.0000     -10.324725      -280.9500
   4   2.0000     -10.324282      -280.9380
   5   2.0000     -10.312611      -280.6204
   6   2.0000     -10.310589      -280.5654
   7   2.0000     -10.305428      -280.4249
   8   2.0000     -10.298095      -280.2254
   9   2.0000     -10.296292      -280.1764
  10   2.0000     -10.290623      -280.0221
  11   2.0000     -10.290161      -280.0095
  12   2.0000     -10.290055      -280.0066
  13   2.0000     -10.288736      -279.9707
  14   2.0000     -10.280684      -279.7516
  15   2.0000     -10.276986      -279.6510
  16   2.0000      -8.083764      -219.9704
  17   2.0000      -8.074539      -219.7194
  18   2.0000      -6.042189      -164.4163
  19   2.0000      -6.038334      -164.3114
  20   2.0000      -6.034600      -164.2098
  21   2.0000      -6.032985      -164.1659
  22   2.0000      -6.028805      -164.0521
  23   2.0000      -6.025409      -163.9597
  24   2.0000      -1.007144       -27.4058
  25   2.0000      -0.985859       -26.8266
  26   2.0000      -0.913235       -24.8504
  27   2.0000      -0.911009       -24.7898
  28   2.0000      -0.873112       -23.7586
  29   2.0000      -0.852871       -23.2078
  30   2.0000      -0.845371       -23.0037
  31   2.0000      -0.811457       -22.0809
  32   2.0000      -0.784710       -21.3530
  33   2.0000      -0.770743       -20.9730
  34   2.0000      -0.711667       -19.3654
  35   2.0000      -0.704938       -19.1823
  36   2.0000      -0.688392       -18.7321
  37   2.0000      -0.661259       -17.9938
  38   2.0000      -0.650675       -17.7058
  39   2.0000      -0.615733       -16.7550
  40   2.0000      -0.599127       -16.3031
  41   2.0000      -0.571278       -15.5453
  42   2.0000      -0.559810       -15.2332
  43   2.0000      -0.552721       -15.0403
  44   2.0000      -0.541170       -14.7260
  45   2.0000      -0.524077       -14.2609
  46   2.0000      -0.516066       -14.0429
  47   2.0000      -0.512113       -13.9353
  48   2.0000      -0.507136       -13.7999
  49   2.0000      -0.497787       -13.5455
  50   2.0000      -0.494009       -13.4427
  51   2.0000      -0.482048       -13.1172
  52   2.0000      -0.474294       -12.9062
  53   2.0000      -0.467256       -12.7147
  54   2.0000      -0.460781       -12.5385
  55   2.0000      -0.450591       -12.2612
  56   2.0000      -0.442399       -12.0383
  57   2.0000      -0.437544       -11.9062
  58   2.0000      -0.430454       -11.7133
  59   2.0000      -0.423717       -11.5299
  60   2.0000      -0.416773       -11.3410
  61   2.0000      -0.411010       -11.1842
  62   2.0000      -0.407921       -11.1001
  63   2.0000      -0.340036        -9.2528
  64   2.0000      -0.334513        -9.1026
  65   2.0000      -0.324342        -8.8258
  66   2.0000      -0.301710        -8.2100
  67   0.0000       0.033996         0.9251
  68   0.0000       0.053473         1.4551
  69   0.0000       0.106802         2.9062
  70   0.0000       0.117542         3.1985
  71   0.0000       0.128061         3.4847

MULLIKEN ATOMIC CHARGES
-----------------------
   0 S :    0.100114
   1 C :   -0.123114
   2 C :   -0.054722
   3 C :    0.029568
   4 C :   -0.174894
   5 H :   -0.002182
   6 C :    0.043990
   7 H :    0.023676
   8 H :    0.011785
   9 C :   -0.012009
  10 H :    0.012164
  11 H :   -0.000117
  12 C :   -0.075326
  13 H :    0.053617
  14 H :    0.027126
  15 H :    0.040055
  16 S :    0.115409
  17 C :   -0.092934
  18 C :    0.004567
  19 C :   -0.054310
  20 C :   -0.133184
  21 H :    0.016087
  22 C :   -0.016375
  23 H :    0.050837
  24 H :    0.040744
  25 C :   -0.048172
  26 H :    0.033051
  27 H :    0.030465
  28 C :   -0.060220
  29 H :    0.023916
  30 H :    0.030942
  31 H :    0.044296
  32 H :    0.048696
  33 H :    0.066452
Sum of atomic charges:    0.0000000

LOEWDIN ATOMIC CHARGES
----------------------
   0 S :    0.412280
   1 C :   -0.192703
   2 C :   -0.073273
   3 C :   -0.060681
   4 C :   -0.199831
   5 H :    0.029771
   6 C :   -0.036565
   7 H :    0.028592
   8 H :    0.030181
   9 C :   -0.035573
  10 H :    0.025796
  11 H :    0.008299
  12 C :   -0.072452
  13 H :    0.034335
  14 H :    0.026955
  15 H :    0.029748
  16 S :    0.404003
  17 C :   -0.183390
  18 C :   -0.081598
  19 C :   -0.042174
  20 C :   -0.192968
  21 H :    0.027776
  22 C :   -0.040713
  23 H :    0.041290
  24 H :    0.037500
  25 C :   -0.043689
  26 H :    0.026396
  27 H :    0.027360
  28 C :   -0.072561
  29 H :    0.017907
  30 H :    0.022171
  31 H :    0.038952
  32 H :    0.028356
  33 H :    0.030499

  Mayer bond orders larger than 0.100000
B(  0-S ,  1-C ) :   1.1627 B(  0-S ,  4-C ) :   1.1430 B(  1-C ,  2-C ) :   1.5754
B(  1-C , 32-H ) :   0.9786 B(  2-C ,  3-C ) :   1.2549 B(  2-C ,  6-C ) :   1.0219
B(  3-C ,  4-C ) :   1.5858 B(  3-C ,  5-H ) :   0.9915 B(  4-C , 20-C ) :   1.0368
B(  6-C ,  7-H ) :   0.9342 B(  6-C ,  8-H ) :   0.9449 B(  6-C ,  9-C ) :   1.0581
B(  9-C , 10-H ) :   0.9485 B(  9-C , 11-H ) :   0.9557 B(  9-C , 12-C ) :   1.0720
B( 12-C , 13-H ) :   0.9751 B( 12-C , 14-H ) :   0.9735 B( 12-C , 15-H ) :   0.9743
B( 16-S , 17-C ) :   1.2035 B( 16-S , 20-C ) :   1.1083 B( 17-C , 18-C ) :   1.5640
B( 17-C , 33-H ) :   0.9652 B( 18-C , 19-C ) :   1.2705 B( 18-C , 21-H ) :   0.9821
B( 19-C , 20-C ) :   1.6004 B( 19-C , 22-C ) :   1.0313 B( 22-C , 23-H ) :   0.9364
B( 22-C , 24-H ) :   0.9410 B( 22-C , 25-C ) :   1.0733 B( 25-C , 26-H ) :   0.9477
B( 25-C , 27-H ) :   0.9503 B( 25-C , 28-C ) :   1.0860 B( 28-C , 29-H ) :   0.9721
B( 28-C , 30-H ) :   0.9734 B( 28-C , 31-H ) :   0.9688

Dispersion correction           -0.014706675
FINAL SINGLE POINT ENERGY     -1339.866408354793

DIPOLE MOMENT
-------------
                                X             Y             Z
Electronic contribution:      1.21242     -14.13264      25.20443
Nuclear contribution   :     -1.45638      14.49216     -25.86362
                        -----------------------------------------
Total Dipole Moment    :     -0.24396       0.35952      -0.65919
                        -----------------------------------------
Magnitude (a.u.)       :      0.78950
Magnitude (Debye)      :      2.00674

Rotational constants in cm-1:     0.018617     0.008234     0.006689
Rotational constants in MHz :   558.134795   246.837801   200.517238

                             ****ORCA TERMINATED NORMALLY****
TOTAL RUN TIME: 0 days 0 hours 0 minutes 21 seconds 644 msec
