                         Program Version 4.2.1 -  RELEASE  -
|  1> ! wB97X-D3 SP def2-SVP
|  2> %pal
|  3> nprocs 24
|  4> end
|  5>
|  6> * xyz 0 1
|  7> S 	 -84.6753 	 0.696801 	 -116.318
|  8> C 	 -85.0309 	 -1.0381 	 -116.183
|  9> C 	 -85.3826 	 -1.65341 	 -117.375
| 10> C 	 -85.4889 	 -0.669592 	 -118.44
| 11> C 	 -85.1895 	 0.655627 	 -118.005
| 12> H 	 -85.6568 	 -0.907255 	 -119.527
| 13> C 	 -85.6431 	 -3.16326 	 -117.6
| 14> H 	 -84.7455 	 -3.70403 	 -117.374
| 15> H 	 -85.8146 	 -3.37502 	 -118.646
| 16> C 	 -86.736 	 -3.83862 	 -116.689
| 17> H 	 -86.7364 	 -4.85508 	 -117.067
| 18> H 	 -86.5171 	 -3.83183 	 -115.618
| 19> C 	 -88.1405 	 -3.2737 	 -116.9
| 20> H 	 -88.4336 	 -3.07888 	 -117.89
| 21> H 	 -88.8897 	 -3.98097 	 -116.549
| 22> H 	 -88.1277 	 -2.39165 	 -116.212
| 23> S 	 -84.2331 	 2.18082 	 -120.228
| 24> C 	 -85.3771 	 3.43818 	 -120.826
| 25> C 	 -86.4319 	 3.65409 	 -119.963
| 26> C 	 -86.3884 	 2.70458 	 -118.897
| 27> C 	 -85.3311 	 1.86654 	 -118.894
| 28> H 	 -87.2881 	 4.26127 	 -120.253
| 29> C 	 -87.6342 	 2.49709 	 -117.998
| 30> H 	 -88.1593 	 3.45529 	 -117.682
| 31> H 	 -87.3054 	 2.1354 	 -117.052
| 32> C 	 -88.6688 	 1.51324 	 -118.519
| 33> H 	 -88.1686 	 0.647196 	 -118.845
| 34> H 	 -89.1793 	 2.02649 	 -119.356
| 35> C 	 -89.7178 	 1.20195 	 -117.444
| 36> H 	 -90.2028 	 2.16503 	 -117.15
| 37> H 	 -89.3707 	 0.649766 	 -116.584
| 38> H 	 -90.5663 	 0.638897 	 -117.851
| 39> H 	 -84.9806 	 -1.64758 	 -115.274
| 40> H 	 -85.2772 	 3.88492 	 -121.764
| 41> *
| 42>
| 43>                          ****END OF INPUT****

CARTESIAN COORDINATES (ANGSTROEM)
---------------------------------
  S    -84.675300    0.696801  -116.318000
  C    -85.030900   -1.038100  -116.183000
  C    -85.382600   -1.653410  -117.375000
  C    -85.488900   -0.669592  -118.440000
  C    -85.189500    0.655627  -118.005000
  H    -85.656800   -0.907255  -119.527000
  C    -85.643100   -3.163260  -117.600000
  H    -84.745500   -3.704030  -117.374000
  H    -85.814600   -3.375020  -118.646000
  C    -86.736000   -3.838620  -116.689000
  H    -86.736400   -4.855080  -117.067000
  H    -86.517100   -3.831830  -115.618000
  C    -88.140500   -3.273700  -116.900000
  H    -88.433600   -3.078880  -117.890000
  H    -88.889700   -3.980970  -116.549000
  H    -88.127700   -2.391650  -116.212000
  S    -84.233100    2.180820  -120.228000
  C    -85.377100    3.438180  -120.826000
  C    -86.431900    3.654090  -119.963000
  C    -86.388400    2.704580  -118.897000
  C    -85.331100    1.866540  -118.894000
  H    -87.288100    4.261270  -120.253000
  C    -87.634200    2.497090  -117.998000
  H    -88.159300    3.455290  -117.682000
  H    -87.305400    2.135400  -117.052000
  C    -88.668800    1.513240  -118.519000
  H    -88.168600    0.647196  -118.845000
  H    -89.179300    2.026490  -119.356000
  C    -89.717800    1.201950  -117.444000
  H    -90.202800    2.165030  -117.150000
  H    -89.370700    0.649766  -116.584000
  H    -90.566300    0.638897  -117.851000
  H    -84.980600   -1.647580  -115.274000
  H    -85.277200    3.884920  -121.764000

 Total Charge           Charge          ....    0
 Multiplicity           Mult            ....    1
 Number of Electrons    NEL             ....  134
 Basis Dimension        Dim             ....  322

ORBITAL ENERGIES
----------------

  NO   OCC          E(Eh)            E(eV)
   0   2.0000     -88.975073     -2421.1348
   1   2.0000     -88.966155     -2420.8921
   2   2.0000     -10.337796      -281.3057
   3   2.0000     -10.324202      -280.9358
   4   2.0000     -10.318962      -280.7932
   5   2.0000     -10.318062      -280.7687
   6   2.0000     -10.307387      -280.4783
   7   2.0000     -10.305779      -280.4345
   8   2.0000     -10.298522      -280.2370
   9   2.0000     -10.297311      -280.2041
  10   2.0000     -10.295685      -280.1598
  11   2.0000     -10.291375      -280.0425
  12   2.0000     -10.284738      -279.8620
  13   2.0000     -10.277305      -279.6597
  14   2.0000     -10.275379      -279.6073
  15   2.0000     -10.273849      -279.5656
  16   2.0000      -8.088191      -220.0909
  17   2.0000      -8.080095      -219.8706
  18   2.0000      -6.046748      -164.5404
  19   2.0000      -6.042991      -164.4381
  20   2.0000      -6.038928      -164.3276
  21   2.0000      -6.038701      -164.3214
  22   2.0000      -6.034820      -164.2158
  23   2.0000      -6.030700      -164.1037
  24   2.0000      -0.998860       -27.1804
  25   2.0000      -0.977088       -26.5879
  26   2.0000      -0.907159       -24.6851
  27   2.0000      -0.903425       -24.5834
  28   2.0000      -0.862590       -23.4723
  29   2.0000      -0.847519       -23.0622
  30   2.0000      -0.843586       -22.9551
  31   2.0000      -0.809265       -22.0212
  32   2.0000      -0.784006       -21.3339
  33   2.0000      -0.768473       -20.9112
  34   2.0000      -0.702428       -19.1140
  35   2.0000      -0.696358       -18.9489
  36   2.0000      -0.690641       -18.7933
  37   2.0000      -0.661834       -18.0094
  38   2.0000      -0.632819       -17.2199
  39   2.0000      -0.606868       -16.5137
  40   2.0000      -0.594922       -16.1887
  41   2.0000      -0.578005       -15.7283
  42   2.0000      -0.566841       -15.4245
  43   2.0000      -0.546979       -14.8841
  44   2.0000      -0.540843       -14.7171
  45   2.0000      -0.516543       -14.0558
  46   2.0000      -0.514002       -13.9867
  47   2.0000      -0.507691       -13.8150
  48   2.0000      -0.506560       -13.7842
  49   2.0000      -0.484162       -13.1747
  50   2.0000      -0.482458       -13.1283
  51   2.0000      -0.477015       -12.9802
  52   2.0000      -0.469852       -12.7853
  53   2.0000      -0.464540       -12.6408
  54   2.0000      -0.461095       -12.5470
  55   2.0000      -0.449006       -12.2181
  56   2.0000      -0.444139       -12.0856
  57   2.0000      -0.436377       -11.8744
  58   2.0000      -0.430000       -11.7009
  59   2.0000      -0.423861       -11.5338
  60   2.0000      -0.419171       -11.4062
  61   2.0000      -0.415148       -11.2968
  62   2.0000      -0.412597       -11.2273
  63   2.0000      -0.336690        -9.1618
  64   2.0000      -0.332903        -9.0588
  65   2.0000      -0.323911        -8.8141
  66   2.0000      -0.305723        -8.3191
  67   0.0000       0.035710         0.9717
  68   0.0000       0.058147         1.5823
  69   0.0000       0.103690         2.8215
  70   0.0000       0.115132         3.1329
  71   0.0000       0.126510         3.4425

MULLIKEN ATOMIC CHARGES
-----------------------
   0 S :    0.134005
   1 C :   -0.134271
   2 C :   -0.093056
   3 C :    0.022068
   4 C :   -0.188315
   5 H :    0.041764
   6 C :    0.088207
   7 H :    0.032561
   8 H :    0.017712
   9 C :   -0.100724
  10 H :    0.027486
  11 H :    0.038127
  12 C :   -0.039385
  13 H :    0.022642
  14 H :    0.029229
  15 H :    0.045470
  16 S :    0.098946
  17 C :   -0.089226
  18 C :   -0.005948
  19 C :   -0.025600
  20 C :   -0.165011
  21 H :    0.032843
  22 C :    0.053678
  23 H :    0.022470
  24 H :   -0.001660
  25 C :   -0.028008
  26 H :    0.018303
  27 H :    0.021183
  28 C :   -0.055930
  29 H :    0.023269
  30 H :    0.042613
  31 H :    0.028337
  32 H :    0.046868
  33 H :    0.039350
Sum of atomic charges:   -0.0000000

LOEWDIN ATOMIC CHARGES
----------------------
   0 S :    0.405305
   1 C :   -0.199294
   2 C :   -0.063905
   3 C :   -0.064126
   4 C :   -0.191279
   5 H :    0.040803
   6 C :   -0.026353
   7 H :    0.032500
   8 H :    0.028755
   9 C :   -0.037274
  10 H :    0.022711
  11 H :    0.024484
  12 C :   -0.065920
  13 H :    0.016486
  14 H :    0.026204
  15 H :    0.033981
  16 S :    0.376884
  17 C :   -0.149312
  18 C :   -0.066637
  19 C :   -0.054167
  20 C :   -0.205186
  21 H :    0.038108
  22 C :   -0.034160
  23 H :    0.031403
  24 H :    0.015488
  25 C :   -0.033089
  26 H :    0.016327
  27 H :    0.024589
  28 C :   -0.065639
  29 H :    0.027277
  30 H :    0.024031
  31 H :    0.026168
  32 H :    0.029522
  33 H :    0.015315

  Mayer bond orders larger than 0.100000
B(  0-S ,  1-C ) :   1.1338 B(  0-S ,  4-C ) :   1.1546 B(  1-C ,  2-C ) :   1.6272
B(  1-C , 32-H ) :   0.9624 B(  2-C ,  3-C ) :   1.2426 B(  2-C ,  6-C ) :   1.0094
B(  3-C ,  4-C ) :   1.5804 B(  3-C ,  5-H ) :   0.9767 B(  4-C , 20-C ) :   1.0030
B(  6-C ,  7-H ) :   0.9371 B(  6-C ,  8-H ) :   0.9461 B(  6-C ,  9-C ) :   1.0740
B(  9-C , 10-H ) :   0.9561 B(  9-C , 11-H ) :   0.9614 B(  9-C , 12-C ) :   1.0734
B( 12-C , 13-H ) :   0.9780 B( 12-C , 14-H ) :   0.9741 B( 12-C , 15-H ) :   0.9759
B( 16-S , 17-C ) :   1.1459 B( 16-S , 20-C ) :   1.1153 B( 17-C , 18-C ) :   1.6313
B( 17-C , 33-H ) :   0.9723 B( 18-C , 19-C ) :   1.2228 B( 18-C , 21-H ) :   0.9873
B( 19-C , 20-C ) :   1.6574 B( 19-C , 22-C ) :   1.0430 B( 22-C , 23-H ) :   0.9384
B( 22-C , 24-H ) :   0.9222 B( 22-C , 25-C ) :   1.0665 B( 25-C , 26-H ) :   0.9501
B( 25-C , 27-H ) :   0.9533 B( 25-C , 28-C ) :   1.0893 B( 28-C , 29-H ) :   0.9709
B( 28-C , 30-H ) :   0.9757 B( 28-C , 31-H ) :   0.9730

Dispersion correction           -0.015661995
FINAL SINGLE POINT ENERGY     -1339.875208931288

DIPOLE MOMENT
-------------
                                X             Y             Z
Electronic contribution:     24.29951      15.79191      -5.60070
Nuclear contribution   :    -24.83748     -16.31052       5.46874
                        -----------------------------------------
Total Dipole Moment    :     -0.53797      -0.51861      -0.13197
                        -----------------------------------------
Magnitude (a.u.)       :      0.75880
Magnitude (Debye)      :      1.92872

Rotational constants in cm-1:     0.019282     0.009123     0.007549
Rotational constants in MHz :   578.055551   273.491579   226.328148

                             ****ORCA TERMINATED NORMALLY****
TOTAL RUN TIME: 0 days 0 hours 0 minutes 22 seconds 503 msec
