                         Program Version 4.2.1 -  RELEASE  -
|  1> ! wB97X-D3 SP def2-SVP
|  2> %pal
|  3> nprocs 24
|  4> end
|  5>
|  6> * xyz 0 1
|  7> S 	 -126.952 	 58.6635 	 -58.231
|  8> C 	 -126.193 	 58.8264 	 -59.8254
|  9> C 	 -127.061 	 59.3221 	 -60.7647
| 10> C 	 -128.385 	 59.4463 	 -60.2155
| 11> C 	 -128.527 	 59.0807 	 -58.897
| 12> H 	 -129.148 	 59.6715 	 -60.8455
| 13> C 	 -126.713 	 59.6764 	 -62.2353
| 14> H 	 -126.832 	 58.8474 	 -62.8291
| 15> H 	 -125.673 	 59.7428 	 -62.3226
| 16> C 	 -127.472 	 60.8921 	 -62.8555
| 17> H 	 -128.518 	 60.7077 	 -62.9066
| 18> H 	 -127.259 	 61.8075 	 -62.2941
| 19> C 	 -127.074 	 61.043 	 -64.3538
| 20> H 	 -127.51 	 60.3389 	 -65.0276
| 21> H 	 -127.347 	 62.0714 	 -64.6374
| 22> H 	 -125.965 	 60.9909 	 -64.4732
| 23> S 	 -129.474 	 58.243 	 -56.5284
| 24> C 	 -131.116 	 58.4246 	 -56.0108
| 25> C 	 -131.889 	 59.0215 	 -56.9828
| 26> C 	 -131.101 	 59.4247 	 -58.1871
| 27> C 	 -129.755 	 58.9379 	 -58.0946
| 28> H 	 -132.984 	 59.2125 	 -56.8589
| 29> C 	 -131.739 	 60.1962 	 -59.382
| 30> H 	 -130.924 	 60.3147 	 -60.095
| 31> H 	 -132.022 	 61.1606 	 -59.081
| 32> C 	 -132.769 	 59.4392 	 -60.2678
| 33> H 	 -133.583 	 58.9589 	 -59.661
| 34> H 	 -132.333 	 58.6523 	 -60.8212
| 35> C 	 -133.436 	 60.4253 	 -61.2795
| 36> H 	 -132.684 	 60.7763 	 -61.9567
| 37> H 	 -133.89 	 61.2853 	 -60.7098
| 38> H 	 -134.195 	 59.937 	 -61.8637
| 39> H 	 -125.18 	 58.6488 	 -60.0397
| 40> H 	 -131.381 	 58.2483 	 -54.956
| 41> *
| 42>
| 43>                          ****END OF INPUT****

CARTESIAN COORDINATES (ANGSTROEM)
---------------------------------
  S    -126.952000   58.663500  -58.231000
  C    -126.193000   58.826400  -59.825400
  C    -127.061000   59.322100  -60.764700
  C    -128.385000   59.446300  -60.215500
  C    -128.527000   59.080700  -58.897000
  H    -129.148000   59.671500  -60.845500
  C    -126.713000   59.676400  -62.235300
  H    -126.832000   58.847400  -62.829100
  H    -125.673000   59.742800  -62.322600
  C    -127.472000   60.892100  -62.855500
  H    -128.518000   60.707700  -62.906600
  H    -127.259000   61.807500  -62.294100
  C    -127.074000   61.043000  -64.353800
  H    -127.510000   60.338900  -65.027600
  H    -127.347000   62.071400  -64.637400
  H    -125.965000   60.990900  -64.473200
  S    -129.474000   58.243000  -56.528400
  C    -131.116000   58.424600  -56.010800
  C    -131.889000   59.021500  -56.982800
  C    -131.101000   59.424700  -58.187100
  C    -129.755000   58.937900  -58.094600
  H    -132.984000   59.212500  -56.858900
  C    -131.739000   60.196200  -59.382000
  H    -130.924000   60.314700  -60.095000
  H    -132.022000   61.160600  -59.081000
  C    -132.769000   59.439200  -60.267800
  H    -133.583000   58.958900  -59.661000
  H    -132.333000   58.652300  -60.821200
  C    -133.436000   60.425300  -61.279500
  H    -132.684000   60.776300  -61.956700
  H    -133.890000   61.285300  -60.709800
  H    -134.195000   59.937000  -61.863700
  H    -125.180000   58.648800  -60.039700
  H    -131.381000   58.248300  -54.956000

 Total Charge           Charge          ....    0
 Multiplicity           Mult            ....    1
 Number of Electrons    NEL             ....  134
 Basis Dimension        Dim             ....  322

ORBITAL ENERGIES
----------------

  NO   OCC          E(Eh)            E(eV)
   0   2.0000     -88.965722     -2420.8804
   1   2.0000     -88.962738     -2420.7992
   2   2.0000     -10.334930      -281.2277
   3   2.0000     -10.333883      -281.1992
   4   2.0000     -10.319481      -280.8074
   5   2.0000     -10.317905      -280.7645
   6   2.0000     -10.309875      -280.5459
   7   2.0000     -10.304477      -280.3991
   8   2.0000     -10.301052      -280.3059
   9   2.0000     -10.294613      -280.1307
  10   2.0000     -10.293259      -280.0938
  11   2.0000     -10.290657      -280.0230
  12   2.0000     -10.287662      -279.9415
  13   2.0000     -10.285451      -279.8813
  14   2.0000     -10.284025      -279.8426
  15   2.0000     -10.281768      -279.7811
  16   2.0000      -8.079895      -219.8651
  17   2.0000      -8.078429      -219.8252
  18   2.0000      -6.038666      -164.3205
  19   2.0000      -6.037014      -164.2755
  20   2.0000      -6.034586      -164.2094
  21   2.0000      -6.032713      -164.1585
  22   2.0000      -6.030311      -164.0931
  23   2.0000      -6.029157      -164.0617
  24   2.0000      -1.003756       -27.3136
  25   2.0000      -0.978994       -26.6398
  26   2.0000      -0.910125       -24.7658
  27   2.0000      -0.904779       -24.6203
  28   2.0000      -0.869494       -23.6601
  29   2.0000      -0.849420       -23.1139
  30   2.0000      -0.839269       -22.8377
  31   2.0000      -0.817148       -22.2357
  32   2.0000      -0.783056       -21.3080
  33   2.0000      -0.772630       -21.0243
  34   2.0000      -0.714007       -19.4291
  35   2.0000      -0.702530       -19.1168
  36   2.0000      -0.692742       -18.8505
  37   2.0000      -0.661217       -17.9926
  38   2.0000      -0.637458       -17.3461
  39   2.0000      -0.630697       -17.1621
  40   2.0000      -0.595502       -16.2044
  41   2.0000      -0.572546       -15.5798
  42   2.0000      -0.566857       -15.4250
  43   2.0000      -0.558033       -15.1849
  44   2.0000      -0.526789       -14.3347
  45   2.0000      -0.524258       -14.2658
  46   2.0000      -0.515629       -14.0310
  47   2.0000      -0.513406       -13.9705
  48   2.0000      -0.504929       -13.7398
  49   2.0000      -0.500748       -13.6261
  50   2.0000      -0.490447       -13.3457
  51   2.0000      -0.485194       -13.2028
  52   2.0000      -0.467236       -12.7141
  53   2.0000      -0.463984       -12.6256
  54   2.0000      -0.460209       -12.5229
  55   2.0000      -0.451445       -12.2845
  56   2.0000      -0.447420       -12.1749
  57   2.0000      -0.444732       -12.1018
  58   2.0000      -0.439734       -11.9658
  59   2.0000      -0.433610       -11.7991
  60   2.0000      -0.421426       -11.4676
  61   2.0000      -0.413368       -11.2483
  62   2.0000      -0.408266       -11.1095
  63   2.0000      -0.362222        -9.8566
  64   2.0000      -0.334269        -9.0959
  65   2.0000      -0.323446        -8.8014
  66   2.0000      -0.283225        -7.7069
  67   0.0000       0.019386         0.5275
  68   0.0000       0.088817         2.4168
  69   0.0000       0.095364         2.5950
  70   0.0000       0.117178         3.1886
  71   0.0000       0.129866         3.5338

MULLIKEN ATOMIC CHARGES
-----------------------
   0 S :    0.093322
   1 C :   -0.107857
   2 C :   -0.086637
   3 C :    0.019514
   4 C :   -0.074755
   5 H :   -0.042431
   6 C :    0.132231
   7 H :    0.008350
   8 H :   -0.009520
   9 C :   -0.084064
  10 H :    0.033426
  11 H :    0.048633
  12 C :   -0.064936
  13 H :    0.037935
  14 H :    0.034623
  15 H :    0.030000
  16 S :    0.074432
  17 C :   -0.093713
  18 C :   -0.036127
  19 C :   -0.086611
  20 C :   -0.105681
  21 H :    0.041103
  22 C :    0.090735
  23 H :   -0.002356
  24 H :    0.024539
  25 C :   -0.077276
  26 H :    0.033493
  27 H :    0.025835
  28 C :   -0.055479
  29 H :    0.025852
  30 H :    0.040386
  31 H :    0.035050
  32 H :    0.022647
  33 H :    0.075336
Sum of atomic charges:   -0.0000000

LOEWDIN ATOMIC CHARGES
----------------------
   0 S :    0.382347
   1 C :   -0.182276
   2 C :   -0.052479
   3 C :   -0.061212
   4 C :   -0.178955
   5 H :    0.006209
   6 C :   -0.024324
   7 H :    0.023696
   8 H :    0.023312
   9 C :   -0.030948
  10 H :    0.020258
  11 H :    0.029924
  12 C :   -0.063993
  13 H :    0.021117
  14 H :    0.029270
  15 H :    0.026117
  16 S :    0.411995
  17 C :   -0.196701
  18 C :   -0.076238
  19 C :   -0.051817
  20 C :   -0.195463
  21 H :    0.039467
  22 C :   -0.027823
  23 H :    0.030473
  24 H :    0.024630
  25 C :   -0.034120
  26 H :    0.023301
  27 H :    0.018708
  28 C :   -0.062604
  29 H :    0.019277
  30 H :    0.030779
  31 H :    0.023798
  32 H :    0.017677
  33 H :    0.036597

  Mayer bond orders larger than 0.100000
B(  0-S ,  1-C ) :   1.1173 B(  0-S ,  4-C ) :   1.1291 B(  1-C ,  2-C ) :   1.6489
B(  1-C , 32-H ) :   0.9700 B(  2-C ,  3-C ) :   1.2442 B(  2-C ,  6-C ) :   1.0076
B(  3-C ,  4-C ) :   1.5817 B(  3-C ,  5-H ) :   1.0036 B(  4-C , 20-C ) :   1.0780
B(  6-C ,  7-H ) :   0.9286 B(  6-C ,  8-H ) :   0.9306 B(  6-C ,  9-C ) :   1.0641
B(  9-C , 10-H ) :   0.9501 B(  9-C , 11-H ) :   0.9641 B(  9-C , 12-C ) :   1.0798
B( 12-C , 13-H ) :   0.9781 B( 12-C , 14-H ) :   0.9748 B( 12-C , 15-H ) :   0.9769
B( 16-S , 17-C ) :   1.1585 B( 16-S , 20-C ) :   1.1437 B( 17-C , 18-C ) :   1.6066
B( 17-C , 33-H ) :   0.9661 B( 18-C , 19-C ) :   1.2347 B( 18-C , 21-H ) :   0.9824
B( 19-C , 20-C ) :   1.5670 B( 19-C , 22-C ) :   1.0351 B( 22-C , 23-H ) :   0.9396
B( 22-C , 24-H ) :   0.9363 B( 22-C , 25-C ) :   1.0503 B( 25-C , 26-H ) :   0.9618
B( 25-C , 27-H ) :   0.9583 B( 25-C , 28-C ) :   1.0747 B( 28-C , 29-H ) :   0.9775
B( 28-C , 30-H ) :   0.9775 B( 28-C , 31-H ) :   0.9749

Dispersion correction           -0.013235185
FINAL SINGLE POINT ENERGY     -1339.867009492865

DIPOLE MOMENT
-------------
                                X             Y             Z
Electronic contribution:     10.72410     -12.36539      29.88862
Nuclear contribution   :    -11.02991      12.66662     -30.57535
                        -----------------------------------------
Total Dipole Moment    :     -0.30581       0.30123      -0.68673
                        -----------------------------------------
Magnitude (a.u.)       :      0.80985
Magnitude (Debye)      :      2.05848

Rotational constants in cm-1:     0.015770     0.009339     0.005986
Rotational constants in MHz :   472.775896   279.970741   179.457011

                             ****ORCA TERMINATED NORMALLY****
TOTAL RUN TIME: 0 days 0 hours 0 minutes 20 seconds 994 msec
