                         Program Version 4.2.1 -  RELEASE  -
|  1> ! wB97X-D3 SP def2-SVP
|  2> %pal
|  3> nprocs 24
|  4> end
|  5>
|  6> * xyz 0 1
|  7> S 	 -40.1769 	 20.5669 	 13.1646
|  8> C 	 -41.3565 	 20.3687 	 14.52
|  9> C 	 -40.7632 	 20.4276 	 15.7564
| 10> C 	 -39.354 	 20.5261 	 15.5891
| 11> C 	 -38.8443 	 20.7298 	 14.3207
| 12> H 	 -38.601 	 20.7335 	 16.3596
| 13> C 	 -41.4869 	 20.3813 	 17.0537
| 14> H 	 -41.0121 	 19.5587 	 17.5365
| 15> H 	 -42.5601 	 20.1631 	 16.7766
| 16> C 	 -41.294 	 21.6426 	 17.823
| 17> H 	 -40.2768 	 21.8557 	 18.0731
| 18> H 	 -41.6528 	 22.4059 	 17.1331
| 19> C 	 -42.0085 	 21.7027 	 19.1731
| 20> H 	 -41.8311 	 22.6411 	 19.7767
| 21> H 	 -43.1113 	 21.6761 	 19.0632
| 22> H 	 -41.6635 	 20.8904 	 19.7859
| 23> S 	 -36.6568 	 19.197 	 13.9608
| 24> C 	 -35.0499 	 19.978 	 13.8409
| 25> C 	 -35.2377 	 21.3554 	 13.7563
| 26> C 	 -36.5394 	 21.7869 	 13.949
| 27> C 	 -37.4571 	 20.7264 	 13.9046
| 28> H 	 -34.415 	 22.0478 	 13.7615
| 29> C 	 -36.9232 	 23.2044 	 14.0985
| 30> H 	 -36.0784 	 23.6922 	 14.6676
| 31> H 	 -37.7387 	 23.3569 	 14.7612
| 32> C 	 -37.09 	 24.0496 	 12.782
| 33> H 	 -36.2123 	 23.809 	 12.1127
| 34> H 	 -36.911 	 25.162 	 12.9159
| 35> C 	 -38.5091 	 23.9687 	 12.1146
| 36> H 	 -38.8851 	 22.9379 	 11.8035
| 37> H 	 -38.4018 	 24.5136 	 11.1234
| 38> H 	 -39.1874 	 24.4847 	 12.7545
| 39> H 	 -42.4562 	 20.3212 	 14.3285
| 40> H 	 -34.1427 	 19.3773 	 14.0183
| 41> *
| 42>
| 43>                          ****END OF INPUT****

CARTESIAN COORDINATES (ANGSTROEM)
---------------------------------
  S    -40.176900   20.566900   13.164600
  C    -41.356500   20.368700   14.520000
  C    -40.763200   20.427600   15.756400
  C    -39.354000   20.526100   15.589100
  C    -38.844300   20.729800   14.320700
  H    -38.601000   20.733500   16.359600
  C    -41.486900   20.381300   17.053700
  H    -41.012100   19.558700   17.536500
  H    -42.560100   20.163100   16.776600
  C    -41.294000   21.642600   17.823000
  H    -40.276800   21.855700   18.073100
  H    -41.652800   22.405900   17.133100
  C    -42.008500   21.702700   19.173100
  H    -41.831100   22.641100   19.776700
  H    -43.111300   21.676100   19.063200
  H    -41.663500   20.890400   19.785900
  S    -36.656800   19.197000   13.960800
  C    -35.049900   19.978000   13.840900
  C    -35.237700   21.355400   13.756300
  C    -36.539400   21.786900   13.949000
  C    -37.457100   20.726400   13.904600
  H    -34.415000   22.047800   13.761500
  C    -36.923200   23.204400   14.098500
  H    -36.078400   23.692200   14.667600
  H    -37.738700   23.356900   14.761200
  C    -37.090000   24.049600   12.782000
  H    -36.212300   23.809000   12.112700
  H    -36.911000   25.162000   12.915900
  C    -38.509100   23.968700   12.114600
  H    -38.885100   22.937900   11.803500
  H    -38.401800   24.513600   11.123400
  H    -39.187400   24.484700   12.754500
  H    -42.456200   20.321200   14.328500
  H    -34.142700   19.377300   14.018300

 Total Charge           Charge          ....    0
 Multiplicity           Mult            ....    1
 Number of Electrons    NEL             ....  134
 Basis Dimension        Dim             ....  322

ORBITAL ENERGIES
----------------

  NO   OCC          E(Eh)            E(eV)
   0   2.0000     -88.966023     -2420.8886
   1   2.0000     -88.961623     -2420.7688
   2   2.0000     -10.327275      -281.0194
   3   2.0000     -10.326451      -280.9970
   4   2.0000     -10.321839      -280.8715
   5   2.0000     -10.319064      -280.7960
   6   2.0000     -10.300297      -280.2853
   7   2.0000     -10.300039      -280.2783
   8   2.0000     -10.297666      -280.2137
   9   2.0000     -10.294170      -280.1186
  10   2.0000     -10.293082      -280.0890
  11   2.0000     -10.292706      -280.0788
  12   2.0000     -10.291203      -280.0379
  13   2.0000     -10.283468      -279.8274
  14   2.0000     -10.282551      -279.8024
  15   2.0000     -10.281706      -279.7795
  16   2.0000      -8.080589      -219.8840
  17   2.0000      -8.075083      -219.7342
  18   2.0000      -6.039005      -164.3297
  19   2.0000      -6.035010      -164.2210
  20   2.0000      -6.033658      -164.1842
  21   2.0000      -6.031537      -164.1265
  22   2.0000      -6.029754      -164.0779
  23   2.0000      -6.025866      -163.9721
  24   2.0000      -1.006555       -27.3898
  25   2.0000      -0.982221       -26.7276
  26   2.0000      -0.922330       -25.0979
  27   2.0000      -0.901257       -24.5245
  28   2.0000      -0.871731       -23.7210
  29   2.0000      -0.846142       -23.0247
  30   2.0000      -0.842276       -22.9195
  31   2.0000      -0.811243       -22.0751
  32   2.0000      -0.784040       -21.3348
  33   2.0000      -0.769276       -20.9331
  34   2.0000      -0.707156       -19.2427
  35   2.0000      -0.694962       -18.9109
  36   2.0000      -0.691609       -18.8196
  37   2.0000      -0.663969       -18.0675
  38   2.0000      -0.640227       -17.4215
  39   2.0000      -0.614901       -16.7323
  40   2.0000      -0.600781       -16.3481
  41   2.0000      -0.580281       -15.7903
  42   2.0000      -0.560715       -15.2578
  43   2.0000      -0.541828       -14.7439
  44   2.0000      -0.533609       -14.5202
  45   2.0000      -0.522960       -14.2305
  46   2.0000      -0.519886       -14.1468
  47   2.0000      -0.511332       -13.9140
  48   2.0000      -0.506401       -13.7799
  49   2.0000      -0.494108       -13.4454
  50   2.0000      -0.486805       -13.2466
  51   2.0000      -0.485282       -13.2052
  52   2.0000      -0.467763       -12.7285
  53   2.0000      -0.465449       -12.6655
  54   2.0000      -0.456146       -12.4124
  55   2.0000      -0.440967       -11.9993
  56   2.0000      -0.437996       -11.9185
  57   2.0000      -0.430602       -11.7173
  58   2.0000      -0.427929       -11.6445
  59   2.0000      -0.426356       -11.6017
  60   2.0000      -0.423965       -11.5367
  61   2.0000      -0.416173       -11.3246
  62   2.0000      -0.408203       -11.1078
  63   2.0000      -0.340753        -9.2724
  64   2.0000      -0.326755        -8.8914
  65   2.0000      -0.315456        -8.5840
  66   2.0000      -0.311073        -8.4647
  67   0.0000       0.038367         1.0440
  68   0.0000       0.048982         1.3329
  69   0.0000       0.111107         3.0234
  70   0.0000       0.114458         3.1146
  71   0.0000       0.128159         3.4874

MULLIKEN ATOMIC CHARGES
-----------------------
   0 S :    0.084496
   1 C :   -0.155963
   2 C :   -0.086990
   3 C :    0.030135
   4 C :   -0.190182
   5 H :    0.018886
   6 C :    0.121098
   7 H :    0.024679
   8 H :    0.028899
   9 C :   -0.081677
  10 H :    0.028310
  11 H :    0.028164
  12 C :   -0.052012
  13 H :    0.040875
  14 H :    0.031501
  15 H :    0.027377
  16 S :    0.111426
  17 C :   -0.123063
  18 C :    0.005957
  19 C :   -0.042310
  20 C :   -0.139418
  21 H :    0.011644
  22 C :    0.073636
  23 H :    0.021486
  24 H :    0.018604
  25 C :   -0.100394
  26 H :    0.029316
  27 H :    0.033850
  28 C :   -0.064596
  29 H :    0.047291
  30 H :    0.038677
  31 H :    0.037880
  32 H :    0.062601
  33 H :    0.079816
Sum of atomic charges:   -0.0000000

LOEWDIN ATOMIC CHARGES
----------------------
   0 S :    0.372112
   1 C :   -0.183459
   2 C :   -0.066084
   3 C :   -0.065531
   4 C :   -0.193404
   5 H :    0.031865
   6 C :   -0.026198
   7 H :    0.030717
   8 H :    0.039245
   9 C :   -0.042623
  10 H :    0.023812
  11 H :    0.027272
  12 C :   -0.069376
  13 H :    0.032794
  14 H :    0.024993
  15 H :    0.021697
  16 S :    0.417014
  17 C :   -0.174501
  18 C :   -0.067612
  19 C :   -0.054158
  20 C :   -0.218690
  21 H :    0.029339
  22 C :   -0.036884
  23 H :    0.038430
  24 H :    0.025455
  25 C :   -0.047165
  26 H :    0.025661
  27 H :    0.029539
  28 C :   -0.073511
  29 H :    0.024806
  30 H :    0.033567
  31 H :    0.020567
  32 H :    0.033857
  33 H :    0.036454

  Mayer bond orders larger than 0.100000
B(  0-S ,  1-C ) :   1.1357 B(  0-S ,  4-C ) :   1.1283 B(  1-C ,  2-C ) :   1.6243
B(  1-C , 32-H ) :   0.9596 B(  2-C ,  3-C ) :   1.2117 B(  2-C ,  6-C ) :   1.0199
B(  3-C ,  4-C ) :   1.6270 B(  3-C ,  5-H ) :   0.9834 B(  4-C , 20-C ) :   1.0068
B(  6-C ,  7-H ) :   0.9208 B(  6-C ,  8-H ) :   0.9372 B(  6-C ,  9-C ) :   1.0713
B(  9-C , 10-H ) :   0.9527 B(  9-C , 11-H ) :   0.9542 B(  9-C , 12-C ) :   1.0880
B( 12-C , 13-H ) :   0.9748 B( 12-C , 14-H ) :   0.9747 B( 12-C , 15-H ) :   0.9720
B( 16-S , 17-C ) :   1.1757 B( 16-S , 20-C ) :   1.1654 B( 17-C , 18-C ) :   1.5478
B( 17-C , 20-C ) :   0.1078 B( 17-C , 33-H ) :   0.9689 B( 18-C , 19-C ) :   1.3035
B( 18-C , 21-H ) :   0.9853 B( 19-C , 20-C ) :   1.5384 B( 19-C , 22-C ) :   1.0673
B( 22-C , 23-H ) :   0.9255 B( 22-C , 24-H ) :   0.9311 B( 22-C , 25-C ) :   1.0569
B( 25-C , 26-H ) :   0.9574 B( 25-C , 27-H ) :   0.9565 B( 25-C , 28-C ) :   1.0670
B( 28-C , 29-H ) :   0.9734 B( 28-C , 30-H ) :   0.9717 B( 28-C , 31-H ) :   0.9766

Dispersion correction           -0.014753630
FINAL SINGLE POINT ENERGY     -1339.870382557852

DIPOLE MOMENT
-------------
                                X             Y             Z
Electronic contribution:      8.68664     -17.77197     -12.56130
Nuclear contribution   :     -8.57583      18.17972      13.21775
                        -----------------------------------------
Total Dipole Moment    :      0.11081       0.40775       0.65645
                        -----------------------------------------
Magnitude (a.u.)       :      0.78068
Magnitude (Debye)      :      1.98433

Rotational constants in cm-1:     0.018656     0.008197     0.007563
Rotational constants in MHz :   559.297015   245.743012   226.731039

                             ****ORCA TERMINATED NORMALLY****
TOTAL RUN TIME: 0 days 0 hours 0 minutes 20 seconds 617 msec
