                         Program Version 4.2.1 -  RELEASE  -
|  1> ! wB97X-D3 SP def2-SVP
|  2> %pal
|  3> nprocs 24
|  4> end
|  5>
|  6> * xyz 0 1
|  7> S 	 34.2343 	 -0.81372 	 -119.634
|  8> C 	 34.7701 	 -2.11529 	 -120.685
|  9> C 	 35.337 	 -3.10601 	 -119.97
| 10> C 	 35.1508 	 -2.83685 	 -118.526
| 11> C 	 34.5886 	 -1.64639 	 -118.2
| 12> H 	 35.5863 	 -3.504 	 -117.759
| 13> C 	 36.0707 	 -4.3145 	 -120.44
| 14> H 	 37.0506 	 -4.32688 	 -119.922
| 15> H 	 36.4304 	 -4.25243 	 -121.463
| 16> C 	 35.365 	 -5.66721 	 -120.329
| 17> H 	 35.2123 	 -5.9219 	 -119.233
| 18> H 	 34.4012 	 -5.62445 	 -120.831
| 19> C 	 36.157 	 -6.85807 	 -120.947
| 20> H 	 35.5866 	 -7.79841 	 -121.065
| 21> H 	 36.6271 	 -6.59731 	 -121.856
| 22> H 	 36.8955 	 -7.23917 	 -120.29
| 23> S 	 34.2974 	 0.546172 	 -116.71
| 24> C 	 34.0643 	 0.438496 	 -114.967
| 25> C 	 33.9289 	 -0.887008 	 -114.551
| 26> C 	 34.1055 	 -1.80275 	 -115.603
| 27> C 	 34.2681 	 -1.18166 	 -116.829
| 28> H 	 33.7988 	 -1.08768 	 -113.455
| 29> C 	 33.96 	 -3.31684 	 -115.324
| 30> H 	 33.6201 	 -3.83574 	 -116.224
| 31> H 	 33.2098 	 -3.51367 	 -114.532
| 32> C 	 35.2631 	 -3.92464 	 -114.805
| 33> H 	 35.5161 	 -3.41393 	 -113.867
| 34> H 	 36.0866 	 -3.75184 	 -115.542
| 35> C 	 35.1601 	 -5.41547 	 -114.565
| 36> H 	 35.514 	 -6.08404 	 -115.396
| 37> H 	 34.242 	 -5.61904 	 -114.131
| 38> H 	 35.8852 	 -5.61597 	 -113.762
| 39> H 	 34.8752 	 -1.90907 	 -121.752
| 40> H 	 33.9392 	 1.33554 	 -114.365
| 41> *
| 42>
| 43>                          ****END OF INPUT****

CARTESIAN COORDINATES (ANGSTROEM)
---------------------------------
  S     34.234300   -0.813720  -119.634000
  C     34.770100   -2.115290  -120.685000
  C     35.337000   -3.106010  -119.970000
  C     35.150800   -2.836850  -118.526000
  C     34.588600   -1.646390  -118.200000
  H     35.586300   -3.504000  -117.759000
  C     36.070700   -4.314500  -120.440000
  H     37.050600   -4.326880  -119.922000
  H     36.430400   -4.252430  -121.463000
  C     35.365000   -5.667210  -120.329000
  H     35.212300   -5.921900  -119.233000
  H     34.401200   -5.624450  -120.831000
  C     36.157000   -6.858070  -120.947000
  H     35.586600   -7.798410  -121.065000
  H     36.627100   -6.597310  -121.856000
  H     36.895500   -7.239170  -120.290000
  S     34.297400    0.546172  -116.710000
  C     34.064300    0.438496  -114.967000
  C     33.928900   -0.887008  -114.551000
  C     34.105500   -1.802750  -115.603000
  C     34.268100   -1.181660  -116.829000
  H     33.798800   -1.087680  -113.455000
  C     33.960000   -3.316840  -115.324000
  H     33.620100   -3.835740  -116.224000
  H     33.209800   -3.513670  -114.532000
  C     35.263100   -3.924640  -114.805000
  H     35.516100   -3.413930  -113.867000
  H     36.086600   -3.751840  -115.542000
  C     35.160100   -5.415470  -114.565000
  H     35.514000   -6.084040  -115.396000
  H     34.242000   -5.619040  -114.131000
  H     35.885200   -5.615970  -113.762000
  H     34.875200   -1.909070  -121.752000
  H     33.939200    1.335540  -114.365000

 Total Charge           Charge          ....    0
 Multiplicity           Mult            ....    1
 Number of Electrons    NEL             ....  134
 Basis Dimension        Dim             ....  322

ORBITAL ENERGIES
----------------

  NO   OCC          E(Eh)            E(eV)
   0   2.0000     -88.966240     -2420.8945
   1   2.0000     -88.960065     -2420.7264
   2   2.0000     -10.330083      -281.0958
   3   2.0000     -10.326503      -280.9984
   4   2.0000     -10.320646      -280.8391
   5   2.0000     -10.313220      -280.6370
   6   2.0000     -10.306076      -280.4426
   7   2.0000     -10.303218      -280.3648
   8   2.0000     -10.300418      -280.2886
   9   2.0000     -10.294991      -280.1410
  10   2.0000     -10.293925      -280.1119
  11   2.0000     -10.293695      -280.1057
  12   2.0000     -10.291680      -280.0509
  13   2.0000     -10.288071      -279.9526
  14   2.0000     -10.276466      -279.6369
  15   2.0000     -10.275574      -279.6126
  16   2.0000      -8.081439      -219.9071
  17   2.0000      -8.076267      -219.7664
  18   2.0000      -6.039820      -164.3519
  19   2.0000      -6.035908      -164.2454
  20   2.0000      -6.034968      -164.2198
  21   2.0000      -6.032293      -164.1470
  22   2.0000      -6.030600      -164.1010
  23   2.0000      -6.026691      -163.9946
  24   2.0000      -1.013369       -27.5752
  25   2.0000      -0.989202       -26.9175
  26   2.0000      -0.914592       -24.8873
  27   2.0000      -0.911321       -24.7983
  28   2.0000      -0.871772       -23.7221
  29   2.0000      -0.855305       -23.2740
  30   2.0000      -0.843328       -22.9481
  31   2.0000      -0.814392       -22.1607
  32   2.0000      -0.784503       -21.3474
  33   2.0000      -0.777603       -21.1597
  34   2.0000      -0.705060       -19.1857
  35   2.0000      -0.697476       -18.9793
  36   2.0000      -0.689676       -18.7670
  37   2.0000      -0.667774       -18.1711
  38   2.0000      -0.640908       -17.4400
  39   2.0000      -0.622679       -16.9439
  40   2.0000      -0.599057       -16.3012
  41   2.0000      -0.573591       -15.6082
  42   2.0000      -0.567235       -15.4353
  43   2.0000      -0.560226       -15.2445
  44   2.0000      -0.526189       -14.3183
  45   2.0000      -0.523447       -14.2437
  46   2.0000      -0.518802       -14.1173
  47   2.0000      -0.510871       -13.9015
  48   2.0000      -0.507071       -13.7981
  49   2.0000      -0.502695       -13.6790
  50   2.0000      -0.493353       -13.4248
  51   2.0000      -0.488592       -13.2953
  52   2.0000      -0.475299       -12.9335
  53   2.0000      -0.464505       -12.6398
  54   2.0000      -0.457080       -12.4378
  55   2.0000      -0.449764       -12.2387
  56   2.0000      -0.447327       -12.1724
  57   2.0000      -0.433111       -11.7855
  58   2.0000      -0.430489       -11.7142
  59   2.0000      -0.427395       -11.6300
  60   2.0000      -0.418233       -11.3807
  61   2.0000      -0.417033       -11.3481
  62   2.0000      -0.411433       -11.1957
  63   2.0000      -0.360707        -9.8153
  64   2.0000      -0.336175        -9.1478
  65   2.0000      -0.324713        -8.8359
  66   2.0000      -0.291456        -7.9309
  67   0.0000       0.028334         0.7710
  68   0.0000       0.082633         2.2486
  69   0.0000       0.101958         2.7744
  70   0.0000       0.116649         3.1742
  71   0.0000       0.125981         3.4281

MULLIKEN ATOMIC CHARGES
-----------------------
   0 S :    0.083129
   1 C :   -0.131966
   2 C :   -0.049138
   3 C :   -0.050107
   4 C :   -0.056923
   5 H :    0.005511
   6 C :    0.052577
   7 H :    0.032753
   8 H :    0.006507
   9 C :   -0.084138
  10 H :    0.036851
  11 H :    0.038994
  12 C :   -0.032449
  13 H :    0.033350
  14 H :    0.021988
  15 H :    0.015897
  16 S :    0.092597
  17 C :   -0.102148
  18 C :   -0.047319
  19 C :   -0.039594
  20 C :   -0.119519
  21 H :    0.041284
  22 C :    0.041448
  23 H :    0.034222
  24 H :    0.027216
  25 C :   -0.116247
  26 H :    0.027177
  27 H :    0.036074
  28 C :   -0.000858
  29 H :    0.049731
  30 H :    0.010278
  31 H :    0.022075
  32 H :    0.058835
  33 H :    0.061911
Sum of atomic charges:   -0.0000000

LOEWDIN ATOMIC CHARGES
----------------------
   0 S :    0.405453
   1 C :   -0.189438
   2 C :   -0.060199
   3 C :   -0.076546
   4 C :   -0.208886
   5 H :    0.028797
   6 C :   -0.041884
   7 H :    0.037924
   8 H :    0.027404
   9 C :   -0.037726
  10 H :    0.028708
  11 H :    0.026005
  12 C :   -0.067111
  13 H :    0.033332
  14 H :    0.016855
  15 H :    0.020318
  16 S :    0.410042
  17 C :   -0.180788
  18 C :   -0.073846
  19 C :   -0.058376
  20 C :   -0.189174
  21 H :    0.043246
  22 C :   -0.030732
  23 H :    0.029134
  24 H :    0.031262
  25 C :   -0.045165
  26 H :    0.023938
  27 H :    0.024257
  28 C :   -0.066221
  29 H :    0.034731
  30 H :    0.013547
  31 H :    0.031330
  32 H :    0.031720
  33 H :    0.028089

  Mayer bond orders larger than 0.100000
B(  0-S ,  1-C ) :   1.1180 B(  0-S ,  4-C ) :   1.1430 B(  1-C ,  2-C ) :   1.6424
B(  1-C , 32-H ) :   0.9659 B(  2-C ,  3-C ) :   1.2096 B(  2-C ,  6-C ) :   1.0376
B(  3-C ,  4-C ) :   1.6036 B(  3-C ,  5-H ) :   0.9900 B(  4-C , 20-C ) :   1.0178
B(  6-C ,  7-H ) :   0.9334 B(  6-C ,  8-H ) :   0.9371 B(  6-C ,  9-C ) :   1.0607
B(  9-C , 10-H ) :   0.9567 B(  9-C , 11-H ) :   0.9583 B(  9-C , 12-C ) :   1.0774
B( 12-C , 13-H ) :   0.9738 B( 12-C , 14-H ) :   0.9759 B( 12-C , 15-H ) :   0.9742
B( 16-S , 17-C ) :   1.1646 B( 16-S , 20-C ) :   1.1494 B( 17-C , 18-C ) :   1.5933
B( 17-C , 20-C ) :   0.1074 B( 17-C , 33-H ) :   0.9689 B( 18-C , 19-C ) :   1.2531
B( 18-C , 21-H ) :   0.9823 B( 19-C , 20-C ) :   1.6044 B( 19-C , 22-C ) :   1.0289
B( 22-C , 23-H ) :   0.9413 B( 22-C , 24-H ) :   0.9370 B( 22-C , 25-C ) :   1.0677
B( 25-C , 26-H ) :   0.9557 B( 25-C , 27-H ) :   0.9508 B( 25-C , 28-C ) :   1.0850
B( 28-C , 29-H ) :   0.9742 B( 28-C , 30-H ) :   0.9673 B( 28-C , 31-H ) :   0.9716

Dispersion correction           -0.013767642
FINAL SINGLE POINT ENERGY     -1339.883419408050

DIPOLE MOMENT
-------------
                                X             Y             Z
Electronic contribution:     -8.25886      32.92972      -2.85046
Nuclear contribution   :      8.56469     -33.55702       3.14546
                        -----------------------------------------
Total Dipole Moment    :      0.30582      -0.62730       0.29500
                        -----------------------------------------
Magnitude (a.u.)       :      0.75767
Magnitude (Debye)      :      1.92583

Rotational constants in cm-1:     0.017348     0.009331     0.006246
Rotational constants in MHz :   520.076099   279.741904   187.259665

                             ****ORCA TERMINATED NORMALLY****
TOTAL RUN TIME: 0 days 0 hours 0 minutes 21 seconds 573 msec
