                         Program Version 4.2.1 -  RELEASE  -
|  1> ! wB97X-D3 SP def2-SVP
|  2> %pal
|  3> nprocs 24
|  4> end
|  5>
|  6> * xyz 0 1
|  7> S 	 -71.1241 	 1.14525 	 -105.65
|  8> C 	 -71.0999 	 2.15022 	 -104.272
|  9> C 	 -70.7079 	 3.47411 	 -104.558
| 10> C 	 -70.6885 	 3.73135 	 -105.963
| 11> C 	 -71.0024 	 2.55183 	 -106.716
| 12> H 	 -70.6403 	 4.67514 	 -106.442
| 13> C 	 -70.4038 	 4.48962 	 -103.506
| 14> H 	 -70.2535 	 3.97644 	 -102.59
| 15> H 	 -71.2482 	 5.16844 	 -103.459
| 16> C 	 -69.2524 	 5.48525 	 -103.863
| 17> H 	 -68.3215 	 4.84944 	 -104.042
| 18> H 	 -69.6445 	 6.01921 	 -104.681
| 19> C 	 -68.9388 	 6.39143 	 -102.661
| 20> H 	 -68.4744 	 5.96517 	 -101.737
| 21> H 	 -68.3794 	 7.29051 	 -103.038
| 22> H 	 -69.968 	 6.7443 	 -102.453
| 23> S 	 -72.7639 	 1.43124 	 -108.602
| 24> C 	 -72.3052 	 1.35082 	 -110.308
| 25> C 	 -71.2038 	 2.1496 	 -110.53
| 26> C 	 -70.5969 	 2.66754 	 -109.362
| 27> C 	 -71.2812 	 2.31541 	 -108.168
| 28> H 	 -70.8906 	 2.29086 	 -111.561
| 29> C 	 -69.2662 	 3.40115 	 -109.427
| 30> H 	 -69.424 	 4.44893 	 -109.149
| 31> H 	 -68.7982 	 3.47452 	 -110.362
| 32> C 	 -68.1869 	 2.80219 	 -108.47
| 33> H 	 -68.3793 	 1.7199 	 -108.326
| 34> H 	 -68.2137 	 3.14404 	 -107.488
| 35> C 	 -66.7608 	 3.0425 	 -108.977
| 36> H 	 -66.6271 	 4.13639 	 -108.998
| 37> H 	 -66.6762 	 2.68933 	 -109.993
| 38> H 	 -66.0711 	 2.57158 	 -108.318
| 39> H 	 -70.8665 	 1.8336 	 -103.26
| 40> H 	 -72.8409 	 0.793366 	 -111.099
| 41> *
| 42>
| 43>                          ****END OF INPUT****

CARTESIAN COORDINATES (ANGSTROEM)
---------------------------------
  S    -71.124100    1.145250  -105.650000
  C    -71.099900    2.150220  -104.272000
  C    -70.707900    3.474110  -104.558000
  C    -70.688500    3.731350  -105.963000
  C    -71.002400    2.551830  -106.716000
  H    -70.640300    4.675140  -106.442000
  C    -70.403800    4.489620  -103.506000
  H    -70.253500    3.976440  -102.590000
  H    -71.248200    5.168440  -103.459000
  C    -69.252400    5.485250  -103.863000
  H    -68.321500    4.849440  -104.042000
  H    -69.644500    6.019210  -104.681000
  C    -68.938800    6.391430  -102.661000
  H    -68.474400    5.965170  -101.737000
  H    -68.379400    7.290510  -103.038000
  H    -69.968000    6.744300  -102.453000
  S    -72.763900    1.431240  -108.602000
  C    -72.305200    1.350820  -110.308000
  C    -71.203800    2.149600  -110.530000
  C    -70.596900    2.667540  -109.362000
  C    -71.281200    2.315410  -108.168000
  H    -70.890600    2.290860  -111.561000
  C    -69.266200    3.401150  -109.427000
  H    -69.424000    4.448930  -109.149000
  H    -68.798200    3.474520  -110.362000
  C    -68.186900    2.802190  -108.470000
  H    -68.379300    1.719900  -108.326000
  H    -68.213700    3.144040  -107.488000
  C    -66.760800    3.042500  -108.977000
  H    -66.627100    4.136390  -108.998000
  H    -66.676200    2.689330  -109.993000
  H    -66.071100    2.571580  -108.318000
  H    -70.866500    1.833600  -103.260000
  H    -72.840900    0.793366  -111.099000

 Total Charge           Charge          ....    0
 Multiplicity           Mult            ....    1
 Number of Electrons    NEL             ....  134
 Basis Dimension        Dim             ....  322

ORBITAL ENERGIES
----------------

  NO   OCC          E(Eh)            E(eV)
   0   2.0000     -88.970121     -2421.0001
   1   2.0000     -88.965578     -2420.8765
   2   2.0000     -10.341044      -281.3941
   3   2.0000     -10.334455      -281.2148
   4   2.0000     -10.320232      -280.8278
   5   2.0000     -10.309223      -280.5282
   6   2.0000     -10.307932      -280.4931
   7   2.0000     -10.302718      -280.3512
   8   2.0000     -10.300940      -280.3028
   9   2.0000     -10.293682      -280.1053
  10   2.0000     -10.292880      -280.0835
  11   2.0000     -10.289367      -279.9879
  12   2.0000     -10.288711      -279.9701
  13   2.0000     -10.288076      -279.9528
  14   2.0000     -10.273718      -279.5621
  15   2.0000     -10.271756      -279.5087
  16   2.0000      -8.084819      -219.9991
  17   2.0000      -8.079340      -219.8500
  18   2.0000      -6.043164      -164.4429
  19   2.0000      -6.039292      -164.3375
  20   2.0000      -6.037885      -164.2992
  21   2.0000      -6.035778      -164.2419
  22   2.0000      -6.033928      -164.1915
  23   2.0000      -6.030148      -164.0887
  24   2.0000      -1.000405       -27.2224
  25   2.0000      -0.980786       -26.6886
  26   2.0000      -0.916299       -24.9338
  27   2.0000      -0.904491       -24.6124
  28   2.0000      -0.864754       -23.5311
  29   2.0000      -0.850277       -23.1372
  30   2.0000      -0.846467       -23.0335
  31   2.0000      -0.814634       -22.1673
  32   2.0000      -0.779283       -21.2054
  33   2.0000      -0.766034       -20.8448
  34   2.0000      -0.711034       -19.3482
  35   2.0000      -0.697557       -18.9815
  36   2.0000      -0.682544       -18.5730
  37   2.0000      -0.655314       -17.8320
  38   2.0000      -0.638768       -17.3818
  39   2.0000      -0.621500       -16.9119
  40   2.0000      -0.595997       -16.2179
  41   2.0000      -0.585181       -15.9236
  42   2.0000      -0.565878       -15.3983
  43   2.0000      -0.560421       -15.2498
  44   2.0000      -0.523330       -14.2405
  45   2.0000      -0.521899       -14.2016
  46   2.0000      -0.517595       -14.0845
  47   2.0000      -0.514405       -13.9977
  48   2.0000      -0.504282       -13.7222
  49   2.0000      -0.492695       -13.4069
  50   2.0000      -0.487392       -13.2626
  51   2.0000      -0.480964       -13.0877
  52   2.0000      -0.477284       -12.9876
  53   2.0000      -0.466464       -12.6931
  54   2.0000      -0.455167       -12.3857
  55   2.0000      -0.450507       -12.2589
  56   2.0000      -0.443579       -12.0704
  57   2.0000      -0.439070       -11.9477
  58   2.0000      -0.430550       -11.7158
  59   2.0000      -0.423707       -11.5297
  60   2.0000      -0.420149       -11.4328
  61   2.0000      -0.412935       -11.2365
  62   2.0000      -0.410921       -11.1817
  63   2.0000      -0.346447        -9.4273
  64   2.0000      -0.329551        -8.9675
  65   2.0000      -0.326045        -8.8721
  66   2.0000      -0.287944        -7.8354
  67   0.0000       0.019918         0.5420
  68   0.0000       0.066091         1.7984
  69   0.0000       0.108634         2.9561
  70   0.0000       0.114984         3.1289
  71   0.0000       0.128972         3.5095

MULLIKEN ATOMIC CHARGES
-----------------------
   0 S :    0.128178
   1 C :   -0.089187
   2 C :   -0.140237
   3 C :    0.065610
   4 C :   -0.183733
   5 H :    0.006940
   6 C :    0.079601
   7 H :    0.008881
   8 H :    0.033605
   9 C :   -0.112250
  10 H :    0.047552
  11 H :    0.032950
  12 C :   -0.058552
  13 H :    0.057639
  14 H :    0.044881
  15 H :    0.017399
  16 S :    0.106137
  17 C :   -0.113894
  18 C :   -0.039601
  19 C :   -0.015845
  20 C :   -0.160288
  21 H :    0.021003
  22 C :    0.108118
  23 H :    0.029132
  24 H :   -0.005200
  25 C :   -0.096769
  26 H :    0.033560
  27 H :    0.019246
  28 C :   -0.032748
  29 H :    0.026738
  30 H :    0.027870
  31 H :    0.033564
  32 H :    0.048109
  33 H :    0.071591
Sum of atomic charges:    0.0000000

LOEWDIN ATOMIC CHARGES
----------------------
   0 S :    0.432407
   1 C :   -0.227715
   2 C :   -0.058796
   3 C :   -0.057230
   4 C :   -0.181085
   5 H :    0.025602
   6 C :   -0.030966
   7 H :    0.021747
   8 H :    0.033034
   9 C :   -0.036974
  10 H :    0.030019
  11 H :    0.018535
  12 C :   -0.074333
  13 H :    0.033318
  14 H :    0.032795
  15 H :    0.024722
  16 S :    0.393016
  17 C :   -0.185705
  18 C :   -0.076120
  19 C :   -0.052889
  20 C :   -0.201968
  21 H :    0.033630
  22 C :   -0.026513
  23 H :    0.034416
  24 H :    0.020223
  25 C :   -0.038711
  26 H :    0.025737
  27 H :    0.012901
  28 C :   -0.057288
  29 H :    0.025509
  30 H :    0.019626
  31 H :    0.023529
  32 H :    0.026869
  33 H :    0.038657

  Mayer bond orders larger than 0.100000
B(  0-S ,  1-C ) :   1.1530 B(  0-S ,  4-C ) :   1.1876 B(  1-C ,  2-C ) :   1.5855
B(  1-C ,  4-C ) :   0.1043 B(  1-C , 32-H ) :   0.9553 B(  2-C ,  3-C ) :   1.2611
B(  2-C ,  6-C ) :   1.0426 B(  3-C ,  4-C ) :   1.5270 B(  3-C ,  5-H ) :   0.9958
B(  4-C , 20-C ) :   1.0350 B(  6-C ,  7-H ) :   0.9425 B(  6-C ,  8-H ) :   0.9264
B(  6-C ,  9-C ) :   1.0613 B(  9-C , 10-H ) :   0.9610 B(  9-C , 11-H ) :   0.9505
B(  9-C , 12-C ) :   1.0806 B( 12-C , 13-H ) :   0.9759 B( 12-C , 14-H ) :   0.9732
B( 12-C , 15-H ) :   0.9695 B( 16-S , 17-C ) :   1.1540 B( 16-S , 20-C ) :   1.1477
B( 17-C , 18-C ) :   1.5936 B( 17-C , 20-C ) :   0.1056 B( 17-C , 33-H ) :   0.9631
B( 18-C , 19-C ) :   1.2649 B( 18-C , 21-H ) :   0.9907 B( 19-C , 20-C ) :   1.5483
B( 19-C , 22-C ) :   1.0470 B( 22-C , 23-H ) :   0.9197 B( 22-C , 24-H ) :   0.9460
B( 22-C , 25-C ) :   1.0442 B( 25-C , 26-H ) :   0.9637 B( 25-C , 27-H ) :   0.9490
B( 25-C , 28-C ) :   1.0933 B( 28-C , 29-H ) :   0.9745 B( 28-C , 30-H ) :   0.9766
B( 28-C , 31-H ) :   0.9734

Dispersion correction           -0.014186400
FINAL SINGLE POINT ENERGY     -1339.862000413769

DIPOLE MOMENT
-------------
                                X             Y             Z
Electronic contribution:    -21.82703     -19.23873      -7.40399
Nuclear contribution   :     22.28959      19.73016       7.40367
                        -----------------------------------------
Total Dipole Moment    :      0.46256       0.49143      -0.00033
                        -----------------------------------------
Magnitude (a.u.)       :      0.67488
Magnitude (Debye)      :      1.71542

Rotational constants in cm-1:     0.018880     0.008516     0.006685
Rotational constants in MHz :   566.015584   255.295593   200.408738

                             ****ORCA TERMINATED NORMALLY****
TOTAL RUN TIME: 0 days 0 hours 0 minutes 21 seconds 719 msec
