                         Program Version 4.2.1 -  RELEASE  -
|  1> ! wB97X-D3 SP def2-SVP
|  2> %pal
|  3> nprocs 24
|  4> end
|  5>
|  6> * xyz 0 1
|  7> S 	 -129.935 	 59.7264 	 -58.7796
|  8> C 	 -129.112 	 60.0843 	 -60.159
|  9> C 	 -129.093 	 58.9986 	 -61.0102
| 10> C 	 -129.767 	 57.8259 	 -60.4555
| 11> C 	 -130.174 	 58.0886 	 -59.191
| 12> H 	 -129.819 	 56.8735 	 -60.8863
| 13> C 	 -128.527 	 59.091 	 -62.4304
| 14> H 	 -128.053 	 58.2044 	 -62.7933
| 15> H 	 -127.724 	 59.8217 	 -62.3581
| 16> C 	 -129.655 	 59.3823 	 -63.4359
| 17> H 	 -130.313 	 58.5238 	 -63.2747
| 18> H 	 -130.209 	 60.3362 	 -63.2852
| 19> C 	 -129.163 	 59.2696 	 -64.9123
| 20> H 	 -129.981 	 58.9381 	 -65.5652
| 21> H 	 -128.683 	 60.2161 	 -65.1855
| 22> H 	 -128.414 	 58.523 	 -65.003
| 23> S 	 -130.064 	 55.4011 	 -58.2537
| 24> C 	 -131.004 	 54.9845 	 -56.8411
| 25> C 	 -131.861 	 55.9589 	 -56.518
| 26> C 	 -131.759 	 57.1673 	 -57.2626
| 27> C 	 -130.733 	 57.087 	 -58.2191
| 28> H 	 -132.599 	 55.8787 	 -55.8014
| 29> C 	 -132.646 	 58.3725 	 -57.0977
| 30> H 	 -132.309 	 59.3536 	 -56.7341
| 31> H 	 -133.258 	 58.1085 	 -56.2672
| 32> C 	 -133.631 	 58.5265 	 -58.2846
| 33> H 	 -134.189 	 57.6381 	 -58.5767
| 34> H 	 -133.072 	 58.7971 	 -59.1136
| 35> C 	 -134.642 	 59.6344 	 -57.8878
| 36> H 	 -135.455 	 59.6167 	 -58.6219
| 37> H 	 -134.151 	 60.6298 	 -57.8477
| 38> H 	 -135.156 	 59.5095 	 -56.9152
| 39> H 	 -128.638 	 61.0163 	 -60.5081
| 40> H 	 -130.996 	 53.9994 	 -56.3647
| 41> *
| 42>
| 43>                          ****END OF INPUT****

CARTESIAN COORDINATES (ANGSTROEM)
---------------------------------
  S    -129.935000   59.726400  -58.779600
  C    -129.112000   60.084300  -60.159000
  C    -129.093000   58.998600  -61.010200
  C    -129.767000   57.825900  -60.455500
  C    -130.174000   58.088600  -59.191000
  H    -129.819000   56.873500  -60.886300
  C    -128.527000   59.091000  -62.430400
  H    -128.053000   58.204400  -62.793300
  H    -127.724000   59.821700  -62.358100
  C    -129.655000   59.382300  -63.435900
  H    -130.313000   58.523800  -63.274700
  H    -130.209000   60.336200  -63.285200
  C    -129.163000   59.269600  -64.912300
  H    -129.981000   58.938100  -65.565200
  H    -128.683000   60.216100  -65.185500
  H    -128.414000   58.523000  -65.003000
  S    -130.064000   55.401100  -58.253700
  C    -131.004000   54.984500  -56.841100
  C    -131.861000   55.958900  -56.518000
  C    -131.759000   57.167300  -57.262600
  C    -130.733000   57.087000  -58.219100
  H    -132.599000   55.878700  -55.801400
  C    -132.646000   58.372500  -57.097700
  H    -132.309000   59.353600  -56.734100
  H    -133.258000   58.108500  -56.267200
  C    -133.631000   58.526500  -58.284600
  H    -134.189000   57.638100  -58.576700
  H    -133.072000   58.797100  -59.113600
  C    -134.642000   59.634400  -57.887800
  H    -135.455000   59.616700  -58.621900
  H    -134.151000   60.629800  -57.847700
  H    -135.156000   59.509500  -56.915200
  H    -128.638000   61.016300  -60.508100
  H    -130.996000   53.999400  -56.364700

 Total Charge           Charge          ....    0
 Multiplicity           Mult            ....    1
 Number of Electrons    NEL             ....  134
 Basis Dimension        Dim             ....  322

ORBITAL ENERGIES
----------------

  NO   OCC          E(Eh)            E(eV)
   0   2.0000     -88.965915     -2420.8856
   1   2.0000     -88.964697     -2420.8525
   2   2.0000     -10.333294      -281.1832
   3   2.0000     -10.326836      -281.0075
   4   2.0000     -10.315120      -280.6887
   5   2.0000     -10.306225      -280.4466
   6   2.0000     -10.302794      -280.3533
   7   2.0000     -10.298783      -280.2441
   8   2.0000     -10.289078      -279.9801
   9   2.0000     -10.288875      -279.9745
  10   2.0000     -10.288747      -279.9710
  11   2.0000     -10.288442      -279.9627
  12   2.0000     -10.284555      -279.8570
  13   2.0000     -10.279437      -279.7177
  14   2.0000     -10.279314      -279.7144
  15   2.0000     -10.276319      -279.6329
  16   2.0000      -8.082983      -219.9491
  17   2.0000      -8.078547      -219.8284
  18   2.0000      -6.041342      -164.3933
  19   2.0000      -6.037197      -164.2805
  20   2.0000      -6.037072      -164.2771
  21   2.0000      -6.033843      -164.1892
  22   2.0000      -6.033291      -164.1742
  23   2.0000      -6.029125      -164.0608
  24   2.0000      -1.016632       -27.6640
  25   2.0000      -0.988043       -26.8860
  26   2.0000      -0.910574       -24.7780
  27   2.0000      -0.908040       -24.7090
  28   2.0000      -0.871806       -23.7231
  29   2.0000      -0.850460       -23.1422
  30   2.0000      -0.844938       -22.9919
  31   2.0000      -0.817861       -22.2551
  32   2.0000      -0.779667       -21.2158
  33   2.0000      -0.767000       -20.8711
  34   2.0000      -0.709104       -19.2957
  35   2.0000      -0.698529       -19.0080
  36   2.0000      -0.688660       -18.7394
  37   2.0000      -0.667692       -18.1688
  38   2.0000      -0.646929       -17.6038
  39   2.0000      -0.615143       -16.7389
  40   2.0000      -0.604921       -16.4607
  41   2.0000      -0.578251       -15.7350
  42   2.0000      -0.561471       -15.2784
  43   2.0000      -0.559341       -15.2204
  44   2.0000      -0.523208       -14.2372
  45   2.0000      -0.522762       -14.2251
  46   2.0000      -0.517462       -14.0808
  47   2.0000      -0.512460       -13.9447
  48   2.0000      -0.506438       -13.7809
  49   2.0000      -0.502461       -13.6727
  50   2.0000      -0.488561       -13.2944
  51   2.0000      -0.477705       -12.9990
  52   2.0000      -0.468359       -12.7447
  53   2.0000      -0.464123       -12.6294
  54   2.0000      -0.460574       -12.5328
  55   2.0000      -0.450295       -12.2532
  56   2.0000      -0.445996       -12.1362
  57   2.0000      -0.441652       -12.0180
  58   2.0000      -0.438035       -11.9195
  59   2.0000      -0.425206       -11.5705
  60   2.0000      -0.415485       -11.3059
  61   2.0000      -0.414429       -11.2772
  62   2.0000      -0.409427       -11.1411
  63   2.0000      -0.358143        -9.7456
  64   2.0000      -0.330979        -9.0064
  65   2.0000      -0.327421        -8.9096
  66   2.0000      -0.289334        -7.8732
  67   0.0000       0.030855         0.8396
  68   0.0000       0.080272         2.1843
  69   0.0000       0.104971         2.8564
  70   0.0000       0.135205         3.6791
  71   0.0000       0.136688         3.7195

MULLIKEN ATOMIC CHARGES
-----------------------
   0 S :    0.134810
   1 C :   -0.099927
   2 C :   -0.132073
   3 C :    0.026068
   4 C :   -0.131500
   5 H :   -0.004031
   6 C :    0.076166
   7 H :    0.008936
   8 H :    0.015520
   9 C :   -0.094428
  10 H :    0.026042
  11 H :    0.042359
  12 C :   -0.027589
  13 H :    0.041935
  14 H :    0.036219
  15 H :    0.011099
  16 S :    0.084837
  17 C :   -0.077201
  18 C :    0.018945
  19 C :   -0.035017
  20 C :   -0.139474
  21 H :   -0.019182
  22 C :    0.047126
  23 H :    0.041350
  24 H :   -0.010047
  25 C :   -0.039042
  26 H :    0.031016
  27 H :    0.024446
  28 C :   -0.072135
  29 H :    0.031800
  30 H :    0.038094
  31 H :    0.030267
  32 H :    0.052078
  33 H :    0.062532
Sum of atomic charges:   -0.0000000

LOEWDIN ATOMIC CHARGES
----------------------
   0 S :    0.470422
   1 C :   -0.240600
   2 C :   -0.058922
   3 C :   -0.065315
   4 C :   -0.203100
   5 H :    0.021501
   6 C :   -0.032329
   7 H :    0.023812
   8 H :    0.023961
   9 C :   -0.038765
  10 H :    0.024993
  11 H :    0.027541
  12 C :   -0.065566
  13 H :    0.030146
  14 H :    0.026908
  15 H :    0.015935
  16 S :    0.376093
  17 C :   -0.181280
  18 C :   -0.064753
  19 C :   -0.056327
  20 C :   -0.168297
  21 H :    0.018395
  22 C :   -0.041881
  23 H :    0.034084
  24 H :    0.024792
  25 C :   -0.025572
  26 H :    0.026810
  27 H :    0.013488
  28 C :   -0.069890
  29 H :    0.024703
  30 H :    0.028031
  31 H :    0.024430
  32 H :    0.039954
  33 H :    0.036598

  Mayer bond orders larger than 0.100000
B(  0-S ,  1-C ) :   1.1531 B(  0-S ,  4-C ) :   1.1765 B(  1-C ,  2-C ) :   1.6078
B(  1-C , 32-H ) :   0.9611 B(  2-C ,  3-C ) :   1.2396 B(  2-C ,  6-C ) :   1.0363
B(  3-C ,  4-C ) :   1.5548 B(  3-C ,  5-H ) :   1.0064 B(  4-C , 20-C ) :   1.0256
B(  6-C ,  7-H ) :   0.9383 B(  6-C ,  8-H ) :   0.9418 B(  6-C ,  9-C ) :   1.0527
B(  9-C , 10-H ) :   0.9580 B(  9-C , 11-H ) :   0.9608 B(  9-C , 12-C ) :   1.0759
B( 12-C , 13-H ) :   0.9762 B( 12-C , 14-H ) :   0.9772 B( 12-C , 15-H ) :   0.9726
B( 16-S , 17-C ) :   1.1371 B( 16-S , 20-C ) :   1.1325 B( 17-C , 18-C ) :   1.6145
B( 17-C , 33-H ) :   0.9625 B( 18-C , 19-C ) :   1.2603 B( 18-C , 21-H ) :   0.9950
B( 19-C , 20-C ) :   1.5780 B( 19-C , 22-C ) :   1.0271 B( 22-C , 23-H ) :   0.9435
B( 22-C , 24-H ) :   0.9231 B( 22-C , 25-C ) :   1.0517 B( 25-C , 26-H ) :   0.9574
B( 25-C , 27-H ) :   0.9563 B( 25-C , 28-C ) :   1.0789 B( 28-C , 29-H ) :   0.9755
B( 28-C , 30-H ) :   0.9741 B( 28-C , 31-H ) :   0.9767

Dispersion correction           -0.014143317
FINAL SINGLE POINT ENERGY     -1339.872063291892

DIPOLE MOMENT
-------------
                                X             Y             Z
Electronic contribution:     10.25854     -10.27439      15.80793
Nuclear contribution   :    -10.54043      10.34194     -15.99989
                        -----------------------------------------
Total Dipole Moment    :     -0.28188       0.06756      -0.19196
                        -----------------------------------------
Magnitude (a.u.)       :      0.34767
Magnitude (Debye)      :      0.88370

Rotational constants in cm-1:     0.019381     0.008054     0.006720
Rotational constants in MHz :   581.035692   241.447887   201.466114

                             ****ORCA TERMINATED NORMALLY****
TOTAL RUN TIME: 0 days 0 hours 0 minutes 21 seconds 270 msec
