                         Program Version 4.2.1 -  RELEASE  -
|  1> ! wB97X-D3 SP def2-SVP
|  2> %pal
|  3> nprocs 24
|  4> end
|  5>
|  6> * xyz 0 1
|  7> S 	 43.3765 	 -18.2029 	 -110.32
|  8> C 	 42.0885 	 -17.0839 	 -110.881
|  9> C 	 42.321 	 -15.8076 	 -110.378
| 10> C 	 43.5488 	 -15.7691 	 -109.604
| 11> C 	 44.2471 	 -16.9674 	 -109.575
| 12> H 	 44.0066 	 -14.9206 	 -109.159
| 13> C 	 41.4071 	 -14.563 	 -110.477
| 14> H 	 41.3513 	 -14.2109 	 -109.456
| 15> H 	 40.4119 	 -14.8661 	 -110.722
| 16> C 	 41.719 	 -13.4928 	 -111.495
| 17> H 	 42.7 	 -13.2282 	 -111.326
| 18> H 	 41.6895 	 -13.9702 	 -112.412
| 19> C 	 40.6541 	 -12.4352 	 -111.514
| 20> H 	 40.7673 	 -11.809 	 -112.378
| 21> H 	 39.6396 	 -12.7973 	 -111.611
| 22> H 	 40.7415 	 -11.9293 	 -110.541
| 23> S 	 46.899 	 -17.3712 	 -110.282
| 24> C 	 48.1697 	 -17.1774 	 -109.177
| 25> C 	 47.6729 	 -16.6944 	 -107.974
| 26> C 	 46.2179 	 -16.6756 	 -107.885
| 27> C 	 45.6207 	 -17.0567 	 -109.082
| 28> H 	 48.3728 	 -16.6197 	 -107.167
| 29> C 	 45.3488 	 -16.2764 	 -106.726
| 30> H 	 44.9044 	 -15.3295 	 -106.898
| 31> H 	 46.1037 	 -16.2021 	 -105.936
| 32> C 	 44.2247 	 -17.1915 	 -106.231
| 33> H 	 44.6657 	 -18.1076 	 -106.059
| 34> H 	 43.4983 	 -17.1864 	 -107.066
| 35> C 	 43.6257 	 -16.6784 	 -104.946
| 36> H 	 42.6806 	 -17.1388 	 -104.717
| 37> H 	 43.353 	 -15.6207 	 -105.075
| 38> H 	 44.2048 	 -16.7338 	 -104.026
| 39> H 	 41.1839 	 -17.4474 	 -111.309
| 40> H 	 49.2493 	 -17.1716 	 -109.345
| 41> *
| 42>
| 43>                          ****END OF INPUT****

CARTESIAN COORDINATES (ANGSTROEM)
---------------------------------
  S     43.376500  -18.202900  -110.320000
  C     42.088500  -17.083900  -110.881000
  C     42.321000  -15.807600  -110.378000
  C     43.548800  -15.769100  -109.604000
  C     44.247100  -16.967400  -109.575000
  H     44.006600  -14.920600  -109.159000
  C     41.407100  -14.563000  -110.477000
  H     41.351300  -14.210900  -109.456000
  H     40.411900  -14.866100  -110.722000
  C     41.719000  -13.492800  -111.495000
  H     42.700000  -13.228200  -111.326000
  H     41.689500  -13.970200  -112.412000
  C     40.654100  -12.435200  -111.514000
  H     40.767300  -11.809000  -112.378000
  H     39.639600  -12.797300  -111.611000
  H     40.741500  -11.929300  -110.541000
  S     46.899000  -17.371200  -110.282000
  C     48.169700  -17.177400  -109.177000
  C     47.672900  -16.694400  -107.974000
  C     46.217900  -16.675600  -107.885000
  C     45.620700  -17.056700  -109.082000
  H     48.372800  -16.619700  -107.167000
  C     45.348800  -16.276400  -106.726000
  H     44.904400  -15.329500  -106.898000
  H     46.103700  -16.202100  -105.936000
  C     44.224700  -17.191500  -106.231000
  H     44.665700  -18.107600  -106.059000
  H     43.498300  -17.186400  -107.066000
  C     43.625700  -16.678400  -104.946000
  H     42.680600  -17.138800  -104.717000
  H     43.353000  -15.620700  -105.075000
  H     44.204800  -16.733800  -104.026000
  H     41.183900  -17.447400  -111.309000
  H     49.249300  -17.171600  -109.345000

 Total Charge           Charge          ....    0
 Multiplicity           Mult            ....    1
 Number of Electrons    NEL             ....  134
 Basis Dimension        Dim             ....  322

ORBITAL ENERGIES
----------------

  NO   OCC          E(Eh)            E(eV)
   0   2.0000     -88.968308     -2420.9507
   1   2.0000     -88.962061     -2420.7808
   2   2.0000     -10.328207      -281.0448
   3   2.0000     -10.325994      -280.9846
   4   2.0000     -10.319203      -280.7998
   5   2.0000     -10.315628      -280.7025
   6   2.0000     -10.310518      -280.5635
   7   2.0000     -10.305334      -280.4224
   8   2.0000     -10.294070      -280.1159
   9   2.0000     -10.292998      -280.0867
  10   2.0000     -10.289079      -279.9801
  11   2.0000     -10.283281      -279.8223
  12   2.0000     -10.277645      -279.6689
  13   2.0000     -10.276007      -279.6244
  14   2.0000     -10.272822      -279.5377
  15   2.0000     -10.271240      -279.4947
  16   2.0000      -8.083383      -219.9600
  17   2.0000      -8.077348      -219.7958
  18   2.0000      -6.041842      -164.4069
  19   2.0000      -6.037729      -164.2950
  20   2.0000      -6.035871      -164.2444
  21   2.0000      -6.034262      -164.2006
  22   2.0000      -6.031544      -164.1266
  23   2.0000      -6.028268      -164.0375
  24   2.0000      -1.008438       -27.4410
  25   2.0000      -0.984499       -26.7896
  26   2.0000      -0.922649       -25.1065
  27   2.0000      -0.914056       -24.8727
  28   2.0000      -0.872689       -23.7471
  29   2.0000      -0.854135       -23.2422
  30   2.0000      -0.845599       -23.0099
  31   2.0000      -0.812637       -22.1130
  32   2.0000      -0.785604       -21.3774
  33   2.0000      -0.774499       -21.0752
  34   2.0000      -0.712397       -19.3853
  35   2.0000      -0.708414       -19.2769
  36   2.0000      -0.690743       -18.7961
  37   2.0000      -0.659613       -17.9490
  38   2.0000      -0.647054       -17.6072
  39   2.0000      -0.620929       -16.8963
  40   2.0000      -0.595698       -16.2098
  41   2.0000      -0.580119       -15.7859
  42   2.0000      -0.571716       -15.5572
  43   2.0000      -0.568904       -15.4807
  44   2.0000      -0.529406       -14.4059
  45   2.0000      -0.522234       -14.2107
  46   2.0000      -0.517605       -14.0847
  47   2.0000      -0.512655       -13.9501
  48   2.0000      -0.511032       -13.9059
  49   2.0000      -0.501230       -13.6392
  50   2.0000      -0.494201       -13.4479
  51   2.0000      -0.482608       -13.1324
  52   2.0000      -0.476575       -12.9683
  53   2.0000      -0.470193       -12.7946
  54   2.0000      -0.461990       -12.5714
  55   2.0000      -0.445952       -12.1350
  56   2.0000      -0.444195       -12.0872
  57   2.0000      -0.439224       -11.9519
  58   2.0000      -0.433018       -11.7830
  59   2.0000      -0.428969       -11.6728
  60   2.0000      -0.423509       -11.5243
  61   2.0000      -0.412981       -11.2378
  62   2.0000      -0.405228       -11.0268
  63   2.0000      -0.341355        -9.2887
  64   2.0000      -0.333640        -9.0788
  65   2.0000      -0.326043        -8.8721
  66   2.0000      -0.298651        -8.1267
  67   0.0000       0.032576         0.8864
  68   0.0000       0.066113         1.7990
  69   0.0000       0.108307         2.9472
  70   0.0000       0.123437         3.3589
  71   0.0000       0.133213         3.6249

MULLIKEN ATOMIC CHARGES
-----------------------
   0 S :    0.116179
   1 C :   -0.123485
   2 C :   -0.072063
   3 C :    0.035095
   4 C :   -0.174929
   5 H :    0.003028
   6 C :    0.048867
   7 H :    0.023826
   8 H :   -0.005451
   9 C :    0.013873
  10 H :    0.007363
  11 H :    0.003240
  12 C :   -0.026678
  13 H :    0.033990
  14 H :    0.023279
  15 H :    0.032237
  16 S :    0.109881
  17 C :   -0.085783
  18 C :   -0.049275
  19 C :   -0.036022
  20 C :   -0.147700
  21 H :    0.014058
  22 C :    0.044487
  23 H :    0.019124
  24 H :    0.007855
  25 C :   -0.020000
  26 H :    0.012134
  27 H :    0.048857
  28 C :   -0.038872
  29 H :    0.024732
  30 H :    0.013906
  31 H :    0.032864
  32 H :    0.044897
  33 H :    0.066485
Sum of atomic charges:    0.0000000

LOEWDIN ATOMIC CHARGES
----------------------
   0 S :    0.421565
   1 C :   -0.183151
   2 C :   -0.051664
   3 C :   -0.062800
   4 C :   -0.220817
   5 H :    0.023965
   6 C :   -0.025230
   7 H :    0.028148
   8 H :    0.021524
   9 C :   -0.029334
  10 H :    0.014539
  11 H :    0.018273
  12 C :   -0.056882
  13 H :    0.026819
  14 H :    0.025081
  15 H :    0.029350
  16 S :    0.418597
  17 C :   -0.204953
  18 C :   -0.079722
  19 C :   -0.055176
  20 C :   -0.191572
  21 H :    0.025859
  22 C :   -0.032883
  23 H :    0.022640
  24 H :    0.028033
  25 C :   -0.029286
  26 H :    0.014992
  27 H :    0.031584
  28 C :   -0.065398
  29 H :    0.025335
  30 H :    0.024556
  31 H :    0.025694
  32 H :    0.022603
  33 H :    0.039713

  Mayer bond orders larger than 0.100000
B(  0-S ,  1-C ) :   1.1285 B(  0-S ,  4-C ) :   1.1732 B(  1-C ,  2-C ) :   1.6051
B(  1-C , 32-H ) :   0.9755 B(  2-C ,  3-C ) :   1.2403 B(  2-C ,  6-C ) :   1.0110
B(  3-C ,  4-C ) :   1.5525 B(  3-C ,  5-H ) :   0.9958 B(  4-C , 20-C ) :   1.0216
B(  6-C ,  7-H ) :   0.9437 B(  6-C ,  8-H ) :   0.9399 B(  6-C ,  9-C ) :   1.0648
B(  9-C , 10-H ) :   0.9552 B(  9-C , 11-H ) :   0.9440 B(  9-C , 12-C ) :   1.0874
B( 12-C , 13-H ) :   0.9728 B( 12-C , 14-H ) :   0.9707 B( 12-C , 15-H ) :   0.9759
B( 16-S , 17-C ) :   1.1757 B( 16-S , 20-C ) :   1.1420 B( 17-C , 18-C ) :   1.6045
B( 17-C , 33-H ) :   0.9609 B( 18-C , 19-C ) :   1.2495 B( 18-C , 21-H ) :   0.9870
B( 19-C , 20-C ) :   1.5844 B( 19-C , 22-C ) :   1.0429 B( 22-C , 23-H ) :   0.9246
B( 22-C , 24-H ) :   0.9330 B( 22-C , 25-C ) :   1.0746 B( 25-C , 26-H ) :   0.9535
B( 25-C , 27-H ) :   0.9438 B( 25-C , 28-C ) :   1.0976 B( 28-C , 29-H ) :   0.9705
B( 28-C , 30-H ) :   0.9693 B( 28-C , 31-H ) :   0.9747

Dispersion correction           -0.014157775
FINAL SINGLE POINT ENERGY     -1339.864807668854

DIPOLE MOMENT
-------------
                                X             Y             Z
Electronic contribution:     16.24181     -18.23983     -11.29540
Nuclear contribution   :    -16.52702      18.76266      11.55350
                        -----------------------------------------
Total Dipole Moment    :     -0.28521       0.52283       0.25810
                        -----------------------------------------
Magnitude (a.u.)       :      0.64908
Magnitude (Debye)      :      1.64984

Rotational constants in cm-1:     0.017379     0.008257     0.007162
Rotational constants in MHz :   520.998329   247.531411   214.722831

                             ****ORCA TERMINATED NORMALLY****
TOTAL RUN TIME: 0 days 0 hours 0 minutes 20 seconds 620 msec
