                         Program Version 4.2.1 -  RELEASE  -
|  1> ! wB97X-D3 SP def2-SVP
|  2> %pal
|  3> nprocs 24
|  4> end
|  5>
|  6> * xyz 0 1
|  7> S 	 -109.637 	 67.0348 	 -77.3524
|  8> C 	 -108.12 	 66.1953 	 -76.8803
|  9> C 	 -108.333 	 64.7967 	 -76.8283
| 10> C 	 -109.643 	 64.4554 	 -77.3671
| 11> C 	 -110.465 	 65.5292 	 -77.7359
| 12> H 	 -110.1 	 63.4768 	 -77.3918
| 13> C 	 -107.357 	 63.8051 	 -76.1873
| 14> H 	 -106.899 	 64.2681 	 -75.2649
| 15> H 	 -106.47 	 63.7419 	 -76.8754
| 16> C 	 -107.784 	 62.3228 	 -75.9767
| 17> H 	 -107.082 	 61.7565 	 -75.3975
| 18> H 	 -108.736 	 62.2401 	 -75.4963
| 19> C 	 -107.863 	 61.479 	 -77.2516
| 20> H 	 -108.468 	 60.6367 	 -77.1633
| 21> H 	 -108.197 	 61.9152 	 -78.2023
| 22> H 	 -106.845 	 61.1258 	 -77.5043
| 23> S 	 -112.789 	 66.746 	 -77.2395
| 24> C 	 -114.271 	 66.103 	 -77.9053
| 25> C 	 -114.066 	 64.9081 	 -78.5489
| 26> C 	 -112.691 	 64.4754 	 -78.5898
| 27> C 	 -111.896 	 65.4659 	 -78.0221
| 28> H 	 -114.919 	 64.3126 	 -78.943
| 29> C 	 -112.201 	 63.3477 	 -79.4528
| 30> H 	 -112.692 	 62.5359 	 -78.9696
| 31> H 	 -111.1 	 63.3073 	 -79.322
| 32> C 	 -112.709 	 63.2767 	 -80.9327
| 33> H 	 -113.737 	 63.4817 	 -80.7633
| 34> H 	 -112.773 	 62.214 	 -81.3421
| 35> C 	 -111.912 	 64.1323 	 -81.8733
| 36> H 	 -110.947 	 63.6745 	 -82.1522
| 37> H 	 -111.715 	 65.0722 	 -81.2618
| 38> H 	 -112.501 	 64.4218 	 -82.7672
| 39> H 	 -107.119 	 66.6163 	 -76.7383
| 40> H 	 -115.24 	 66.6002 	 -77.7713
| 41> *
| 42>
| 43>                          ****END OF INPUT****

CARTESIAN COORDINATES (ANGSTROEM)
---------------------------------
  S    -109.637000   67.034800  -77.352400
  C    -108.120000   66.195300  -76.880300
  C    -108.333000   64.796700  -76.828300
  C    -109.643000   64.455400  -77.367100
  C    -110.465000   65.529200  -77.735900
  H    -110.100000   63.476800  -77.391800
  C    -107.357000   63.805100  -76.187300
  H    -106.899000   64.268100  -75.264900
  H    -106.470000   63.741900  -76.875400
  C    -107.784000   62.322800  -75.976700
  H    -107.082000   61.756500  -75.397500
  H    -108.736000   62.240100  -75.496300
  C    -107.863000   61.479000  -77.251600
  H    -108.468000   60.636700  -77.163300
  H    -108.197000   61.915200  -78.202300
  H    -106.845000   61.125800  -77.504300
  S    -112.789000   66.746000  -77.239500
  C    -114.271000   66.103000  -77.905300
  C    -114.066000   64.908100  -78.548900
  C    -112.691000   64.475400  -78.589800
  C    -111.896000   65.465900  -78.022100
  H    -114.919000   64.312600  -78.943000
  C    -112.201000   63.347700  -79.452800
  H    -112.692000   62.535900  -78.969600
  H    -111.100000   63.307300  -79.322000
  C    -112.709000   63.276700  -80.932700
  H    -113.737000   63.481700  -80.763300
  H    -112.773000   62.214000  -81.342100
  C    -111.912000   64.132300  -81.873300
  H    -110.947000   63.674500  -82.152200
  H    -111.715000   65.072200  -81.261800
  H    -112.501000   64.421800  -82.767200
  H    -107.119000   66.616300  -76.738300
  H    -115.240000   66.600200  -77.771300

 Total Charge           Charge          ....    0
 Multiplicity           Mult            ....    1
 Number of Electrons    NEL             ....  134
 Basis Dimension        Dim             ....  322

ORBITAL ENERGIES
----------------

  NO   OCC          E(Eh)            E(eV)
   0   2.0000     -88.969298     -2420.9777
   1   2.0000     -88.965831     -2420.8833
   2   2.0000     -10.333255      -281.1822
   3   2.0000     -10.329255      -281.0733
   4   2.0000     -10.321137      -280.8524
   5   2.0000     -10.318060      -280.7687
   6   2.0000     -10.313412      -280.6422
   7   2.0000     -10.306466      -280.4532
   8   2.0000     -10.305031      -280.4141
   9   2.0000     -10.298979      -280.2495
  10   2.0000     -10.297573      -280.2112
  11   2.0000     -10.292175      -280.0643
  12   2.0000     -10.289798      -279.9996
  13   2.0000     -10.289029      -279.9787
  14   2.0000     -10.280834      -279.7557
  15   2.0000     -10.274734      -279.5897
  16   2.0000      -8.082606      -219.9389
  17   2.0000      -8.081013      -219.8955
  18   2.0000      -6.041355      -164.3936
  19   2.0000      -6.039536      -164.3441
  20   2.0000      -6.037283      -164.2828
  21   2.0000      -6.035541      -164.2354
  22   2.0000      -6.033226      -164.1724
  23   2.0000      -6.031631      -164.1290
  24   2.0000      -1.006495       -27.3881
  25   2.0000      -0.976234       -26.5647
  26   2.0000      -0.912767       -24.8377
  27   2.0000      -0.907950       -24.7066
  28   2.0000      -0.869899       -23.6711
  29   2.0000      -0.853263       -23.2185
  30   2.0000      -0.839635       -22.8476
  31   2.0000      -0.813245       -22.1295
  32   2.0000      -0.783543       -21.3213
  33   2.0000      -0.772951       -21.0331
  34   2.0000      -0.710874       -19.3439
  35   2.0000      -0.699731       -19.0406
  36   2.0000      -0.694304       -18.8930
  37   2.0000      -0.656987       -17.8775
  38   2.0000      -0.635593       -17.2954
  39   2.0000      -0.617427       -16.8010
  40   2.0000      -0.593856       -16.1597
  41   2.0000      -0.566110       -15.4046
  42   2.0000      -0.557407       -15.1678
  43   2.0000      -0.548545       -14.9267
  44   2.0000      -0.538606       -14.6562
  45   2.0000      -0.537326       -14.6214
  46   2.0000      -0.519712       -14.1421
  47   2.0000      -0.504565       -13.7299
  48   2.0000      -0.503817       -13.7096
  49   2.0000      -0.496361       -13.5067
  50   2.0000      -0.489421       -13.3178
  51   2.0000      -0.482973       -13.1424
  52   2.0000      -0.474170       -12.9028
  53   2.0000      -0.467949       -12.7335
  54   2.0000      -0.452505       -12.3133
  55   2.0000      -0.446044       -12.1375
  56   2.0000      -0.444480       -12.0949
  57   2.0000      -0.436088       -11.8666
  58   2.0000      -0.434894       -11.8341
  59   2.0000      -0.426075       -11.5941
  60   2.0000      -0.423216       -11.5163
  61   2.0000      -0.417679       -11.3656
  62   2.0000      -0.403686       -10.9848
  63   2.0000      -0.355176        -9.6648
  64   2.0000      -0.332345        -9.0436
  65   2.0000      -0.325823        -8.8661
  66   2.0000      -0.281556        -7.6615
  67   0.0000       0.019478         0.5300
  68   0.0000       0.072411         1.9704
  69   0.0000       0.099778         2.7151
  70   0.0000       0.116169         3.1611
  71   0.0000       0.134552         3.6614

MULLIKEN ATOMIC CHARGES
-----------------------
   0 S :    0.099075
   1 C :   -0.130587
   2 C :   -0.076576
   3 C :    0.003654
   4 C :   -0.127594
   5 H :    0.017809
   6 C :    0.019668
   7 H :    0.049709
   8 H :    0.039797
   9 C :   -0.032079
  10 H :    0.030770
  11 H :    0.030736
  12 C :   -0.073391
  13 H :    0.019079
  14 H :    0.032232
  15 H :    0.024228
  16 S :    0.095758
  17 C :   -0.090476
  18 C :   -0.055152
  19 C :   -0.060454
  20 C :   -0.140308
  21 H :    0.037584
  22 C :    0.047953
  23 H :    0.020141
  24 H :    0.030528
  25 C :   -0.052037
  26 H :    0.003754
  27 H :    0.031403
  28 C :   -0.053326
  29 H :    0.045614
  30 H :    0.046505
  31 H :    0.042920
  32 H :    0.059487
  33 H :    0.063577
Sum of atomic charges:    0.0000000

LOEWDIN ATOMIC CHARGES
----------------------
   0 S :    0.385118
   1 C :   -0.196384
   2 C :   -0.054082
   3 C :   -0.071648
   4 C :   -0.192843
   5 H :    0.027231
   6 C :   -0.040552
   7 H :    0.040529
   8 H :    0.039329
   9 C :   -0.038129
  10 H :    0.030695
  11 H :    0.020983
  12 C :   -0.070006
  13 H :    0.018222
  14 H :    0.024619
  15 H :    0.026410
  16 S :    0.403456
  17 C :   -0.187811
  18 C :   -0.074308
  19 C :   -0.065161
  20 C :   -0.188532
  21 H :    0.036716
  22 C :   -0.032832
  23 H :    0.033056
  24 H :    0.030266
  25 C :   -0.044390
  26 H :    0.016114
  27 H :    0.028903
  28 C :   -0.071608
  29 H :    0.030457
  30 H :    0.037549
  31 H :    0.030398
  32 H :    0.035155
  33 H :    0.033079

  Mayer bond orders larger than 0.100000
B(  0-S ,  1-C ) :   1.1254 B(  0-S ,  4-C ) :   1.1462 B(  1-C ,  2-C ) :   1.6024
B(  1-C ,  4-C ) :   0.1019 B(  1-C , 32-H ) :   0.9696 B(  2-C ,  3-C ) :   1.2597
B(  2-C ,  6-C ) :   1.0061 B(  3-C ,  4-C ) :   1.5513 B(  3-C ,  5-H ) :   0.9774
B(  4-C , 20-C ) :   1.0600 B(  6-C ,  7-H ) :   0.9488 B(  6-C ,  8-H ) :   0.9369
B(  6-C ,  9-C ) :   1.0733 B(  9-C , 10-H ) :   0.9552 B(  9-C , 11-H ) :   0.9619
B(  9-C , 12-C ) :   1.0617 B( 12-C , 13-H ) :   0.9748 B( 12-C , 14-H ) :   0.9795
B( 12-C , 15-H ) :   0.9763 B( 16-S , 17-C ) :   1.1353 B( 16-S , 20-C ) :   1.1469
B( 17-C , 18-C ) :   1.6342 B( 17-C , 33-H ) :   0.9676 B( 18-C , 19-C ) :   1.2125
B( 18-C , 21-H ) :   0.9766 B( 19-C , 20-C ) :   1.5900 B( 19-C , 22-C ) :   1.0516
B( 22-C , 23-H ) :   0.9104 B( 22-C , 24-H ) :   0.9410 B( 22-C , 25-C ) :   1.0690
B( 25-C , 26-H ) :   0.9485 B( 25-C , 27-H ) :   0.9527 B( 25-C , 28-C ) :   1.0720
B( 28-C , 29-H ) :   0.9720 B( 28-C , 30-H ) :   0.9771 B( 28-C , 31-H ) :   0.9721

Dispersion correction           -0.014361475
FINAL SINGLE POINT ENERGY     -1339.861921585183

DIPOLE MOMENT
-------------
                                X             Y             Z
Electronic contribution:     -7.93925      24.59466       9.91987
Nuclear contribution   :      7.99085     -25.31623      -9.93997
                        -----------------------------------------
Total Dipole Moment    :      0.05160      -0.72157      -0.02010
                        -----------------------------------------
Magnitude (a.u.)       :      0.72369
Magnitude (Debye)      :      1.83948

Rotational constants in cm-1:     0.017123     0.009496     0.007255
Rotational constants in MHz :   513.323362   284.678873   217.511987

                             ****ORCA TERMINATED NORMALLY****
TOTAL RUN TIME: 0 days 0 hours 0 minutes 20 seconds 808 msec
