                         Program Version 4.2.1 -  RELEASE  -
|  1> ! wB97X-D3 SP def2-SVP
|  2> %pal
|  3> nprocs 24
|  4> end
|  5>
|  6> * xyz 0 1
|  7> S 	 -36.5655 	 11.1333 	 -3.46862
|  8> C 	 -37.0687 	 9.50352 	 -3.26773
|  9> C 	 -35.9663 	 8.7057 	 -2.99881
| 10> C 	 -34.7395 	 9.43177 	 -2.96368
| 11> C 	 -34.8766 	 10.8275 	 -3.08104
| 12> H 	 -33.7888 	 9.00039 	 -2.64187
| 13> C 	 -36.032 	 7.15662 	 -2.88612
| 14> H 	 -36.6741 	 6.91814 	 -2.08861
| 15> H 	 -35.026 	 6.89634 	 -2.64673
| 16> C 	 -36.2515 	 6.45482 	 -4.20279
| 17> H 	 -37.3122 	 6.41848 	 -4.31655
| 18> H 	 -35.9285 	 6.97368 	 -5.14871
| 19> C 	 -35.7596 	 5.03161 	 -4.2378
| 20> H 	 -36.2293 	 4.38182 	 -3.47283
| 21> H 	 -35.8508 	 4.58473 	 -5.24394
| 22> H 	 -34.6705 	 5.14269 	 -4.09049
| 23> S 	 -34.2979 	 12.9384 	 -1.50997
| 24> C 	 -32.756 	 13.716 	 -1.58266
| 25> C 	 -31.8874 	 13.0842 	 -2.50202
| 26> C 	 -32.4972 	 11.9826 	 -3.20374
| 27> C 	 -33.8116 	 11.8254 	 -2.80017
| 28> H 	 -30.8667 	 13.5922 	 -2.65378
| 29> C 	 -31.7048 	 11.1334 	 -4.18581
| 30> H 	 -31.7656 	 10.1263 	 -3.76941
| 31> H 	 -30.6889 	 11.4323 	 -4.18114
| 32> C 	 -32.2764 	 11.0619 	 -5.55936
| 33> H 	 -32.2597 	 11.9848 	 -6.02336
| 34> H 	 -33.3196 	 10.6937 	 -5.54549
| 35> C 	 -31.5636 	 10.1001 	 -6.58732
| 36> H 	 -31.8372 	 9.08636 	 -6.29692
| 37> H 	 -30.4768 	 10.2258 	 -6.50528
| 38> H 	 -31.9159 	 10.1461 	 -7.63496
| 39> H 	 -38.0528 	 9.24242 	 -3.45337
| 40> H 	 -32.5122 	 14.6495 	 -1.01698
| 41> *
| 42>
| 43>                          ****END OF INPUT****

CARTESIAN COORDINATES (ANGSTROEM)
---------------------------------
  S    -36.565500   11.133300   -3.468620
  C    -37.068700    9.503520   -3.267730
  C    -35.966300    8.705700   -2.998810
  C    -34.739500    9.431770   -2.963680
  C    -34.876600   10.827500   -3.081040
  H    -33.788800    9.000390   -2.641870
  C    -36.032000    7.156620   -2.886120
  H    -36.674100    6.918140   -2.088610
  H    -35.026000    6.896340   -2.646730
  C    -36.251500    6.454820   -4.202790
  H    -37.312200    6.418480   -4.316550
  H    -35.928500    6.973680   -5.148710
  C    -35.759600    5.031610   -4.237800
  H    -36.229300    4.381820   -3.472830
  H    -35.850800    4.584730   -5.243940
  H    -34.670500    5.142690   -4.090490
  S    -34.297900   12.938400   -1.509970
  C    -32.756000   13.716000   -1.582660
  C    -31.887400   13.084200   -2.502020
  C    -32.497200   11.982600   -3.203740
  C    -33.811600   11.825400   -2.800170
  H    -30.866700   13.592200   -2.653780
  C    -31.704800   11.133400   -4.185810
  H    -31.765600   10.126300   -3.769410
  H    -30.688900   11.432300   -4.181140
  C    -32.276400   11.061900   -5.559360
  H    -32.259700   11.984800   -6.023360
  H    -33.319600   10.693700   -5.545490
  C    -31.563600   10.100100   -6.587320
  H    -31.837200    9.086360   -6.296920
  H    -30.476800   10.225800   -6.505280
  H    -31.915900   10.146100   -7.634960
  H    -38.052800    9.242420   -3.453370
  H    -32.512200   14.649500   -1.016980

 Total Charge           Charge          ....    0
 Multiplicity           Mult            ....    1
 Number of Electrons    NEL             ....  134
 Basis Dimension        Dim             ....  322

ORBITAL ENERGIES
----------------

  NO   OCC          E(Eh)            E(eV)
   0   2.0000     -88.966584     -2420.9038
   1   2.0000     -88.966114     -2420.8910
   2   2.0000     -10.334613      -281.2191
   3   2.0000     -10.331325      -281.1296
   4   2.0000     -10.321471      -280.8615
   5   2.0000     -10.310423      -280.5609
   6   2.0000     -10.309431      -280.5339
   7   2.0000     -10.304362      -280.3959
   8   2.0000     -10.302620      -280.3485
   9   2.0000     -10.296156      -280.1726
  10   2.0000     -10.290618      -280.0220
  11   2.0000     -10.286672      -279.9146
  12   2.0000     -10.282406      -279.7985
  13   2.0000     -10.281742      -279.7804
  14   2.0000     -10.279529      -279.7202
  15   2.0000     -10.276882      -279.6482
  16   2.0000      -8.081392      -219.9059
  17   2.0000      -8.081048      -219.8965
  18   2.0000      -6.039757      -164.3502
  19   2.0000      -6.039542      -164.3443
  20   2.0000      -6.035918      -164.2457
  21   2.0000      -6.035238      -164.2272
  22   2.0000      -6.032249      -164.1458
  23   2.0000      -6.032102      -164.1418
  24   2.0000      -1.004517       -27.3343
  25   2.0000      -0.983964       -26.7750
  26   2.0000      -0.915846       -24.9214
  27   2.0000      -0.912704       -24.8359
  28   2.0000      -0.865446       -23.5500
  29   2.0000      -0.851076       -23.1590
  30   2.0000      -0.846799       -23.0426
  31   2.0000      -0.809335       -22.0231
  32   2.0000      -0.783834       -21.3292
  33   2.0000      -0.772648       -21.0248
  34   2.0000      -0.705765       -19.2048
  35   2.0000      -0.698245       -19.0002
  36   2.0000      -0.687702       -18.7133
  37   2.0000      -0.661350       -17.9963
  38   2.0000      -0.646220       -17.5845
  39   2.0000      -0.616153       -16.7664
  40   2.0000      -0.592203       -16.1147
  41   2.0000      -0.573546       -15.6070
  42   2.0000      -0.571905       -15.5623
  43   2.0000      -0.563233       -15.3264
  44   2.0000      -0.531375       -14.4594
  45   2.0000      -0.523029       -14.2323
  46   2.0000      -0.515585       -14.0298
  47   2.0000      -0.509319       -13.8593
  48   2.0000      -0.505339       -13.7510
  49   2.0000      -0.497997       -13.5512
  50   2.0000      -0.495088       -13.4720
  51   2.0000      -0.485875       -13.2213
  52   2.0000      -0.470014       -12.7897
  53   2.0000      -0.468883       -12.7590
  54   2.0000      -0.458125       -12.4662
  55   2.0000      -0.446286       -12.1440
  56   2.0000      -0.443571       -12.0702
  57   2.0000      -0.439189       -11.9509
  58   2.0000      -0.435116       -11.8401
  59   2.0000      -0.423388       -11.5210
  60   2.0000      -0.413653       -11.2561
  61   2.0000      -0.412028       -11.2118
  62   2.0000      -0.408021       -11.1028
  63   2.0000      -0.343887        -9.3577
  64   2.0000      -0.333608        -9.0779
  65   2.0000      -0.328264        -8.9325
  66   2.0000      -0.293360        -7.9827
  67   0.0000       0.029071         0.7911
  68   0.0000       0.067624         1.8401
  69   0.0000       0.112466         3.0603
  70   0.0000       0.126787         3.4500
  71   0.0000       0.133160         3.6235

MULLIKEN ATOMIC CHARGES
-----------------------
   0 S :    0.110749
   1 C :   -0.103669
   2 C :   -0.119903
   3 C :    0.032493
   4 C :   -0.159598
   5 H :    0.021270
   6 C :    0.134188
   7 H :    0.033298
   8 H :   -0.009851
   9 C :   -0.075244
  10 H :    0.010549
  11 H :    0.043101
  12 C :   -0.073796
  13 H :    0.044248
  14 H :    0.039487
  15 H :    0.030088
  16 S :    0.116254
  17 C :   -0.117874
  18 C :   -0.087917
  19 C :   -0.026883
  20 C :   -0.175896
  21 H :    0.051617
  22 C :    0.142874
  23 H :    0.021468
  24 H :    0.005300
  25 C :   -0.083792
  26 H :    0.016373
  27 H :    0.045599
  28 C :   -0.064344
  29 H :    0.020358
  30 H :    0.031975
  31 H :    0.043180
  32 H :    0.028296
  33 H :    0.076000
Sum of atomic charges:   -0.0000000

LOEWDIN ATOMIC CHARGES
----------------------
   0 S :    0.420789
   1 C :   -0.195723
   2 C :   -0.060120
   3 C :   -0.070497
   4 C :   -0.204098
   5 H :    0.030537
   6 C :   -0.019296
   7 H :    0.028251
   8 H :    0.021206
   9 C :   -0.050741
  10 H :    0.015516
  11 H :    0.035224
  12 C :   -0.069015
  13 H :    0.028510
  14 H :    0.030187
  15 H :    0.024714
  16 S :    0.415901
  17 C :   -0.203833
  18 C :   -0.086758
  19 C :   -0.050226
  20 C :   -0.189506
  21 H :    0.046415
  22 C :   -0.023166
  23 H :    0.034996
  24 H :    0.025442
  25 C :   -0.037165
  26 H :    0.012670
  27 H :    0.031609
  28 C :   -0.068130
  29 H :    0.020350
  30 H :    0.021979
  31 H :    0.031163
  32 H :    0.014534
  33 H :    0.038281

  Mayer bond orders larger than 0.100000
B(  0-S ,  1-C ) :   1.1587 B(  0-S ,  4-C ) :   1.1713 B(  1-C ,  2-C ) :   1.5519
B(  1-C ,  4-C ) :   0.1048 B(  1-C , 32-H ) :   0.9899 B(  2-C ,  3-C ) :   1.3052
B(  2-C ,  6-C ) :   1.0140 B(  3-C ,  4-C ) :   1.5249 B(  3-C ,  5-H ) :   0.9822
B(  4-C , 20-C ) :   1.0264 B(  6-C ,  7-H ) :   0.9372 B(  6-C ,  8-H ) :   0.9425
B(  6-C ,  9-C ) :   1.0493 B(  9-C , 10-H ) :   0.9475 B(  9-C , 11-H ) :   0.9583
B(  9-C , 12-C ) :   1.0923 B( 12-C , 13-H ) :   0.9732 B( 12-C , 14-H ) :   0.9725
B( 12-C , 15-H ) :   0.9761 B( 16-S , 17-C ) :   1.1668 B( 16-S , 20-C ) :   1.1523
B( 17-C , 18-C ) :   1.6087 B( 17-C , 20-C ) :   0.1024 B( 17-C , 33-H ) :   0.9607
B( 18-C , 19-C ) :   1.2349 B( 18-C , 21-H ) :   0.9756 B( 19-C , 20-C ) :   1.6020
B( 19-C , 22-C ) :   1.0385 B( 22-C , 23-H ) :   0.9252 B( 22-C , 24-H ) :   0.9252
B( 22-C , 25-C ) :   1.0726 B( 25-C , 26-H ) :   0.9579 B( 25-C , 27-H ) :   0.9542
B( 25-C , 28-C ) :   1.0770 B( 28-C , 29-H ) :   0.9779 B( 28-C , 30-H ) :   0.9759
B( 28-C , 31-H ) :   0.9763

Dispersion correction           -0.013953767
FINAL SINGLE POINT ENERGY     -1339.870485820377

DIPOLE MOMENT
-------------
                                X             Y             Z
Electronic contribution:     -9.41259      24.58770      15.35129
Nuclear contribution   :      9.67232     -25.00964     -15.51038
                        -----------------------------------------
Total Dipole Moment    :      0.25972      -0.42194      -0.15909
                        -----------------------------------------
Magnitude (a.u.)       :      0.52038
Magnitude (Debye)      :      1.32271

Rotational constants in cm-1:     0.018182     0.008561     0.006602
Rotational constants in MHz :   545.086232   256.654675   197.924381

                             ****ORCA TERMINATED NORMALLY****
TOTAL RUN TIME: 0 days 0 hours 0 minutes 21 seconds 252 msec
