                         Program Version 4.2.1 -  RELEASE  -
|  1> ! wB97X-D3 SP def2-SVP
|  2> %pal
|  3> nprocs 24
|  4> end
|  5>
|  6> * xyz 0 1
|  7> S 	 -70.1541 	 13.9009 	 -77.8772
|  8> C 	 -68.4987 	 13.9412 	 -77.9419
|  9> C 	 -67.9016 	 13.3888 	 -76.8025
| 10> C 	 -68.8867 	 13.0107 	 -75.8518
| 11> C 	 -70.1955 	 13.1834 	 -76.3178
| 12> H 	 -68.7567 	 12.6573 	 -74.806
| 13> C 	 -66.3658 	 13.2708 	 -76.5507
| 14> H 	 -66.2629 	 12.172 	 -76.3137
| 15> H 	 -66.1007 	 13.7703 	 -75.5599
| 16> C 	 -65.4336 	 13.4973 	 -77.735
| 17> H 	 -64.4613 	 12.9997 	 -77.5032
| 18> H 	 -65.8671 	 13.0396 	 -78.6272
| 19> C 	 -65.047 	 14.9334 	 -77.9023
| 20> H 	 -64.6327 	 15.209 	 -76.8947
| 21> H 	 -64.1821 	 14.9745 	 -78.5446
| 22> H 	 -65.8292 	 15.6023 	 -78.2531
| 23> S 	 -72.5564 	 11.8069 	 -76.4866
| 24> C 	 -73.6135 	 11.7632 	 -75.1634
| 25> C 	 -73.0392 	 12.3161 	 -74.0372
| 26> C 	 -71.8049 	 12.9762 	 -74.2902
| 27> C 	 -71.4706 	 12.8375 	 -75.6557
| 28> H 	 -73.5016 	 12.3028 	 -73.0601
| 29> C 	 -71.0571 	 13.8666 	 -73.3303
| 30> H 	 -70.0525 	 13.9462 	 -73.6784
| 31> H 	 -71.1627 	 13.1343 	 -72.4881
| 32> C 	 -71.6955 	 15.2309 	 -72.8501
| 33> H 	 -72.7857 	 15.1994 	 -72.6382
| 34> H 	 -71.6533 	 15.8524 	 -73.7669
| 35> C 	 -70.9061 	 16.0152 	 -71.8173
| 36> H 	 -70.6211 	 15.2922 	 -71.0513
| 37> H 	 -71.5216 	 16.8069 	 -71.3757
| 38> H 	 -69.9547 	 16.4315 	 -72.2231
| 39> H 	 -68.13 	 14.3906 	 -78.8644
| 40> H 	 -74.5928 	 11.2719 	 -75.1661
| 41> *
| 42>
| 43>                          ****END OF INPUT****

CARTESIAN COORDINATES (ANGSTROEM)
---------------------------------
  S    -70.154100   13.900900  -77.877200
  C    -68.498700   13.941200  -77.941900
  C    -67.901600   13.388800  -76.802500
  C    -68.886700   13.010700  -75.851800
  C    -70.195500   13.183400  -76.317800
  H    -68.756700   12.657300  -74.806000
  C    -66.365800   13.270800  -76.550700
  H    -66.262900   12.172000  -76.313700
  H    -66.100700   13.770300  -75.559900
  C    -65.433600   13.497300  -77.735000
  H    -64.461300   12.999700  -77.503200
  H    -65.867100   13.039600  -78.627200
  C    -65.047000   14.933400  -77.902300
  H    -64.632700   15.209000  -76.894700
  H    -64.182100   14.974500  -78.544600
  H    -65.829200   15.602300  -78.253100
  S    -72.556400   11.806900  -76.486600
  C    -73.613500   11.763200  -75.163400
  C    -73.039200   12.316100  -74.037200
  C    -71.804900   12.976200  -74.290200
  C    -71.470600   12.837500  -75.655700
  H    -73.501600   12.302800  -73.060100
  C    -71.057100   13.866600  -73.330300
  H    -70.052500   13.946200  -73.678400
  H    -71.162700   13.134300  -72.488100
  C    -71.695500   15.230900  -72.850100
  H    -72.785700   15.199400  -72.638200
  H    -71.653300   15.852400  -73.766900
  C    -70.906100   16.015200  -71.817300
  H    -70.621100   15.292200  -71.051300
  H    -71.521600   16.806900  -71.375700
  H    -69.954700   16.431500  -72.223100
  H    -68.130000   14.390600  -78.864400
  H    -74.592800   11.271900  -75.166100

 Total Charge           Charge          ....    0
 Multiplicity           Mult            ....    1
 Number of Electrons    NEL             ....  134
 Basis Dimension        Dim             ....  322

ORBITAL ENERGIES
----------------

  NO   OCC          E(Eh)            E(eV)
   0   2.0000     -88.965196     -2420.8661
   1   2.0000     -88.961904     -2420.7765
   2   2.0000     -10.324865      -280.9539
   3   2.0000     -10.321138      -280.8524
   4   2.0000     -10.312829      -280.6263
   5   2.0000     -10.309336      -280.5313
   6   2.0000     -10.306942      -280.4662
   7   2.0000     -10.301532      -280.3189
   8   2.0000     -10.301297      -280.3125
   9   2.0000     -10.296897      -280.1928
  10   2.0000     -10.295106      -280.1441
  11   2.0000     -10.291309      -280.0408
  12   2.0000     -10.291038      -280.0334
  13   2.0000     -10.288412      -279.9619
  14   2.0000     -10.280919      -279.7580
  15   2.0000     -10.276489      -279.6375
  16   2.0000      -8.081551      -219.9102
  17   2.0000      -8.079324      -219.8496
  18   2.0000      -6.039814      -164.3517
  19   2.0000      -6.037415      -164.2864
  20   2.0000      -6.035717      -164.2402
  21   2.0000      -6.033260      -164.1733
  22   2.0000      -6.032602      -164.1555
  23   2.0000      -6.030567      -164.1001
  24   2.0000      -1.015173       -27.6243
  25   2.0000      -0.995035       -27.0763
  26   2.0000      -0.912305       -24.8251
  27   2.0000      -0.906041       -24.6546
  28   2.0000      -0.867708       -23.6115
  29   2.0000      -0.858524       -23.3616
  30   2.0000      -0.852994       -23.2111
  31   2.0000      -0.810683       -22.0598
  32   2.0000      -0.782709       -21.2986
  33   2.0000      -0.768664       -20.9164
  34   2.0000      -0.699804       -19.0426
  35   2.0000      -0.695948       -18.9377
  36   2.0000      -0.686366       -18.6770
  37   2.0000      -0.663621       -18.0580
  38   2.0000      -0.646436       -17.5904
  39   2.0000      -0.609061       -16.5734
  40   2.0000      -0.592979       -16.1358
  41   2.0000      -0.578496       -15.7417
  42   2.0000      -0.558299       -15.1921
  43   2.0000      -0.545655       -14.8480
  44   2.0000      -0.540169       -14.6987
  45   2.0000      -0.530028       -14.4228
  46   2.0000      -0.516086       -14.0434
  47   2.0000      -0.514463       -13.9992
  48   2.0000      -0.505785       -13.7631
  49   2.0000      -0.492572       -13.4036
  50   2.0000      -0.488744       -13.2994
  51   2.0000      -0.485965       -13.2238
  52   2.0000      -0.473951       -12.8969
  53   2.0000      -0.467182       -12.7127
  54   2.0000      -0.456376       -12.4186
  55   2.0000      -0.454338       -12.3632
  56   2.0000      -0.442408       -12.0385
  57   2.0000      -0.435667       -11.8551
  58   2.0000      -0.434702       -11.8288
  59   2.0000      -0.429056       -11.6752
  60   2.0000      -0.423640       -11.5278
  61   2.0000      -0.413171       -11.2430
  62   2.0000      -0.401571       -10.9273
  63   2.0000      -0.347726        -9.4621
  64   2.0000      -0.328549        -8.9403
  65   2.0000      -0.327443        -8.9102
  66   2.0000      -0.287478        -7.8227
  67   0.0000       0.035547         0.9673
  68   0.0000       0.079742         2.1699
  69   0.0000       0.114009         3.1023
  70   0.0000       0.124740         3.3944
  71   0.0000       0.132730         3.6118

MULLIKEN ATOMIC CHARGES
-----------------------
   0 S :    0.127279
   1 C :   -0.158560
   2 C :   -0.062398
   3 C :    0.013214
   4 C :   -0.197723
   5 H :    0.031346
   6 C :    0.018149
   7 H :    0.040534
   8 H :    0.045232
   9 C :   -0.075496
  10 H :    0.032754
  11 H :    0.034546
  12 C :   -0.034058
  13 H :    0.024026
  14 H :    0.026570
  15 H :    0.041282
  16 S :    0.130137
  17 C :   -0.095619
  18 C :   -0.043229
  19 C :   -0.055686
  20 C :   -0.140633
  21 H :    0.012099
  22 C :    0.070412
  23 H :    0.011527
  24 H :    0.030067
  25 C :   -0.080554
  26 H :    0.035078
  27 H :    0.031952
  28 C :   -0.043204
  29 H :    0.024229
  30 H :    0.043908
  31 H :    0.041006
  32 H :    0.058515
  33 H :    0.063301
Sum of atomic charges:   -0.0000000

LOEWDIN ATOMIC CHARGES
----------------------
   0 S :    0.463633
   1 C :   -0.236611
   2 C :   -0.066314
   3 C :   -0.072464
   4 C :   -0.214239
   5 H :    0.037639
   6 C :   -0.041915
   7 H :    0.039794
   8 H :    0.037467
   9 C :   -0.049147
  10 H :    0.033942
  11 H :    0.025445
  12 C :   -0.065288
  13 H :    0.030990
  14 H :    0.022781
  15 H :    0.021883
  16 S :    0.449592
  17 C :   -0.208631
  18 C :   -0.072876
  19 C :   -0.058853
  20 C :   -0.220956
  21 H :    0.029181
  22 C :   -0.033157
  23 H :    0.024544
  24 H :    0.038075
  25 C :   -0.048228
  26 H :    0.028478
  27 H :    0.028190
  28 C :   -0.067970
  29 H :    0.022399
  30 H :    0.031555
  31 H :    0.030574
  32 H :    0.026419
  33 H :    0.034067

  Mayer bond orders larger than 0.100000
B(  0-S ,  1-C ) :   1.1892 B(  0-S ,  4-C ) :   1.1973 B(  1-C ,  2-C ) :   1.5371
B(  1-C ,  4-C ) :   0.1017 B(  1-C , 32-H ) :   0.9709 B(  2-C ,  3-C ) :   1.2954
B(  2-C ,  6-C ) :   0.9962 B(  3-C ,  4-C ) :   1.5364 B(  3-C ,  5-H ) :   0.9840
B(  4-C , 20-C ) :   1.0056 B(  6-C ,  7-H ) :   0.9410 B(  6-C ,  8-H ) :   0.9428
B(  6-C ,  9-C ) :   1.0840 B(  9-C , 10-H ) :   0.9545 B(  9-C , 11-H ) :   0.9474
B(  9-C , 12-C ) :   1.0816 B( 12-C , 13-H ) :   0.9710 B( 12-C , 14-H ) :   0.9735
B( 12-C , 15-H ) :   0.9772 B( 16-S , 17-C ) :   1.1764 B( 16-S , 20-C ) :   1.1820
B( 17-C , 18-C ) :   1.5652 B( 17-C , 33-H ) :   0.9678 B( 18-C , 19-C ) :   1.2820
B( 18-C , 21-H ) :   0.9927 B( 19-C , 20-C ) :   1.5404 B( 19-C , 22-C ) :   1.0340
B( 22-C , 23-H ) :   0.9312 B( 22-C , 24-H ) :   0.9276 B( 22-C , 25-C ) :   1.0552
B( 25-C , 26-H ) :   0.9580 B( 25-C , 27-H ) :   0.9542 B( 25-C , 28-C ) :   1.0776
B( 28-C , 29-H ) :   0.9771 B( 28-C , 30-H ) :   0.9727 B( 28-C , 31-H ) :   0.9747

Dispersion correction           -0.013672101
FINAL SINGLE POINT ENERGY     -1339.876159391308

DIPOLE MOMENT
-------------
                                X             Y             Z
Electronic contribution:    -19.64512     -12.23590     -13.48330
Nuclear contribution   :     19.97060      12.31892      13.86127
                        -----------------------------------------
Total Dipole Moment    :      0.32547       0.08302       0.37797
                        -----------------------------------------
Magnitude (a.u.)       :      0.50565
Magnitude (Debye)      :      1.28526

Rotational constants in cm-1:     0.019433     0.007882     0.006207
Rotational constants in MHz :   582.573751   236.311139   186.087733

                             ****ORCA TERMINATED NORMALLY****
TOTAL RUN TIME: 0 days 0 hours 0 minutes 21 seconds 184 msec
