                         Program Version 4.2.1 -  RELEASE  -
|  1> ! wB97X-D3 SP def2-SVP
|  2> %pal
|  3> nprocs 24
|  4> end
|  5>
|  6> * xyz 0 1
|  7> S 	 -86.8323 	 -5.72143 	 8.06134
|  8> C 	 -86.9337 	 -5.23833 	 6.50514
|  9> C 	 -85.6621 	 -4.94899 	 5.9717
| 10> C 	 -84.6241 	 -5.07541 	 6.97859
| 11> C 	 -85.1557 	 -5.52024 	 8.14811
| 12> H 	 -83.5774 	 -4.88501 	 6.85349
| 13> C 	 -85.4222 	 -4.71537 	 4.51479
| 14> H 	 -86.3464 	 -5.0166 	 3.94027
| 15> H 	 -84.5916 	 -5.35445 	 4.17919
| 16> C 	 -85.0975 	 -3.28547 	 4.03323
| 17> H 	 -84.9199 	 -3.32327 	 2.98746
| 18> H 	 -85.9518 	 -2.62982 	 4.06383
| 19> C 	 -83.9997 	 -2.53334 	 4.79847
| 20> H 	 -83.8291 	 -1.5951 	 4.33408
| 21> H 	 -84.3534 	 -2.39109 	 5.84635
| 22> H 	 -83.0287 	 -3.03717 	 4.92578
| 23> S 	 -84.7425 	 -6.99902 	 10.3716
| 24> C 	 -83.7394 	 -6.37167 	 11.621
| 25> C 	 -83.2657 	 -5.12256 	 11.3674
| 26> C 	 -83.5831 	 -4.68093 	 10.0177
| 27> C 	 -84.4742 	 -5.53088 	 9.44951
| 28> H 	 -82.6997 	 -4.56825 	 12.0962
| 29> C 	 -83.301 	 -3.25635 	 9.52499
| 30> H 	 -83.2886 	 -2.59715 	 10.3744
| 31> H 	 -84.0602 	 -2.88 	 8.90439
| 32> C 	 -81.9557 	 -3.06938 	 8.87328
| 33> H 	 -82.1034 	 -3.64961 	 7.98879
| 34> H 	 -81.247 	 -3.59787 	 9.59154
| 35> C 	 -81.6858 	 -1.59425 	 8.40993
| 36> H 	 -81.8763 	 -0.806659 	 9.14813
| 37> H 	 -82.2939 	 -1.33313 	 7.55474
| 38> H 	 -80.6651 	 -1.40309 	 8.17634
| 39> H 	 -87.8225 	 -5.33971 	 5.91008
| 40> H 	 -83.7483 	 -6.79466 	 12.6135
| 41> *
| 42>
| 43>                          ****END OF INPUT****

CARTESIAN COORDINATES (ANGSTROEM)
---------------------------------
  S    -86.832300   -5.721430    8.061340
  C    -86.933700   -5.238330    6.505140
  C    -85.662100   -4.948990    5.971700
  C    -84.624100   -5.075410    6.978590
  C    -85.155700   -5.520240    8.148110
  H    -83.577400   -4.885010    6.853490
  C    -85.422200   -4.715370    4.514790
  H    -86.346400   -5.016600    3.940270
  H    -84.591600   -5.354450    4.179190
  C    -85.097500   -3.285470    4.033230
  H    -84.919900   -3.323270    2.987460
  H    -85.951800   -2.629820    4.063830
  C    -83.999700   -2.533340    4.798470
  H    -83.829100   -1.595100    4.334080
  H    -84.353400   -2.391090    5.846350
  H    -83.028700   -3.037170    4.925780
  S    -84.742500   -6.999020   10.371600
  C    -83.739400   -6.371670   11.621000
  C    -83.265700   -5.122560   11.367400
  C    -83.583100   -4.680930   10.017700
  C    -84.474200   -5.530880    9.449510
  H    -82.699700   -4.568250   12.096200
  C    -83.301000   -3.256350    9.524990
  H    -83.288600   -2.597150   10.374400
  H    -84.060200   -2.880000    8.904390
  C    -81.955700   -3.069380    8.873280
  H    -82.103400   -3.649610    7.988790
  H    -81.247000   -3.597870    9.591540
  C    -81.685800   -1.594250    8.409930
  H    -81.876300   -0.806659    9.148130
  H    -82.293900   -1.333130    7.554740
  H    -80.665100   -1.403090    8.176340
  H    -87.822500   -5.339710    5.910080
  H    -83.748300   -6.794660   12.613500

 Total Charge           Charge          ....    0
 Multiplicity           Mult            ....    1
 Number of Electrons    NEL             ....  134
 Basis Dimension        Dim             ....  322

ORBITAL ENERGIES
----------------

  NO   OCC          E(Eh)            E(eV)
   0   2.0000     -88.965171     -2420.8654
   1   2.0000     -88.961581     -2420.7677
   2   2.0000     -10.322506      -280.8897
   3   2.0000     -10.319183      -280.7993
   4   2.0000     -10.309868      -280.5458
   5   2.0000     -10.306914      -280.4654
   6   2.0000     -10.302528      -280.3460
   7   2.0000     -10.301875      -280.3283
   8   2.0000     -10.294815      -280.1361
   9   2.0000     -10.293653      -280.1045
  10   2.0000     -10.292792      -280.0811
  11   2.0000     -10.289058      -279.9795
  12   2.0000     -10.282063      -279.7892
  13   2.0000     -10.281723      -279.7799
  14   2.0000     -10.279800      -279.7276
  15   2.0000     -10.278329      -279.6875
  16   2.0000      -8.083424      -219.9612
  17   2.0000      -8.077378      -219.7966
  18   2.0000      -6.041500      -164.3976
  19   2.0000      -6.037336      -164.2843
  20   2.0000      -6.035798      -164.2424
  21   2.0000      -6.034504      -164.2072
  22   2.0000      -6.031892      -164.1361
  23   2.0000      -6.028028      -164.0310
  24   2.0000      -1.022408       -27.8211
  25   2.0000      -0.994238       -27.0546
  26   2.0000      -0.913007       -24.8442
  27   2.0000      -0.910909       -24.7871
  28   2.0000      -0.874407       -23.7938
  29   2.0000      -0.854461       -23.2511
  30   2.0000      -0.846822       -23.0432
  31   2.0000      -0.818872       -22.2826
  32   2.0000      -0.787211       -21.4211
  33   2.0000      -0.775410       -21.1000
  34   2.0000      -0.706969       -19.2376
  35   2.0000      -0.700573       -19.0636
  36   2.0000      -0.690064       -18.7776
  37   2.0000      -0.667618       -18.1668
  38   2.0000      -0.649048       -17.6615
  39   2.0000      -0.617018       -16.7899
  40   2.0000      -0.599461       -16.3122
  41   2.0000      -0.571966       -15.5640
  42   2.0000      -0.569966       -15.5096
  43   2.0000      -0.547796       -14.9063
  44   2.0000      -0.540905       -14.7188
  45   2.0000      -0.522150       -14.2084
  46   2.0000      -0.520260       -14.1570
  47   2.0000      -0.514629       -14.0038
  48   2.0000      -0.507139       -13.7999
  49   2.0000      -0.500074       -13.6077
  50   2.0000      -0.495383       -13.4800
  51   2.0000      -0.481822       -13.1110
  52   2.0000      -0.472069       -12.8457
  53   2.0000      -0.467449       -12.7199
  54   2.0000      -0.462882       -12.5957
  55   2.0000      -0.455630       -12.3983
  56   2.0000      -0.445027       -12.1098
  57   2.0000      -0.435775       -11.8580
  58   2.0000      -0.432480       -11.7684
  59   2.0000      -0.428229       -11.6527
  60   2.0000      -0.422063       -11.4849
  61   2.0000      -0.417068       -11.3490
  62   2.0000      -0.412532       -11.2256
  63   2.0000      -0.351917        -9.5761
  64   2.0000      -0.331693        -9.0258
  65   2.0000      -0.330547        -8.9946
  66   2.0000      -0.295067        -8.0292
  67   0.0000       0.039042         1.0624
  68   0.0000       0.078009         2.1227
  69   0.0000       0.112439         3.0596
  70   0.0000       0.119992         3.2651
  71   0.0000       0.124001         3.3742

MULLIKEN ATOMIC CHARGES
-----------------------
   0 S :    0.141965
   1 C :   -0.104114
   2 C :   -0.113085
   3 C :    0.013142
   4 C :   -0.110303
   5 H :    0.004661
   6 C :    0.039067
   7 H :    0.027473
   8 H :    0.039562
   9 C :   -0.040353
  10 H :    0.016999
  11 H :    0.016102
  12 C :   -0.075738
  13 H :    0.031440
  14 H :    0.044590
  15 H :    0.029153
  16 S :    0.097040
  17 C :   -0.073853
  18 C :   -0.031997
  19 C :   -0.034669
  20 C :   -0.157940
  21 H :    0.016391
  22 C :    0.060795
  23 H :    0.008088
  24 H :    0.017552
  25 C :   -0.077147
  26 H :    0.007894
  27 H :    0.042779
  28 C :   -0.021995
  29 H :    0.022512
  30 H :    0.031605
  31 H :    0.028855
  32 H :    0.047455
  33 H :    0.056074
Sum of atomic charges:    0.0000000

LOEWDIN ATOMIC CHARGES
----------------------
   0 S :    0.484465
   1 C :   -0.234772
   2 C :   -0.064727
   3 C :   -0.060044
   4 C :   -0.220956
   5 H :    0.028097
   6 C :   -0.038219
   7 H :    0.037238
   8 H :    0.034691
   9 C :   -0.039400
  10 H :    0.018681
  11 H :    0.022553
  12 C :   -0.069070
  13 H :    0.022826
  14 H :    0.028907
  15 H :    0.021155
  16 S :    0.402699
  17 C :   -0.192758
  18 C :   -0.063160
  19 C :   -0.057049
  20 C :   -0.185435
  21 H :    0.030171
  22 C :   -0.025954
  23 H :    0.024329
  24 H :    0.020750
  25 C :   -0.040219
  26 H :    0.015394
  27 H :    0.032613
  28 C :   -0.064880
  29 H :    0.025206
  30 H :    0.028181
  31 H :    0.024384
  32 H :    0.027085
  33 H :    0.027221

  Mayer bond orders larger than 0.100000
B(  0-S ,  1-C ) :   1.1887 B(  0-S ,  4-C ) :   1.1943 B(  1-C ,  2-C ) :   1.5587
B(  1-C , 32-H ) :   0.9697 B(  2-C ,  3-C ) :   1.2511 B(  2-C ,  6-C ) :   1.0339
B(  3-C ,  4-C ) :   1.5477 B(  3-C ,  5-H ) :   1.0092 B(  4-C , 20-C ) :   0.9770
B(  6-C ,  7-H ) :   0.9404 B(  6-C ,  8-H ) :   0.9432 B(  6-C ,  9-C ) :   1.0751
B(  9-C , 10-H ) :   0.9538 B(  9-C , 11-H ) :   0.9499 B(  9-C , 12-C ) :   1.0846
B( 12-C , 13-H ) :   0.9720 B( 12-C , 14-H ) :   0.9677 B( 12-C , 15-H ) :   0.9759
B( 16-S , 17-C ) :   1.1416 B( 16-S , 20-C ) :   1.1392 B( 17-C , 18-C ) :   1.6552
B( 17-C , 33-H ) :   0.9624 B( 18-C , 19-C ) :   1.1930 B( 18-C , 21-H ) :   0.9893
B( 19-C , 20-C ) :   1.6600 B( 19-C , 22-C ) :   1.0344 B( 22-C , 23-H ) :   0.9376
B( 22-C , 24-H ) :   0.9459 B( 22-C , 25-C ) :   1.0456 B( 25-C , 26-H ) :   0.9552
B( 25-C , 27-H ) :   0.9598 B( 25-C , 28-C ) :   1.0683 B( 28-C , 29-H ) :   0.9754
B( 28-C , 30-H ) :   0.9723 B( 28-C , 31-H ) :   0.9752

Dispersion correction           -0.015609110
FINAL SINGLE POINT ENERGY     -1339.880872717477

DIPOLE MOMENT
-------------
                                X             Y             Z
Electronic contribution:    -14.87962     -23.18461      16.23059
Nuclear contribution   :     15.01804      23.69576     -16.50188
                        -----------------------------------------
Total Dipole Moment    :      0.13842       0.51115      -0.27128
                        -----------------------------------------
Magnitude (a.u.)       :      0.59500
Magnitude (Debye)      :      1.51238

Rotational constants in cm-1:     0.017346     0.010861     0.007090
Rotational constants in MHz :   520.020967   325.605201   212.547479

                             ****ORCA TERMINATED NORMALLY****
TOTAL RUN TIME: 0 days 0 hours 0 minutes 22 seconds 789 msec
