                         Program Version 4.2.1 -  RELEASE  -
|  1> ! wB97X-D3 SP def2-SVP
|  2> %pal
|  3> nprocs 24
|  4> end
|  5>
|  6> * xyz 0 1
|  7> S 	 -123.551 	 33.08 	 -112.359
|  8> C 	 -123.42 	 31.4539 	 -112.819
|  9> C 	 -122.879 	 30.6191 	 -111.874
| 10> C 	 -122.551 	 31.3726 	 -110.714
| 11> C 	 -122.864 	 32.7279 	 -110.736
| 12> H 	 -122.137 	 31.0329 	 -109.774
| 13> C 	 -122.601 	 29.1323 	 -112.056
| 14> H 	 -121.792 	 28.7673 	 -111.405
| 15> H 	 -122.301 	 28.9536 	 -113.149
| 16> C 	 -123.9 	 28.2348 	 -111.865
| 17> H 	 -124.486 	 28.5524 	 -111.029
| 18> H 	 -124.522 	 28.4792 	 -112.734
| 19> C 	 -123.569 	 26.7297 	 -111.834
| 20> H 	 -122.95 	 26.4221 	 -112.721
| 21> H 	 -123.093 	 26.4638 	 -110.854
| 22> H 	 -124.557 	 26.2015 	 -111.922
| 23> S 	 -121.225 	 34.3582 	 -109.329
| 24> C 	 -121.944 	 35.3652 	 -108.109
| 25> C 	 -123.281 	 35.5095 	 -108.408
| 26> C 	 -123.777 	 34.3903 	 -109.089
| 27> C 	 -122.749 	 33.6408 	 -109.652
| 28> H 	 -123.883 	 36.1958 	 -107.909
| 29> C 	 -125.229 	 34.2271 	 -109.463
| 30> H 	 -125.435 	 33.3257 	 -110.012
| 31> H 	 -125.505 	 34.8913 	 -110.232
| 32> C 	 -126.232 	 34.324 	 -108.3
| 33> H 	 -126.141 	 35.3011 	 -107.861
| 34> H 	 -125.944 	 33.5822 	 -107.534
| 35> C 	 -127.671 	 34.0932 	 -108.539
| 36> H 	 -128.107 	 34.7609 	 -109.274
| 37> H 	 -128.332 	 34.2112 	 -107.726
| 38> H 	 -127.69 	 33.099 	 -108.889
| 39> H 	 -123.746 	 30.9507 	 -113.726
| 40> H 	 -121.504 	 36.1699 	 -107.536
| 41> *
| 42>
| 43>                          ****END OF INPUT****

CARTESIAN COORDINATES (ANGSTROEM)
---------------------------------
  S    -123.551000   33.080000  -112.359000
  C    -123.420000   31.453900  -112.819000
  C    -122.879000   30.619100  -111.874000
  C    -122.551000   31.372600  -110.714000
  C    -122.864000   32.727900  -110.736000
  H    -122.137000   31.032900  -109.774000
  C    -122.601000   29.132300  -112.056000
  H    -121.792000   28.767300  -111.405000
  H    -122.301000   28.953600  -113.149000
  C    -123.900000   28.234800  -111.865000
  H    -124.486000   28.552400  -111.029000
  H    -124.522000   28.479200  -112.734000
  C    -123.569000   26.729700  -111.834000
  H    -122.950000   26.422100  -112.721000
  H    -123.093000   26.463800  -110.854000
  H    -124.557000   26.201500  -111.922000
  S    -121.225000   34.358200  -109.329000
  C    -121.944000   35.365200  -108.109000
  C    -123.281000   35.509500  -108.408000
  C    -123.777000   34.390300  -109.089000
  C    -122.749000   33.640800  -109.652000
  H    -123.883000   36.195800  -107.909000
  C    -125.229000   34.227100  -109.463000
  H    -125.435000   33.325700  -110.012000
  H    -125.505000   34.891300  -110.232000
  C    -126.232000   34.324000  -108.300000
  H    -126.141000   35.301100  -107.861000
  H    -125.944000   33.582200  -107.534000
  C    -127.671000   34.093200  -108.539000
  H    -128.107000   34.760900  -109.274000
  H    -128.332000   34.211200  -107.726000
  H    -127.690000   33.099000  -108.889000
  H    -123.746000   30.950700  -113.726000
  H    -121.504000   36.169900  -107.536000

 Total Charge           Charge          ....    0
 Multiplicity           Mult            ....    1
 Number of Electrons    NEL             ....  134
 Basis Dimension        Dim             ....  322

ORBITAL ENERGIES
----------------

  NO   OCC          E(Eh)            E(eV)
   0   2.0000     -88.967821     -2420.9375
   1   2.0000     -88.966530     -2420.9024
   2   2.0000     -10.324165      -280.9348
   3   2.0000     -10.317025      -280.7405
   4   2.0000     -10.314009      -280.6585
   5   2.0000     -10.310261      -280.5565
   6   2.0000     -10.302323      -280.3405
   7   2.0000     -10.298450      -280.2351
   8   2.0000     -10.297585      -280.2115
   9   2.0000     -10.292448      -280.0718
  10   2.0000     -10.290913      -280.0300
  11   2.0000     -10.288517      -279.9648
  12   2.0000     -10.285837      -279.8918
  13   2.0000     -10.281507      -279.7740
  14   2.0000     -10.277573      -279.6670
  15   2.0000     -10.264320      -279.3063
  16   2.0000      -8.082251      -219.9292
  17   2.0000      -8.081986      -219.9220
  18   2.0000      -6.040747      -164.3771
  19   2.0000      -6.040338      -164.3659
  20   2.0000      -6.036723      -164.2676
  21   2.0000      -6.036617      -164.2647
  22   2.0000      -6.033126      -164.1697
  23   2.0000      -6.032606      -164.1556
  24   2.0000      -1.014394       -27.6031
  25   2.0000      -0.990010       -26.9395
  26   2.0000      -0.913220       -24.8500
  27   2.0000      -0.903916       -24.5968
  28   2.0000      -0.875736       -23.8300
  29   2.0000      -0.858710       -23.3667
  30   2.0000      -0.847712       -23.0674
  31   2.0000      -0.816623       -22.2214
  32   2.0000      -0.784035       -21.3347
  33   2.0000      -0.766885       -20.8680
  34   2.0000      -0.705875       -19.2078
  35   2.0000      -0.699614       -19.0375
  36   2.0000      -0.696213       -18.9449
  37   2.0000      -0.661217       -17.9926
  38   2.0000      -0.639978       -17.4147
  39   2.0000      -0.615245       -16.7417
  40   2.0000      -0.601550       -16.3690
  41   2.0000      -0.573132       -15.5957
  42   2.0000      -0.569878       -15.5072
  43   2.0000      -0.558056       -15.1855
  44   2.0000      -0.527113       -14.3435
  45   2.0000      -0.521870       -14.2008
  46   2.0000      -0.518710       -14.1148
  47   2.0000      -0.512048       -13.9335
  48   2.0000      -0.506782       -13.7903
  49   2.0000      -0.498849       -13.5744
  50   2.0000      -0.492787       -13.4094
  51   2.0000      -0.478729       -13.0269
  52   2.0000      -0.468480       -12.7480
  53   2.0000      -0.465974       -12.6798
  54   2.0000      -0.461836       -12.5672
  55   2.0000      -0.456194       -12.4137
  56   2.0000      -0.445044       -12.1103
  57   2.0000      -0.433692       -11.8014
  58   2.0000      -0.432978       -11.7819
  59   2.0000      -0.422879       -11.5071
  60   2.0000      -0.420167       -11.4333
  61   2.0000      -0.417349       -11.3566
  62   2.0000      -0.410728       -11.1765
  63   2.0000      -0.337739        -9.1904
  64   2.0000      -0.333939        -9.0869
  65   2.0000      -0.318191        -8.6584
  66   2.0000      -0.302352        -8.2274
  67   0.0000       0.029646         0.8067
  68   0.0000       0.058022         1.5789
  69   0.0000       0.100562         2.7364
  70   0.0000       0.121516         3.3066
  71   0.0000       0.136021         3.7013

MULLIKEN ATOMIC CHARGES
-----------------------
   0 S :    0.128775
   1 C :   -0.099725
   2 C :   -0.069180
   3 C :    0.035572
   4 C :   -0.195364
   5 H :    0.006196
   6 C :    0.025032
   7 H :    0.034062
   8 H :    0.038287
   9 C :   -0.083246
  10 H :    0.031765
  11 H :    0.021115
  12 C :   -0.070339
  13 H :    0.043162
  14 H :    0.049497
  15 H :    0.044501
  16 S :    0.128055
  17 C :   -0.080270
  18 C :   -0.021306
  19 C :   -0.051407
  20 C :   -0.145310
  21 H :    0.005003
  22 C :    0.103088
  23 H :    0.008080
  24 H :    0.015820
  25 C :   -0.105122
  26 H :    0.014300
  27 H :    0.031026
  28 C :    0.008700
  29 H :    0.015510
  30 H :    0.023832
  31 H :    0.015160
  32 H :    0.037755
  33 H :    0.056974
Sum of atomic charges:    0.0000000

LOEWDIN ATOMIC CHARGES
----------------------
   0 S :    0.412227
   1 C :   -0.208762
   2 C :   -0.076125
   3 C :   -0.047541
   4 C :   -0.196545
   5 H :    0.030170
   6 C :   -0.033891
   7 H :    0.029554
   8 H :    0.037616
   9 C :   -0.042278
  10 H :    0.019748
  11 H :    0.021042
  12 C :   -0.074662
  13 H :    0.030512
  14 H :    0.030770
  15 H :    0.033226
  16 S :    0.437846
  17 C :   -0.188784
  18 C :   -0.054705
  19 C :   -0.048068
  20 C :   -0.219589
  21 H :    0.018521
  22 C :   -0.034586
  23 H :    0.024963
  24 H :    0.027959
  25 C :   -0.042488
  26 H :    0.013921
  27 H :    0.028677
  28 C :   -0.058322
  29 H :    0.022491
  30 H :    0.023957
  31 H :    0.021246
  32 H :    0.031172
  33 H :    0.030728

  Mayer bond orders larger than 0.100000
B(  0-S ,  1-C ) :   1.1626 B(  0-S ,  4-C ) :   1.1096 B(  1-C ,  2-C ) :   1.6133
B(  1-C , 32-H ) :   0.9541 B(  2-C ,  3-C ) :   1.2425 B(  2-C ,  6-C ) :   1.0198
B(  3-C ,  4-C ) :   1.5854 B(  3-C ,  5-H ) :   0.9954 B(  4-C , 20-C ) :   1.0617
B(  6-C ,  7-H ) :   0.9523 B(  6-C ,  8-H ) :   0.9435 B(  6-C ,  9-C ) :   1.0424
B(  9-C , 10-H ) :   0.9615 B(  9-C , 11-H ) :   0.9569 B(  9-C , 12-C ) :   1.0800
B( 12-C , 13-H ) :   0.9723 B( 12-C , 14-H ) :   0.9753 B( 12-C , 15-H ) :   0.9735
B( 16-S , 17-C ) :   1.1658 B( 16-S , 20-C ) :   1.1671 B( 17-C , 18-C ) :   1.5913
B( 17-C , 20-C ) :   0.1055 B( 17-C , 33-H ) :   0.9650 B( 18-C , 19-C ) :   1.2835
B( 18-C , 21-H ) :   0.9838 B( 19-C , 20-C ) :   1.5353 B( 19-C , 22-C ) :   1.0567
B( 22-C , 23-H ) :   0.9204 B( 22-C , 24-H ) :   0.9252 B( 22-C , 25-C ) :   1.0534
B( 25-C , 26-H ) :   0.9542 B( 25-C , 27-H ) :   0.9586 B( 25-C , 28-C ) :   1.1007
B( 28-C , 29-H ) :   0.9681 B( 28-C , 30-H ) :   0.9696 B( 28-C , 31-H ) :   0.9715

Dispersion correction           -0.013708959
FINAL SINGLE POINT ENERGY     -1339.855691337669

DIPOLE MOMENT
-------------
                                X             Y             Z
Electronic contribution:     18.13683      17.92073      -2.70031
Nuclear contribution   :    -18.54324     -18.11126       2.74554
                        -----------------------------------------
Total Dipole Moment    :     -0.40641      -0.19053       0.04523
                        -----------------------------------------
Magnitude (a.u.)       :      0.45113
Magnitude (Debye)      :      1.14667

Rotational constants in cm-1:     0.018432     0.007662     0.006404
Rotational constants in MHz :   552.582868   229.709967   191.992148

                             ****ORCA TERMINATED NORMALLY****
TOTAL RUN TIME: 0 days 0 hours 0 minutes 21 seconds 175 msec
