                         Program Version 4.2.1 -  RELEASE  -
|  1> ! wB97X-D3 SP def2-SVP
|  2> %pal
|  3> nprocs 24
|  4> end
|  5>
|  6> * xyz 0 1
|  7> S 	 -108.389 	 69.7991 	 -7.98591
|  8> C 	 -108.155 	 70.8508 	 -9.39433
|  9> C 	 -108.018 	 70.15 	 -10.5297
| 10> C 	 -108.15 	 68.7154 	 -10.3901
| 11> C 	 -108.383 	 68.3948 	 -9.03979
| 12> H 	 -108.102 	 67.9091 	 -11.0966
| 13> C 	 -107.82 	 70.7799 	 -11.864
| 14> H 	 -107.463 	 70.051 	 -12.5658
| 15> H 	 -106.965 	 71.4689 	 -11.7479
| 16> C 	 -109.063 	 71.5844 	 -12.4778
| 17> H 	 -110.104 	 71.2386 	 -12.0528
| 18> H 	 -108.969 	 72.5988 	 -12.1853
| 19> C 	 -108.95 	 71.4204 	 -14.0049
| 20> H 	 -109.707 	 72.0821 	 -14.4937
| 21> H 	 -107.893 	 71.6598 	 -14.3787
| 22> H 	 -109.314 	 70.4019 	 -14.3363
| 23> S 	 -106.974 	 66.6331 	 -7.69958
| 24> C 	 -107.584 	 64.9663 	 -7.45053
| 25> C 	 -108.716 	 64.7411 	 -8.21802
| 26> C 	 -109.213 	 65.9235 	 -8.84102
| 27> C 	 -108.423 	 67.047 	 -8.52407
| 28> H 	 -109.082 	 63.7067 	 -8.35566
| 29> C 	 -110.431 	 65.8255 	 -9.77438
| 30> H 	 -110.185 	 65.4719 	 -10.7971
| 31> H 	 -110.798 	 66.8571 	 -10.0079
| 32> C 	 -111.556 	 64.9671 	 -9.20152
| 33> H 	 -111.243 	 63.963 	 -9.19203
| 34> H 	 -112.315 	 64.8156 	 -9.93358
| 35> C 	 -112.352 	 65.6062 	 -7.99442
| 36> H 	 -113.139 	 65.0434 	 -7.65973
| 37> H 	 -112.6 	 66.6087 	 -8.23245
| 38> H 	 -111.682 	 65.7282 	 -7.12519
| 39> H 	 -108.32 	 71.9195 	 -9.3499
| 40> H 	 -107.057 	 64.1064 	 -7.03882
| 41> *
| 42>
| 43>                          ****END OF INPUT****

CARTESIAN COORDINATES (ANGSTROEM)
---------------------------------
  S    -108.389000   69.799100   -7.985910
  C    -108.155000   70.850800   -9.394330
  C    -108.018000   70.150000  -10.529700
  C    -108.150000   68.715400  -10.390100
  C    -108.383000   68.394800   -9.039790
  H    -108.102000   67.909100  -11.096600
  C    -107.820000   70.779900  -11.864000
  H    -107.463000   70.051000  -12.565800
  H    -106.965000   71.468900  -11.747900
  C    -109.063000   71.584400  -12.477800
  H    -110.104000   71.238600  -12.052800
  H    -108.969000   72.598800  -12.185300
  C    -108.950000   71.420400  -14.004900
  H    -109.707000   72.082100  -14.493700
  H    -107.893000   71.659800  -14.378700
  H    -109.314000   70.401900  -14.336300
  S    -106.974000   66.633100   -7.699580
  C    -107.584000   64.966300   -7.450530
  C    -108.716000   64.741100   -8.218020
  C    -109.213000   65.923500   -8.841020
  C    -108.423000   67.047000   -8.524070
  H    -109.082000   63.706700   -8.355660
  C    -110.431000   65.825500   -9.774380
  H    -110.185000   65.471900  -10.797100
  H    -110.798000   66.857100  -10.007900
  C    -111.556000   64.967100   -9.201520
  H    -111.243000   63.963000   -9.192030
  H    -112.315000   64.815600   -9.933580
  C    -112.352000   65.606200   -7.994420
  H    -113.139000   65.043400   -7.659730
  H    -112.600000   66.608700   -8.232450
  H    -111.682000   65.728200   -7.125190
  H    -108.320000   71.919500   -9.349900
  H    -107.057000   64.106400   -7.038820

 Total Charge           Charge          ....    0
 Multiplicity           Mult            ....    1
 Number of Electrons    NEL             ....  134
 Basis Dimension        Dim             ....  322

ORBITAL ENERGIES
----------------

  NO   OCC          E(Eh)            E(eV)
   0   2.0000     -88.965448     -2420.8729
   1   2.0000     -88.965191     -2420.8659
   2   2.0000     -10.328581      -281.0550
   3   2.0000     -10.323130      -280.9066
   4   2.0000     -10.316056      -280.7142
   5   2.0000     -10.308435      -280.5068
   6   2.0000     -10.305578      -280.4290
   7   2.0000     -10.298542      -280.2376
   8   2.0000     -10.297368      -280.2056
   9   2.0000     -10.296888      -280.1926
  10   2.0000     -10.296614      -280.1851
  11   2.0000     -10.294135      -280.1176
  12   2.0000     -10.293736      -280.1068
  13   2.0000     -10.289930      -280.0032
  14   2.0000     -10.280642      -279.7505
  15   2.0000     -10.269328      -279.4426
  16   2.0000      -8.079993      -219.8678
  17   2.0000      -8.079570      -219.8563
  18   2.0000      -6.038555      -164.3174
  19   2.0000      -6.038103      -164.3051
  20   2.0000      -6.034612      -164.2101
  21   2.0000      -6.034186      -164.1986
  22   2.0000      -6.030597      -164.1009
  23   2.0000      -6.030276      -164.0921
  24   2.0000      -1.005252       -27.3543
  25   2.0000      -0.979711       -26.6593
  26   2.0000      -0.908033       -24.7088
  27   2.0000      -0.902713       -24.5641
  28   2.0000      -0.869130       -23.6502
  29   2.0000      -0.846517       -23.0349
  30   2.0000      -0.841151       -22.8889
  31   2.0000      -0.811153       -22.0726
  32   2.0000      -0.780233       -21.2312
  33   2.0000      -0.767407       -20.8822
  34   2.0000      -0.711737       -19.3673
  35   2.0000      -0.702360       -19.1122
  36   2.0000      -0.694831       -18.9073
  37   2.0000      -0.656109       -17.8536
  38   2.0000      -0.642719       -17.4893
  39   2.0000      -0.609260       -16.5788
  40   2.0000      -0.591615       -16.0987
  41   2.0000      -0.566205       -15.4072
  42   2.0000      -0.555818       -15.1246
  43   2.0000      -0.553878       -15.0718
  44   2.0000      -0.531166       -14.4538
  45   2.0000      -0.523110       -14.2345
  46   2.0000      -0.515192       -14.0191
  47   2.0000      -0.511435       -13.9168
  48   2.0000      -0.501946       -13.6587
  49   2.0000      -0.492887       -13.4121
  50   2.0000      -0.489835       -13.3291
  51   2.0000      -0.473545       -12.8858
  52   2.0000      -0.464590       -12.6421
  53   2.0000      -0.459721       -12.5096
  54   2.0000      -0.455183       -12.3862
  55   2.0000      -0.454167       -12.3585
  56   2.0000      -0.446634       -12.1535
  57   2.0000      -0.438715       -11.9380
  58   2.0000      -0.432195       -11.7606
  59   2.0000      -0.427621       -11.6362
  60   2.0000      -0.424126       -11.5411
  61   2.0000      -0.414079       -11.2677
  62   2.0000      -0.404837       -11.0162
  63   2.0000      -0.342291        -9.3142
  64   2.0000      -0.327732        -8.9180
  65   2.0000      -0.323005        -8.7894
  66   2.0000      -0.296017        -8.0550
  67   0.0000       0.034573         0.9408
  68   0.0000       0.060144         1.6366
  69   0.0000       0.106932         2.9098
  70   0.0000       0.118619         3.2278
  71   0.0000       0.131472         3.5775

MULLIKEN ATOMIC CHARGES
-----------------------
   0 S :    0.108466
   1 C :   -0.126231
   2 C :   -0.070182
   3 C :    0.056920
   4 C :   -0.188113
   5 H :    0.010910
   6 C :    0.052801
   7 H :    0.015119
   8 H :    0.036380
   9 C :   -0.069092
  10 H :    0.054667
  11 H :    0.026691
  12 C :   -0.107823
  13 H :    0.036373
  14 H :    0.056887
  15 H :    0.046946
  16 S :    0.115842
  17 C :   -0.087665
  18 C :   -0.068520
  19 C :   -0.009742
  20 C :   -0.169021
  21 H :    0.036324
  22 C :    0.040657
  23 H :    0.039236
  24 H :    0.024071
  25 C :   -0.058896
  26 H :    0.007048
  27 H :    0.005893
  28 C :    0.004262
  29 H :    0.021770
  30 H :    0.021805
  31 H :    0.031156
  32 H :    0.049088
  33 H :    0.055974
Sum of atomic charges:    0.0000000

LOEWDIN ATOMIC CHARGES
----------------------
   0 S :    0.392415
   1 C :   -0.191079
   2 C :   -0.065839
   3 C :   -0.052933
   4 C :   -0.196994
   5 H :    0.031620
   6 C :   -0.034296
   7 H :    0.024183
   8 H :    0.036974
   9 C :   -0.040647
  10 H :    0.036869
  11 H :    0.015361
  12 C :   -0.079927
  13 H :    0.026432
  14 H :    0.035213
  15 H :    0.031312
  16 S :    0.415492
  17 C :   -0.184846
  18 C :   -0.070266
  19 C :   -0.060007
  20 C :   -0.212635
  21 H :    0.037833
  22 C :   -0.034487
  23 H :    0.035789
  24 H :    0.031425
  25 C :   -0.043771
  26 H :    0.015355
  27 H :    0.022029
  28 C :   -0.048659
  29 H :    0.014070
  30 H :    0.024075
  31 H :    0.029871
  32 H :    0.029076
  33 H :    0.030992

  Mayer bond orders larger than 0.100000
B(  0-S ,  1-C ) :   1.1098 B(  0-S ,  4-C ) :   1.1615 B(  1-C ,  2-C ) :   1.6474
B(  1-C , 32-H ) :   0.9715 B(  2-C ,  3-C ) :   1.2010 B(  2-C ,  6-C ) :   1.0330
B(  3-C ,  4-C ) :   1.5772 B(  3-C ,  5-H ) :   0.9997 B(  4-C , 20-C ) :   1.0159
B(  6-C ,  7-H ) :   0.9505 B(  6-C ,  8-H ) :   0.9328 B(  6-C ,  9-C ) :   1.0259
B(  9-C , 10-H ) :   0.9650 B(  9-C , 11-H ) :   0.9561 B(  9-C , 12-C ) :   1.0751
B( 12-C , 13-H ) :   0.9734 B( 12-C , 14-H ) :   0.9711 B( 12-C , 15-H ) :   0.9758
B( 16-S , 17-C ) :   1.1355 B( 16-S , 20-C ) :   1.1727 B( 17-C , 18-C ) :   1.6329
B( 17-C , 20-C ) :   0.1015 B( 17-C , 33-H ) :   0.9632 B( 18-C , 19-C ) :   1.2374
B( 18-C , 21-H ) :   0.9804 B( 19-C , 20-C ) :   1.5843 B( 19-C , 22-C ) :   1.0356
B( 22-C , 23-H ) :   0.9359 B( 22-C , 24-H ) :   0.9371 B( 22-C , 25-C ) :   1.0883
B( 25-C , 26-H ) :   0.9493 B( 25-C , 27-H ) :   0.9456 B( 25-C , 28-C ) :   1.0586
B( 28-C , 29-H ) :   0.9779 B( 28-C , 30-H ) :   0.9723 B( 28-C , 31-H ) :   0.9769

Dispersion correction           -0.013977080
FINAL SINGLE POINT ENERGY     -1339.856918641164

DIPOLE MOMENT
-------------
                                X             Y             Z
Electronic contribution:     16.09409      -1.43139      19.71752
Nuclear contribution   :    -16.36260       1.30517     -20.45634
                        -----------------------------------------
Total Dipole Moment    :     -0.26851      -0.12622      -0.73882
                        -----------------------------------------
Magnitude (a.u.)       :      0.79617
Magnitude (Debye)      :      2.02370

Rotational constants in cm-1:     0.019538     0.007728     0.006550
Rotational constants in MHz :   585.729552   231.666786   196.363944

                             ****ORCA TERMINATED NORMALLY****
TOTAL RUN TIME: 0 days 0 hours 0 minutes 21 seconds 194 msec
