                         Program Version 4.2.1 -  RELEASE  -
|  1> ! wB97X-D3 SP def2-SVP
|  2> %pal
|  3> nprocs 24
|  4> end
|  5>
|  6> * xyz 0 1
|  7> S 	 -48.0282 	 19.5841 	 34.2368
|  8> C 	 -46.8695 	 18.5283 	 34.9891
|  9> C 	 -45.7183 	 18.4858 	 34.2591
| 10> C 	 -45.5946 	 19.535 	 33.3173
| 11> C 	 -46.7669 	 20.2364 	 33.2333
| 12> H 	 -44.8518 	 19.6981 	 32.5195
| 13> C 	 -44.6108 	 17.4837 	 34.4088
| 14> H 	 -44.7785 	 17.1401 	 35.4484
| 15> H 	 -43.6778 	 17.9552 	 34.3875
| 16> C 	 -44.4682 	 16.3078 	 33.4102
| 17> H 	 -43.4966 	 15.8167 	 33.6364
| 18> H 	 -45.3567 	 15.6953 	 33.4581
| 19> C 	 -44.3213 	 16.7179 	 31.9235
| 20> H 	 -43.5779 	 17.5059 	 31.8048
| 21> H 	 -44.0124 	 15.8277 	 31.4089
| 22> H 	 -45.2852 	 17.0337 	 31.5911
| 23> S 	 -48.51 	 20.8301 	 31.2112
| 24> C 	 -48.2138 	 22.1458 	 30.0545
| 25> C 	 -47.0468 	 22.6903 	 30.4219
| 26> C 	 -46.3999 	 22.2136 	 31.6097
| 27> C 	 -47.1182 	 21.1708 	 32.1756
| 28> H 	 -46.6514 	 23.5097 	 29.872
| 29> C 	 -45.1214 	 22.8416 	 32.1913
| 30> H 	 -45.0605 	 22.6232 	 33.3038
| 31> H 	 -45.2885 	 23.9718 	 32.0032
| 32> C 	 -43.7302 	 22.3349 	 31.7511
| 33> H 	 -43.6158 	 22.4738 	 30.712
| 34> H 	 -43.7101 	 21.2569 	 31.8216
| 35> C 	 -42.5343 	 22.9881 	 32.4924
| 36> H 	 -42.5208 	 24.0715 	 32.2383
| 37> H 	 -41.6114 	 22.5694 	 31.9896
| 38> H 	 -42.501 	 22.7164 	 33.5603
| 39> H 	 -47.0031 	 17.7716 	 35.7712
| 40> H 	 -48.8682 	 22.3437 	 29.2229
| 41> *
| 42>
| 43>                          ****END OF INPUT****

CARTESIAN COORDINATES (ANGSTROEM)
---------------------------------
  S    -48.028200   19.584100   34.236800
  C    -46.869500   18.528300   34.989100
  C    -45.718300   18.485800   34.259100
  C    -45.594600   19.535000   33.317300
  C    -46.766900   20.236400   33.233300
  H    -44.851800   19.698100   32.519500
  C    -44.610800   17.483700   34.408800
  H    -44.778500   17.140100   35.448400
  H    -43.677800   17.955200   34.387500
  C    -44.468200   16.307800   33.410200
  H    -43.496600   15.816700   33.636400
  H    -45.356700   15.695300   33.458100
  C    -44.321300   16.717900   31.923500
  H    -43.577900   17.505900   31.804800
  H    -44.012400   15.827700   31.408900
  H    -45.285200   17.033700   31.591100
  S    -48.510000   20.830100   31.211200
  C    -48.213800   22.145800   30.054500
  C    -47.046800   22.690300   30.421900
  C    -46.399900   22.213600   31.609700
  C    -47.118200   21.170800   32.175600
  H    -46.651400   23.509700   29.872000
  C    -45.121400   22.841600   32.191300
  H    -45.060500   22.623200   33.303800
  H    -45.288500   23.971800   32.003200
  C    -43.730200   22.334900   31.751100
  H    -43.615800   22.473800   30.712000
  H    -43.710100   21.256900   31.821600
  C    -42.534300   22.988100   32.492400
  H    -42.520800   24.071500   32.238300
  H    -41.611400   22.569400   31.989600
  H    -42.501000   22.716400   33.560300
  H    -47.003100   17.771600   35.771200
  H    -48.868200   22.343700   29.222900

 Total Charge           Charge          ....    0
 Multiplicity           Mult            ....    1
 Number of Electrons    NEL             ....  134
 Basis Dimension        Dim             ....  322

ORBITAL ENERGIES
----------------

  NO   OCC          E(Eh)            E(eV)
   0   2.0000     -88.970166     -2421.0013
   1   2.0000     -88.959002     -2420.6975
   2   2.0000     -10.327872      -281.0357
   3   2.0000     -10.324526      -280.9446
   4   2.0000     -10.315777      -280.7066
   5   2.0000     -10.312765      -280.6246
   6   2.0000     -10.302735      -280.3517
   7   2.0000     -10.301617      -280.3213
   8   2.0000     -10.297055      -280.1971
   9   2.0000     -10.293552      -280.1018
  10   2.0000     -10.289840      -280.0008
  11   2.0000     -10.289754      -279.9985
  12   2.0000     -10.288798      -279.9724
  13   2.0000     -10.286171      -279.9010
  14   2.0000     -10.284438      -279.8538
  15   2.0000     -10.274454      -279.5821
  16   2.0000      -8.085104      -220.0069
  17   2.0000      -8.074230      -219.7110
  18   2.0000      -6.043564      -164.4537
  19   2.0000      -6.039795      -164.3512
  20   2.0000      -6.035679      -164.2392
  21   2.0000      -6.032794      -164.1607
  22   2.0000      -6.028590      -164.0463
  23   2.0000      -6.024953      -163.9473
  24   2.0000      -1.015114       -27.6226
  25   2.0000      -0.990041       -26.9404
  26   2.0000      -0.913233       -24.8503
  27   2.0000      -0.902820       -24.5670
  28   2.0000      -0.875382       -23.8203
  29   2.0000      -0.853612       -23.2280
  30   2.0000      -0.844299       -22.9746
  31   2.0000      -0.822161       -22.3721
  32   2.0000      -0.783427       -21.3181
  33   2.0000      -0.769577       -20.9413
  34   2.0000      -0.707278       -19.2460
  35   2.0000      -0.697891       -18.9906
  36   2.0000      -0.694813       -18.9068
  37   2.0000      -0.664413       -18.0796
  38   2.0000      -0.639351       -17.3976
  39   2.0000      -0.613905       -16.7052
  40   2.0000      -0.599313       -16.3081
  41   2.0000      -0.583645       -15.8818
  42   2.0000      -0.564025       -15.3479
  43   2.0000      -0.550672       -14.9845
  44   2.0000      -0.541460       -14.7339
  45   2.0000      -0.524424       -14.2703
  46   2.0000      -0.519881       -14.1467
  47   2.0000      -0.512264       -13.9394
  48   2.0000      -0.509510       -13.8645
  49   2.0000      -0.496134       -13.5005
  50   2.0000      -0.491554       -13.3759
  51   2.0000      -0.481459       -13.1012
  52   2.0000      -0.472150       -12.8478
  53   2.0000      -0.468986       -12.7618
  54   2.0000      -0.462467       -12.5844
  55   2.0000      -0.448120       -12.1940
  56   2.0000      -0.442854       -12.0507
  57   2.0000      -0.434819       -11.8320
  58   2.0000      -0.432649       -11.7730
  59   2.0000      -0.429624       -11.6907
  60   2.0000      -0.419775       -11.4227
  61   2.0000      -0.410837       -11.1794
  62   2.0000      -0.407727       -11.0948
  63   2.0000      -0.357092        -9.7170
  64   2.0000      -0.332579        -9.0499
  65   2.0000      -0.325420        -8.8551
  66   2.0000      -0.293459        -7.9854
  67   0.0000       0.027993         0.7617
  68   0.0000       0.074186         2.0187
  69   0.0000       0.106316         2.8930
  70   0.0000       0.120988         3.2923
  71   0.0000       0.129963         3.5365

MULLIKEN ATOMIC CHARGES
-----------------------
   0 S :    0.118025
   1 C :   -0.093578
   2 C :   -0.126276
   3 C :    0.020095
   4 C :   -0.143385
   5 H :    0.028578
   6 C :    0.081090
   7 H :    0.016472
   8 H :    0.007792
   9 C :   -0.071927
  10 H :    0.039432
  11 H :    0.030056
  12 C :   -0.049210
  13 H :    0.026544
  14 H :    0.035516
  15 H :    0.040833
  16 S :    0.072882
  17 C :   -0.089525
  18 C :   -0.006055
  19 C :   -0.040723
  20 C :   -0.130951
  21 H :    0.001825
  22 C :   -0.003142
  23 H :    0.040440
  24 H :    0.044499
  25 C :   -0.038349
  26 H :    0.007611
  27 H :    0.006039
  28 C :   -0.069170
  29 H :    0.045999
  30 H :    0.038182
  31 H :    0.052165
  32 H :    0.046477
  33 H :    0.061743
Sum of atomic charges:   -0.0000000

LOEWDIN ATOMIC CHARGES
----------------------
   0 S :    0.418956
   1 C :   -0.206059
   2 C :   -0.065722
   3 C :   -0.062628
   4 C :   -0.188415
   5 H :    0.036992
   6 C :   -0.034566
   7 H :    0.032582
   8 H :    0.020824
   9 C :   -0.032032
  10 H :    0.030079
  11 H :    0.022388
  12 C :   -0.059786
  13 H :    0.019750
  14 H :    0.026793
  15 H :    0.022590
  16 S :    0.390722
  17 C :   -0.174568
  18 C :   -0.068421
  19 C :   -0.072813
  20 C :   -0.198202
  21 H :    0.024301
  22 C :   -0.043139
  23 H :    0.038530
  24 H :    0.039997
  25 C :   -0.044888
  26 H :    0.014680
  27 H :    0.017138
  28 C :   -0.067599
  29 H :    0.031710
  30 H :    0.034317
  31 H :    0.029082
  32 H :    0.034048
  33 H :    0.033359

  Mayer bond orders larger than 0.100000
B(  0-S ,  1-C ) :   1.1207 B(  0-S ,  4-C ) :   1.1578 B(  1-C ,  2-C ) :   1.6422
B(  1-C , 32-H ) :   0.9589 B(  2-C ,  3-C ) :   1.2280 B(  2-C ,  6-C ) :   1.0253
B(  3-C ,  4-C ) :   1.5734 B(  3-C ,  5-H ) :   0.9797 B(  4-C , 20-C ) :   1.0282
B(  6-C ,  7-H ) :   0.9367 B(  6-C ,  8-H ) :   0.9379 B(  6-C ,  9-C ) :   1.0742
B(  9-C , 10-H ) :   0.9578 B(  9-C , 11-H ) :   0.9561 B(  9-C , 12-C ) :   1.0819
B( 12-C , 13-H ) :   0.9743 B( 12-C , 14-H ) :   0.9729 B( 12-C , 15-H ) :   0.9736
B( 16-S , 17-C ) :   1.1253 B( 16-S , 20-C ) :   1.1540 B( 17-C , 18-C ) :   1.6026
B( 17-C , 33-H ) :   0.9785 B( 18-C , 19-C ) :   1.2471 B( 18-C , 21-H ) :   0.9933
B( 19-C , 20-C ) :   1.5945 B( 19-C , 22-C ) :   1.0384 B( 22-C , 23-H ) :   0.9375
B( 22-C , 24-H ) :   0.9381 B( 22-C , 25-C ) :   1.0580 B( 25-C , 26-H ) :   0.9462
B( 25-C , 27-H ) :   0.9479 B( 25-C , 28-C ) :   1.0858 B( 28-C , 29-H ) :   0.9749
B( 28-C , 30-H ) :   0.9722 B( 28-C , 31-H ) :   0.9747

Dispersion correction           -0.014718314
FINAL SINGLE POINT ENERGY     -1339.871981210831

DIPOLE MOMENT
-------------
                                X             Y             Z
Electronic contribution:    -27.57803       3.72960       1.93144
Nuclear contribution   :     28.22764      -3.89170      -2.19533
                        -----------------------------------------
Total Dipole Moment    :      0.64960      -0.16210      -0.26389
                        -----------------------------------------
Magnitude (a.u.)       :      0.71965
Magnitude (Debye)      :      1.82921

Rotational constants in cm-1:     0.015759     0.010247     0.007780
Rotational constants in MHz :   472.450542   307.190971   233.241019

                             ****ORCA TERMINATED NORMALLY****
TOTAL RUN TIME: 0 days 0 hours 0 minutes 21 seconds 110 msec
