                         Program Version 4.2.1 -  RELEASE  -
|  1> ! wB97X-D3 SP def2-SVP
|  2> %pal
|  3> nprocs 24
|  4> end
|  5>
|  6> * xyz 0 1
|  7> S 	 -132.22 	 70.1736 	 -64.5063
|  8> C 	 -131.818 	 68.9921 	 -65.7275
|  9> C 	 -132.971 	 68.3884 	 -66.2531
| 10> C 	 -134.141 	 68.853 	 -65.5592
| 11> C 	 -133.918 	 69.8724 	 -64.7024
| 12> H 	 -135.14 	 68.4772 	 -65.7104
| 13> C 	 -133.159 	 67.2862 	 -67.3015
| 14> H 	 -133.914 	 66.6633 	 -66.8698
| 15> H 	 -132.325 	 66.5674 	 -67.2911
| 16> C 	 -133.499 	 67.6935 	 -68.7285
| 17> H 	 -132.617 	 68.1445 	 -69.1538
| 18> H 	 -133.791 	 66.789 	 -69.2442
| 19> C 	 -134.595 	 68.7892 	 -68.9226
| 20> H 	 -134.591 	 69.1224 	 -69.955
| 21> H 	 -135.552 	 68.4371 	 -68.6662
| 22> H 	 -134.349 	 69.5739 	 -68.2339
| 23> S 	 -136.162 	 69.7649 	 -63.0165
| 24> C 	 -137.109 	 71.2076 	 -62.8541
| 25> C 	 -136.502 	 72.3163 	 -63.4104
| 26> C 	 -135.275 	 72.0128 	 -64.0722
| 27> C 	 -134.959 	 70.6571 	 -64.0156
| 28> H 	 -137.072 	 73.255 	 -63.2518
| 29> C 	 -134.537 	 73.1116 	 -64.9315
| 30> H 	 -133.843 	 72.6267 	 -65.5689
| 31> H 	 -133.825 	 73.7358 	 -64.2984
| 32> C 	 -135.349 	 74.0151 	 -65.8646
| 33> H 	 -134.746 	 74.8527 	 -66.2267
| 34> H 	 -136.127 	 74.413 	 -65.3231
| 35> C 	 -135.911 	 73.2873 	 -66.9998
| 36> H 	 -136.433 	 72.3888 	 -66.6221
| 37> H 	 -135.083 	 73.0427 	 -67.7222
| 38> H 	 -136.683 	 73.9038 	 -67.5091
| 39> H 	 -130.789 	 68.6392 	 -65.8949
| 40> H 	 -137.998 	 71.2635 	 -62.153
| 41> *
| 42>
| 43>                          ****END OF INPUT****

CARTESIAN COORDINATES (ANGSTROEM)
---------------------------------
  S    -132.220000   70.173600  -64.506300
  C    -131.818000   68.992100  -65.727500
  C    -132.971000   68.388400  -66.253100
  C    -134.141000   68.853000  -65.559200
  C    -133.918000   69.872400  -64.702400
  H    -135.140000   68.477200  -65.710400
  C    -133.159000   67.286200  -67.301500
  H    -133.914000   66.663300  -66.869800
  H    -132.325000   66.567400  -67.291100
  C    -133.499000   67.693500  -68.728500
  H    -132.617000   68.144500  -69.153800
  H    -133.791000   66.789000  -69.244200
  C    -134.595000   68.789200  -68.922600
  H    -134.591000   69.122400  -69.955000
  H    -135.552000   68.437100  -68.666200
  H    -134.349000   69.573900  -68.233900
  S    -136.162000   69.764900  -63.016500
  C    -137.109000   71.207600  -62.854100
  C    -136.502000   72.316300  -63.410400
  C    -135.275000   72.012800  -64.072200
  C    -134.959000   70.657100  -64.015600
  H    -137.072000   73.255000  -63.251800
  C    -134.537000   73.111600  -64.931500
  H    -133.843000   72.626700  -65.568900
  H    -133.825000   73.735800  -64.298400
  C    -135.349000   74.015100  -65.864600
  H    -134.746000   74.852700  -66.226700
  H    -136.127000   74.413000  -65.323100
  C    -135.911000   73.287300  -66.999800
  H    -136.433000   72.388800  -66.622100
  H    -135.083000   73.042700  -67.722200
  H    -136.683000   73.903800  -67.509100
  H    -130.789000   68.639200  -65.894900
  H    -137.998000   71.263500  -62.153000

 Total Charge           Charge          ....    0
 Multiplicity           Mult            ....    1
 Number of Electrons    NEL             ....  134
 Basis Dimension        Dim             ....  322

ORBITAL ENERGIES
----------------

  NO   OCC          E(Eh)            E(eV)
   0   2.0000     -88.967833     -2420.9378
   1   2.0000     -88.967604     -2420.9316
   2   2.0000     -10.333891      -281.1995
   3   2.0000     -10.326408      -280.9959
   4   2.0000     -10.320643      -280.8390
   5   2.0000     -10.319664      -280.8123
   6   2.0000     -10.312790      -280.6253
   7   2.0000     -10.306082      -280.4428
   8   2.0000     -10.297434      -280.2074
   9   2.0000     -10.292653      -280.0773
  10   2.0000     -10.291296      -280.0404
  11   2.0000     -10.289595      -279.9941
  12   2.0000     -10.283662      -279.8327
  13   2.0000     -10.273248      -279.5493
  14   2.0000     -10.272107      -279.5182
  15   2.0000     -10.268265      -279.4137
  16   2.0000      -8.082666      -219.9405
  17   2.0000      -8.081818      -219.9174
  18   2.0000      -6.041201      -164.3894
  19   2.0000      -6.040318      -164.3654
  20   2.0000      -6.037099      -164.2778
  21   2.0000      -6.036397      -164.2587
  22   2.0000      -6.033445      -164.1784
  23   2.0000      -6.032623      -164.1560
  24   2.0000      -1.006313       -27.3832
  25   2.0000      -0.983641       -26.7662
  26   2.0000      -0.913022       -24.8446
  27   2.0000      -0.909715       -24.7546
  28   2.0000      -0.867000       -23.5923
  29   2.0000      -0.850935       -23.1551
  30   2.0000      -0.845150       -22.9977
  31   2.0000      -0.812094       -22.0982
  32   2.0000      -0.785493       -21.3743
  33   2.0000      -0.772764       -21.0280
  34   2.0000      -0.702572       -19.1180
  35   2.0000      -0.698329       -19.0025
  36   2.0000      -0.688738       -18.7415
  37   2.0000      -0.654228       -17.8025
  38   2.0000      -0.638843       -17.3838
  39   2.0000      -0.615377       -16.7453
  40   2.0000      -0.599595       -16.3158
  41   2.0000      -0.573021       -15.5927
  42   2.0000      -0.553042       -15.0490
  43   2.0000      -0.547263       -14.8918
  44   2.0000      -0.543853       -14.7990
  45   2.0000      -0.542355       -14.7582
  46   2.0000      -0.515506       -14.0276
  47   2.0000      -0.513335       -13.9686
  48   2.0000      -0.503072       -13.6893
  49   2.0000      -0.488178       -13.2840
  50   2.0000      -0.486541       -13.2395
  51   2.0000      -0.474240       -12.9047
  52   2.0000      -0.469844       -12.7851
  53   2.0000      -0.462186       -12.5767
  54   2.0000      -0.456774       -12.4295
  55   2.0000      -0.448896       -12.2151
  56   2.0000      -0.443662       -12.0727
  57   2.0000      -0.439229       -11.9520
  58   2.0000      -0.432806       -11.7772
  59   2.0000      -0.419940       -11.4272
  60   2.0000      -0.417624       -11.3641
  61   2.0000      -0.415457       -11.3052
  62   2.0000      -0.411359       -11.1937
  63   2.0000      -0.346913        -9.4400
  64   2.0000      -0.335190        -9.1210
  65   2.0000      -0.329836        -8.9753
  66   2.0000      -0.296292        -8.0625
  67   0.0000       0.034266         0.9324
  68   0.0000       0.065986         1.7956
  69   0.0000       0.105130         2.8607
  70   0.0000       0.119876         3.2620
  71   0.0000       0.125365         3.4113

MULLIKEN ATOMIC CHARGES
-----------------------
   0 S :    0.120071
   1 C :   -0.138297
   2 C :   -0.104303
   3 C :    0.017397
   4 C :   -0.148605
   5 H :    0.011037
   6 C :    0.070253
   7 H :    0.015509
   8 H :    0.020512
   9 C :   -0.053259
  10 H :    0.026580
  11 H :    0.031476
  12 C :   -0.041736
  13 H :    0.037962
  14 H :    0.016788
  15 H :    0.042934
  16 S :    0.107875
  17 C :   -0.128359
  18 C :   -0.061095
  19 C :   -0.006788
  20 C :   -0.168399
  21 H :    0.039034
  22 C :    0.065636
  23 H :   -0.000258
  24 H :    0.042605
  25 C :   -0.027522
  26 H :    0.026515
  27 H :    0.001411
  28 C :   -0.075311
  29 H :    0.043798
  30 H :    0.040154
  31 H :    0.033588
  32 H :    0.062574
  33 H :    0.080224
Sum of atomic charges:   -0.0000000

LOEWDIN ATOMIC CHARGES
----------------------
   0 S :    0.418087
   1 C :   -0.203917
   2 C :   -0.061415
   3 C :   -0.061663
   4 C :   -0.202171
   5 H :    0.029084
   6 C :   -0.036324
   7 H :    0.028015
   8 H :    0.032364
   9 C :   -0.032959
  10 H :    0.023277
  11 H :    0.024104
  12 C :   -0.057484
  13 H :    0.028512
  14 H :    0.014259
  15 H :    0.025489
  16 S :    0.393405
  17 C :   -0.199886
  18 C :   -0.083753
  19 C :   -0.054321
  20 C :   -0.181054
  21 H :    0.041367
  22 C :   -0.030310
  23 H :    0.016858
  24 H :    0.039511
  25 C :   -0.043686
  26 H :    0.029544
  27 H :    0.008942
  28 C :   -0.067245
  29 H :    0.029986
  30 H :    0.029830
  31 H :    0.027943
  32 H :    0.033804
  33 H :    0.041808

  Mayer bond orders larger than 0.100000
B(  0-S ,  1-C ) :   1.1455 B(  0-S ,  4-C ) :   1.1474 B(  1-C ,  2-C ) :   1.6066
B(  1-C , 32-H ) :   0.9671 B(  2-C ,  3-C ) :   1.2368 B(  2-C ,  6-C ) :   1.0067
B(  3-C ,  4-C ) :   1.5941 B(  3-C ,  5-H ) :   0.9930 B(  4-C , 20-C ) :   1.0088
B(  6-C ,  7-H ) :   0.9384 B(  6-C ,  8-H ) :   0.9415 B(  6-C ,  9-C ) :   1.0721
B(  9-C , 10-H ) :   0.9572 B(  9-C , 11-H ) :   0.9549 B(  9-C , 12-C ) :   1.0844
B( 12-C , 13-H ) :   0.9748 B( 12-C , 14-H ) :   0.9770 B( 12-C , 15-H ) :   0.9699
B( 16-S , 17-C ) :   1.1551 B( 16-S , 20-C ) :   1.1399 B( 17-C , 18-C ) :   1.6320
B( 17-C , 33-H ) :   0.9547 B( 18-C , 19-C ) :   1.2146 B( 18-C , 21-H ) :   0.9861
B( 19-C , 20-C ) :   1.6062 B( 19-C , 22-C ) :   1.0224 B( 22-C , 23-H ) :   0.9342
B( 22-C , 24-H ) :   0.9373 B( 22-C , 25-C ) :   1.0736 B( 25-C , 26-H ) :   0.9464
B( 25-C , 27-H ) :   0.9495 B( 25-C , 28-C ) :   1.0935 B( 28-C , 29-H ) :   0.9738
B( 28-C , 30-H ) :   0.9711 B( 28-C , 31-H ) :   0.9707

Dispersion correction           -0.015192840
FINAL SINGLE POINT ENERGY     -1339.879821113764

DIPOLE MOMENT
-------------
                                X             Y             Z
Electronic contribution:      3.97396      -5.20852      23.37425
Nuclear contribution   :     -4.12522       5.25624     -23.71461
                        -----------------------------------------
Total Dipole Moment    :     -0.15126       0.04772      -0.34036
                        -----------------------------------------
Magnitude (a.u.)       :      0.37550
Magnitude (Debye)      :      0.95445

Rotational constants in cm-1:     0.017737     0.009211     0.008195
Rotational constants in MHz :   531.739435   276.152613   245.671828

                             ****ORCA TERMINATED NORMALLY****
TOTAL RUN TIME: 0 days 0 hours 0 minutes 21 seconds 121 msec
