                         Program Version 4.2.1 -  RELEASE  -
|  1> ! wB97X-D3 SP def2-SVP
|  2> %pal
|  3> nprocs 24
|  4> end
|  5>
|  6> * xyz 0 1
|  7> S 	 35.8138 	 -33.859 	 -128.159
|  8> C 	 35.7156 	 -32.0931 	 -127.987
|  9> C 	 35.9451 	 -31.4973 	 -129.208
| 10> C 	 36.2399 	 -32.3806 	 -130.286
| 11> C 	 36.408 	 -33.6989 	 -129.832
| 12> H 	 36.3815 	 -32.1116 	 -131.358
| 13> C 	 36.024 	 -30.0203 	 -129.365
| 14> H 	 35.217 	 -29.6261 	 -128.807
| 15> H 	 35.8327 	 -29.8289 	 -130.416
| 16> C 	 37.2901 	 -29.401 	 -128.828
| 17> H 	 37.1885 	 -28.3809 	 -128.827
| 18> H 	 37.5202 	 -29.8125 	 -127.854
| 19> C 	 38.5209 	 -29.6805 	 -129.761
| 20> H 	 38.6696 	 -30.736 	 -129.884
| 21> H 	 38.3616 	 -29.3172 	 -130.755
| 22> H 	 39.3826 	 -29.2715 	 -129.286
| 23> S 	 35.735 	 -36.3569 	 -130.475
| 24> C 	 36.5574 	 -37.1044 	 -131.836
| 25> C 	 37.3332 	 -36.1782 	 -132.556
| 26> C 	 37.4656 	 -34.9397 	 -131.884
| 27> C 	 36.6497 	 -34.8744 	 -130.729
| 28> H 	 37.8123 	 -36.4783 	 -133.505
| 29> C 	 38.3222 	 -33.8626 	 -132.395
| 30> H 	 39.2686 	 -34.296 	 -132.632
| 31> H 	 38.5192 	 -33.1095 	 -131.614
| 32> C 	 37.9287 	 -33.1185 	 -133.722
| 33> H 	 36.91 	 -32.828 	 -133.644
| 34> H 	 38.026 	 -33.85 	 -134.479
| 35> C 	 38.8598 	 -31.9334 	 -133.945
| 36> H 	 38.7688 	 -31.1681 	 -133.118
| 37> H 	 38.7686 	 -31.3472 	 -134.856
| 38> H 	 39.8716 	 -32.286 	 -133.922
| 39> H 	 35.3557 	 -31.6416 	 -127.114
| 40> H 	 36.484 	 -38.1633 	 -132.227
| 41> *
| 42>
| 43>                          ****END OF INPUT****

CARTESIAN COORDINATES (ANGSTROEM)
---------------------------------
  S     35.813800  -33.859000  -128.159000
  C     35.715600  -32.093100  -127.987000
  C     35.945100  -31.497300  -129.208000
  C     36.239900  -32.380600  -130.286000
  C     36.408000  -33.698900  -129.832000
  H     36.381500  -32.111600  -131.358000
  C     36.024000  -30.020300  -129.365000
  H     35.217000  -29.626100  -128.807000
  H     35.832700  -29.828900  -130.416000
  C     37.290100  -29.401000  -128.828000
  H     37.188500  -28.380900  -128.827000
  H     37.520200  -29.812500  -127.854000
  C     38.520900  -29.680500  -129.761000
  H     38.669600  -30.736000  -129.884000
  H     38.361600  -29.317200  -130.755000
  H     39.382600  -29.271500  -129.286000
  S     35.735000  -36.356900  -130.475000
  C     36.557400  -37.104400  -131.836000
  C     37.333200  -36.178200  -132.556000
  C     37.465600  -34.939700  -131.884000
  C     36.649700  -34.874400  -130.729000
  H     37.812300  -36.478300  -133.505000
  C     38.322200  -33.862600  -132.395000
  H     39.268600  -34.296000  -132.632000
  H     38.519200  -33.109500  -131.614000
  C     37.928700  -33.118500  -133.722000
  H     36.910000  -32.828000  -133.644000
  H     38.026000  -33.850000  -134.479000
  C     38.859800  -31.933400  -133.945000
  H     38.768800  -31.168100  -133.118000
  H     38.768600  -31.347200  -134.856000
  H     39.871600  -32.286000  -133.922000
  H     35.355700  -31.641600  -127.114000
  H     36.484000  -38.163300  -132.227000

 Total Charge           Charge          ....    0
 Multiplicity           Mult            ....    1
 Number of Electrons    NEL             ....  134
 Basis Dimension        Dim             ....  322

ORBITAL ENERGIES
----------------

  NO   OCC          E(Eh)            E(eV)
   0   2.0000     -88.972062     -2421.0529
   1   2.0000     -88.967057     -2420.9167
   2   2.0000     -10.338042      -281.3124
   3   2.0000     -10.332477      -281.1610
   4   2.0000     -10.324530      -280.9447
   5   2.0000     -10.312483      -280.6169
   6   2.0000     -10.303006      -280.3591
   7   2.0000     -10.300422      -280.2887
   8   2.0000     -10.298509      -280.2367
   9   2.0000     -10.297702      -280.2147
  10   2.0000     -10.286929      -279.9216
  11   2.0000     -10.286436      -279.9082
  12   2.0000     -10.283025      -279.8153
  13   2.0000     -10.281321      -279.7690
  14   2.0000     -10.278910      -279.7034
  15   2.0000     -10.269114      -279.4368
  16   2.0000      -8.085965      -220.0303
  17   2.0000      -8.080786      -219.8894
  18   2.0000      -6.044512      -164.4795
  19   2.0000      -6.040620      -164.3736
  20   2.0000      -6.039395      -164.3403
  21   2.0000      -6.036707      -164.2671
  22   2.0000      -6.035509      -164.2345
  23   2.0000      -6.031443      -164.1239
  24   2.0000      -1.000892       -27.2357
  25   2.0000      -0.981358       -26.7041
  26   2.0000      -0.916643       -24.9431
  27   2.0000      -0.913472       -24.8568
  28   2.0000      -0.862430       -23.4679
  29   2.0000      -0.856938       -23.3185
  30   2.0000      -0.844146       -22.9704
  31   2.0000      -0.813499       -22.1364
  32   2.0000      -0.782911       -21.3041
  33   2.0000      -0.769625       -20.9426
  34   2.0000      -0.711226       -19.3534
  35   2.0000      -0.708612       -19.2823
  36   2.0000      -0.694363       -18.8946
  37   2.0000      -0.659919       -17.9573
  38   2.0000      -0.640086       -17.4176
  39   2.0000      -0.614653       -16.7256
  40   2.0000      -0.594474       -16.1764
  41   2.0000      -0.577186       -15.7060
  42   2.0000      -0.573829       -15.6147
  43   2.0000      -0.553029       -15.0487
  44   2.0000      -0.542472       -14.7614
  45   2.0000      -0.521486       -14.1904
  46   2.0000      -0.518771       -14.1165
  47   2.0000      -0.511679       -13.9235
  48   2.0000      -0.507395       -13.8069
  49   2.0000      -0.497506       -13.5378
  50   2.0000      -0.483401       -13.1540
  51   2.0000      -0.480024       -13.0621
  52   2.0000      -0.474309       -12.9066
  53   2.0000      -0.464244       -12.6327
  54   2.0000      -0.461018       -12.5449
  55   2.0000      -0.450020       -12.2457
  56   2.0000      -0.445429       -12.1207
  57   2.0000      -0.444748       -12.1022
  58   2.0000      -0.434719       -11.8293
  59   2.0000      -0.432534       -11.7699
  60   2.0000      -0.425552       -11.5799
  61   2.0000      -0.419392       -11.4122
  62   2.0000      -0.415739       -11.3128
  63   2.0000      -0.349246        -9.5035
  64   2.0000      -0.333106        -9.0643
  65   2.0000      -0.328263        -8.9325
  66   2.0000      -0.283852        -7.7240
  67   0.0000       0.017860         0.4860
  68   0.0000       0.075488         2.0541
  69   0.0000       0.095375         2.5953
  70   0.0000       0.119725         3.2579
  71   0.0000       0.128165         3.4876

MULLIKEN ATOMIC CHARGES
-----------------------
   0 S :    0.088883
   1 C :   -0.105127
   2 C :   -0.099866
   3 C :    0.003180
   4 C :   -0.133214
   5 H :    0.028375
   6 C :    0.094958
   7 H :    0.009951
   8 H :    0.011441
   9 C :   -0.017775
  10 H :    0.015549
  11 H :    0.026316
  12 C :   -0.051078
  13 H :    0.030847
  14 H :    0.021029
  15 H :    0.030176
  16 S :    0.118838
  17 C :   -0.119611
  18 C :   -0.053163
  19 C :   -0.015155
  20 C :   -0.133995
  21 H :    0.030408
  22 C :    0.005535
  23 H :    0.015453
  24 H :    0.027469
  25 C :   -0.023912
  26 H :    0.024809
  27 H :    0.017450
  28 C :   -0.048314
  29 H :    0.030777
  30 H :    0.037484
  31 H :    0.021500
  32 H :    0.033076
  33 H :    0.077707
Sum of atomic charges:   -0.0000000

LOEWDIN ATOMIC CHARGES
----------------------
   0 S :    0.378701
   1 C :   -0.180893
   2 C :   -0.060387
   3 C :   -0.066929
   4 C :   -0.176067
   5 H :    0.039928
   6 C :   -0.029214
   7 H :    0.025783
   8 H :    0.027343
   9 C :   -0.020923
  10 H :    0.012986
  11 H :    0.025503
  12 C :   -0.057373
  13 H :    0.020549
  14 H :    0.017924
  15 H :    0.022956
  16 S :    0.405633
  17 C :   -0.198778
  18 C :   -0.072462
  19 C :   -0.059776
  20 C :   -0.194321
  21 H :    0.036457
  22 C :   -0.036945
  23 H :    0.027760
  24 H :    0.029707
  25 C :   -0.026221
  26 H :    0.015378
  27 H :    0.018034
  28 C :   -0.066585
  29 H :    0.030123
  30 H :    0.026531
  31 H :    0.022708
  32 H :    0.018337
  33 H :    0.044532

  Mayer bond orders larger than 0.100000
B(  0-S ,  1-C ) :   1.1196 B(  0-S ,  4-C ) :   1.1578 B(  1-C ,  2-C ) :   1.5976
B(  1-C , 32-H ) :   0.9797 B(  2-C ,  3-C ) :   1.2488 B(  2-C ,  6-C ) :   1.0318
B(  3-C ,  4-C ) :   1.5372 B(  3-C ,  5-H ) :   0.9832 B(  4-C , 20-C ) :   1.0545
B(  6-C ,  7-H ) :   0.9252 B(  6-C ,  8-H ) :   0.9389 B(  6-C ,  9-C ) :   1.0831
B(  9-C , 10-H ) :   0.9539 B(  9-C , 11-H ) :   0.9526 B(  9-C , 12-C ) :   1.0804
B( 12-C , 13-H ) :   0.9787 B( 12-C , 14-H ) :   0.9745 B( 12-C , 15-H ) :   0.9721
B( 16-S , 17-C ) :   1.1559 B( 16-S , 20-C ) :   1.1376 B( 17-C , 18-C ) :   1.5998
B( 17-C , 33-H ) :   0.9586 B( 18-C , 19-C ) :   1.2570 B( 18-C , 21-H ) :   0.9843
B( 19-C , 20-C ) :   1.5611 B( 19-C , 22-C ) :   1.0689 B( 22-C , 23-H ) :   0.9205
B( 22-C , 24-H ) :   0.9364 B( 22-C , 25-C ) :   1.0490 B( 25-C , 26-H ) :   0.9570
B( 25-C , 27-H ) :   0.9508 B( 25-C , 28-C ) :   1.0814 B( 28-C , 29-H ) :   0.9738
B( 28-C , 30-H ) :   0.9739 B( 28-C , 31-H ) :   0.9714

Dispersion correction           -0.015310224
FINAL SINGLE POINT ENERGY     -1339.877002916639

DIPOLE MOMENT
-------------
                                X             Y             Z
Electronic contribution:    -14.86159     -24.91057      13.68883
Nuclear contribution   :     15.07490      25.41184     -14.17656
                        -----------------------------------------
Total Dipole Moment    :      0.21330       0.50127      -0.48773
                        -----------------------------------------
Magnitude (a.u.)       :      0.73120
Magnitude (Debye)      :      1.85856

Rotational constants in cm-1:     0.017132     0.010677     0.006922
Rotational constants in MHz :   513.601828   320.075793   207.508086

                             ****ORCA TERMINATED NORMALLY****
TOTAL RUN TIME: 0 days 0 hours 0 minutes 22 seconds 640 msec
