                         Program Version 4.2.1 -  RELEASE  -
|  1> ! wB97X-D3 SP def2-SVP
|  2> %pal
|  3> nprocs 24
|  4> end
|  5>
|  6> * xyz 0 1
|  7> S 	 -114.828 	 36.2317 	 -122.294
|  8> C 	 -114.627 	 34.4881 	 -122.473
|  9> C 	 -115.699 	 33.8937 	 -123.108
| 10> C 	 -116.665 	 34.9094 	 -123.533
| 11> C 	 -116.366 	 36.2326 	 -123.204
| 12> H 	 -117.495 	 34.6969 	 -124.075
| 13> C 	 -115.94 	 32.4543 	 -123.266
| 14> H 	 -115.088 	 32.0579 	 -123.805
| 15> H 	 -116.806 	 32.318 	 -123.835
| 16> C 	 -116.274 	 31.5949 	 -121.957
| 17> H 	 -116.456 	 30.6465 	 -122.364
| 18> H 	 -115.409 	 31.5464 	 -121.282
| 19> C 	 -117.541 	 32.0668 	 -121.337
| 20> H 	 -118.347 	 32.1792 	 -122.084
| 21> H 	 -117.967 	 31.2611 	 -120.727
| 22> H 	 -117.426 	 32.9848 	 -120.798
| 23> S 	 -117.421 	 37.7545 	 -125.292
| 24> C 	 -118.31 	 39.1769 	 -124.972
| 25> C 	 -118.361 	 39.4068 	 -123.624
| 26> C 	 -117.581 	 38.5089 	 -122.857
| 27> C 	 -117.058 	 37.4506 	 -123.592
| 28> H 	 -118.762 	 40.2671 	 -123.15
| 29> C 	 -117.382 	 38.6221 	 -121.347
| 30> H 	 -117.853 	 39.5552 	 -121.135
| 31> H 	 -116.254 	 38.625 	 -121.112
| 32> C 	 -118.046 	 37.4946 	 -120.521
| 33> H 	 -117.666 	 37.5695 	 -119.504
| 34> H 	 -117.647 	 36.6244 	 -120.9
| 35> C 	 -119.544 	 37.3403 	 -120.554
| 36> H 	 -120.006 	 38.2243 	 -120.193
| 37> H 	 -119.917 	 36.5663 	 -119.913
| 38> H 	 -119.748 	 37.294 	 -121.693
| 39> H 	 -113.954 	 33.9099 	 -121.891
| 40> H 	 -118.729 	 39.8491 	 -125.695
| 41> *
| 42>
| 43>                          ****END OF INPUT****

CARTESIAN COORDINATES (ANGSTROEM)
---------------------------------
  S    -114.828000   36.231700  -122.294000
  C    -114.627000   34.488100  -122.473000
  C    -115.699000   33.893700  -123.108000
  C    -116.665000   34.909400  -123.533000
  C    -116.366000   36.232600  -123.204000
  H    -117.495000   34.696900  -124.075000
  C    -115.940000   32.454300  -123.266000
  H    -115.088000   32.057900  -123.805000
  H    -116.806000   32.318000  -123.835000
  C    -116.274000   31.594900  -121.957000
  H    -116.456000   30.646500  -122.364000
  H    -115.409000   31.546400  -121.282000
  C    -117.541000   32.066800  -121.337000
  H    -118.347000   32.179200  -122.084000
  H    -117.967000   31.261100  -120.727000
  H    -117.426000   32.984800  -120.798000
  S    -117.421000   37.754500  -125.292000
  C    -118.310000   39.176900  -124.972000
  C    -118.361000   39.406800  -123.624000
  C    -117.581000   38.508900  -122.857000
  C    -117.058000   37.450600  -123.592000
  H    -118.762000   40.267100  -123.150000
  C    -117.382000   38.622100  -121.347000
  H    -117.853000   39.555200  -121.135000
  H    -116.254000   38.625000  -121.112000
  C    -118.046000   37.494600  -120.521000
  H    -117.666000   37.569500  -119.504000
  H    -117.647000   36.624400  -120.900000
  C    -119.544000   37.340300  -120.554000
  H    -120.006000   38.224300  -120.193000
  H    -119.917000   36.566300  -119.913000
  H    -119.748000   37.294000  -121.693000
  H    -113.954000   33.909900  -121.891000
  H    -118.729000   39.849100  -125.695000

 Total Charge           Charge          ....    0
 Multiplicity           Mult            ....    1
 Number of Electrons    NEL             ....  134
 Basis Dimension        Dim             ....  322

ORBITAL ENERGIES
----------------

  NO   OCC          E(Eh)            E(eV)
   0   2.0000     -88.967015     -2420.9155
   1   2.0000     -88.965649     -2420.8784
   2   2.0000     -10.336005      -281.2570
   3   2.0000     -10.326605      -281.0012
   4   2.0000     -10.316910      -280.7374
   5   2.0000     -10.312227      -280.6100
   6   2.0000     -10.300979      -280.3039
   7   2.0000     -10.300401      -280.2882
   8   2.0000     -10.293544      -280.1016
   9   2.0000     -10.292063      -280.0613
  10   2.0000     -10.289816      -280.0001
  11   2.0000     -10.286994      -279.9233
  12   2.0000     -10.286221      -279.9023
  13   2.0000     -10.275445      -279.6091
  14   2.0000     -10.271822      -279.5105
  15   2.0000     -10.269827      -279.4562
  16   2.0000      -8.082089      -219.9248
  17   2.0000      -8.079213      -219.8466
  18   2.0000      -6.040479      -164.3698
  19   2.0000      -6.037943      -164.3008
  20   2.0000      -6.036375      -164.2581
  21   2.0000      -6.033812      -164.1884
  22   2.0000      -6.033106      -164.1692
  23   2.0000      -6.029885      -164.0815
  24   2.0000      -1.007303       -27.4101
  25   2.0000      -0.982596       -26.7378
  26   2.0000      -0.916392       -24.9363
  27   2.0000      -0.908481       -24.7210
  28   2.0000      -0.872661       -23.7463
  29   2.0000      -0.851718       -23.1764
  30   2.0000      -0.847549       -23.0630
  31   2.0000      -0.816510       -22.2184
  32   2.0000      -0.783165       -21.3110
  33   2.0000      -0.773740       -21.0545
  34   2.0000      -0.711383       -19.3577
  35   2.0000      -0.707676       -19.2569
  36   2.0000      -0.688680       -18.7399
  37   2.0000      -0.667614       -18.1667
  38   2.0000      -0.643611       -17.5135
  39   2.0000      -0.610217       -16.6049
  40   2.0000      -0.593455       -16.1487
  41   2.0000      -0.583888       -15.8884
  42   2.0000      -0.556297       -15.1376
  43   2.0000      -0.554590       -15.0912
  44   2.0000      -0.550427       -14.9779
  45   2.0000      -0.546345       -14.8668
  46   2.0000      -0.515183       -14.0189
  47   2.0000      -0.509091       -13.8531
  48   2.0000      -0.506009       -13.7692
  49   2.0000      -0.501323       -13.6417
  50   2.0000      -0.486242       -13.2313
  51   2.0000      -0.476674       -12.9710
  52   2.0000      -0.472211       -12.8495
  53   2.0000      -0.471068       -12.8184
  54   2.0000      -0.461650       -12.5621
  55   2.0000      -0.448889       -12.2149
  56   2.0000      -0.447356       -12.1732
  57   2.0000      -0.438003       -11.9187
  58   2.0000      -0.429711       -11.6930
  59   2.0000      -0.422145       -11.4872
  60   2.0000      -0.421233       -11.4623
  61   2.0000      -0.416143       -11.3238
  62   2.0000      -0.404837       -11.0162
  63   2.0000      -0.343134        -9.3371
  64   2.0000      -0.333502        -9.0751
  65   2.0000      -0.326374        -8.8811
  66   2.0000      -0.295407        -8.0384
  67   0.0000       0.026225         0.7136
  68   0.0000       0.065641         1.7862
  69   0.0000       0.111231         3.0268
  70   0.0000       0.113958         3.1010
  71   0.0000       0.127155         3.4601

MULLIKEN ATOMIC CHARGES
-----------------------
   0 S :    0.093364
   1 C :   -0.098754
   2 C :   -0.103454
   3 C :    0.064725
   4 C :   -0.162511
   5 H :   -0.035700
   6 C :    0.069686
   7 H :    0.038738
   8 H :   -0.001011
   9 C :   -0.042304
  10 H :    0.016594
  11 H :    0.034390
  12 C :   -0.052354
  13 H :    0.019182
  14 H :    0.032362
  15 H :    0.050957
  16 S :    0.124613
  17 C :   -0.076011
  18 C :   -0.014214
  19 C :   -0.084852
  20 C :   -0.149570
  21 H :    0.003705
  22 C :    0.067279
  23 H :   -0.001440
  24 H :    0.056898
  25 C :   -0.036937
  26 H :    0.017280
  27 H :    0.013770
  28 C :   -0.034376
  29 H :    0.008945
  30 H :    0.037313
  31 H :    0.049355
  32 H :    0.037715
  33 H :    0.056616
Sum of atomic charges:   -0.0000000

LOEWDIN ATOMIC CHARGES
----------------------
   0 S :    0.384341
   1 C :   -0.187423
   2 C :   -0.059811
   3 C :   -0.048410
   4 C :   -0.180602
   5 H :    0.009358
   6 C :   -0.030406
   7 H :    0.035355
   8 H :    0.021182
   9 C :   -0.026715
  10 H :    0.018985
  11 H :    0.022812
  12 C :   -0.066040
  13 H :    0.027200
  14 H :    0.030053
  15 H :    0.026189
  16 S :    0.430469
  17 C :   -0.190629
  18 C :   -0.076716
  19 C :   -0.057929
  20 C :   -0.204904
  21 H :    0.025387
  22 C :   -0.028608
  23 H :    0.019338
  24 H :    0.043312
  25 C :   -0.039239
  26 H :    0.021184
  27 H :    0.010843
  28 C :   -0.063751
  29 H :    0.013898
  30 H :    0.026762
  31 H :    0.041276
  32 H :    0.020995
  33 H :    0.032246

  Mayer bond orders larger than 0.100000
B(  0-S ,  1-C ) :   1.1323 B(  0-S ,  4-C ) :   1.1290 B(  1-C ,  2-C ) :   1.6198
B(  1-C , 32-H ) :   0.9672 B(  2-C ,  3-C ) :   1.2225 B(  2-C ,  6-C ) :   1.0392
B(  3-C ,  4-C ) :   1.5802 B(  3-C ,  5-H ) :   1.0097 B(  4-C , 20-C ) :   1.0479
B(  6-C ,  7-H ) :   0.9338 B(  6-C ,  8-H ) :   0.9367 B(  6-C ,  9-C ) :   1.0695
B(  9-C , 10-H ) :   0.9536 B(  9-C , 11-H ) :   0.9581 B(  9-C , 12-C ) :   1.0833
B( 12-C , 13-H ) :   0.9699 B( 12-C , 14-H ) :   0.9704 B( 12-C , 15-H ) :   0.9753
B( 16-S , 17-C ) :   1.1847 B( 16-S , 20-C ) :   1.1455 B( 17-C , 18-C ) :   1.5566
B( 17-C , 33-H ) :   0.9690 B( 18-C , 19-C ) :   1.3023 B( 18-C , 21-H ) :   0.9864
B( 19-C , 20-C ) :   1.5402 B( 19-C , 22-C ) :   1.0332 B( 22-C , 23-H ) :   0.9286
B( 22-C , 24-H ) :   0.9363 B( 22-C , 25-C ) :   1.0671 B( 25-C , 26-H ) :   0.9492
B( 25-C , 27-H ) :   0.9538 B( 25-C , 28-C ) :   1.0777 B( 28-C , 29-H ) :   0.9741
B( 28-C , 30-H ) :   0.9716 B( 28-C , 31-H ) :   0.9721

Dispersion correction           -0.015670696
FINAL SINGLE POINT ENERGY     -1339.871706909409

DIPOLE MOMENT
-------------
                                X             Y             Z
Electronic contribution:     10.67592      14.02104     -15.92995
Nuclear contribution   :    -10.99337     -14.33870      16.17128
                        -----------------------------------------
Total Dipole Moment    :     -0.31745      -0.31767       0.24134
                        -----------------------------------------
Magnitude (a.u.)       :      0.50984
Magnitude (Debye)      :      1.29590

Rotational constants in cm-1:     0.020533     0.008813     0.007835
Rotational constants in MHz :   615.560882   264.198062   234.899173

                             ****ORCA TERMINATED NORMALLY****
TOTAL RUN TIME: 0 days 0 hours 0 minutes 22 seconds 834 msec
