                         Program Version 4.2.1 -  RELEASE  -
|  1> ! wB97X-D3 SP def2-SVP
|  2> %pal
|  3> nprocs 24
|  4> end
|  5>
|  6> * xyz 0 1
|  7> S 	 -48.2023 	 23.8603 	 26.386
|  8> C 	 -46.719 	 22.8646 	 26.3486
|  9> C 	 -46.4287 	 22.2445 	 27.5494
| 10> C 	 -47.4443 	 22.4908 	 28.5309
| 11> C 	 -48.4353 	 23.3404 	 28.0839
| 12> H 	 -47.5065 	 22.089 	 29.5541
| 13> C 	 -45.3598 	 21.1659 	 27.7269
| 14> H 	 -45.0079 	 20.8733 	 26.7024
| 15> H 	 -45.8294 	 20.1847 	 27.9996
| 16> C 	 -44.1336 	 21.6762 	 28.5513
| 17> H 	 -43.897 	 22.6659 	 28.2596
| 18> H 	 -44.2416 	 21.5001 	 29.6212
| 19> C 	 -42.8347 	 20.8694 	 28.241
| 20> H 	 -42.8513 	 19.7781 	 28.5711
| 21> H 	 -42.6288 	 20.8021 	 27.1796
| 22> H 	 -41.9785 	 21.2758 	 28.7884
| 23> S 	 -50.2888 	 22.6806 	 29.9777
| 24> C 	 -51.4571 	 23.8902 	 30.4698
| 25> C 	 -51.2976 	 25.095 	 29.761
| 26> C 	 -50.1616 	 25.0798 	 28.8192
| 27> C 	 -49.5397 	 23.8356 	 28.8656
| 28> H 	 -52.0724 	 25.8999 	 29.8933
| 29> C 	 -49.7579 	 26.3077 	 27.9166
| 30> H 	 -50.3994 	 26.4324 	 26.9932
| 31> H 	 -48.7726 	 26.2691 	 27.667
| 32> C 	 -49.8658 	 27.6538 	 28.5944
| 33> H 	 -50.8919 	 27.6936 	 28.963
| 34> H 	 -49.6785 	 28.5076 	 27.9071
| 35> C 	 -48.8463 	 27.8735 	 29.7511
| 36> H 	 -47.7909 	 28.0697 	 29.5155
| 37> H 	 -48.7919 	 27.0181 	 30.4041
| 38> H 	 -49.255 	 28.7418 	 30.3882
| 39> H 	 -46.1329 	 22.6927 	 25.4019
| 40> H 	 -52.2915 	 23.5255 	 31.0777
| 41> *
| 42>
| 43>                          ****END OF INPUT****

CARTESIAN COORDINATES (ANGSTROEM)
---------------------------------
  S    -48.202300   23.860300   26.386000
  C    -46.719000   22.864600   26.348600
  C    -46.428700   22.244500   27.549400
  C    -47.444300   22.490800   28.530900
  C    -48.435300   23.340400   28.083900
  H    -47.506500   22.089000   29.554100
  C    -45.359800   21.165900   27.726900
  H    -45.007900   20.873300   26.702400
  H    -45.829400   20.184700   27.999600
  C    -44.133600   21.676200   28.551300
  H    -43.897000   22.665900   28.259600
  H    -44.241600   21.500100   29.621200
  C    -42.834700   20.869400   28.241000
  H    -42.851300   19.778100   28.571100
  H    -42.628800   20.802100   27.179600
  H    -41.978500   21.275800   28.788400
  S    -50.288800   22.680600   29.977700
  C    -51.457100   23.890200   30.469800
  C    -51.297600   25.095000   29.761000
  C    -50.161600   25.079800   28.819200
  C    -49.539700   23.835600   28.865600
  H    -52.072400   25.899900   29.893300
  C    -49.757900   26.307700   27.916600
  H    -50.399400   26.432400   26.993200
  H    -48.772600   26.269100   27.667000
  C    -49.865800   27.653800   28.594400
  H    -50.891900   27.693600   28.963000
  H    -49.678500   28.507600   27.907100
  C    -48.846300   27.873500   29.751100
  H    -47.790900   28.069700   29.515500
  H    -48.791900   27.018100   30.404100
  H    -49.255000   28.741800   30.388200
  H    -46.132900   22.692700   25.401900
  H    -52.291500   23.525500   31.077700

 Total Charge           Charge          ....    0
 Multiplicity           Mult            ....    1
 Number of Electrons    NEL             ....  134
 Basis Dimension        Dim             ....  322

ORBITAL ENERGIES
----------------

  NO   OCC          E(Eh)            E(eV)
   0   2.0000     -88.969053     -2420.9710
   1   2.0000     -88.967071     -2420.9171
   2   2.0000     -10.329696      -281.0853
   3   2.0000     -10.329100      -281.0691
   4   2.0000     -10.323629      -280.9202
   5   2.0000     -10.320510      -280.8354
   6   2.0000     -10.314977      -280.6848
   7   2.0000     -10.309677      -280.5406
   8   2.0000     -10.303570      -280.3744
   9   2.0000     -10.302005      -280.3318
  10   2.0000     -10.295290      -280.1491
  11   2.0000     -10.291352      -280.0419
  12   2.0000     -10.289786      -279.9993
  13   2.0000     -10.287042      -279.9246
  14   2.0000     -10.281732      -279.7802
  15   2.0000     -10.277204      -279.6569
  16   2.0000      -8.082143      -219.9263
  17   2.0000      -8.081657      -219.9131
  18   2.0000      -6.040734      -164.3767
  19   2.0000      -6.040143      -164.3606
  20   2.0000      -6.037066      -164.2769
  21   2.0000      -6.036282      -164.2556
  22   2.0000      -6.032718      -164.1586
  23   2.0000      -6.032366      -164.1490
  24   2.0000      -1.000831       -27.2340
  25   2.0000      -0.974840       -26.5267
  26   2.0000      -0.908459       -24.7204
  27   2.0000      -0.904074       -24.6011
  28   2.0000      -0.866407       -23.5761
  29   2.0000      -0.848600       -23.0916
  30   2.0000      -0.838162       -22.8075
  31   2.0000      -0.806918       -21.9574
  32   2.0000      -0.782686       -21.2980
  33   2.0000      -0.767302       -20.8793
  34   2.0000      -0.703414       -19.1409
  35   2.0000      -0.698417       -19.0049
  36   2.0000      -0.688328       -18.7304
  37   2.0000      -0.659555       -17.9474
  38   2.0000      -0.629437       -17.1279
  39   2.0000      -0.616367       -16.7722
  40   2.0000      -0.601196       -16.3594
  41   2.0000      -0.569955       -15.5093
  42   2.0000      -0.549811       -14.9611
  43   2.0000      -0.547542       -14.8994
  44   2.0000      -0.540172       -14.6988
  45   2.0000      -0.522420       -14.2158
  46   2.0000      -0.514427       -13.9983
  47   2.0000      -0.504592       -13.7307
  48   2.0000      -0.503927       -13.7125
  49   2.0000      -0.493842       -13.4381
  50   2.0000      -0.489547       -13.3212
  51   2.0000      -0.471582       -12.8324
  52   2.0000      -0.467318       -12.7164
  53   2.0000      -0.462162       -12.5761
  54   2.0000      -0.451819       -12.2946
  55   2.0000      -0.448675       -12.2091
  56   2.0000      -0.442378       -12.0377
  57   2.0000      -0.433345       -11.7919
  58   2.0000      -0.431899       -11.7526
  59   2.0000      -0.426912       -11.6169
  60   2.0000      -0.418372       -11.3845
  61   2.0000      -0.418060       -11.3760
  62   2.0000      -0.406599       -11.0641
  63   2.0000      -0.354993        -9.6599
  64   2.0000      -0.332764        -9.0550
  65   2.0000      -0.332417        -9.0455
  66   2.0000      -0.284812        -7.7501
  67   0.0000       0.024453         0.6654
  68   0.0000       0.073692         2.0053
  69   0.0000       0.101018         2.7488
  70   0.0000       0.108101         2.9416
  71   0.0000       0.119901         3.2627

MULLIKEN ATOMIC CHARGES
-----------------------
   0 S :    0.101010
   1 C :   -0.145372
   2 C :   -0.053585
   3 C :   -0.007470
   4 C :   -0.132888
   5 H :    0.027241
   6 C :    0.015110
   7 H :    0.012540
   8 H :    0.047236
   9 C :   -0.023004
  10 H :    0.035153
  11 H :    0.044459
  12 C :   -0.101909
  13 H :    0.031247
  14 H :    0.029215
  15 H :    0.038453
  16 S :    0.095513
  17 C :   -0.111280
  18 C :   -0.055345
  19 C :   -0.068071
  20 C :   -0.133581
  21 H :    0.050221
  22 C :    0.109074
  23 H :    0.054868
  24 H :    0.004518
  25 C :   -0.092481
  26 H :    0.023349
  27 H :    0.040690
  28 C :   -0.089462
  29 H :    0.038933
  30 H :    0.034152
  31 H :    0.040850
  32 H :    0.067383
  33 H :    0.073232
Sum of atomic charges:    0.0000000

LOEWDIN ATOMIC CHARGES
----------------------
   0 S :    0.384892
   1 C :   -0.193626
   2 C :   -0.065877
   3 C :   -0.068255
   4 C :   -0.173841
   5 H :    0.033786
   6 C :   -0.036458
   7 H :    0.029832
   8 H :    0.039063
   9 C :   -0.032219
  10 H :    0.024954
  11 H :    0.029867
  12 C :   -0.074685
  13 H :    0.027926
  14 H :    0.017614
  15 H :    0.025878
  16 S :    0.397761
  17 C :   -0.189822
  18 C :   -0.073507
  19 C :   -0.057353
  20 C :   -0.185954
  21 H :    0.040489
  22 C :   -0.032492
  23 H :    0.043411
  24 H :    0.007199
  25 C :   -0.042715
  26 H :    0.019077
  27 H :    0.031139
  28 C :   -0.077593
  29 H :    0.025846
  30 H :    0.021238
  31 H :    0.035849
  32 H :    0.037200
  33 H :    0.031374

  Mayer bond orders larger than 0.100000
B(  0-S ,  1-C ) :   1.1201 B(  0-S ,  4-C ) :   1.1241 B(  1-C ,  2-C ) :   1.6449
B(  1-C , 32-H ) :   0.9557 B(  2-C ,  3-C ) :   1.2106 B(  2-C ,  6-C ) :   1.0237
B(  3-C ,  4-C ) :   1.5919 B(  3-C ,  5-H ) :   0.9854 B(  4-C , 20-C ) :   1.0724
B(  6-C ,  7-H ) :   0.9501 B(  6-C ,  8-H ) :   0.9465 B(  6-C ,  9-C ) :   1.0420
B(  9-C , 10-H ) :   0.9590 B(  9-C , 11-H ) :   0.9573 B(  9-C , 12-C ) :   1.0806
B( 12-C , 13-H ) :   0.9755 B( 12-C , 14-H ) :   0.9773 B( 12-C , 15-H ) :   0.9765
B( 16-S , 17-C ) :   1.1436 B( 16-S , 20-C ) :   1.1416 B( 17-C , 18-C ) :   1.6252
B( 17-C , 33-H ) :   0.9665 B( 18-C , 19-C ) :   1.2043 B( 18-C , 21-H ) :   0.9770
B( 19-C , 20-C ) :   1.6052 B( 19-C , 22-C ) :   1.0215 B( 22-C , 23-H ) :   0.9377
B( 22-C , 24-H ) :   0.9308 B( 22-C , 25-C ) :   1.0762 B( 25-C , 26-H ) :   0.9551
B( 25-C , 27-H ) :   0.9551 B( 25-C , 28-C ) :   1.0709 B( 28-C , 29-H ) :   0.9757
B( 28-C , 30-H ) :   0.9771 B( 28-C , 31-H ) :   0.9751

Dispersion correction           -0.013713490
FINAL SINGLE POINT ENERGY     -1339.871274631031

DIPOLE MOMENT
-------------
                                X             Y             Z
Electronic contribution:    -17.68163      -6.25348      -2.85200
Nuclear contribution   :     17.83695       6.24543       2.86262
                        -----------------------------------------
Total Dipole Moment    :      0.15533      -0.00804       0.01062
                        -----------------------------------------
Magnitude (a.u.)       :      0.15590
Magnitude (Debye)      :      0.39625

Rotational constants in cm-1:     0.021221     0.007248     0.006487
Rotational constants in MHz :   636.191189   217.301019   194.488356

                             ****ORCA TERMINATED NORMALLY****
TOTAL RUN TIME: 0 days 0 hours 0 minutes 20 seconds 792 msec
