                         Program Version 4.2.1 -  RELEASE  -
|  1> ! wB97X-D3 SP def2-SVP
|  2> %pal
|  3> nprocs 24
|  4> end
|  5>
|  6> * xyz 0 1
|  7> S 	 -115.028 	 38.7513 	 -116.488
|  8> C 	 -114.151 	 38.3341 	 -117.928
|  9> C 	 -113.004 	 37.7134 	 -117.615
| 10> C 	 -112.899 	 37.4004 	 -116.214
| 11> C 	 -113.974 	 37.8922 	 -115.458
| 12> H 	 -112.027 	 36.905 	 -115.735
| 13> C 	 -111.988 	 37.2111 	 -118.604
| 14> H 	 -112.225 	 37.6482 	 -119.581
| 15> H 	 -112.221 	 36.1387 	 -118.659
| 16> C 	 -110.513 	 37.4865 	 -118.22
| 17> H 	 -110.441 	 38.4725 	 -117.761
| 18> H 	 -110.261 	 36.8038 	 -117.413
| 19> C 	 -109.666 	 37.3283 	 -119.466
| 20> H 	 -109.92 	 36.4803 	 -119.959
| 21> H 	 -109.569 	 38.2007 	 -120.14
| 22> H 	 -108.672 	 37.136 	 -119.138
| 23> S 	 -113.597 	 39.4053 	 -113.277
| 24> C 	 -113.744 	 38.7354 	 -111.722
| 25> C 	 -113.854 	 37.3398 	 -111.76
| 26> C 	 -113.759 	 36.8884 	 -113.097
| 27> C 	 -113.97 	 37.9308 	 -114.004
| 28> H 	 -113.939 	 36.6814 	 -110.819
| 29> C 	 -113.65 	 35.4287 	 -113.423
| 30> H 	 -113.144 	 35.1312 	 -112.474
| 31> H 	 -112.9 	 35.3404 	 -114.256
| 32> C 	 -114.999 	 34.7408 	 -113.743
| 33> H 	 -115.379 	 35.2605 	 -114.537
| 34> H 	 -115.628 	 34.8362 	 -112.855
| 35> C 	 -114.809 	 33.3068 	 -114.249
| 36> H 	 -115.764 	 33.0255 	 -114.69
| 37> H 	 -114.624 	 32.6071 	 -113.455
| 38> H 	 -113.9 	 33.3117 	 -114.937
| 39> H 	 -114.419 	 38.6513 	 -118.949
| 40> H 	 -113.772 	 39.3065 	 -110.815
| 41> *
| 42>
| 43>                          ****END OF INPUT****

CARTESIAN COORDINATES (ANGSTROEM)
---------------------------------
  S    -115.028000   38.751300  -116.488000
  C    -114.151000   38.334100  -117.928000
  C    -113.004000   37.713400  -117.615000
  C    -112.899000   37.400400  -116.214000
  C    -113.974000   37.892200  -115.458000
  H    -112.027000   36.905000  -115.735000
  C    -111.988000   37.211100  -118.604000
  H    -112.225000   37.648200  -119.581000
  H    -112.221000   36.138700  -118.659000
  C    -110.513000   37.486500  -118.220000
  H    -110.441000   38.472500  -117.761000
  H    -110.261000   36.803800  -117.413000
  C    -109.666000   37.328300  -119.466000
  H    -109.920000   36.480300  -119.959000
  H    -109.569000   38.200700  -120.140000
  H    -108.672000   37.136000  -119.138000
  S    -113.597000   39.405300  -113.277000
  C    -113.744000   38.735400  -111.722000
  C    -113.854000   37.339800  -111.760000
  C    -113.759000   36.888400  -113.097000
  C    -113.970000   37.930800  -114.004000
  H    -113.939000   36.681400  -110.819000
  C    -113.650000   35.428700  -113.423000
  H    -113.144000   35.131200  -112.474000
  H    -112.900000   35.340400  -114.256000
  C    -114.999000   34.740800  -113.743000
  H    -115.379000   35.260500  -114.537000
  H    -115.628000   34.836200  -112.855000
  C    -114.809000   33.306800  -114.249000
  H    -115.764000   33.025500  -114.690000
  H    -114.624000   32.607100  -113.455000
  H    -113.900000   33.311700  -114.937000
  H    -114.419000   38.651300  -118.949000
  H    -113.772000   39.306500  -110.815000

 Total Charge           Charge          ....    0
 Multiplicity           Mult            ....    1
 Number of Electrons    NEL             ....  134
 Basis Dimension        Dim             ....  322

ORBITAL ENERGIES
----------------

  NO   OCC          E(Eh)            E(eV)
   0   2.0000     -88.964260     -2420.8406
   1   2.0000     -88.963678     -2420.8248
   2   2.0000     -10.325831      -280.9801
   3   2.0000     -10.315815      -280.7076
   4   2.0000     -10.309491      -280.5355
   5   2.0000     -10.308724      -280.5146
   6   2.0000     -10.297533      -280.2101
   7   2.0000     -10.295967      -280.1675
   8   2.0000     -10.294636      -280.1313
   9   2.0000     -10.293215      -280.0926
  10   2.0000     -10.290920      -280.0302
  11   2.0000     -10.289815      -280.0001
  12   2.0000     -10.287184      -279.9285
  13   2.0000     -10.278222      -279.6846
  14   2.0000     -10.277665      -279.6695
  15   2.0000     -10.269925      -279.4589
  16   2.0000      -8.080424      -219.8795
  17   2.0000      -8.079926      -219.8660
  18   2.0000      -6.038710      -164.3216
  19   2.0000      -6.038416      -164.3137
  20   2.0000      -6.034649      -164.2112
  21   2.0000      -6.034160      -164.1978
  22   2.0000      -6.031307      -164.1202
  23   2.0000      -6.030792      -164.1062
  24   2.0000      -1.017275       -27.6814
  25   2.0000      -0.993836       -27.0437
  26   2.0000      -0.915599       -24.9147
  27   2.0000      -0.910102       -24.7651
  28   2.0000      -0.873772       -23.7765
  29   2.0000      -0.854064       -23.2403
  30   2.0000      -0.848744       -23.0955
  31   2.0000      -0.809009       -22.0142
  32   2.0000      -0.781175       -21.2568
  33   2.0000      -0.769761       -20.9463
  34   2.0000      -0.713007       -19.4019
  35   2.0000      -0.701196       -19.0805
  36   2.0000      -0.689037       -18.7497
  37   2.0000      -0.660028       -17.9603
  38   2.0000      -0.636364       -17.3163
  39   2.0000      -0.616938       -16.7877
  40   2.0000      -0.591638       -16.0993
  41   2.0000      -0.572376       -15.5751
  42   2.0000      -0.564315       -15.3558
  43   2.0000      -0.563259       -15.3270
  44   2.0000      -0.529619       -14.4117
  45   2.0000      -0.529042       -14.3960
  46   2.0000      -0.511710       -13.9243
  47   2.0000      -0.509927       -13.8758
  48   2.0000      -0.505241       -13.7483
  49   2.0000      -0.500032       -13.6066
  50   2.0000      -0.492077       -13.3901
  51   2.0000      -0.481084       -13.0910
  52   2.0000      -0.478131       -13.0106
  53   2.0000      -0.467061       -12.7094
  54   2.0000      -0.456388       -12.4189
  55   2.0000      -0.447284       -12.1712
  56   2.0000      -0.442958       -12.0535
  57   2.0000      -0.438817       -11.9408
  58   2.0000      -0.436190       -11.8693
  59   2.0000      -0.430469       -11.7136
  60   2.0000      -0.423976       -11.5370
  61   2.0000      -0.415645       -11.3103
  62   2.0000      -0.408953       -11.1282
  63   2.0000      -0.340763        -9.2726
  64   2.0000      -0.328001        -8.9254
  65   2.0000      -0.323807        -8.8112
  66   2.0000      -0.293916        -7.9979
  67   0.0000       0.035297         0.9605
  68   0.0000       0.072086         1.9615
  69   0.0000       0.111347         3.0299
  70   0.0000       0.126873         3.4524
  71   0.0000       0.133353         3.6287

MULLIKEN ATOMIC CHARGES
-----------------------
   0 S :    0.113111
   1 C :   -0.136498
   2 C :   -0.081995
   3 C :   -0.004593
   4 C :   -0.158133
   5 H :    0.034670
   6 C :    0.051511
   7 H :    0.013029
   8 H :    0.046974
   9 C :   -0.097410
  10 H :    0.035949
  11 H :    0.031337
  12 C :    0.018704
  13 H :    0.005363
  14 H :    0.046247
  15 H :    0.009980
  16 S :    0.135629
  17 C :   -0.090499
  18 C :   -0.063342
  19 C :   -0.086434
  20 C :   -0.145133
  21 H :    0.050748
  22 C :    0.035924
  23 H :    0.024108
  24 H :    0.018225
  25 C :   -0.015461
  26 H :    0.015690
  27 H :    0.028875
  28 C :   -0.038886
  29 H :    0.037127
  30 H :    0.025718
  31 H :    0.039693
  32 H :    0.051777
  33 H :    0.047995
Sum of atomic charges:   -0.0000000

LOEWDIN ATOMIC CHARGES
----------------------
   0 S :    0.428604
   1 C :   -0.208335
   2 C :   -0.071253
   3 C :   -0.070399
   4 C :   -0.217614
   5 H :    0.032970
   6 C :   -0.031856
   7 H :    0.025697
   8 H :    0.037257
   9 C :   -0.037066
  10 H :    0.027073
  11 H :    0.023133
  12 C :   -0.056055
  13 H :    0.012452
  14 H :    0.034414
  15 H :    0.024644
  16 S :    0.462817
  17 C :   -0.206085
  18 C :   -0.082915
  19 C :   -0.060746
  20 C :   -0.229222
  21 H :    0.046954
  22 C :   -0.038918
  23 H :    0.032793
  24 H :    0.029179
  25 C :   -0.026962
  26 H :    0.015995
  27 H :    0.027371
  28 C :   -0.063459
  29 H :    0.027679
  30 H :    0.019212
  31 H :    0.034025
  32 H :    0.035135
  33 H :    0.023483

  Mayer bond orders larger than 0.100000
B(  0-S ,  1-C ) :   1.1298 B(  0-S ,  4-C ) :   1.1715 B(  1-C ,  2-C ) :   1.6241
B(  1-C , 32-H ) :   0.9650 B(  2-C ,  3-C ) :   1.2445 B(  2-C ,  6-C ) :   1.0224
B(  3-C ,  4-C ) :   1.5488 B(  3-C ,  5-H ) :   0.9821 B(  4-C , 20-C ) :   1.0254
B(  6-C ,  7-H ) :   0.9475 B(  6-C ,  8-H ) :   0.9332 B(  6-C ,  9-C ) :   1.0522
B(  9-C , 10-H ) :   0.9645 B(  9-C , 11-H ) :   0.9496 B(  9-C , 12-C ) :   1.0906
B( 12-C , 13-H ) :   0.9671 B( 12-C , 14-H ) :   0.9743 B( 12-C , 15-H ) :   0.9667
B( 16-S , 17-C ) :   1.1916 B( 16-S , 20-C ) :   1.1862 B( 17-C , 18-C ) :   1.5617
B( 17-C , 20-C ) :   0.1071 B( 17-C , 33-H ) :   0.9714 B( 18-C , 19-C ) :   1.2875
B( 18-C , 21-H ) :   0.9758 B( 19-C , 20-C ) :   1.5326 B( 19-C , 22-C ) :   1.0476
B( 22-C , 23-H ) :   0.9325 B( 22-C , 24-H ) :   0.9228 B( 22-C , 25-C ) :   1.0684
B( 25-C , 26-H ) :   0.9540 B( 25-C , 27-H ) :   0.9525 B( 25-C , 28-C ) :   1.0819
B( 28-C , 29-H ) :   0.9746 B( 28-C , 30-H ) :   0.9769 B( 28-C , 31-H ) :   0.9724

Dispersion correction           -0.014131389
FINAL SINGLE POINT ENERGY     -1339.861392520912

DIPOLE MOMENT
-------------
                                X             Y             Z
Electronic contribution:    -12.20946      20.69309      10.02118
Nuclear contribution   :     12.65912     -21.10445     -10.14866
                        -----------------------------------------
Total Dipole Moment    :      0.44966      -0.41136      -0.12748
                        -----------------------------------------
Magnitude (a.u.)       :      0.62263
Magnitude (Debye)      :      1.58260

Rotational constants in cm-1:     0.017176     0.008542     0.007380
Rotational constants in MHz :   514.923351   256.068086   221.240800

                             ****ORCA TERMINATED NORMALLY****
TOTAL RUN TIME: 0 days 0 hours 0 minutes 21 seconds 838 msec
