                         Program Version 4.2.1 -  RELEASE  -
|  1> ! wB97X-D3 SP def2-SVP
|  2> %pal
|  3> nprocs 24
|  4> end
|  5>
|  6> * xyz 0 1
|  7> S 	 -64.6535 	 7.87966 	 -103.458
|  8> C 	 -64.9917 	 8.20734 	 -105.145
|  9> C 	 -64.0937 	 9.16251 	 -105.625
| 10> C 	 -63.2356 	 9.72016 	 -104.619
| 11> C 	 -63.2371 	 9.0382 	 -103.425
| 12> H 	 -62.637 	 10.5735 	 -104.754
| 13> C 	 -64.0459 	 9.7911 	 -107.02
| 14> H 	 -64.514 	 9.02329 	 -107.624
| 15> H 	 -63.0092 	 9.70926 	 -107.343
| 16> C 	 -64.6813 	 11.1191 	 -107.27
| 17> H 	 -65.7703 	 11.1493 	 -106.989
| 18> H 	 -64.2201 	 11.7937 	 -106.573
| 19> C 	 -64.7125 	 11.6607 	 -108.716
| 20> H 	 -63.8842 	 11.2921 	 -109.302
| 21> H 	 -65.5402 	 11.2584 	 -109.258
| 22> H 	 -64.7089 	 12.724 	 -108.927
| 23> S 	 -63.0418 	 9.24463 	 -100.59
| 24> C 	 -61.4959 	 9.92928 	 -100.072
| 25> C 	 -60.4943 	 9.81251 	 -101.04
| 26> C 	 -60.9808 	 9.56885 	 -102.31
| 27> C 	 -62.3627 	 9.24682 	 -102.281
| 28> H 	 -59.4785 	 10.1021 	 -100.844
| 29> C 	 -60.1756 	 9.46376 	 -103.522
| 30> H 	 -60.8077 	 9.10532 	 -104.378
| 31> H 	 -59.5768 	 8.59159 	 -103.299
| 32> C 	 -59.4918 	 10.7971 	 -103.806
| 33> H 	 -58.9267 	 11.1906 	 -102.897
| 34> H 	 -60.2238 	 11.6219 	 -103.935
| 35> C 	 -58.5858 	 10.7152 	 -105.088
| 36> H 	 -58.388 	 11.6406 	 -105.47
| 37> H 	 -59.0212 	 10.3734 	 -105.983
| 38> H 	 -57.6232 	 10.1583 	 -105.001
| 39> H 	 -65.7614 	 7.79199 	 -105.713
| 40> H 	 -61.2658 	 10.1031 	 -99.001
| 41> *
| 42>
| 43>                          ****END OF INPUT****

CARTESIAN COORDINATES (ANGSTROEM)
---------------------------------
  S    -64.653500    7.879660  -103.458000
  C    -64.991700    8.207340  -105.145000
  C    -64.093700    9.162510  -105.625000
  C    -63.235600    9.720160  -104.619000
  C    -63.237100    9.038200  -103.425000
  H    -62.637000   10.573500  -104.754000
  C    -64.045900    9.791100  -107.020000
  H    -64.514000    9.023290  -107.624000
  H    -63.009200    9.709260  -107.343000
  C    -64.681300   11.119100  -107.270000
  H    -65.770300   11.149300  -106.989000
  H    -64.220100   11.793700  -106.573000
  C    -64.712500   11.660700  -108.716000
  H    -63.884200   11.292100  -109.302000
  H    -65.540200   11.258400  -109.258000
  H    -64.708900   12.724000  -108.927000
  S    -63.041800    9.244630  -100.590000
  C    -61.495900    9.929280  -100.072000
  C    -60.494300    9.812510  -101.040000
  C    -60.980800    9.568850  -102.310000
  C    -62.362700    9.246820  -102.281000
  H    -59.478500   10.102100  -100.844000
  C    -60.175600    9.463760  -103.522000
  H    -60.807700    9.105320  -104.378000
  H    -59.576800    8.591590  -103.299000
  C    -59.491800   10.797100  -103.806000
  H    -58.926700   11.190600  -102.897000
  H    -60.223800   11.621900  -103.935000
  C    -58.585800   10.715200  -105.088000
  H    -58.388000   11.640600  -105.470000
  H    -59.021200   10.373400  -105.983000
  H    -57.623200   10.158300  -105.001000
  H    -65.761400    7.791990  -105.713000
  H    -61.265800   10.103100  -99.001000

 Total Charge           Charge          ....    0
 Multiplicity           Mult            ....    1
 Number of Electrons    NEL             ....  134
 Basis Dimension        Dim             ....  322

ORBITAL ENERGIES
----------------

  NO   OCC          E(Eh)            E(eV)
   0   2.0000     -88.971033     -2421.0249
   1   2.0000     -88.963028     -2420.8071
   2   2.0000     -10.333503      -281.1889
   3   2.0000     -10.331723      -281.1405
   4   2.0000     -10.326010      -280.9850
   5   2.0000     -10.313836      -280.6537
   6   2.0000     -10.303522      -280.3731
   7   2.0000     -10.301725      -280.3242
   8   2.0000     -10.301707      -280.3237
   9   2.0000     -10.294404      -280.1250
  10   2.0000     -10.289687      -279.9966
  11   2.0000     -10.288924      -279.9759
  12   2.0000     -10.288732      -279.9706
  13   2.0000     -10.288163      -279.9552
  14   2.0000     -10.275645      -279.6145
  15   2.0000     -10.272823      -279.5377
  16   2.0000      -8.084321      -219.9856
  17   2.0000      -8.076628      -219.7762
  18   2.0000      -6.042771      -164.4321
  19   2.0000      -6.039306      -164.3379
  20   2.0000      -6.035362      -164.2305
  21   2.0000      -6.034960      -164.2196
  22   2.0000      -6.031337      -164.1210
  23   2.0000      -6.027182      -164.0080
  24   2.0000      -0.999500       -27.1978
  25   2.0000      -0.978264       -26.6199
  26   2.0000      -0.914084       -24.8735
  27   2.0000      -0.909448       -24.7473
  28   2.0000      -0.868084       -23.6218
  29   2.0000      -0.854990       -23.2655
  30   2.0000      -0.844829       -22.9890
  31   2.0000      -0.814483       -22.1632
  32   2.0000      -0.788034       -21.4435
  33   2.0000      -0.771302       -20.9882
  34   2.0000      -0.716354       -19.4930
  35   2.0000      -0.706067       -19.2131
  36   2.0000      -0.701865       -19.0987
  37   2.0000      -0.660894       -17.9838
  38   2.0000      -0.643594       -17.5131
  39   2.0000      -0.620416       -16.8824
  40   2.0000      -0.597303       -16.2534
  41   2.0000      -0.565035       -15.3754
  42   2.0000      -0.561927       -15.2908
  43   2.0000      -0.551757       -15.0141
  44   2.0000      -0.533803       -14.5255
  45   2.0000      -0.526178       -14.3180
  46   2.0000      -0.516372       -14.0512
  47   2.0000      -0.512152       -13.9364
  48   2.0000      -0.507434       -13.8080
  49   2.0000      -0.501258       -13.6399
  50   2.0000      -0.495218       -13.4756
  51   2.0000      -0.477002       -12.9799
  52   2.0000      -0.470607       -12.8059
  53   2.0000      -0.462354       -12.5813
  54   2.0000      -0.459054       -12.4915
  55   2.0000      -0.456877       -12.4323
  56   2.0000      -0.450487       -12.2584
  57   2.0000      -0.442595       -12.0436
  58   2.0000      -0.435409       -11.8481
  59   2.0000      -0.427098       -11.6219
  60   2.0000      -0.414318       -11.2742
  61   2.0000      -0.409239       -11.1360
  62   2.0000      -0.408186       -11.1073
  63   2.0000      -0.351734        -9.5712
  64   2.0000      -0.337361        -9.1801
  65   2.0000      -0.325585        -8.8596
  66   2.0000      -0.279581        -7.6078
  67   0.0000       0.016509         0.4492
  68   0.0000       0.065683         1.7873
  69   0.0000       0.100663         2.7392
  70   0.0000       0.118451         3.2232
  71   0.0000       0.127741         3.4760

MULLIKEN ATOMIC CHARGES
-----------------------
   0 S :    0.083397
   1 C :   -0.082054
   2 C :   -0.120769
   3 C :    0.021870
   4 C :   -0.129363
   5 H :    0.000918
   6 C :    0.077074
   7 H :    0.000728
   8 H :    0.025215
   9 C :   -0.045203
  10 H :    0.036011
  11 H :    0.017860
  12 C :   -0.035804
  13 H :    0.012302
  14 H :    0.023076
  15 H :    0.037650
  16 S :    0.106630
  17 C :   -0.103443
  18 C :   -0.022401
  19 C :   -0.049148
  20 C :   -0.139417
  21 H :    0.015953
  22 C :    0.071496
  23 H :    0.041173
  24 H :    0.040808
  25 C :   -0.119207
  26 H :    0.042814
  27 H :    0.035944
  28 C :    0.014242
  29 H :   -0.003306
  30 H :    0.005233
  31 H :    0.041092
  32 H :    0.027333
  33 H :    0.071297
Sum of atomic charges:   -0.0000000

LOEWDIN ATOMIC CHARGES
----------------------
   0 S :    0.362739
   1 C :   -0.184933
   2 C :   -0.060850
   3 C :   -0.061851
   4 C :   -0.162538
   5 H :    0.023081
   6 C :   -0.037300
   7 H :    0.025336
   8 H :    0.031363
   9 C :   -0.043939
  10 H :    0.034820
  11 H :    0.019642
  12 C :   -0.069085
  13 H :    0.021817
  14 H :    0.023592
  15 H :    0.030009
  16 S :    0.374161
  17 C :   -0.173675
  18 C :   -0.069313
  19 C :   -0.046901
  20 C :   -0.182279
  21 H :    0.029701
  22 C :   -0.040224
  23 H :    0.040097
  24 H :    0.039614
  25 C :   -0.038285
  26 H :    0.032204
  27 H :    0.029592
  28 C :   -0.070476
  29 H :    0.014912
  30 H :    0.022588
  31 H :    0.033209
  32 H :    0.019565
  33 H :    0.033610

  Mayer bond orders larger than 0.100000
B(  0-S ,  1-C ) :   1.1254 B(  0-S ,  4-C ) :   1.1132 B(  1-C ,  2-C ) :   1.6183
B(  1-C , 32-H ) :   0.9770 B(  2-C ,  3-C ) :   1.2250 B(  2-C ,  6-C ) :   1.0264
B(  3-C ,  4-C ) :   1.5747 B(  3-C ,  5-H ) :   0.9974 B(  4-C , 20-C ) :   1.0912
B(  6-C ,  7-H ) :   0.9317 B(  6-C ,  8-H ) :   0.9319 B(  6-C ,  9-C ) :   1.0690
B(  9-C , 10-H ) :   0.9567 B(  9-C , 11-H ) :   0.9561 B(  9-C , 12-C ) :   1.0628
B( 12-C , 13-H ) :   0.9752 B( 12-C , 14-H ) :   0.9769 B( 12-C , 15-H ) :   0.9765
B( 16-S , 17-C ) :   1.1635 B( 16-S , 20-C ) :   1.1167 B( 17-C , 18-C ) :   1.5855
B( 17-C , 20-C ) :   0.1119 B( 17-C , 33-H ) :   0.9601 B( 18-C , 19-C ) :   1.2693
B( 18-C , 21-H ) :   0.9847 B( 19-C , 20-C ) :   1.5469 B( 19-C , 22-C ) :   1.0400
B( 22-C , 23-H ) :   0.9303 B( 22-C , 24-H ) :   0.9300 B( 22-C , 25-C ) :   1.0360
B( 25-C , 26-H ) :   0.9590 B( 25-C , 27-H ) :   0.9544 B( 25-C , 28-C ) :   1.0753
B( 28-C , 29-H ) :   0.9673 B( 28-C , 30-H ) :   0.9665 B( 28-C , 31-H ) :   0.9760

Dispersion correction           -0.014066669
FINAL SINGLE POINT ENERGY     -1339.848025788590

DIPOLE MOMENT
-------------
                                X             Y             Z
Electronic contribution:    -11.79773     -14.45061      26.97126
Nuclear contribution   :     12.32925      14.84551     -27.46393
                        -----------------------------------------
Total Dipole Moment    :      0.53152       0.39490      -0.49267
                        -----------------------------------------
Magnitude (a.u.)       :      0.82534
Magnitude (Debye)      :      2.09784

Rotational constants in cm-1:     0.016671     0.008976     0.006415
Rotational constants in MHz :   499.775017   269.082619   192.305386

                             ****ORCA TERMINATED NORMALLY****
TOTAL RUN TIME: 0 days 0 hours 0 minutes 20 seconds 358 msec
