                         Program Version 4.2.1 -  RELEASE  -
|  1> ! wB97X-D3 SP def2-SVP
|  2> %pal
|  3> nprocs 24
|  4> end
|  5>
|  6> * xyz 0 1
|  7> S 	 -14.7413 	 -25.3324 	 -94.0717
|  8> C 	 -13.6897 	 -26.4847 	 -94.8569
|  9> C 	 -14.1431 	 -27.1567 	 -95.9766
| 10> C 	 -15.5412 	 -26.8233 	 -96.0809
| 11> C 	 -15.996 	 -25.9382 	 -95.1209
| 12> H 	 -16.2708 	 -27.0414 	 -96.9081
| 13> C 	 -13.3453 	 -28.3128 	 -96.6763
| 14> H 	 -13.9655 	 -29.2178 	 -96.5693
| 15> H 	 -12.4503 	 -28.4029 	 -96.0825
| 16> C 	 -13.0765 	 -28.0744 	 -98.2018
| 17> H 	 -12.4383 	 -28.8988 	 -98.5514
| 18> H 	 -14.0095 	 -28.116 	 -98.6883
| 19> C 	 -12.4607 	 -26.7133 	 -98.5058
| 20> H 	 -13.0098 	 -25.9583 	 -97.9828
| 21> H 	 -11.4285 	 -26.7031 	 -98.1383
| 22> H 	 -12.494 	 -26.6457 	 -99.6163
| 23> S 	 -18.2278 	 -26.0238 	 -93.5297
| 24> C 	 -19.7452 	 -25.5673 	 -94.174
| 25> C 	 -19.6145 	 -25.3397 	 -95.5243
| 26> C 	 -18.2926 	 -25.1736 	 -96.0068
| 27> C 	 -17.3747 	 -25.4582 	 -94.977
| 28> H 	 -20.561 	 -25.2605 	 -96.1221
| 29> C 	 -18.0375 	 -24.722 	 -97.4115
| 30> H 	 -18.2991 	 -25.5431 	 -98.0893
| 31> H 	 -16.9533 	 -24.6338 	 -97.5227
| 32> C 	 -18.6021 	 -23.3838 	 -97.8792
| 33> H 	 -19.6456 	 -23.5131 	 -97.9256
| 34> H 	 -18.4196 	 -23.189 	 -98.9139
| 35> C 	 -18.2075 	 -22.2485 	 -96.9952
| 36> H 	 -18.4688 	 -21.355 	 -97.6148
| 37> H 	 -17.187 	 -22.2178 	 -96.6983
| 38> H 	 -18.7353 	 -22.2491 	 -96.0932
| 39> H 	 -12.7473 	 -26.6842 	 -94.4644
| 40> H 	 -20.7522 	 -25.5527 	 -93.7809
| 41> *
| 42>
| 43>                          ****END OF INPUT****

CARTESIAN COORDINATES (ANGSTROEM)
---------------------------------
  S    -14.741300  -25.332400  -94.071700
  C    -13.689700  -26.484700  -94.856900
  C    -14.143100  -27.156700  -95.976600
  C    -15.541200  -26.823300  -96.080900
  C    -15.996000  -25.938200  -95.120900
  H    -16.270800  -27.041400  -96.908100
  C    -13.345300  -28.312800  -96.676300
  H    -13.965500  -29.217800  -96.569300
  H    -12.450300  -28.402900  -96.082500
  C    -13.076500  -28.074400  -98.201800
  H    -12.438300  -28.898800  -98.551400
  H    -14.009500  -28.116000  -98.688300
  C    -12.460700  -26.713300  -98.505800
  H    -13.009800  -25.958300  -97.982800
  H    -11.428500  -26.703100  -98.138300
  H    -12.494000  -26.645700  -99.616300
  S    -18.227800  -26.023800  -93.529700
  C    -19.745200  -25.567300  -94.174000
  C    -19.614500  -25.339700  -95.524300
  C    -18.292600  -25.173600  -96.006800
  C    -17.374700  -25.458200  -94.977000
  H    -20.561000  -25.260500  -96.122100
  C    -18.037500  -24.722000  -97.411500
  H    -18.299100  -25.543100  -98.089300
  H    -16.953300  -24.633800  -97.522700
  C    -18.602100  -23.383800  -97.879200
  H    -19.645600  -23.513100  -97.925600
  H    -18.419600  -23.189000  -98.913900
  C    -18.207500  -22.248500  -96.995200
  H    -18.468800  -21.355000  -97.614800
  H    -17.187000  -22.217800  -96.698300
  H    -18.735300  -22.249100  -96.093200
  H    -12.747300  -26.684200  -94.464400
  H    -20.752200  -25.552700  -93.780900

 Total Charge           Charge          ....    0
 Multiplicity           Mult            ....    1
 Number of Electrons    NEL             ....  134
 Basis Dimension        Dim             ....  322

ORBITAL ENERGIES
----------------

  NO   OCC          E(Eh)            E(eV)
   0   2.0000     -88.967466     -2420.9278
   1   2.0000     -88.964912     -2420.8583
   2   2.0000     -10.325137      -280.9613
   3   2.0000     -10.324931      -280.9557
   4   2.0000     -10.313005      -280.6311
   5   2.0000     -10.307862      -280.4912
   6   2.0000     -10.305514      -280.4273
   7   2.0000     -10.303919      -280.3839
   8   2.0000     -10.300315      -280.2858
   9   2.0000     -10.298751      -280.2433
  10   2.0000     -10.290709      -280.0244
  11   2.0000     -10.288499      -279.9643
  12   2.0000     -10.284826      -279.8643
  13   2.0000     -10.276183      -279.6291
  14   2.0000     -10.275073      -279.5990
  15   2.0000     -10.265479      -279.3379
  16   2.0000      -8.082559      -219.9376
  17   2.0000      -8.079869      -219.8644
  18   2.0000      -6.040808      -164.3787
  19   2.0000      -6.038388      -164.3129
  20   2.0000      -6.037326      -164.2840
  21   2.0000      -6.034335      -164.2026
  22   2.0000      -6.033284      -164.1740
  23   2.0000      -6.030588      -164.1006
  24   2.0000      -1.007186       -27.4069
  25   2.0000      -0.985217       -26.8091
  26   2.0000      -0.916358       -24.9354
  27   2.0000      -0.908169       -24.7125
  28   2.0000      -0.867375       -23.6025
  29   2.0000      -0.853840       -23.2342
  30   2.0000      -0.845324       -23.0024
  31   2.0000      -0.810205       -22.0468
  32   2.0000      -0.785831       -21.3835
  33   2.0000      -0.774269       -21.0689
  34   2.0000      -0.711562       -19.3626
  35   2.0000      -0.699470       -19.0335
  36   2.0000      -0.689898       -18.7731
  37   2.0000      -0.649666       -17.6783
  38   2.0000      -0.641581       -17.4583
  39   2.0000      -0.613810       -16.7026
  40   2.0000      -0.593682       -16.1549
  41   2.0000      -0.564173       -15.3519
  42   2.0000      -0.557392       -15.1674
  43   2.0000      -0.551404       -15.0045
  44   2.0000      -0.546965       -14.8837
  45   2.0000      -0.543403       -14.7867
  46   2.0000      -0.517269       -14.0756
  47   2.0000      -0.513181       -13.9644
  48   2.0000      -0.501904       -13.6575
  49   2.0000      -0.495829       -13.4922
  50   2.0000      -0.484783       -13.1916
  51   2.0000      -0.474608       -12.9148
  52   2.0000      -0.466761       -12.7012
  53   2.0000      -0.462488       -12.5849
  54   2.0000      -0.458111       -12.4658
  55   2.0000      -0.451821       -12.2947
  56   2.0000      -0.447069       -12.1654
  57   2.0000      -0.430683       -11.7195
  58   2.0000      -0.429189       -11.6788
  59   2.0000      -0.428621       -11.6634
  60   2.0000      -0.426179       -11.5969
  61   2.0000      -0.423084       -11.5127
  62   2.0000      -0.408299       -11.1104
  63   2.0000      -0.337930        -9.1955
  64   2.0000      -0.332849        -9.0573
  65   2.0000      -0.326709        -8.8902
  66   2.0000      -0.295216        -8.0332
  67   0.0000       0.029767         0.8100
  68   0.0000       0.068818         1.8726
  69   0.0000       0.109862         2.9895
  70   0.0000       0.113892         3.0992
  71   0.0000       0.121884         3.3166

MULLIKEN ATOMIC CHARGES
-----------------------
   0 S :    0.125836
   1 C :   -0.094481
   2 C :   -0.109975
   3 C :    0.011368
   4 C :   -0.192974
   5 H :    0.030818
   6 C :    0.077972
   7 H :    0.047348
   8 H :    0.016562
   9 C :   -0.079652
  10 H :    0.037063
  11 H :    0.021233
  12 C :   -0.050405
  13 H :    0.046781
  14 H :    0.029908
  15 H :    0.043156
  16 S :    0.115256
  17 C :   -0.071678
  18 C :   -0.087468
  19 C :   -0.051658
  20 C :   -0.131368
  21 H :    0.032949
  22 C :    0.040269
  23 H :    0.035705
  24 H :    0.021417
  25 C :   -0.021726
  26 H :    0.002641
  27 H :    0.015240
  28 C :   -0.013966
  29 H :    0.034426
  30 H :    0.024945
  31 H :    0.027233
  32 H :    0.014529
  33 H :    0.052694
Sum of atomic charges:   -0.0000000

LOEWDIN ATOMIC CHARGES
----------------------
   0 S :    0.406185
   1 C :   -0.180522
   2 C :   -0.065081
   3 C :   -0.064257
   4 C :   -0.205070
   5 H :    0.038769
   6 C :   -0.019533
   7 H :    0.037220
   8 H :    0.025403
   9 C :   -0.039797
  10 H :    0.027170
  11 H :    0.016242
  12 C :   -0.062135
  13 H :    0.023831
  14 H :    0.025165
  15 H :    0.032267
  16 S :    0.420315
  17 C :   -0.201151
  18 C :   -0.080510
  19 C :   -0.054827
  20 C :   -0.205245
  21 H :    0.035110
  22 C :   -0.038386
  23 H :    0.033763
  24 H :    0.028000
  25 C :   -0.038039
  26 H :    0.015944
  27 H :    0.023613
  28 C :   -0.055487
  29 H :    0.035242
  30 H :    0.023051
  31 H :    0.021474
  32 H :    0.005923
  33 H :    0.035355

  Mayer bond orders larger than 0.100000
B(  0-S ,  1-C ) :   1.1489 B(  0-S ,  4-C ) :   1.1370 B(  1-C ,  2-C ) :   1.6315
B(  1-C , 32-H ) :   0.9652 B(  2-C ,  3-C ) :   1.2055 B(  2-C ,  6-C ) :   1.0052
B(  3-C ,  4-C ) :   1.6267 B(  3-C ,  5-H ) :   0.9783 B(  4-C , 20-C ) :   1.0066
B(  6-C ,  7-H ) :   0.9486 B(  6-C ,  8-H ) :   0.9440 B(  6-C ,  9-C ) :   1.0605
B(  9-C , 10-H ) :   0.9576 B(  9-C , 11-H ) :   0.9586 B(  9-C , 12-C ) :   1.0806
B( 12-C , 13-H ) :   0.9706 B( 12-C , 14-H ) :   0.9768 B( 12-C , 15-H ) :   0.9745
B( 16-S , 17-C ) :   1.1616 B( 16-S , 20-C ) :   1.1532 B( 17-C , 18-C ) :   1.6029
B( 17-C , 20-C ) :   0.1007 B( 17-C , 33-H ) :   0.9666 B( 18-C , 19-C ) :   1.2590
B( 18-C , 21-H ) :   0.9815 B( 19-C , 20-C ) :   1.5555 B( 19-C , 22-C ) :   1.0438
B( 22-C , 23-H ) :   0.9280 B( 22-C , 24-H ) :   0.9342 B( 22-C , 25-C ) :   1.0799
B( 25-C , 26-H ) :   0.9441 B( 25-C , 27-H ) :   0.9526 B( 25-C , 28-C ) :   1.0764
B( 28-C , 29-H ) :   0.9722 B( 28-C , 30-H ) :   0.9776 B( 28-C , 31-H ) :   0.9692

Dispersion correction           -0.014713935
FINAL SINGLE POINT ENERGY     -1339.862027390003

DIPOLE MOMENT
-------------
                                X             Y             Z
Electronic contribution:     -5.71415      -2.65951      24.34692
Nuclear contribution   :      5.58988       2.42706     -25.00572
                        -----------------------------------------
Total Dipole Moment    :     -0.12427      -0.23245      -0.65880
                        -----------------------------------------
Magnitude (a.u.)       :      0.70958
Magnitude (Debye)      :      1.80360

Rotational constants in cm-1:     0.019319     0.008594     0.007112
Rotational constants in MHz :   579.183675   257.647168   213.213613

                             ****ORCA TERMINATED NORMALLY****
TOTAL RUN TIME: 0 days 0 hours 0 minutes 22 seconds 118 msec
