                         Program Version 4.2.1 -  RELEASE  -
|  1> ! wB97X-D3 SP def2-SVP
|  2> %pal
|  3> nprocs 24
|  4> end
|  5>
|  6> * xyz 0 1
|  7> S 	 -98.71 	 -26.9267 	 -64.9547
|  8> C 	 -99.1293 	 -25.2841 	 -64.5805
|  9> C 	 -98.0029 	 -24.5414 	 -64.3341
| 10> C 	 -96.8609 	 -25.3593 	 -64.1871
| 11> C 	 -97.0417 	 -26.7085 	 -64.4325
| 12> H 	 -95.8723 	 -24.9256 	 -63.9209
| 13> C 	 -97.9102 	 -23.0943 	 -64.0621
| 14> H 	 -97.2002 	 -22.7433 	 -64.8113
| 15> H 	 -97.4361 	 -23.0765 	 -63.0979
| 16> C 	 -99.2144 	 -22.2314 	 -63.9494
| 17> H 	 -99.9485 	 -22.7311 	 -63.2662
| 18> H 	 -98.8716 	 -21.3102 	 -63.3949
| 19> C 	 -99.8761 	 -21.6986 	 -65.1738
| 20> H 	 -100.915 	 -21.3977 	 -65.0994
| 21> H 	 -99.3615 	 -20.8625 	 -65.6559
| 22> H 	 -99.8794 	 -22.5011 	 -65.8944
| 23> S 	 -96.3547 	 -29.2158 	 -63.482
| 24> C 	 -94.7617 	 -29.7745 	 -63.7442
| 25> C 	 -94.1163 	 -29.0467 	 -64.6581
| 26> C 	 -94.8352 	 -27.8897 	 -65.1234
| 27> C 	 -96.0469 	 -27.7561 	 -64.4703
| 28> H 	 -93.1965 	 -29.5112 	 -64.989
| 29> C 	 -94.3744 	 -26.8487 	 -66.1744
| 30> H 	 -95.152 	 -26.0938 	 -66.2082
| 31> H 	 -94.4687 	 -27.2965 	 -67.1606
| 32> C 	 -93.0127 	 -26.2933 	 -65.9904
| 33> H 	 -92.2662 	 -27.0564 	 -66.0496
| 34> H 	 -93.0073 	 -25.9138 	 -64.9429
| 35> C 	 -92.5886 	 -25.3845 	 -67.1705
| 36> H 	 -92.7689 	 -25.969 	 -68.0873
| 37> H 	 -91.5274 	 -25.1834 	 -67.1681
| 38> H 	 -93.1396 	 -24.441 	 -67.1734
| 39> H 	 -100.067 	 -24.7477 	 -64.7552
| 40> H 	 -94.3187 	 -30.6654 	 -63.3888
| 41> *
| 42>
| 43>                          ****END OF INPUT****

CARTESIAN COORDINATES (ANGSTROEM)
---------------------------------
  S    -98.710000  -26.926700  -64.954700
  C    -99.129300  -25.284100  -64.580500
  C    -98.002900  -24.541400  -64.334100
  C    -96.860900  -25.359300  -64.187100
  C    -97.041700  -26.708500  -64.432500
  H    -95.872300  -24.925600  -63.920900
  C    -97.910200  -23.094300  -64.062100
  H    -97.200200  -22.743300  -64.811300
  H    -97.436100  -23.076500  -63.097900
  C    -99.214400  -22.231400  -63.949400
  H    -99.948500  -22.731100  -63.266200
  H    -98.871600  -21.310200  -63.394900
  C    -99.876100  -21.698600  -65.173800
  H    -100.915000  -21.397700  -65.099400
  H    -99.361500  -20.862500  -65.655900
  H    -99.879400  -22.501100  -65.894400
  S    -96.354700  -29.215800  -63.482000
  C    -94.761700  -29.774500  -63.744200
  C    -94.116300  -29.046700  -64.658100
  C    -94.835200  -27.889700  -65.123400
  C    -96.046900  -27.756100  -64.470300
  H    -93.196500  -29.511200  -64.989000
  C    -94.374400  -26.848700  -66.174400
  H    -95.152000  -26.093800  -66.208200
  H    -94.468700  -27.296500  -67.160600
  C    -93.012700  -26.293300  -65.990400
  H    -92.266200  -27.056400  -66.049600
  H    -93.007300  -25.913800  -64.942900
  C    -92.588600  -25.384500  -67.170500
  H    -92.768900  -25.969000  -68.087300
  H    -91.527400  -25.183400  -67.168100
  H    -93.139600  -24.441000  -67.173400
  H    -100.067000  -24.747700  -64.755200
  H    -94.318700  -30.665400  -63.388800

 Total Charge           Charge          ....    0
 Multiplicity           Mult            ....    1
 Number of Electrons    NEL             ....  134
 Basis Dimension        Dim             ....  322

ORBITAL ENERGIES
----------------

  NO   OCC          E(Eh)            E(eV)
   0   2.0000     -88.963931     -2420.8316
   1   2.0000     -88.960261     -2420.7318
   2   2.0000     -10.329983      -281.0931
   3   2.0000     -10.327380      -281.0223
   4   2.0000     -10.309370      -280.5322
   5   2.0000     -10.308889      -280.5191
   6   2.0000     -10.307685      -280.4864
   7   2.0000     -10.296937      -280.1939
   8   2.0000     -10.293326      -280.0956
   9   2.0000     -10.293048      -280.0881
  10   2.0000     -10.292713      -280.0790
  11   2.0000     -10.288666      -279.9688
  12   2.0000     -10.286741      -279.9165
  13   2.0000     -10.283605      -279.8311
  14   2.0000     -10.281446      -279.7724
  15   2.0000     -10.276713      -279.6436
  16   2.0000      -8.078596      -219.8298
  17   2.0000      -8.075674      -219.7503
  18   2.0000      -6.037225      -164.2812
  19   2.0000      -6.034174      -164.1982
  20   2.0000      -6.033130      -164.1698
  21   2.0000      -6.030160      -164.0890
  22   2.0000      -6.029207      -164.0631
  23   2.0000      -6.026313      -163.9843
  24   2.0000      -1.009120       -27.4595
  25   2.0000      -0.989782       -26.9333
  26   2.0000      -0.915782       -24.9197
  27   2.0000      -0.913980       -24.8707
  28   2.0000      -0.874507       -23.7965
  29   2.0000      -0.856732       -23.3129
  30   2.0000      -0.845905       -23.0182
  31   2.0000      -0.817356       -22.2414
  32   2.0000      -0.786984       -21.4149
  33   2.0000      -0.776088       -21.1184
  34   2.0000      -0.712075       -19.3765
  35   2.0000      -0.704575       -19.1725
  36   2.0000      -0.699744       -19.0410
  37   2.0000      -0.651883       -17.7386
  38   2.0000      -0.630598       -17.1594
  39   2.0000      -0.614624       -16.7248
  40   2.0000      -0.596464       -16.2306
  41   2.0000      -0.577368       -15.7110
  42   2.0000      -0.571768       -15.5586
  43   2.0000      -0.560059       -15.2400
  44   2.0000      -0.539973       -14.6934
  45   2.0000      -0.529473       -14.4077
  46   2.0000      -0.519808       -14.1447
  47   2.0000      -0.515992       -14.0409
  48   2.0000      -0.508601       -13.8397
  49   2.0000      -0.496627       -13.5139
  50   2.0000      -0.490748       -13.3539
  51   2.0000      -0.483507       -13.1569
  52   2.0000      -0.475653       -12.9432
  53   2.0000      -0.469455       -12.7745
  54   2.0000      -0.460798       -12.5390
  55   2.0000      -0.450269       -12.2525
  56   2.0000      -0.445928       -12.1343
  57   2.0000      -0.437258       -11.8984
  58   2.0000      -0.434207       -11.8154
  59   2.0000      -0.422781       -11.5045
  60   2.0000      -0.417862       -11.3706
  61   2.0000      -0.414091       -11.2680
  62   2.0000      -0.410283       -11.1644
  63   2.0000      -0.345672        -9.4062
  64   2.0000      -0.329663        -8.9706
  65   2.0000      -0.326266        -8.8781
  66   2.0000      -0.296878        -8.0785
  67   0.0000       0.033306         0.9063
  68   0.0000       0.069914         1.9025
  69   0.0000       0.115663         3.1474
  70   0.0000       0.123866         3.3706
  71   0.0000       0.133638         3.6365

MULLIKEN ATOMIC CHARGES
-----------------------
   0 S :    0.111078
   1 C :   -0.111603
   2 C :   -0.117703
   3 C :    0.000663
   4 C :   -0.131690
   5 H :    0.019437
   6 C :    0.064501
   7 H :    0.038205
   8 H :    0.038304
   9 C :   -0.108363
  10 H :    0.042175
  11 H :    0.035423
  12 C :   -0.025395
  13 H :    0.035393
  14 H :    0.031703
  15 H :    0.013636
  16 S :    0.101537
  17 C :   -0.054124
  18 C :   -0.055637
  19 C :    0.000193
  20 C :   -0.189513
  21 H :    0.013793
  22 C :    0.091732
  23 H :    0.016427
  24 H :    0.018566
  25 C :   -0.084917
  26 H :    0.020376
  27 H :    0.035347
  28 C :   -0.037431
  29 H :    0.029100
  30 H :    0.032786
  31 H :    0.038268
  32 H :    0.050895
  33 H :    0.036839
Sum of atomic charges:   -0.0000000

LOEWDIN ATOMIC CHARGES
----------------------
   0 S :    0.404870
   1 C :   -0.212791
   2 C :   -0.072732
   3 C :   -0.065659
   4 C :   -0.193500
   5 H :    0.034370
   6 C :   -0.032447
   7 H :    0.037705
   8 H :    0.039307
   9 C :   -0.052111
  10 H :    0.031421
  11 H :    0.033675
  12 C :   -0.072400
  13 H :    0.029810
  14 H :    0.027953
  15 H :    0.019945
  16 S :    0.398686
  17 C :   -0.182012
  18 C :   -0.081180
  19 C :   -0.041440
  20 C :   -0.190180
  21 H :    0.032803
  22 C :   -0.031602
  23 H :    0.028162
  24 H :    0.029777
  25 C :   -0.046469
  26 H :    0.020278
  27 H :    0.028072
  28 C :   -0.059406
  29 H :    0.029597
  30 H :    0.024400
  31 H :    0.024462
  32 H :    0.032917
  33 H :    0.025722

  Mayer bond orders larger than 0.100000
B(  0-S ,  1-C ) :   1.1264 B(  0-S ,  4-C ) :   1.1523 B(  1-C ,  2-C ) :   1.6207
B(  1-C , 32-H ) :   0.9527 B(  2-C ,  3-C ) :   1.2619 B(  2-C ,  6-C ) :   1.0001
B(  3-C ,  4-C ) :   1.5597 B(  3-C ,  5-H ) :   0.9945 B(  4-C , 20-C ) :   1.0431
B(  6-C ,  7-H ) :   0.9336 B(  6-C ,  8-H ) :   0.9413 B(  6-C ,  9-C ) :   1.0781
B(  9-C , 10-H ) :   0.9517 B(  9-C , 11-H ) :   0.9555 B(  9-C , 12-C ) :   1.0778
B( 12-C , 13-H ) :   0.9722 B( 12-C , 14-H ) :   0.9721 B( 12-C , 15-H ) :   0.9754
B( 16-S , 17-C ) :   1.1480 B( 16-S , 20-C ) :   1.1230 B( 17-C , 18-C ) :   1.6603
B( 17-C , 33-H ) :   0.9650 B( 18-C , 19-C ) :   1.1883 B( 18-C , 21-H ) :   0.9935
B( 19-C , 20-C ) :   1.6141 B( 19-C , 22-C ) :   1.0360 B( 22-C , 23-H ) :   0.9314
B( 22-C , 24-H ) :   0.9222 B( 22-C , 25-C ) :   1.0681 B( 25-C , 26-H ) :   0.9499
B( 25-C , 27-H ) :   0.9578 B( 25-C , 28-C ) :   1.0745 B( 28-C , 29-H ) :   0.9703
B( 28-C , 30-H ) :   0.9766 B( 28-C , 31-H ) :   0.9780

Dispersion correction           -0.013845589
FINAL SINGLE POINT ENERGY     -1339.875417167312

DIPOLE MOMENT
-------------
                                X             Y             Z
Electronic contribution:     -8.03168     -25.61040       9.13466
Nuclear contribution   :      8.52014      26.13770      -9.39478
                        -----------------------------------------
Total Dipole Moment    :      0.48847       0.52730      -0.26012
                        -----------------------------------------
Magnitude (a.u.)       :      0.76440
Magnitude (Debye)      :      1.94296

Rotational constants in cm-1:     0.019119     0.008041     0.006122
Rotational constants in MHz :   573.165226   241.064201   183.526637

                             ****ORCA TERMINATED NORMALLY****
TOTAL RUN TIME: 0 days 0 hours 0 minutes 21 seconds 260 msec
