                         Program Version 4.2.1 -  RELEASE  -
|  1> ! wB97X-D3 SP def2-SVP
|  2> %pal
|  3> nprocs 24
|  4> end
|  5>
|  6> * xyz 0 1
|  7> S 	 -107.04 	 15.2833 	 -121.296
|  8> C 	 -107.059 	 13.5675 	 -121.036
|  9> C 	 -106.411 	 12.8548 	 -122.055
| 10> C 	 -105.841 	 13.7494 	 -123.042
| 11> C 	 -106.317 	 15.0401 	 -122.895
| 12> H 	 -105.37 	 13.4286 	 -123.948
| 13> C 	 -106.01 	 11.3914 	 -121.926
| 14> H 	 -105.397 	 11.1782 	 -122.782
| 15> H 	 -106.863 	 10.7257 	 -122.002
| 16> C 	 -105.299 	 11.0313 	 -120.596
| 17> H 	 -105.937 	 11.4302 	 -119.841
| 18> H 	 -105.202 	 9.95403 	 -120.422
| 19> C 	 -103.902 	 11.7297 	 -120.375
| 20> H 	 -103.24 	 11.2895 	 -119.495
| 21> H 	 -103.222 	 11.5769 	 -121.277
| 22> H 	 -103.987 	 12.8179 	 -120.195
| 23> S 	 -104.899 	 17.2396 	 -123.646
| 24> C 	 -105.491 	 18.1652 	 -125.024
| 25> C 	 -106.571 	 17.5441 	 -125.62
| 26> C 	 -106.996 	 16.3797 	 -124.978
| 27> C 	 -106.164 	 16.0872 	 -123.875
| 28> H 	 -106.857 	 17.9963 	 -126.567
| 29> C 	 -108.245 	 15.6413 	 -125.449
| 30> H 	 -109.072 	 16.1907 	 -125.97
| 31> H 	 -108.804 	 15.4375 	 -124.53
| 32> C 	 -107.922 	 14.237 	 -125.951
| 33> H 	 -107.226 	 13.7611 	 -125.294
| 34> H 	 -107.373 	 14.2894 	 -126.874
| 35> C 	 -109.1 	 13.2778 	 -126.099
| 36> H 	 -109.746 	 13.566 	 -127.023
| 37> H 	 -109.672 	 13.1605 	 -125.215
| 38> H 	 -108.696 	 12.3021 	 -126.352
| 39> H 	 -107.361 	 12.9965 	 -120.102
| 40> H 	 -104.98 	 19.0286 	 -125.51
| 41> *
| 42>
| 43>                          ****END OF INPUT****

CARTESIAN COORDINATES (ANGSTROEM)
---------------------------------
  S    -107.040000   15.283300  -121.296000
  C    -107.059000   13.567500  -121.036000
  C    -106.411000   12.854800  -122.055000
  C    -105.841000   13.749400  -123.042000
  C    -106.317000   15.040100  -122.895000
  H    -105.370000   13.428600  -123.948000
  C    -106.010000   11.391400  -121.926000
  H    -105.397000   11.178200  -122.782000
  H    -106.863000   10.725700  -122.002000
  C    -105.299000   11.031300  -120.596000
  H    -105.937000   11.430200  -119.841000
  H    -105.202000    9.954030  -120.422000
  C    -103.902000   11.729700  -120.375000
  H    -103.240000   11.289500  -119.495000
  H    -103.222000   11.576900  -121.277000
  H    -103.987000   12.817900  -120.195000
  S    -104.899000   17.239600  -123.646000
  C    -105.491000   18.165200  -125.024000
  C    -106.571000   17.544100  -125.620000
  C    -106.996000   16.379700  -124.978000
  C    -106.164000   16.087200  -123.875000
  H    -106.857000   17.996300  -126.567000
  C    -108.245000   15.641300  -125.449000
  H    -109.072000   16.190700  -125.970000
  H    -108.804000   15.437500  -124.530000
  C    -107.922000   14.237000  -125.951000
  H    -107.226000   13.761100  -125.294000
  H    -107.373000   14.289400  -126.874000
  C    -109.100000   13.277800  -126.099000
  H    -109.746000   13.566000  -127.023000
  H    -109.672000   13.160500  -125.215000
  H    -108.696000   12.302100  -126.352000
  H    -107.361000   12.996500  -120.102000
  H    -104.980000   19.028600  -125.510000

 Total Charge           Charge          ....    0
 Multiplicity           Mult            ....    1
 Number of Electrons    NEL             ....  134
 Basis Dimension        Dim             ....  322

ORBITAL ENERGIES
----------------

  NO   OCC          E(Eh)            E(eV)
   0   2.0000     -88.971948     -2421.0498
   1   2.0000     -88.969226     -2420.9757
   2   2.0000     -10.328605      -281.0556
   3   2.0000     -10.324317      -280.9389
   4   2.0000     -10.319748      -280.8146
   5   2.0000     -10.316964      -280.7389
   6   2.0000     -10.306388      -280.4511
   7   2.0000     -10.303713      -280.3783
   8   2.0000     -10.296799      -280.1901
   9   2.0000     -10.293076      -280.0888
  10   2.0000     -10.292210      -280.0653
  11   2.0000     -10.292165      -280.0640
  12   2.0000     -10.291529      -280.0467
  13   2.0000     -10.288770      -279.9717
  14   2.0000     -10.277654      -279.6692
  15   2.0000     -10.276208      -279.6298
  16   2.0000      -8.086106      -220.0341
  17   2.0000      -8.083906      -219.9743
  18   2.0000      -6.044605      -164.4821
  19   2.0000      -6.042264      -164.4184
  20   2.0000      -6.040739      -164.3769
  21   2.0000      -6.038349      -164.3118
  22   2.0000      -6.036861      -164.2713
  23   2.0000      -6.034905      -164.2181
  24   2.0000      -1.007497       -27.4154
  25   2.0000      -0.983513       -26.7627
  26   2.0000      -0.907848       -24.7038
  27   2.0000      -0.907397       -24.6915
  28   2.0000      -0.867896       -23.6167
  29   2.0000      -0.850447       -23.1418
  30   2.0000      -0.844050       -22.9678
  31   2.0000      -0.810108       -22.0442
  32   2.0000      -0.780326       -21.2338
  33   2.0000      -0.766888       -20.8681
  34   2.0000      -0.707268       -19.2457
  35   2.0000      -0.700058       -19.0496
  36   2.0000      -0.691704       -18.8222
  37   2.0000      -0.655677       -17.8419
  38   2.0000      -0.638113       -17.3639
  39   2.0000      -0.613482       -16.6937
  40   2.0000      -0.595999       -16.2180
  41   2.0000      -0.575005       -15.6467
  42   2.0000      -0.558587       -15.1999
  43   2.0000      -0.542519       -14.7627
  44   2.0000      -0.538422       -14.6512
  45   2.0000      -0.520004       -14.1500
  46   2.0000      -0.510062       -13.8795
  47   2.0000      -0.505380       -13.7521
  48   2.0000      -0.503240       -13.6938
  49   2.0000      -0.497376       -13.5343
  50   2.0000      -0.490715       -13.3530
  51   2.0000      -0.474403       -12.9092
  52   2.0000      -0.468848       -12.7580
  53   2.0000      -0.463383       -12.6093
  54   2.0000      -0.460518       -12.5313
  55   2.0000      -0.445961       -12.1352
  56   2.0000      -0.439344       -11.9552
  57   2.0000      -0.432790       -11.7768
  58   2.0000      -0.430945       -11.7266
  59   2.0000      -0.427359       -11.6290
  60   2.0000      -0.424554       -11.5527
  61   2.0000      -0.418165       -11.3789
  62   2.0000      -0.409287       -11.1373
  63   2.0000      -0.339554        -9.2397
  64   2.0000      -0.334258        -9.0956
  65   2.0000      -0.317586        -8.6420
  66   2.0000      -0.304771        -8.2932
  67   0.0000       0.037633         1.0240
  68   0.0000       0.047927         1.3041
  69   0.0000       0.111520         3.0346
  70   0.0000       0.120925         3.2905
  71   0.0000       0.128090         3.4855

MULLIKEN ATOMIC CHARGES
-----------------------
   0 S :    0.138121
   1 C :   -0.142947
   2 C :   -0.130903
   3 C :    0.078036
   4 C :   -0.193062
   5 H :    0.026527
   6 C :    0.093686
   7 H :    0.011685
   8 H :    0.033848
   9 C :   -0.055185
  10 H :    0.012941
  11 H :    0.038660
  12 C :   -0.128800
  13 H :    0.049308
  14 H :    0.037564
  15 H :    0.054745
  16 S :    0.130033
  17 C :   -0.119480
  18 C :   -0.055238
  19 C :    0.030358
  20 C :   -0.213844
  21 H :    0.020080
  22 C :    0.079763
  23 H :    0.037464
  24 H :    0.015717
  25 C :   -0.065089
  26 H :    0.007171
  27 H :    0.015160
  28 C :   -0.046156
  29 H :    0.039106
  30 H :    0.033140
  31 H :    0.024856
  32 H :    0.075002
  33 H :    0.067730
Sum of atomic charges:   -0.0000000

LOEWDIN ATOMIC CHARGES
----------------------
   0 S :    0.412430
   1 C :   -0.215481
   2 C :   -0.068469
   3 C :   -0.050073
   4 C :   -0.195236
   5 H :    0.028605
   6 C :   -0.029753
   7 H :    0.024066
   8 H :    0.033976
   9 C :   -0.037762
  10 H :    0.015840
  11 H :    0.026909
  12 C :   -0.086254
  13 H :    0.037330
  14 H :    0.026574
  15 H :    0.028130
  16 S :    0.422950
  17 C :   -0.194624
  18 C :   -0.075268
  19 C :   -0.044396
  20 C :   -0.218440
  21 H :    0.035137
  22 C :   -0.040527
  23 H :    0.038459
  24 H :    0.034905
  25 C :   -0.041910
  26 H :    0.020584
  27 H :    0.018983
  28 C :   -0.063998
  29 H :    0.033086
  30 H :    0.018869
  31 H :    0.025942
  32 H :    0.041968
  33 H :    0.037451

  Mayer bond orders larger than 0.100000
B(  0-S ,  1-C ) :   1.1463 B(  0-S ,  4-C ) :   1.1426 B(  1-C ,  2-C ) :   1.6093
B(  1-C , 32-H ) :   0.9547 B(  2-C ,  3-C ) :   1.2500 B(  2-C ,  6-C ) :   1.0248
B(  3-C ,  4-C ) :   1.5846 B(  3-C ,  5-H ) :   0.9728 B(  4-C , 20-C ) :   1.0355
B(  6-C ,  7-H ) :   0.9460 B(  6-C ,  8-H ) :   0.9318 B(  6-C ,  9-C ) :   1.0705
B(  9-C , 10-H ) :   0.9563 B(  9-C , 11-H ) :   0.9576 B(  9-C , 12-C ) :   1.0575
B( 12-C , 13-H ) :   0.9764 B( 12-C , 14-H ) :   0.9778 B( 12-C , 15-H ) :   0.9760
B( 16-S , 17-C ) :   1.1547 B( 16-S , 20-C ) :   1.1749 B( 17-C , 18-C ) :   1.6074
B( 17-C , 20-C ) :   0.1107 B( 17-C , 33-H ) :   0.9595 B( 18-C , 19-C ) :   1.2619
B( 18-C , 21-H ) :   0.9910 B( 19-C , 20-C ) :   1.5536 B( 19-C , 22-C ) :   1.0302
B( 22-C , 23-H ) :   0.9490 B( 22-C , 24-H ) :   0.9181 B( 22-C , 25-C ) :   1.0527
B( 25-C , 26-H ) :   0.9504 B( 25-C , 27-H ) :   0.9492 B( 25-C , 28-C ) :   1.0934
B( 28-C , 29-H ) :   0.9738 B( 28-C , 30-H ) :   0.9745 B( 28-C , 31-H ) :   0.9717

Dispersion correction           -0.015306141
FINAL SINGLE POINT ENERGY     -1339.865878325149

DIPOLE MOMENT
-------------
                                X             Y             Z
Electronic contribution:      3.74325      22.70703       4.64250
Nuclear contribution   :     -3.79719     -23.12875      -4.90478
                        -----------------------------------------
Total Dipole Moment    :     -0.05393      -0.42172      -0.26228
                        -----------------------------------------
Magnitude (a.u.)       :      0.49955
Magnitude (Debye)      :      1.26975

Rotational constants in cm-1:     0.019256     0.009142     0.007281
Rotational constants in MHz :   577.286576   274.081517   218.285357

                             ****ORCA TERMINATED NORMALLY****
TOTAL RUN TIME: 0 days 0 hours 0 minutes 20 seconds 899 msec
