                         Program Version 4.2.1 -  RELEASE  -
|  1> ! wB97X-D3 SP def2-SVP
|  2> %pal
|  3> nprocs 24
|  4> end
|  5>
|  6> * xyz 0 1
|  7> S 	 -113.661 	 38.0678 	 -116.919
|  8> C 	 -112.389 	 37.964 	 -118.197
|  9> C 	 -111.379 	 37.1312 	 -117.645
| 10> C 	 -111.637 	 36.6661 	 -116.305
| 11> C 	 -112.829 	 37.1196 	 -115.767
| 12> H 	 -110.961 	 36.1135 	 -115.649
| 13> C 	 -110.107 	 36.6966 	 -118.281
| 14> H 	 -109.293 	 36.4758 	 -117.61
| 15> H 	 -109.627 	 37.5193 	 -118.823
| 16> C 	 -110.32 	 35.6898 	 -119.414
| 17> H 	 -110.781 	 34.7285 	 -119.079
| 18> H 	 -110.99 	 36.261 	 -120.092
| 19> C 	 -108.947 	 35.4022 	 -120.068
| 20> H 	 -108.419 	 36.2606 	 -120.507
| 21> H 	 -108.228 	 34.8773 	 -119.434
| 22> H 	 -109.086 	 34.7106 	 -120.86
| 23> S 	 -112.885 	 38.3391 	 -113.221
| 24> C 	 -113.19 	 37.4025 	 -111.818
| 25> C 	 -113.667 	 36.1491 	 -112.162
| 26> C 	 -113.685 	 35.9261 	 -113.571
| 27> C 	 -113.101 	 37.0087 	 -114.31
| 28> H 	 -114.017 	 35.3873 	 -111.483
| 29> C 	 -114.276 	 34.6781 	 -114.18
| 30> H 	 -114.657 	 33.984 	 -113.377
| 31> H 	 -113.349 	 34.2692 	 -114.633
| 32> C 	 -115.375 	 34.9384 	 -115.182
| 33> H 	 -114.966 	 35.6102 	 -115.956
| 34> H 	 -116.249 	 35.4286 	 -114.772
| 35> C 	 -115.794 	 33.708 	 -115.981
| 36> H 	 -116.586 	 33.7866 	 -116.694
| 37> H 	 -116.379 	 32.9652 	 -115.366
| 38> H 	 -114.945 	 33.1115 	 -116.385
| 39> H 	 -112.386 	 38.4337 	 -119.176
| 40> H 	 -113.004 	 37.7285 	 -110.81
| 41> *
| 42>
| 43>                          ****END OF INPUT****

CARTESIAN COORDINATES (ANGSTROEM)
---------------------------------
  S    -113.661000   38.067800  -116.919000
  C    -112.389000   37.964000  -118.197000
  C    -111.379000   37.131200  -117.645000
  C    -111.637000   36.666100  -116.305000
  C    -112.829000   37.119600  -115.767000
  H    -110.961000   36.113500  -115.649000
  C    -110.107000   36.696600  -118.281000
  H    -109.293000   36.475800  -117.610000
  H    -109.627000   37.519300  -118.823000
  C    -110.320000   35.689800  -119.414000
  H    -110.781000   34.728500  -119.079000
  H    -110.990000   36.261000  -120.092000
  C    -108.947000   35.402200  -120.068000
  H    -108.419000   36.260600  -120.507000
  H    -108.228000   34.877300  -119.434000
  H    -109.086000   34.710600  -120.860000
  S    -112.885000   38.339100  -113.221000
  C    -113.190000   37.402500  -111.818000
  C    -113.667000   36.149100  -112.162000
  C    -113.685000   35.926100  -113.571000
  C    -113.101000   37.008700  -114.310000
  H    -114.017000   35.387300  -111.483000
  C    -114.276000   34.678100  -114.180000
  H    -114.657000   33.984000  -113.377000
  H    -113.349000   34.269200  -114.633000
  C    -115.375000   34.938400  -115.182000
  H    -114.966000   35.610200  -115.956000
  H    -116.249000   35.428600  -114.772000
  C    -115.794000   33.708000  -115.981000
  H    -116.586000   33.786600  -116.694000
  H    -116.379000   32.965200  -115.366000
  H    -114.945000   33.111500  -116.385000
  H    -112.386000   38.433700  -119.176000
  H    -113.004000   37.728500  -110.810000

 Total Charge           Charge          ....    0
 Multiplicity           Mult            ....    1
 Number of Electrons    NEL             ....  134
 Basis Dimension        Dim             ....  322

ORBITAL ENERGIES
----------------

  NO   OCC          E(Eh)            E(eV)
   0   2.0000     -88.969330     -2420.9785
   1   2.0000     -88.967573     -2420.9307
   2   2.0000     -10.330319      -281.1023
   3   2.0000     -10.329114      -281.0695
   4   2.0000     -10.326579      -281.0005
   5   2.0000     -10.315987      -280.7123
   6   2.0000     -10.307880      -280.4917
   7   2.0000     -10.304615      -280.4028
   8   2.0000     -10.294308      -280.1224
   9   2.0000     -10.293976      -280.1133
  10   2.0000     -10.293642      -280.1042
  11   2.0000     -10.291834      -280.0550
  12   2.0000     -10.285208      -279.8747
  13   2.0000     -10.280723      -279.7527
  14   2.0000     -10.277069      -279.6533
  15   2.0000     -10.274840      -279.5926
  16   2.0000      -8.083123      -219.9529
  17   2.0000      -8.082788      -219.9439
  18   2.0000      -6.041798      -164.4057
  19   2.0000      -6.041204      -164.3895
  20   2.0000      -6.037395      -164.2859
  21   2.0000      -6.037085      -164.2774
  22   2.0000      -6.034091      -164.1960
  23   2.0000      -6.033764      -164.1871
  24   2.0000      -1.005774       -27.3685
  25   2.0000      -0.984618       -26.7928
  26   2.0000      -0.915693       -24.9173
  27   2.0000      -0.909279       -24.7427
  28   2.0000      -0.864769       -23.5316
  29   2.0000      -0.848900       -23.0997
  30   2.0000      -0.845440       -23.0056
  31   2.0000      -0.812661       -22.1136
  32   2.0000      -0.780069       -21.2268
  33   2.0000      -0.769329       -20.9345
  34   2.0000      -0.707223       -19.2445
  35   2.0000      -0.702082       -19.1046
  36   2.0000      -0.688212       -18.7272
  37   2.0000      -0.659272       -17.9397
  38   2.0000      -0.645029       -17.5521
  39   2.0000      -0.615373       -16.7451
  40   2.0000      -0.593900       -16.1608
  41   2.0000      -0.574253       -15.6262
  42   2.0000      -0.565121       -15.3777
  43   2.0000      -0.562129       -15.2963
  44   2.0000      -0.525207       -14.2916
  45   2.0000      -0.522633       -14.2216
  46   2.0000      -0.518476       -14.1084
  47   2.0000      -0.512734       -13.9522
  48   2.0000      -0.508223       -13.8295
  49   2.0000      -0.498360       -13.5611
  50   2.0000      -0.492200       -13.3934
  51   2.0000      -0.478420       -13.0185
  52   2.0000      -0.466836       -12.7032
  53   2.0000      -0.464843       -12.6490
  54   2.0000      -0.457305       -12.4439
  55   2.0000      -0.447457       -12.1759
  56   2.0000      -0.446297       -12.1444
  57   2.0000      -0.437669       -11.9096
  58   2.0000      -0.431821       -11.7504
  59   2.0000      -0.421042       -11.4571
  60   2.0000      -0.415928       -11.3180
  61   2.0000      -0.415470       -11.3055
  62   2.0000      -0.400067       -10.8864
  63   2.0000      -0.336543        -9.1578
  64   2.0000      -0.326465        -8.8836
  65   2.0000      -0.322273        -8.7695
  66   2.0000      -0.303200        -8.2505
  67   0.0000       0.037423         1.0183
  68   0.0000       0.049872         1.3571
  69   0.0000       0.118896         3.2353
  70   0.0000       0.123679         3.3655
  71   0.0000       0.125648         3.4191

MULLIKEN ATOMIC CHARGES
-----------------------
   0 S :    0.112217
   1 C :   -0.128712
   2 C :   -0.060042
   3 C :    0.031188
   4 C :   -0.166773
   5 H :    0.022830
   6 C :    0.049066
   7 H :    0.017267
   8 H :    0.010523
   9 C :   -0.081327
  10 H :    0.042805
  11 H :    0.032375
  12 C :   -0.040871
  13 H :    0.032176
  14 H :    0.029330
  15 H :    0.020102
  16 S :    0.134935
  17 C :   -0.090616
  18 C :   -0.022517
  19 C :   -0.066579
  20 C :   -0.174887
  21 H :    0.013775
  22 C :    0.076660
  23 H :    0.026240
  24 H :    0.038676
  25 C :   -0.054749
  26 H :    0.038056
  27 H :    0.031577
  28 C :   -0.059512
  29 H :    0.023674
  30 H :    0.008429
  31 H :    0.036502
  32 H :    0.060501
  33 H :    0.057683
Sum of atomic charges:   -0.0000000

LOEWDIN ATOMIC CHARGES
----------------------
   0 S :    0.414133
   1 C :   -0.192301
   2 C :   -0.055130
   3 C :   -0.063107
   4 C :   -0.216077
   5 H :    0.035196
   6 C :   -0.045339
   7 H :    0.025937
   8 H :    0.031501
   9 C :   -0.031831
  10 H :    0.028488
  11 H :    0.027502
  12 C :   -0.070615
  13 H :    0.026570
  14 H :    0.026632
  15 H :    0.020864
  16 S :    0.442619
  17 C :   -0.195715
  18 C :   -0.077947
  19 C :   -0.049197
  20 C :   -0.220209
  21 H :    0.030263
  22 C :   -0.036323
  23 H :    0.032999
  24 H :    0.042016
  25 C :   -0.044669
  26 H :    0.025022
  27 H :    0.026941
  28 C :   -0.078536
  29 H :    0.023164
  30 H :    0.023724
  31 H :    0.028947
  32 H :    0.034732
  33 H :    0.029745

  Mayer bond orders larger than 0.100000
B(  0-S ,  1-C ) :   1.1279 B(  0-S ,  4-C ) :   1.1650 B(  1-C ,  2-C ) :   1.5646
B(  1-C ,  4-C ) :   0.1000 B(  1-C , 32-H ) :   0.9759 B(  2-C ,  3-C ) :   1.2567
B(  2-C ,  6-C ) :   1.0347 B(  3-C ,  4-C ) :   1.5618 B(  3-C ,  5-H ) :   0.9897
B(  4-C , 20-C ) :   1.0114 B(  6-C ,  7-H ) :   0.9497 B(  6-C ,  8-H ) :   0.9367
B(  6-C ,  9-C ) :   1.0463 B(  9-C , 10-H ) :   0.9573 B(  9-C , 11-H ) :   0.9578
B(  9-C , 12-C ) :   1.0808 B( 12-C , 13-H ) :   0.9731 B( 12-C , 14-H ) :   0.9736
B( 12-C , 15-H ) :   0.9723 B( 16-S , 17-C ) :   1.1930 B( 16-S , 20-C ) :   1.1628
B( 17-C , 18-C ) :   1.5354 B( 17-C , 20-C ) :   0.1069 B( 17-C , 33-H ) :   0.9708
B( 18-C , 19-C ) :   1.3172 B( 18-C , 21-H ) :   0.9908 B( 19-C , 20-C ) :   1.5250
B( 19-C , 22-C ) :   1.0267 B( 22-C , 23-H ) :   0.9391 B( 22-C , 24-H ) :   0.9218
B( 22-C , 25-C ) :   1.0691 B( 25-C , 26-H ) :   0.9482 B( 25-C , 27-H ) :   0.9538
B( 25-C , 28-C ) :   1.0851 B( 28-C , 29-H ) :   0.9719 B( 28-C , 30-H ) :   0.9678
B( 28-C , 31-H ) :   0.9743

Dispersion correction           -0.014215808
FINAL SINGLE POINT ENERGY     -1339.867243877337

DIPOLE MOMENT
-------------
                                X             Y             Z
Electronic contribution:     -5.36829      20.23518      15.90531
Nuclear contribution   :      5.68220     -20.63256     -16.02436
                        -----------------------------------------
Total Dipole Moment    :      0.31392      -0.39738      -0.11904
                        -----------------------------------------
Magnitude (a.u.)       :      0.52022
Magnitude (Debye)      :      1.32228

Rotational constants in cm-1:     0.019168     0.007947     0.006899
Rotational constants in MHz :   574.642282   238.239834   206.823783

                             ****ORCA TERMINATED NORMALLY****
TOTAL RUN TIME: 0 days 0 hours 0 minutes 20 seconds 307 msec
