                         Program Version 4.2.1 -  RELEASE  -
|  1> ! wB97X-D3 SP def2-SVP
|  2> %pal
|  3> nprocs 24
|  4> end
|  5>
|  6> * xyz 0 1
|  7> S 	 -52.3661 	 3.51801 	 -24.3182
|  8> C 	 -51.9704 	 4.54878 	 -22.9958
|  9> C 	 -52.9407 	 4.46617 	 -22.0017
| 10> C 	 -53.9628 	 3.55499 	 -22.3439
| 11> C 	 -53.7281 	 2.78197 	 -23.4613
| 12> H 	 -54.863 	 3.41708 	 -21.7191
| 13> C 	 -53.0072 	 5.38423 	 -20.8012
| 14> H 	 -52.0934 	 5.22199 	 -20.2337
| 15> H 	 -53.7461 	 4.88265 	 -20.193
| 16> C 	 -53.4186 	 6.85141 	 -21.0244
| 17> H 	 -53.1872 	 7.10641 	 -22.0272
| 18> H 	 -54.5153 	 6.9534 	 -20.8094
| 19> C 	 -52.7218 	 7.88841 	 -20.1326
| 20> H 	 -51.6742 	 7.58732 	 -20.0196
| 21> H 	 -52.5828 	 8.78795 	 -20.6288
| 22> H 	 -53.2038 	 8.00005 	 -19.1683
| 23> S 	 -56.1103 	 2.63615 	 -24.7094
| 24> C 	 -56.7976 	 1.0223 	 -24.9513
| 25> C 	 -55.8673 	 0.0716101 	 -24.8297
| 26> C 	 -54.5702 	 0.508368 	 -24.4387
| 27> C 	 -54.663 	 1.86216 	 -24.0859
| 28> H 	 -56.0955 	 -0.951789 	 -24.9889
| 29> C 	 -53.45 	 -0.422461 	 -24.2048
| 30> H 	 -53.8387 	 -1.38425 	 -23.8577
| 31> H 	 -52.8255 	 0.0371884 	 -23.4116
| 32> C 	 -52.5495 	 -0.60798 	 -25.4497
| 33> H 	 -51.5332 	 -0.921569 	 -25.1816
| 34> H 	 -52.4142 	 0.306253 	 -26.0319
| 35> C 	 -53.2586 	 -1.57675 	 -26.4782
| 36> H 	 -54.3043 	 -1.75755 	 -26.1993
| 37> H 	 -52.8428 	 -2.62364 	 -26.5158
| 38> H 	 -53.3289 	 -1.11288 	 -27.4804
| 39> H 	 -51.2333 	 5.37531 	 -23.0037
| 40> H 	 -57.7715 	 0.904001 	 -25.3219
| 41> *
| 42>
| 43>                          ****END OF INPUT****

CARTESIAN COORDINATES (ANGSTROEM)
---------------------------------
  S    -52.366100    3.518010  -24.318200
  C    -51.970400    4.548780  -22.995800
  C    -52.940700    4.466170  -22.001700
  C    -53.962800    3.554990  -22.343900
  C    -53.728100    2.781970  -23.461300
  H    -54.863000    3.417080  -21.719100
  C    -53.007200    5.384230  -20.801200
  H    -52.093400    5.221990  -20.233700
  H    -53.746100    4.882650  -20.193000
  C    -53.418600    6.851410  -21.024400
  H    -53.187200    7.106410  -22.027200
  H    -54.515300    6.953400  -20.809400
  C    -52.721800    7.888410  -20.132600
  H    -51.674200    7.587320  -20.019600
  H    -52.582800    8.787950  -20.628800
  H    -53.203800    8.000050  -19.168300
  S    -56.110300    2.636150  -24.709400
  C    -56.797600    1.022300  -24.951300
  C    -55.867300    0.071610  -24.829700
  C    -54.570200    0.508368  -24.438700
  C    -54.663000    1.862160  -24.085900
  H    -56.095500   -0.951789  -24.988900
  C    -53.450000   -0.422461  -24.204800
  H    -53.838700   -1.384250  -23.857700
  H    -52.825500    0.037188  -23.411600
  C    -52.549500   -0.607980  -25.449700
  H    -51.533200   -0.921569  -25.181600
  H    -52.414200    0.306253  -26.031900
  C    -53.258600   -1.576750  -26.478200
  H    -54.304300   -1.757550  -26.199300
  H    -52.842800   -2.623640  -26.515800
  H    -53.328900   -1.112880  -27.480400
  H    -51.233300    5.375310  -23.003700
  H    -57.771500    0.904001  -25.321900

 Total Charge           Charge          ....    0
 Multiplicity           Mult            ....    1
 Number of Electrons    NEL             ....  134
 Basis Dimension        Dim             ....  322

ORBITAL ENERGIES
----------------

  NO   OCC          E(Eh)            E(eV)
   0   2.0000     -88.965407     -2420.8718
   1   2.0000     -88.961734     -2420.7719
   2   2.0000     -10.325433      -280.9693
   3   2.0000     -10.325235      -280.9639
   4   2.0000     -10.314347      -280.6676
   5   2.0000     -10.308517      -280.5090
   6   2.0000     -10.301310      -280.3129
   7   2.0000     -10.295645      -280.1587
   8   2.0000     -10.292919      -280.0846
   9   2.0000     -10.292235      -280.0660
  10   2.0000     -10.289443      -279.9900
  11   2.0000     -10.286954      -279.9222
  12   2.0000     -10.286660      -279.9142
  13   2.0000     -10.285614      -279.8858
  14   2.0000     -10.281986      -279.7871
  15   2.0000     -10.271834      -279.5108
  16   2.0000      -8.080048      -219.8693
  17   2.0000      -8.076469      -219.7719
  18   2.0000      -6.038453      -164.3147
  19   2.0000      -6.034886      -164.2176
  20   2.0000      -6.034540      -164.2082
  21   2.0000      -6.031263      -164.1190
  22   2.0000      -6.030937      -164.1101
  23   2.0000      -6.027030      -164.0038
  24   2.0000      -1.007701       -27.4209
  25   2.0000      -0.986481       -26.8435
  26   2.0000      -0.909858       -24.7585
  27   2.0000      -0.907865       -24.7043
  28   2.0000      -0.871558       -23.7163
  29   2.0000      -0.851159       -23.1612
  30   2.0000      -0.841938       -22.9103
  31   2.0000      -0.814869       -22.1737
  32   2.0000      -0.782146       -21.2833
  33   2.0000      -0.768619       -20.9152
  34   2.0000      -0.708478       -19.2787
  35   2.0000      -0.702683       -19.1210
  36   2.0000      -0.693221       -18.8635
  37   2.0000      -0.665482       -18.1087
  38   2.0000      -0.635680       -17.2977
  39   2.0000      -0.614542       -16.7225
  40   2.0000      -0.599162       -16.3040
  41   2.0000      -0.575763       -15.6673
  42   2.0000      -0.554256       -15.0821
  43   2.0000      -0.547232       -14.8909
  44   2.0000      -0.541968       -14.7477
  45   2.0000      -0.524043       -14.2599
  46   2.0000      -0.519219       -14.1287
  47   2.0000      -0.515762       -14.0346
  48   2.0000      -0.500575       -13.6213
  49   2.0000      -0.498264       -13.5584
  50   2.0000      -0.491672       -13.3791
  51   2.0000      -0.478605       -13.0235
  52   2.0000      -0.471330       -12.8255
  53   2.0000      -0.465204       -12.6588
  54   2.0000      -0.458485       -12.4760
  55   2.0000      -0.441090       -12.0027
  56   2.0000      -0.439109       -11.9488
  57   2.0000      -0.436690       -11.8829
  58   2.0000      -0.430370       -11.7110
  59   2.0000      -0.424638       -11.5550
  60   2.0000      -0.422518       -11.4973
  61   2.0000      -0.415846       -11.3157
  62   2.0000      -0.413133       -11.2419
  63   2.0000      -0.337138        -9.1740
  64   2.0000      -0.332285        -9.0419
  65   2.0000      -0.321902        -8.7594
  66   2.0000      -0.299944        -8.1619
  67   0.0000       0.032140         0.8746
  68   0.0000       0.056944         1.5495
  69   0.0000       0.107378         2.9219
  70   0.0000       0.121335         3.3017
  71   0.0000       0.126272         3.4360

MULLIKEN ATOMIC CHARGES
-----------------------
   0 S :    0.113472
   1 C :   -0.121165
   2 C :   -0.131966
   3 C :    0.007595
   4 C :   -0.144591
   5 H :    0.024767
   6 C :    0.080442
   7 H :    0.031614
   8 H :    0.007705
   9 C :   -0.053751
  10 H :    0.022037
  11 H :    0.042753
  12 C :   -0.029285
  13 H :    0.014998
  14 H :    0.015491
  15 H :    0.042619
  16 S :    0.106502
  17 C :   -0.061626
  18 C :   -0.021493
  19 C :    0.010506
  20 C :   -0.199496
  21 H :    0.007079
  22 C :    0.040278
  23 H :    0.034589
  24 H :    0.037460
  25 C :   -0.053420
  26 H :    0.039481
  27 H :    0.032386
  28 C :   -0.091133
  29 H :    0.012815
  30 H :    0.046167
  31 H :    0.044303
  32 H :    0.059125
  33 H :    0.033739
Sum of atomic charges:   -0.0000000

LOEWDIN ATOMIC CHARGES
----------------------
   0 S :    0.414202
   1 C :   -0.208658
   2 C :   -0.073313
   3 C :   -0.060666
   4 C :   -0.208067
   5 H :    0.035831
   6 C :   -0.037761
   7 H :    0.032919
   8 H :    0.028686
   9 C :   -0.036856
  10 H :    0.018502
  11 H :    0.034218
  12 C :   -0.060701
  13 H :    0.024864
  14 H :    0.018523
  15 H :    0.026305
  16 S :    0.393008
  17 C :   -0.166065
  18 C :   -0.066741
  19 C :   -0.048863
  20 C :   -0.192684
  21 H :    0.024117
  22 C :   -0.032976
  23 H :    0.031832
  24 H :    0.038300
  25 C :   -0.036694
  26 H :    0.025884
  27 H :    0.026640
  28 C :   -0.078451
  29 H :    0.019660
  30 H :    0.031420
  31 H :    0.030559
  32 H :    0.035453
  33 H :    0.017574

  Mayer bond orders larger than 0.100000
B(  0-S ,  1-C ) :   1.1665 B(  0-S ,  4-C ) :   1.1513 B(  1-C ,  2-C ) :   1.5672
B(  1-C ,  4-C ) :   0.1003 B(  1-C , 32-H ) :   0.9642 B(  2-C ,  3-C ) :   1.2960
B(  2-C ,  6-C ) :   1.0259 B(  3-C ,  4-C ) :   1.5382 B(  3-C ,  5-H ) :   0.9893
B(  4-C , 20-C ) :   1.0431 B(  6-C ,  7-H ) :   0.9405 B(  6-C ,  8-H ) :   0.9352
B(  6-C ,  9-C ) :   1.0419 B(  9-C , 10-H ) :   0.9674 B(  9-C , 11-H ) :   0.9582
B(  9-C , 12-C ) :   1.0829 B( 12-C , 13-H ) :   0.9742 B( 12-C , 14-H ) :   0.9732
B( 12-C , 15-H ) :   0.9792 B( 16-S , 17-C ) :   1.1262 B( 16-S , 20-C ) :   1.1569
B( 17-C , 18-C ) :   1.6363 B( 17-C , 33-H ) :   0.9754 B( 18-C , 19-C ) :   1.2142
B( 18-C , 21-H ) :   0.9897 B( 19-C , 20-C ) :   1.5832 B( 19-C , 22-C ) :   1.0550
B( 22-C , 23-H ) :   0.9488 B( 22-C , 24-H ) :   0.9275 B( 22-C , 25-C ) :   1.0612
B( 25-C , 26-H ) :   0.9635 B( 25-C , 27-H ) :   0.9640 B( 25-C , 28-C ) :   1.0413
B( 28-C , 29-H ) :   0.9801 B( 28-C , 30-H ) :   0.9758 B( 28-C , 31-H ) :   0.9802

Dispersion correction           -0.014141239
FINAL SINGLE POINT ENERGY     -1339.865548009734

DIPOLE MOMENT
-------------
                                X             Y             Z
Electronic contribution:     -7.22920      -0.60154      -8.15140
Nuclear contribution   :      7.20021       0.60608       8.37747
                        -----------------------------------------
Total Dipole Moment    :     -0.02899       0.00454       0.22608
                        -----------------------------------------
Magnitude (a.u.)       :      0.22797
Magnitude (Debye)      :      0.57946

Rotational constants in cm-1:     0.028101     0.006823     0.005959
Rotational constants in MHz :   842.453204   204.557322   178.652719

                             ****ORCA TERMINATED NORMALLY****
TOTAL RUN TIME: 0 days 0 hours 0 minutes 21 seconds 254 msec
