                         Program Version 4.2.1 -  RELEASE  -
|  1> ! wB97X-D3 SP def2-SVP
|  2> %pal
|  3> nprocs 24
|  4> end
|  5>
|  6> * xyz 0 1
|  7> S 	 -68.204 	 -55.1627 	 -81.3131
|  8> C 	 -69.2619 	 -56.6245 	 -81.3606
|  9> C 	 -68.5078 	 -57.7484 	 -81.4132
| 10> C 	 -67.1375 	 -57.4731 	 -81.5181
| 11> C 	 -66.8157 	 -56.0922 	 -81.539
| 12> H 	 -66.3328 	 -58.1774 	 -81.6614
| 13> C 	 -69.0175 	 -59.1489 	 -81.3439
| 14> H 	 -68.1835 	 -59.7876 	 -81.4884
| 15> H 	 -69.6443 	 -59.3873 	 -82.2099
| 16> C 	 -69.8585 	 -59.5073 	 -80.0648
| 17> H 	 -70.8846 	 -59.1009 	 -80.0188
| 18> H 	 -70.1111 	 -60.6001 	 -80.0601
| 19> C 	 -69.0485 	 -59.2439 	 -78.8067
| 20> H 	 -69.3637 	 -58.2245 	 -78.4453
| 21> H 	 -69.2759 	 -59.9932 	 -78.054
| 22> H 	 -67.973 	 -59.2622 	 -79.0044
| 23> S 	 -65.2458 	 -54.1691 	 -82.6789
| 24> C 	 -63.5688 	 -54.1531 	 -82.2423
| 25> C 	 -63.2558 	 -55.0572 	 -81.2708
| 26> C 	 -64.3441 	 -55.9359 	 -80.9637
| 27> C 	 -65.5065 	 -55.517 	 -81.5923
| 28> H 	 -62.3047 	 -55.1108 	 -80.6922
| 29> C 	 -64.1329 	 -56.9113 	 -79.8471
| 30> H 	 -64.9984 	 -56.9869 	 -79.2646
| 31> H 	 -63.3622 	 -56.374 	 -79.2982
| 32> C 	 -63.6227 	 -58.3325 	 -80.2871
| 33> H 	 -62.6068 	 -58.1835 	 -80.6603
| 34> H 	 -64.3007 	 -58.8614 	 -81.0225
| 35> C 	 -63.6087 	 -59.4255 	 -79.1981
| 36> H 	 -64.5933 	 -59.4926 	 -78.6756
| 37> H 	 -62.819 	 -59.3471 	 -78.3794
| 38> H 	 -63.3869 	 -60.3722 	 -79.6928
| 39> H 	 -70.3468 	 -56.6376 	 -81.1599
| 40> H 	 -62.9191 	 -53.49 	 -82.6744
| 41> *
| 42>
| 43>                          ****END OF INPUT****

CARTESIAN COORDINATES (ANGSTROEM)
---------------------------------
  S    -68.204000  -55.162700  -81.313100
  C    -69.261900  -56.624500  -81.360600
  C    -68.507800  -57.748400  -81.413200
  C    -67.137500  -57.473100  -81.518100
  C    -66.815700  -56.092200  -81.539000
  H    -66.332800  -58.177400  -81.661400
  C    -69.017500  -59.148900  -81.343900
  H    -68.183500  -59.787600  -81.488400
  H    -69.644300  -59.387300  -82.209900
  C    -69.858500  -59.507300  -80.064800
  H    -70.884600  -59.100900  -80.018800
  H    -70.111100  -60.600100  -80.060100
  C    -69.048500  -59.243900  -78.806700
  H    -69.363700  -58.224500  -78.445300
  H    -69.275900  -59.993200  -78.054000
  H    -67.973000  -59.262200  -79.004400
  S    -65.245800  -54.169100  -82.678900
  C    -63.568800  -54.153100  -82.242300
  C    -63.255800  -55.057200  -81.270800
  C    -64.344100  -55.935900  -80.963700
  C    -65.506500  -55.517000  -81.592300
  H    -62.304700  -55.110800  -80.692200
  C    -64.132900  -56.911300  -79.847100
  H    -64.998400  -56.986900  -79.264600
  H    -63.362200  -56.374000  -79.298200
  C    -63.622700  -58.332500  -80.287100
  H    -62.606800  -58.183500  -80.660300
  H    -64.300700  -58.861400  -81.022500
  C    -63.608700  -59.425500  -79.198100
  H    -64.593300  -59.492600  -78.675600
  H    -62.819000  -59.347100  -78.379400
  H    -63.386900  -60.372200  -79.692800
  H    -70.346800  -56.637600  -81.159900
  H    -62.919100  -53.490000  -82.674400

 Total Charge           Charge          ....    0
 Multiplicity           Mult            ....    1
 Number of Electrons    NEL             ....  134
 Basis Dimension        Dim             ....  322

ORBITAL ENERGIES
----------------

  NO   OCC          E(Eh)            E(eV)
   0   2.0000     -88.967115     -2420.9183
   1   2.0000     -88.967043     -2420.9163
   2   2.0000     -10.324478      -280.9433
   3   2.0000     -10.323937      -280.9286
   4   2.0000     -10.312136      -280.6075
   5   2.0000     -10.310544      -280.5642
   6   2.0000     -10.300153      -280.2814
   7   2.0000     -10.297965      -280.2219
   8   2.0000     -10.294845      -280.1370
   9   2.0000     -10.294564      -280.1293
  10   2.0000     -10.292124      -280.0629
  11   2.0000     -10.290375      -280.0154
  12   2.0000     -10.289931      -280.0033
  13   2.0000     -10.289148      -279.9820
  14   2.0000     -10.287530      -279.9379
  15   2.0000     -10.277029      -279.6522
  16   2.0000      -8.082388      -219.9330
  17   2.0000      -8.081988      -219.9221
  18   2.0000      -6.040812      -164.3789
  19   2.0000      -6.040439      -164.3687
  20   2.0000      -6.036915      -164.2728
  21   2.0000      -6.036402      -164.2589
  22   2.0000      -6.033120      -164.1695
  23   2.0000      -6.032859      -164.1625
  24   2.0000      -1.012516       -27.5520
  25   2.0000      -0.988178       -26.8897
  26   2.0000      -0.914777       -24.8923
  27   2.0000      -0.908879       -24.7318
  28   2.0000      -0.870558       -23.6891
  29   2.0000      -0.855971       -23.2922
  30   2.0000      -0.845770       -23.0146
  31   2.0000      -0.809251       -22.0208
  32   2.0000      -0.785518       -21.3750
  33   2.0000      -0.775868       -21.1124
  34   2.0000      -0.708162       -19.2701
  35   2.0000      -0.700383       -19.0584
  36   2.0000      -0.693082       -18.8597
  37   2.0000      -0.669564       -18.2197
  38   2.0000      -0.634858       -17.2754
  39   2.0000      -0.612040       -16.6545
  40   2.0000      -0.599707       -16.3189
  41   2.0000      -0.572171       -15.5696
  42   2.0000      -0.565258       -15.3815
  43   2.0000      -0.553363       -15.0578
  44   2.0000      -0.537813       -14.6346
  45   2.0000      -0.527184       -14.3454
  46   2.0000      -0.516811       -14.0631
  47   2.0000      -0.513133       -13.9631
  48   2.0000      -0.509853       -13.8738
  49   2.0000      -0.496667       -13.5150
  50   2.0000      -0.492431       -13.3997
  51   2.0000      -0.478082       -13.0093
  52   2.0000      -0.473816       -12.8932
  53   2.0000      -0.468680       -12.7534
  54   2.0000      -0.458641       -12.4802
  55   2.0000      -0.449871       -12.2416
  56   2.0000      -0.441067       -12.0020
  57   2.0000      -0.434631       -11.8269
  58   2.0000      -0.431928       -11.7534
  59   2.0000      -0.427644       -11.6368
  60   2.0000      -0.426793       -11.6136
  61   2.0000      -0.417098       -11.3498
  62   2.0000      -0.408776       -11.1234
  63   2.0000      -0.350157        -9.5283
  64   2.0000      -0.334830        -9.1112
  65   2.0000      -0.330246        -8.9864
  66   2.0000      -0.286328        -7.7914
  67   0.0000       0.026868         0.7311
  68   0.0000       0.073145         1.9904
  69   0.0000       0.104965         2.8562
  70   0.0000       0.116687         3.1752
  71   0.0000       0.128211         3.4888

MULLIKEN ATOMIC CHARGES
-----------------------
   0 S :    0.108280
   1 C :   -0.142603
   2 C :   -0.059837
   3 C :    0.016013
   4 C :   -0.142151
   5 H :   -0.014790
   6 C :    0.095588
   7 H :    0.007370
   8 H :    0.035892
   9 C :   -0.112507
  10 H :    0.033780
  11 H :    0.027833
  12 C :   -0.048202
  13 H :    0.044720
  14 H :    0.034590
  15 H :    0.034219
  16 S :    0.115730
  17 C :   -0.053103
  18 C :   -0.039270
  19 C :   -0.039069
  20 C :   -0.164282
  21 H :    0.034594
  22 C :    0.089781
  23 H :    0.014599
  24 H :    0.022139
  25 C :   -0.088366
  26 H :    0.032239
  27 H :    0.048579
  28 C :   -0.080995
  29 H :    0.040500
  30 H :    0.036258
  31 H :    0.036808
  32 H :    0.052694
  33 H :    0.022969
Sum of atomic charges:   -0.0000000

LOEWDIN ATOMIC CHARGES
----------------------
   0 S :    0.418190
   1 C :   -0.191140
   2 C :   -0.066671
   3 C :   -0.073607
   4 C :   -0.209544
   5 H :    0.023624
   6 C :   -0.027848
   7 H :    0.024526
   8 H :    0.036712
   9 C :   -0.048628
  10 H :    0.024302
  11 H :    0.026576
  12 C :   -0.069828
  13 H :    0.034195
  14 H :    0.024783
  15 H :    0.025190
  16 S :    0.413742
  17 C :   -0.171663
  18 C :   -0.072380
  19 C :   -0.051699
  20 C :   -0.202577
  21 H :    0.038627
  22 C :   -0.024670
  23 H :    0.022036
  24 H :    0.034707
  25 C :   -0.040109
  26 H :    0.025319
  27 H :    0.031760
  28 C :   -0.076874
  29 H :    0.027564
  30 H :    0.025899
  31 H :    0.026456
  32 H :    0.033398
  33 H :    0.009631

  Mayer bond orders larger than 0.100000
B(  0-S ,  1-C ) :   1.1196 B(  0-S ,  4-C ) :   1.1896 B(  1-C ,  2-C ) :   1.6015
B(  1-C ,  4-C ) :   0.1015 B(  1-C , 32-H ) :   0.9676 B(  2-C ,  3-C ) :   1.2634
B(  2-C ,  6-C ) :   1.0213 B(  3-C ,  4-C ) :   1.5247 B(  3-C ,  5-H ) :   0.9982
B(  4-C , 20-C ) :   1.0488 B(  6-C ,  7-H ) :   0.9396 B(  6-C ,  8-H ) :   0.9325
B(  6-C ,  9-C ) :   1.0738 B(  9-C , 10-H ) :   0.9590 B(  9-C , 11-H ) :   0.9607
B(  9-C , 12-C ) :   1.0607 B( 12-C , 13-H ) :   0.9735 B( 12-C , 14-H ) :   0.9771
B( 12-C , 15-H ) :   0.9795 B( 16-S , 17-C ) :   1.1556 B( 16-S , 20-C ) :   1.1366
B( 17-C , 18-C ) :   1.6048 B( 17-C , 33-H ) :   0.9792 B( 18-C , 19-C ) :   1.2449
B( 18-C , 21-H ) :   0.9777 B( 19-C , 20-C ) :   1.5944 B( 19-C , 22-C ) :   1.0350
B( 22-C , 23-H ) :   0.9333 B( 22-C , 24-H ) :   0.9395 B( 22-C , 25-C ) :   1.0541
B( 25-C , 26-H ) :   0.9522 B( 25-C , 27-H ) :   0.9576 B( 25-C , 28-C ) :   1.0754
B( 28-C , 29-H ) :   0.9739 B( 28-C , 30-H ) :   0.9746 B( 28-C , 31-H ) :   0.9766

Dispersion correction           -0.014943810
FINAL SINGLE POINT ENERGY     -1339.876672851217

DIPOLE MOMENT
-------------
                                X             Y             Z
Electronic contribution:     -1.22038      27.43545     -15.48403
Nuclear contribution   :      1.43548     -27.99256      15.81402
                        -----------------------------------------
Total Dipole Moment    :      0.21509      -0.55711       0.32999
                        -----------------------------------------
Magnitude (a.u.)       :      0.68229
Magnitude (Debye)      :      1.73425

Rotational constants in cm-1:     0.018012     0.010030     0.006917
Rotational constants in MHz :   539.990924   300.694282   207.374277

                             ****ORCA TERMINATED NORMALLY****
TOTAL RUN TIME: 0 days 0 hours 0 minutes 22 seconds 488 msec
