                         Program Version 4.2.1 -  RELEASE  -
|  1> ! wB97X-D3 SP def2-SVP
|  2> %pal
|  3> nprocs 24
|  4> end
|  5>
|  6> * xyz 0 1
|  7> S 	 -44.1557 	 15.7097 	 -103.702
|  8> C 	 -44.3951 	 14.0088 	 -103.418
|  9> C 	 -45.3511 	 13.7343 	 -102.468
| 10> C 	 -45.8689 	 15.0192 	 -101.952
| 11> C 	 -45.4429 	 16.149 	 -102.634
| 12> H 	 -46.5895 	 15.1606 	 -101.201
| 13> C 	 -45.7712 	 12.3253 	 -101.953
| 14> H 	 -45.5999 	 11.587 	 -102.673
| 15> H 	 -46.823 	 12.2772 	 -101.778
| 16> C 	 -44.8474 	 11.7903 	 -100.817
| 17> H 	 -44.8426 	 12.733 	 -100.158
| 18> H 	 -45.2923 	 11.1161 	 -100.2
| 19> C 	 -43.4118 	 11.3993 	 -101.177
| 20> H 	 -43.5182 	 10.3113 	 -101.395
| 21> H 	 -42.88 	 11.918 	 -101.998
| 22> H 	 -42.8433 	 11.3783 	 -100.244
| 23> S 	 -46.1503 	 17.9302 	 -100.775
| 24> C 	 -47.288 	 19.1908 	 -101.135
| 25> C 	 -47.3791 	 19.3956 	 -102.476
| 26> C 	 -46.7074 	 18.4045 	 -103.243
| 27> C 	 -46.0138 	 17.4713 	 -102.433
| 28> H 	 -47.9497 	 20.2973 	 -102.836
| 29> C 	 -46.8935 	 18.4569 	 -104.769
| 30> H 	 -46.0169 	 17.9329 	 -105.25
| 31> H 	 -47.0706 	 19.4735 	 -105.192
| 32> C 	 -48.1224 	 17.6427 	 -105.096
| 33> H 	 -48.9915 	 18.0255 	 -104.621
| 34> H 	 -47.9099 	 16.6494 	 -104.753
| 35> C 	 -48.5084 	 17.6119 	 -106.541
| 36> H 	 -47.7209 	 17.6234 	 -107.256
| 37> H 	 -49.007 	 18.5227 	 -106.842
| 38> H 	 -49.1598 	 16.8209 	 -106.695
| 39> H 	 -43.8296 	 13.2722 	 -103.903
| 40> H 	 -47.6081 	 19.8328 	 -100.38
| 41> *
| 42>
| 43>                          ****END OF INPUT****

CARTESIAN COORDINATES (ANGSTROEM)
---------------------------------
  S    -44.155700   15.709700  -103.702000
  C    -44.395100   14.008800  -103.418000
  C    -45.351100   13.734300  -102.468000
  C    -45.868900   15.019200  -101.952000
  C    -45.442900   16.149000  -102.634000
  H    -46.589500   15.160600  -101.201000
  C    -45.771200   12.325300  -101.953000
  H    -45.599900   11.587000  -102.673000
  H    -46.823000   12.277200  -101.778000
  C    -44.847400   11.790300  -100.817000
  H    -44.842600   12.733000  -100.158000
  H    -45.292300   11.116100  -100.200000
  C    -43.411800   11.399300  -101.177000
  H    -43.518200   10.311300  -101.395000
  H    -42.880000   11.918000  -101.998000
  H    -42.843300   11.378300  -100.244000
  S    -46.150300   17.930200  -100.775000
  C    -47.288000   19.190800  -101.135000
  C    -47.379100   19.395600  -102.476000
  C    -46.707400   18.404500  -103.243000
  C    -46.013800   17.471300  -102.433000
  H    -47.949700   20.297300  -102.836000
  C    -46.893500   18.456900  -104.769000
  H    -46.016900   17.932900  -105.250000
  H    -47.070600   19.473500  -105.192000
  C    -48.122400   17.642700  -105.096000
  H    -48.991500   18.025500  -104.621000
  H    -47.909900   16.649400  -104.753000
  C    -48.508400   17.611900  -106.541000
  H    -47.720900   17.623400  -107.256000
  H    -49.007000   18.522700  -106.842000
  H    -49.159800   16.820900  -106.695000
  H    -43.829600   13.272200  -103.903000
  H    -47.608100   19.832800  -100.380000

 Total Charge           Charge          ....    0
 Multiplicity           Mult            ....    1
 Number of Electrons    NEL             ....  134
 Basis Dimension        Dim             ....  322

ORBITAL ENERGIES
----------------

  NO   OCC          E(Eh)            E(eV)
   0   2.0000     -88.966041     -2420.8891
   1   2.0000     -88.963158     -2420.8106
   2   2.0000     -10.329030      -281.0672
   3   2.0000     -10.328854      -281.0624
   4   2.0000     -10.311630      -280.5937
   5   2.0000     -10.309386      -280.5327
   6   2.0000     -10.308987      -280.5218
   7   2.0000     -10.307697      -280.4867
   8   2.0000     -10.294876      -280.1378
   9   2.0000     -10.294672      -280.1323
  10   2.0000     -10.293986      -280.1136
  11   2.0000     -10.292406      -280.0706
  12   2.0000     -10.285663      -279.8871
  13   2.0000     -10.284667      -279.8600
  14   2.0000     -10.270039      -279.4620
  15   2.0000     -10.260106      -279.1917
  16   2.0000      -8.081200      -219.9006
  17   2.0000      -8.078656      -219.8314
  18   2.0000      -6.039769      -164.3505
  19   2.0000      -6.037009      -164.2754
  20   2.0000      -6.035624      -164.2377
  21   2.0000      -6.033025      -164.1670
  22   2.0000      -6.031899      -164.1363
  23   2.0000      -6.029552      -164.0725
  24   2.0000      -1.009867       -27.4799
  25   2.0000      -0.986613       -26.8471
  26   2.0000      -0.914879       -24.8951
  27   2.0000      -0.909775       -24.7562
  28   2.0000      -0.874386       -23.7933
  29   2.0000      -0.851566       -23.1723
  30   2.0000      -0.843527       -22.9535
  31   2.0000      -0.813223       -22.1289
  32   2.0000      -0.788549       -21.4575
  33   2.0000      -0.775914       -21.1137
  34   2.0000      -0.707137       -19.2422
  35   2.0000      -0.697223       -18.9724
  36   2.0000      -0.688539       -18.7361
  37   2.0000      -0.667325       -18.1588
  38   2.0000      -0.644318       -17.5328
  39   2.0000      -0.616433       -16.7740
  40   2.0000      -0.599030       -16.3004
  41   2.0000      -0.574780       -15.6406
  42   2.0000      -0.571290       -15.5456
  43   2.0000      -0.554599       -15.0914
  44   2.0000      -0.541437       -14.7333
  45   2.0000      -0.528578       -14.3833
  46   2.0000      -0.519108       -14.1256
  47   2.0000      -0.512158       -13.9365
  48   2.0000      -0.505399       -13.7526
  49   2.0000      -0.500237       -13.6121
  50   2.0000      -0.491057       -13.3623
  51   2.0000      -0.479874       -13.0580
  52   2.0000      -0.474128       -12.9017
  53   2.0000      -0.466556       -12.6956
  54   2.0000      -0.458040       -12.4639
  55   2.0000      -0.450530       -12.2595
  56   2.0000      -0.444557       -12.0970
  57   2.0000      -0.441174       -12.0049
  58   2.0000      -0.432852       -11.7785
  59   2.0000      -0.424938       -11.5631
  60   2.0000      -0.420855       -11.4521
  61   2.0000      -0.411989       -11.2108
  62   2.0000      -0.393931       -10.7194
  63   2.0000      -0.345968        -9.4143
  64   2.0000      -0.332256        -9.0411
  65   2.0000      -0.327705        -8.9173
  66   2.0000      -0.293612        -7.9896
  67   0.0000       0.031368         0.8536
  68   0.0000       0.076029         2.0689
  69   0.0000       0.108008         2.9390
  70   0.0000       0.123685         3.3656
  71   0.0000       0.127603         3.4723

MULLIKEN ATOMIC CHARGES
-----------------------
   0 S :    0.118401
   1 C :   -0.108622
   2 C :   -0.095258
   3 C :    0.035836
   4 C :   -0.149852
   5 H :   -0.004666
   6 C :    0.125994
   7 H :   -0.002817
   8 H :    0.027406
   9 C :   -0.083221
  10 H :    0.025082
  11 H :    0.009102
  12 C :   -0.053862
  13 H :    0.029470
  14 H :    0.051681
  15 H :    0.040516
  16 S :    0.101007
  17 C :   -0.078743
  18 C :   -0.054966
  19 C :   -0.020657
  20 C :   -0.163940
  21 H :    0.041521
  22 C :    0.052973
  23 H :    0.031571
  24 H :    0.029607
  25 C :   -0.079651
  26 H :    0.017550
  27 H :    0.027436
  28 C :    0.025829
  29 H :    0.007567
  30 H :    0.008271
  31 H :    0.021402
  32 H :    0.030305
  33 H :    0.037728
Sum of atomic charges:    0.0000000

LOEWDIN ATOMIC CHARGES
----------------------
   0 S :    0.413316
   1 C :   -0.188381
   2 C :   -0.053206
   3 C :   -0.055755
   4 C :   -0.212349
   5 H :    0.014375
   6 C :   -0.022795
   7 H :    0.019950
   8 H :    0.030392
   9 C :   -0.038586
  10 H :    0.027079
  11 H :    0.009893
  12 C :   -0.070291
  13 H :    0.029746
  14 H :    0.030053
  15 H :    0.033744
  16 S :    0.432704
  17 C :   -0.181105
  18 C :   -0.077536
  19 C :   -0.050471
  20 C :   -0.207254
  21 H :    0.043524
  22 C :   -0.031646
  23 H :    0.032606
  24 H :    0.032231
  25 C :   -0.038075
  26 H :    0.020672
  27 H :    0.023623
  28 C :   -0.057983
  29 H :    0.018520
  30 H :    0.022605
  31 H :    0.020484
  32 H :    0.014580
  33 H :    0.015337

  Mayer bond orders larger than 0.100000
B(  0-S ,  1-C ) :   1.1413 B(  0-S ,  4-C ) :   1.1377 B(  1-C ,  2-C ) :   1.6304
B(  1-C , 32-H ) :   0.9690 B(  2-C ,  3-C ) :   1.2171 B(  2-C ,  6-C ) :   1.0327
B(  3-C ,  4-C ) :   1.5878 B(  3-C ,  5-H ) :   0.9950 B(  4-C , 20-C ) :   1.0319
B(  6-C ,  7-H ) :   0.9384 B(  6-C ,  8-H ) :   0.9423 B(  6-C ,  9-C ) :   1.0445
B(  9-C , 10-H ) :   0.9627 B(  9-C , 11-H ) :   0.9600 B(  9-C , 12-C ) :   1.0690
B( 12-C , 13-H ) :   0.9731 B( 12-C , 14-H ) :   0.9745 B( 12-C , 15-H ) :   0.9710
B( 16-S , 17-C ) :   1.1681 B( 16-S , 20-C ) :   1.1633 B( 17-C , 18-C ) :   1.5918
B( 17-C , 33-H ) :   0.9743 B( 18-C , 19-C ) :   1.2605 B( 18-C , 21-H ) :   0.9823
B( 19-C , 20-C ) :   1.5578 B( 19-C , 22-C ) :   1.0443 B( 22-C , 23-H ) :   0.9302
B( 22-C , 24-H ) :   0.9411 B( 22-C , 25-C ) :   1.0764 B( 25-C , 26-H ) :   0.9547
B( 25-C , 27-H ) :   0.9551 B( 25-C , 28-C ) :   1.0908 B( 28-C , 29-H ) :   0.9676
B( 28-C , 30-H ) :   0.9678 B( 28-C , 31-H ) :   0.9711

Dispersion correction           -0.014179314
FINAL SINGLE POINT ENERGY     -1339.853361618751

DIPOLE MOMENT
-------------
                                X             Y             Z
Electronic contribution:      6.62927      13.55797       7.76970
Nuclear contribution   :     -7.00410     -13.82537      -7.78722
                        -----------------------------------------
Total Dipole Moment    :     -0.37483      -0.26739      -0.01752
                        -----------------------------------------
Magnitude (a.u.)       :      0.46076
Magnitude (Debye)      :      1.17117

Rotational constants in cm-1:     0.021124     0.007804     0.006568
Rotational constants in MHz :   633.269176   233.952464   196.891529

                             ****ORCA TERMINATED NORMALLY****
TOTAL RUN TIME: 0 days 0 hours 0 minutes 21 seconds 260 msec
