                         Program Version 4.2.1 -  RELEASE  -
|  1> ! wB97X-D3 SP def2-SVP
|  2> %pal
|  3> nprocs 24
|  4> end
|  5>
|  6> * xyz 0 1
|  7> S 	 -120.903 	 51.9291 	 -34.8702
|  8> C 	 -119.669 	 52.7626 	 -35.7683
|  9> C 	 -120.273 	 53.6704 	 -36.6154
| 10> C 	 -121.667 	 53.6599 	 -36.5441
| 11> C 	 -122.188 	 52.8846 	 -35.5683
| 12> H 	 -122.287 	 54.3429 	 -37.0956
| 13> C 	 -119.555 	 54.4574 	 -37.606
| 14> H 	 -120.153 	 54.4201 	 -38.5579
| 15> H 	 -118.608 	 54.0501 	 -37.9283
| 16> C 	 -119.376 	 55.9645 	 -37.3544
| 17> H 	 -118.922 	 56.4146 	 -38.2602
| 18> H 	 -120.331 	 56.4661 	 -37.2694
| 19> C 	 -118.459 	 56.2187 	 -36.1767
| 20> H 	 -117.505 	 55.7422 	 -36.2682
| 21> H 	 -118.112 	 57.2178 	 -36.0637
| 22> H 	 -119.041 	 55.9995 	 -35.302
| 23> S 	 -123.822 	 53.4019 	 -33.4415
| 24> C 	 -125.581 	 53.0171 	 -33.5753
| 25> C 	 -125.971 	 52.5671 	 -34.8148
| 26> C 	 -124.804 	 52.4755 	 -35.7086
| 27> C 	 -123.59 	 52.8013 	 -35.1188
| 28> H 	 -127.069 	 52.5076 	 -35.1544
| 29> C 	 -124.928 	 52.1515 	 -37.1345
| 30> H 	 -125.73 	 51.3754 	 -37.1793
| 31> H 	 -124.005 	 51.7036 	 -37.5316
| 32> C 	 -125.405 	 53.2243 	 -38.0808
| 33> H 	 -124.895 	 54.1978 	 -37.8533
| 34> H 	 -126.451 	 53.4807 	 -38.077
| 35> C 	 -124.987 	 52.9455 	 -39.5691
| 36> H 	 -123.887 	 52.6918 	 -39.5819
| 37> H 	 -124.838 	 53.802 	 -40.1457
| 38> H 	 -125.537 	 52.0817 	 -40.0646
| 39> H 	 -118.535 	 52.6112 	 -35.5941
| 40> H 	 -126.211 	 53.4197 	 -32.8364
| 41> *
| 42>
| 43>                          ****END OF INPUT****

CARTESIAN COORDINATES (ANGSTROEM)
---------------------------------
  S    -120.903000   51.929100  -34.870200
  C    -119.669000   52.762600  -35.768300
  C    -120.273000   53.670400  -36.615400
  C    -121.667000   53.659900  -36.544100
  C    -122.188000   52.884600  -35.568300
  H    -122.287000   54.342900  -37.095600
  C    -119.555000   54.457400  -37.606000
  H    -120.153000   54.420100  -38.557900
  H    -118.608000   54.050100  -37.928300
  C    -119.376000   55.964500  -37.354400
  H    -118.922000   56.414600  -38.260200
  H    -120.331000   56.466100  -37.269400
  C    -118.459000   56.218700  -36.176700
  H    -117.505000   55.742200  -36.268200
  H    -118.112000   57.217800  -36.063700
  H    -119.041000   55.999500  -35.302000
  S    -123.822000   53.401900  -33.441500
  C    -125.581000   53.017100  -33.575300
  C    -125.971000   52.567100  -34.814800
  C    -124.804000   52.475500  -35.708600
  C    -123.590000   52.801300  -35.118800
  H    -127.069000   52.507600  -35.154400
  C    -124.928000   52.151500  -37.134500
  H    -125.730000   51.375400  -37.179300
  H    -124.005000   51.703600  -37.531600
  C    -125.405000   53.224300  -38.080800
  H    -124.895000   54.197800  -37.853300
  H    -126.451000   53.480700  -38.077000
  C    -124.987000   52.945500  -39.569100
  H    -123.887000   52.691800  -39.581900
  H    -124.838000   53.802000  -40.145700
  H    -125.537000   52.081700  -40.064600
  H    -118.535000   52.611200  -35.594100
  H    -126.211000   53.419700  -32.836400

 Total Charge           Charge          ....    0
 Multiplicity           Mult            ....    1
 Number of Electrons    NEL             ....  134
 Basis Dimension        Dim             ....  322

ORBITAL ENERGIES
----------------

  NO   OCC          E(Eh)            E(eV)
   0   2.0000     -88.963928     -2420.8315
   1   2.0000     -88.962810     -2420.8011
   2   2.0000     -10.331807      -281.1428
   3   2.0000     -10.328241      -281.0457
   4   2.0000     -10.321990      -280.8756
   5   2.0000     -10.320039      -280.8225
   6   2.0000     -10.309488      -280.5354
   7   2.0000     -10.308784      -280.5163
   8   2.0000     -10.293887      -280.1109
   9   2.0000     -10.291387      -280.0429
  10   2.0000     -10.289950      -280.0038
  11   2.0000     -10.287817      -279.9457
  12   2.0000     -10.287135      -279.9272
  13   2.0000     -10.284849      -279.8650
  14   2.0000     -10.283682      -279.8332
  15   2.0000     -10.266134      -279.3557
  16   2.0000      -8.079061      -219.8424
  17   2.0000      -8.076489      -219.7725
  18   2.0000      -6.037608      -164.2917
  19   2.0000      -6.035118      -164.2239
  20   2.0000      -6.033365      -164.1762
  21   2.0000      -6.031335      -164.1210
  22   2.0000      -6.029892      -164.0817
  23   2.0000      -6.026982      -164.0025
  24   2.0000      -1.009451       -27.4686
  25   2.0000      -0.980658       -26.6851
  26   2.0000      -0.916626       -24.9427
  27   2.0000      -0.910303       -24.7706
  28   2.0000      -0.868888       -23.6436
  29   2.0000      -0.852298       -23.1922
  30   2.0000      -0.846134       -23.0245
  31   2.0000      -0.818357       -22.2686
  32   2.0000      -0.782587       -21.2953
  33   2.0000      -0.770777       -20.9739
  34   2.0000      -0.709187       -19.2980
  35   2.0000      -0.699289       -19.0286
  36   2.0000      -0.691920       -18.8281
  37   2.0000      -0.662828       -18.0365
  38   2.0000      -0.641242       -17.4491
  39   2.0000      -0.626294       -17.0423
  40   2.0000      -0.599811       -16.3217
  41   2.0000      -0.571696       -15.5566
  42   2.0000      -0.564659       -15.3652
  43   2.0000      -0.547154       -14.8888
  44   2.0000      -0.543630       -14.7929
  45   2.0000      -0.527175       -14.3452
  46   2.0000      -0.521048       -14.1784
  47   2.0000      -0.512509       -13.9461
  48   2.0000      -0.501834       -13.6556
  49   2.0000      -0.493905       -13.4398
  50   2.0000      -0.490460       -13.3461
  51   2.0000      -0.489213       -13.3121
  52   2.0000      -0.475263       -12.9326
  53   2.0000      -0.458585       -12.4787
  54   2.0000      -0.456754       -12.4289
  55   2.0000      -0.442640       -12.0448
  56   2.0000      -0.436030       -11.8650
  57   2.0000      -0.430995       -11.7280
  58   2.0000      -0.429553       -11.6887
  59   2.0000      -0.427921       -11.6443
  60   2.0000      -0.426586       -11.6080
  61   2.0000      -0.410715       -11.1761
  62   2.0000      -0.410467       -11.1694
  63   2.0000      -0.345177        -9.3927
  64   2.0000      -0.327801        -8.9199
  65   2.0000      -0.326657        -8.8888
  66   2.0000      -0.302071        -8.2198
  67   0.0000       0.034842         0.9481
  68   0.0000       0.059722         1.6251
  69   0.0000       0.102173         2.7803
  70   0.0000       0.111522         3.0347
  71   0.0000       0.123024         3.3477

MULLIKEN ATOMIC CHARGES
-----------------------
   0 S :    0.113943
   1 C :   -0.157427
   2 C :   -0.051694
   3 C :    0.046421
   4 C :   -0.148442
   5 H :   -0.000960
   6 C :    0.033330
   7 H :    0.026568
   8 H :    0.014914
   9 C :   -0.072623
  10 H :    0.023320
  11 H :    0.024185
  12 C :   -0.019128
  13 H :    0.015913
  14 H :    0.014961
  15 H :    0.041660
  16 S :    0.078656
  17 C :   -0.077042
  18 C :   -0.034992
  19 C :   -0.035871
  20 C :   -0.158015
  21 H :    0.061041
  22 C :    0.056283
  23 H :    0.024881
  24 H :    0.035391
  25 C :   -0.071533
  26 H :    0.024538
  27 H :    0.029764
  28 C :   -0.070744
  29 H :    0.018227
  30 H :    0.020480
  31 H :    0.055374
  32 H :    0.087431
  33 H :    0.051190
Sum of atomic charges:    0.0000000

LOEWDIN ATOMIC CHARGES
----------------------
   0 S :    0.413156
   1 C :   -0.208222
   2 C :   -0.077784
   3 C :   -0.060514
   4 C :   -0.200345
   5 H :    0.028742
   6 C :   -0.036751
   7 H :    0.038173
   8 H :    0.026601
   9 C :   -0.038462
  10 H :    0.024293
  11 H :    0.020186
  12 C :   -0.066395
  13 H :    0.022683
  14 H :    0.022061
  15 H :    0.028297
  16 S :    0.360111
  17 C :   -0.151793
  18 C :   -0.075075
  19 C :   -0.051805
  20 C :   -0.180950
  21 H :    0.052347
  22 C :   -0.042577
  23 H :    0.037103
  24 H :    0.036244
  25 C :   -0.041291
  26 H :    0.025420
  27 H :    0.020949
  28 C :   -0.076414
  29 H :    0.030517
  30 H :    0.018565
  31 H :    0.033488
  32 H :    0.052060
  33 H :    0.017382

  Mayer bond orders larger than 0.100000
B(  0-S ,  1-C ) :   1.1448 B(  0-S ,  4-C ) :   1.1622 B(  1-C ,  2-C ) :   1.5767
B(  1-C , 32-H ) :   0.9589 B(  2-C ,  3-C ) :   1.2605 B(  2-C ,  6-C ) :   1.0340
B(  3-C ,  4-C ) :   1.5690 B(  3-C ,  5-H ) :   0.9995 B(  4-C , 20-C ) :   1.0062
B(  6-C ,  7-H ) :   0.9361 B(  6-C ,  8-H ) :   0.9456 B(  6-C ,  9-C ) :   1.0784
B(  9-C , 10-H ) :   0.9531 B(  9-C , 11-H ) :   0.9569 B(  9-C , 12-C ) :   1.0791
B( 12-C , 13-H ) :   0.9711 B( 12-C , 14-H ) :   0.9702 B( 12-C , 15-H ) :   0.9757
B( 16-S , 17-C ) :   1.1393 B( 16-S , 20-C ) :   1.1157 B( 17-C , 18-C ) :   1.6509
B( 17-C , 33-H ) :   0.9687 B( 18-C , 19-C ) :   1.1878 B( 18-C , 21-H ) :   0.9720
B( 19-C , 20-C ) :   1.6505 B( 19-C , 22-C ) :   1.0793 B( 22-C , 23-H ) :   0.9192
B( 22-C , 24-H ) :   0.9361 B( 22-C , 25-C ) :   1.0539 B( 25-C , 26-H ) :   0.9551
B( 25-C , 27-H ) :   0.9535 B( 25-C , 28-C ) :   1.0841 B( 28-C , 29-H ) :   0.9681
B( 28-C , 30-H ) :   0.9732 B( 28-C , 31-H ) :   0.9756

Dispersion correction           -0.014612709
FINAL SINGLE POINT ENERGY     -1339.863760942569

DIPOLE MOMENT
-------------
                                X             Y             Z
Electronic contribution:     -3.19461     -11.65852      22.72401
Nuclear contribution   :      3.08185      12.09614     -23.31911
                        -----------------------------------------
Total Dipole Moment    :     -0.11276       0.43762      -0.59509
                        -----------------------------------------
Magnitude (a.u.)       :      0.74724
Magnitude (Debye)      :      1.89933

Rotational constants in cm-1:     0.017871     0.008964     0.007152
Rotational constants in MHz :   535.769607   268.737187   214.411119

                             ****ORCA TERMINATED NORMALLY****
TOTAL RUN TIME: 0 days 0 hours 0 minutes 21 seconds 972 msec
