                         Program Version 4.2.1 -  RELEASE  -
|  1> ! wB97X-D3 SP def2-SVP
|  2> %pal
|  3> nprocs 24
|  4> end
|  5>
|  6> * xyz 0 1
|  7> S 	 -123.123 	 67.9491 	 -40.6398
|  8> C 	 -124.631 	 68.5873 	 -39.9772
|  9> C 	 -124.383 	 69.6777 	 -39.1149
| 10> C 	 -122.967 	 69.9725 	 -39.1387
| 11> C 	 -122.142 	 69.0492 	 -39.8037
| 12> H 	 -122.367 	 70.7399 	 -38.5975
| 13> C 	 -125.358 	 70.4501 	 -38.4051
| 14> H 	 -124.964 	 70.8597 	 -37.4732
| 15> H 	 -126.035 	 69.6812 	 -37.9375
| 16> C 	 -126.181 	 71.433 	 -39.2668
| 17> H 	 -125.608 	 72.2354 	 -39.5748
| 18> H 	 -126.622 	 70.8728 	 -40.0908
| 19> C 	 -127.331 	 72.1076 	 -38.5387
| 20> H 	 -126.975 	 72.5667 	 -37.6039
| 21> H 	 -127.796 	 72.831 	 -39.2222
| 22> H 	 -128.245 	 71.4664 	 -38.2914
| 23> S 	 -119.89 	 69.124 	 -38.4033
| 24> C 	 -118.36 	 68.8858 	 -39.1579
| 25> C 	 -118.494 	 68.9295 	 -40.5295
| 26> C 	 -119.853 	 69.0381 	 -40.9432
| 27> C 	 -120.688 	 69.056 	 -39.8641
| 28> H 	 -117.604 	 68.661 	 -41.115
| 29> C 	 -120.369 	 69.0139 	 -42.4048
| 30> H 	 -121.202 	 69.6342 	 -42.3809
| 31> H 	 -120.669 	 68.0147 	 -42.5938
| 32> C 	 -119.281 	 69.6332 	 -43.3485
| 33> H 	 -118.408 	 69.0061 	 -43.1622
| 34> H 	 -119.046 	 70.6223 	 -42.9329
| 35> C 	 -119.553 	 69.6536 	 -44.8804
| 36> H 	 -120.074 	 68.7793 	 -45.2077
| 37> H 	 -118.597 	 69.8077 	 -45.3772
| 38> H 	 -120.232 	 70.3941 	 -45.281
| 39> H 	 -125.597 	 68.108 	 -40.1117
| 40> H 	 -117.433 	 68.6896 	 -38.7393
| 41> *
| 42>
| 43>                          ****END OF INPUT****

CARTESIAN COORDINATES (ANGSTROEM)
---------------------------------
  S    -123.123000   67.949100  -40.639800
  C    -124.631000   68.587300  -39.977200
  C    -124.383000   69.677700  -39.114900
  C    -122.967000   69.972500  -39.138700
  C    -122.142000   69.049200  -39.803700
  H    -122.367000   70.739900  -38.597500
  C    -125.358000   70.450100  -38.405100
  H    -124.964000   70.859700  -37.473200
  H    -126.035000   69.681200  -37.937500
  C    -126.181000   71.433000  -39.266800
  H    -125.608000   72.235400  -39.574800
  H    -126.622000   70.872800  -40.090800
  C    -127.331000   72.107600  -38.538700
  H    -126.975000   72.566700  -37.603900
  H    -127.796000   72.831000  -39.222200
  H    -128.245000   71.466400  -38.291400
  S    -119.890000   69.124000  -38.403300
  C    -118.360000   68.885800  -39.157900
  C    -118.494000   68.929500  -40.529500
  C    -119.853000   69.038100  -40.943200
  C    -120.688000   69.056000  -39.864100
  H    -117.604000   68.661000  -41.115000
  C    -120.369000   69.013900  -42.404800
  H    -121.202000   69.634200  -42.380900
  H    -120.669000   68.014700  -42.593800
  C    -119.281000   69.633200  -43.348500
  H    -118.408000   69.006100  -43.162200
  H    -119.046000   70.622300  -42.932900
  C    -119.553000   69.653600  -44.880400
  H    -120.074000   68.779300  -45.207700
  H    -118.597000   69.807700  -45.377200
  H    -120.232000   70.394100  -45.281000
  H    -125.597000   68.108000  -40.111700
  H    -117.433000   68.689600  -38.739300

 Total Charge           Charge          ....    0
 Multiplicity           Mult            ....    1
 Number of Electrons    NEL             ....  134
 Basis Dimension        Dim             ....  322

ORBITAL ENERGIES
----------------

  NO   OCC          E(Eh)            E(eV)
   0   2.0000     -88.966413     -2420.8992
   1   2.0000     -88.965409     -2420.8718
   2   2.0000     -10.324397      -280.9411
   3   2.0000     -10.316704      -280.7318
   4   2.0000     -10.315198      -280.6908
   5   2.0000     -10.307217      -280.4736
   6   2.0000     -10.303839      -280.3817
   7   2.0000     -10.297880      -280.2196
   8   2.0000     -10.294639      -280.1314
   9   2.0000     -10.292232      -280.0659
  10   2.0000     -10.290268      -280.0124
  11   2.0000     -10.289693      -279.9968
  12   2.0000     -10.283671      -279.8329
  13   2.0000     -10.283218      -279.8206
  14   2.0000     -10.283119      -279.8179
  15   2.0000     -10.275488      -279.6103
  16   2.0000      -8.082083      -219.9247
  17   2.0000      -8.081278      -219.9028
  18   2.0000      -6.040422      -164.3682
  19   2.0000      -6.039732      -164.3495
  20   2.0000      -6.036268      -164.2552
  21   2.0000      -6.035519      -164.2348
  22   2.0000      -6.032944      -164.1648
  23   2.0000      -6.032355      -164.1487
  24   2.0000      -1.018843       -27.7241
  25   2.0000      -0.988970       -26.9112
  26   2.0000      -0.920034       -25.0354
  27   2.0000      -0.903935       -24.5973
  28   2.0000      -0.872940       -23.7539
  29   2.0000      -0.853679       -23.2298
  30   2.0000      -0.845842       -23.0165
  31   2.0000      -0.813026       -22.1236
  32   2.0000      -0.784824       -21.3561
  33   2.0000      -0.773569       -21.0499
  34   2.0000      -0.709203       -19.2984
  35   2.0000      -0.703601       -19.1460
  36   2.0000      -0.699750       -19.0412
  37   2.0000      -0.658690       -17.9239
  38   2.0000      -0.637836       -17.3564
  39   2.0000      -0.613000       -16.6806
  40   2.0000      -0.592887       -16.1333
  41   2.0000      -0.578731       -15.7481
  42   2.0000      -0.566248       -15.4084
  43   2.0000      -0.562813       -15.3149
  44   2.0000      -0.533520       -14.5178
  45   2.0000      -0.529484       -14.4080
  46   2.0000      -0.519065       -14.1245
  47   2.0000      -0.514018       -13.9872
  48   2.0000      -0.504541       -13.7293
  49   2.0000      -0.503954       -13.7133
  50   2.0000      -0.490380       -13.3439
  51   2.0000      -0.480925       -13.0866
  52   2.0000      -0.474495       -12.9117
  53   2.0000      -0.465772       -12.6743
  54   2.0000      -0.459073       -12.4920
  55   2.0000      -0.447906       -12.1881
  56   2.0000      -0.437324       -11.9002
  57   2.0000      -0.435287       -11.8448
  58   2.0000      -0.432750       -11.7757
  59   2.0000      -0.426145       -11.5960
  60   2.0000      -0.420061       -11.4304
  61   2.0000      -0.416563       -11.3353
  62   2.0000      -0.412367       -11.2211
  63   2.0000      -0.345671        -9.4062
  64   2.0000      -0.331519        -9.0211
  65   2.0000      -0.326390        -8.8815
  66   2.0000      -0.292293        -7.9537
  67   0.0000       0.037470         1.0196
  68   0.0000       0.068841         1.8733
  69   0.0000       0.111981         3.0472
  70   0.0000       0.125064         3.4032
  71   0.0000       0.139480         3.7954

MULLIKEN ATOMIC CHARGES
-----------------------
   0 S :    0.115374
   1 C :   -0.132116
   2 C :   -0.065976
   3 C :    0.004002
   4 C :   -0.179173
   5 H :    0.018744
   6 C :    0.047488
   7 H :    0.018592
   8 H :    0.025051
   9 C :   -0.011624
  10 H :    0.021051
  11 H :    0.028608
  12 C :   -0.083874
  13 H :    0.036255
  14 H :    0.035839
  15 H :    0.033798
  16 S :    0.132417
  17 C :   -0.062217
  18 C :   -0.079225
  19 C :   -0.077812
  20 C :   -0.152837
  21 H :    0.032310
  22 C :    0.150294
  23 H :    0.017896
  24 H :    0.032357
  25 C :   -0.125286
  26 H :    0.031033
  27 H :    0.037990
  28 C :   -0.004177
  29 H :    0.019179
  30 H :    0.036921
  31 H :    0.024881
  32 H :    0.052263
  33 H :    0.021976
Sum of atomic charges:    0.0000000

LOEWDIN ATOMIC CHARGES
----------------------
   0 S :    0.433614
   1 C :   -0.200056
   2 C :   -0.059872
   3 C :   -0.078877
   4 C :   -0.216609
   5 H :    0.030445
   6 C :   -0.046866
   7 H :    0.031936
   8 H :    0.041230
   9 C :   -0.026700
  10 H :    0.019244
  11 H :    0.028491
  12 C :   -0.072829
  13 H :    0.024396
  14 H :    0.028149
  15 H :    0.027994
  16 S :    0.461883
  17 C :   -0.188800
  18 C :   -0.075570
  19 C :   -0.058921
  20 C :   -0.229926
  21 H :    0.035485
  22 C :   -0.020580
  23 H :    0.019668
  24 H :    0.024265
  25 C :   -0.037771
  26 H :    0.021800
  27 H :    0.028736
  28 C :   -0.067244
  29 H :    0.023625
  30 H :    0.030195
  31 H :    0.024749
  32 H :    0.027978
  33 H :    0.016734

  Mayer bond orders larger than 0.100000
B(  0-S ,  1-C ) :   1.1524 B(  0-S ,  4-C ) :   1.1761 B(  1-C ,  2-C ) :   1.5585
B(  1-C ,  4-C ) :   0.1044 B(  1-C , 32-H ) :   0.9714 B(  2-C ,  3-C ) :   1.2488
B(  2-C ,  6-C ) :   1.0562 B(  3-C ,  4-C ) :   1.5590 B(  3-C ,  5-H ) :   0.9847
B(  4-C , 20-C ) :   0.9982 B(  6-C ,  7-H ) :   0.9307 B(  6-C ,  8-H ) :   0.9286
B(  6-C ,  9-C ) :   1.0591 B(  9-C , 10-H ) :   0.9549 B(  9-C , 11-H ) :   0.9543
B(  9-C , 12-C ) :   1.0863 B( 12-C , 13-H ) :   0.9734 B( 12-C , 14-H ) :   0.9739
B( 12-C , 15-H ) :   0.9746 B( 16-S , 17-C ) :   1.1654 B( 16-S , 20-C ) :   1.1727
B( 17-C , 18-C ) :   1.6131 B( 17-C , 33-H ) :   0.9728 B( 18-C , 19-C ) :   1.2422
B( 18-C , 21-H ) :   0.9835 B( 19-C , 20-C ) :   1.5922 B( 19-C , 22-C ) :   1.0163
B( 22-C , 23-H ) :   0.9243 B( 22-C , 24-H ) :   0.9306 B( 22-C , 25-C ) :   1.0738
B( 25-C , 26-H ) :   0.9533 B( 25-C , 27-H ) :   0.9616 B( 25-C , 28-C ) :   1.0738
B( 28-C , 29-H ) :   0.9723 B( 28-C , 30-H ) :   0.9750 B( 28-C , 31-H ) :   0.9742

Dispersion correction           -0.013423012
FINAL SINGLE POINT ENERGY     -1339.865203808084

DIPOLE MOMENT
-------------
                                X             Y             Z
Electronic contribution:     10.74325     -12.44823      11.26748
Nuclear contribution   :    -10.85826      12.61873     -11.41168
                        -----------------------------------------
Total Dipole Moment    :     -0.11501       0.17051      -0.14420
                        -----------------------------------------
Magnitude (a.u.)       :      0.25118
Magnitude (Debye)      :      0.63846

Rotational constants in cm-1:     0.020671     0.007126     0.006072
Rotational constants in MHz :   619.690685   213.645473   182.019479

                             ****ORCA TERMINATED NORMALLY****
TOTAL RUN TIME: 0 days 0 hours 0 minutes 20 seconds 854 msec
