                         Program Version 4.2.1 -  RELEASE  -
|  1> ! wB97X-D3 SP def2-SVP
|  2> %pal
|  3> nprocs 24
|  4> end
|  5>
|  6> * xyz 0 1
|  7> S 	 -105.522 	 43.866 	 -96.0007
|  8> C 	 -104.592 	 42.357 	 -95.7222
|  9> C 	 -103.356 	 42.5861 	 -95.2452
| 10> C 	 -103.061 	 43.9943 	 -95.2049
| 11> C 	 -104.122 	 44.7952 	 -95.5683
| 12> H 	 -102.263 	 44.4176 	 -94.7525
| 13> C 	 -102.38 	 41.5346 	 -94.71
| 14> H 	 -102.944 	 40.6796 	 -94.3059
| 15> H 	 -101.783 	 41.9162 	 -93.8641
| 16> C 	 -101.352 	 40.976 	 -95.7758
| 17> H 	 -101.732 	 40.2993 	 -96.4838
| 18> H 	 -100.948 	 41.7965 	 -96.3138
| 19> C 	 -100.152 	 40.2928 	 -95.1741
| 20> H 	 -99.7262 	 40.791 	 -94.3315
| 21> H 	 -100.442 	 39.2925 	 -94.8553
| 22> H 	 -99.3443 	 40.1478 	 -95.8559
| 23> S 	 -105.728 	 46.9848 	 -94.8241
| 24> C 	 -105.136 	 48.6549 	 -95.0883
| 25> C 	 -103.813 	 48.6064 	 -95.5223
| 26> C 	 -103.272 	 47.2647 	 -95.6256
| 27> C 	 -104.204 	 46.2821 	 -95.3735
| 28> H 	 -103.399 	 49.5312 	 -95.7973
| 29> C 	 -101.917 	 47.0939 	 -96.3247
| 30> H 	 -101.542 	 46.2878 	 -95.6481
| 31> H 	 -101.218 	 48.0288 	 -96.2027
| 32> C 	 -102.014 	 46.5459 	 -97.7567
| 33> H 	 -102.308 	 47.4689 	 -98.4091
| 34> H 	 -102.876 	 45.8942 	 -97.8577
| 35> C 	 -100.681 	 46.0539 	 -98.3078
| 36> H 	 -100.706 	 44.985 	 -98.209
| 37> H 	 -99.8006 	 46.4667 	 -97.7428
| 38> H 	 -100.702 	 46.2223 	 -99.4003
| 39> H 	 -104.989 	 41.3781 	 -95.9351
| 40> H 	 -105.842 	 49.4517 	 -95.1614
| 41> *
| 42>
| 43>                          ****END OF INPUT****

CARTESIAN COORDINATES (ANGSTROEM)
---------------------------------
  S    -105.522000   43.866000  -96.000700
  C    -104.592000   42.357000  -95.722200
  C    -103.356000   42.586100  -95.245200
  C    -103.061000   43.994300  -95.204900
  C    -104.122000   44.795200  -95.568300
  H    -102.263000   44.417600  -94.752500
  C    -102.380000   41.534600  -94.710000
  H    -102.944000   40.679600  -94.305900
  H    -101.783000   41.916200  -93.864100
  C    -101.352000   40.976000  -95.775800
  H    -101.732000   40.299300  -96.483800
  H    -100.948000   41.796500  -96.313800
  C    -100.152000   40.292800  -95.174100
  H    -99.726200   40.791000  -94.331500
  H    -100.442000   39.292500  -94.855300
  H    -99.344300   40.147800  -95.855900
  S    -105.728000   46.984800  -94.824100
  C    -105.136000   48.654900  -95.088300
  C    -103.813000   48.606400  -95.522300
  C    -103.272000   47.264700  -95.625600
  C    -104.204000   46.282100  -95.373500
  H    -103.399000   49.531200  -95.797300
  C    -101.917000   47.093900  -96.324700
  H    -101.542000   46.287800  -95.648100
  H    -101.218000   48.028800  -96.202700
  C    -102.014000   46.545900  -97.756700
  H    -102.308000   47.468900  -98.409100
  H    -102.876000   45.894200  -97.857700
  C    -100.681000   46.053900  -98.307800
  H    -100.706000   44.985000  -98.209000
  H    -99.800600   46.466700  -97.742800
  H    -100.702000   46.222300  -99.400300
  H    -104.989000   41.378100  -95.935100
  H    -105.842000   49.451700  -95.161400

 Total Charge           Charge          ....    0
 Multiplicity           Mult            ....    1
 Number of Electrons    NEL             ....  134
 Basis Dimension        Dim             ....  322

ORBITAL ENERGIES
----------------

  NO   OCC          E(Eh)            E(eV)
   0   2.0000     -88.969537     -2420.9842
   1   2.0000     -88.962352     -2420.7887
   2   2.0000     -10.334868      -281.2261
   3   2.0000     -10.332307      -281.1564
   4   2.0000     -10.319186      -280.7993
   5   2.0000     -10.315111      -280.6884
   6   2.0000     -10.305582      -280.4292
   7   2.0000     -10.303696      -280.3778
   8   2.0000     -10.302445      -280.3438
   9   2.0000     -10.302278      -280.3392
  10   2.0000     -10.295687      -280.1599
  11   2.0000     -10.289169      -279.9825
  12   2.0000     -10.288765      -279.9715
  13   2.0000     -10.281085      -279.7625
  14   2.0000     -10.279592      -279.7219
  15   2.0000     -10.271112      -279.4912
  16   2.0000      -8.083871      -219.9733
  17   2.0000      -8.076473      -219.7720
  18   2.0000      -6.042505      -164.4249
  19   2.0000      -6.038541      -164.3171
  20   2.0000      -6.035151      -164.2248
  21   2.0000      -6.034412      -164.2047
  22   2.0000      -6.031020      -164.1124
  23   2.0000      -6.027150      -164.0071
  24   2.0000      -1.004863       -27.3437
  25   2.0000      -0.980331       -26.6762
  26   2.0000      -0.910313       -24.7709
  27   2.0000      -0.903658       -24.5898
  28   2.0000      -0.870987       -23.7008
  29   2.0000      -0.852643       -23.2016
  30   2.0000      -0.844005       -22.9665
  31   2.0000      -0.818335       -22.2680
  32   2.0000      -0.782374       -21.2895
  33   2.0000      -0.769668       -20.9437
  34   2.0000      -0.706384       -19.2217
  35   2.0000      -0.702740       -19.1225
  36   2.0000      -0.685453       -18.6521
  37   2.0000      -0.666917       -18.1477
  38   2.0000      -0.647121       -17.6091
  39   2.0000      -0.622987       -16.9523
  40   2.0000      -0.589344       -16.0369
  41   2.0000      -0.573452       -15.6044
  42   2.0000      -0.566722       -15.4213
  43   2.0000      -0.558147       -15.1880
  44   2.0000      -0.527525       -14.3547
  45   2.0000      -0.525925       -14.3111
  46   2.0000      -0.517718       -14.0878
  47   2.0000      -0.513442       -13.9715
  48   2.0000      -0.504862       -13.7380
  49   2.0000      -0.496478       -13.5098
  50   2.0000      -0.491352       -13.3704
  51   2.0000      -0.484181       -13.1752
  52   2.0000      -0.470695       -12.8083
  53   2.0000      -0.462736       -12.5917
  54   2.0000      -0.460996       -12.5443
  55   2.0000      -0.452311       -12.3080
  56   2.0000      -0.444679       -12.1003
  57   2.0000      -0.438180       -11.9235
  58   2.0000      -0.433913       -11.8074
  59   2.0000      -0.426236       -11.5985
  60   2.0000      -0.420658       -11.4467
  61   2.0000      -0.415730       -11.3126
  62   2.0000      -0.396488       -10.7890
  63   2.0000      -0.352767        -9.5993
  64   2.0000      -0.335191        -9.1210
  65   2.0000      -0.328491        -8.9387
  66   2.0000      -0.291448        -7.9307
  67   0.0000       0.022581         0.6145
  68   0.0000       0.072759         1.9799
  69   0.0000       0.103893         2.8271
  70   0.0000       0.123875         3.3708
  71   0.0000       0.127412         3.4671

MULLIKEN ATOMIC CHARGES
-----------------------
   0 S :    0.101445
   1 C :   -0.126867
   2 C :   -0.043902
   3 C :    0.049047
   4 C :   -0.130717
   5 H :   -0.024042
   6 C :    0.045833
   7 H :    0.030276
   8 H :    0.029627
   9 C :   -0.039370
  10 H :    0.021624
  11 H :    0.017610
  12 C :   -0.038663
  13 H :    0.018279
  14 H :    0.019530
  15 H :    0.026075
  16 S :    0.076721
  17 C :   -0.100965
  18 C :   -0.011807
  19 C :   -0.038298
  20 C :   -0.139532
  21 H :    0.006984
  22 C :    0.004293
  23 H :    0.023065
  24 H :    0.052169
  25 C :   -0.095196
  26 H :    0.029776
  27 H :    0.048011
  28 C :   -0.030503
  29 H :    0.029166
  30 H :    0.049712
  31 H :    0.039299
  32 H :    0.040255
  33 H :    0.061066
Sum of atomic charges:   -0.0000000

LOEWDIN ATOMIC CHARGES
----------------------
   0 S :    0.391406
   1 C :   -0.175193
   2 C :   -0.058487
   3 C :   -0.053962
   4 C :   -0.185598
   5 H :    0.010732
   6 C :   -0.024924
   7 H :    0.032190
   8 H :    0.033810
   9 C :   -0.033748
  10 H :    0.019474
  11 H :    0.019139
  12 C :   -0.061291
  13 H :    0.018228
  14 H :    0.022607
  15 H :    0.024236
  16 S :    0.371439
  17 C :   -0.168755
  18 C :   -0.058337
  19 C :   -0.063524
  20 C :   -0.189781
  21 H :    0.024568
  22 C :   -0.044933
  23 H :    0.029094
  24 H :    0.041938
  25 C :   -0.048809
  26 H :    0.029006
  27 H :    0.027327
  28 C :   -0.069646
  29 H :    0.024088
  30 H :    0.034494
  31 H :    0.032548
  32 H :    0.026046
  33 H :    0.024618

  Mayer bond orders larger than 0.100000
B(  0-S ,  1-C ) :   1.1118 B(  0-S ,  4-C ) :   1.1462 B(  1-C ,  2-C ) :   1.6573
B(  1-C , 32-H ) :   0.9684 B(  2-C ,  3-C ) :   1.2175 B(  2-C ,  6-C ) :   1.0230
B(  3-C ,  4-C ) :   1.5864 B(  3-C ,  5-H ) :   1.0028 B(  4-C , 20-C ) :   1.0301
B(  6-C ,  7-H ) :   0.9437 B(  6-C ,  8-H ) :   0.9472 B(  6-C ,  9-C ) :   1.0528
B(  9-C , 10-H ) :   0.9570 B(  9-C , 11-H ) :   0.9596 B(  9-C , 12-C ) :   1.0916
B( 12-C , 13-H ) :   0.9740 B( 12-C , 14-H ) :   0.9749 B( 12-C , 15-H ) :   0.9728
B( 16-S , 17-C ) :   1.1357 B( 16-S , 20-C ) :   1.1328 B( 17-C , 18-C ) :   1.6231
B( 17-C , 33-H ) :   0.9704 B( 18-C , 19-C ) :   1.2204 B( 18-C , 21-H ) :   0.9997
B( 19-C , 20-C ) :   1.6123 B( 19-C , 22-C ) :   1.0235 B( 22-C , 23-H ) :   0.9336
B( 22-C , 24-H ) :   0.9394 B( 22-C , 25-C ) :   1.0590 B( 25-C , 26-H ) :   0.9584
B( 25-C , 27-H ) :   0.9584 B( 25-C , 28-C ) :   1.0574 B( 28-C , 29-H ) :   0.9750
B( 28-C , 30-H ) :   0.9748 B( 28-C , 31-H ) :   0.9745

Dispersion correction           -0.014214740
FINAL SINGLE POINT ENERGY     -1339.862178979149

DIPOLE MOMENT
-------------
                                X             Y             Z
Electronic contribution:    -27.96016      12.28065       7.19690
Nuclear contribution   :     28.54880     -12.47514      -7.38652
                        -----------------------------------------
Total Dipole Moment    :      0.58864      -0.19448      -0.18962
                        -----------------------------------------
Magnitude (a.u.)       :      0.64829
Magnitude (Debye)      :      1.64782

Rotational constants in cm-1:     0.019417     0.008542     0.006632
Rotational constants in MHz :   582.119134   256.068958   198.822680

                             ****ORCA TERMINATED NORMALLY****
TOTAL RUN TIME: 0 days 0 hours 0 minutes 21 seconds 793 msec
