                         Program Version 4.2.1 -  RELEASE  -
|  1> ! wB97X-D3 SP def2-SVP
|  2> %pal
|  3> nprocs 24
|  4> end
|  5>
|  6> * xyz 0 1
|  7> S 	 -105.303 	 59.2697 	 -12.7582
|  8> C 	 -104.77 	 59.7409 	 -14.3704
|  9> C 	 -104.743 	 58.6213 	 -15.1886
| 10> C 	 -105.177 	 57.4056 	 -14.548
| 11> C 	 -105.419 	 57.6677 	 -13.203
| 12> H 	 -105.101 	 56.3347 	 -14.9141
| 13> C 	 -104.346 	 58.7428 	 -16.6807
| 14> H 	 -104.736 	 59.6318 	 -17.0695
| 15> H 	 -104.884 	 58.0084 	 -17.3073
| 16> C 	 -102.878 	 58.6326 	 -16.9735
| 17> H 	 -102.428 	 59.6887 	 -17.0558
| 18> H 	 -102.347 	 58.1242 	 -16.224
| 19> C 	 -102.541 	 57.8875 	 -18.2634
| 20> H 	 -101.509 	 57.9063 	 -18.2656
| 21> H 	 -102.906 	 56.845 	 -18.3147
| 22> H 	 -102.998 	 58.4086 	 -19.1091
| 23> S 	 -106.721 	 56.9167 	 -10.8775
| 24> C 	 -106.494 	 55.3089 	 -10.2607
| 25> C 	 -105.305 	 54.8425 	 -10.79
| 26> C 	 -104.806 	 55.5096 	 -11.9115
| 27> C 	 -105.534 	 56.6957 	 -12.0997
| 28> H 	 -104.871 	 53.9504 	 -10.364
| 29> C 	 -103.711 	 55.0281 	 -12.8842
| 30> H 	 -103.462 	 55.858 	 -13.5399
| 31> H 	 -104.228 	 54.2098 	 -13.4733
| 32> C 	 -102.404 	 54.5783 	 -12.1748
| 33> H 	 -101.708 	 54.1873 	 -12.903
| 34> H 	 -102.529 	 53.8456 	 -11.3719
| 35> C 	 -101.76 	 55.7304 	 -11.3952
| 36> H 	 -100.867 	 55.388 	 -10.7944
| 37> H 	 -102.459 	 55.9831 	 -10.6252
| 38> H 	 -101.543 	 56.598 	 -11.9803
| 39> H 	 -104.462 	 60.7133 	 -14.612
| 40> H 	 -107.024 	 54.8304 	 -9.47311
| 41> *
| 42>
| 43>                          ****END OF INPUT****

CARTESIAN COORDINATES (ANGSTROEM)
---------------------------------
  S    -105.303000   59.269700  -12.758200
  C    -104.770000   59.740900  -14.370400
  C    -104.743000   58.621300  -15.188600
  C    -105.177000   57.405600  -14.548000
  C    -105.419000   57.667700  -13.203000
  H    -105.101000   56.334700  -14.914100
  C    -104.346000   58.742800  -16.680700
  H    -104.736000   59.631800  -17.069500
  H    -104.884000   58.008400  -17.307300
  C    -102.878000   58.632600  -16.973500
  H    -102.428000   59.688700  -17.055800
  H    -102.347000   58.124200  -16.224000
  C    -102.541000   57.887500  -18.263400
  H    -101.509000   57.906300  -18.265600
  H    -102.906000   56.845000  -18.314700
  H    -102.998000   58.408600  -19.109100
  S    -106.721000   56.916700  -10.877500
  C    -106.494000   55.308900  -10.260700
  C    -105.305000   54.842500  -10.790000
  C    -104.806000   55.509600  -11.911500
  C    -105.534000   56.695700  -12.099700
  H    -104.871000   53.950400  -10.364000
  C    -103.711000   55.028100  -12.884200
  H    -103.462000   55.858000  -13.539900
  H    -104.228000   54.209800  -13.473300
  C    -102.404000   54.578300  -12.174800
  H    -101.708000   54.187300  -12.903000
  H    -102.529000   53.845600  -11.371900
  C    -101.760000   55.730400  -11.395200
  H    -100.867000   55.388000  -10.794400
  H    -102.459000   55.983100  -10.625200
  H    -101.543000   56.598000  -11.980300
  H    -104.462000   60.713300  -14.612000
  H    -107.024000   54.830400   -9.473110

 Total Charge           Charge          ....    0
 Multiplicity           Mult            ....    1
 Number of Electrons    NEL             ....  134
 Basis Dimension        Dim             ....  322

ORBITAL ENERGIES
----------------

  NO   OCC          E(Eh)            E(eV)
   0   2.0000     -88.965259     -2420.8678
   1   2.0000     -88.964889     -2420.8577
   2   2.0000     -10.325315      -280.9661
   3   2.0000     -10.323723      -280.9228
   4   2.0000     -10.314799      -280.6799
   5   2.0000     -10.309771      -280.5431
   6   2.0000     -10.306716      -280.4600
   7   2.0000     -10.301996      -280.3316
   8   2.0000     -10.300633      -280.2945
   9   2.0000     -10.300110      -280.2802
  10   2.0000     -10.290922      -280.0302
  11   2.0000     -10.287449      -279.9357
  12   2.0000     -10.285309      -279.8775
  13   2.0000     -10.283038      -279.8157
  14   2.0000     -10.273455      -279.5549
  15   2.0000     -10.271696      -279.5071
  16   2.0000      -8.081308      -219.9036
  17   2.0000      -8.080802      -219.8898
  18   2.0000      -6.039583      -164.3454
  19   2.0000      -6.039203      -164.3351
  20   2.0000      -6.035541      -164.2354
  21   2.0000      -6.035199      -164.2261
  22   2.0000      -6.032245      -164.1457
  23   2.0000      -6.031627      -164.1289
  24   2.0000      -1.015775       -27.6406
  25   2.0000      -0.990683       -26.9579
  26   2.0000      -0.915527       -24.9127
  27   2.0000      -0.908339       -24.7172
  28   2.0000      -0.870913       -23.6987
  29   2.0000      -0.852512       -23.1980
  30   2.0000      -0.844326       -22.9753
  31   2.0000      -0.815184       -22.1823
  32   2.0000      -0.785988       -21.3878
  33   2.0000      -0.773728       -21.0542
  34   2.0000      -0.701282       -19.0829
  35   2.0000      -0.699015       -19.0212
  36   2.0000      -0.695578       -18.9276
  37   2.0000      -0.655850       -17.8466
  38   2.0000      -0.644415       -17.5354
  39   2.0000      -0.618895       -16.8410
  40   2.0000      -0.599444       -16.3117
  41   2.0000      -0.569376       -15.4935
  42   2.0000      -0.558867       -15.2076
  43   2.0000      -0.553512       -15.0618
  44   2.0000      -0.543181       -14.7807
  45   2.0000      -0.536013       -14.5857
  46   2.0000      -0.530348       -14.4315
  47   2.0000      -0.513156       -13.9637
  48   2.0000      -0.503380       -13.6977
  49   2.0000      -0.495760       -13.4903
  50   2.0000      -0.494368       -13.4524
  51   2.0000      -0.476681       -12.9712
  52   2.0000      -0.474422       -12.9097
  53   2.0000      -0.464438       -12.6380
  54   2.0000      -0.459758       -12.5107
  55   2.0000      -0.449038       -12.2190
  56   2.0000      -0.445589       -12.1251
  57   2.0000      -0.437704       -11.9105
  58   2.0000      -0.435156       -11.8412
  59   2.0000      -0.426104       -11.5949
  60   2.0000      -0.416283       -11.3276
  61   2.0000      -0.412720       -11.2307
  62   2.0000      -0.411890       -11.2081
  63   2.0000      -0.348838        -9.4924
  64   2.0000      -0.332789        -9.0556
  65   2.0000      -0.329042        -8.9537
  66   2.0000      -0.288227        -7.8431
  67   0.0000       0.031280         0.8512
  68   0.0000       0.071143         1.9359
  69   0.0000       0.104842         2.8529
  70   0.0000       0.123232         3.3533
  71   0.0000       0.134637         3.6637

MULLIKEN ATOMIC CHARGES
-----------------------
   0 S :    0.111885
   1 C :   -0.097195
   2 C :   -0.109980
   3 C :    0.004084
   4 C :   -0.135250
   5 H :    0.046779
   6 C :    0.090643
   7 H :    0.009632
   8 H :    0.017527
   9 C :   -0.080733
  10 H :    0.035910
  11 H :    0.021045
  12 C :   -0.044642
  13 H :    0.022448
  14 H :    0.035570
  15 H :    0.030984
  16 S :    0.114455
  17 C :   -0.083306
  18 C :   -0.049437
  19 C :   -0.050098
  20 C :   -0.166084
  21 H :    0.010856
  22 C :    0.054791
  23 H :    0.040312
  24 H :    0.059000
  25 C :   -0.063878
  26 H :    0.031380
  27 H :    0.028526
  28 C :   -0.064293
  29 H :    0.037294
  30 H :    0.031071
  31 H :    0.034061
  32 H :    0.027204
  33 H :    0.049439
Sum of atomic charges:   -0.0000000

LOEWDIN ATOMIC CHARGES
----------------------
   0 S :    0.438795
   1 C :   -0.194000
   2 C :   -0.050686
   3 C :   -0.084568
   4 C :   -0.209223
   5 H :    0.046548
   6 C :   -0.033128
   7 H :    0.023518
   8 H :    0.031353
   9 C :   -0.041598
  10 H :    0.032621
  11 H :    0.015735
  12 C :   -0.057849
  13 H :    0.017309
  14 H :    0.026088
  15 H :    0.023987
  16 S :    0.423141
  17 C :   -0.187255
  18 C :   -0.071630
  19 C :   -0.062023
  20 C :   -0.213756
  21 H :    0.026479
  22 C :   -0.030252
  23 H :    0.031011
  24 H :    0.040902
  25 C :   -0.040830
  26 H :    0.021706
  27 H :    0.023994
  28 C :   -0.064530
  29 H :    0.032417
  30 H :    0.023148
  31 H :    0.019225
  32 H :    0.016672
  33 H :    0.026678

  Mayer bond orders larger than 0.100000
B(  0-S ,  1-C ) :   1.1272 B(  0-S ,  4-C ) :   1.2086 B(  1-C ,  2-C ) :   1.6043
B(  1-C , 32-H ) :   0.9850 B(  2-C ,  3-C ) :   1.2379 B(  2-C ,  6-C ) :   1.0211
B(  3-C ,  4-C ) :   1.5427 B(  3-C ,  5-H ) :   0.9863 B(  4-C , 20-C ) :   0.9985
B(  6-C ,  7-H ) :   0.9371 B(  6-C ,  8-H ) :   0.9525 B(  6-C ,  9-C ) :   1.0475
B(  9-C , 10-H ) :   0.9521 B(  9-C , 11-H ) :   0.9640 B(  9-C , 12-C ) :   1.0894
B( 12-C , 13-H ) :   0.9751 B( 12-C , 14-H ) :   0.9746 B( 12-C , 15-H ) :   0.9754
B( 16-S , 17-C ) :   1.1594 B( 16-S , 20-C ) :   1.1679 B( 17-C , 18-C ) :   1.5793
B( 17-C , 20-C ) :   0.1117 B( 17-C , 33-H ) :   0.9758 B( 18-C , 19-C ) :   1.2709
B( 18-C , 21-H ) :   0.9893 B( 19-C , 20-C ) :   1.5476 B( 19-C , 22-C ) :   1.0219
B( 22-C , 23-H ) :   0.9310 B( 22-C , 24-H ) :   0.9363 B( 22-C , 25-C ) :   1.0648
B( 25-C , 26-H ) :   0.9582 B( 25-C , 27-H ) :   0.9595 B( 25-C , 28-C ) :   1.0706
B( 28-C , 29-H ) :   0.9731 B( 28-C , 30-H ) :   0.9726 B( 28-C , 31-H ) :   0.9772

Dispersion correction           -0.014505571
FINAL SINGLE POINT ENERGY     -1339.867019043197

DIPOLE MOMENT
-------------
                                X             Y             Z
Electronic contribution:    -21.83719       7.91720      18.17223
Nuclear contribution   :     22.31616      -8.25332     -18.47037
                        -----------------------------------------
Total Dipole Moment    :      0.47897      -0.33611      -0.29815
                        -----------------------------------------
Magnitude (a.u.)       :      0.65672
Magnitude (Debye)      :      1.66924

Rotational constants in cm-1:     0.019818     0.008835     0.006940
Rotational constants in MHz :   594.128913   264.871637   208.053349

                             ****ORCA TERMINATED NORMALLY****
TOTAL RUN TIME: 0 days 0 hours 0 minutes 22 seconds 184 msec
