                         Program Version 4.2.1 -  RELEASE  -
|  1> ! wB97X-D3 SP def2-SVP
|  2> %pal
|  3> nprocs 24
|  4> end
|  5>
|  6> * xyz 0 1
|  7> S 	 -108.228 	 54.3941 	 -94.2078
|  8> C 	 -108.85 	 55.122 	 -95.6125
|  9> C 	 -110.006 	 55.8404 	 -95.3271
| 10> C 	 -110.263 	 55.9329 	 -93.9649
| 11> C 	 -109.403 	 55.1679 	 -93.1787
| 12> H 	 -111.063 	 56.5334 	 -93.542
| 13> C 	 -110.906 	 56.6115 	 -96.4047
| 14> H 	 -111.759 	 57.0153 	 -95.9124
| 15> H 	 -111.084 	 55.8405 	 -97.1449
| 16> C 	 -110.12 	 57.8167 	 -97.1421
| 17> H 	 -109.663 	 58.5649 	 -96.4653
| 18> H 	 -109.214 	 57.4512 	 -97.6511
| 19> C 	 -110.989 	 58.5592 	 -98.1494
| 20> H 	 -111.492 	 57.8628 	 -98.8155
| 21> H 	 -111.758 	 59.1704 	 -97.5702
| 22> H 	 -110.385 	 59.3209 	 -98.6991
| 23> S 	 -108.528 	 56.4043 	 -90.8698
| 24> C 	 -108.682 	 55.4728 	 -89.3367
| 25> C 	 -109.499 	 54.3945 	 -89.4456
| 26> C 	 -109.994 	 54.2722 	 -90.8427
| 27> C 	 -109.361 	 55.1103 	 -91.724
| 28> H 	 -109.658 	 53.8349 	 -88.565
| 29> C 	 -110.99 	 53.1865 	 -91.1915
| 30> H 	 -111.543 	 53.3735 	 -92.1011
| 31> H 	 -111.723 	 53.3563 	 -90.3004
| 32> C 	 -110.545 	 51.7233 	 -91.1843
| 33> H 	 -111.409 	 51.0259 	 -91.2597
| 34> H 	 -109.991 	 51.4359 	 -90.2727
| 35> C 	 -109.62 	 51.4689 	 -92.3211
| 36> H 	 -108.942 	 50.615 	 -92.1773
| 37> H 	 -108.983 	 52.2974 	 -92.4767
| 38> H 	 -110.064 	 51.2389 	 -93.2678
| 39> H 	 -108.663 	 54.804 	 -96.627
| 40> H 	 -108.269 	 55.7735 	 -88.3871
| 41> *
| 42>
| 43>                          ****END OF INPUT****

CARTESIAN COORDINATES (ANGSTROEM)
---------------------------------
  S    -108.228000   54.394100  -94.207800
  C    -108.850000   55.122000  -95.612500
  C    -110.006000   55.840400  -95.327100
  C    -110.263000   55.932900  -93.964900
  C    -109.403000   55.167900  -93.178700
  H    -111.063000   56.533400  -93.542000
  C    -110.906000   56.611500  -96.404700
  H    -111.759000   57.015300  -95.912400
  H    -111.084000   55.840500  -97.144900
  C    -110.120000   57.816700  -97.142100
  H    -109.663000   58.564900  -96.465300
  H    -109.214000   57.451200  -97.651100
  C    -110.989000   58.559200  -98.149400
  H    -111.492000   57.862800  -98.815500
  H    -111.758000   59.170400  -97.570200
  H    -110.385000   59.320900  -98.699100
  S    -108.528000   56.404300  -90.869800
  C    -108.682000   55.472800  -89.336700
  C    -109.499000   54.394500  -89.445600
  C    -109.994000   54.272200  -90.842700
  C    -109.361000   55.110300  -91.724000
  H    -109.658000   53.834900  -88.565000
  C    -110.990000   53.186500  -91.191500
  H    -111.543000   53.373500  -92.101100
  H    -111.723000   53.356300  -90.300400
  C    -110.545000   51.723300  -91.184300
  H    -111.409000   51.025900  -91.259700
  H    -109.991000   51.435900  -90.272700
  C    -109.620000   51.468900  -92.321100
  H    -108.942000   50.615000  -92.177300
  H    -108.983000   52.297400  -92.476700
  H    -110.064000   51.238900  -93.267800
  H    -108.663000   54.804000  -96.627000
  H    -108.269000   55.773500  -88.387100

 Total Charge           Charge          ....    0
 Multiplicity           Mult            ....    1
 Number of Electrons    NEL             ....  134
 Basis Dimension        Dim             ....  322

ORBITAL ENERGIES
----------------

  NO   OCC          E(Eh)            E(eV)
   0   2.0000     -88.970393     -2421.0075
   1   2.0000     -88.960049     -2420.7260
   2   2.0000     -10.327541      -281.0267
   3   2.0000     -10.324394      -280.9410
   4   2.0000     -10.317810      -280.7619
   5   2.0000     -10.310005      -280.5495
   6   2.0000     -10.309916      -280.5471
   7   2.0000     -10.302453      -280.3440
   8   2.0000     -10.299883      -280.2741
   9   2.0000     -10.295315      -280.1498
  10   2.0000     -10.294962      -280.1401
  11   2.0000     -10.291774      -280.0534
  12   2.0000     -10.291705      -280.0515
  13   2.0000     -10.285269      -279.8764
  14   2.0000     -10.284680      -279.8604
  15   2.0000     -10.259318      -279.1702
  16   2.0000      -8.085155      -220.0083
  17   2.0000      -8.074346      -219.7141
  18   2.0000      -6.043516      -164.4524
  19   2.0000      -6.039410      -164.3407
  20   2.0000      -6.036309      -164.2563
  21   2.0000      -6.033089      -164.1687
  22   2.0000      -6.029168      -164.0620
  23   2.0000      -6.024619      -163.9382
  24   2.0000      -1.008553       -27.4441
  25   2.0000      -0.982937       -26.7471
  26   2.0000      -0.908686       -24.7266
  27   2.0000      -0.898112       -24.4389
  28   2.0000      -0.871082       -23.7033
  29   2.0000      -0.852462       -23.1967
  30   2.0000      -0.843225       -22.9453
  31   2.0000      -0.816520       -22.2187
  32   2.0000      -0.780045       -21.2261
  33   2.0000      -0.766123       -20.8473
  34   2.0000      -0.706464       -19.2239
  35   2.0000      -0.694601       -18.9010
  36   2.0000      -0.689616       -18.7654
  37   2.0000      -0.658124       -17.9085
  38   2.0000      -0.642919       -17.4947
  39   2.0000      -0.617763       -16.8102
  40   2.0000      -0.594526       -16.1779
  41   2.0000      -0.572479       -15.5779
  42   2.0000      -0.559635       -15.2284
  43   2.0000      -0.553170       -15.0525
  44   2.0000      -0.539858       -14.6903
  45   2.0000      -0.524637       -14.2761
  46   2.0000      -0.514005       -13.9868
  47   2.0000      -0.508880       -13.8473
  48   2.0000      -0.502966       -13.6864
  49   2.0000      -0.496478       -13.5099
  50   2.0000      -0.485909       -13.2223
  51   2.0000      -0.480304       -13.0697
  52   2.0000      -0.474545       -12.9130
  53   2.0000      -0.460728       -12.5370
  54   2.0000      -0.458139       -12.4666
  55   2.0000      -0.444501       -12.0955
  56   2.0000      -0.441433       -12.0120
  57   2.0000      -0.433959       -11.8086
  58   2.0000      -0.431019       -11.7286
  59   2.0000      -0.420665       -11.4469
  60   2.0000      -0.418418       -11.3857
  61   2.0000      -0.414523       -11.2797
  62   2.0000      -0.408068       -11.1041
  63   2.0000      -0.338930        -9.2228
  64   2.0000      -0.330581        -8.9956
  65   2.0000      -0.315087        -8.5739
  66   2.0000      -0.313015        -8.5176
  67   0.0000       0.044175         1.2021
  68   0.0000       0.051206         1.3934
  69   0.0000       0.102091         2.7780
  70   0.0000       0.121805         3.3145
  71   0.0000       0.130956         3.5635

MULLIKEN ATOMIC CHARGES
-----------------------
   0 S :    0.137236
   1 C :   -0.107963
   2 C :   -0.117886
   3 C :    0.045581
   4 C :   -0.189620
   5 H :    0.013811
   6 C :    0.092573
   7 H :    0.021149
   8 H :    0.036277
   9 C :   -0.103377
  10 H :    0.034257
  11 H :    0.025229
  12 C :   -0.063808
  13 H :    0.035168
  14 H :    0.036527
  15 H :    0.043207
  16 S :    0.096708
  17 C :   -0.084609
  18 C :   -0.015787
  19 C :   -0.019571
  20 C :   -0.166544
  21 H :    0.012913
  22 C :    0.025841
  23 H :    0.030851
  24 H :    0.040627
  25 C :   -0.038570
  26 H :    0.034606
  27 H :    0.025949
  28 C :   -0.021422
  29 H :    0.020247
  30 H :    0.003175
  31 H :    0.017899
  32 H :    0.049610
  33 H :    0.049717
Sum of atomic charges:    0.0000000

LOEWDIN ATOMIC CHARGES
----------------------
   0 S :    0.457946
   1 C :   -0.220635
   2 C :   -0.066739
   3 C :   -0.061182
   4 C :   -0.207862
   5 H :    0.033793
   6 C :   -0.013973
   7 H :    0.023443
   8 H :    0.031602
   9 C :   -0.049017
  10 H :    0.027052
  11 H :    0.021141
  12 C :   -0.073113
  13 H :    0.021886
  14 H :    0.029737
  15 H :    0.031763
  16 S :    0.366459
  17 C :   -0.156912
  18 C :   -0.065191
  19 C :   -0.046069
  20 C :   -0.203676
  21 H :    0.029845
  22 C :   -0.038325
  23 H :    0.029383
  24 H :    0.044218
  25 C :   -0.043796
  26 H :    0.029548
  27 H :    0.025812
  28 C :   -0.068095
  29 H :    0.027215
  30 H :    0.007759
  31 H :    0.020611
  32 H :    0.028665
  33 H :    0.026706

  Mayer bond orders larger than 0.100000
B(  0-S ,  1-C ) :   1.1773 B(  0-S ,  4-C ) :   1.1844 B(  1-C ,  2-C ) :   1.5648
B(  1-C ,  4-C ) :   0.1109 B(  1-C , 32-H ) :   0.9618 B(  2-C ,  3-C ) :   1.3098
B(  2-C ,  6-C ) :   1.0076 B(  3-C ,  4-C ) :   1.5308 B(  3-C ,  5-H ) :   0.9961
B(  4-C , 20-C ) :   1.0265 B(  6-C ,  7-H ) :   0.9518 B(  6-C ,  8-H ) :   0.9392
B(  6-C ,  9-C ) :   1.0513 B(  9-C , 10-H ) :   0.9594 B(  9-C , 11-H ) :   0.9568
B(  9-C , 12-C ) :   1.0822 B( 12-C , 13-H ) :   0.9750 B( 12-C , 14-H ) :   0.9759
B( 12-C , 15-H ) :   0.9727 B( 16-S , 17-C ) :   1.1184 B( 16-S , 20-C ) :   1.1087
B( 17-C , 18-C ) :   1.6978 B( 17-C , 33-H ) :   0.9648 B( 18-C , 19-C ) :   1.1449
B( 18-C , 21-H ) :   0.9967 B( 19-C , 20-C ) :   1.6558 B( 19-C , 22-C ) :   1.0526
B( 22-C , 23-H ) :   0.9379 B( 22-C , 24-H ) :   0.9288 B( 22-C , 25-C ) :   1.0737
B( 25-C , 26-H ) :   0.9525 B( 25-C , 27-H ) :   0.9560 B( 25-C , 28-C ) :   1.0762
B( 28-C , 29-H ) :   0.9694 B( 28-C , 30-H ) :   0.9726 B( 28-C , 31-H ) :   0.9721

Dispersion correction           -0.014771329
FINAL SINGLE POINT ENERGY     -1339.869323862416

DIPOLE MOMENT
-------------
                                X             Y             Z
Electronic contribution:     12.20016       2.58914      13.83256
Nuclear contribution   :    -12.63581      -2.71392     -13.92852
                        -----------------------------------------
Total Dipole Moment    :     -0.43564      -0.12478      -0.09596
                        -----------------------------------------
Magnitude (a.u.)       :      0.46321
Magnitude (Debye)      :      1.17739

Rotational constants in cm-1:     0.022840     0.007463     0.006515
Rotational constants in MHz :   684.724346   223.741534   195.319323

                             ****ORCA TERMINATED NORMALLY****
TOTAL RUN TIME: 0 days 0 hours 0 minutes 20 seconds 301 msec
