                         Program Version 4.2.1 -  RELEASE  -
|  1> ! wB97X-D3 SP def2-SVP
|  2> %pal
|  3> nprocs 24
|  4> end
|  5>
|  6> * xyz 0 1
|  7> S 	 -99.7186 	 18.241 	 -123.093
|  8> C 	 -99.3114 	 18.568 	 -121.443
|  9> C 	 -100.31 	 18.1624 	 -120.558
| 10> C 	 -101.442 	 17.6065 	 -121.217
| 11> C 	 -101.334 	 17.5695 	 -122.607
| 12> H 	 -102.39 	 17.3359 	 -120.788
| 13> C 	 -100.371 	 18.4907 	 -119.11
| 14> H 	 -99.3753 	 18.7969 	 -118.8
| 15> H 	 -100.548 	 17.5939 	 -118.533
| 16> C 	 -101.36 	 19.6022 	 -118.842
| 17> H 	 -101.429 	 20.2183 	 -119.704
| 18> H 	 -102.342 	 19.0868 	 -118.871
| 19> C 	 -101.124 	 20.2338 	 -117.41
| 20> H 	 -100.201 	 20.8198 	 -117.354
| 21> H 	 -101.958 	 20.861 	 -117.12
| 22> H 	 -101.06 	 19.3717 	 -116.672
| 23> S 	 -103.003 	 18.6269 	 -124.541
| 24> C 	 -104.292 	 17.6343 	 -125.303
| 25> C 	 -104.207 	 16.3526 	 -124.853
| 26> C 	 -103.193 	 16.1407 	 -123.845
| 27> C 	 -102.36 	 17.2972 	 -123.628
| 28> H 	 -104.95 	 15.6095 	 -125.067
| 29> C 	 -102.995 	 14.8559 	 -123.011
| 30> H 	 -102.128 	 14.8713 	 -122.317
| 31> H 	 -102.786 	 14.0456 	 -123.675
| 32> C 	 -104.238 	 14.2558 	 -122.194
| 33> H 	 -105.122 	 14.1396 	 -122.826
| 34> H 	 -104.589 	 14.9475 	 -121.459
| 35> C 	 -103.819 	 12.8715 	 -121.556
| 36> H 	 -104.095 	 12.0904 	 -122.217
| 37> H 	 -104.393 	 12.5162 	 -120.704
| 38> H 	 -102.702 	 12.7955 	 -121.347
| 39> H 	 -98.5086 	 19.0715 	 -121.06
| 40> H 	 -105.059 	 18.0773 	 -125.866
| 41> *
| 42>
| 43>                          ****END OF INPUT****

CARTESIAN COORDINATES (ANGSTROEM)
---------------------------------
  S    -99.718600   18.241000  -123.093000
  C    -99.311400   18.568000  -121.443000
  C    -100.310000   18.162400  -120.558000
  C    -101.442000   17.606500  -121.217000
  C    -101.334000   17.569500  -122.607000
  H    -102.390000   17.335900  -120.788000
  C    -100.371000   18.490700  -119.110000
  H    -99.375300   18.796900  -118.800000
  H    -100.548000   17.593900  -118.533000
  C    -101.360000   19.602200  -118.842000
  H    -101.429000   20.218300  -119.704000
  H    -102.342000   19.086800  -118.871000
  C    -101.124000   20.233800  -117.410000
  H    -100.201000   20.819800  -117.354000
  H    -101.958000   20.861000  -117.120000
  H    -101.060000   19.371700  -116.672000
  S    -103.003000   18.626900  -124.541000
  C    -104.292000   17.634300  -125.303000
  C    -104.207000   16.352600  -124.853000
  C    -103.193000   16.140700  -123.845000
  C    -102.360000   17.297200  -123.628000
  H    -104.950000   15.609500  -125.067000
  C    -102.995000   14.855900  -123.011000
  H    -102.128000   14.871300  -122.317000
  H    -102.786000   14.045600  -123.675000
  C    -104.238000   14.255800  -122.194000
  H    -105.122000   14.139600  -122.826000
  H    -104.589000   14.947500  -121.459000
  C    -103.819000   12.871500  -121.556000
  H    -104.095000   12.090400  -122.217000
  H    -104.393000   12.516200  -120.704000
  H    -102.702000   12.795500  -121.347000
  H    -98.508600   19.071500  -121.060000
  H    -105.059000   18.077300  -125.866000

 Total Charge           Charge          ....    0
 Multiplicity           Mult            ....    1
 Number of Electrons    NEL             ....  134
 Basis Dimension        Dim             ....  322

ORBITAL ENERGIES
----------------

  NO   OCC          E(Eh)            E(eV)
   0   2.0000     -88.966611     -2420.9046
   1   2.0000     -88.964833     -2420.8562
   2   2.0000     -10.336523      -281.2711
   3   2.0000     -10.332569      -281.1635
   4   2.0000     -10.320835      -280.8442
   5   2.0000     -10.314398      -280.6690
   6   2.0000     -10.308320      -280.5037
   7   2.0000     -10.298907      -280.2475
   8   2.0000     -10.297228      -280.2018
   9   2.0000     -10.296466      -280.1811
  10   2.0000     -10.296204      -280.1739
  11   2.0000     -10.293562      -280.1021
  12   2.0000     -10.289222      -279.9840
  13   2.0000     -10.286524      -279.9106
  14   2.0000     -10.284766      -279.8627
  15   2.0000     -10.283443      -279.8267
  16   2.0000      -8.080503      -219.8817
  17   2.0000      -8.079155      -219.8450
  18   2.0000      -6.039038      -164.3306
  19   2.0000      -6.037690      -164.2939
  20   2.0000      -6.035078      -164.2228
  21   2.0000      -6.033591      -164.1824
  22   2.0000      -6.031330      -164.1208
  23   2.0000      -6.030012      -164.0850
  24   2.0000      -0.998984       -27.1837
  25   2.0000      -0.979587       -26.6559
  26   2.0000      -0.914105       -24.8741
  27   2.0000      -0.894873       -24.3507
  28   2.0000      -0.869860       -23.6701
  29   2.0000      -0.845543       -23.0084
  30   2.0000      -0.840921       -22.8826
  31   2.0000      -0.817816       -22.2539
  32   2.0000      -0.777427       -21.1549
  33   2.0000      -0.766768       -20.8648
  34   2.0000      -0.712966       -19.4008
  35   2.0000      -0.705551       -19.1990
  36   2.0000      -0.700088       -19.0504
  37   2.0000      -0.658956       -17.9311
  38   2.0000      -0.646490       -17.5919
  39   2.0000      -0.619958       -16.8699
  40   2.0000      -0.601334       -16.3631
  41   2.0000      -0.574345       -15.6287
  42   2.0000      -0.558453       -15.1963
  43   2.0000      -0.552015       -15.0211
  44   2.0000      -0.526016       -14.3136
  45   2.0000      -0.522437       -14.2162
  46   2.0000      -0.511776       -13.9261
  47   2.0000      -0.508427       -13.8350
  48   2.0000      -0.504330       -13.7235
  49   2.0000      -0.499904       -13.6031
  50   2.0000      -0.490076       -13.3356
  51   2.0000      -0.474424       -12.9097
  52   2.0000      -0.469759       -12.7828
  53   2.0000      -0.466670       -12.6987
  54   2.0000      -0.456399       -12.4192
  55   2.0000      -0.452231       -12.3058
  56   2.0000      -0.444407       -12.0929
  57   2.0000      -0.441403       -12.0112
  58   2.0000      -0.436533       -11.8787
  59   2.0000      -0.423765       -11.5312
  60   2.0000      -0.421040       -11.4571
  61   2.0000      -0.416320       -11.3286
  62   2.0000      -0.413234       -11.2447
  63   2.0000      -0.349436        -9.5086
  64   2.0000      -0.330423        -8.9913
  65   2.0000      -0.321482        -8.7480
  66   2.0000      -0.295090        -8.0298
  67   0.0000       0.029669         0.8073
  68   0.0000       0.059686         1.6241
  69   0.0000       0.116452         3.1688
  70   0.0000       0.122749         3.3402
  71   0.0000       0.124534         3.3887

MULLIKEN ATOMIC CHARGES
-----------------------
   0 S :    0.108281
   1 C :   -0.052386
   2 C :   -0.130595
   3 C :    0.053314
   4 C :   -0.184977
   5 H :    0.013763
   6 C :    0.085708
   7 H :    0.000104
   8 H :    0.027726
   9 C :   -0.074460
  10 H :    0.033351
  11 H :    0.025176
  12 C :   -0.055951
  13 H :    0.044528
  14 H :    0.040366
  15 H :    0.039378
  16 S :    0.097368
  17 C :   -0.085511
  18 C :    0.007028
  19 C :   -0.033067
  20 C :   -0.143522
  21 H :    0.018604
  22 C :    0.030276
  23 H :    0.041686
  24 H :    0.025457
  25 C :   -0.072188
  26 H :    0.025878
  27 H :    0.025465
  28 C :   -0.068663
  29 H :    0.022115
  30 H :    0.029796
  31 H :    0.049257
  32 H :    0.005788
  33 H :    0.050907
Sum of atomic charges:    0.0000000

LOEWDIN ATOMIC CHARGES
----------------------
   0 S :    0.391126
   1 C :   -0.188433
   2 C :   -0.063789
   3 C :   -0.052587
   4 C :   -0.176888
   5 H :    0.031388
   6 C :   -0.034264
   7 H :    0.022470
   8 H :    0.029418
   9 C :   -0.038637
  10 H :    0.021152
  11 H :    0.026923
  12 C :   -0.064389
  13 H :    0.026105
  14 H :    0.025131
  15 H :    0.034210
  16 S :    0.399115
  17 C :   -0.159042
  18 C :   -0.067482
  19 C :   -0.050013
  20 C :   -0.214014
  21 H :    0.031114
  22 C :   -0.034337
  23 H :    0.034438
  24 H :    0.027853
  25 C :   -0.036058
  26 H :    0.021200
  27 H :    0.014914
  28 C :   -0.075087
  29 H :    0.021799
  30 H :    0.027871
  31 H :    0.035247
  32 H :    0.011330
  33 H :    0.022217

  Mayer bond orders larger than 0.100000
B(  0-S ,  1-C ) :   1.1390 B(  0-S ,  4-C ) :   1.1408 B(  1-C ,  2-C ) :   1.6138
B(  1-C , 32-H ) :   0.9705 B(  2-C ,  3-C ) :   1.2265 B(  2-C ,  6-C ) :   1.0457
B(  3-C ,  4-C ) :   1.5823 B(  3-C ,  5-H ) :   0.9952 B(  4-C , 20-C ) :   1.0273
B(  6-C ,  7-H ) :   0.9398 B(  6-C ,  8-H ) :   0.9278 B(  6-C ,  9-C ) :   1.0476
B(  9-C , 10-H ) :   0.9643 B(  9-C , 11-H ) :   0.9495 B(  9-C , 12-C ) :   1.0668
B( 12-C , 13-H ) :   0.9789 B( 12-C , 14-H ) :   0.9770 B( 12-C , 15-H ) :   0.9729
B( 16-S , 17-C ) :   1.1523 B( 16-S , 20-C ) :   1.1558 B( 17-C , 18-C ) :   1.5890
B( 17-C , 33-H ) :   0.9776 B( 18-C , 19-C ) :   1.2585 B( 18-C , 21-H ) :   0.9895
B( 19-C , 20-C ) :   1.5594 B( 19-C , 22-C ) :   1.0422 B( 22-C , 23-H ) :   0.9437
B( 22-C , 24-H ) :   0.9396 B( 22-C , 25-C ) :   1.0422 B( 25-C , 26-H ) :   0.9597
B( 25-C , 27-H ) :   0.9649 B( 25-C , 28-C ) :   1.0582 B( 28-C , 29-H ) :   0.9753
B( 28-C , 30-H ) :   0.9745 B( 28-C , 31-H ) :   0.9782

Dispersion correction           -0.013769386
FINAL SINGLE POINT ENERGY     -1339.866583217606

DIPOLE MOMENT
-------------
                                X             Y             Z
Electronic contribution:      7.01337      10.62466     -24.22824
Nuclear contribution   :     -7.53590     -10.85210      24.79791
                        -----------------------------------------
Total Dipole Moment    :     -0.52253      -0.22744       0.56967
                        -----------------------------------------
Magnitude (a.u.)       :      0.80578
Magnitude (Debye)      :      2.04814

Rotational constants in cm-1:     0.016275     0.008228     0.006711
Rotational constants in MHz :   487.909135   246.681561   201.202364

                             ****ORCA TERMINATED NORMALLY****
TOTAL RUN TIME: 0 days 0 hours 0 minutes 20 seconds 990 msec
