                         Program Version 4.2.1 -  RELEASE  -
|  1> ! wB97X-D3 SP def2-SVP
|  2> %pal
|  3> nprocs 24
|  4> end
|  5>
|  6> * xyz 0 1
|  7> S 	 -0.999125 	 -16.3841 	 -102.255
|  8> C 	 0.185933 	 -17.125 	 -101.315
|  9> C 	 1.40796 	 -17.21 	 -101.986
| 10> C 	 1.33674 	 -16.5695 	 -103.256
| 11> C 	 0.153003 	 -15.9527 	 -103.545
| 12> H 	 2.15754 	 -16.5139 	 -104.045
| 13> C 	 2.7079 	 -17.8652 	 -101.436
| 14> H 	 2.51837 	 -18.143 	 -100.342
| 15> H 	 3.54073 	 -17.1481 	 -101.356
| 16> C 	 3.22185 	 -19.0461 	 -102.313
| 17> H 	 2.41524 	 -19.7752 	 -102.299
| 18> H 	 3.36458 	 -18.7078 	 -103.3
| 19> C 	 4.53791 	 -19.7182 	 -101.743
| 20> H 	 4.33492 	 -19.8966 	 -100.706
| 21> H 	 4.88593 	 -20.6181 	 -102.298
| 22> H 	 5.30911 	 -18.9591 	 -101.889
| 23> S 	 -0.0645289 	 -16.1906 	 -106.295
| 24> C 	 -0.649297 	 -14.81 	 -107.22
| 25> C 	 -1.00385 	 -13.8012 	 -106.399
| 26> C 	 -0.708081 	 -14.0211 	 -105.031
| 27> C 	 -0.211447 	 -15.2838 	 -104.785
| 28> H 	 -1.58713 	 -12.9611 	 -106.801
| 29> C 	 -1.12276 	 -13.0554 	 -103.915
| 30> H 	 -0.528006 	 -12.1102 	 -103.915
| 31> H 	 -0.797029 	 -13.6242 	 -103.001
| 32> C 	 -2.67272 	 -12.8197 	 -103.773
| 33> H 	 -3.05978 	 -13.7994 	 -103.652
| 34> H 	 -3.11034 	 -12.4222 	 -104.681
| 35> C 	 -3.11835 	 -11.8291 	 -102.59
| 36> H 	 -2.58284 	 -10.8906 	 -102.629
| 37> H 	 -2.98764 	 -12.2782 	 -101.638
| 38> H 	 -4.18273 	 -11.5992 	 -102.734
| 39> H 	 0.0501553 	 -17.5998 	 -100.382
| 40> H 	 -0.875995 	 -14.8067 	 -108.293
| 41> *
| 42>
| 43>                          ****END OF INPUT****

CARTESIAN COORDINATES (ANGSTROEM)
---------------------------------
  S     -0.999125  -16.384100  -102.255000
  C      0.185933  -17.125000  -101.315000
  C      1.407960  -17.210000  -101.986000
  C      1.336740  -16.569500  -103.256000
  C      0.153003  -15.952700  -103.545000
  H      2.157540  -16.513900  -104.045000
  C      2.707900  -17.865200  -101.436000
  H      2.518370  -18.143000  -100.342000
  H      3.540730  -17.148100  -101.356000
  C      3.221850  -19.046100  -102.313000
  H      2.415240  -19.775200  -102.299000
  H      3.364580  -18.707800  -103.300000
  C      4.537910  -19.718200  -101.743000
  H      4.334920  -19.896600  -100.706000
  H      4.885930  -20.618100  -102.298000
  H      5.309110  -18.959100  -101.889000
  S     -0.064529  -16.190600  -106.295000
  C     -0.649297  -14.810000  -107.220000
  C     -1.003850  -13.801200  -106.399000
  C     -0.708081  -14.021100  -105.031000
  C     -0.211447  -15.283800  -104.785000
  H     -1.587130  -12.961100  -106.801000
  C     -1.122760  -13.055400  -103.915000
  H     -0.528006  -12.110200  -103.915000
  H     -0.797029  -13.624200  -103.001000
  C     -2.672720  -12.819700  -103.773000
  H     -3.059780  -13.799400  -103.652000
  H     -3.110340  -12.422200  -104.681000
  C     -3.118350  -11.829100  -102.590000
  H     -2.582840  -10.890600  -102.629000
  H     -2.987640  -12.278200  -101.638000
  H     -4.182730  -11.599200  -102.734000
  H      0.050155  -17.599800  -100.382000
  H     -0.875995  -14.806700  -108.293000

 Total Charge           Charge          ....    0
 Multiplicity           Mult            ....    1
 Number of Electrons    NEL             ....  134
 Basis Dimension        Dim             ....  322

ORBITAL ENERGIES
----------------

  NO   OCC          E(Eh)            E(eV)
   0   2.0000     -88.969004     -2420.9697
   1   2.0000     -88.965095     -2420.8633
   2   2.0000     -10.329344      -281.0757
   3   2.0000     -10.327407      -281.0230
   4   2.0000     -10.317141      -280.7437
   5   2.0000     -10.312784      -280.6251
   6   2.0000     -10.304965      -280.4123
   7   2.0000     -10.303571      -280.3744
   8   2.0000     -10.301927      -280.3297
   9   2.0000     -10.299023      -280.2507
  10   2.0000     -10.294838      -280.1368
  11   2.0000     -10.290319      -280.0138
  12   2.0000     -10.287763      -279.9443
  13   2.0000     -10.286229      -279.9025
  14   2.0000     -10.283066      -279.8164
  15   2.0000     -10.278153      -279.6828
  16   2.0000      -8.083966      -219.9759
  17   2.0000      -8.079487      -219.8540
  18   2.0000      -6.042400      -164.4221
  19   2.0000      -6.038377      -164.3126
  20   2.0000      -6.038093      -164.3049
  21   2.0000      -6.034836      -164.2162
  22   2.0000      -6.034097      -164.1961
  23   2.0000      -6.030094      -164.0872
  24   2.0000      -1.009862       -27.4797
  25   2.0000      -0.988965       -26.9111
  26   2.0000      -0.902856       -24.5680
  27   2.0000      -0.894711       -24.3463
  28   2.0000      -0.875416       -23.8213
  29   2.0000      -0.847187       -23.0531
  30   2.0000      -0.842173       -22.9167
  31   2.0000      -0.816958       -22.2305
  32   2.0000      -0.777231       -21.1495
  33   2.0000      -0.768010       -20.8986
  34   2.0000      -0.709151       -19.2970
  35   2.0000      -0.699775       -19.0419
  36   2.0000      -0.693521       -18.8717
  37   2.0000      -0.662620       -18.0308
  38   2.0000      -0.637961       -17.3598
  39   2.0000      -0.615886       -16.7591
  40   2.0000      -0.591530       -16.0963
  41   2.0000      -0.569970       -15.5097
  42   2.0000      -0.563837       -15.3428
  43   2.0000      -0.558689       -15.2027
  44   2.0000      -0.523321       -14.2403
  45   2.0000      -0.521128       -14.1806
  46   2.0000      -0.513719       -13.9790
  47   2.0000      -0.506793       -13.7905
  48   2.0000      -0.501110       -13.6359
  49   2.0000      -0.498140       -13.5551
  50   2.0000      -0.491423       -13.3723
  51   2.0000      -0.476140       -12.9564
  52   2.0000      -0.468696       -12.7539
  53   2.0000      -0.468221       -12.7409
  54   2.0000      -0.464412       -12.6373
  55   2.0000      -0.447465       -12.1761
  56   2.0000      -0.443892       -12.0789
  57   2.0000      -0.434758       -11.8304
  58   2.0000      -0.432772       -11.7763
  59   2.0000      -0.423677       -11.5288
  60   2.0000      -0.421208       -11.4616
  61   2.0000      -0.418168       -11.3789
  62   2.0000      -0.413929       -11.2636
  63   2.0000      -0.346697        -9.4341
  64   2.0000      -0.335509        -9.1297
  65   2.0000      -0.327540        -8.9128
  66   2.0000      -0.300263        -8.1706
  67   0.0000       0.034446         0.9373
  68   0.0000       0.064780         1.7628
  69   0.0000       0.107062         2.9133
  70   0.0000       0.119590         3.2542
  71   0.0000       0.130622         3.5544

MULLIKEN ATOMIC CHARGES
-----------------------
   0 S :    0.122034
   1 C :   -0.091459
   2 C :   -0.083399
   3 C :   -0.002110
   4 C :   -0.165895
   5 H :    0.041958
   6 C :    0.023345
   7 H :    0.025595
   8 H :    0.034928
   9 C :   -0.078239
  10 H :    0.030493
  11 H :    0.025944
  12 C :   -0.048477
  13 H :    0.033885
  14 H :    0.050017
  15 H :    0.030327
  16 S :    0.106370
  17 C :   -0.097297
  18 C :   -0.037255
  19 C :   -0.022022
  20 C :   -0.166250
  21 H :    0.028692
  22 C :    0.038261
  23 H :    0.038848
  24 H :    0.027258
  25 C :   -0.072254
  26 H :    0.023165
  27 H :    0.025302
  28 C :   -0.042502
  29 H :    0.031907
  30 H :    0.034601
  31 H :    0.036818
  32 H :    0.033398
  33 H :    0.064013
Sum of atomic charges:    0.0000000

LOEWDIN ATOMIC CHARGES
----------------------
   0 S :    0.426880
   1 C :   -0.205937
   2 C :   -0.068619
   3 C :   -0.065222
   4 C :   -0.195461
   5 H :    0.042585
   6 C :   -0.035112
   7 H :    0.032061
   8 H :    0.028287
   9 C :   -0.034358
  10 H :    0.021827
  11 H :    0.014930
  12 C :   -0.063040
  13 H :    0.022394
  14 H :    0.032653
  15 H :    0.024486
  16 S :    0.393222
  17 C :   -0.180245
  18 C :   -0.076178
  19 C :   -0.056782
  20 C :   -0.194590
  21 H :    0.037002
  22 C :   -0.039111
  23 H :    0.031327
  24 H :    0.027564
  25 C :   -0.031993
  26 H :    0.018775
  27 H :    0.017556
  28 C :   -0.059025
  29 H :    0.024048
  30 H :    0.020543
  31 H :    0.029845
  32 H :    0.023449
  33 H :    0.036244

  Mayer bond orders larger than 0.100000
B(  0-S ,  1-C ) :   1.1667 B(  0-S ,  4-C ) :   1.1332 B(  1-C ,  2-C ) :   1.5935
B(  1-C , 32-H ) :   0.9686 B(  2-C ,  3-C ) :   1.2493 B(  2-C ,  6-C ) :   1.0203
B(  3-C ,  4-C ) :   1.5928 B(  3-C ,  5-H ) :   0.9821 B(  4-C , 20-C ) :   1.0358
B(  6-C ,  7-H ) :   0.9444 B(  6-C ,  8-H ) :   0.9473 B(  6-C ,  9-C ) :   1.0444
B(  9-C , 10-H ) :   0.9597 B(  9-C , 11-H ) :   0.9611 B(  9-C , 12-C ) :   1.0722
B( 12-C , 13-H ) :   0.9777 B( 12-C , 14-H ) :   0.9764 B( 12-C , 15-H ) :   0.9777
B( 16-S , 17-C ) :   1.1407 B( 16-S , 20-C ) :   1.1320 B( 17-C , 18-C ) :   1.6392
B( 17-C , 33-H ) :   0.9616 B( 18-C , 19-C ) :   1.2269 B( 18-C , 21-H ) :   0.9847
B( 19-C , 20-C ) :   1.6060 B( 19-C , 22-C ) :   1.0481 B( 22-C , 23-H ) :   0.9349
B( 22-C , 24-H ) :   0.9333 B( 22-C , 25-C ) :   1.0466 B( 25-C , 26-H ) :   0.9559
B( 25-C , 27-H ) :   0.9636 B( 25-C , 28-C ) :   1.0732 B( 28-C , 29-H ) :   0.9774
B( 28-C , 30-H ) :   0.9804 B( 28-C , 31-H ) :   0.9774

Dispersion correction           -0.013874549
FINAL SINGLE POINT ENERGY     -1339.887231763506

DIPOLE MOMENT
-------------
                                X             Y             Z
Electronic contribution:     -6.68768      -2.58245     -11.41254
Nuclear contribution   :      6.75791       2.65548      11.50014
                        -----------------------------------------
Total Dipole Moment    :      0.07024       0.07303       0.08759
                        -----------------------------------------
Magnitude (a.u.)       :      0.13394
Magnitude (Debye)      :      0.34044

Rotational constants in cm-1:     0.021555     0.007456     0.005949
Rotational constants in MHz :   646.206156   223.517859   178.344977

                             ****ORCA TERMINATED NORMALLY****
TOTAL RUN TIME: 0 days 0 hours 0 minutes 20 seconds 675 msec
