                         Program Version 4.2.1 -  RELEASE  -
|  1> ! wB97X-D3 SP def2-SVP
|  2> %pal
|  3> nprocs 24
|  4> end
|  5>
|  6> * xyz 0 1
|  7> S 	 -34.0565 	 7.70074 	 -0.0424664
|  8> C 	 -35.3799 	 6.85347 	 0.613413
|  9> C 	 -35.4858 	 7.07683 	 1.95865
| 10> C 	 -34.3403 	 7.68482 	 2.51889
| 11> C 	 -33.3744 	 8.05835 	 1.57596
| 12> H 	 -34.2165 	 7.77983 	 3.56439
| 13> C 	 -36.5899 	 6.65149 	 2.84543
| 14> H 	 -36.1309 	 6.70372 	 3.79173
| 15> H 	 -36.9224 	 5.64933 	 2.67351
| 16> C 	 -37.8457 	 7.55817 	 2.92331
| 17> H 	 -38.4852 	 7.41347 	 2.06361
| 18> H 	 -38.6145 	 7.32526 	 3.62475
| 19> C 	 -37.5375 	 9.05589 	 2.9625
| 20> H 	 -36.8968 	 9.30258 	 3.8171
| 21> H 	 -37.102 	 9.34516 	 2.00364
| 22> H 	 -38.3684 	 9.73235 	 2.94712
| 23> S 	 -31.0288 	 8.46116 	 0.479797
| 24> C 	 -29.9009 	 9.54244 	 1.16077
| 25> C 	 -30.3704 	 10.2319 	 2.25558
| 26> C 	 -31.6794 	 9.78564 	 2.6415
| 27> C 	 -32.1767 	 8.826 	 1.72241
| 28> H 	 -29.682 	 10.9634 	 2.68255
| 29> C 	 -32.3305 	 10.3097 	 3.88037
| 30> H 	 -33.259 	 9.77302 	 4.07224
| 31> H 	 -32.6565 	 11.2686 	 3.65494
| 32> C 	 -31.4919 	 10.154 	 5.09939
| 33> H 	 -31.7755 	 10.821 	 5.85967
| 34> H 	 -30.4037 	 10.3969 	 4.98521
| 35> C 	 -31.6878 	 8.73746 	 5.66494
| 36> H 	 -31.3475 	 8.02773 	 4.8868
| 37> H 	 -32.7105 	 8.55724 	 5.93929
| 38> H 	 -31.0917 	 8.66879 	 6.52432
| 39> H 	 -36.2485 	 6.3851 	 0.0745026
| 40> H 	 -28.8991 	 9.68658 	 0.875934
| 41> *
| 42>
| 43>                          ****END OF INPUT****

CARTESIAN COORDINATES (ANGSTROEM)
---------------------------------
  S    -34.056500    7.700740   -0.042466
  C    -35.379900    6.853470    0.613413
  C    -35.485800    7.076830    1.958650
  C    -34.340300    7.684820    2.518890
  C    -33.374400    8.058350    1.575960
  H    -34.216500    7.779830    3.564390
  C    -36.589900    6.651490    2.845430
  H    -36.130900    6.703720    3.791730
  H    -36.922400    5.649330    2.673510
  C    -37.845700    7.558170    2.923310
  H    -38.485200    7.413470    2.063610
  H    -38.614500    7.325260    3.624750
  C    -37.537500    9.055890    2.962500
  H    -36.896800    9.302580    3.817100
  H    -37.102000    9.345160    2.003640
  H    -38.368400    9.732350    2.947120
  S    -31.028800    8.461160    0.479797
  C    -29.900900    9.542440    1.160770
  C    -30.370400   10.231900    2.255580
  C    -31.679400    9.785640    2.641500
  C    -32.176700    8.826000    1.722410
  H    -29.682000   10.963400    2.682550
  C    -32.330500   10.309700    3.880370
  H    -33.259000    9.773020    4.072240
  H    -32.656500   11.268600    3.654940
  C    -31.491900   10.154000    5.099390
  H    -31.775500   10.821000    5.859670
  H    -30.403700   10.396900    4.985210
  C    -31.687800    8.737460    5.664940
  H    -31.347500    8.027730    4.886800
  H    -32.710500    8.557240    5.939290
  H    -31.091700    8.668790    6.524320
  H    -36.248500    6.385100    0.074503
  H    -28.899100    9.686580    0.875934

 Total Charge           Charge          ....    0
 Multiplicity           Mult            ....    1
 Number of Electrons    NEL             ....  134
 Basis Dimension        Dim             ....  322

ORBITAL ENERGIES
----------------

  NO   OCC          E(Eh)            E(eV)
   0   2.0000     -88.965950     -2420.8866
   1   2.0000     -88.965799     -2420.8825
   2   2.0000     -10.331984      -281.1476
   3   2.0000     -10.326439      -280.9967
   4   2.0000     -10.309580      -280.5379
   5   2.0000     -10.309499      -280.5357
   6   2.0000     -10.308423      -280.5065
   7   2.0000     -10.293808      -280.1088
   8   2.0000     -10.290929      -280.0304
   9   2.0000     -10.288666      -279.9688
  10   2.0000     -10.283754      -279.8352
  11   2.0000     -10.282108      -279.7904
  12   2.0000     -10.281726      -279.7800
  13   2.0000     -10.281137      -279.7640
  14   2.0000     -10.271893      -279.5124
  15   2.0000     -10.271026      -279.4888
  16   2.0000      -8.081792      -219.9167
  17   2.0000      -8.080679      -219.8864
  18   2.0000      -6.040153      -164.3609
  19   2.0000      -6.039233      -164.3359
  20   2.0000      -6.036087      -164.2503
  21   2.0000      -6.035206      -164.2263
  22   2.0000      -6.032656      -164.1569
  23   2.0000      -6.031348      -164.1213
  24   2.0000      -1.012312       -27.5464
  25   2.0000      -0.989274       -26.9195
  26   2.0000      -0.923789       -25.1376
  27   2.0000      -0.913095       -24.8466
  28   2.0000      -0.873670       -23.7738
  29   2.0000      -0.854554       -23.2536
  30   2.0000      -0.847448       -23.0602
  31   2.0000      -0.815869       -22.2009
  32   2.0000      -0.786237       -21.3946
  33   2.0000      -0.773684       -21.0530
  34   2.0000      -0.713248       -19.4085
  35   2.0000      -0.709131       -19.2964
  36   2.0000      -0.699891       -19.0450
  37   2.0000      -0.659942       -17.9579
  38   2.0000      -0.632556       -17.2127
  39   2.0000      -0.624075       -16.9819
  40   2.0000      -0.602317       -16.3899
  41   2.0000      -0.573282       -15.5998
  42   2.0000      -0.567966       -15.4551
  43   2.0000      -0.556896       -15.1539
  44   2.0000      -0.546479       -14.8705
  45   2.0000      -0.534674       -14.5492
  46   2.0000      -0.519753       -14.1432
  47   2.0000      -0.510266       -13.8850
  48   2.0000      -0.502977       -13.6867
  49   2.0000      -0.501886       -13.6570
  50   2.0000      -0.491390       -13.3714
  51   2.0000      -0.476599       -12.9689
  52   2.0000      -0.469271       -12.7695
  53   2.0000      -0.466664       -12.6986
  54   2.0000      -0.459259       -12.4971
  55   2.0000      -0.453558       -12.3419
  56   2.0000      -0.445325       -12.1179
  57   2.0000      -0.440708       -11.9923
  58   2.0000      -0.430690       -11.7197
  59   2.0000      -0.428222       -11.6525
  60   2.0000      -0.425269       -11.5722
  61   2.0000      -0.415870       -11.3164
  62   2.0000      -0.405173       -11.0253
  63   2.0000      -0.359529        -9.7833
  64   2.0000      -0.332794        -9.0558
  65   2.0000      -0.327958        -8.9242
  66   2.0000      -0.279173        -7.5967
  67   0.0000       0.021652         0.5892
  68   0.0000       0.077988         2.1222
  69   0.0000       0.108873         2.9626
  70   0.0000       0.117426         3.1953
  71   0.0000       0.132088         3.5943

MULLIKEN ATOMIC CHARGES
-----------------------
   0 S :    0.105952
   1 C :   -0.114246
   2 C :   -0.129317
   3 C :    0.012791
   4 C :   -0.103561
   5 H :   -0.006598
   6 C :    0.125470
   7 H :    0.002118
   8 H :    0.026209
   9 C :   -0.056814
  10 H :    0.003726
  11 H :    0.016369
  12 C :   -0.053809
  13 H :    0.030143
  14 H :    0.037300
  15 H :    0.019726
  16 S :    0.114029
  17 C :   -0.060357
  18 C :   -0.063738
  19 C :   -0.064254
  20 C :   -0.146924
  21 H :    0.025539
  22 C :    0.155025
  23 H :   -0.009147
  24 H :    0.015927
  25 C :   -0.088392
  26 H :    0.010821
  27 H :    0.034694
  28 C :   -0.029138
  29 H :    0.047069
  30 H :    0.025775
  31 H :    0.020629
  32 H :    0.063988
  33 H :    0.032993
Sum of atomic charges:   -0.0000000

LOEWDIN ATOMIC CHARGES
----------------------
   0 S :    0.407377
   1 C :   -0.221739
   2 C :   -0.069847
   3 C :   -0.063597
   4 C :   -0.179552
   5 H :    0.020059
   6 C :   -0.023031
   7 H :    0.024545
   8 H :    0.031325
   9 C :   -0.043872
  10 H :    0.019783
  11 H :    0.021067
  12 C :   -0.068940
  13 H :    0.021896
  14 H :    0.029944
  15 H :    0.022841
  16 S :    0.437543
  17 C :   -0.192110
  18 C :   -0.072640
  19 C :   -0.043781
  20 C :   -0.207789
  21 H :    0.035840
  22 C :   -0.027439
  23 H :    0.029831
  24 H :    0.026590
  25 C :   -0.038708
  26 H :    0.016533
  27 H :    0.027440
  28 C :   -0.053114
  29 H :    0.032180
  30 H :    0.019530
  31 H :    0.018048
  32 H :    0.043666
  33 H :    0.020121

  Mayer bond orders larger than 0.100000
B(  0-S ,  1-C ) :   1.1383 B(  0-S ,  4-C ) :   1.1451 B(  1-C ,  2-C ) :   1.5974
B(  1-C ,  4-C ) :   0.1001 B(  1-C , 32-H ) :   0.9583 B(  2-C ,  3-C ) :   1.2710
B(  2-C ,  6-C ) :   1.0256 B(  3-C ,  4-C ) :   1.5457 B(  3-C ,  5-H ) :   0.9946
B(  4-C , 20-C ) :   1.0883 B(  6-C ,  7-H ) :   0.9351 B(  6-C ,  8-H ) :   0.9417
B(  6-C ,  9-C ) :   1.0571 B(  9-C , 10-H ) :   0.9500 B(  9-C , 11-H ) :   0.9590
B(  9-C , 12-C ) :   1.0849 B( 12-C , 13-H ) :   0.9793 B( 12-C , 14-H ) :   0.9664
B( 12-C , 15-H ) :   0.9711 B( 16-S , 17-C ) :   1.1675 B( 16-S , 20-C ) :   1.1481
B( 17-C , 18-C ) :   1.6191 B( 17-C , 33-H ) :   0.9687 B( 18-C , 19-C ) :   1.2318
B( 18-C , 21-H ) :   0.9886 B( 19-C , 20-C ) :   1.5458 B( 19-C , 22-C ) :   1.0449
B( 22-C , 23-H ) :   0.9299 B( 22-C , 24-H ) :   0.9152 B( 22-C , 25-C ) :   1.0674
B( 25-C , 26-H ) :   0.9481 B( 25-C , 27-H ) :   0.9572 B( 25-C , 28-C ) :   1.0800
B( 28-C , 29-H ) :   0.9783 B( 28-C , 30-H ) :   0.9717 B( 28-C , 31-H ) :   0.9710

Dispersion correction           -0.015134151
FINAL SINGLE POINT ENERGY     -1339.864509696321

DIPOLE MOMENT
-------------
                                X             Y             Z
Electronic contribution:     13.33856      -4.49323     -23.65697
Nuclear contribution   :    -13.49980       4.77624      24.25814
                        -----------------------------------------
Total Dipole Moment    :     -0.16123       0.28302       0.60116
                        -----------------------------------------
Magnitude (a.u.)       :      0.68373
Magnitude (Debye)      :      1.73791

Rotational constants in cm-1:     0.019399     0.009697     0.007119
Rotational constants in MHz :   581.566441   290.720712   213.433695

                             ****ORCA TERMINATED NORMALLY****
TOTAL RUN TIME: 0 days 0 hours 0 minutes 22 seconds 683 msec
