                         Program Version 4.2.1 -  RELEASE  -
|  1> ! wB97X-D3 SP def2-SVP
|  2> %pal
|  3> nprocs 24
|  4> end
|  5>
|  6> * xyz 0 1
|  7> S 	 28.1096 	 -24.3468 	 -122.773
|  8> C 	 28.7431 	 -22.7502 	 -123.139
|  9> C 	 27.8504 	 -22.0064 	 -123.859
| 10> C 	 26.5779 	 -22.6928 	 -124.031
| 11> C 	 26.5703 	 -23.995 	 -123.52
| 12> H 	 25.7056 	 -22.2899 	 -124.393
| 13> C 	 28.0364 	 -20.5414 	 -124.379
| 14> H 	 29.0416 	 -20.0218 	 -124.062
| 15> H 	 27.358 	 -19.866 	 -123.906
| 16> C 	 27.8555 	 -20.4442 	 -125.905
| 17> H 	 27.0834 	 -21.0825 	 -126.382
| 18> H 	 27.5812 	 -19.362 	 -126.147
| 19> C 	 29.1373 	 -20.7304 	 -126.666
| 20> H 	 29.9341 	 -20.1965 	 -126.26
| 21> H 	 29.3925 	 -21.8037 	 -126.582
| 22> H 	 28.9169 	 -20.4203 	 -127.683
| 23> S 	 26.1279 	 -26.6797 	 -123.734
| 24> C 	 24.5202 	 -27.3569 	 -123.803
| 25> C 	 23.5895 	 -26.3631 	 -123.795
| 26> C 	 24.1428 	 -25.0463 	 -123.858
| 27> C 	 25.5363 	 -25.0084 	 -123.644
| 28> H 	 22.5741 	 -26.7178 	 -123.843
| 29> C 	 23.2617 	 -23.8267 	 -123.96
| 30> H 	 23.1495 	 -23.5977 	 -124.992
| 31> H 	 23.7824 	 -23.0412 	 -123.502
| 32> C 	 21.879 	 -23.9449 	 -123.297
| 33> H 	 21.2188 	 -24.6471 	 -123.846
| 34> H 	 21.4054 	 -22.9572 	 -123.399
| 35> C 	 21.838 	 -24.3119 	 -121.744
| 36> H 	 22.1594 	 -25.3364 	 -121.484
| 37> H 	 20.7744 	 -24.3137 	 -121.427
| 38> H 	 22.4417 	 -23.5685 	 -121.169
| 39> H 	 29.6563 	 -22.3443 	 -122.759
| 40> H 	 24.3231 	 -28.4207 	 -123.73
| 41> *
| 42>
| 43>                          ****END OF INPUT****

CARTESIAN COORDINATES (ANGSTROEM)
---------------------------------
  S     28.109600  -24.346800  -122.773000
  C     28.743100  -22.750200  -123.139000
  C     27.850400  -22.006400  -123.859000
  C     26.577900  -22.692800  -124.031000
  C     26.570300  -23.995000  -123.520000
  H     25.705600  -22.289900  -124.393000
  C     28.036400  -20.541400  -124.379000
  H     29.041600  -20.021800  -124.062000
  H     27.358000  -19.866000  -123.906000
  C     27.855500  -20.444200  -125.905000
  H     27.083400  -21.082500  -126.382000
  H     27.581200  -19.362000  -126.147000
  C     29.137300  -20.730400  -126.666000
  H     29.934100  -20.196500  -126.260000
  H     29.392500  -21.803700  -126.582000
  H     28.916900  -20.420300  -127.683000
  S     26.127900  -26.679700  -123.734000
  C     24.520200  -27.356900  -123.803000
  C     23.589500  -26.363100  -123.795000
  C     24.142800  -25.046300  -123.858000
  C     25.536300  -25.008400  -123.644000
  H     22.574100  -26.717800  -123.843000
  C     23.261700  -23.826700  -123.960000
  H     23.149500  -23.597700  -124.992000
  H     23.782400  -23.041200  -123.502000
  C     21.879000  -23.944900  -123.297000
  H     21.218800  -24.647100  -123.846000
  H     21.405400  -22.957200  -123.399000
  C     21.838000  -24.311900  -121.744000
  H     22.159400  -25.336400  -121.484000
  H     20.774400  -24.313700  -121.427000
  H     22.441700  -23.568500  -121.169000
  H     29.656300  -22.344300  -122.759000
  H     24.323100  -28.420700  -123.730000

 Total Charge           Charge          ....    0
 Multiplicity           Mult            ....    1
 Number of Electrons    NEL             ....  134
 Basis Dimension        Dim             ....  322

ORBITAL ENERGIES
----------------

  NO   OCC          E(Eh)            E(eV)
   0   2.0000     -88.967555     -2420.9303
   1   2.0000     -88.960244     -2420.7313
   2   2.0000     -10.335539      -281.2443
   3   2.0000     -10.332717      -281.1675
   4   2.0000     -10.314871      -280.6819
   5   2.0000     -10.314447      -280.6704
   6   2.0000     -10.308692      -280.5138
   7   2.0000     -10.307424      -280.4793
   8   2.0000     -10.304439      -280.3981
   9   2.0000     -10.295495      -280.1547
  10   2.0000     -10.293666      -280.1049
  11   2.0000     -10.291878      -280.0562
  12   2.0000     -10.291336      -280.0415
  13   2.0000     -10.286536      -279.9109
  14   2.0000     -10.286315      -279.9049
  15   2.0000     -10.268362      -279.4163
  16   2.0000      -8.082164      -219.9269
  17   2.0000      -8.075091      -219.7344
  18   2.0000      -6.040875      -164.3806
  19   2.0000      -6.036630      -164.2650
  20   2.0000      -6.033697      -164.1852
  21   2.0000      -6.032770      -164.1600
  22   2.0000      -6.029542      -164.0722
  23   2.0000      -6.025771      -163.9696
  24   2.0000      -1.006170       -27.3793
  25   2.0000      -0.983144       -26.7527
  26   2.0000      -0.909491       -24.7485
  27   2.0000      -0.906290       -24.6614
  28   2.0000      -0.873972       -23.7820
  29   2.0000      -0.847501       -23.0617
  30   2.0000      -0.836013       -22.7491
  31   2.0000      -0.817175       -22.2365
  32   2.0000      -0.784356       -21.3434
  33   2.0000      -0.776667       -21.1342
  34   2.0000      -0.711465       -19.3599
  35   2.0000      -0.697128       -18.9698
  36   2.0000      -0.686814       -18.6891
  37   2.0000      -0.657540       -17.8926
  38   2.0000      -0.641768       -17.4634
  39   2.0000      -0.625305       -17.0154
  40   2.0000      -0.598251       -16.2792
  41   2.0000      -0.572192       -15.5701
  42   2.0000      -0.560192       -15.2436
  43   2.0000      -0.553416       -15.0592
  44   2.0000      -0.537229       -14.6187
  45   2.0000      -0.527418       -14.3518
  46   2.0000      -0.521570       -14.1927
  47   2.0000      -0.510433       -13.8896
  48   2.0000      -0.507869       -13.8198
  49   2.0000      -0.498367       -13.5613
  50   2.0000      -0.491825       -13.3832
  51   2.0000      -0.479898       -13.0587
  52   2.0000      -0.477298       -12.9879
  53   2.0000      -0.462803       -12.5935
  54   2.0000      -0.453997       -12.3539
  55   2.0000      -0.448398       -12.2015
  56   2.0000      -0.439624       -11.9628
  57   2.0000      -0.434923       -11.8349
  58   2.0000      -0.434042       -11.8109
  59   2.0000      -0.426196       -11.5974
  60   2.0000      -0.420660       -11.4467
  61   2.0000      -0.412472       -11.2239
  62   2.0000      -0.406366       -11.0578
  63   2.0000      -0.361814        -9.8454
  64   2.0000      -0.331168        -9.0115
  65   2.0000      -0.327702        -8.9172
  66   2.0000      -0.284943        -7.7537
  67   0.0000       0.020990         0.5712
  68   0.0000       0.080571         2.1924
  69   0.0000       0.110858         3.0166
  70   0.0000       0.117840         3.2066
  71   0.0000       0.138552         3.7702

MULLIKEN ATOMIC CHARGES
-----------------------
   0 S :    0.106034
   1 C :   -0.108709
   2 C :   -0.058303
   3 C :    0.034332
   4 C :   -0.121790
   5 H :   -0.024634
   6 C :    0.049215
   7 H :    0.032861
   8 H :    0.030168
   9 C :   -0.135459
  10 H :    0.046677
  11 H :    0.029962
  12 C :   -0.015096
  13 H :    0.008242
  14 H :    0.041209
  15 H :    0.034856
  16 S :    0.074011
  17 C :   -0.088167
  18 C :   -0.034851
  19 C :   -0.070318
  20 C :   -0.124977
  21 H :    0.017743
  22 C :    0.121585
  23 H :    0.035164
  24 H :    0.012468
  25 C :   -0.109640
  26 H :    0.032217
  27 H :    0.033909
  28 C :   -0.075040
  29 H :    0.041344
  30 H :    0.037955
  31 H :    0.046548
  32 H :    0.039695
  33 H :    0.060788
Sum of atomic charges:    0.0000000

LOEWDIN ATOMIC CHARGES
----------------------
   0 S :    0.402563
   1 C :   -0.191550
   2 C :   -0.057209
   3 C :   -0.055909
   4 C :   -0.187666
   5 H :    0.012138
   6 C :   -0.035823
   7 H :    0.039287
   8 H :    0.025786
   9 C :   -0.049812
  10 H :    0.028927
  11 H :    0.027132
  12 C :   -0.058726
  13 H :    0.010802
  14 H :    0.030321
  15 H :    0.027249
  16 S :    0.387715
  17 C :   -0.181257
  18 C :   -0.075830
  19 C :   -0.054343
  20 C :   -0.184995
  21 H :    0.033252
  22 C :   -0.029263
  23 H :    0.033873
  24 H :    0.022407
  25 C :   -0.042290
  26 H :    0.022118
  27 H :    0.028535
  28 C :   -0.072076
  29 H :    0.025841
  30 H :    0.029808
  31 H :    0.030143
  32 H :    0.027175
  33 H :    0.031677

  Mayer bond orders larger than 0.100000
B(  0-S ,  1-C ) :   1.1218 B(  0-S ,  4-C ) :   1.1448 B(  1-C ,  2-C ) :   1.6406
B(  1-C , 32-H ) :   0.9707 B(  2-C ,  3-C ) :   1.2205 B(  2-C ,  6-C ) :   1.0084
B(  3-C ,  4-C ) :   1.5650 B(  3-C ,  5-H ) :   1.0011 B(  4-C , 20-C ) :   1.0771
B(  6-C ,  7-H ) :   0.9505 B(  6-C ,  8-H ) :   0.9463 B(  6-C ,  9-C ) :   1.0540
B(  9-C , 10-H ) :   0.9610 B(  9-C , 11-H ) :   0.9565 B(  9-C , 12-C ) :   1.0781
B( 12-C , 13-H ) :   0.9738 B( 12-C , 14-H ) :   0.9762 B( 12-C , 15-H ) :   0.9744
B( 16-S , 17-C ) :   1.1518 B( 16-S , 20-C ) :   1.1330 B( 17-C , 18-C ) :   1.6197
B( 17-C , 20-C ) :   0.1005 B( 17-C , 33-H ) :   0.9641 B( 18-C , 19-C ) :   1.2283
B( 18-C , 21-H ) :   0.9931 B( 19-C , 20-C ) :   1.5762 B( 19-C , 22-C ) :   1.0378
B( 22-C , 23-H ) :   0.9195 B( 22-C , 24-H ) :   0.9290 B( 22-C , 25-C ) :   1.0868
B( 25-C , 26-H ) :   0.9492 B( 25-C , 27-H ) :   0.9545 B( 25-C , 28-C ) :   1.0704
B( 28-C , 29-H ) :   0.9746 B( 28-C , 30-H ) :   0.9750 B( 28-C , 31-H ) :   0.9765

Dispersion correction           -0.014014595
FINAL SINGLE POINT ENERGY     -1339.876771849857

DIPOLE MOMENT
-------------
                                X             Y             Z
Electronic contribution:     10.79314     -19.61793       6.54791
Nuclear contribution   :    -11.29565      20.13371      -6.68686
                        -----------------------------------------
Total Dipole Moment    :     -0.50252       0.51578      -0.13895
                        -----------------------------------------
Magnitude (a.u.)       :      0.73339
Magnitude (Debye)      :      1.86412

Rotational constants in cm-1:     0.020366     0.007925     0.006641
Rotational constants in MHz :   610.559423   237.571450   199.078109

                             ****ORCA TERMINATED NORMALLY****
TOTAL RUN TIME: 0 days 0 hours 0 minutes 21 seconds 488 msec
