                         Program Version 4.2.1 -  RELEASE  -
|  1> ! wB97X-D3 SP def2-SVP
|  2> %pal
|  3> nprocs 24
|  4> end
|  5>
|  6> * xyz 0 1
|  7> S 	 -91.7733 	 -31.2163 	 -74.1722
|  8> C 	 -90.5051 	 -32.3727 	 -74.4493
|  9> C 	 -89.6189 	 -31.8735 	 -75.3251
| 10> C 	 -89.8747 	 -30.4906 	 -75.668
| 11> C 	 -90.9919 	 -29.997 	 -75.1256
| 12> H 	 -89.2972 	 -29.8896 	 -76.3468
| 13> C 	 -88.4482 	 -32.6402 	 -76.0566
| 14> H 	 -87.6819 	 -33.0238 	 -75.3346
| 15> H 	 -87.9928 	 -31.954 	 -76.8038
| 16> C 	 -88.892 	 -33.8626 	 -76.8475
| 17> H 	 -87.986 	 -34.1711 	 -77.2345
| 18> H 	 -89.1778 	 -34.6361 	 -76.0662
| 19> C 	 -89.995 	 -33.7479 	 -77.928
| 20> H 	 -90.1283 	 -34.7047 	 -78.4299
| 21> H 	 -90.9331 	 -33.3799 	 -77.4301
| 22> H 	 -89.7956 	 -32.9997 	 -78.7216
| 23> S 	 -91.9235 	 -27.7841 	 -73.7001
| 24> C 	 -92.1043 	 -26.2583 	 -74.5553
| 25> C 	 -91.945 	 -26.466 	 -75.9108
| 26> C 	 -91.6006 	 -27.7793 	 -76.322
| 27> C 	 -91.5271 	 -28.6266 	 -75.1849
| 28> H 	 -91.8664 	 -25.6161 	 -76.5395
| 29> C 	 -91.15 	 -28.1066 	 -77.7184
| 30> H 	 -92.0864 	 -27.9333 	 -78.3342
| 31> H 	 -91.0056 	 -29.1688 	 -77.8325
| 32> C 	 -89.8974 	 -27.3444 	 -78.2616
| 33> H 	 -89.1335 	 -27.4721 	 -77.5115
| 34> H 	 -90.0962 	 -26.287 	 -78.256
| 35> C 	 -89.5072 	 -27.847 	 -79.5944
| 36> H 	 -89.2923 	 -28.9257 	 -79.4621
| 37> H 	 -88.6173 	 -27.4604 	 -80.0787
| 38> H 	 -90.3721 	 -27.7381 	 -80.2523
| 39> H 	 -90.5921 	 -33.431 	 -74.197
| 40> H 	 -92.2961 	 -25.3321 	 -74.0858
| 41> *
| 42>
| 43>                          ****END OF INPUT****

CARTESIAN COORDINATES (ANGSTROEM)
---------------------------------
  S    -91.773300  -31.216300  -74.172200
  C    -90.505100  -32.372700  -74.449300
  C    -89.618900  -31.873500  -75.325100
  C    -89.874700  -30.490600  -75.668000
  C    -90.991900  -29.997000  -75.125600
  H    -89.297200  -29.889600  -76.346800
  C    -88.448200  -32.640200  -76.056600
  H    -87.681900  -33.023800  -75.334600
  H    -87.992800  -31.954000  -76.803800
  C    -88.892000  -33.862600  -76.847500
  H    -87.986000  -34.171100  -77.234500
  H    -89.177800  -34.636100  -76.066200
  C    -89.995000  -33.747900  -77.928000
  H    -90.128300  -34.704700  -78.429900
  H    -90.933100  -33.379900  -77.430100
  H    -89.795600  -32.999700  -78.721600
  S    -91.923500  -27.784100  -73.700100
  C    -92.104300  -26.258300  -74.555300
  C    -91.945000  -26.466000  -75.910800
  C    -91.600600  -27.779300  -76.322000
  C    -91.527100  -28.626600  -75.184900
  H    -91.866400  -25.616100  -76.539500
  C    -91.150000  -28.106600  -77.718400
  H    -92.086400  -27.933300  -78.334200
  H    -91.005600  -29.168800  -77.832500
  C    -89.897400  -27.344400  -78.261600
  H    -89.133500  -27.472100  -77.511500
  H    -90.096200  -26.287000  -78.256000
  C    -89.507200  -27.847000  -79.594400
  H    -89.292300  -28.925700  -79.462100
  H    -88.617300  -27.460400  -80.078700
  H    -90.372100  -27.738100  -80.252300
  H    -90.592100  -33.431000  -74.197000
  H    -92.296100  -25.332100  -74.085800

 Total Charge           Charge          ....    0
 Multiplicity           Mult            ....    1
 Number of Electrons    NEL             ....  134
 Basis Dimension        Dim             ....  322

ORBITAL ENERGIES
----------------

  NO   OCC          E(Eh)            E(eV)
   0   2.0000     -88.968174     -2420.9471
   1   2.0000     -88.960010     -2420.7249
   2   2.0000     -10.330388      -281.1041
   3   2.0000     -10.324461      -280.9429
   4   2.0000     -10.317028      -280.7406
   5   2.0000     -10.309904      -280.5468
   6   2.0000     -10.305732      -280.4332
   7   2.0000     -10.300532      -280.2917
   8   2.0000     -10.300246      -280.2839
   9   2.0000     -10.296821      -280.1907
  10   2.0000     -10.290928      -280.0304
  11   2.0000     -10.288157      -279.9550
  12   2.0000     -10.287672      -279.9418
  13   2.0000     -10.285359      -279.8788
  14   2.0000     -10.283839      -279.8375
  15   2.0000     -10.280590      -279.7491
  16   2.0000      -8.082539      -219.9371
  17   2.0000      -8.075757      -219.7525
  18   2.0000      -6.041060      -164.3856
  19   2.0000      -6.037015      -164.2755
  20   2.0000      -6.034360      -164.2033
  21   2.0000      -6.033389      -164.1769
  22   2.0000      -6.030117      -164.0878
  23   2.0000      -6.026353      -163.9854
  24   2.0000      -1.010514       -27.4975
  25   2.0000      -0.986484       -26.8436
  26   2.0000      -0.916259       -24.9327
  27   2.0000      -0.908027       -24.7087
  28   2.0000      -0.870264       -23.6811
  29   2.0000      -0.858590       -23.3634
  30   2.0000      -0.841535       -22.8993
  31   2.0000      -0.816251       -22.2113
  32   2.0000      -0.784937       -21.3592
  33   2.0000      -0.773995       -21.0615
  34   2.0000      -0.709226       -19.2990
  35   2.0000      -0.701263       -19.0823
  36   2.0000      -0.695025       -18.9126
  37   2.0000      -0.660602       -17.9759
  38   2.0000      -0.640692       -17.4341
  39   2.0000      -0.614200       -16.7132
  40   2.0000      -0.599294       -16.3076
  41   2.0000      -0.574674       -15.6377
  42   2.0000      -0.570842       -15.5334
  43   2.0000      -0.548972       -14.9383
  44   2.0000      -0.540679       -14.7126
  45   2.0000      -0.533350       -14.5132
  46   2.0000      -0.517814       -14.0904
  47   2.0000      -0.515351       -14.0234
  48   2.0000      -0.508555       -13.8385
  49   2.0000      -0.496442       -13.5089
  50   2.0000      -0.487889       -13.2761
  51   2.0000      -0.479373       -13.0444
  52   2.0000      -0.475346       -12.9348
  53   2.0000      -0.468166       -12.7394
  54   2.0000      -0.458712       -12.4822
  55   2.0000      -0.454284       -12.3617
  56   2.0000      -0.441327       -12.0091
  57   2.0000      -0.438452       -11.9309
  58   2.0000      -0.434748       -11.8301
  59   2.0000      -0.429781       -11.6949
  60   2.0000      -0.418457       -11.3868
  61   2.0000      -0.416589       -11.3360
  62   2.0000      -0.408245       -11.1089
  63   2.0000      -0.353201        -9.6111
  64   2.0000      -0.332099        -9.0369
  65   2.0000      -0.328137        -8.9291
  66   2.0000      -0.294654        -8.0179
  67   0.0000       0.032897         0.8952
  68   0.0000       0.072862         1.9827
  69   0.0000       0.112352         3.0572
  70   0.0000       0.120457         3.2778
  71   0.0000       0.122990         3.3467

MULLIKEN ATOMIC CHARGES
-----------------------
   0 S :    0.092904
   1 C :   -0.131200
   2 C :   -0.077932
   3 C :    0.023383
   4 C :   -0.141388
   5 H :   -0.007233
   6 C :    0.041596
   7 H :    0.050822
   8 H :    0.023696
   9 C :   -0.076175
  10 H :    0.010633
  11 H :    0.027794
  12 C :   -0.056043
  13 H :    0.043035
  14 H :    0.050555
  15 H :    0.028735
  16 S :    0.116897
  17 C :   -0.088224
  18 C :   -0.020601
  19 C :   -0.026707
  20 C :   -0.145771
  21 H :    0.007787
  22 C :    0.022519
  23 H :    0.040058
  24 H :    0.014456
  25 C :   -0.044975
  26 H :    0.026693
  27 H :    0.022507
  28 C :   -0.025038
  29 H :    0.022020
  30 H :    0.039424
  31 H :    0.032041
  32 H :    0.056394
  33 H :    0.047334
Sum of atomic charges:   -0.0000000

LOEWDIN ATOMIC CHARGES
----------------------
   0 S :    0.403791
   1 C :   -0.201541
   2 C :   -0.065931
   3 C :   -0.068942
   4 C :   -0.190671
   5 H :    0.026513
   6 C :   -0.029388
   7 H :    0.040118
   8 H :    0.028094
   9 C :   -0.045356
  10 H :    0.012948
  11 H :    0.026344
  12 C :   -0.070868
  13 H :    0.028929
  14 H :    0.034322
  15 H :    0.025274
  16 S :    0.409290
  17 C :   -0.175570
  18 C :   -0.066613
  19 C :   -0.055154
  20 C :   -0.199583
  21 H :    0.024297
  22 C :   -0.035923
  23 H :    0.040791
  24 H :    0.024647
  25 C :   -0.037565
  26 H :    0.021871
  27 H :    0.020152
  28 C :   -0.064736
  29 H :    0.027996
  30 H :    0.027123
  31 H :    0.028754
  32 H :    0.033139
  33 H :    0.023447

  Mayer bond orders larger than 0.100000
B(  0-S ,  1-C ) :   1.1217 B(  0-S ,  4-C ) :   1.1504 B(  1-C ,  2-C ) :   1.6508
B(  1-C , 32-H ) :   0.9671 B(  2-C ,  3-C ) :   1.2144 B(  2-C ,  6-C ) :   0.9992
B(  3-C ,  4-C ) :   1.6129 B(  3-C ,  5-H ) :   1.0002 B(  4-C , 20-C ) :   1.0102
B(  6-C ,  7-H ) :   0.9429 B(  6-C ,  8-H ) :   0.9478 B(  6-C ,  9-C ) :   1.0798
B(  9-C , 10-H ) :   0.9545 B(  9-C , 11-H ) :   0.9531 B(  9-C , 12-C ) :   1.0695
B( 12-C , 13-H ) :   0.9743 B( 12-C , 14-H ) :   0.9726 B( 12-C , 15-H ) :   0.9754
B( 16-S , 17-C ) :   1.1510 B( 16-S , 20-C ) :   1.1622 B( 17-C , 18-C ) :   1.5969
B( 17-C , 20-C ) :   0.1037 B( 17-C , 33-H ) :   0.9761 B( 18-C , 19-C ) :   1.2543
B( 18-C , 21-H ) :   0.9917 B( 19-C , 20-C ) :   1.5587 B( 19-C , 22-C ) :   1.0578
B( 22-C , 23-H ) :   0.9227 B( 22-C , 24-H ) :   0.9335 B( 22-C , 25-C ) :   1.0466
B( 25-C , 26-H ) :   0.9538 B( 25-C , 27-H ) :   0.9479 B( 25-C , 28-C ) :   1.0908
B( 28-C , 29-H ) :   0.9704 B( 28-C , 30-H ) :   0.9722 B( 28-C , 31-H ) :   0.9711

Dispersion correction           -0.014731970
FINAL SINGLE POINT ENERGY     -1339.886233610210

DIPOLE MOMENT
-------------
                                X             Y             Z
Electronic contribution:    -13.91033       7.91426      26.02925
Nuclear contribution   :     14.39720      -7.86035     -26.70806
                        -----------------------------------------
Total Dipole Moment    :      0.48687       0.05390      -0.67881
                        -----------------------------------------
Magnitude (a.u.)       :      0.83710
Magnitude (Debye)      :      2.12774

Rotational constants in cm-1:     0.017812     0.009682     0.006749
Rotational constants in MHz :   534.000925   290.255281   202.327625

                             ****ORCA TERMINATED NORMALLY****
TOTAL RUN TIME: 0 days 0 hours 0 minutes 21 seconds 901 msec
