                         Program Version 4.2.1 -  RELEASE  -
|  1> ! wB97X-D3 SP def2-SVP
|  2> %pal
|  3> nprocs 24
|  4> end
|  5>
|  6> * xyz 0 1
|  7> S 	 -94.0433 	 52.9866 	 -100.156
|  8> C 	 -93.1924 	 53.7099 	 -98.8318
|  9> C 	 -92.37 	 52.732 	 -98.3173
| 10> C 	 -92.3892 	 51.4705 	 -98.9933
| 11> C 	 -93.3536 	 51.3763 	 -99.9055
| 12> H 	 -91.7591 	 50.6268 	 -98.8368
| 13> C 	 -91.2992 	 52.969 	 -97.2951
| 14> H 	 -91.1698 	 51.9776 	 -96.7808
| 15> H 	 -91.6595 	 53.7457 	 -96.6425
| 16> C 	 -89.9673 	 53.5687 	 -97.9378
| 17> H 	 -89.5451 	 52.8732 	 -98.7167
| 18> H 	 -90.2642 	 54.4817 	 -98.4076
| 19> C 	 -88.9168 	 53.7598 	 -96.8557
| 20> H 	 -89.2983 	 54.3788 	 -96.041
| 21> H 	 -88.8503 	 52.8009 	 -96.4231
| 22> H 	 -87.8645 	 54.1341 	 -97.1172
| 23> S 	 -92.6362 	 50.3561 	 -102.27
| 24> C 	 -92.9131 	 48.6708 	 -102.717
| 25> C 	 -93.5352 	 48.0662 	 -101.688
| 26> C 	 -93.8593 	 48.9124 	 -100.54
| 27> C 	 -93.5516 	 50.2362 	 -100.78
| 28> H 	 -93.6846 	 47.002 	 -101.766
| 29> C 	 -94.449 	 48.4268 	 -99.2701
| 30> H 	 -93.9954 	 49.076 	 -98.5418
| 31> H 	 -94.0109 	 47.4597 	 -98.9462
| 32> C 	 -96.0059 	 48.4089 	 -99.2414
| 33> H 	 -96.2923 	 47.8207 	 -100.087
| 34> H 	 -96.4163 	 49.4007 	 -99.3922
| 35> C 	 -96.4925 	 47.9146 	 -97.8421
| 36> H 	 -96.4484 	 46.7775 	 -97.6863
| 37> H 	 -97.5239 	 48.2118 	 -97.5851
| 38> H 	 -95.9654 	 48.3917 	 -96.9361
| 39> H 	 -93.1019 	 54.7901 	 -98.5805
| 40> H 	 -92.8043 	 48.2334 	 -103.69
| 41> *
| 42>
| 43>                          ****END OF INPUT****

CARTESIAN COORDINATES (ANGSTROEM)
---------------------------------
  S    -94.043300   52.986600  -100.156000
  C    -93.192400   53.709900  -98.831800
  C    -92.370000   52.732000  -98.317300
  C    -92.389200   51.470500  -98.993300
  C    -93.353600   51.376300  -99.905500
  H    -91.759100   50.626800  -98.836800
  C    -91.299200   52.969000  -97.295100
  H    -91.169800   51.977600  -96.780800
  H    -91.659500   53.745700  -96.642500
  C    -89.967300   53.568700  -97.937800
  H    -89.545100   52.873200  -98.716700
  H    -90.264200   54.481700  -98.407600
  C    -88.916800   53.759800  -96.855700
  H    -89.298300   54.378800  -96.041000
  H    -88.850300   52.800900  -96.423100
  H    -87.864500   54.134100  -97.117200
  S    -92.636200   50.356100  -102.270000
  C    -92.913100   48.670800  -102.717000
  C    -93.535200   48.066200  -101.688000
  C    -93.859300   48.912400  -100.540000
  C    -93.551600   50.236200  -100.780000
  H    -93.684600   47.002000  -101.766000
  C    -94.449000   48.426800  -99.270100
  H    -93.995400   49.076000  -98.541800
  H    -94.010900   47.459700  -98.946200
  C    -96.005900   48.408900  -99.241400
  H    -96.292300   47.820700  -100.087000
  H    -96.416300   49.400700  -99.392200
  C    -96.492500   47.914600  -97.842100
  H    -96.448400   46.777500  -97.686300
  H    -97.523900   48.211800  -97.585100
  H    -95.965400   48.391700  -96.936100
  H    -93.101900   54.790100  -98.580500
  H    -92.804300   48.233400  -103.690000

 Total Charge           Charge          ....    0
 Multiplicity           Mult            ....    1
 Number of Electrons    NEL             ....  134
 Basis Dimension        Dim             ....  322

ORBITAL ENERGIES
----------------

  NO   OCC          E(Eh)            E(eV)
   0   2.0000     -88.962977     -2420.8057
   1   2.0000     -88.958088     -2420.6726
   2   2.0000     -10.325739      -280.9776
   3   2.0000     -10.325531      -280.9720
   4   2.0000     -10.317678      -280.7583
   5   2.0000     -10.314998      -280.6854
   6   2.0000     -10.305920      -280.4383
   7   2.0000     -10.297546      -280.2105
   8   2.0000     -10.294423      -280.1255
   9   2.0000     -10.292553      -280.0746
  10   2.0000     -10.291799      -280.0541
  11   2.0000     -10.291294      -280.0404
  12   2.0000     -10.290128      -280.0086
  13   2.0000     -10.288479      -279.9637
  14   2.0000     -10.288022      -279.9513
  15   2.0000     -10.278692      -279.6974
  16   2.0000      -8.077772      -219.8073
  17   2.0000      -8.073082      -219.6797
  18   2.0000      -6.036415      -164.2592
  19   2.0000      -6.032183      -164.1441
  20   2.0000      -6.031819      -164.1341
  21   2.0000      -6.028434      -164.0420
  22   2.0000      -6.027462      -164.0156
  23   2.0000      -6.023636      -163.9115
  24   2.0000      -1.013024       -27.5658
  25   2.0000      -0.987961       -26.8838
  26   2.0000      -0.909823       -24.7575
  27   2.0000      -0.906192       -24.6587
  28   2.0000      -0.878592       -23.9077
  29   2.0000      -0.849765       -23.1233
  30   2.0000      -0.841442       -22.8968
  31   2.0000      -0.823482       -22.4081
  32   2.0000      -0.773290       -21.0423
  33   2.0000      -0.763474       -20.7752
  34   2.0000      -0.709346       -19.3023
  35   2.0000      -0.701954       -19.1012
  36   2.0000      -0.700208       -19.0536
  37   2.0000      -0.661364       -17.9966
  38   2.0000      -0.647099       -17.6085
  39   2.0000      -0.621807       -16.9202
  40   2.0000      -0.594028       -16.1643
  41   2.0000      -0.569238       -15.4898
  42   2.0000      -0.563747       -15.3403
  43   2.0000      -0.557176       -15.1615
  44   2.0000      -0.525637       -14.3033
  45   2.0000      -0.521331       -14.1861
  46   2.0000      -0.518420       -14.1069
  47   2.0000      -0.513383       -13.9699
  48   2.0000      -0.507431       -13.8079
  49   2.0000      -0.505054       -13.7432
  50   2.0000      -0.499222       -13.5845
  51   2.0000      -0.472982       -12.8705
  52   2.0000      -0.470590       -12.8054
  53   2.0000      -0.462668       -12.5898
  54   2.0000      -0.456454       -12.4207
  55   2.0000      -0.446918       -12.1612
  56   2.0000      -0.444879       -12.1058
  57   2.0000      -0.430921       -11.7260
  58   2.0000      -0.429155       -11.6779
  59   2.0000      -0.425693       -11.5837
  60   2.0000      -0.420820       -11.4511
  61   2.0000      -0.414644       -11.2830
  62   2.0000      -0.411811       -11.2059
  63   2.0000      -0.344788        -9.3822
  64   2.0000      -0.324959        -8.8426
  65   2.0000      -0.320325        -8.7165
  66   2.0000      -0.312165        -8.4945
  67   0.0000       0.036139         0.9834
  68   0.0000       0.061694         1.6788
  69   0.0000       0.114580         3.1179
  70   0.0000       0.124956         3.4002
  71   0.0000       0.128205         3.4886

MULLIKEN ATOMIC CHARGES
-----------------------
   0 S :    0.098077
   1 C :   -0.118573
   2 C :   -0.097872
   3 C :    0.050577
   4 C :   -0.159701
   5 H :    0.011212
   6 C :    0.020931
   7 H :    0.038121
   8 H :    0.020286
   9 C :   -0.065051
  10 H :    0.040441
  11 H :    0.018174
  12 C :   -0.028242
  13 H :    0.020252
  14 H :    0.011680
  15 H :    0.054241
  16 S :    0.083399
  17 C :   -0.077229
  18 C :   -0.027792
  19 C :   -0.072468
  20 C :   -0.131917
  21 H :    0.014890
  22 C :    0.071116
  23 H :    0.006162
  24 H :    0.021873
  25 C :   -0.012848
  26 H :    0.027863
  27 H :    0.034229
  28 C :   -0.101505
  29 H :    0.046192
  30 H :    0.033401
  31 H :    0.040836
  32 H :    0.071278
  33 H :    0.057966
Sum of atomic charges:    0.0000000

LOEWDIN ATOMIC CHARGES
----------------------
   0 S :    0.401606
   1 C :   -0.209275
   2 C :   -0.070536
   3 C :   -0.054984
   4 C :   -0.195978
   5 H :    0.031448
   6 C :   -0.032947
   7 H :    0.034135
   8 H :    0.026335
   9 C :   -0.033135
  10 H :    0.029796
  11 H :    0.015452
  12 C :   -0.074311
  13 H :    0.022842
  14 H :    0.019159
  15 H :    0.035715
  16 S :    0.392622
  17 C :   -0.175375
  18 C :   -0.073676
  19 C :   -0.053107
  20 C :   -0.194348
  21 H :    0.029468
  22 C :   -0.038322
  23 H :    0.026582
  24 H :    0.033301
  25 C :   -0.028463
  26 H :    0.023868
  27 H :    0.028917
  28 C :   -0.085616
  29 H :    0.031307
  30 H :    0.024959
  31 H :    0.035077
  32 H :    0.044678
  33 H :    0.032806

  Mayer bond orders larger than 0.100000
B(  0-S ,  1-C ) :   1.1348 B(  0-S ,  4-C ) :   1.1371 B(  1-C ,  2-C ) :   1.6065
B(  1-C , 32-H ) :   0.9659 B(  2-C ,  3-C ) :   1.2223 B(  2-C ,  6-C ) :   1.0444
B(  3-C ,  4-C ) :   1.5996 B(  3-C ,  5-H ) :   1.0008 B(  4-C , 20-C ) :   0.9990
B(  6-C ,  7-H ) :   0.9414 B(  6-C ,  8-H ) :   0.9381 B(  6-C ,  9-C ) :   1.0511
B(  9-C , 10-H ) :   0.9594 B(  9-C , 11-H ) :   0.9569 B(  9-C , 12-C ) :   1.0713
B( 12-C , 13-H ) :   0.9716 B( 12-C , 14-H ) :   0.9707 B( 12-C , 15-H ) :   0.9738
B( 16-S , 17-C ) :   1.1361 B( 16-S , 20-C ) :   1.1444 B( 17-C , 18-C ) :   1.6459
B( 17-C , 33-H ) :   0.9666 B( 18-C , 19-C ) :   1.2071 B( 18-C , 21-H ) :   0.9927
B( 19-C , 20-C ) :   1.6186 B( 19-C , 22-C ) :   1.0536 B( 22-C , 23-H ) :   0.9201
B( 22-C , 24-H ) :   0.9357 B( 22-C , 25-C ) :   1.0539 B( 25-C , 26-H ) :   0.9594
B( 25-C , 27-H ) :   0.9566 B( 25-C , 28-C ) :   1.0656 B( 28-C , 29-H ) :   0.9765
B( 28-C , 30-H ) :   0.9769 B( 28-C , 31-H ) :   0.9740

Dispersion correction           -0.013894962
FINAL SINGLE POINT ENERGY     -1339.864130638467

DIPOLE MOMENT
-------------
                                X             Y             Z
Electronic contribution:     -4.35262       4.61954     -21.19944
Nuclear contribution   :      4.63421      -4.94616      21.61709
                        -----------------------------------------
Total Dipole Moment    :      0.28159      -0.32662       0.41765
                        -----------------------------------------
Magnitude (a.u.)       :      0.60034
Magnitude (Debye)      :      1.52593

Rotational constants in cm-1:     0.018311     0.007853     0.006892
Rotational constants in MHz :   548.943658   235.412237   206.607383

                             ****ORCA TERMINATED NORMALLY****
TOTAL RUN TIME: 0 days 0 hours 0 minutes 20 seconds 36 msec
