                         Program Version 4.2.1 -  RELEASE  -
|  1> ! wB97X-D3 SP def2-SVP
|  2> %pal
|  3> nprocs 24
|  4> end
|  5>
|  6> * xyz 0 1
|  7> S 	 -87.7017 	 -4.14673 	 -60.6175
|  8> C 	 -88.9252 	 -4.68797 	 -61.8243
|  9> C 	 -88.3017 	 -4.78484 	 -63.091
| 10> C 	 -86.9072 	 -4.60823 	 -63.044
| 11> C 	 -86.382 	 -4.45342 	 -61.7456
| 12> H 	 -86.2954 	 -4.6386 	 -63.9382
| 13> C 	 -89.0546 	 -5.03613 	 -64.387
| 14> H 	 -88.5634 	 -4.48114 	 -65.1916
| 15> H 	 -90.0813 	 -4.70556 	 -64.2858
| 16> C 	 -89.0499 	 -6.5117 	 -64.9077
| 17> H 	 -89.2901 	 -6.43698 	 -65.984
| 18> H 	 -88.1798 	 -7.13607 	 -64.8524
| 19> C 	 -90.2791 	 -7.28611 	 -64.364
| 20> H 	 -90.2498 	 -7.6608 	 -63.3595
| 21> H 	 -91.1246 	 -6.66943 	 -64.2994
| 22> H 	 -90.6043 	 -8.10698 	 -65.0073
| 23> S 	 -84.6578 	 -5.75399 	 -59.9367
| 24> C 	 -82.9664 	 -5.51414 	 -60.0303
| 25> C 	 -82.6078 	 -4.65379 	 -61.0587
| 26> C 	 -83.7787 	 -4.12298 	 -61.7727
| 27> C 	 -85.0149 	 -4.56073 	 -61.2416
| 28> H 	 -81.5533 	 -4.50025 	 -61.1986
| 29> C 	 -83.5647 	 -3.18985 	 -62.9708
| 30> H 	 -84.1761 	 -3.37862 	 -63.8533
| 31> H 	 -82.5077 	 -3.21767 	 -63.3403
| 32> C 	 -83.9517 	 -1.69146 	 -62.603
| 33> H 	 -83.4901 	 -1.49092 	 -61.5705
| 34> H 	 -85.0545 	 -1.71539 	 -62.348
| 35> C 	 -83.6892 	 -0.699622 	 -63.6972
| 36> H 	 -84.3438 	 -0.718613 	 -64.5791
| 37> H 	 -82.6586 	 -0.830534 	 -64.1243
| 38> H 	 -83.8655 	 0.341816 	 -63.3594
| 39> H 	 -89.9751 	 -4.79179 	 -61.6518
| 40> H 	 -82.2826 	 -5.98804 	 -59.3675
| 41> *
| 42>
| 43>                          ****END OF INPUT****

CARTESIAN COORDINATES (ANGSTROEM)
---------------------------------
  S    -87.701700   -4.146730  -60.617500
  C    -88.925200   -4.687970  -61.824300
  C    -88.301700   -4.784840  -63.091000
  C    -86.907200   -4.608230  -63.044000
  C    -86.382000   -4.453420  -61.745600
  H    -86.295400   -4.638600  -63.938200
  C    -89.054600   -5.036130  -64.387000
  H    -88.563400   -4.481140  -65.191600
  H    -90.081300   -4.705560  -64.285800
  C    -89.049900   -6.511700  -64.907700
  H    -89.290100   -6.436980  -65.984000
  H    -88.179800   -7.136070  -64.852400
  C    -90.279100   -7.286110  -64.364000
  H    -90.249800   -7.660800  -63.359500
  H    -91.124600   -6.669430  -64.299400
  H    -90.604300   -8.106980  -65.007300
  S    -84.657800   -5.753990  -59.936700
  C    -82.966400   -5.514140  -60.030300
  C    -82.607800   -4.653790  -61.058700
  C    -83.778700   -4.122980  -61.772700
  C    -85.014900   -4.560730  -61.241600
  H    -81.553300   -4.500250  -61.198600
  C    -83.564700   -3.189850  -62.970800
  H    -84.176100   -3.378620  -63.853300
  H    -82.507700   -3.217670  -63.340300
  C    -83.951700   -1.691460  -62.603000
  H    -83.490100   -1.490920  -61.570500
  H    -85.054500   -1.715390  -62.348000
  C    -83.689200   -0.699622  -63.697200
  H    -84.343800   -0.718613  -64.579100
  H    -82.658600   -0.830534  -64.124300
  H    -83.865500    0.341816  -63.359400
  H    -89.975100   -4.791790  -61.651800
  H    -82.282600   -5.988040  -59.367500

 Total Charge           Charge          ....    0
 Multiplicity           Mult            ....    1
 Number of Electrons    NEL             ....  134
 Basis Dimension        Dim             ....  322

ORBITAL ENERGIES
----------------

  NO   OCC          E(Eh)            E(eV)
   0   2.0000     -88.967645     -2420.9327
   1   2.0000     -88.965614     -2420.8774
   2   2.0000     -10.337296      -281.2921
   3   2.0000     -10.335368      -281.2397
   4   2.0000     -10.319148      -280.7983
   5   2.0000     -10.316961      -280.7388
   6   2.0000     -10.316811      -280.7347
   7   2.0000     -10.304104      -280.3889
   8   2.0000     -10.298694      -280.2417
   9   2.0000     -10.298519      -280.2370
  10   2.0000     -10.297430      -280.2073
  11   2.0000     -10.297310      -280.2041
  12   2.0000     -10.293758      -280.1074
  13   2.0000     -10.290333      -280.0142
  14   2.0000     -10.283297      -279.8227
  15   2.0000     -10.268615      -279.4232
  16   2.0000      -8.081184      -219.9002
  17   2.0000      -8.080225      -219.8741
  18   2.0000      -6.039800      -164.3513
  19   2.0000      -6.038759      -164.3230
  20   2.0000      -6.035854      -164.2439
  21   2.0000      -6.034633      -164.2107
  22   2.0000      -6.031895      -164.1362
  23   2.0000      -6.031045      -164.1131
  24   2.0000      -0.998435       -27.1688
  25   2.0000      -0.977305       -26.5938
  26   2.0000      -0.908183       -24.7129
  27   2.0000      -0.901148       -24.5215
  28   2.0000      -0.865209       -23.5435
  29   2.0000      -0.848487       -23.0885
  30   2.0000      -0.841691       -22.9036
  31   2.0000      -0.811052       -22.0698
  32   2.0000      -0.782719       -21.2989
  33   2.0000      -0.770638       -20.9701
  34   2.0000      -0.710844       -19.3430
  35   2.0000      -0.700690       -19.0667
  36   2.0000      -0.686500       -18.6806
  37   2.0000      -0.659377       -17.9425
  38   2.0000      -0.638701       -17.3799
  39   2.0000      -0.623855       -16.9760
  40   2.0000      -0.596830       -16.2406
  41   2.0000      -0.570037       -15.5115
  42   2.0000      -0.554253       -15.0820
  43   2.0000      -0.545477       -14.8432
  44   2.0000      -0.536151       -14.5894
  45   2.0000      -0.523937       -14.2570
  46   2.0000      -0.515461       -14.0264
  47   2.0000      -0.510752       -13.8983
  48   2.0000      -0.504476       -13.7275
  49   2.0000      -0.496524       -13.5111
  50   2.0000      -0.489888       -13.3305
  51   2.0000      -0.479520       -13.0484
  52   2.0000      -0.473946       -12.8967
  53   2.0000      -0.464752       -12.6465
  54   2.0000      -0.454719       -12.3735
  55   2.0000      -0.449601       -12.2343
  56   2.0000      -0.446206       -12.1419
  57   2.0000      -0.438734       -11.9386
  58   2.0000      -0.428174       -11.6512
  59   2.0000      -0.423904       -11.5350
  60   2.0000      -0.421406       -11.4670
  61   2.0000      -0.411361       -11.1937
  62   2.0000      -0.404367       -11.0034
  63   2.0000      -0.343782        -9.3548
  64   2.0000      -0.330461        -8.9923
  65   2.0000      -0.326438        -8.8828
  66   2.0000      -0.288957        -7.8629
  67   0.0000       0.017807         0.4845
  68   0.0000       0.066360         1.8057
  69   0.0000       0.099816         2.7161
  70   0.0000       0.112548         3.0626
  71   0.0000       0.140035         3.8106

MULLIKEN ATOMIC CHARGES
-----------------------
   0 S :    0.103782
   1 C :   -0.120568
   2 C :   -0.083375
   3 C :    0.053049
   4 C :   -0.170158
   5 H :    0.008754
   6 C :    0.058710
   7 H :    0.029420
   8 H :    0.026393
   9 C :   -0.059442
  10 H :    0.027869
  11 H :    0.040027
  12 C :   -0.042933
  13 H :    0.026912
  14 H :   -0.006051
  15 H :    0.029972
  16 S :    0.109860
  17 C :   -0.086678
  18 C :   -0.032864
  19 C :   -0.020598
  20 C :   -0.127262
  21 H :    0.019794
  22 C :    0.040262
  23 H :    0.023805
  24 H :    0.028675
  25 C :   -0.125169
  26 H :    0.044007
  27 H :    0.045397
  28 C :   -0.042435
  29 H :    0.029218
  30 H :    0.034448
  31 H :    0.040999
  32 H :    0.042820
  33 H :    0.053362
Sum of atomic charges:    0.0000000

LOEWDIN ATOMIC CHARGES
----------------------
   0 S :    0.387787
   1 C :   -0.185706
   2 C :   -0.060856
   3 C :   -0.060056
   4 C :   -0.187306
   5 H :    0.029898
   6 C :   -0.025068
   7 H :    0.033756
   8 H :    0.030584
   9 C :   -0.034713
  10 H :    0.028638
  11 H :    0.024748
  12 C :   -0.069408
  13 H :    0.021549
  14 H :    0.012844
  15 H :    0.026853
  16 S :    0.409093
  17 C :   -0.186738
  18 C :   -0.075032
  19 C :   -0.042472
  20 C :   -0.198898
  21 H :    0.031723
  22 C :   -0.036917
  23 H :    0.025497
  24 H :    0.031065
  25 C :   -0.052240
  26 H :    0.031113
  27 H :    0.031072
  28 C :   -0.079684
  29 H :    0.027121
  30 H :    0.028843
  31 H :    0.033897
  32 H :    0.023303
  33 H :    0.025711

  Mayer bond orders larger than 0.100000
B(  0-S ,  1-C ) :   1.1305 B(  0-S ,  4-C ) :   1.1618 B(  1-C ,  2-C ) :   1.5698
B(  1-C ,  4-C ) :   0.1122 B(  1-C , 32-H ) :   0.9756 B(  2-C ,  3-C ) :   1.2825
B(  2-C ,  6-C ) :   1.0318 B(  3-C ,  4-C ) :   1.5239 B(  3-C ,  5-H ) :   0.9925
B(  4-C , 20-C ) :   1.0602 B(  6-C ,  7-H ) :   0.9430 B(  6-C ,  8-H ) :   0.9454
B(  6-C ,  9-C ) :   1.0603 B(  9-C , 10-H ) :   0.9573 B(  9-C , 11-H ) :   0.9631
B(  9-C , 12-C ) :   1.0709 B( 12-C , 13-H ) :   0.9759 B( 12-C , 14-H ) :   0.9727
B( 12-C , 15-H ) :   0.9765 B( 16-S , 17-C ) :   1.1768 B( 16-S , 20-C ) :   1.1255
B( 17-C , 18-C ) :   1.5989 B( 17-C , 33-H ) :   0.9681 B( 18-C , 19-C ) :   1.2314
B( 18-C , 21-H ) :   0.9962 B( 19-C , 20-C ) :   1.5706 B( 19-C , 22-C ) :   1.0503
B( 22-C , 23-H ) :   0.9398 B( 22-C , 24-H ) :   0.9426 B( 22-C , 25-C ) :   1.0430
B( 25-C , 26-H ) :   0.9577 B( 25-C , 27-H ) :   0.9543 B( 25-C , 28-C ) :   1.0783
B( 28-C , 29-H ) :   0.9696 B( 28-C , 30-H ) :   0.9729 B( 28-C , 31-H ) :   0.9707

Dispersion correction           -0.013976821
FINAL SINGLE POINT ENERGY     -1339.868784388952

DIPOLE MOMENT
-------------
                                X             Y             Z
Electronic contribution:      4.41553      -5.19835      22.71015
Nuclear contribution   :     -4.31339       5.24177     -23.37281
                        -----------------------------------------
Total Dipole Moment    :      0.10214       0.04342      -0.66266
                        -----------------------------------------
Magnitude (a.u.)       :      0.67189
Magnitude (Debye)      :      1.70781

Rotational constants in cm-1:     0.017982     0.008109     0.006777
Rotational constants in MHz :   539.081467   243.114732   203.176883

                             ****ORCA TERMINATED NORMALLY****
TOTAL RUN TIME: 0 days 0 hours 0 minutes 21 seconds 59 msec
