                         Program Version 4.2.1 -  RELEASE  -
|  1> ! wB97X-D3 SP def2-SVP
|  2> %pal
|  3> nprocs 24
|  4> end
|  5>
|  6> * xyz 0 1
|  7> S 	 -36.4366 	 -29.2403 	 -98.2719
|  8> C 	 -35.5823 	 -29.203 	 -99.8082
|  9> C 	 -35.6006 	 -30.4767 	 -100.369
| 10> C 	 -36.0698 	 -31.4717 	 -99.4503
| 11> C 	 -36.5379 	 -30.9541 	 -98.2353
| 12> H 	 -36.1486 	 -32.5681 	 -99.5949
| 13> C 	 -35.2216 	 -30.8289 	 -101.788
| 14> H 	 -35.2512 	 -31.9283 	 -101.795
| 15> H 	 -34.2229 	 -30.559 	 -101.932
| 16> C 	 -36.0838 	 -30.2236 	 -102.948
| 17> H 	 -36.2261 	 -29.163 	 -102.73
| 18> H 	 -35.6933 	 -30.4085 	 -103.973
| 19> C 	 -37.493 	 -30.8941 	 -102.985
| 20> H 	 -37.6054 	 -31.6406 	 -103.791
| 21> H 	 -37.7639 	 -31.4769 	 -102.112
| 22> H 	 -38.1714 	 -30.1071 	 -103.235
| 23> S 	 -39.1156 	 -31.0231 	 -97.0895
| 24> C 	 -39.475 	 -32.3441 	 -95.9855
| 25> C 	 -38.3437 	 -33.0508 	 -95.6071
| 26> C 	 -37.2646 	 -32.6126 	 -96.3703
| 27> C 	 -37.4666 	 -31.5485 	 -97.2535
| 28> H 	 -38.4403 	 -33.7476 	 -94.7502
| 29> C 	 -35.9098 	 -33.2277 	 -96.302
| 30> H 	 -35.4093 	 -33.2511 	 -97.29
| 31> H 	 -35.9586 	 -34.3721 	 -96.0779
| 32> C 	 -34.9311 	 -32.4166 	 -95.3845
| 33> H 	 -35.0932 	 -32.5023 	 -94.3171
| 34> H 	 -35.0768 	 -31.3208 	 -95.5227
| 35> C 	 -33.4581 	 -32.8419 	 -95.7874
| 36> H 	 -33.2712 	 -32.5588 	 -96.8144
| 37> H 	 -33.3542 	 -33.959 	 -95.7677
| 38> H 	 -32.8451 	 -32.317 	 -95.0983
| 39> H 	 -35.4366 	 -28.2919 	 -100.455
| 40> H 	 -40.3839 	 -32.4232 	 -95.3761
| 41> *
| 42>
| 43>                          ****END OF INPUT****

CARTESIAN COORDINATES (ANGSTROEM)
---------------------------------
  S    -36.436600  -29.240300  -98.271900
  C    -35.582300  -29.203000  -99.808200
  C    -35.600600  -30.476700  -100.369000
  C    -36.069800  -31.471700  -99.450300
  C    -36.537900  -30.954100  -98.235300
  H    -36.148600  -32.568100  -99.594900
  C    -35.221600  -30.828900  -101.788000
  H    -35.251200  -31.928300  -101.795000
  H    -34.222900  -30.559000  -101.932000
  C    -36.083800  -30.223600  -102.948000
  H    -36.226100  -29.163000  -102.730000
  H    -35.693300  -30.408500  -103.973000
  C    -37.493000  -30.894100  -102.985000
  H    -37.605400  -31.640600  -103.791000
  H    -37.763900  -31.476900  -102.112000
  H    -38.171400  -30.107100  -103.235000
  S    -39.115600  -31.023100  -97.089500
  C    -39.475000  -32.344100  -95.985500
  C    -38.343700  -33.050800  -95.607100
  C    -37.264600  -32.612600  -96.370300
  C    -37.466600  -31.548500  -97.253500
  H    -38.440300  -33.747600  -94.750200
  C    -35.909800  -33.227700  -96.302000
  H    -35.409300  -33.251100  -97.290000
  H    -35.958600  -34.372100  -96.077900
  C    -34.931100  -32.416600  -95.384500
  H    -35.093200  -32.502300  -94.317100
  H    -35.076800  -31.320800  -95.522700
  C    -33.458100  -32.841900  -95.787400
  H    -33.271200  -32.558800  -96.814400
  H    -33.354200  -33.959000  -95.767700
  H    -32.845100  -32.317000  -95.098300
  H    -35.436600  -28.291900  -100.455000
  H    -40.383900  -32.423200  -95.376100

 Total Charge           Charge          ....    0
 Multiplicity           Mult            ....    1
 Number of Electrons    NEL             ....  134
 Basis Dimension        Dim             ....  322

ORBITAL ENERGIES
----------------

  NO   OCC          E(Eh)            E(eV)
   0   2.0000     -88.969029     -2420.9704
   1   2.0000     -88.968600     -2420.9587
   2   2.0000     -10.333188      -281.1803
   3   2.0000     -10.326700      -281.0038
   4   2.0000     -10.319709      -280.8136
   5   2.0000     -10.318592      -280.7832
   6   2.0000     -10.306364      -280.4504
   7   2.0000     -10.301900      -280.3290
   8   2.0000     -10.298019      -280.2234
   9   2.0000     -10.296290      -280.1763
  10   2.0000     -10.295244      -280.1478
  11   2.0000     -10.292703      -280.0787
  12   2.0000     -10.290625      -280.0221
  13   2.0000     -10.286187      -279.9014
  14   2.0000     -10.275379      -279.6073
  15   2.0000     -10.272688      -279.5340
  16   2.0000      -8.083567      -219.9650
  17   2.0000      -8.083445      -219.9617
  18   2.0000      -6.042018      -164.4117
  19   2.0000      -6.041884      -164.4080
  20   2.0000      -6.037970      -164.3015
  21   2.0000      -6.037873      -164.2989
  22   2.0000      -6.034523      -164.2077
  23   2.0000      -6.034309      -164.2019
  24   2.0000      -1.010595       -27.4997
  25   2.0000      -0.988117       -26.8880
  26   2.0000      -0.910281       -24.7700
  27   2.0000      -0.899545       -24.4779
  28   2.0000      -0.868078       -23.6216
  29   2.0000      -0.846226       -23.0270
  30   2.0000      -0.845183       -22.9986
  31   2.0000      -0.815018       -22.1778
  32   2.0000      -0.781988       -21.2790
  33   2.0000      -0.760271       -20.6880
  34   2.0000      -0.705013       -19.1844
  35   2.0000      -0.701937       -19.1007
  36   2.0000      -0.692196       -18.8356
  37   2.0000      -0.658420       -17.9165
  38   2.0000      -0.637550       -17.3486
  39   2.0000      -0.614708       -16.7271
  40   2.0000      -0.593603       -16.1527
  41   2.0000      -0.575759       -15.6672
  42   2.0000      -0.553806       -15.0698
  43   2.0000      -0.548810       -14.9339
  44   2.0000      -0.542370       -14.7586
  45   2.0000      -0.523722       -14.2512
  46   2.0000      -0.514713       -14.0060
  47   2.0000      -0.507924       -13.8213
  48   2.0000      -0.505010       -13.7420
  49   2.0000      -0.491330       -13.3698
  50   2.0000      -0.484714       -13.1897
  51   2.0000      -0.479309       -13.0427
  52   2.0000      -0.470322       -12.7981
  53   2.0000      -0.466466       -12.6932
  54   2.0000      -0.458986       -12.4896
  55   2.0000      -0.448043       -12.1919
  56   2.0000      -0.440421       -11.9845
  57   2.0000      -0.436483       -11.8773
  58   2.0000      -0.433810       -11.8046
  59   2.0000      -0.422033       -11.4841
  60   2.0000      -0.416046       -11.3212
  61   2.0000      -0.411287       -11.1917
  62   2.0000      -0.407844       -11.0980
  63   2.0000      -0.345963        -9.4141
  64   2.0000      -0.331419        -9.0184
  65   2.0000      -0.329318        -8.9612
  66   2.0000      -0.295061        -8.0290
  67   0.0000       0.026177         0.7123
  68   0.0000       0.058231         1.5846
  69   0.0000       0.111393         3.0311
  70   0.0000       0.120289         3.2732
  71   0.0000       0.129621         3.5272

MULLIKEN ATOMIC CHARGES
-----------------------
   0 S :    0.104147
   1 C :   -0.122034
   2 C :   -0.127856
   3 C :    0.037345
   4 C :   -0.169581
   5 H :    0.031727
   6 C :    0.085495
   7 H :    0.018472
   8 H :    0.024455
   9 C :   -0.077564
  10 H :    0.033744
  11 H :    0.046740
  12 C :   -0.063829
  13 H :    0.025440
  14 H :    0.038202
  15 H :    0.029708
  16 S :    0.119788
  17 C :   -0.111131
  18 C :   -0.044886
  19 C :   -0.025020
  20 C :   -0.139001
  21 H :    0.040228
  22 C :    0.016080
  23 H :    0.014449
  24 H :    0.037903
  25 C :   -0.088228
  26 H :    0.025762
  27 H :    0.037756
  28 C :   -0.041464
  29 H :    0.037430
  30 H :    0.036034
  31 H :    0.032266
  32 H :    0.074797
  33 H :    0.062623
Sum of atomic charges:   -0.0000000

LOEWDIN ATOMIC CHARGES
----------------------
   0 S :    0.427579
   1 C :   -0.213910
   2 C :   -0.062342
   3 C :   -0.067423
   4 C :   -0.204580
   5 H :    0.036740
   6 C :   -0.029549
   7 H :    0.030337
   8 H :    0.024938
   9 C :   -0.035879
  10 H :    0.021926
  11 H :    0.032893
  12 C :   -0.069314
  13 H :    0.025202
  14 H :    0.024441
  15 H :    0.024270
  16 S :    0.415952
  17 C :   -0.187010
  18 C :   -0.074013
  19 C :   -0.063412
  20 C :   -0.216239
  21 H :    0.045231
  22 C :   -0.045125
  23 H :    0.028101
  24 H :    0.036218
  25 C :   -0.037625
  26 H :    0.018266
  27 H :    0.028090
  28 C :   -0.060176
  29 H :    0.023552
  30 H :    0.028579
  31 H :    0.020148
  32 H :    0.042002
  33 H :    0.032134

  Mayer bond orders larger than 0.100000
B(  0-S ,  1-C ) :   1.1441 B(  0-S ,  4-C ) :   1.1750 B(  1-C ,  2-C ) :   1.5873
B(  1-C ,  4-C ) :   0.1004 B(  1-C , 32-H ) :   0.9595 B(  2-C ,  3-C ) :   1.2732
B(  2-C ,  6-C ) :   1.0139 B(  3-C ,  4-C ) :   1.5462 B(  3-C ,  5-H ) :   0.9796
B(  4-C , 20-C ) :   1.0172 B(  6-C ,  7-H ) :   0.9473 B(  6-C ,  8-H ) :   0.9357
B(  6-C ,  9-C ) :   1.0657 B(  9-C , 10-H ) :   0.9677 B(  9-C , 11-H ) :   0.9613
B(  9-C , 12-C ) :   1.0511 B( 12-C , 13-H ) :   0.9799 B( 12-C , 14-H ) :   0.9831
B( 12-C , 15-H ) :   0.9779 B( 16-S , 17-C ) :   1.1786 B( 16-S , 20-C ) :   1.1334
B( 17-C , 18-C ) :   1.5811 B( 17-C , 20-C ) :   0.1032 B( 17-C , 33-H ) :   0.9577
B( 18-C , 19-C ) :   1.2754 B( 18-C , 21-H ) :   0.9910 B( 19-C , 20-C ) :   1.5666
B( 19-C , 22-C ) :   1.0564 B( 22-C , 23-H ) :   0.9364 B( 22-C , 24-H ) :   0.9371
B( 22-C , 25-C ) :   1.0370 B( 25-C , 26-H ) :   0.9593 B( 25-C , 27-H ) :   0.9597
B( 25-C , 28-C ) :   1.0693 B( 28-C , 29-H ) :   0.9771 B( 28-C , 30-H ) :   0.9758
B( 28-C , 31-H ) :   0.9757

Dispersion correction           -0.014716716
FINAL SINGLE POINT ENERGY     -1339.862428722728

DIPOLE MOMENT
-------------
                                X             Y             Z
Electronic contribution:    -13.48639       9.67258      10.57502
Nuclear contribution   :     13.58027      -9.96248     -10.80730
                        -----------------------------------------
Total Dipole Moment    :      0.09389      -0.28991      -0.23227
                        -----------------------------------------
Magnitude (a.u.)       :      0.38316
Magnitude (Debye)      :      0.97391

Rotational constants in cm-1:     0.019184     0.008792     0.007344
Rotational constants in MHz :   575.115945   263.566743   220.178618

                             ****ORCA TERMINATED NORMALLY****
TOTAL RUN TIME: 0 days 0 hours 0 minutes 21 seconds 949 msec
