                         Program Version 4.2.1 -  RELEASE  -
|  1> ! wB97X-D3 SP def2-SVP
|  2> %pal
|  3> nprocs 24
|  4> end
|  5>
|  6> * xyz 0 1
|  7> S 	 -46.3075 	 -5.05228 	 20.9158
|  8> C 	 -46.6275 	 -3.34899 	 20.8223
|  9> C 	 -45.7013 	 -2.76155 	 19.9745
| 10> C 	 -44.7925 	 -3.72294 	 19.4185
| 11> C 	 -44.8981 	 -4.94456 	 19.956
| 12> H 	 -44.0246 	 -3.43002 	 18.7299
| 13> C 	 -45.6791 	 -1.24003 	 19.5799
| 14> H 	 -44.6579 	 -1.01201 	 19.3051
| 15> H 	 -46.0023 	 -0.626089 	 20.2846
| 16> C 	 -46.4692 	 -0.871311 	 18.2556
| 17> H 	 -46.1574 	 -1.53784 	 17.4988
| 18> H 	 -47.4748 	 -1.0393 	 18.3757
| 19> C 	 -46.2297 	 0.562413 	 17.8387
| 20> H 	 -46.5879 	 1.31925 	 18.4582
| 21> H 	 -45.2163 	 0.731137 	 17.5273
| 22> H 	 -46.7332 	 0.684728 	 16.8734
| 23> S 	 -44.582 	 -7.63259 	 20.3026
| 24> C 	 -43.1499 	 -8.37277 	 19.6896
| 25> C 	 -42.1755 	 -7.43765 	 19.3898
| 26> C 	 -42.5808 	 -6.08222 	 19.4955
| 27> C 	 -43.9672 	 -6.06082 	 19.9183
| 28> H 	 -41.2611 	 -7.85467 	 19.0024
| 29> C 	 -41.7268 	 -4.98048 	 18.9944
| 30> H 	 -41.8281 	 -4.14221 	 19.6148
| 31> H 	 -41.9115 	 -4.74209 	 17.9287
| 32> C 	 -40.1901 	 -5.14646 	 18.8398
| 33> H 	 -40.1054 	 -6.08494 	 18.3679
| 34> H 	 -39.8064 	 -5.26147 	 19.8627
| 35> C 	 -39.485 	 -3.93348 	 18.1764
| 36> H 	 -39.4964 	 -3.03169 	 18.7737
| 37> H 	 -39.8623 	 -3.61707 	 17.2034
| 38> H 	 -38.5331 	 -4.21562 	 18.0635
| 39> H 	 -47.4829 	 -2.77878 	 21.2302
| 40> H 	 -42.8906 	 -9.46372 	 19.6837
| 41> *
| 42>
| 43>                          ****END OF INPUT****

CARTESIAN COORDINATES (ANGSTROEM)
---------------------------------
  S    -46.307500   -5.052280   20.915800
  C    -46.627500   -3.348990   20.822300
  C    -45.701300   -2.761550   19.974500
  C    -44.792500   -3.722940   19.418500
  C    -44.898100   -4.944560   19.956000
  H    -44.024600   -3.430020   18.729900
  C    -45.679100   -1.240030   19.579900
  H    -44.657900   -1.012010   19.305100
  H    -46.002300   -0.626089   20.284600
  C    -46.469200   -0.871311   18.255600
  H    -46.157400   -1.537840   17.498800
  H    -47.474800   -1.039300   18.375700
  C    -46.229700    0.562413   17.838700
  H    -46.587900    1.319250   18.458200
  H    -45.216300    0.731137   17.527300
  H    -46.733200    0.684728   16.873400
  S    -44.582000   -7.632590   20.302600
  C    -43.149900   -8.372770   19.689600
  C    -42.175500   -7.437650   19.389800
  C    -42.580800   -6.082220   19.495500
  C    -43.967200   -6.060820   19.918300
  H    -41.261100   -7.854670   19.002400
  C    -41.726800   -4.980480   18.994400
  H    -41.828100   -4.142210   19.614800
  H    -41.911500   -4.742090   17.928700
  C    -40.190100   -5.146460   18.839800
  H    -40.105400   -6.084940   18.367900
  H    -39.806400   -5.261470   19.862700
  C    -39.485000   -3.933480   18.176400
  H    -39.496400   -3.031690   18.773700
  H    -39.862300   -3.617070   17.203400
  H    -38.533100   -4.215620   18.063500
  H    -47.482900   -2.778780   21.230200
  H    -42.890600   -9.463720   19.683700

 Total Charge           Charge          ....    0
 Multiplicity           Mult            ....    1
 Number of Electrons    NEL             ....  134
 Basis Dimension        Dim             ....  322

ORBITAL ENERGIES
----------------

  NO   OCC          E(Eh)            E(eV)
   0   2.0000     -88.970897     -2421.0212
   1   2.0000     -88.960536     -2420.7393
   2   2.0000     -10.332207      -281.1537
   3   2.0000     -10.321545      -280.8635
   4   2.0000     -10.317043      -280.7410
   5   2.0000     -10.311797      -280.5983
   6   2.0000     -10.310139      -280.5531
   7   2.0000     -10.300724      -280.2969
   8   2.0000     -10.291185      -280.0374
   9   2.0000     -10.288356      -279.9604
  10   2.0000     -10.287235      -279.9299
  11   2.0000     -10.284491      -279.8552
  12   2.0000     -10.284015      -279.8423
  13   2.0000     -10.276011      -279.6245
  14   2.0000     -10.275220      -279.6030
  15   2.0000     -10.270392      -279.4716
  16   2.0000      -8.086118      -220.0345
  17   2.0000      -8.076630      -219.7763
  18   2.0000      -6.044555      -164.4807
  19   2.0000      -6.040510      -164.3706
  20   2.0000      -6.037003      -164.2752
  21   2.0000      -6.035218      -164.2266
  22   2.0000      -6.030995      -164.1117
  23   2.0000      -6.027184      -164.0080
  24   2.0000      -1.014055       -27.5938
  25   2.0000      -0.987993       -26.8847
  26   2.0000      -0.916432       -24.9374
  27   2.0000      -0.908164       -24.7124
  28   2.0000      -0.870954       -23.6999
  29   2.0000      -0.859124       -23.3779
  30   2.0000      -0.845207       -22.9992
  31   2.0000      -0.817287       -22.2395
  32   2.0000      -0.789540       -21.4845
  33   2.0000      -0.775388       -21.0994
  34   2.0000      -0.713808       -19.4237
  35   2.0000      -0.706305       -19.2195
  36   2.0000      -0.695616       -18.9287
  37   2.0000      -0.655292       -17.8314
  38   2.0000      -0.634411       -17.2632
  39   2.0000      -0.627899       -17.0860
  40   2.0000      -0.602949       -16.4071
  41   2.0000      -0.579812       -15.7775
  42   2.0000      -0.572494       -15.5784
  43   2.0000      -0.562821       -15.3151
  44   2.0000      -0.528023       -14.3682
  45   2.0000      -0.522096       -14.2070
  46   2.0000      -0.515896       -14.0383
  47   2.0000      -0.510226       -13.8840
  48   2.0000      -0.506698       -13.7879
  49   2.0000      -0.501138       -13.6367
  50   2.0000      -0.498351       -13.5608
  51   2.0000      -0.482484       -13.1290
  52   2.0000      -0.481141       -13.0925
  53   2.0000      -0.468631       -12.7521
  54   2.0000      -0.461801       -12.5662
  55   2.0000      -0.459192       -12.4952
  56   2.0000      -0.454882       -12.3780
  57   2.0000      -0.437437       -11.9033
  58   2.0000      -0.434984       -11.8365
  59   2.0000      -0.430006       -11.7011
  60   2.0000      -0.424568       -11.5531
  61   2.0000      -0.412614       -11.2278
  62   2.0000      -0.406707       -11.0671
  63   2.0000      -0.358388        -9.7522
  64   2.0000      -0.336736        -9.1631
  65   2.0000      -0.324606        -8.8330
  66   2.0000      -0.278458        -7.5772
  67   0.0000       0.020423         0.5557
  68   0.0000       0.089953         2.4477
  69   0.0000       0.096574         2.6279
  70   0.0000       0.120697         3.2843
  71   0.0000       0.142370         3.8741

MULLIKEN ATOMIC CHARGES
-----------------------
   0 S :    0.088954
   1 C :   -0.115200
   2 C :   -0.112514
   3 C :   -0.021693
   4 C :   -0.071879
   5 H :   -0.002698
   6 C :    0.116211
   7 H :    0.009838
   8 H :   -0.012886
   9 C :   -0.043173
  10 H :    0.013064
  11 H :    0.007635
  12 C :   -0.020917
  13 H :    0.027851
  14 H :    0.018681
  15 H :    0.022020
  16 S :    0.121950
  17 C :   -0.101988
  18 C :   -0.072348
  19 C :    0.014552
  20 C :   -0.132469
  21 H :    0.016479
  22 C :    0.012863
  23 H :    0.023686
  24 H :    0.045649
  25 C :   -0.092684
  26 H :    0.021833
  27 H :    0.029452
  28 C :    0.017187
  29 H :    0.030743
  30 H :    0.024814
  31 H :    0.009420
  32 H :    0.057262
  33 H :    0.070304
Sum of atomic charges:   -0.0000000

LOEWDIN ATOMIC CHARGES
----------------------
   0 S :    0.412132
   1 C :   -0.211370
   2 C :   -0.057084
   3 C :   -0.073862
   4 C :   -0.197079
   5 H :    0.027178
   6 C :   -0.010167
   7 H :    0.027418
   8 H :    0.005401
   9 C :   -0.024495
  10 H :    0.019903
  11 H :    0.010776
  12 C :   -0.060131
  13 H :    0.016984
  14 H :    0.022799
  15 H :    0.032514
  16 S :    0.431013
  17 C :   -0.206724
  18 C :   -0.076071
  19 C :   -0.050394
  20 C :   -0.196541
  21 H :    0.029085
  22 C :   -0.041293
  23 H :    0.023234
  24 H :    0.038138
  25 C :   -0.029424
  26 H :    0.013218
  27 H :    0.025568
  28 C :   -0.049958
  29 H :    0.029659
  30 H :    0.026104
  31 H :    0.013882
  32 H :    0.038118
  33 H :    0.041469

  Mayer bond orders larger than 0.100000
B(  0-S ,  1-C ) :   1.1293 B(  0-S ,  4-C ) :   1.1412 B(  1-C ,  2-C ) :   1.6200
B(  1-C , 32-H ) :   0.9674 B(  2-C ,  3-C ) :   1.2413 B(  2-C ,  6-C ) :   1.0264
B(  3-C ,  4-C ) :   1.5734 B(  3-C ,  5-H ) :   0.9989 B(  4-C , 20-C ) :   1.0725
B(  6-C ,  7-H ) :   0.9423 B(  6-C ,  8-H ) :   0.9459 B(  6-C ,  9-C ) :   1.0601
B(  9-C , 10-H ) :   0.9539 B(  9-C , 11-H ) :   0.9559 B(  9-C , 12-C ) :   1.0959
B( 12-C , 13-H ) :   0.9763 B( 12-C , 14-H ) :   0.9716 B( 12-C , 15-H ) :   0.9671
B( 16-S , 17-C ) :   1.1593 B( 16-S , 20-C ) :   1.1651 B( 17-C , 18-C ) :   1.6089
B( 17-C , 20-C ) :   0.1035 B( 17-C , 33-H ) :   0.9561 B( 18-C , 19-C ) :   1.2611
B( 18-C , 21-H ) :   0.9865 B( 19-C , 20-C ) :   1.5193 B( 19-C , 22-C ) :   1.0586
B( 22-C , 23-H ) :   0.9285 B( 22-C , 24-H ) :   0.9289 B( 22-C , 25-C ) :   1.0619
B( 25-C , 26-H ) :   0.9502 B( 25-C , 27-H ) :   0.9547 B( 25-C , 28-C ) :   1.0830
B( 28-C , 29-H ) :   0.9728 B( 28-C , 30-H ) :   0.9723 B( 28-C , 31-H ) :   0.9690

Dispersion correction           -0.013052015
FINAL SINGLE POINT ENERGY     -1339.845007639169

DIPOLE MOMENT
-------------
                                X             Y             Z
Electronic contribution:    -14.33473     -25.49592      14.62540
Nuclear contribution   :     14.84791      25.95690     -15.07841
                        -----------------------------------------
Total Dipole Moment    :      0.51318       0.46098      -0.45301
                        -----------------------------------------
Magnitude (a.u.)       :      0.82527
Magnitude (Debye)      :      2.09767

Rotational constants in cm-1:     0.016328     0.008580     0.005873
Rotational constants in MHz :   489.491639   257.222706   176.082823

                             ****ORCA TERMINATED NORMALLY****
TOTAL RUN TIME: 0 days 0 hours 0 minutes 19 seconds 709 msec
