                         Program Version 4.2.1 -  RELEASE  -
|  1> ! wB97X-D3 SP def2-SVP
|  2> %pal
|  3> nprocs 24
|  4> end
|  5>
|  6> * xyz 0 1
|  7> S 	 -58.3146 	 16.2688 	 23.6298
|  8> C 	 -59.3386 	 14.8729 	 23.1545
|  9> C 	 -58.5603 	 13.742 	 22.9868
| 10> C 	 -57.1771 	 14.0151 	 23.3096
| 11> C 	 -56.8079 	 15.3215 	 23.5681
| 12> H 	 -56.3978 	 13.2916 	 23.3853
| 13> C 	 -59.1201 	 12.3399 	 22.7208
| 14> H 	 -59.8445 	 12.0639 	 23.515
| 15> H 	 -58.2319 	 11.6765 	 22.6757
| 16> C 	 -59.9567 	 12.3521 	 21.4091
| 17> H 	 -60.5956 	 13.2162 	 21.3508
| 18> H 	 -59.3101 	 12.4152 	 20.5814
| 19> C 	 -60.8381 	 11.1801 	 21.214
| 20> H 	 -61.656 	 11.5057 	 20.538
| 21> H 	 -60.4276 	 10.4033 	 20.5469
| 22> H 	 -61.2158 	 10.8095 	 22.1481
| 23> S 	 -55.347 	 17.0096 	 25.0301
| 24> C 	 -53.6633 	 17.0255 	 24.8725
| 25> C 	 -53.1726 	 16.2566 	 23.8552
| 26> C 	 -54.2409 	 15.5488 	 23.2484
| 27> C 	 -55.5013 	 15.9113 	 23.7156
| 28> H 	 -52.135 	 16.2152 	 23.6063
| 29> C 	 -53.9613 	 14.6156 	 22.0672
| 30> H 	 -54.2818 	 13.5254 	 22.2717
| 31> H 	 -52.8571 	 14.6069 	 21.8972
| 32> C 	 -54.5659 	 15.1049 	 20.7008
| 33> H 	 -55.604 	 15.1531 	 20.9176
| 34> H 	 -54.4494 	 14.4434 	 19.8415
| 35> C 	 -53.9757 	 16.5192 	 20.4481
| 36> H 	 -54.2804 	 17.2831 	 21.1713
| 37> H 	 -54.2947 	 16.8541 	 19.5005
| 38> H 	 -52.8572 	 16.663 	 20.488
| 39> H 	 -60.3621 	 15.0675 	 23.1297
| 40> H 	 -52.9872 	 17.6386 	 25.4715
| 41> *
| 42>
| 43>                          ****END OF INPUT****

CARTESIAN COORDINATES (ANGSTROEM)
---------------------------------
  S    -58.314600   16.268800   23.629800
  C    -59.338600   14.872900   23.154500
  C    -58.560300   13.742000   22.986800
  C    -57.177100   14.015100   23.309600
  C    -56.807900   15.321500   23.568100
  H    -56.397800   13.291600   23.385300
  C    -59.120100   12.339900   22.720800
  H    -59.844500   12.063900   23.515000
  H    -58.231900   11.676500   22.675700
  C    -59.956700   12.352100   21.409100
  H    -60.595600   13.216200   21.350800
  H    -59.310100   12.415200   20.581400
  C    -60.838100   11.180100   21.214000
  H    -61.656000   11.505700   20.538000
  H    -60.427600   10.403300   20.546900
  H    -61.215800   10.809500   22.148100
  S    -55.347000   17.009600   25.030100
  C    -53.663300   17.025500   24.872500
  C    -53.172600   16.256600   23.855200
  C    -54.240900   15.548800   23.248400
  C    -55.501300   15.911300   23.715600
  H    -52.135000   16.215200   23.606300
  C    -53.961300   14.615600   22.067200
  H    -54.281800   13.525400   22.271700
  H    -52.857100   14.606900   21.897200
  C    -54.565900   15.104900   20.700800
  H    -55.604000   15.153100   20.917600
  H    -54.449400   14.443400   19.841500
  C    -53.975700   16.519200   20.448100
  H    -54.280400   17.283100   21.171300
  H    -54.294700   16.854100   19.500500
  H    -52.857200   16.663000   20.488000
  H    -60.362100   15.067500   23.129700
  H    -52.987200   17.638600   25.471500

 Total Charge           Charge          ....    0
 Multiplicity           Mult            ....    1
 Number of Electrons    NEL             ....  134
 Basis Dimension        Dim             ....  322

ORBITAL ENERGIES
----------------

  NO   OCC          E(Eh)            E(eV)
   0   2.0000     -88.968580     -2420.9581
   1   2.0000     -88.959307     -2420.7058
   2   2.0000     -10.331643      -281.1383
   3   2.0000     -10.324731      -280.9502
   4   2.0000     -10.315756      -280.7060
   5   2.0000     -10.315202      -280.6909
   6   2.0000     -10.307000      -280.4677
   7   2.0000     -10.306899      -280.4650
   8   2.0000     -10.300527      -280.2916
   9   2.0000     -10.300267      -280.2845
  10   2.0000     -10.292727      -280.0793
  11   2.0000     -10.292413      -280.0708
  12   2.0000     -10.284439      -279.8538
  13   2.0000     -10.277517      -279.6655
  14   2.0000     -10.274704      -279.5889
  15   2.0000     -10.271818      -279.5104
  16   2.0000      -8.085112      -220.0071
  17   2.0000      -8.073448      -219.6897
  18   2.0000      -6.043368      -164.4484
  19   2.0000      -6.039296      -164.3376
  20   2.0000      -6.036092      -164.2504
  21   2.0000      -6.032100      -164.1418
  22   2.0000      -6.028032      -164.0311
  23   2.0000      -6.024117      -163.9246
  24   2.0000      -1.016095       -27.6493
  25   2.0000      -0.982118       -26.7248
  26   2.0000      -0.914889       -24.8954
  27   2.0000      -0.904774       -24.6201
  28   2.0000      -0.876639       -23.8546
  29   2.0000      -0.848248       -23.0820
  30   2.0000      -0.844615       -22.9832
  31   2.0000      -0.815144       -22.1812
  32   2.0000      -0.779159       -21.2020
  33   2.0000      -0.768753       -20.9188
  34   2.0000      -0.712013       -19.3749
  35   2.0000      -0.700210       -19.0537
  36   2.0000      -0.688836       -18.7442
  37   2.0000      -0.670656       -18.2495
  38   2.0000      -0.648381       -17.6433
  39   2.0000      -0.618117       -16.8198
  40   2.0000      -0.591449       -16.0941
  41   2.0000      -0.571754       -15.5582
  42   2.0000      -0.568214       -15.4619
  43   2.0000      -0.549103       -14.9418
  44   2.0000      -0.543141       -14.7796
  45   2.0000      -0.527019       -14.3409
  46   2.0000      -0.519728       -14.1425
  47   2.0000      -0.515638       -14.0312
  48   2.0000      -0.504870       -13.7382
  49   2.0000      -0.499015       -13.5789
  50   2.0000      -0.486984       -13.2515
  51   2.0000      -0.481926       -13.1139
  52   2.0000      -0.473120       -12.8743
  53   2.0000      -0.467430       -12.7194
  54   2.0000      -0.459831       -12.5126
  55   2.0000      -0.447792       -12.1850
  56   2.0000      -0.439108       -11.9487
  57   2.0000      -0.433283       -11.7902
  58   2.0000      -0.430443       -11.7129
  59   2.0000      -0.424487       -11.5509
  60   2.0000      -0.414521       -11.2797
  61   2.0000      -0.412328       -11.2200
  62   2.0000      -0.408627       -11.1193
  63   2.0000      -0.356183        -9.6922
  64   2.0000      -0.335591        -9.1319
  65   2.0000      -0.326506        -8.8847
  66   2.0000      -0.287607        -7.8262
  67   0.0000       0.022434         0.6104
  68   0.0000       0.073482         1.9995
  69   0.0000       0.106892         2.9087
  70   0.0000       0.120313         3.2739
  71   0.0000       0.134547         3.6612

MULLIKEN ATOMIC CHARGES
-----------------------
   0 S :    0.066669
   1 C :   -0.125644
   2 C :   -0.057157
   3 C :    0.011464
   4 C :   -0.126706
   5 H :   -0.006059
   6 C :    0.072835
   7 H :    0.044039
   8 H :    0.034978
   9 C :   -0.077181
  10 H :    0.024700
  11 H :    0.014738
  12 C :   -0.032884
  13 H :    0.024776
  14 H :    0.030611
  15 H :    0.027270
  16 S :    0.126691
  17 C :   -0.077585
  18 C :   -0.028270
  19 C :   -0.065718
  20 C :   -0.121574
  21 H :    0.013547
  22 C :   -0.000083
  23 H :    0.048361
  24 H :    0.022245
  25 C :   -0.034109
  26 H :    0.038413
  27 H :    0.037075
  28 C :   -0.068381
  29 H :    0.044761
  30 H :    0.019080
  31 H :    0.025236
  32 H :    0.039545
  33 H :    0.054316
Sum of atomic charges:   -0.0000000

LOEWDIN ATOMIC CHARGES
----------------------
   0 S :    0.359639
   1 C :   -0.165598
   2 C :   -0.060559
   3 C :   -0.069783
   4 C :   -0.183177
   5 H :    0.022841
   6 C :   -0.024992
   7 H :    0.035954
   8 H :    0.033465
   9 C :   -0.041588
  10 H :    0.022576
  11 H :    0.021080
  12 C :   -0.069724
  13 H :    0.032639
  14 H :    0.027994
  15 H :    0.019906
  16 S :    0.454929
  17 C :   -0.194798
  18 C :   -0.070596
  19 C :   -0.050535
  20 C :   -0.216437
  21 H :    0.032290
  22 C :   -0.038348
  23 H :    0.033125
  24 H :    0.026892
  25 C :   -0.032526
  26 H :    0.023147
  27 H :    0.025730
  28 C :   -0.070921
  29 H :    0.030270
  30 H :    0.016272
  31 H :    0.026678
  32 H :    0.013669
  33 H :    0.030486

  Mayer bond orders larger than 0.100000
B(  0-S ,  1-C ) :   1.1314 B(  0-S ,  4-C ) :   1.1309 B(  1-C ,  2-C ) :   1.5875
B(  1-C ,  4-C ) :   0.1025 B(  1-C , 32-H ) :   0.9857 B(  2-C ,  3-C ) :   1.2333
B(  2-C ,  6-C ) :   1.0164 B(  3-C ,  4-C ) :   1.5939 B(  3-C ,  5-H ) :   0.9967
B(  4-C , 20-C ) :   1.0427 B(  6-C ,  7-H ) :   0.9416 B(  6-C ,  8-H ) :   0.9445
B(  6-C ,  9-C ) :   1.0596 B(  9-C , 10-H ) :   0.9665 B(  9-C , 11-H ) :   0.9493
B(  9-C , 12-C ) :   1.0912 B( 12-C , 13-H ) :   0.9714 B( 12-C , 14-H ) :   0.9729
B( 12-C , 15-H ) :   0.9727 B( 16-S , 17-C ) :   1.1952 B( 16-S , 20-C ) :   1.1511
B( 17-C , 18-C ) :   1.5785 B( 17-C , 33-H ) :   0.9607 B( 18-C , 19-C ) :   1.2675
B( 18-C , 21-H ) :   0.9987 B( 19-C , 20-C ) :   1.5628 B( 19-C , 22-C ) :   1.0365
B( 22-C , 23-H ) :   0.9381 B( 22-C , 24-H ) :   0.9451 B( 22-C , 25-C ) :   1.0581
B( 25-C , 26-H ) :   0.9542 B( 25-C , 27-H ) :   0.9621 B( 25-C , 28-C ) :   1.0627
B( 28-C , 29-H ) :   0.9719 B( 28-C , 30-H ) :   0.9751 B( 28-C , 31-H ) :   0.9780

Dispersion correction           -0.014644563
FINAL SINGLE POINT ENERGY     -1339.870920837576

DIPOLE MOMENT
-------------
                                X             Y             Z
Electronic contribution:      2.98513      17.48112      19.94913
Nuclear contribution   :     -2.82021     -17.90895     -20.23785
                        -----------------------------------------
Total Dipole Moment    :      0.16492      -0.42783      -0.28872
                        -----------------------------------------
Magnitude (a.u.)       :      0.54185
Magnitude (Debye)      :      1.37727

Rotational constants in cm-1:     0.023056     0.007843     0.006582
Rotational constants in MHz :   691.213285   235.117290   197.323953

                             ****ORCA TERMINATED NORMALLY****
TOTAL RUN TIME: 0 days 0 hours 0 minutes 22 seconds 117 msec
