                         Program Version 4.2.1 -  RELEASE  -
|  1> ! wB97X-D3 SP def2-SVP
|  2> %pal
|  3> nprocs 24
|  4> end
|  5>
|  6> * xyz 0 1
|  7> S 	 -136.637 	 15.1486 	 -15.1506
|  8> C 	 -136.67 	 13.6804 	 -14.211
|  9> C 	 -136.239 	 12.5984 	 -14.9111
| 10> C 	 -135.939 	 12.9626 	 -16.2677
| 11> C 	 -136.211 	 14.2955 	 -16.5692
| 12> H 	 -135.535 	 12.3306 	 -17.0352
| 13> C 	 -136.219 	 11.2365 	 -14.3309
| 14> H 	 -135.484 	 11.3089 	 -13.4238
| 15> H 	 -135.706 	 10.5718 	 -15.0788
| 16> C 	 -137.516 	 10.594 	 -13.9284
| 17> H 	 -137.344 	 9.63749 	 -13.5163
| 18> H 	 -137.855 	 11.2706 	 -13.1851
| 19> C 	 -138.62 	 10.5085 	 -15.009
| 20> H 	 -139.558 	 10.3479 	 -14.4779
| 21> H 	 -138.549 	 11.3791 	 -15.6882
| 22> H 	 -138.51 	 9.58494 	 -15.5627
| 23> S 	 -134.617 	 16.1796 	 -17.9577
| 24> C 	 -134.777 	 16.2299 	 -19.7059
| 25> C 	 -135.853 	 15.4983 	 -20.0758
| 26> C 	 -136.479 	 14.7352 	 -19.0258
| 27> C 	 -135.893 	 14.9642 	 -17.8262
| 28> H 	 -136.227 	 15.4629 	 -21.0564
| 29> C 	 -137.815 	 13.9459 	 -19.249
| 30> H 	 -138.513 	 14.5875 	 -19.8463
| 31> H 	 -138.37 	 13.868 	 -18.3283
| 32> C 	 -137.68 	 12.4224 	 -19.6511
| 33> H 	 -137.019 	 11.9287 	 -18.9562
| 34> H 	 -136.898 	 12.4222 	 -20.4811
| 35> C 	 -138.936 	 11.5702 	 -19.962
| 36> H 	 -138.679 	 10.5451 	 -20.4389
| 37> H 	 -139.531 	 11.9665 	 -20.734
| 38> H 	 -139.63 	 11.3312 	 -19.1482
| 39> H 	 -136.88 	 13.5598 	 -13.2176
| 40> H 	 -134.098 	 16.851 	 -20.3499
| 41> *
| 42>
| 43>                          ****END OF INPUT****

CARTESIAN COORDINATES (ANGSTROEM)
---------------------------------
  S    -136.637000   15.148600  -15.150600
  C    -136.670000   13.680400  -14.211000
  C    -136.239000   12.598400  -14.911100
  C    -135.939000   12.962600  -16.267700
  C    -136.211000   14.295500  -16.569200
  H    -135.535000   12.330600  -17.035200
  C    -136.219000   11.236500  -14.330900
  H    -135.484000   11.308900  -13.423800
  H    -135.706000   10.571800  -15.078800
  C    -137.516000   10.594000  -13.928400
  H    -137.344000    9.637490  -13.516300
  H    -137.855000   11.270600  -13.185100
  C    -138.620000   10.508500  -15.009000
  H    -139.558000   10.347900  -14.477900
  H    -138.549000   11.379100  -15.688200
  H    -138.510000    9.584940  -15.562700
  S    -134.617000   16.179600  -17.957700
  C    -134.777000   16.229900  -19.705900
  C    -135.853000   15.498300  -20.075800
  C    -136.479000   14.735200  -19.025800
  C    -135.893000   14.964200  -17.826200
  H    -136.227000   15.462900  -21.056400
  C    -137.815000   13.945900  -19.249000
  H    -138.513000   14.587500  -19.846300
  H    -138.370000   13.868000  -18.328300
  C    -137.680000   12.422400  -19.651100
  H    -137.019000   11.928700  -18.956200
  H    -136.898000   12.422200  -20.481100
  C    -138.936000   11.570200  -19.962000
  H    -138.679000   10.545100  -20.438900
  H    -139.531000   11.966500  -20.734000
  H    -139.630000   11.331200  -19.148200
  H    -136.880000   13.559800  -13.217600
  H    -134.098000   16.851000  -20.349900

 Total Charge           Charge          ....    0
 Multiplicity           Mult            ....    1
 Number of Electrons    NEL             ....  134
 Basis Dimension        Dim             ....  322

ORBITAL ENERGIES
----------------

  NO   OCC          E(Eh)            E(eV)
   0   2.0000     -88.968131     -2420.9459
   1   2.0000     -88.963177     -2420.8111
   2   2.0000     -10.326179      -280.9896
   3   2.0000     -10.325277      -280.9651
   4   2.0000     -10.322224      -280.8820
   5   2.0000     -10.303649      -280.3765
   6   2.0000     -10.303061      -280.3605
   7   2.0000     -10.299486      -280.2633
   8   2.0000     -10.297478      -280.2086
   9   2.0000     -10.296178      -280.1733
  10   2.0000     -10.295804      -280.1631
  11   2.0000     -10.294432      -280.1257
  12   2.0000     -10.289743      -279.9981
  13   2.0000     -10.286272      -279.9037
  14   2.0000     -10.279737      -279.7259
  15   2.0000     -10.277508      -279.6652
  16   2.0000      -8.083489      -219.9629
  17   2.0000      -8.077991      -219.8133
  18   2.0000      -6.041922      -164.4090
  19   2.0000      -6.037874      -164.2989
  20   2.0000      -6.036601      -164.2643
  21   2.0000      -6.034328      -164.2024
  22   2.0000      -6.032563      -164.1544
  23   2.0000      -6.028556      -164.0454
  24   2.0000      -1.011559       -27.5259
  25   2.0000      -0.989231       -26.9183
  26   2.0000      -0.919739       -25.0274
  27   2.0000      -0.894794       -24.3486
  28   2.0000      -0.871580       -23.7169
  29   2.0000      -0.849774       -23.1235
  30   2.0000      -0.843884       -22.9632
  31   2.0000      -0.816886       -22.2286
  32   2.0000      -0.784988       -21.3606
  33   2.0000      -0.776664       -21.1341
  34   2.0000      -0.709210       -19.2986
  35   2.0000      -0.704918       -19.1818
  36   2.0000      -0.698143       -18.9974
  37   2.0000      -0.662914       -18.0388
  38   2.0000      -0.642382       -17.4801
  39   2.0000      -0.608630       -16.5617
  40   2.0000      -0.596191       -16.2232
  41   2.0000      -0.582302       -15.8452
  42   2.0000      -0.559022       -15.2118
  43   2.0000      -0.546147       -14.8614
  44   2.0000      -0.542116       -14.7517
  45   2.0000      -0.518639       -14.1129
  46   2.0000      -0.513371       -13.9695
  47   2.0000      -0.511516       -13.9191
  48   2.0000      -0.507306       -13.8045
  49   2.0000      -0.500201       -13.6112
  50   2.0000      -0.489268       -13.3137
  51   2.0000      -0.478845       -13.0300
  52   2.0000      -0.472150       -12.8478
  53   2.0000      -0.469234       -12.7685
  54   2.0000      -0.460293       -12.5252
  55   2.0000      -0.455458       -12.3936
  56   2.0000      -0.450100       -12.2478
  57   2.0000      -0.439063       -11.9475
  58   2.0000      -0.432005       -11.7555
  59   2.0000      -0.424340       -11.5469
  60   2.0000      -0.421763       -11.4767
  61   2.0000      -0.407532       -11.0895
  62   2.0000      -0.397904       -10.8275
  63   2.0000      -0.343141        -9.3374
  64   2.0000      -0.332466        -9.0469
  65   2.0000      -0.329237        -8.9590
  66   2.0000      -0.303587        -8.2610
  67   0.0000       0.037947         1.0326
  68   0.0000       0.063719         1.7339
  69   0.0000       0.113426         3.0865
  70   0.0000       0.120977         3.2920
  71   0.0000       0.129440         3.5222

MULLIKEN ATOMIC CHARGES
-----------------------
   0 S :    0.125796
   1 C :   -0.077635
   2 C :   -0.099678
   3 C :    0.041131
   4 C :   -0.178965
   5 H :    0.011262
   6 C :    0.010917
   7 H :    0.052034
   8 H :    0.019360
   9 C :   -0.025450
  10 H :    0.024313
  11 H :    0.009513
  12 C :   -0.049577
  13 H :    0.034030
  14 H :    0.057000
  15 H :    0.022252
  16 S :    0.101476
  17 C :   -0.109771
  18 C :    0.006393
  19 C :   -0.043524
  20 C :   -0.155184
  21 H :   -0.001165
  22 C :    0.059374
  23 H :    0.036821
  24 H :    0.023673
  25 C :   -0.066063
  26 H :    0.011027
  27 H :    0.018370
  28 C :   -0.048137
  29 H :    0.039091
  30 H :    0.021223
  31 H :    0.043410
  32 H :    0.005918
  33 H :    0.080768
Sum of atomic charges:   -0.0000000

LOEWDIN ATOMIC CHARGES
----------------------
   0 S :    0.431309
   1 C :   -0.184746
   2 C :   -0.069819
   3 C :   -0.055501
   4 C :   -0.207003
   5 H :    0.026808
   6 C :   -0.043140
   7 H :    0.045899
   8 H :    0.028326
   9 C :   -0.036224
  10 H :    0.021759
  11 H :    0.016389
  12 C :   -0.062666
  13 H :    0.029601
  14 H :    0.032509
  15 H :    0.022208
  16 S :    0.385863
  17 C :   -0.183205
  18 C :   -0.066642
  19 C :   -0.057212
  20 C :   -0.192699
  21 H :    0.023158
  22 C :   -0.031657
  23 H :    0.035453
  24 H :    0.027344
  25 C :   -0.051030
  26 H :    0.020285
  27 H :    0.027558
  28 C :   -0.074342
  29 H :    0.041485
  30 H :    0.018140
  31 H :    0.028132
  32 H :    0.010159
  33 H :    0.043500

  Mayer bond orders larger than 0.100000
B(  0-S ,  1-C ) :   1.1403 B(  0-S ,  4-C ) :   1.1648 B(  1-C ,  2-C ) :   1.6105
B(  1-C , 32-H ) :   0.9754 B(  2-C ,  3-C ) :   1.2427 B(  2-C ,  6-C ) :   1.0237
B(  3-C ,  4-C ) :   1.5672 B(  3-C ,  5-H ) :   0.9931 B(  4-C , 20-C ) :   1.0160
B(  6-C ,  7-H ) :   0.9347 B(  6-C ,  8-H ) :   0.9391 B(  6-C ,  9-C ) :   1.0762
B(  9-C , 10-H ) :   0.9516 B(  9-C , 11-H ) :   0.9545 B(  9-C , 12-C ) :   1.0753
B( 12-C , 13-H ) :   0.9733 B( 12-C , 14-H ) :   0.9755 B( 12-C , 15-H ) :   0.9753
B( 16-S , 17-C ) :   1.1375 B( 16-S , 20-C ) :   1.1288 B( 17-C , 18-C ) :   1.6170
B( 17-C , 33-H ) :   0.9642 B( 18-C , 19-C ) :   1.2282 B( 18-C , 21-H ) :   0.9981
B( 19-C , 20-C ) :   1.6477 B( 19-C , 22-C ) :   1.0306 B( 22-C , 23-H ) :   0.9490
B( 22-C , 24-H ) :   0.9345 B( 22-C , 25-C ) :   1.0407 B( 25-C , 26-H ) :   0.9503
B( 25-C , 27-H ) :   0.9569 B( 25-C , 28-C ) :   1.0683 B( 28-C , 29-H ) :   0.9716
B( 28-C , 30-H ) :   0.9757 B( 28-C , 31-H ) :   0.9768

Dispersion correction           -0.015029224
FINAL SINGLE POINT ENERGY     -1339.866540897714

DIPOLE MOMENT
-------------
                                X             Y             Z
Electronic contribution:     15.60539      26.79784       3.54345
Nuclear contribution   :    -15.84053     -27.34758      -3.68761
                        -----------------------------------------
Total Dipole Moment    :     -0.23515      -0.54974      -0.14416
                        -----------------------------------------
Magnitude (a.u.)       :      0.61505
Magnitude (Debye)      :      1.56334

Rotational constants in cm-1:     0.017843     0.009858     0.006965
Rotational constants in MHz :   534.906011   295.530778   208.803691

                             ****ORCA TERMINATED NORMALLY****
TOTAL RUN TIME: 0 days 0 hours 0 minutes 22 seconds 272 msec
