                         Program Version 4.2.1 -  RELEASE  -
|  1> ! wB97X-D3 SP def2-SVP
|  2> %pal
|  3> nprocs 24
|  4> end
|  5>
|  6> * xyz 0 1
|  7> S 	 -80.4016 	 -3.64808 	 -57.8945
|  8> C 	 -79.7873 	 -2.25132 	 -58.7903
|  9> C 	 -79.2439 	 -2.59302 	 -60.0121
| 10> C 	 -79.4261 	 -3.98699 	 -60.2624
| 11> C 	 -80.1015 	 -4.7538 	 -59.2836
| 12> H 	 -79.0673 	 -4.42173 	 -61.198
| 13> C 	 -78.5231 	 -1.56657 	 -60.9698
| 14> H 	 -77.5977 	 -2.07794 	 -61.3734
| 15> H 	 -78.2446 	 -0.779242 	 -60.3444
| 16> C 	 -79.4537 	 -1.055 	 -62.1149
| 17> H 	 -80.0001 	 -1.8892 	 -62.5645
| 18> H 	 -80.0398 	 -0.246782 	 -61.8676
| 19> C 	 -78.6096 	 -0.45953 	 -63.2489
| 20> H 	 -78.0877 	 -1.26838 	 -63.7408
| 21> H 	 -79.3001 	 -0.0142172 	 -63.9796
| 22> H 	 -77.9681 	 0.332743 	 -62.8938
| 23> S 	 -79.4178 	 -7.19155 	 -58.173
| 24> C 	 -80.062 	 -8.69562 	 -58.7669
| 25> C 	 -80.9776 	 -8.45745 	 -59.7918
| 26> C 	 -81.0798 	 -7.07932 	 -60.1767
| 27> C 	 -80.3968 	 -6.20363 	 -59.2903
| 28> H 	 -81.4674 	 -9.2664 	 -60.2527
| 29> C 	 -81.7044 	 -6.62659 	 -61.4617
| 30> H 	 -81.7159 	 -7.47868 	 -62.1233
| 31> H 	 -81.0199 	 -5.8747 	 -61.8149
| 32> C 	 -83.1537 	 -6.13858 	 -61.4295
| 33> H 	 -83.7953 	 -7.03469 	 -61.2916
| 34> H 	 -83.4046 	 -5.86754 	 -62.3932
| 35> C 	 -83.4718 	 -5.10907 	 -60.4072
| 36> H 	 -83.5901 	 -5.49397 	 -59.3993
| 37> H 	 -84.4262 	 -4.55681 	 -60.5631
| 38> H 	 -82.6822 	 -4.4429 	 -60.3531
| 39> H 	 -79.8782 	 -1.23936 	 -58.4561
| 40> H 	 -79.8383 	 -9.70319 	 -58.4776
| 41> *
| 42>
| 43>                          ****END OF INPUT****

CARTESIAN COORDINATES (ANGSTROEM)
---------------------------------
  S    -80.401600   -3.648080  -57.894500
  C    -79.787300   -2.251320  -58.790300
  C    -79.243900   -2.593020  -60.012100
  C    -79.426100   -3.986990  -60.262400
  C    -80.101500   -4.753800  -59.283600
  H    -79.067300   -4.421730  -61.198000
  C    -78.523100   -1.566570  -60.969800
  H    -77.597700   -2.077940  -61.373400
  H    -78.244600   -0.779242  -60.344400
  C    -79.453700   -1.055000  -62.114900
  H    -80.000100   -1.889200  -62.564500
  H    -80.039800   -0.246782  -61.867600
  C    -78.609600   -0.459530  -63.248900
  H    -78.087700   -1.268380  -63.740800
  H    -79.300100   -0.014217  -63.979600
  H    -77.968100    0.332743  -62.893800
  S    -79.417800   -7.191550  -58.173000
  C    -80.062000   -8.695620  -58.766900
  C    -80.977600   -8.457450  -59.791800
  C    -81.079800   -7.079320  -60.176700
  C    -80.396800   -6.203630  -59.290300
  H    -81.467400   -9.266400  -60.252700
  C    -81.704400   -6.626590  -61.461700
  H    -81.715900   -7.478680  -62.123300
  H    -81.019900   -5.874700  -61.814900
  C    -83.153700   -6.138580  -61.429500
  H    -83.795300   -7.034690  -61.291600
  H    -83.404600   -5.867540  -62.393200
  C    -83.471800   -5.109070  -60.407200
  H    -83.590100   -5.493970  -59.399300
  H    -84.426200   -4.556810  -60.563100
  H    -82.682200   -4.442900  -60.353100
  H    -79.878200   -1.239360  -58.456100
  H    -79.838300   -9.703190  -58.477600

 Total Charge           Charge          ....    0
 Multiplicity           Mult            ....    1
 Number of Electrons    NEL             ....  134
 Basis Dimension        Dim             ....  322

ORBITAL ENERGIES
----------------

  NO   OCC          E(Eh)            E(eV)
   0   2.0000     -88.968125     -2420.9458
   1   2.0000     -88.964905     -2420.8581
   2   2.0000     -10.340883      -281.3897
   3   2.0000     -10.332918      -281.1730
   4   2.0000     -10.318333      -280.7761
   5   2.0000     -10.316139      -280.7164
   6   2.0000     -10.307560      -280.4830
   7   2.0000     -10.303982      -280.3856
   8   2.0000     -10.302247      -280.3384
   9   2.0000     -10.300879      -280.3012
  10   2.0000     -10.291586      -280.0483
  11   2.0000     -10.285407      -279.8801
  12   2.0000     -10.284075      -279.8439
  13   2.0000     -10.276784      -279.6455
  14   2.0000     -10.274593      -279.5859
  15   2.0000     -10.259970      -279.1880
  16   2.0000      -8.081486      -219.9084
  17   2.0000      -8.079048      -219.8421
  18   2.0000      -6.040102      -164.3595
  19   2.0000      -6.037638      -164.2925
  20   2.0000      -6.036169      -164.2525
  21   2.0000      -6.033447      -164.1784
  22   2.0000      -6.032210      -164.1448
  23   2.0000      -6.029922      -164.0825
  24   2.0000      -0.996321       -27.1113
  25   2.0000      -0.977157       -26.5898
  26   2.0000      -0.912789       -24.8383
  27   2.0000      -0.909097       -24.7378
  28   2.0000      -0.867552       -23.6073
  29   2.0000      -0.848423       -23.0868
  30   2.0000      -0.843865       -22.9627
  31   2.0000      -0.812382       -22.1060
  32   2.0000      -0.784050       -21.3351
  33   2.0000      -0.771583       -20.9958
  34   2.0000      -0.709541       -19.3076
  35   2.0000      -0.699034       -19.0217
  36   2.0000      -0.695570       -18.9274
  37   2.0000      -0.659249       -17.9391
  38   2.0000      -0.638616       -17.3776
  39   2.0000      -0.620349       -16.8805
  40   2.0000      -0.587534       -15.9876
  41   2.0000      -0.578334       -15.7373
  42   2.0000      -0.566623       -15.4186
  43   2.0000      -0.554935       -15.1005
  44   2.0000      -0.544047       -14.8043
  45   2.0000      -0.526744       -14.3334
  46   2.0000      -0.517025       -14.0690
  47   2.0000      -0.511137       -13.9087
  48   2.0000      -0.503908       -13.7120
  49   2.0000      -0.501289       -13.6408
  50   2.0000      -0.493551       -13.4302
  51   2.0000      -0.476181       -12.9575
  52   2.0000      -0.467033       -12.7086
  53   2.0000      -0.463199       -12.6043
  54   2.0000      -0.458467       -12.4755
  55   2.0000      -0.449101       -12.2207
  56   2.0000      -0.440516       -11.9870
  57   2.0000      -0.436740       -11.8843
  58   2.0000      -0.435012       -11.8373
  59   2.0000      -0.430276       -11.7084
  60   2.0000      -0.418614       -11.3911
  61   2.0000      -0.414521       -11.2797
  62   2.0000      -0.406910       -11.0726
  63   2.0000      -0.339734        -9.2446
  64   2.0000      -0.330900        -9.0042
  65   2.0000      -0.325648        -8.8613
  66   2.0000      -0.294554        -8.0152
  67   0.0000       0.030620         0.8332
  68   0.0000       0.054612         1.4861
  69   0.0000       0.112444         3.0598
  70   0.0000       0.116611         3.1732
  71   0.0000       0.131869         3.5883

MULLIKEN ATOMIC CHARGES
-----------------------
   0 S :    0.109605
   1 C :   -0.118886
   2 C :   -0.099808
   3 C :    0.040359
   4 C :   -0.174379
   5 H :    0.014577
   6 C :    0.077074
   7 H :    0.044271
   8 H :    0.009943
   9 C :   -0.043022
  10 H :    0.035922
  11 H :    0.019496
  12 C :   -0.067186
  13 H :    0.031444
  14 H :    0.032208
  15 H :    0.032629
  16 S :    0.107772
  17 C :   -0.077112
  18 C :   -0.030118
  19 C :   -0.050343
  20 C :   -0.160764
  21 H :    0.002514
  22 C :    0.078950
  23 H :    0.013596
  24 H :    0.020160
  25 C :   -0.023377
  26 H :    0.013259
  27 H :    0.004887
  28 C :   -0.011857
  29 H :    0.029278
  30 H :    0.030119
  31 H :    0.015953
  32 H :    0.041686
  33 H :    0.051148
Sum of atomic charges:    0.0000000

LOEWDIN ATOMIC CHARGES
----------------------
   0 S :    0.383799
   1 C :   -0.184177
   2 C :   -0.067502
   3 C :   -0.061065
   4 C :   -0.192300
   5 H :    0.027935
   6 C :   -0.018119
   7 H :    0.039373
   8 H :    0.021237
   9 C :   -0.031122
  10 H :    0.027304
  11 H :    0.015233
  12 C :   -0.061672
  13 H :    0.020455
  14 H :    0.026935
  15 H :    0.021502
  16 S :    0.406242
  17 C :   -0.184310
  18 C :   -0.070349
  19 C :   -0.045103
  20 C :   -0.200826
  21 H :    0.023287
  22 C :   -0.027671
  23 H :    0.031867
  24 H :    0.028774
  25 C :   -0.034223
  26 H :    0.024827
  27 H :    0.013650
  28 C :   -0.063505
  29 H :    0.028457
  30 H :    0.031697
  31 H :    0.015020
  32 H :    0.024331
  33 H :    0.030018

  Mayer bond orders larger than 0.100000
B(  0-S ,  1-C ) :   1.1463 B(  0-S ,  4-C ) :   1.1354 B(  1-C ,  2-C ) :   1.6144
B(  1-C ,  4-C ) :   0.1054 B(  1-C , 32-H ) :   0.9653 B(  2-C ,  3-C ) :   1.2646
B(  2-C ,  6-C ) :   1.0088 B(  3-C ,  4-C ) :   1.5601 B(  3-C ,  5-H ) :   0.9847
B(  4-C , 20-C ) :   1.0359 B(  6-C ,  7-H ) :   0.9521 B(  6-C ,  8-H ) :   0.9355
B(  6-C ,  9-C ) :   1.0605 B(  9-C , 10-H ) :   0.9637 B(  9-C , 11-H ) :   0.9580
B(  9-C , 12-C ) :   1.0822 B( 12-C , 13-H ) :   0.9797 B( 12-C , 14-H ) :   0.9754
B( 12-C , 15-H ) :   0.9745 B( 16-S , 17-C ) :   1.1678 B( 16-S , 20-C ) :   1.1430
B( 17-C , 18-C ) :   1.5933 B( 17-C , 20-C ) :   0.1064 B( 17-C , 33-H ) :   0.9685
B( 18-C , 19-C ) :   1.2607 B( 18-C , 21-H ) :   0.9935 B( 19-C , 20-C ) :   1.5613
B( 19-C , 22-C ) :   1.0386 B( 22-C , 23-H ) :   0.9288 B( 22-C , 24-H ) :   0.9312
B( 22-C , 25-C ) :   1.0892 B( 25-C , 26-H ) :   0.9487 B( 25-C , 27-H ) :   0.9504
B( 25-C , 28-C ) :   1.0862 B( 28-C , 29-H ) :   0.9661 B( 28-C , 30-H ) :   0.9693
B( 28-C , 31-H ) :   0.9743

Dispersion correction           -0.014836573
FINAL SINGLE POINT ENERGY     -1339.866573248199

DIPOLE MOMENT
-------------
                                X             Y             Z
Electronic contribution:      6.10657     -13.84655      23.08033
Nuclear contribution   :     -6.11090      14.03551     -23.83435
                        -----------------------------------------
Total Dipole Moment    :     -0.00433       0.18896      -0.75402
                        -----------------------------------------
Magnitude (a.u.)       :      0.77735
Magnitude (Debye)      :      1.97587

Rotational constants in cm-1:     0.019829     0.008116     0.007071
Rotational constants in MHz :   594.457743   243.304066   211.979288

                             ****ORCA TERMINATED NORMALLY****
TOTAL RUN TIME: 0 days 0 hours 0 minutes 21 seconds 851 msec
