                         Program Version 4.2.1 -  RELEASE  -
|  1> ! wB97X-D3 SP def2-SVP
|  2> %pal
|  3> nprocs 24
|  4> end
|  5>
|  6> * xyz 0 1
|  7> S 	 -107.607 	 2.19305 	 -108.576
|  8> C 	 -107.225 	 3.78341 	 -109.295
|  9> C 	 -106.314 	 4.45857 	 -108.491
| 10> C 	 -105.879 	 3.68034 	 -107.334
| 11> C 	 -106.426 	 2.43925 	 -107.297
| 12> H 	 -105.095 	 3.90698 	 -106.589
| 13> C 	 -105.819 	 5.84816 	 -108.672
| 14> H 	 -106.085 	 6.16744 	 -109.696
| 15> H 	 -104.72 	 5.79053 	 -108.639
| 16> C 	 -106.401 	 6.88483 	 -107.723
| 17> H 	 -107.483 	 7.03699 	 -107.971
| 18> H 	 -106.211 	 6.47529 	 -106.668
| 19> C 	 -105.792 	 8.33283 	 -107.837
| 20> H 	 -106.007 	 8.57361 	 -108.889
| 21> H 	 -106.284 	 9.07017 	 -107.164
| 22> H 	 -104.714 	 8.33679 	 -107.482
| 23> S 	 -104.597 	 0.713868 	 -106.197
| 24> C 	 -105.087 	 -0.26022 	 -104.795
| 25> C 	 -106.409 	 -0.0305399 	 -104.4
| 26> C 	 -107.067 	 0.90813 	 -105.307
| 27> C 	 -106.196 	 1.40376 	 -106.308
| 28> H 	 -106.743 	 -0.46217 	 -103.461
| 29> C 	 -108.452 	 1.51912 	 -104.951
| 30> H 	 -108.684 	 2.41873 	 -105.529
| 31> H 	 -108.384 	 1.94246 	 -103.92
| 32> C 	 -109.614 	 0.517911 	 -105.062
| 33> H 	 -110.53 	 1.02419 	 -104.687
| 34> H 	 -109.383 	 -0.332273 	 -104.389
| 35> C 	 -109.939 	 -0.00886483 	 -106.425
| 36> H 	 -111.005 	 0.118178 	 -106.709
| 37> H 	 -109.672 	 -1.07502 	 -106.525
| 38> H 	 -109.352 	 0.571639 	 -107.107
| 39> H 	 -107.709 	 4.27324 	 -110.186
| 40> H 	 -104.434 	 -0.776366 	 -104.115
| 41> *
| 42>
| 43>                          ****END OF INPUT****

CARTESIAN COORDINATES (ANGSTROEM)
---------------------------------
  S    -107.607000    2.193050  -108.576000
  C    -107.225000    3.783410  -109.295000
  C    -106.314000    4.458570  -108.491000
  C    -105.879000    3.680340  -107.334000
  C    -106.426000    2.439250  -107.297000
  H    -105.095000    3.906980  -106.589000
  C    -105.819000    5.848160  -108.672000
  H    -106.085000    6.167440  -109.696000
  H    -104.720000    5.790530  -108.639000
  C    -106.401000    6.884830  -107.723000
  H    -107.483000    7.036990  -107.971000
  H    -106.211000    6.475290  -106.668000
  C    -105.792000    8.332830  -107.837000
  H    -106.007000    8.573610  -108.889000
  H    -106.284000    9.070170  -107.164000
  H    -104.714000    8.336790  -107.482000
  S    -104.597000    0.713868  -106.197000
  C    -105.087000   -0.260220  -104.795000
  C    -106.409000   -0.030540  -104.400000
  C    -107.067000    0.908130  -105.307000
  C    -106.196000    1.403760  -106.308000
  H    -106.743000   -0.462170  -103.461000
  C    -108.452000    1.519120  -104.951000
  H    -108.684000    2.418730  -105.529000
  H    -108.384000    1.942460  -103.920000
  C    -109.614000    0.517911  -105.062000
  H    -110.530000    1.024190  -104.687000
  H    -109.383000   -0.332273  -104.389000
  C    -109.939000   -0.008865  -106.425000
  H    -111.005000    0.118178  -106.709000
  H    -109.672000   -1.075020  -106.525000
  H    -109.352000    0.571639  -107.107000
  H    -107.709000    4.273240  -110.186000
  H    -104.434000   -0.776366  -104.115000

 Total Charge           Charge          ....    0
 Multiplicity           Mult            ....    1
 Number of Electrons    NEL             ....  134
 Basis Dimension        Dim             ....  322

ORBITAL ENERGIES
----------------

  NO   OCC          E(Eh)            E(eV)
   0   2.0000     -88.971074     -2421.0260
   1   2.0000     -88.967165     -2420.9196
   2   2.0000     -10.329586      -281.0823
   3   2.0000     -10.328469      -281.0519
   4   2.0000     -10.323135      -280.9068
   5   2.0000     -10.320289      -280.8293
   6   2.0000     -10.313093      -280.6335
   7   2.0000     -10.305583      -280.4292
   8   2.0000     -10.302365      -280.3416
   9   2.0000     -10.297840      -280.2185
  10   2.0000     -10.297448      -280.2078
  11   2.0000     -10.294373      -280.1241
  12   2.0000     -10.293126      -280.0902
  13   2.0000     -10.290742      -280.0253
  14   2.0000     -10.281606      -279.7767
  15   2.0000     -10.266866      -279.3756
  16   2.0000      -8.085091      -220.0065
  17   2.0000      -8.080579      -219.8837
  18   2.0000      -6.043619      -164.4552
  19   2.0000      -6.039708      -164.3488
  20   2.0000      -6.039320      -164.3382
  21   2.0000      -6.035863      -164.2442
  22   2.0000      -6.035236      -164.2271
  23   2.0000      -6.031186      -164.1169
  24   2.0000      -1.002860       -27.2892
  25   2.0000      -0.977371       -26.5956
  26   2.0000      -0.911996       -24.8167
  27   2.0000      -0.904108       -24.6020
  28   2.0000      -0.868437       -23.6314
  29   2.0000      -0.846133       -23.0245
  30   2.0000      -0.841856       -22.9081
  31   2.0000      -0.815327       -22.1862
  32   2.0000      -0.781616       -21.2689
  33   2.0000      -0.766779       -20.8651
  34   2.0000      -0.703642       -19.1471
  35   2.0000      -0.689802       -18.7705
  36   2.0000      -0.683579       -18.6011
  37   2.0000      -0.656871       -17.8744
  38   2.0000      -0.636399       -17.3173
  39   2.0000      -0.618176       -16.8214
  40   2.0000      -0.593692       -16.1552
  41   2.0000      -0.568679       -15.4745
  42   2.0000      -0.563082       -15.3222
  43   2.0000      -0.547842       -14.9075
  44   2.0000      -0.541858       -14.7447
  45   2.0000      -0.520705       -14.1691
  46   2.0000      -0.518619       -14.1124
  47   2.0000      -0.510274       -13.8853
  48   2.0000      -0.504321       -13.7233
  49   2.0000      -0.496468       -13.5096
  50   2.0000      -0.484280       -13.1779
  51   2.0000      -0.478698       -13.0260
  52   2.0000      -0.464271       -12.6335
  53   2.0000      -0.460831       -12.5398
  54   2.0000      -0.457703       -12.4547
  55   2.0000      -0.452494       -12.3130
  56   2.0000      -0.442570       -12.0430
  57   2.0000      -0.438477       -11.9316
  58   2.0000      -0.429487       -11.6869
  59   2.0000      -0.421931       -11.4813
  60   2.0000      -0.412648       -11.2287
  61   2.0000      -0.409968       -11.1558
  62   2.0000      -0.404422       -11.0049
  63   2.0000      -0.339941        -9.2503
  64   2.0000      -0.335691        -9.1346
  65   2.0000      -0.325331        -8.8527
  66   2.0000      -0.301866        -8.2142
  67   0.0000       0.034251         0.9320
  68   0.0000       0.063861         1.7378
  69   0.0000       0.099291         2.7018
  70   0.0000       0.112840         3.0705
  71   0.0000       0.124340         3.3835

MULLIKEN ATOMIC CHARGES
-----------------------
   0 S :    0.101385
   1 C :   -0.123543
   2 C :   -0.094417
   3 C :    0.027482
   4 C :   -0.153747
   5 H :    0.028501
   6 C :    0.071141
   7 H :    0.006527
   8 H :    0.035182
   9 C :   -0.118017
  10 H :    0.042088
  11 H :    0.041026
  12 C :   -0.070485
  13 H :    0.039466
  14 H :    0.045739
  15 H :    0.046627
  16 S :    0.120834
  17 C :   -0.091646
  18 C :   -0.044198
  19 C :   -0.009776
  20 C :   -0.182835
  21 H :    0.031811
  22 C :    0.035180
  23 H :    0.030251
  24 H :    0.040004
  25 C :   -0.099637
  26 H :    0.031895
  27 H :    0.028593
  28 C :   -0.017180
  29 H :    0.036358
  30 H :    0.038237
  31 H :    0.005189
  32 H :    0.067626
  33 H :    0.054338
Sum of atomic charges:    0.0000000

LOEWDIN ATOMIC CHARGES
----------------------
   0 S :    0.397467
   1 C :   -0.198336
   2 C :   -0.060563
   3 C :   -0.065327
   4 C :   -0.189081
   5 H :    0.039116
   6 C :   -0.041731
   7 H :    0.026466
   8 H :    0.034198
   9 C :   -0.047202
  10 H :    0.030671
  11 H :    0.027168
  12 C :   -0.074441
  13 H :    0.027006
  14 H :    0.030024
  15 H :    0.031481
  16 S :    0.406608
  17 C :   -0.182039
  18 C :   -0.064470
  19 C :   -0.052204
  20 C :   -0.209294
  21 H :    0.035352
  22 C :   -0.036321
  23 H :    0.027273
  24 H :    0.038325
  25 C :   -0.051365
  26 H :    0.027760
  27 H :    0.022545
  28 C :   -0.070343
  29 H :    0.030984
  30 H :    0.031295
  31 H :    0.008774
  32 H :    0.043224
  33 H :    0.026981

  Mayer bond orders larger than 0.100000
B(  0-S ,  1-C ) :   1.1116 B(  0-S ,  4-C ) :   1.1328 B(  1-C ,  2-C ) :   1.6556
B(  1-C , 32-H ) :   0.9583 B(  2-C ,  3-C ) :   1.1815 B(  2-C ,  6-C ) :   1.0412
B(  3-C ,  4-C ) :   1.6386 B(  3-C ,  5-H ) :   0.9839 B(  4-C , 20-C ) :   1.0220
B(  6-C ,  7-H ) :   0.9319 B(  6-C ,  8-H ) :   0.9355 B(  6-C ,  9-C ) :   1.0603
B(  9-C , 10-H ) :   0.9559 B(  9-C , 11-H ) :   0.9576 B(  9-C , 12-C ) :   1.0694
B( 12-C , 13-H ) :   0.9754 B( 12-C , 14-H ) :   0.9763 B( 12-C , 15-H ) :   0.9755
B( 16-S , 17-C ) :   1.1430 B( 16-S , 20-C ) :   1.1453 B( 17-C , 18-C ) :   1.6422
B( 17-C , 33-H ) :   0.9638 B( 18-C , 19-C ) :   1.2192 B( 18-C , 21-H ) :   0.9846
B( 19-C , 20-C ) :   1.5862 B( 19-C , 22-C ) :   1.0321 B( 22-C , 23-H ) :   0.9374
B( 22-C , 24-H ) :   0.9444 B( 22-C , 25-C ) :   1.0788 B( 25-C , 26-H ) :   0.9573
B( 25-C , 27-H ) :   0.9636 B( 25-C , 28-C ) :   1.0636 B( 28-C , 29-H ) :   0.9754
B( 28-C , 30-H ) :   0.9718 B( 28-C , 31-H ) :   0.9766

Dispersion correction           -0.014605375
FINAL SINGLE POINT ENERGY     -1339.881168242081

DIPOLE MOMENT
-------------
                                X             Y             Z
Electronic contribution:     10.62397     -16.15294      -3.45311
Nuclear contribution   :    -10.68903      16.67714       3.83705
                        -----------------------------------------
Total Dipole Moment    :     -0.06505       0.52420       0.38394
                        -----------------------------------------
Magnitude (a.u.)       :      0.65301
Magnitude (Debye)      :      1.65983

Rotational constants in cm-1:     0.020187     0.007848     0.006878
Rotational constants in MHz :   605.202723   235.275768   206.184416

                             ****ORCA TERMINATED NORMALLY****
TOTAL RUN TIME: 0 days 0 hours 0 minutes 20 seconds 99 msec
