                         Program Version 4.2.1 -  RELEASE  -
|  1> ! wB97X-D3 SP def2-SVP
|  2> %pal
|  3> nprocs 24
|  4> end
|  5>
|  6> * xyz 0 1
|  7> S 	 -87.5719 	 -33.3321 	 -75.3041
|  8> C 	 -86.1875 	 -33.4042 	 -76.38
|  9> C 	 -86.6507 	 -33.3194 	 -77.6741
| 10> C 	 -88.0975 	 -33.0962 	 -77.8037
| 11> C 	 -88.7447 	 -33.0725 	 -76.5868
| 12> H 	 -88.7196 	 -33.0819 	 -78.6351
| 13> C 	 -85.7405 	 -33.5092 	 -78.8937
| 14> H 	 -85.8779 	 -34.4898 	 -79.2773
| 15> H 	 -84.7192 	 -33.6078 	 -78.553
| 16> C 	 -85.7347 	 -32.4895 	 -80.0963
| 17> H 	 -85.2061 	 -32.9871 	 -80.9198
| 18> H 	 -86.7675 	 -32.4273 	 -80.4223
| 19> C 	 -85.3242 	 -31.0154 	 -79.7089
| 20> H 	 -85.2463 	 -30.7765 	 -78.6772
| 21> H 	 -84.3732 	 -30.7514 	 -80.1408
| 22> H 	 -86.1704 	 -30.3819 	 -79.9817
| 23> S 	 -90.5841 	 -32.6965 	 -74.5383
| 24> C 	 -92.2809 	 -32.4631 	 -74.8479
| 25> C 	 -92.4855 	 -32.297 	 -76.1937
| 26> C 	 -91.2907 	 -32.4679 	 -77.0055
| 27> C 	 -90.1427 	 -32.7106 	 -76.2593
| 28> H 	 -93.4532 	 -31.9874 	 -76.5361
| 29> C 	 -91.3298 	 -32.3298 	 -78.5303
| 30> H 	 -90.4752 	 -31.8336 	 -78.9193
| 31> H 	 -92.1214 	 -31.6293 	 -78.6897
| 32> C 	 -91.6283 	 -33.5723 	 -79.223
| 33> H 	 -92.7344 	 -33.8145 	 -79.11
| 34> H 	 -90.969 	 -34.3487 	 -78.818
| 35> C 	 -91.3555 	 -33.5773 	 -80.74
| 36> H 	 -91.5202 	 -34.5494 	 -81.1142
| 37> H 	 -90.3212 	 -33.3507 	 -80.9883
| 38> H 	 -91.9963 	 -32.9445 	 -81.3606
| 39> H 	 -85.2626 	 -33.8226 	 -76.184
| 40> H 	 -93.1004 	 -32.2098 	 -74.1737
| 41> *
| 42>
| 43>                          ****END OF INPUT****

CARTESIAN COORDINATES (ANGSTROEM)
---------------------------------
  S    -87.571900  -33.332100  -75.304100
  C    -86.187500  -33.404200  -76.380000
  C    -86.650700  -33.319400  -77.674100
  C    -88.097500  -33.096200  -77.803700
  C    -88.744700  -33.072500  -76.586800
  H    -88.719600  -33.081900  -78.635100
  C    -85.740500  -33.509200  -78.893700
  H    -85.877900  -34.489800  -79.277300
  H    -84.719200  -33.607800  -78.553000
  C    -85.734700  -32.489500  -80.096300
  H    -85.206100  -32.987100  -80.919800
  H    -86.767500  -32.427300  -80.422300
  C    -85.324200  -31.015400  -79.708900
  H    -85.246300  -30.776500  -78.677200
  H    -84.373200  -30.751400  -80.140800
  H    -86.170400  -30.381900  -79.981700
  S    -90.584100  -32.696500  -74.538300
  C    -92.280900  -32.463100  -74.847900
  C    -92.485500  -32.297000  -76.193700
  C    -91.290700  -32.467900  -77.005500
  C    -90.142700  -32.710600  -76.259300
  H    -93.453200  -31.987400  -76.536100
  C    -91.329800  -32.329800  -78.530300
  H    -90.475200  -31.833600  -78.919300
  H    -92.121400  -31.629300  -78.689700
  C    -91.628300  -33.572300  -79.223000
  H    -92.734400  -33.814500  -79.110000
  H    -90.969000  -34.348700  -78.818000
  C    -91.355500  -33.577300  -80.740000
  H    -91.520200  -34.549400  -81.114200
  H    -90.321200  -33.350700  -80.988300
  H    -91.996300  -32.944500  -81.360600
  H    -85.262600  -33.822600  -76.184000
  H    -93.100400  -32.209800  -74.173700

 Total Charge           Charge          ....    0
 Multiplicity           Mult            ....    1
 Number of Electrons    NEL             ....  134
 Basis Dimension        Dim             ....  322

ORBITAL ENERGIES
----------------

  NO   OCC          E(Eh)            E(eV)
   0   2.0000     -88.966229     -2420.8942
   1   2.0000     -88.963723     -2420.8260
   2   2.0000     -10.338730      -281.3311
   3   2.0000     -10.336585      -281.2728
   4   2.0000     -10.320365      -280.8314
   5   2.0000     -10.311683      -280.5952
   6   2.0000     -10.310295      -280.5574
   7   2.0000     -10.309748      -280.5425
   8   2.0000     -10.296783      -280.1897
   9   2.0000     -10.295114      -280.1443
  10   2.0000     -10.293852      -280.1100
  11   2.0000     -10.289373      -279.9881
  12   2.0000     -10.289335      -279.9870
  13   2.0000     -10.284773      -279.8629
  14   2.0000     -10.276457      -279.6366
  15   2.0000     -10.274555      -279.5849
  16   2.0000      -8.080687      -219.8867
  17   2.0000      -8.078386      -219.8240
  18   2.0000      -6.039456      -164.3419
  19   2.0000      -6.037185      -164.2801
  20   2.0000      -6.035170      -164.2253
  21   2.0000      -6.032827      -164.1616
  22   2.0000      -6.031230      -164.1181
  23   2.0000      -6.028904      -164.0548
  24   2.0000      -1.006494       -27.3881
  25   2.0000      -0.984060       -26.7776
  26   2.0000      -0.922227       -25.0951
  27   2.0000      -0.902526       -24.5590
  28   2.0000      -0.871832       -23.7238
  29   2.0000      -0.851351       -23.1664
  30   2.0000      -0.838678       -22.8216
  31   2.0000      -0.824344       -22.4315
  32   2.0000      -0.788034       -21.4435
  33   2.0000      -0.779783       -21.2190
  34   2.0000      -0.714059       -19.4305
  35   2.0000      -0.700795       -19.0696
  36   2.0000      -0.694438       -18.8966
  37   2.0000      -0.665082       -18.0978
  38   2.0000      -0.647239       -17.6123
  39   2.0000      -0.623367       -16.9627
  40   2.0000      -0.597313       -16.2537
  41   2.0000      -0.576618       -15.6906
  42   2.0000      -0.568698       -15.4751
  43   2.0000      -0.541888       -14.7455
  44   2.0000      -0.540725       -14.7139
  45   2.0000      -0.528870       -14.3913
  46   2.0000      -0.521292       -14.1851
  47   2.0000      -0.518142       -14.0994
  48   2.0000      -0.508009       -13.8236
  49   2.0000      -0.506770       -13.7899
  50   2.0000      -0.492953       -13.4139
  51   2.0000      -0.489818       -13.3286
  52   2.0000      -0.472507       -12.8576
  53   2.0000      -0.466041       -12.6816
  54   2.0000      -0.464144       -12.6300
  55   2.0000      -0.451225       -12.2784
  56   2.0000      -0.447342       -12.1728
  57   2.0000      -0.436657       -11.8820
  58   2.0000      -0.425695       -11.5838
  59   2.0000      -0.422136       -11.4869
  60   2.0000      -0.418175       -11.3791
  61   2.0000      -0.415733       -11.3127
  62   2.0000      -0.403491       -10.9796
  63   2.0000      -0.368216       -10.0197
  64   2.0000      -0.334515        -9.1026
  65   2.0000      -0.324746        -8.8368
  66   2.0000      -0.290495        -7.9048
  67   0.0000       0.016912         0.4602
  68   0.0000       0.090518         2.4631
  69   0.0000       0.095509         2.5989
  70   0.0000       0.112622         3.0646
  71   0.0000       0.126005         3.4288

MULLIKEN ATOMIC CHARGES
-----------------------
   0 S :    0.077642
   1 C :   -0.062938
   2 C :   -0.097114
   3 C :    0.023167
   4 C :   -0.090295
   5 H :   -0.032805
   6 C :    0.061491
   7 H :    0.023404
   8 H :    0.002811
   9 C :   -0.077374
  10 H :    0.037155
  11 H :    0.022468
  12 C :   -0.037101
  13 H :    0.028805
  14 H :    0.038837
  15 H :    0.032118
  16 S :    0.087158
  17 C :   -0.070946
  18 C :   -0.035960
  19 C :   -0.097722
  20 C :   -0.093973
  21 H :    0.011756
  22 C :    0.095073
  23 H :    0.017206
  24 H :    0.005941
  25 C :   -0.090021
  26 H :    0.040366
  27 H :    0.037678
  28 C :   -0.023971
  29 H :    0.021117
  30 H :    0.021367
  31 H :    0.026269
  32 H :    0.032863
  33 H :    0.065528
Sum of atomic charges:    0.0000000

LOEWDIN ATOMIC CHARGES
----------------------
   0 S :    0.389963
   1 C :   -0.188579
   2 C :   -0.049711
   3 C :   -0.069299
   4 C :   -0.170489
   5 H :    0.016053
   6 C :   -0.036574
   7 H :    0.027445
   8 H :    0.024017
   9 C :   -0.037505
  10 H :    0.029355
  11 H :    0.019026
  12 C :   -0.067328
  13 H :    0.024870
  14 H :    0.026370
  15 H :    0.032241
  16 S :    0.395239
  17 C :   -0.187885
  18 C :   -0.071639
  19 C :   -0.049958
  20 C :   -0.183661
  21 H :    0.027821
  22 C :   -0.036352
  23 H :    0.023230
  24 H :    0.029425
  25 C :   -0.043463
  26 H :    0.035405
  27 H :    0.028146
  28 C :   -0.063232
  29 H :    0.022338
  30 H :    0.020517
  31 H :    0.023628
  32 H :    0.020081
  33 H :    0.040502

  Mayer bond orders larger than 0.100000
B(  0-S ,  1-C ) :   1.1157 B(  0-S ,  4-C ) :   1.1416 B(  1-C ,  2-C ) :   1.6407
B(  1-C , 32-H ) :   0.9683 B(  2-C ,  3-C ) :   1.1969 B(  2-C ,  6-C ) :   1.0246
B(  3-C ,  4-C ) :   1.5957 B(  3-C ,  5-H ) :   0.9987 B(  4-C , 20-C ) :   1.0599
B(  6-C ,  7-H ) :   0.9357 B(  6-C ,  8-H ) :   0.9408 B(  6-C ,  9-C ) :   1.0726
B(  9-C , 10-H ) :   0.9597 B(  9-C , 11-H ) :   0.9671 B(  9-C , 12-C ) :   1.0428
B( 12-C , 13-H ) :   0.9813 B( 12-C , 14-H ) :   0.9802 B( 12-C , 15-H ) :   0.9803
B( 16-S , 17-C ) :   1.1504 B( 16-S , 20-C ) :   1.1190 B( 17-C , 18-C ) :   1.6297
B( 17-C , 33-H ) :   0.9598 B( 18-C , 19-C ) :   1.2441 B( 18-C , 21-H ) :   0.9875
B( 19-C , 20-C ) :   1.6056 B( 19-C , 22-C ) :   1.0354 B( 22-C , 23-H ) :   0.9403
B( 22-C , 24-H ) :   0.9161 B( 22-C , 25-C ) :   1.0711 B( 25-C , 26-H ) :   0.9481
B( 25-C , 27-H ) :   0.9554 B( 25-C , 28-C ) :   1.0933 B( 28-C , 29-H ) :   0.9715
B( 28-C , 30-H ) :   0.9727 B( 28-C , 31-H ) :   0.9725

Dispersion correction           -0.014241194
FINAL SINGLE POINT ENERGY     -1339.862766721921

DIPOLE MOMENT
-------------
                                X             Y             Z
Electronic contribution:     -3.93640      -2.25106      30.44663
Nuclear contribution   :      3.72396       2.25993     -31.20955
                        -----------------------------------------
Total Dipole Moment    :     -0.21244       0.00887      -0.76292
                        -----------------------------------------
Magnitude (a.u.)       :      0.79200
Magnitude (Debye)      :      2.01309

Rotational constants in cm-1:     0.017364     0.009585     0.006748
Rotational constants in MHz :   520.569329   287.363336   202.287088

                             ****ORCA TERMINATED NORMALLY****
TOTAL RUN TIME: 0 days 0 hours 0 minutes 22 seconds 152 msec
