                         Program Version 4.2.1 -  RELEASE  -
|  1> ! wB97X-D3 SP def2-SVP
|  2> %pal
|  3> nprocs 24
|  4> end
|  5>
|  6> * xyz 0 1
|  7> S 	 -51.0486 	 -49.1022 	 -75.6202
|  8> C 	 -50.8671 	 -47.5106 	 -74.8589
|  9> C 	 -50.4871 	 -46.4954 	 -75.7383
| 10> C 	 -50.1422 	 -47.0683 	 -77.0281
| 11> C 	 -50.2963 	 -48.4042 	 -77.0028
| 12> H 	 -49.7697 	 -46.5733 	 -77.8775
| 13> C 	 -50.4943 	 -44.9873 	 -75.4894
| 14> H 	 -49.7659 	 -44.7571 	 -74.7946
| 15> H 	 -51.4758 	 -44.8453 	 -75.0327
| 16> C 	 -50.3223 	 -43.9577 	 -76.6417
| 17> H 	 -50.0688 	 -42.9734 	 -76.1978
| 18> H 	 -49.5008 	 -44.2002 	 -77.3787
| 19> C 	 -51.5305 	 -43.7332 	 -77.495
| 20> H 	 -52.5586 	 -43.7953 	 -77.0365
| 21> H 	 -51.3604 	 -42.7966 	 -77.9822
| 22> H 	 -51.5725 	 -44.4949 	 -78.2813
| 23> S 	 -48.3009 	 -50.2712 	 -77.6213
| 24> C 	 -48.0926 	 -50.8248 	 -79.2453
| 25> C 	 -49.0465 	 -50.3059 	 -80.1057
| 26> C 	 -49.9611 	 -49.4149 	 -79.4538
| 27> C 	 -49.7433 	 -49.2779 	 -78.0824
| 28> H 	 -49.1243 	 -50.6097 	 -81.1703
| 29> C 	 -50.9084 	 -48.6284 	 -80.332
| 30> H 	 -50.4589 	 -48.3252 	 -81.2552
| 31> H 	 -51.0709 	 -47.7436 	 -79.7234
| 32> C 	 -52.2248 	 -49.3809 	 -80.7479
| 33> H 	 -52.8621 	 -49.2712 	 -79.8659
| 34> H 	 -52.0568 	 -50.4561 	 -80.8486
| 35> C 	 -52.9179 	 -48.8622 	 -82.0143
| 36> H 	 -52.3067 	 -48.9549 	 -82.9034
| 37> H 	 -52.921 	 -47.8268 	 -81.8667
| 38> H 	 -53.856 	 -49.1792 	 -82.364
| 39> H 	 -51.0808 	 -47.2884 	 -73.805
| 40> H 	 -47.2509 	 -51.4063 	 -79.5488
| 41> *
| 42>
| 43>                          ****END OF INPUT****

CARTESIAN COORDINATES (ANGSTROEM)
---------------------------------
  S    -51.048600  -49.102200  -75.620200
  C    -50.867100  -47.510600  -74.858900
  C    -50.487100  -46.495400  -75.738300
  C    -50.142200  -47.068300  -77.028100
  C    -50.296300  -48.404200  -77.002800
  H    -49.769700  -46.573300  -77.877500
  C    -50.494300  -44.987300  -75.489400
  H    -49.765900  -44.757100  -74.794600
  H    -51.475800  -44.845300  -75.032700
  C    -50.322300  -43.957700  -76.641700
  H    -50.068800  -42.973400  -76.197800
  H    -49.500800  -44.200200  -77.378700
  C    -51.530500  -43.733200  -77.495000
  H    -52.558600  -43.795300  -77.036500
  H    -51.360400  -42.796600  -77.982200
  H    -51.572500  -44.494900  -78.281300
  S    -48.300900  -50.271200  -77.621300
  C    -48.092600  -50.824800  -79.245300
  C    -49.046500  -50.305900  -80.105700
  C    -49.961100  -49.414900  -79.453800
  C    -49.743300  -49.277900  -78.082400
  H    -49.124300  -50.609700  -81.170300
  C    -50.908400  -48.628400  -80.332000
  H    -50.458900  -48.325200  -81.255200
  H    -51.070900  -47.743600  -79.723400
  C    -52.224800  -49.380900  -80.747900
  H    -52.862100  -49.271200  -79.865900
  H    -52.056800  -50.456100  -80.848600
  C    -52.917900  -48.862200  -82.014300
  H    -52.306700  -48.954900  -82.903400
  H    -52.921000  -47.826800  -81.866700
  H    -53.856000  -49.179200  -82.364000
  H    -51.080800  -47.288400  -73.805000
  H    -47.250900  -51.406300  -79.548800

 Total Charge           Charge          ....    0
 Multiplicity           Mult            ....    1
 Number of Electrons    NEL             ....  134
 Basis Dimension        Dim             ....  322

ORBITAL ENERGIES
----------------

  NO   OCC          E(Eh)            E(eV)
   0   2.0000     -88.970727     -2421.0166
   1   2.0000     -88.961159     -2420.7562
   2   2.0000     -10.330000      -281.0936
   3   2.0000     -10.325318      -280.9662
   4   2.0000     -10.315403      -280.6964
   5   2.0000     -10.314146      -280.6622
   6   2.0000     -10.306788      -280.4620
   7   2.0000     -10.303544      -280.3737
   8   2.0000     -10.296932      -280.1938
   9   2.0000     -10.293077      -280.0889
  10   2.0000     -10.291097      -280.0350
  11   2.0000     -10.290129      -280.0086
  12   2.0000     -10.289079      -279.9801
  13   2.0000     -10.287109      -279.9265
  14   2.0000     -10.277700      -279.6704
  15   2.0000     -10.268405      -279.4175
  16   2.0000      -8.085538      -220.0187
  17   2.0000      -8.075588      -219.7479
  18   2.0000      -6.043964      -164.4646
  19   2.0000      -6.040430      -164.3685
  20   2.0000      -6.035982      -164.2474
  21   2.0000      -6.034060      -164.1951
  22   2.0000      -6.030122      -164.0880
  23   2.0000      -6.026421      -163.9872
  24   2.0000      -1.004207       -27.3259
  25   2.0000      -0.979654       -26.6577
  26   2.0000      -0.913240       -24.8505
  27   2.0000      -0.904654       -24.6169
  28   2.0000      -0.865260       -23.5449
  29   2.0000      -0.854692       -23.2573
  30   2.0000      -0.848261       -23.0824
  31   2.0000      -0.814642       -22.1675
  32   2.0000      -0.786441       -21.4001
  33   2.0000      -0.773170       -21.0390
  34   2.0000      -0.707309       -19.2469
  35   2.0000      -0.697908       -18.9910
  36   2.0000      -0.687354       -18.7039
  37   2.0000      -0.658706       -17.9243
  38   2.0000      -0.641234       -17.4489
  39   2.0000      -0.622724       -16.9452
  40   2.0000      -0.595071       -16.1927
  41   2.0000      -0.562682       -15.3113
  42   2.0000      -0.559446       -15.2233
  43   2.0000      -0.556261       -15.1366
  44   2.0000      -0.543633       -14.7930
  45   2.0000      -0.533995       -14.5307
  46   2.0000      -0.522605       -14.2208
  47   2.0000      -0.511764       -13.9258
  48   2.0000      -0.500588       -13.6217
  49   2.0000      -0.496815       -13.5190
  50   2.0000      -0.488441       -13.2911
  51   2.0000      -0.479737       -13.0543
  52   2.0000      -0.468905       -12.7596
  53   2.0000      -0.465125       -12.6567
  54   2.0000      -0.455358       -12.3909
  55   2.0000      -0.450101       -12.2479
  56   2.0000      -0.447747       -12.1838
  57   2.0000      -0.443153       -12.0588
  58   2.0000      -0.429925       -11.6989
  59   2.0000      -0.428127       -11.6499
  60   2.0000      -0.421938       -11.4815
  61   2.0000      -0.414521       -11.2797
  62   2.0000      -0.407158       -11.0793
  63   2.0000      -0.341599        -9.2954
  64   2.0000      -0.327095        -8.9007
  65   2.0000      -0.323721        -8.8089
  66   2.0000      -0.298788        -8.1304
  67   0.0000       0.038952         1.0599
  68   0.0000       0.061439         1.6718
  69   0.0000       0.101587         2.7643
  70   0.0000       0.117423         3.1952
  71   0.0000       0.132701         3.6110

MULLIKEN ATOMIC CHARGES
-----------------------
   0 S :    0.136589
   1 C :   -0.146379
   2 C :   -0.083264
   3 C :    0.050574
   4 C :   -0.159082
   5 H :   -0.000477
   6 C :    0.102697
   7 H :    0.025839
   8 H :    0.034483
   9 C :   -0.109420
  10 H :    0.035422
  11 H :    0.041437
  12 C :   -0.054231
  13 H :    0.041992
  14 H :    0.030840
  15 H :    0.023402
  16 S :    0.095835
  17 C :   -0.084290
  18 C :   -0.042853
  19 C :   -0.046581
  20 C :   -0.173916
  21 H :    0.034543
  22 C :    0.081364
  23 H :    0.015362
  24 H :    0.015108
  25 C :   -0.075090
  26 H :    0.033611
  27 H :    0.033226
  28 C :   -0.010399
  29 H :    0.014633
  30 H :    0.011202
  31 H :    0.028443
  32 H :    0.045987
  33 H :    0.053391
Sum of atomic charges:    0.0000000

LOEWDIN ATOMIC CHARGES
----------------------
   0 S :    0.410510
   1 C :   -0.200612
   2 C :   -0.049424
   3 C :   -0.056087
   4 C :   -0.200570
   5 H :    0.024937
   6 C :   -0.029900
   7 H :    0.025680
   8 H :    0.038198
   9 C :   -0.046271
  10 H :    0.030550
  11 H :    0.032929
  12 C :   -0.072359
  13 H :    0.030747
  14 H :    0.025275
  15 H :    0.021634
  16 S :    0.389379
  17 C :   -0.184327
  18 C :   -0.078736
  19 C :   -0.056666
  20 C :   -0.185498
  21 H :    0.037761
  22 C :   -0.026283
  23 H :    0.024697
  24 H :    0.028278
  25 C :   -0.036309
  26 H :    0.027423
  27 H :    0.021590
  28 C :   -0.065718
  29 H :    0.024068
  30 H :    0.020171
  31 H :    0.022505
  32 H :    0.027436
  33 H :    0.024992

  Mayer bond orders larger than 0.100000
B(  0-S ,  1-C ) :   1.1169 B(  0-S ,  4-C ) :   1.1548 B(  1-C ,  2-C ) :   1.6586
B(  1-C , 32-H ) :   0.9681 B(  2-C ,  3-C ) :   1.2034 B(  2-C ,  6-C ) :   0.9885
B(  3-C ,  4-C ) :   1.6185 B(  3-C ,  5-H ) :   0.9942 B(  4-C , 20-C ) :   0.9874
B(  6-C ,  7-H ) :   0.9330 B(  6-C ,  8-H ) :   0.9428 B(  6-C ,  9-C ) :   1.0861
B(  9-C , 10-H ) :   0.9584 B(  9-C , 11-H ) :   0.9482 B(  9-C , 12-C ) :   1.0781
B( 12-C , 13-H ) :   0.9744 B( 12-C , 14-H ) :   0.9734 B( 12-C , 15-H ) :   0.9765
B( 16-S , 17-C ) :   1.1672 B( 16-S , 20-C ) :   1.1279 B( 17-C , 18-C ) :   1.6039
B( 17-C , 33-H ) :   0.9695 B( 18-C , 19-C ) :   1.2364 B( 18-C , 21-H ) :   0.9841
B( 19-C , 20-C ) :   1.6231 B( 19-C , 22-C ) :   1.0441 B( 22-C , 23-H ) :   0.9466
B( 22-C , 24-H ) :   0.9278 B( 22-C , 25-C ) :   1.0384 B( 25-C , 26-H ) :   0.9556
B( 25-C , 27-H ) :   0.9687 B( 25-C , 28-C ) :   1.0690 B( 28-C , 29-H ) :   0.9724
B( 28-C , 30-H ) :   0.9723 B( 28-C , 31-H ) :   0.9765

Dispersion correction           -0.014008544
FINAL SINGLE POINT ENERGY     -1339.857483152905

DIPOLE MOMENT
-------------
                                X             Y             Z
Electronic contribution:     12.26885     -20.29745      16.00097
Nuclear contribution   :    -12.33350      20.92984     -16.34612
                        -----------------------------------------
Total Dipole Moment    :     -0.06465       0.63239      -0.34515
                        -----------------------------------------
Magnitude (a.u.)       :      0.72334
Magnitude (Debye)      :      1.83859

Rotational constants in cm-1:     0.015621     0.009195     0.007033
Rotational constants in MHz :   468.312625   275.651508   210.854058

                             ****ORCA TERMINATED NORMALLY****
TOTAL RUN TIME: 0 days 0 hours 0 minutes 21 seconds 92 msec
