                         Program Version 4.2.1 -  RELEASE  -
|  1> ! wB97X-D3 SP def2-SVP
|  2> %pal
|  3> nprocs 24
|  4> end
|  5>
|  6> * xyz 0 1
|  7> S 	 -97.6267 	 14.2363 	 -121.396
|  8> C 	 -96.3775 	 15.0941 	 -120.498
|  9> C 	 -96.2221 	 14.5886 	 -119.229
| 10> C 	 -97.2571 	 13.6526 	 -118.918
| 11> C 	 -98.1586 	 13.4245 	 -119.936
| 12> H 	 -97.3212 	 13.0812 	 -118.007
| 13> C 	 -95.2016 	 14.8772 	 -118.157
| 14> H 	 -95.534 	 14.4684 	 -117.226
| 15> H 	 -95.2761 	 15.8942 	 -117.866
| 16> C 	 -93.7357 	 14.5843 	 -118.454
| 17> H 	 -93.2526 	 14.5207 	 -117.532
| 18> H 	 -93.5721 	 13.564 	 -118.906
| 19> C 	 -92.9605 	 15.6024 	 -119.323
| 20> H 	 -93.3838 	 15.7714 	 -120.368
| 21> H 	 -93.096 	 16.5947 	 -118.832
| 22> H 	 -91.8976 	 15.3138 	 -119.345
| 23> S 	 -100.642 	 12.8435 	 -120.879
| 24> C 	 -101.544 	 11.472 	 -120.302
| 25> C 	 -100.78 	 10.6135 	 -119.571
| 26> C 	 -99.5291 	 11.2702 	 -119.254
| 27> C 	 -99.2455 	 12.4361 	 -119.949
| 28> H 	 -101.154 	 9.68994 	 -119.197
| 29> C 	 -98.5748 	 10.6388 	 -118.27
| 30> H 	 -98.9952 	 9.78493 	 -117.842
| 31> H 	 -98.3721 	 11.3226 	 -117.397
| 32> C 	 -97.1905 	 10.2473 	 -118.935
| 33> H 	 -96.6137 	 11.1109 	 -119.239
| 34> H 	 -97.315 	 9.67869 	 -119.778
| 35> C 	 -96.3208 	 9.46448 	 -118.011
| 36> H 	 -95.8169 	 10.0722 	 -117.233
| 37> H 	 -95.4649 	 9.04145 	 -118.447
| 38> H 	 -97.0068 	 8.74403 	 -117.595
| 39> H 	 -95.6418 	 15.7712 	 -120.935
| 40> H 	 -102.512 	 11.1314 	 -120.485
| 41> *
| 42>
| 43>                          ****END OF INPUT****

CARTESIAN COORDINATES (ANGSTROEM)
---------------------------------
  S    -97.626700   14.236300  -121.396000
  C    -96.377500   15.094100  -120.498000
  C    -96.222100   14.588600  -119.229000
  C    -97.257100   13.652600  -118.918000
  C    -98.158600   13.424500  -119.936000
  H    -97.321200   13.081200  -118.007000
  C    -95.201600   14.877200  -118.157000
  H    -95.534000   14.468400  -117.226000
  H    -95.276100   15.894200  -117.866000
  C    -93.735700   14.584300  -118.454000
  H    -93.252600   14.520700  -117.532000
  H    -93.572100   13.564000  -118.906000
  C    -92.960500   15.602400  -119.323000
  H    -93.383800   15.771400  -120.368000
  H    -93.096000   16.594700  -118.832000
  H    -91.897600   15.313800  -119.345000
  S    -100.642000   12.843500  -120.879000
  C    -101.544000   11.472000  -120.302000
  C    -100.780000   10.613500  -119.571000
  C    -99.529100   11.270200  -119.254000
  C    -99.245500   12.436100  -119.949000
  H    -101.154000    9.689940  -119.197000
  C    -98.574800   10.638800  -118.270000
  H    -98.995200    9.784930  -117.842000
  H    -98.372100   11.322600  -117.397000
  C    -97.190500   10.247300  -118.935000
  H    -96.613700   11.110900  -119.239000
  H    -97.315000    9.678690  -119.778000
  C    -96.320800    9.464480  -118.011000
  H    -95.816900   10.072200  -117.233000
  H    -95.464900    9.041450  -118.447000
  H    -97.006800    8.744030  -117.595000
  H    -95.641800   15.771200  -120.935000
  H    -102.512000   11.131400  -120.485000

 Total Charge           Charge          ....    0
 Multiplicity           Mult            ....    1
 Number of Electrons    NEL             ....  134
 Basis Dimension        Dim             ....  322

ORBITAL ENERGIES
----------------

  NO   OCC          E(Eh)            E(eV)
   0   2.0000     -88.968534     -2420.9569
   1   2.0000     -88.964911     -2420.8583
   2   2.0000     -10.331547      -281.1357
   3   2.0000     -10.325390      -280.9682
   4   2.0000     -10.314911      -280.6830
   5   2.0000     -10.311292      -280.5845
   6   2.0000     -10.303942      -280.3845
   7   2.0000     -10.300400      -280.2881
   8   2.0000     -10.292890      -280.0838
   9   2.0000     -10.291262      -280.0395
  10   2.0000     -10.290817      -280.0274
  11   2.0000     -10.289655      -279.9957
  12   2.0000     -10.288422      -279.9622
  13   2.0000     -10.288052      -279.9521
  14   2.0000     -10.271282      -279.4958
  15   2.0000     -10.267289      -279.3871
  16   2.0000      -8.082858      -219.9458
  17   2.0000      -8.080174      -219.8727
  18   2.0000      -6.041481      -164.3970
  19   2.0000      -6.038836      -164.3251
  20   2.0000      -6.037523      -164.2893
  21   2.0000      -6.034487      -164.2067
  22   2.0000      -6.033429      -164.1779
  23   2.0000      -6.030845      -164.1076
  24   2.0000      -1.010252       -27.4904
  25   2.0000      -0.987452       -26.8699
  26   2.0000      -0.914493       -24.8846
  27   2.0000      -0.909438       -24.7471
  28   2.0000      -0.873082       -23.7578
  29   2.0000      -0.854400       -23.2494
  30   2.0000      -0.848301       -23.0835
  31   2.0000      -0.818483       -22.2721
  32   2.0000      -0.787256       -21.4223
  33   2.0000      -0.770185       -20.9578
  34   2.0000      -0.708619       -19.2825
  35   2.0000      -0.704095       -19.1594
  36   2.0000      -0.695278       -18.9195
  37   2.0000      -0.668840       -18.2001
  38   2.0000      -0.639823       -17.4105
  39   2.0000      -0.623738       -16.9728
  40   2.0000      -0.595803       -16.2126
  41   2.0000      -0.580982       -15.8093
  42   2.0000      -0.569655       -15.5011
  43   2.0000      -0.550493       -14.9797
  44   2.0000      -0.536988       -14.6122
  45   2.0000      -0.528045       -14.3688
  46   2.0000      -0.520217       -14.1558
  47   2.0000      -0.508797       -13.8451
  48   2.0000      -0.506739       -13.7891
  49   2.0000      -0.497363       -13.5339
  50   2.0000      -0.494228       -13.4486
  51   2.0000      -0.489239       -13.3129
  52   2.0000      -0.477275       -12.9873
  53   2.0000      -0.470223       -12.7954
  54   2.0000      -0.458684       -12.4814
  55   2.0000      -0.450938       -12.2707
  56   2.0000      -0.441355       -12.0099
  57   2.0000      -0.435781       -11.8582
  58   2.0000      -0.426384       -11.6025
  59   2.0000      -0.424683       -11.5562
  60   2.0000      -0.420090       -11.4312
  61   2.0000      -0.417358       -11.3569
  62   2.0000      -0.413926       -11.2635
  63   2.0000      -0.357524        -9.7287
  64   2.0000      -0.331484        -9.0201
  65   2.0000      -0.326989        -8.8978
  66   2.0000      -0.287607        -7.8262
  67   0.0000       0.025584         0.6962
  68   0.0000       0.076297         2.0762
  69   0.0000       0.104288         2.8378
  70   0.0000       0.125046         3.4027
  71   0.0000       0.129471         3.5231

MULLIKEN ATOMIC CHARGES
-----------------------
   0 S :    0.107631
   1 C :   -0.125414
   2 C :   -0.065898
   3 C :   -0.025932
   4 C :   -0.082930
   5 H :   -0.002790
   6 C :    0.106081
   7 H :    0.001936
   8 H :    0.013803
   9 C :   -0.052632
  10 H :    0.014523
  11 H :    0.033851
  12 C :   -0.088463
  13 H :    0.043680
  14 H :    0.029226
  15 H :    0.051295
  16 S :    0.105614
  17 C :   -0.037074
  18 C :   -0.026065
  19 C :   -0.080649
  20 C :   -0.116814
  21 H :    0.011758
  22 C :    0.053198
  23 H :   -0.012134
  24 H :    0.041093
  25 C :   -0.046586
  26 H :    0.034228
  27 H :    0.009245
  28 C :   -0.019584
  29 H :    0.017603
  30 H :    0.018075
  31 H :    0.019682
  32 H :    0.045684
  33 H :    0.024758
Sum of atomic charges:    0.0000000

LOEWDIN ATOMIC CHARGES
----------------------
   0 S :    0.400476
   1 C :   -0.197412
   2 C :   -0.056939
   3 C :   -0.065433
   4 C :   -0.186439
   5 H :    0.026317
   6 C :   -0.032091
   7 H :    0.029969
   8 H :    0.031649
   9 C :   -0.040160
  10 H :    0.018569
  11 H :    0.028818
  12 C :   -0.072562
  13 H :    0.028244
  14 H :    0.025346
  15 H :    0.031998
  16 S :    0.420544
  17 C :   -0.175631
  18 C :   -0.064236
  19 C :   -0.054346
  20 C :   -0.207759
  21 H :    0.029578
  22 C :   -0.027493
  23 H :    0.015621
  24 H :    0.034491
  25 C :   -0.032169
  26 H :    0.024350
  27 H :    0.013916
  28 C :   -0.061836
  29 H :    0.024620
  30 H :    0.019376
  31 H :    0.021431
  32 H :    0.027966
  33 H :    0.021231

  Mayer bond orders larger than 0.100000
B(  0-S ,  1-C ) :   1.1268 B(  0-S ,  4-C ) :   1.1503 B(  1-C ,  2-C ) :   1.6179
B(  1-C , 32-H ) :   0.9645 B(  2-C ,  3-C ) :   1.2485 B(  2-C ,  6-C ) :   1.0179
B(  3-C ,  4-C ) :   1.5737 B(  3-C ,  5-H ) :   0.9968 B(  4-C , 20-C ) :   1.0370
B(  6-C ,  7-H ) :   0.9336 B(  6-C ,  8-H ) :   0.9252 B(  6-C ,  9-C ) :   1.0709
B(  9-C , 10-H ) :   0.9499 B(  9-C , 11-H ) :   0.9567 B(  9-C , 12-C ) :   1.0757
B( 12-C , 13-H ) :   0.9741 B( 12-C , 14-H ) :   0.9735 B( 12-C , 15-H ) :   0.9722
B( 16-S , 17-C ) :   1.1608 B( 16-S , 20-C ) :   1.1219 B( 17-C , 18-C ) :   1.6219
B( 17-C , 33-H ) :   0.9660 B( 18-C , 19-C ) :   1.2382 B( 18-C , 21-H ) :   0.9921
B( 19-C , 20-C ) :   1.5949 B( 19-C , 22-C ) :   1.0570 B( 22-C , 23-H ) :   0.9266
B( 22-C , 24-H ) :   0.9328 B( 22-C , 25-C ) :   1.0579 B( 25-C , 26-H ) :   0.9496
B( 25-C , 27-H ) :   0.9523 B( 25-C , 28-C ) :   1.0959 B( 28-C , 29-H ) :   0.9715
B( 28-C , 30-H ) :   0.9704 B( 28-C , 31-H ) :   0.9750

Dispersion correction           -0.014690960
FINAL SINGLE POINT ENERGY     -1339.862459534806

DIPOLE MOMENT
-------------
                                X             Y             Z
Electronic contribution:    -24.99122       6.10805     -16.04415
Nuclear contribution   :     25.42531      -6.45179      16.62281
                        -----------------------------------------
Total Dipole Moment    :      0.43408      -0.34374       0.57866
                        -----------------------------------------
Magnitude (a.u.)       :      0.80090
Magnitude (Debye)      :      2.03572

Rotational constants in cm-1:     0.021156     0.008797     0.006665
Rotational constants in MHz :   634.253079   263.719601   199.807844

                             ****ORCA TERMINATED NORMALLY****
TOTAL RUN TIME: 0 days 0 hours 0 minutes 22 seconds 300 msec
