                         Program Version 4.2.1 -  RELEASE  -
|  1> ! wB97X-D3 SP def2-SVP
|  2> %pal
|  3> nprocs 24
|  4> end
|  5>
|  6> * xyz 0 1
|  7> S 	 -101.243 	 35.63 	 -91.2128
|  8> C 	 -100.376 	 34.4669 	 -90.2045
|  9> C 	 -99.2021 	 35.056 	 -89.7074
| 10> C 	 -99.0595 	 36.4368 	 -90.1716
| 11> C 	 -100.074 	 36.948 	 -91.0342
| 12> H 	 -98.2576 	 37.1067 	 -89.9306
| 13> C 	 -98.2335 	 34.2997 	 -88.7749
| 14> H 	 -98.0035 	 33.3771 	 -89.2932
| 15> H 	 -98.9417 	 33.9885 	 -88.0791
| 16> C 	 -96.9412 	 34.9938 	 -88.3421
| 17> H 	 -96.3431 	 35.3969 	 -89.1543
| 18> H 	 -97.0539 	 35.8584 	 -87.6654
| 19> C 	 -96.0692 	 33.9423 	 -87.4833
| 20> H 	 -95.0311 	 34.3629 	 -87.2098
| 21> H 	 -96.4141 	 33.7445 	 -86.4607
| 22> H 	 -95.8903 	 33.0721 	 -87.9955
| 23> S 	 -100.639 	 38.3112 	 -93.3914
| 24> C 	 -100.727 	 40.0445 	 -93.4305
| 25> C 	 -100.27 	 40.5413 	 -92.2178
| 26> C 	 -99.9256 	 39.5578 	 -91.2406
| 27> C 	 -100.221 	 38.2666 	 -91.6847
| 28> H 	 -100.2 	 41.6477 	 -92.1988
| 29> C 	 -99.3889 	 39.8267 	 -89.8866
| 30> H 	 -99.5122 	 38.8949 	 -89.2746
| 31> H 	 -100.089 	 40.5865 	 -89.4957
| 32> C 	 -97.9789 	 40.3338 	 -89.8851
| 33> H 	 -97.7086 	 41.2156 	 -90.4831
| 34> H 	 -97.4601 	 39.5028 	 -90.3621
| 35> C 	 -97.3335 	 40.3594 	 -88.4949
| 36> H 	 -97.7387 	 41.0523 	 -87.7828
| 37> H 	 -96.3306 	 40.5855 	 -88.5364
| 38> H 	 -97.4954 	 39.4011 	 -88.0593
| 39> H 	 -100.693 	 33.4944 	 -89.9078
| 40> H 	 -100.907 	 40.562 	 -94.3194
| 41> *
| 42>
| 43>                          ****END OF INPUT****

CARTESIAN COORDINATES (ANGSTROEM)
---------------------------------
  S    -101.243000   35.630000  -91.212800
  C    -100.376000   34.466900  -90.204500
  C    -99.202100   35.056000  -89.707400
  C    -99.059500   36.436800  -90.171600
  C    -100.074000   36.948000  -91.034200
  H    -98.257600   37.106700  -89.930600
  C    -98.233500   34.299700  -88.774900
  H    -98.003500   33.377100  -89.293200
  H    -98.941700   33.988500  -88.079100
  C    -96.941200   34.993800  -88.342100
  H    -96.343100   35.396900  -89.154300
  H    -97.053900   35.858400  -87.665400
  C    -96.069200   33.942300  -87.483300
  H    -95.031100   34.362900  -87.209800
  H    -96.414100   33.744500  -86.460700
  H    -95.890300   33.072100  -87.995500
  S    -100.639000   38.311200  -93.391400
  C    -100.727000   40.044500  -93.430500
  C    -100.270000   40.541300  -92.217800
  C    -99.925600   39.557800  -91.240600
  C    -100.221000   38.266600  -91.684700
  H    -100.200000   41.647700  -92.198800
  C    -99.388900   39.826700  -89.886600
  H    -99.512200   38.894900  -89.274600
  H    -100.089000   40.586500  -89.495700
  C    -97.978900   40.333800  -89.885100
  H    -97.708600   41.215600  -90.483100
  H    -97.460100   39.502800  -90.362100
  C    -97.333500   40.359400  -88.494900
  H    -97.738700   41.052300  -87.782800
  H    -96.330600   40.585500  -88.536400
  H    -97.495400   39.401100  -88.059300
  H    -100.693000   33.494400  -89.907800
  H    -100.907000   40.562000  -94.319400

 Total Charge           Charge          ....    0
 Multiplicity           Mult            ....    1
 Number of Electrons    NEL             ....  134
 Basis Dimension        Dim             ....  322

ORBITAL ENERGIES
----------------

  NO   OCC          E(Eh)            E(eV)
   0   2.0000     -88.966300     -2420.8961
   1   2.0000     -88.962741     -2420.7993
   2   2.0000     -10.340233      -281.3721
   3   2.0000     -10.332108      -281.1510
   4   2.0000     -10.316385      -280.7231
   5   2.0000     -10.315814      -280.7076
   6   2.0000     -10.310350      -280.5589
   7   2.0000     -10.305515      -280.4273
   8   2.0000     -10.301839      -280.3273
   9   2.0000     -10.301542      -280.3192
  10   2.0000     -10.299358      -280.2598
  11   2.0000     -10.294588      -280.1300
  12   2.0000     -10.291321      -280.0411
  13   2.0000     -10.286415      -279.9076
  14   2.0000     -10.285496      -279.8826
  15   2.0000     -10.267818      -279.4015
  16   2.0000      -8.079925      -219.8660
  17   2.0000      -8.077845      -219.8093
  18   2.0000      -6.038640      -164.3198
  19   2.0000      -6.036293      -164.2559
  20   2.0000      -6.034270      -164.2008
  21   2.0000      -6.032268      -164.1464
  22   2.0000      -6.030823      -164.1070
  23   2.0000      -6.028673      -164.0485
  24   2.0000      -1.003067       -27.2948
  25   2.0000      -0.978431       -26.6245
  26   2.0000      -0.918935       -25.0055
  27   2.0000      -0.908545       -24.7228
  28   2.0000      -0.868099       -23.6222
  29   2.0000      -0.854903       -23.2631
  30   2.0000      -0.837286       -22.7837
  31   2.0000      -0.815987       -22.2041
  32   2.0000      -0.785209       -21.3666
  33   2.0000      -0.774382       -21.0720
  34   2.0000      -0.721723       -19.6391
  35   2.0000      -0.704859       -19.1802
  36   2.0000      -0.697350       -18.9759
  37   2.0000      -0.658767       -17.9260
  38   2.0000      -0.641636       -17.4598
  39   2.0000      -0.616897       -16.7866
  40   2.0000      -0.597971       -16.2716
  41   2.0000      -0.573527       -15.6065
  42   2.0000      -0.567885       -15.4529
  43   2.0000      -0.561650       -15.2833
  44   2.0000      -0.538468       -14.6525
  45   2.0000      -0.526919       -14.3382
  46   2.0000      -0.518706       -14.1147
  47   2.0000      -0.511329       -13.9140
  48   2.0000      -0.507033       -13.7971
  49   2.0000      -0.505573       -13.7573
  50   2.0000      -0.494573       -13.4580
  51   2.0000      -0.481987       -13.1155
  52   2.0000      -0.468410       -12.7461
  53   2.0000      -0.466950       -12.7063
  54   2.0000      -0.460425       -12.5288
  55   2.0000      -0.451693       -12.2912
  56   2.0000      -0.442158       -12.0317
  57   2.0000      -0.441011       -12.0005
  58   2.0000      -0.436740       -11.8843
  59   2.0000      -0.431274       -11.7356
  60   2.0000      -0.420828       -11.4513
  61   2.0000      -0.411113       -11.1870
  62   2.0000      -0.407523       -11.0893
  63   2.0000      -0.350115        -9.5271
  64   2.0000      -0.328220        -8.9313
  65   2.0000      -0.325161        -8.8481
  66   2.0000      -0.289429        -7.8758
  67   0.0000       0.023028         0.6266
  68   0.0000       0.071814         1.9541
  69   0.0000       0.116657         3.1744
  70   0.0000       0.123783         3.3683
  71   0.0000       0.125629         3.4185

MULLIKEN ATOMIC CHARGES
-----------------------
   0 S :    0.110364
   1 C :   -0.115534
   2 C :   -0.111683
   3 C :    0.022399
   4 C :   -0.151478
   5 H :   -0.006728
   6 C :    0.098760
   7 H :    0.031698
   8 H :    0.023479
   9 C :   -0.071934
  10 H :    0.044930
  11 H :    0.038486
  12 C :   -0.065712
  13 H :    0.030331
  14 H :    0.038083
  15 H :    0.022266
  16 S :    0.100113
  17 C :   -0.081720
  18 C :   -0.048828
  19 C :   -0.029029
  20 C :   -0.146258
  21 H :    0.030317
  22 C :    0.054588
  23 H :    0.036625
  24 H :    0.031156
  25 C :   -0.085216
  26 H :    0.038330
  27 H :    0.018616
  28 C :    0.015539
  29 H :    0.018382
  30 H :    0.017329
  31 H :    0.010421
  32 H :    0.036913
  33 H :    0.044994
Sum of atomic charges:   -0.0000000

LOEWDIN ATOMIC CHARGES
----------------------
   0 S :    0.401571
   1 C :   -0.199766
   2 C :   -0.054608
   3 C :   -0.074370
   4 C :   -0.190591
   5 H :    0.020196
   6 C :   -0.032360
   7 H :    0.037085
   8 H :    0.030708
   9 C :   -0.036332
  10 H :    0.028803
  11 H :    0.028226
  12 C :   -0.064774
  13 H :    0.033576
  14 H :    0.027524
  15 H :    0.008553
  16 S :    0.409210
  17 C :   -0.177720
  18 C :   -0.075557
  19 C :   -0.053977
  20 C :   -0.199608
  21 H :    0.037851
  22 C :   -0.037514
  23 H :    0.038923
  24 H :    0.033470
  25 C :   -0.041555
  26 H :    0.027635
  27 H :    0.025148
  28 C :   -0.053474
  29 H :    0.021281
  30 H :    0.016718
  31 H :    0.020933
  32 H :    0.025029
  33 H :    0.019766

  Mayer bond orders larger than 0.100000
B(  0-S ,  1-C ) :   1.1416 B(  0-S ,  4-C ) :   1.1611 B(  1-C ,  2-C ) :   1.5895
B(  1-C ,  4-C ) :   0.1093 B(  1-C , 32-H ) :   0.9767 B(  2-C ,  3-C ) :   1.2671
B(  2-C ,  6-C ) :   0.9846 B(  3-C ,  4-C ) :   1.5284 B(  3-C ,  5-H ) :   0.9913
B(  4-C , 20-C ) :   1.0486 B(  6-C ,  7-H ) :   0.9415 B(  6-C ,  8-H ) :   0.9379
B(  6-C ,  9-C ) :   1.0667 B(  9-C , 10-H ) :   0.9553 B(  9-C , 11-H ) :   0.9556
B(  9-C , 12-C ) :   1.0726 B( 12-C , 13-H ) :   0.9753 B( 12-C , 14-H ) :   0.9789
B( 12-C , 15-H ) :   0.9808 B( 16-S , 17-C ) :   1.1645 B( 16-S , 20-C ) :   1.1509
B( 17-C , 18-C ) :   1.5876 B( 17-C , 20-C ) :   0.1028 B( 17-C , 33-H ) :   0.9778
B( 18-C , 19-C ) :   1.2379 B( 18-C , 21-H ) :   0.9907 B( 19-C , 20-C ) :   1.5623
B( 19-C , 22-C ) :   1.0519 B( 22-C , 23-H ) :   0.9305 B( 22-C , 24-H ) :   0.9218
B( 22-C , 25-C ) :   1.0605 B( 25-C , 26-H ) :   0.9561 B( 25-C , 27-H ) :   0.9486
B( 25-C , 28-C ) :   1.0908 B( 28-C , 29-H ) :   0.9718 B( 28-C , 30-H ) :   0.9727
B( 28-C , 31-H ) :   0.9701

Dispersion correction           -0.013957968
FINAL SINGLE POINT ENERGY     -1339.858409471296

DIPOLE MOMENT
-------------
                                X             Y             Z
Electronic contribution:    -23.32468      -1.09836     -23.62347
Nuclear contribution   :     23.92233       1.25143      24.12290
                        -----------------------------------------
Total Dipole Moment    :      0.59765       0.15307       0.49943
                        -----------------------------------------
Magnitude (a.u.)       :      0.79375
Magnitude (Debye)      :      2.01756

Rotational constants in cm-1:     0.017334     0.008964     0.006282
Rotational constants in MHz :   519.653762   268.727651   188.337907

                             ****ORCA TERMINATED NORMALLY****
TOTAL RUN TIME: 0 days 0 hours 0 minutes 21 seconds 379 msec
