                         Program Version 4.2.1 -  RELEASE  -
|  1> ! wB97X-D3 SP def2-SVP
|  2> %pal
|  3> nprocs 24
|  4> end
|  5>
|  6> * xyz 0 1
|  7> S 	 -126.113 	 62.8292 	 -42.6816
|  8> C 	 -125.056 	 62.931 	 -44.1608
|  9> C 	 -125.337 	 63.9917 	 -44.9835
| 10> C 	 -126.371 	 64.8398 	 -44.4521
| 11> C 	 -126.803 	 64.4388 	 -43.2025
| 12> H 	 -126.603 	 65.7736 	 -44.8774
| 13> C 	 -124.585 	 64.2584 	 -46.2716
| 14> H 	 -124.565 	 63.2884 	 -46.8018
| 15> H 	 -123.533 	 64.5457 	 -46.0988
| 16> C 	 -125.182 	 65.2591 	 -47.3249
| 17> H 	 -124.667 	 65.2918 	 -48.2551
| 18> H 	 -126.199 	 65.1099 	 -47.6084
| 19> C 	 -124.967 	 66.7363 	 -46.977
| 20> H 	 -123.943 	 67.0497 	 -47.0412
| 21> H 	 -125.611 	 67.4109 	 -47.5811
| 22> H 	 -125.307 	 66.9278 	 -45.9161
| 23> S 	 -127.893 	 64.3456 	 -40.6271
| 24> C 	 -128.59 	 65.859 	 -40.0817
| 25> C 	 -128.915 	 66.7005 	 -41.0721
| 26> C 	 -128.47 	 66.2278 	 -42.3442
| 27> C 	 -127.75 	 65.079 	 -42.2951
| 28> H 	 -129.377 	 67.5612 	 -40.8716
| 29> C 	 -128.722 	 67.1857 	 -43.5413
| 30> H 	 -129.785 	 67.5627 	 -43.5263
| 31> H 	 -128.619 	 66.6526 	 -44.4702
| 32> C 	 -127.761 	 68.3784 	 -43.6234
| 33> H 	 -126.742 	 67.9285 	 -43.7881
| 34> H 	 -127.838 	 68.8483 	 -42.6079
| 35> C 	 -127.924 	 69.444 	 -44.7643
| 36> H 	 -128.851 	 69.9514 	 -44.5216
| 37> H 	 -128.041 	 68.9909 	 -45.7432
| 38> H 	 -127.075 	 70.1328 	 -44.65
| 39> H 	 -124.271 	 62.2256 	 -44.372
| 40> H 	 -128.804 	 66.0839 	 -39.0228
| 41> *
| 42>
| 43>                          ****END OF INPUT****

CARTESIAN COORDINATES (ANGSTROEM)
---------------------------------
  S    -126.113000   62.829200  -42.681600
  C    -125.056000   62.931000  -44.160800
  C    -125.337000   63.991700  -44.983500
  C    -126.371000   64.839800  -44.452100
  C    -126.803000   64.438800  -43.202500
  H    -126.603000   65.773600  -44.877400
  C    -124.585000   64.258400  -46.271600
  H    -124.565000   63.288400  -46.801800
  H    -123.533000   64.545700  -46.098800
  C    -125.182000   65.259100  -47.324900
  H    -124.667000   65.291800  -48.255100
  H    -126.199000   65.109900  -47.608400
  C    -124.967000   66.736300  -46.977000
  H    -123.943000   67.049700  -47.041200
  H    -125.611000   67.410900  -47.581100
  H    -125.307000   66.927800  -45.916100
  S    -127.893000   64.345600  -40.627100
  C    -128.590000   65.859000  -40.081700
  C    -128.915000   66.700500  -41.072100
  C    -128.470000   66.227800  -42.344200
  C    -127.750000   65.079000  -42.295100
  H    -129.377000   67.561200  -40.871600
  C    -128.722000   67.185700  -43.541300
  H    -129.785000   67.562700  -43.526300
  H    -128.619000   66.652600  -44.470200
  C    -127.761000   68.378400  -43.623400
  H    -126.742000   67.928500  -43.788100
  H    -127.838000   68.848300  -42.607900
  C    -127.924000   69.444000  -44.764300
  H    -128.851000   69.951400  -44.521600
  H    -128.041000   68.990900  -45.743200
  H    -127.075000   70.132800  -44.650000
  H    -124.271000   62.225600  -44.372000
  H    -128.804000   66.083900  -39.022800

 Total Charge           Charge          ....    0
 Multiplicity           Mult            ....    1
 Number of Electrons    NEL             ....  134
 Basis Dimension        Dim             ....  322

ORBITAL ENERGIES
----------------

  NO   OCC          E(Eh)            E(eV)
   0   2.0000     -88.967907     -2420.9398
   1   2.0000     -88.962521     -2420.7933
   2   2.0000     -10.339637      -281.3558
   3   2.0000     -10.331564      -281.1362
   4   2.0000     -10.317001      -280.7399
   5   2.0000     -10.314812      -280.6803
   6   2.0000     -10.305586      -280.4292
   7   2.0000     -10.304347      -280.3955
   8   2.0000     -10.302215      -280.3375
   9   2.0000     -10.297516      -280.2096
  10   2.0000     -10.295211      -280.1469
  11   2.0000     -10.294587      -280.1300
  12   2.0000     -10.287385      -279.9340
  13   2.0000     -10.285547      -279.8840
  14   2.0000     -10.283158      -279.8190
  15   2.0000     -10.282076      -279.7895
  16   2.0000      -8.080428      -219.8796
  17   2.0000      -8.076734      -219.7791
  18   2.0000      -6.039185      -164.3346
  19   2.0000      -6.035622      -164.2376
  20   2.0000      -6.035483      -164.2338
  21   2.0000      -6.031684      -164.1305
  22   2.0000      -6.030690      -164.1034
  23   2.0000      -6.026918      -164.0008
  24   2.0000      -1.001971       -27.2650
  25   2.0000      -0.976475       -26.5712
  26   2.0000      -0.909340       -24.7444
  27   2.0000      -0.904521       -24.6133
  28   2.0000      -0.872133       -23.7320
  29   2.0000      -0.851593       -23.1730
  30   2.0000      -0.840569       -22.8730
  31   2.0000      -0.820897       -22.3377
  32   2.0000      -0.786387       -21.3987
  33   2.0000      -0.773397       -21.0452
  34   2.0000      -0.710633       -19.3373
  35   2.0000      -0.699037       -19.0218
  36   2.0000      -0.686964       -18.6932
  37   2.0000      -0.668992       -18.2042
  38   2.0000      -0.637606       -17.3501
  39   2.0000      -0.629576       -17.1316
  40   2.0000      -0.597808       -16.2672
  41   2.0000      -0.573362       -15.6020
  42   2.0000      -0.565752       -15.3949
  43   2.0000      -0.548961       -14.9380
  44   2.0000      -0.539547       -14.6818
  45   2.0000      -0.528540       -14.3823
  46   2.0000      -0.519354       -14.1324
  47   2.0000      -0.509464       -13.8632
  48   2.0000      -0.505554       -13.7568
  49   2.0000      -0.499105       -13.5813
  50   2.0000      -0.490744       -13.3538
  51   2.0000      -0.486360       -13.2345
  52   2.0000      -0.476578       -12.9683
  53   2.0000      -0.464505       -12.6398
  54   2.0000      -0.456810       -12.4304
  55   2.0000      -0.452202       -12.3050
  56   2.0000      -0.443411       -12.0658
  57   2.0000      -0.436968       -11.8905
  58   2.0000      -0.430152       -11.7050
  59   2.0000      -0.424835       -11.5603
  60   2.0000      -0.419318       -11.4102
  61   2.0000      -0.413992       -11.2653
  62   2.0000      -0.409193       -11.1347
  63   2.0000      -0.362400        -9.8614
  64   2.0000      -0.339724        -9.2444
  65   2.0000      -0.327029        -8.8989
  66   2.0000      -0.279940        -7.6176
  67   0.0000       0.013000         0.3537
  68   0.0000       0.065903         1.7933
  69   0.0000       0.089072         2.4238
  70   0.0000       0.115259         3.1363
  71   0.0000       0.129292         3.5182

MULLIKEN ATOMIC CHARGES
-----------------------
   0 S :    0.078160
   1 C :   -0.121846
   2 C :   -0.047825
   3 C :    0.009737
   4 C :   -0.069973
   5 H :   -0.030053
   6 C :    0.036929
   7 H :    0.043656
   8 H :    0.049941
   9 C :   -0.051124
  10 H :    0.023285
  11 H :    0.026727
  12 C :   -0.089310
  13 H :    0.033332
  14 H :    0.037692
  15 H :    0.020714
  16 S :    0.070107
  17 C :   -0.075740
  18 C :    0.023418
  19 C :   -0.063574
  20 C :   -0.093158
  21 H :   -0.034826
  22 C :    0.042428
  23 H :    0.032121
  24 H :    0.016010
  25 C :   -0.134282
  26 H :    0.036870
  27 H :    0.032755
  28 C :   -0.018280
  29 H :    0.027143
  30 H :    0.035883
  31 H :    0.052328
  32 H :    0.038070
  33 H :    0.062686
Sum of atomic charges:    0.0000000

LOEWDIN ATOMIC CHARGES
----------------------
   0 S :    0.336437
   1 C :   -0.170133
   2 C :   -0.056847
   3 C :   -0.061894
   4 C :   -0.142022
   5 H :    0.018150
   6 C :   -0.032463
   7 H :    0.040423
   8 H :    0.038665
   9 C :   -0.045036
  10 H :    0.028288
  11 H :    0.021904
  12 C :   -0.069962
  13 H :    0.020652
  14 H :    0.028951
  15 H :    0.019730
  16 S :    0.350566
  17 C :   -0.162882
  18 C :   -0.059173
  19 C :   -0.048116
  20 C :   -0.164458
  21 H :    0.011370
  22 C :   -0.036157
  23 H :    0.033997
  24 H :    0.019184
  25 C :   -0.049121
  26 H :    0.024022
  27 H :    0.025599
  28 C :   -0.061483
  29 H :    0.023591
  30 H :    0.024406
  31 H :    0.035118
  32 H :    0.023683
  33 H :    0.035012

  Mayer bond orders larger than 0.100000
B(  0-S ,  1-C ) :   1.0984 B(  0-S ,  4-C ) :   1.1088 B(  1-C ,  2-C ) :   1.6768
B(  1-C , 32-H ) :   0.9696 B(  2-C ,  3-C ) :   1.2083 B(  2-C ,  6-C ) :   1.0018
B(  3-C ,  4-C ) :   1.6079 B(  3-C ,  5-H ) :   0.9850 B(  4-C , 20-C ) :   1.0955
B(  6-C ,  7-H ) :   0.9416 B(  6-C ,  8-H ) :   0.9421 B(  6-C ,  9-C ) :   1.0783
B(  9-C , 10-H ) :   0.9542 B(  9-C , 11-H ) :   0.9586 B(  9-C , 12-C ) :   1.0645
B( 12-C , 13-H ) :   0.9745 B( 12-C , 14-H ) :   0.9729 B( 12-C , 15-H ) :   0.9762
B( 16-S , 17-C ) :   1.1328 B( 16-S , 20-C ) :   1.0836 B( 17-C , 18-C ) :   1.6636
B( 17-C , 33-H ) :   0.9592 B( 18-C , 19-C ) :   1.1801 B( 18-C , 21-H ) :   1.0150
B( 19-C , 20-C ) :   1.6734 B( 19-C , 22-C ) :   1.0381 B( 22-C , 23-H ) :   0.9359
B( 22-C , 24-H ) :   0.9335 B( 22-C , 25-C ) :   1.0605 B( 25-C , 26-H ) :   0.9527
B( 25-C , 27-H ) :   0.9558 B( 25-C , 28-C ) :   1.0720 B( 28-C , 29-H ) :   0.9746
B( 28-C , 30-H ) :   0.9744 B( 28-C , 31-H ) :   0.9746

Dispersion correction           -0.014920419
FINAL SINGLE POINT ENERGY     -1339.858037448440

DIPOLE MOMENT
-------------
                                X             Y             Z
Electronic contribution:     -4.02336     -23.58524      24.15827
Nuclear contribution   :      4.11793      24.29945     -24.68700
                        -----------------------------------------
Total Dipole Moment    :      0.09457       0.71421      -0.52872
                        -----------------------------------------
Magnitude (a.u.)       :      0.89364
Magnitude (Debye)      :      2.27145

Rotational constants in cm-1:     0.015845     0.011152     0.006736
Rotational constants in MHz :   475.015109   334.329956   201.927249

                             ****ORCA TERMINATED NORMALLY****
TOTAL RUN TIME: 0 days 0 hours 0 minutes 21 seconds 375 msec
