                         Program Version 4.2.1 -  RELEASE  -
|  1> ! wB97X-D3 SP def2-SVP
|  2> %pal
|  3> nprocs 24
|  4> end
|  5>
|  6> * xyz 0 1
|  7> S 	 -74.7742 	 -1.60171 	 -62.1034
|  8> C 	 -74.9368 	 0.166504 	 -62.3158
|  9> C 	 -75.8177 	 0.780633 	 -61.4205
| 10> C 	 -76.3893 	 -0.233858 	 -60.6635
| 11> C 	 -75.9826 	 -1.54308 	 -60.881
| 12> H 	 -77.1312 	 -0.110181 	 -59.8542
| 13> C 	 -76.2316 	 2.25956 	 -61.3383
| 14> H 	 -75.7487 	 2.82556 	 -62.1137
| 15> H 	 -75.662 	 2.58849 	 -60.4803
| 16> C 	 -77.6958 	 2.51499 	 -61.1644
| 17> H 	 -78.3006 	 1.73034 	 -61.6564
| 18> H 	 -77.7936 	 2.3569 	 -60.0976
| 19> C 	 -78.2047 	 3.91582 	 -61.6202
| 20> H 	 -77.9041 	 4.79046 	 -61.0326
| 21> H 	 -77.8242 	 4.12787 	 -62.6013
| 22> H 	 -79.2853 	 3.9138 	 -61.6949
| 23> S 	 -75.1674 	 -3.65327 	 -59.4126
| 24> C 	 -76.2375 	 -4.42413 	 -58.2866
| 25> C 	 -77.5485 	 -4.11717 	 -58.6001
| 26> C 	 -77.6799 	 -3.25832 	 -59.7591
| 27> C 	 -76.4291 	 -2.70916 	 -60.1159
| 28> H 	 -78.3065 	 -4.57363 	 -58.006
| 29> C 	 -78.9651 	 -2.81861 	 -60.4013
| 30> H 	 -79.5845 	 -3.68647 	 -60.729
| 31> H 	 -78.729 	 -2.07505 	 -61.125
| 32> C 	 -79.7229 	 -2.04114 	 -59.2891
| 33> H 	 -79.1149 	 -1.4214 	 -58.7093
| 34> H 	 -80.2357 	 -2.77541 	 -58.6231
| 35> C 	 -80.8081 	 -1.11017 	 -59.7604
| 36> H 	 -81.1525 	 -1.45225 	 -60.7552
| 37> H 	 -80.5544 	 -0.0533843 	 -59.7176
| 38> H 	 -81.6368 	 -1.30164 	 -59.1243
| 39> H 	 -74.2452 	 0.650014 	 -62.9726
| 40> H 	 -75.983 	 -5.13859 	 -57.6051
| 41> *
| 42>
| 43>                          ****END OF INPUT****

CARTESIAN COORDINATES (ANGSTROEM)
---------------------------------
  S    -74.774200   -1.601710  -62.103400
  C    -74.936800    0.166504  -62.315800
  C    -75.817700    0.780633  -61.420500
  C    -76.389300   -0.233858  -60.663500
  C    -75.982600   -1.543080  -60.881000
  H    -77.131200   -0.110181  -59.854200
  C    -76.231600    2.259560  -61.338300
  H    -75.748700    2.825560  -62.113700
  H    -75.662000    2.588490  -60.480300
  C    -77.695800    2.514990  -61.164400
  H    -78.300600    1.730340  -61.656400
  H    -77.793600    2.356900  -60.097600
  C    -78.204700    3.915820  -61.620200
  H    -77.904100    4.790460  -61.032600
  H    -77.824200    4.127870  -62.601300
  H    -79.285300    3.913800  -61.694900
  S    -75.167400   -3.653270  -59.412600
  C    -76.237500   -4.424130  -58.286600
  C    -77.548500   -4.117170  -58.600100
  C    -77.679900   -3.258320  -59.759100
  C    -76.429100   -2.709160  -60.115900
  H    -78.306500   -4.573630  -58.006000
  C    -78.965100   -2.818610  -60.401300
  H    -79.584500   -3.686470  -60.729000
  H    -78.729000   -2.075050  -61.125000
  C    -79.722900   -2.041140  -59.289100
  H    -79.114900   -1.421400  -58.709300
  H    -80.235700   -2.775410  -58.623100
  C    -80.808100   -1.110170  -59.760400
  H    -81.152500   -1.452250  -60.755200
  H    -80.554400   -0.053384  -59.717600
  H    -81.636800   -1.301640  -59.124300
  H    -74.245200    0.650014  -62.972600
  H    -75.983000   -5.138590  -57.605100

 Total Charge           Charge          ....    0
 Multiplicity           Mult            ....    1
 Number of Electrons    NEL             ....  134
 Basis Dimension        Dim             ....  322

ORBITAL ENERGIES
----------------

  NO   OCC          E(Eh)            E(eV)
   0   2.0000     -88.967480     -2420.9282
   1   2.0000     -88.958012     -2420.6706
   2   2.0000     -10.326982      -281.0115
   3   2.0000     -10.323357      -280.9128
   4   2.0000     -10.315861      -280.7089
   5   2.0000     -10.308397      -280.5057
   6   2.0000     -10.306460      -280.4530
   7   2.0000     -10.305004      -280.4134
   8   2.0000     -10.293288      -280.0946
   9   2.0000     -10.292511      -280.0735
  10   2.0000     -10.291766      -280.0532
  11   2.0000     -10.290967      -280.0315
  12   2.0000     -10.290585      -280.0211
  13   2.0000     -10.282888      -279.8116
  14   2.0000     -10.277947      -279.6772
  15   2.0000     -10.270366      -279.4709
  16   2.0000      -8.082172      -219.9271
  17   2.0000      -8.073851      -219.7006
  18   2.0000      -6.040481      -164.3698
  19   2.0000      -6.036742      -164.2681
  20   2.0000      -6.033106      -164.1692
  21   2.0000      -6.032224      -164.1452
  22   2.0000      -6.028228      -164.0364
  23   2.0000      -6.024656      -163.9392
  24   2.0000      -1.008117       -27.4323
  25   2.0000      -0.985114       -26.8063
  26   2.0000      -0.917955       -24.9788
  27   2.0000      -0.913847       -24.8670
  28   2.0000      -0.869558       -23.6619
  29   2.0000      -0.852194       -23.1894
  30   2.0000      -0.846082       -23.0231
  31   2.0000      -0.814376       -22.1603
  32   2.0000      -0.789637       -21.4871
  33   2.0000      -0.771822       -21.0024
  34   2.0000      -0.713505       -19.4154
  35   2.0000      -0.695139       -18.9157
  36   2.0000      -0.693890       -18.8817
  37   2.0000      -0.658324       -17.9139
  38   2.0000      -0.644996       -17.5512
  39   2.0000      -0.621244       -16.9049
  40   2.0000      -0.595873       -16.2145
  41   2.0000      -0.578127       -15.7316
  42   2.0000      -0.572525       -15.5792
  43   2.0000      -0.562233       -15.2991
  44   2.0000      -0.531184       -14.4543
  45   2.0000      -0.525565       -14.3013
  46   2.0000      -0.524525       -14.2731
  47   2.0000      -0.508952       -13.8493
  48   2.0000      -0.506793       -13.7906
  49   2.0000      -0.499324       -13.5873
  50   2.0000      -0.490059       -13.3352
  51   2.0000      -0.482169       -13.1205
  52   2.0000      -0.471793       -12.8381
  53   2.0000      -0.469648       -12.7798
  54   2.0000      -0.461473       -12.5573
  55   2.0000      -0.447178       -12.1683
  56   2.0000      -0.446493       -12.1497
  57   2.0000      -0.439437       -11.9577
  58   2.0000      -0.435346       -11.8464
  59   2.0000      -0.428853       -11.6697
  60   2.0000      -0.421333       -11.4651
  61   2.0000      -0.414363       -11.2754
  62   2.0000      -0.411021       -11.1844
  63   2.0000      -0.340272        -9.2593
  64   2.0000      -0.336659        -9.1609
  65   2.0000      -0.319640        -8.6979
  66   2.0000      -0.287393        -7.8204
  67   0.0000       0.031508         0.8574
  68   0.0000       0.068370         1.8604
  69   0.0000       0.106913         2.9092
  70   0.0000       0.119504         3.2519
  71   0.0000       0.130617         3.5543

MULLIKEN ATOMIC CHARGES
-----------------------
   0 S :    0.113549
   1 C :   -0.143279
   2 C :   -0.066626
   3 C :   -0.011646
   4 C :   -0.139679
   5 H :    0.007188
   6 C :    0.121599
   7 H :    0.002712
   8 H :    0.034453
   9 C :   -0.100442
  10 H :    0.048594
  11 H :    0.034858
  12 C :   -0.029732
  13 H :    0.035542
  14 H :    0.023312
  15 H :    0.035225
  16 S :    0.099629
  17 C :   -0.047862
  18 C :   -0.042638
  19 C :   -0.051769
  20 C :   -0.172234
  21 H :    0.011398
  22 C :    0.125634
  23 H :    0.047503
  24 H :    0.021125
  25 C :   -0.130405
  26 H :    0.020836
  27 H :    0.030613
  28 C :   -0.017663
  29 H :    0.021550
  30 H :    0.041609
  31 H :    0.015585
  32 H :    0.039309
  33 H :    0.022157
Sum of atomic charges:    0.0000000

LOEWDIN ATOMIC CHARGES
----------------------
   0 S :    0.405979
   1 C :   -0.180905
   2 C :   -0.056472
   3 C :   -0.072720
   4 C :   -0.209658
   5 H :    0.030444
   6 C :   -0.027808
   7 H :    0.024014
   8 H :    0.037825
   9 C :   -0.044478
  10 H :    0.031542
  11 H :    0.026414
  12 C :   -0.061666
  13 H :    0.027837
  14 H :    0.022945
  15 H :    0.028373
  16 S :    0.415214
  17 C :   -0.174706
  18 C :   -0.068438
  19 C :   -0.047752
  20 C :   -0.209104
  21 H :    0.026550
  22 C :   -0.026290
  23 H :    0.041732
  24 H :    0.027250
  25 C :   -0.041407
  26 H :    0.014148
  27 H :    0.025069
  28 C :   -0.066871
  29 H :    0.026416
  30 H :    0.025204
  31 H :    0.023492
  32 H :    0.016631
  33 H :    0.011198

  Mayer bond orders larger than 0.100000
B(  0-S ,  1-C ) :   1.1517 B(  0-S ,  4-C ) :   1.1575 B(  1-C ,  2-C ) :   1.5845
B(  1-C ,  4-C ) :   0.1061 B(  1-C , 32-H ) :   0.9693 B(  2-C ,  3-C ) :   1.2653
B(  2-C ,  6-C ) :   1.0079 B(  3-C ,  4-C ) :   1.5658 B(  3-C ,  5-H ) :   0.9881
B(  4-C , 20-C ) :   1.0294 B(  6-C ,  7-H ) :   0.9420 B(  6-C ,  8-H ) :   0.9274
B(  6-C ,  9-C ) :   1.0467 B(  9-C , 10-H ) :   0.9671 B(  9-C , 11-H ) :   0.9460
B(  9-C , 12-C ) :   1.0825 B( 12-C , 13-H ) :   0.9756 B( 12-C , 14-H ) :   0.9755
B( 12-C , 15-H ) :   0.9762 B( 16-S , 17-C ) :   1.1583 B( 16-S , 20-C ) :   1.1499
B( 17-C , 18-C ) :   1.6057 B( 17-C , 20-C ) :   0.1028 B( 17-C , 33-H ) :   0.9813
B( 18-C , 19-C ) :   1.2143 B( 18-C , 21-H ) :   0.9984 B( 19-C , 20-C ) :   1.5663
B( 19-C , 22-C ) :   1.0686 B( 22-C , 23-H ) :   0.9229 B( 22-C , 24-H ) :   0.9312
B( 22-C , 25-C ) :   1.0689 B( 25-C , 26-H ) :   0.9615 B( 25-C , 27-H ) :   0.9589
B( 25-C , 28-C ) :   1.0802 B( 28-C , 29-H ) :   0.9703 B( 28-C , 30-H ) :   0.9798
B( 28-C , 31-H ) :   0.9729

Dispersion correction           -0.014436861
FINAL SINGLE POINT ENERGY     -1339.856721248467

DIPOLE MOMENT
-------------
                                X             Y             Z
Electronic contribution:     24.72022     -21.54796      -1.62865
Nuclear contribution   :    -25.29579      22.00393       1.83918
                        -----------------------------------------
Total Dipole Moment    :     -0.57557       0.45596       0.21053
                        -----------------------------------------
Magnitude (a.u.)       :      0.76388
Magnitude (Debye)      :      1.94162

Rotational constants in cm-1:     0.017207     0.009679     0.006736
Rotational constants in MHz :   515.858735   290.178833   201.943507

                             ****ORCA TERMINATED NORMALLY****
TOTAL RUN TIME: 0 days 0 hours 0 minutes 22 seconds 325 msec
