                         Program Version 4.2.1 -  RELEASE  -
|  1> ! wB97X-D3 SP def2-SVP
|  2> %pal
|  3> nprocs 24
|  4> end
|  5>
|  6> * xyz 0 1
|  7> S 	 -64.913 	 19.6904 	 -117.403
|  8> C 	 -63.5798 	 20.3798 	 -118.363
|  9> C 	 -62.685 	 21.0683 	 -117.591
| 10> C 	 -63.1503 	 21.0529 	 -116.225
| 11> C 	 -64.3432 	 20.3765 	 -115.928
| 12> H 	 -62.6099 	 21.3481 	 -115.37
| 13> C 	 -61.2572 	 21.3875 	 -117.957
| 14> H 	 -60.9197 	 20.7655 	 -118.71
| 15> H 	 -60.6967 	 21.0489 	 -117.069
| 16> C 	 -60.9727 	 22.8447 	 -118.277
| 17> H 	 -61.7726 	 23.2307 	 -118.892
| 18> H 	 -60.994 	 23.3307 	 -117.306
| 19> C 	 -59.6578 	 23.1172 	 -119.048
| 20> H 	 -58.781 	 22.6891 	 -118.505
| 21> H 	 -59.7751 	 22.5922 	 -120.016
| 22> H 	 -59.4581 	 24.1605 	 -119.284
| 23> S 	 -65.7376 	 18.6356 	 -114.339
| 24> C 	 -66.0673 	 18.9484 	 -112.682
| 25> C 	 -65.5896 	 20.1317 	 -112.287
| 26> C 	 -64.9108 	 20.7823 	 -113.361
| 27> C 	 -64.9284 	 20.1338 	 -114.6
| 28> H 	 -65.8044 	 20.4002 	 -111.266
| 29> C 	 -64.2884 	 22.1299 	 -113.182
| 30> H 	 -63.2745 	 22.1831 	 -113.579
| 31> H 	 -64.1733 	 22.2576 	 -112.066
| 32> C 	 -65.198 	 23.324 	 -113.591
| 33> H 	 -66.2577 	 22.9983 	 -113.412
| 34> H 	 -65.1093 	 23.5565 	 -114.596
| 35> C 	 -64.8666 	 24.6333 	 -112.841
| 36> H 	 -63.9625 	 25.1188 	 -113.243
| 37> H 	 -64.9343 	 24.5695 	 -111.732
| 38> H 	 -65.7166 	 25.2464 	 -112.958
| 39> H 	 -63.4241 	 20.2704 	 -119.404
| 40> H 	 -66.5467 	 18.2218 	 -112.007
| 41> *
| 42>
| 43>                          ****END OF INPUT****

CARTESIAN COORDINATES (ANGSTROEM)
---------------------------------
  S    -64.913000   19.690400  -117.403000
  C    -63.579800   20.379800  -118.363000
  C    -62.685000   21.068300  -117.591000
  C    -63.150300   21.052900  -116.225000
  C    -64.343200   20.376500  -115.928000
  H    -62.609900   21.348100  -115.370000
  C    -61.257200   21.387500  -117.957000
  H    -60.919700   20.765500  -118.710000
  H    -60.696700   21.048900  -117.069000
  C    -60.972700   22.844700  -118.277000
  H    -61.772600   23.230700  -118.892000
  H    -60.994000   23.330700  -117.306000
  C    -59.657800   23.117200  -119.048000
  H    -58.781000   22.689100  -118.505000
  H    -59.775100   22.592200  -120.016000
  H    -59.458100   24.160500  -119.284000
  S    -65.737600   18.635600  -114.339000
  C    -66.067300   18.948400  -112.682000
  C    -65.589600   20.131700  -112.287000
  C    -64.910800   20.782300  -113.361000
  C    -64.928400   20.133800  -114.600000
  H    -65.804400   20.400200  -111.266000
  C    -64.288400   22.129900  -113.182000
  H    -63.274500   22.183100  -113.579000
  H    -64.173300   22.257600  -112.066000
  C    -65.198000   23.324000  -113.591000
  H    -66.257700   22.998300  -113.412000
  H    -65.109300   23.556500  -114.596000
  C    -64.866600   24.633300  -112.841000
  H    -63.962500   25.118800  -113.243000
  H    -64.934300   24.569500  -111.732000
  H    -65.716600   25.246400  -112.958000
  H    -63.424100   20.270400  -119.404000
  H    -66.546700   18.221800  -112.007000

 Total Charge           Charge          ....    0
 Multiplicity           Mult            ....    1
 Number of Electrons    NEL             ....  134
 Basis Dimension        Dim             ....  322

ORBITAL ENERGIES
----------------

  NO   OCC          E(Eh)            E(eV)
   0   2.0000     -88.968257     -2420.9493
   1   2.0000     -88.961221     -2420.7579
   2   2.0000     -10.335293      -281.2376
   3   2.0000     -10.329663      -281.0844
   4   2.0000     -10.314350      -280.6677
   5   2.0000     -10.313356      -280.6407
   6   2.0000     -10.303837      -280.3816
   7   2.0000     -10.302536      -280.3463
   8   2.0000     -10.291281      -280.0400
   9   2.0000     -10.290938      -280.0307
  10   2.0000     -10.288983      -279.9775
  11   2.0000     -10.288071      -279.9526
  12   2.0000     -10.285420      -279.8805
  13   2.0000     -10.285258      -279.8761
  14   2.0000     -10.281574      -279.7758
  15   2.0000     -10.275949      -279.6228
  16   2.0000      -8.082705      -219.9416
  17   2.0000      -8.077481      -219.7994
  18   2.0000      -6.041406      -164.3950
  19   2.0000      -6.037150      -164.2792
  20   2.0000      -6.035898      -164.2451
  21   2.0000      -6.033368      -164.1763
  22   2.0000      -6.031653      -164.1296
  23   2.0000      -6.028364      -164.0401
  24   2.0000      -1.013845       -27.5881
  25   2.0000      -0.990307       -26.9476
  26   2.0000      -0.917609       -24.9694
  27   2.0000      -0.905188       -24.6314
  28   2.0000      -0.876349       -23.8467
  29   2.0000      -0.850470       -23.1425
  30   2.0000      -0.846008       -23.0211
  31   2.0000      -0.819535       -22.3007
  32   2.0000      -0.785506       -21.3747
  33   2.0000      -0.771099       -20.9827
  34   2.0000      -0.710836       -19.3428
  35   2.0000      -0.701775       -19.0963
  36   2.0000      -0.692749       -18.8506
  37   2.0000      -0.665006       -18.0957
  38   2.0000      -0.641827       -17.4650
  39   2.0000      -0.624439       -16.9919
  40   2.0000      -0.595586       -16.2067
  41   2.0000      -0.578428       -15.7398
  42   2.0000      -0.569847       -15.5063
  43   2.0000      -0.560153       -15.2425
  44   2.0000      -0.526477       -14.3262
  45   2.0000      -0.524635       -14.2760
  46   2.0000      -0.522955       -14.2303
  47   2.0000      -0.511546       -13.9199
  48   2.0000      -0.509793       -13.8722
  49   2.0000      -0.505667       -13.7599
  50   2.0000      -0.488835       -13.3019
  51   2.0000      -0.483904       -13.1677
  52   2.0000      -0.470158       -12.7937
  53   2.0000      -0.468084       -12.7372
  54   2.0000      -0.460853       -12.5404
  55   2.0000      -0.446392       -12.1469
  56   2.0000      -0.444555       -12.0970
  57   2.0000      -0.434351       -11.8193
  58   2.0000      -0.428585       -11.6624
  59   2.0000      -0.425932       -11.5902
  60   2.0000      -0.422567       -11.4986
  61   2.0000      -0.417417       -11.3585
  62   2.0000      -0.405125       -11.0240
  63   2.0000      -0.363666        -9.8959
  64   2.0000      -0.331351        -9.0165
  65   2.0000      -0.328637        -8.9427
  66   2.0000      -0.287423        -7.8212
  67   0.0000       0.024606         0.6696
  68   0.0000       0.081905         2.2287
  69   0.0000       0.108658         2.9567
  70   0.0000       0.125000         3.4014
  71   0.0000       0.131191         3.5699

MULLIKEN ATOMIC CHARGES
-----------------------
   0 S :    0.107248
   1 C :   -0.112129
   2 C :   -0.056988
   3 C :    0.004705
   4 C :   -0.116803
   5 H :   -0.016828
   6 C :    0.077166
   7 H :   -0.003051
   8 H :    0.033329
   9 C :   -0.068250
  10 H :    0.031103
  11 H :    0.027799
  12 C :   -0.060227
  13 H :    0.037566
  14 H :    0.031953
  15 H :    0.042991
  16 S :    0.089369
  17 C :   -0.095109
  18 C :   -0.019910
  19 C :   -0.075426
  20 C :   -0.103373
  21 H :    0.017106
  22 C :    0.039196
  23 H :    0.028685
  24 H :    0.013032
  25 C :   -0.047079
  26 H :    0.034143
  27 H :    0.022253
  28 C :   -0.051999
  29 H :    0.048590
  30 H :    0.026354
  31 H :    0.016703
  32 H :    0.033717
  33 H :    0.064167
Sum of atomic charges:    0.0000000

LOEWDIN ATOMIC CHARGES
----------------------
   0 S :    0.403755
   1 C :   -0.177850
   2 C :   -0.059275
   3 C :   -0.065486
   4 C :   -0.199013
   5 H :    0.016321
   6 C :   -0.023753
   7 H :    0.017163
   8 H :    0.039125
   9 C :   -0.041005
  10 H :    0.023772
  11 H :    0.023068
  12 C :   -0.068717
  13 H :    0.027875
  14 H :    0.027335
  15 H :    0.026994
  16 S :    0.422235
  17 C :   -0.189191
  18 C :   -0.077296
  19 C :   -0.060544
  20 C :   -0.203801
  21 H :    0.037511
  22 C :   -0.039965
  23 H :    0.024708
  24 H :    0.032372
  25 C :   -0.031181
  26 H :    0.030619
  27 H :    0.015879
  28 C :   -0.070842
  29 H :    0.030122
  30 H :    0.027183
  31 H :    0.022812
  32 H :    0.022307
  33 H :    0.036764

  Mayer bond orders larger than 0.100000
B(  0-S ,  1-C ) :   1.1353 B(  0-S ,  4-C ) :   1.1459 B(  1-C ,  2-C ) :   1.6160
B(  1-C , 32-H ) :   0.9696 B(  2-C ,  3-C ) :   1.2423 B(  2-C ,  6-C ) :   1.0153
B(  3-C ,  4-C ) :   1.5730 B(  3-C ,  5-H ) :   0.9922 B(  4-C , 20-C ) :   1.0608
B(  6-C ,  7-H ) :   0.9474 B(  6-C ,  8-H ) :   0.9417 B(  6-C ,  9-C ) :   1.0453
B(  9-C , 10-H ) :   0.9625 B(  9-C , 11-H ) :   0.9557 B(  9-C , 12-C ) :   1.0817
B( 12-C , 13-H ) :   0.9748 B( 12-C , 14-H ) :   0.9744 B( 12-C , 15-H ) :   0.9763
B( 16-S , 17-C ) :   1.1739 B( 16-S , 20-C ) :   1.1389 B( 17-C , 18-C ) :   1.6089
B( 17-C , 33-H ) :   0.9599 B( 18-C , 19-C ) :   1.2398 B( 18-C , 21-H ) :   1.0014
B( 19-C , 20-C ) :   1.5677 B( 19-C , 22-C ) :   1.0629 B( 22-C , 23-H ) :   0.9333
B( 22-C , 24-H ) :   0.9362 B( 22-C , 25-C ) :   1.0492 B( 25-C , 26-H ) :   0.9580
B( 25-C , 27-H ) :   0.9528 B( 25-C , 28-C ) :   1.0896 B( 28-C , 29-H ) :   0.9759
B( 28-C , 30-H ) :   0.9704 B( 28-C , 31-H ) :   0.9704

Dispersion correction           -0.013468532
FINAL SINGLE POINT ENERGY     -1339.868226771084

DIPOLE MOMENT
-------------
                                X             Y             Z
Electronic contribution:    -17.21822     -25.18788      -0.16722
Nuclear contribution   :     17.63592      25.54975       0.39767
                        -----------------------------------------
Total Dipole Moment    :      0.41770       0.36187       0.23046
                        -----------------------------------------
Magnitude (a.u.)       :      0.59877
Magnitude (Debye)      :      1.52196

Rotational constants in cm-1:     0.018229     0.008218     0.006163
Rotational constants in MHz :   546.501911   246.358116   184.763038

                             ****ORCA TERMINATED NORMALLY****
TOTAL RUN TIME: 0 days 0 hours 0 minutes 21 seconds 144 msec
