                         Program Version 4.2.1 -  RELEASE  -
|  1> ! wB97X-D3 SP def2-SVP
|  2> %pal
|  3> nprocs 24
|  4> end
|  5>
|  6> * xyz 0 1
|  7> S 	 -110.87 	 55.0367 	 -91.2453
|  8> C 	 -112.516 	 55.4441 	 -91.7962
|  9> C 	 -113.492 	 55.287 	 -90.7878
| 10> C 	 -112.84 	 54.7894 	 -89.5816
| 11> C 	 -111.49 	 54.5809 	 -89.633
| 12> H 	 -113.4 	 54.4039 	 -88.7266
| 13> C 	 -114.992 	 55.1929 	 -90.9791
| 14> H 	 -115.323 	 56.1738 	 -91.3609
| 15> H 	 -115.487 	 55.287 	 -89.9361
| 16> C 	 -115.596 	 54.0916 	 -91.9402
| 17> H 	 -115.193 	 54.1755 	 -92.9509
| 18> H 	 -115.229 	 53.1199 	 -91.4885
| 19> C 	 -117.119 	 54.2081 	 -91.8695
| 20> H 	 -117.467 	 55.1483 	 -92.175
| 21> H 	 -117.495 	 53.3831 	 -92.4368
| 22> H 	 -117.305 	 54.0527 	 -90.8209
| 23> S 	 -109.498 	 55.5925 	 -88.0355
| 24> C 	 -109.139 	 54.8173 	 -86.4844
| 25> C 	 -109.828 	 53.6432 	 -86.3182
| 26> C 	 -110.774 	 53.392 	 -87.3661
| 27> C 	 -110.598 	 54.2514 	 -88.47
| 28> H 	 -109.673 	 53.1017 	 -85.4583
| 29> C 	 -111.826 	 52.3361 	 -87.3358
| 30> H 	 -112.788 	 52.7747 	 -87.6515
| 31> H 	 -111.887 	 52.167 	 -86.298
| 32> C 	 -111.606 	 51.014 	 -87.8989
| 33> H 	 -112.367 	 50.2699 	 -87.551
| 34> H 	 -110.625 	 50.5416 	 -87.5564
| 35> C 	 -111.464 	 50.8686 	 -89.4346
| 36> H 	 -111.479 	 49.8021 	 -89.6081
| 37> H 	 -110.562 	 51.2898 	 -89.8278
| 38> H 	 -112.34 	 51.3171 	 -89.9169
| 39> H 	 -112.765 	 55.6781 	 -92.7825
| 40> H 	 -108.481 	 55.2013 	 -85.7258
| 41> *
| 42>
| 43>                          ****END OF INPUT****

CARTESIAN COORDINATES (ANGSTROEM)
---------------------------------
  S    -110.870000   55.036700  -91.245300
  C    -112.516000   55.444100  -91.796200
  C    -113.492000   55.287000  -90.787800
  C    -112.840000   54.789400  -89.581600
  C    -111.490000   54.580900  -89.633000
  H    -113.400000   54.403900  -88.726600
  C    -114.992000   55.192900  -90.979100
  H    -115.323000   56.173800  -91.360900
  H    -115.487000   55.287000  -89.936100
  C    -115.596000   54.091600  -91.940200
  H    -115.193000   54.175500  -92.950900
  H    -115.229000   53.119900  -91.488500
  C    -117.119000   54.208100  -91.869500
  H    -117.467000   55.148300  -92.175000
  H    -117.495000   53.383100  -92.436800
  H    -117.305000   54.052700  -90.820900
  S    -109.498000   55.592500  -88.035500
  C    -109.139000   54.817300  -86.484400
  C    -109.828000   53.643200  -86.318200
  C    -110.774000   53.392000  -87.366100
  C    -110.598000   54.251400  -88.470000
  H    -109.673000   53.101700  -85.458300
  C    -111.826000   52.336100  -87.335800
  H    -112.788000   52.774700  -87.651500
  H    -111.887000   52.167000  -86.298000
  C    -111.606000   51.014000  -87.898900
  H    -112.367000   50.269900  -87.551000
  H    -110.625000   50.541600  -87.556400
  C    -111.464000   50.868600  -89.434600
  H    -111.479000   49.802100  -89.608100
  H    -110.562000   51.289800  -89.827800
  H    -112.340000   51.317100  -89.916900
  H    -112.765000   55.678100  -92.782500
  H    -108.481000   55.201300  -85.725800

 Total Charge           Charge          ....    0
 Multiplicity           Mult            ....    1
 Number of Electrons    NEL             ....  134
 Basis Dimension        Dim             ....  322

ORBITAL ENERGIES
----------------

  NO   OCC          E(Eh)            E(eV)
   0   2.0000     -88.968538     -2420.9570
   1   2.0000     -88.964616     -2420.8503
   2   2.0000     -10.333822      -281.1976
   3   2.0000     -10.332306      -281.1563
   4   2.0000     -10.318425      -280.7786
   5   2.0000     -10.317481      -280.7529
   6   2.0000     -10.308054      -280.4964
   7   2.0000     -10.307132      -280.4713
   8   2.0000     -10.303029      -280.3597
   9   2.0000     -10.298101      -280.2256
  10   2.0000     -10.294402      -280.1249
  11   2.0000     -10.290929      -280.0304
  12   2.0000     -10.287810      -279.9455
  13   2.0000     -10.284356      -279.8516
  14   2.0000     -10.274825      -279.5922
  15   2.0000     -10.267523      -279.3935
  16   2.0000      -8.081877      -219.9190
  17   2.0000      -8.078479      -219.8266
  18   2.0000      -6.040535      -164.3713
  19   2.0000      -6.037061      -164.2768
  20   2.0000      -6.036586      -164.2639
  21   2.0000      -6.033121      -164.1696
  22   2.0000      -6.032562      -164.1544
  23   2.0000      -6.029180      -164.0623
  24   2.0000      -0.997355       -27.1394
  25   2.0000      -0.975475       -26.5440
  26   2.0000      -0.916656       -24.9435
  27   2.0000      -0.907960       -24.7068
  28   2.0000      -0.867256       -23.5992
  29   2.0000      -0.848650       -23.0930
  30   2.0000      -0.845691       -23.0124
  31   2.0000      -0.815519       -22.1914
  32   2.0000      -0.785121       -21.3642
  33   2.0000      -0.770457       -20.9652
  34   2.0000      -0.705215       -19.1899
  35   2.0000      -0.700969       -19.0743
  36   2.0000      -0.686620       -18.6839
  37   2.0000      -0.662827       -18.0364
  38   2.0000      -0.641285       -17.4502
  39   2.0000      -0.617404       -16.8004
  40   2.0000      -0.594330       -16.1725
  41   2.0000      -0.571257       -15.5447
  42   2.0000      -0.565804       -15.3963
  43   2.0000      -0.554397       -15.0859
  44   2.0000      -0.546512       -14.8713
  45   2.0000      -0.530505       -14.4358
  46   2.0000      -0.520571       -14.1655
  47   2.0000      -0.507573       -13.8118
  48   2.0000      -0.500957       -13.6317
  49   2.0000      -0.494311       -13.4509
  50   2.0000      -0.491827       -13.3833
  51   2.0000      -0.478103       -13.0099
  52   2.0000      -0.471878       -12.8405
  53   2.0000      -0.462523       -12.5859
  54   2.0000      -0.454705       -12.3732
  55   2.0000      -0.449464       -12.2305
  56   2.0000      -0.443767       -12.0755
  57   2.0000      -0.440782       -11.9943
  58   2.0000      -0.434340       -11.8190
  59   2.0000      -0.424629       -11.5547
  60   2.0000      -0.418508       -11.3882
  61   2.0000      -0.408893       -11.1265
  62   2.0000      -0.403126       -10.9696
  63   2.0000      -0.347643        -9.4598
  64   2.0000      -0.329568        -8.9680
  65   2.0000      -0.325409        -8.8548
  66   2.0000      -0.293256        -7.9799
  67   0.0000       0.031028         0.8443
  68   0.0000       0.058276         1.5858
  69   0.0000       0.106421         2.8959
  70   0.0000       0.111142         3.0243
  71   0.0000       0.127021         3.4564

MULLIKEN ATOMIC CHARGES
-----------------------
   0 S :    0.101216
   1 C :   -0.102380
   2 C :   -0.059055
   3 C :    0.019477
   4 C :   -0.153041
   5 H :    0.014544
   6 C :   -0.022265
   7 H :    0.022278
   8 H :    0.033922
   9 C :   -0.076444
  10 H :    0.035088
  11 H :    0.041121
  12 C :    0.010796
  13 H :    0.025708
  14 H :    0.035094
  15 H :    0.022571
  16 S :    0.093546
  17 C :   -0.085105
  18 C :    0.008527
  19 C :   -0.093761
  20 C :   -0.112271
  21 H :   -0.011909
  22 C :    0.145993
  23 H :    0.019358
  24 H :   -0.000801
  25 C :   -0.112590
  26 H :    0.033871
  27 H :    0.023593
  28 C :   -0.029762
  29 H :    0.025217
  30 H :    0.039528
  31 H :    0.026449
  32 H :    0.028257
  33 H :    0.053230
Sum of atomic charges:   -0.0000000

LOEWDIN ATOMIC CHARGES
----------------------
   0 S :    0.377971
   1 C :   -0.171612
   2 C :   -0.063799
   3 C :   -0.065343
   4 C :   -0.189552
   5 H :    0.027731
   6 C :   -0.051789
   7 H :    0.029327
   8 H :    0.038723
   9 C :   -0.032787
  10 H :    0.021876
  11 H :    0.030136
  12 C :   -0.050599
  13 H :    0.018206
  14 H :    0.026855
  15 H :    0.026968
  16 S :    0.386653
  17 C :   -0.168442
  18 C :   -0.062966
  19 C :   -0.046383
  20 C :   -0.187202
  21 H :    0.019934
  22 C :   -0.040031
  23 H :    0.032939
  24 H :    0.032035
  25 C :   -0.047608
  26 H :    0.029119
  27 H :    0.029601
  28 C :   -0.061680
  29 H :    0.025037
  30 H :    0.022296
  31 H :    0.021860
  32 H :    0.013862
  33 H :    0.028666

  Mayer bond orders larger than 0.100000
B(  0-S ,  1-C ) :   1.1383 B(  0-S ,  4-C ) :   1.1255 B(  1-C ,  2-C ) :   1.6097
B(  1-C , 32-H ) :   0.9766 B(  2-C ,  3-C ) :   1.2339 B(  2-C ,  6-C ) :   1.0344
B(  3-C ,  4-C ) :   1.6156 B(  3-C ,  5-H ) :   0.9772 B(  4-C , 20-C ) :   1.0021
B(  6-C ,  7-H ) :   0.9320 B(  6-C ,  8-H ) :   0.9456 B(  6-C ,  9-C ) :   1.0412
B(  9-C , 10-H ) :   0.9543 B(  9-C , 11-H ) :   0.9598 B(  9-C , 12-C ) :   1.0682
B( 12-C , 13-H ) :   0.9780 B( 12-C , 14-H ) :   0.9727 B( 12-C , 15-H ) :   0.9756
B( 16-S , 17-C ) :   1.1549 B( 16-S , 20-C ) :   1.1317 B( 17-C , 18-C ) :   1.6239
B( 17-C , 33-H ) :   0.9653 B( 18-C , 19-C ) :   1.2340 B( 18-C , 21-H ) :   1.0003
B( 19-C , 20-C ) :   1.5961 B( 19-C , 22-C ) :   1.0375 B( 22-C , 23-H ) :   0.9256
B( 22-C , 24-H ) :   0.9024 B( 22-C , 25-C ) :   1.0961 B( 25-C , 26-H ) :   0.9511
B( 25-C , 27-H ) :   0.9479 B( 25-C , 28-C ) :   1.0819 B( 28-C , 29-H ) :   0.9730
B( 28-C , 30-H ) :   0.9753 B( 28-C , 31-H ) :   0.9754

Dispersion correction           -0.014735389
FINAL SINGLE POINT ENERGY     -1339.857261431088

DIPOLE MOMENT
-------------
                                X             Y             Z
Electronic contribution:     23.76282      15.97328       3.27903
Nuclear contribution   :    -24.44238     -16.34323      -3.00008
                        -----------------------------------------
Total Dipole Moment    :     -0.67955      -0.36995       0.27895
                        -----------------------------------------
Magnitude (a.u.)       :      0.82248
Magnitude (Debye)      :      2.09057

Rotational constants in cm-1:     0.020199     0.008306     0.006921
Rotational constants in MHz :   605.564268   249.018020   207.498477

                             ****ORCA TERMINATED NORMALLY****
TOTAL RUN TIME: 0 days 0 hours 0 minutes 22 seconds 95 msec
