                         Program Version 4.2.1 -  RELEASE  -
|  1> ! wB97X-D3 SP def2-SVP
|  2> %pal
|  3> nprocs 24
|  4> end
|  5>
|  6> * xyz 0 1
|  7> S 	 -69.9468 	 13.7613 	 -77.3228
|  8> C 	 -68.2195 	 13.9159 	 -77.6545
|  9> C 	 -67.6845 	 14.972 	 -76.9071
| 10> C 	 -68.7082 	 15.6475 	 -76.0761
| 11> C 	 -69.9324 	 15.1005 	 -76.2051
| 12> H 	 -68.6352 	 16.5215 	 -75.3911
| 13> C 	 -66.2428 	 15.3208 	 -76.8532
| 14> H 	 -65.6801 	 14.4831 	 -76.5095
| 15> H 	 -65.9853 	 16.102 	 -76.2001
| 16> C 	 -65.7129 	 15.6263 	 -78.3172
| 17> H 	 -64.6484 	 15.6931 	 -78.1386
| 18> H 	 -65.8009 	 14.7713 	 -78.8859
| 19> C 	 -66.2984 	 16.8696 	 -79.022
| 20> H 	 -67.3708 	 16.815 	 -79.3514
| 21> H 	 -66.176 	 17.7706 	 -78.4133
| 22> H 	 -65.6772 	 17.1035 	 -79.9193
| 23> S 	 -72.1813 	 16.818 	 -76.3486
| 24> C 	 -73.0432 	 17.1979 	 -74.8742
| 25> C 	 -72.6851 	 16.3065 	 -73.8878
| 26> C 	 -71.5058 	 15.5039 	 -74.1597
| 27> C 	 -71.1423 	 15.5626 	 -75.4962
| 28> H 	 -73.2096 	 16.3092 	 -72.9795
| 29> C 	 -71.006 	 14.5488 	 -73.0927
| 30> H 	 -71.8408 	 14.3385 	 -72.3754
| 31> H 	 -70.1789 	 15.1373 	 -72.6065
| 32> C 	 -70.3722 	 13.2317 	 -73.4511
| 33> H 	 -69.2934 	 13.343 	 -73.2973
| 34> H 	 -70.6317 	 12.9251 	 -74.4758
| 35> C 	 -70.8456 	 11.9946 	 -72.6596
| 36> H 	 -71.6442 	 11.4697 	 -73.1425
| 37> H 	 -71.0417 	 12.1916 	 -71.5535
| 38> H 	 -70.0357 	 11.263 	 -72.5666
| 39> H 	 -67.5822 	 13.2806 	 -78.2236
| 40> H 	 -73.8387 	 17.9284 	 -74.7846
| 41> *
| 42>
| 43>                          ****END OF INPUT****

CARTESIAN COORDINATES (ANGSTROEM)
---------------------------------
  S    -69.946800   13.761300  -77.322800
  C    -68.219500   13.915900  -77.654500
  C    -67.684500   14.972000  -76.907100
  C    -68.708200   15.647500  -76.076100
  C    -69.932400   15.100500  -76.205100
  H    -68.635200   16.521500  -75.391100
  C    -66.242800   15.320800  -76.853200
  H    -65.680100   14.483100  -76.509500
  H    -65.985300   16.102000  -76.200100
  C    -65.712900   15.626300  -78.317200
  H    -64.648400   15.693100  -78.138600
  H    -65.800900   14.771300  -78.885900
  C    -66.298400   16.869600  -79.022000
  H    -67.370800   16.815000  -79.351400
  H    -66.176000   17.770600  -78.413300
  H    -65.677200   17.103500  -79.919300
  S    -72.181300   16.818000  -76.348600
  C    -73.043200   17.197900  -74.874200
  C    -72.685100   16.306500  -73.887800
  C    -71.505800   15.503900  -74.159700
  C    -71.142300   15.562600  -75.496200
  H    -73.209600   16.309200  -72.979500
  C    -71.006000   14.548800  -73.092700
  H    -71.840800   14.338500  -72.375400
  H    -70.178900   15.137300  -72.606500
  C    -70.372200   13.231700  -73.451100
  H    -69.293400   13.343000  -73.297300
  H    -70.631700   12.925100  -74.475800
  C    -70.845600   11.994600  -72.659600
  H    -71.644200   11.469700  -73.142500
  H    -71.041700   12.191600  -71.553500
  H    -70.035700   11.263000  -72.566600
  H    -67.582200   13.280600  -78.223600
  H    -73.838700   17.928400  -74.784600

 Total Charge           Charge          ....    0
 Multiplicity           Mult            ....    1
 Number of Electrons    NEL             ....  134
 Basis Dimension        Dim             ....  322

ORBITAL ENERGIES
----------------

  NO   OCC          E(Eh)            E(eV)
   0   2.0000     -88.964892     -2420.8578
   1   2.0000     -88.960106     -2420.7276
   2   2.0000     -10.331090      -281.1232
   3   2.0000     -10.325364      -280.9674
   4   2.0000     -10.319732      -280.8142
   5   2.0000     -10.314645      -280.6758
   6   2.0000     -10.309417      -280.5335
   7   2.0000     -10.305528      -280.4277
   8   2.0000     -10.296181      -280.1733
   9   2.0000     -10.295927      -280.1664
  10   2.0000     -10.290059      -280.0067
  11   2.0000     -10.285400      -279.8800
  12   2.0000     -10.283792      -279.8362
  13   2.0000     -10.282367      -279.7974
  14   2.0000     -10.280938      -279.7585
  15   2.0000     -10.278219      -279.6846
  16   2.0000      -8.079032      -219.8416
  17   2.0000      -8.073910      -219.7023
  18   2.0000      -6.037700      -164.2942
  19   2.0000      -6.033533      -164.1808
  20   2.0000      -6.032596      -164.1553
  21   2.0000      -6.029736      -164.0775
  22   2.0000      -6.028532      -164.0447
  23   2.0000      -6.024542      -163.9361
  24   2.0000      -0.998782       -27.1782
  25   2.0000      -0.976515       -26.5723
  26   2.0000      -0.910436       -24.7742
  27   2.0000      -0.906857       -24.6768
  28   2.0000      -0.863877       -23.5073
  29   2.0000      -0.846155       -23.0250
  30   2.0000      -0.840552       -22.8726
  31   2.0000      -0.812021       -22.0962
  32   2.0000      -0.782454       -21.2917
  33   2.0000      -0.773024       -21.0350
  34   2.0000      -0.710415       -19.3314
  35   2.0000      -0.705270       -19.1914
  36   2.0000      -0.680688       -18.5225
  37   2.0000      -0.657945       -17.9036
  38   2.0000      -0.642746       -17.4900
  39   2.0000      -0.604401       -16.4466
  40   2.0000      -0.592976       -16.1357
  41   2.0000      -0.576662       -15.6918
  42   2.0000      -0.568004       -15.4562
  43   2.0000      -0.546345       -14.8668
  44   2.0000      -0.535547       -14.5730
  45   2.0000      -0.532463       -14.4890
  46   2.0000      -0.518138       -14.0992
  47   2.0000      -0.512050       -13.9336
  48   2.0000      -0.499503       -13.5922
  49   2.0000      -0.494188       -13.4475
  50   2.0000      -0.480262       -13.0686
  51   2.0000      -0.479987       -13.0611
  52   2.0000      -0.471707       -12.8358
  53   2.0000      -0.462589       -12.5877
  54   2.0000      -0.460930       -12.5425
  55   2.0000      -0.443627       -12.0717
  56   2.0000      -0.439336       -11.9549
  57   2.0000      -0.437362       -11.9012
  58   2.0000      -0.426971       -11.6185
  59   2.0000      -0.426100       -11.5948
  60   2.0000      -0.415868       -11.3163
  61   2.0000      -0.412811       -11.2332
  62   2.0000      -0.405170       -11.0252
  63   2.0000      -0.335614        -9.1325
  64   2.0000      -0.323993        -8.8163
  65   2.0000      -0.319494        -8.6939
  66   2.0000      -0.308333        -8.3902
  67   0.0000       0.046188         1.2569
  68   0.0000       0.050625         1.3776
  69   0.0000       0.112426         3.0593
  70   0.0000       0.120015         3.2658
  71   0.0000       0.127049         3.4572

MULLIKEN ATOMIC CHARGES
-----------------------
   0 S :    0.110265
   1 C :   -0.105442
   2 C :   -0.103424
   3 C :    0.041797
   4 C :   -0.164595
   5 H :    0.028826
   6 C :    0.091648
   7 H :    0.026508
   8 H :    0.007450
   9 C :   -0.062044
  10 H :    0.017984
  11 H :    0.007649
  12 C :   -0.063356
  13 H :    0.059762
  14 H :    0.027150
  15 H :    0.035967
  16 S :    0.083269
  17 C :   -0.084267
  18 C :   -0.023333
  19 C :   -0.018952
  20 C :   -0.173979
  21 H :    0.002029
  22 C :    0.044417
  23 H :    0.037404
  24 H :    0.046346
  25 C :   -0.056610
  26 H :    0.033625
  27 H :    0.035876
  28 C :   -0.079015
  29 H :    0.039822
  30 H :    0.032073
  31 H :    0.025609
  32 H :    0.038128
  33 H :    0.061412
Sum of atomic charges:    0.0000000

LOEWDIN ATOMIC CHARGES
----------------------
   0 S :    0.402409
   1 C :   -0.194512
   2 C :   -0.052805
   3 C :   -0.063832
   4 C :   -0.201221
   5 H :    0.042104
   6 C :   -0.027632
   7 H :    0.032229
   8 H :    0.021722
   9 C :   -0.029217
  10 H :    0.022966
  11 H :    0.008892
  12 C :   -0.073171
  13 H :    0.035812
  14 H :    0.024386
  15 H :    0.031637
  16 S :    0.364186
  17 C :   -0.173862
  18 C :   -0.072361
  19 C :   -0.045905
  20 C :   -0.183445
  21 H :    0.020915
  22 C :   -0.040449
  23 H :    0.036961
  24 H :    0.047261
  25 C :   -0.049219
  26 H :    0.028212
  27 H :    0.025886
  28 C :   -0.071408
  29 H :    0.022560
  30 H :    0.026979
  31 H :    0.027569
  32 H :    0.023906
  33 H :    0.032447

  Mayer bond orders larger than 0.100000
B(  0-S ,  1-C ) :   1.1224 B(  0-S ,  4-C ) :   1.1376 B(  1-C ,  2-C ) :   1.6298
B(  1-C , 32-H ) :   0.9731 B(  2-C ,  3-C ) :   1.1826 B(  2-C ,  6-C ) :   1.0379
B(  3-C ,  4-C ) :   1.6450 B(  3-C ,  5-H ) :   0.9892 B(  4-C , 20-C ) :   0.9875
B(  6-C ,  7-H ) :   0.9326 B(  6-C ,  8-H ) :   0.9445 B(  6-C ,  9-C ) :   1.0759
B(  9-C , 10-H ) :   0.9553 B(  9-C , 11-H ) :   0.9584 B(  9-C , 12-C ) :   1.0680
B( 12-C , 13-H ) :   0.9740 B( 12-C , 14-H ) :   0.9762 B( 12-C , 15-H ) :   0.9735
B( 16-S , 17-C ) :   1.1553 B( 16-S , 20-C ) :   1.1065 B( 17-C , 18-C ) :   1.6300
B( 17-C , 33-H ) :   0.9655 B( 18-C , 19-C ) :   1.2135 B( 18-C , 21-H ) :   0.9924
B( 19-C , 20-C ) :   1.6367 B( 19-C , 22-C ) :   1.0293 B( 22-C , 23-H ) :   0.9520
B( 22-C , 24-H ) :   0.9207 B( 22-C , 25-C ) :   1.0601 B( 25-C , 26-H ) :   0.9571
B( 25-C , 27-H ) :   0.9583 B( 25-C , 28-C ) :   1.0837 B( 28-C , 29-H ) :   0.9808
B( 28-C , 30-H ) :   0.9723 B( 28-C , 31-H ) :   0.9729

Dispersion correction           -0.014691426
FINAL SINGLE POINT ENERGY     -1339.863475503741

DIPOLE MOMENT
-------------
                                X             Y             Z
Electronic contribution:    -16.84126       4.95159      -6.83622
Nuclear contribution   :     17.36180      -4.93940       7.33168
                        -----------------------------------------
Total Dipole Moment    :      0.52053       0.01219       0.49546
                        -----------------------------------------
Magnitude (a.u.)       :      0.71873
Magnitude (Debye)      :      1.82688

Rotational constants in cm-1:     0.019110     0.008646     0.006966
Rotational constants in MHz :   572.915310   259.188010   208.835892

                             ****ORCA TERMINATED NORMALLY****
TOTAL RUN TIME: 0 days 0 hours 0 minutes 21 seconds 543 msec
