                         Program Version 4.2.1 -  RELEASE  -
|  1> ! wB97X-D3 SP def2-SVP
|  2> %pal
|  3> nprocs 24
|  4> end
|  5>
|  6> * xyz 0 1
|  7> S 	 -36.3958 	 -42.927 	 -81.0925
|  8> C 	 -37.9858 	 -42.2741 	 -81.0516
|  9> C 	 -38.1502 	 -41.3902 	 -80.0325
| 10> C 	 -36.9639 	 -41.3205 	 -79.196
| 11> C 	 -35.9208 	 -42.1439 	 -79.6194
| 12> H 	 -36.7816 	 -40.7657 	 -78.2704
| 13> C 	 -39.3898 	 -40.487 	 -79.8624
| 14> H 	 -40.1388 	 -41.2241 	 -79.482
| 15> H 	 -39.7462 	 -40.2445 	 -80.8249
| 16> C 	 -39.2177 	 -39.2572 	 -78.9405
| 17> H 	 -39.0254 	 -39.5987 	 -77.9377
| 18> H 	 -38.3332 	 -38.6144 	 -79.1036
| 19> C 	 -40.4543 	 -38.3656 	 -78.9078
| 20> H 	 -41.3327 	 -39.0171 	 -78.6569
| 21> H 	 -40.3559 	 -37.5152 	 -78.1942
| 22> H 	 -40.5918 	 -37.9964 	 -79.8668
| 23> S 	 -33.8353 	 -43.8245 	 -79.1811
| 24> C 	 -32.414 	 -43.3459 	 -78.3412
| 25> C 	 -32.4381 	 -42.0074 	 -78.12
| 26> C 	 -33.7067 	 -41.3641 	 -78.4754
| 27> C 	 -34.5588 	 -42.2689 	 -79.0926
| 28> H 	 -31.5841 	 -41.4507 	 -77.7185
| 29> C 	 -33.9578 	 -39.8421 	 -78.4811
| 30> H 	 -33.1917 	 -39.3462 	 -77.9203
| 31> H 	 -34.8237 	 -39.6634 	 -77.8122
| 32> C 	 -34.2388 	 -39.3072 	 -79.9304
| 33> H 	 -34.4703 	 -38.2468 	 -79.8968
| 34> H 	 -35.157 	 -39.7369 	 -80.2582
| 35> C 	 -33.1044 	 -39.6165 	 -80.9441
| 36> H 	 -33.3785 	 -39.3676 	 -82.0341
| 37> H 	 -32.7595 	 -40.6123 	 -81.0394
| 38> H 	 -32.2093 	 -38.9677 	 -80.6641
| 39> H 	 -38.7489 	 -42.4158 	 -81.8618
| 40> H 	 -31.5848 	 -43.9823 	 -78.1014
| 41> *
| 42>
| 43>                          ****END OF INPUT****

CARTESIAN COORDINATES (ANGSTROEM)
---------------------------------
  S    -36.395800  -42.927000  -81.092500
  C    -37.985800  -42.274100  -81.051600
  C    -38.150200  -41.390200  -80.032500
  C    -36.963900  -41.320500  -79.196000
  C    -35.920800  -42.143900  -79.619400
  H    -36.781600  -40.765700  -78.270400
  C    -39.389800  -40.487000  -79.862400
  H    -40.138800  -41.224100  -79.482000
  H    -39.746200  -40.244500  -80.824900
  C    -39.217700  -39.257200  -78.940500
  H    -39.025400  -39.598700  -77.937700
  H    -38.333200  -38.614400  -79.103600
  C    -40.454300  -38.365600  -78.907800
  H    -41.332700  -39.017100  -78.656900
  H    -40.355900  -37.515200  -78.194200
  H    -40.591800  -37.996400  -79.866800
  S    -33.835300  -43.824500  -79.181100
  C    -32.414000  -43.345900  -78.341200
  C    -32.438100  -42.007400  -78.120000
  C    -33.706700  -41.364100  -78.475400
  C    -34.558800  -42.268900  -79.092600
  H    -31.584100  -41.450700  -77.718500
  C    -33.957800  -39.842100  -78.481100
  H    -33.191700  -39.346200  -77.920300
  H    -34.823700  -39.663400  -77.812200
  C    -34.238800  -39.307200  -79.930400
  H    -34.470300  -38.246800  -79.896800
  H    -35.157000  -39.736900  -80.258200
  C    -33.104400  -39.616500  -80.944100
  H    -33.378500  -39.367600  -82.034100
  H    -32.759500  -40.612300  -81.039400
  H    -32.209300  -38.967700  -80.664100
  H    -38.748900  -42.415800  -81.861800
  H    -31.584800  -43.982300  -78.101400

 Total Charge           Charge          ....    0
 Multiplicity           Mult            ....    1
 Number of Electrons    NEL             ....  134
 Basis Dimension        Dim             ....  322

ORBITAL ENERGIES
----------------

  NO   OCC          E(Eh)            E(eV)
   0   2.0000     -88.964906     -2420.8582
   1   2.0000     -88.962824     -2420.8015
   2   2.0000     -10.330142      -281.0975
   3   2.0000     -10.325167      -280.9621
   4   2.0000     -10.313188      -280.6361
   5   2.0000     -10.312038      -280.6048
   6   2.0000     -10.305622      -280.4302
   7   2.0000     -10.304274      -280.3936
   8   2.0000     -10.298225      -280.2290
   9   2.0000     -10.296889      -280.1926
  10   2.0000     -10.296146      -280.1724
  11   2.0000     -10.295834      -280.1639
  12   2.0000     -10.289835      -280.0006
  13   2.0000     -10.284037      -279.8429
  14   2.0000     -10.280020      -279.7336
  15   2.0000     -10.279723      -279.7255
  16   2.0000      -8.080386      -219.8785
  17   2.0000      -8.078925      -219.8387
  18   2.0000      -6.038881      -164.3263
  19   2.0000      -6.037413      -164.2864
  20   2.0000      -6.034738      -164.2136
  21   2.0000      -6.033157      -164.1705
  22   2.0000      -6.031165      -164.1163
  23   2.0000      -6.029696      -164.0764
  24   2.0000      -1.012397       -27.5487
  25   2.0000      -0.989727       -26.9318
  26   2.0000      -0.911871       -24.8133
  27   2.0000      -0.901390       -24.5281
  28   2.0000      -0.873900       -23.7800
  29   2.0000      -0.846834       -23.0435
  30   2.0000      -0.838466       -22.8158
  31   2.0000      -0.817943       -22.2574
  32   2.0000      -0.781377       -21.2624
  33   2.0000      -0.772509       -21.0210
  34   2.0000      -0.714901       -19.4534
  35   2.0000      -0.701358       -19.0849
  36   2.0000      -0.685337       -18.6490
  37   2.0000      -0.664960       -18.0945
  38   2.0000      -0.639552       -17.4031
  39   2.0000      -0.614886       -16.7319
  40   2.0000      -0.590737       -16.0748
  41   2.0000      -0.567697       -15.4478
  42   2.0000      -0.566895       -15.4260
  43   2.0000      -0.549074       -14.9411
  44   2.0000      -0.539493       -14.6803
  45   2.0000      -0.528151       -14.3717
  46   2.0000      -0.509577       -13.8663
  47   2.0000      -0.507837       -13.8190
  48   2.0000      -0.504883       -13.7386
  49   2.0000      -0.499084       -13.5808
  50   2.0000      -0.489860       -13.3298
  51   2.0000      -0.481592       -13.1048
  52   2.0000      -0.472140       -12.8476
  53   2.0000      -0.466604       -12.6969
  54   2.0000      -0.462098       -12.5743
  55   2.0000      -0.448688       -12.2094
  56   2.0000      -0.441648       -12.0179
  57   2.0000      -0.437605       -11.9078
  58   2.0000      -0.430649       -11.7185
  59   2.0000      -0.423841       -11.5333
  60   2.0000      -0.420743       -11.4490
  61   2.0000      -0.418671       -11.3926
  62   2.0000      -0.411554       -11.1990
  63   2.0000      -0.356560        -9.7025
  64   2.0000      -0.329164        -8.9570
  65   2.0000      -0.326643        -8.8884
  66   2.0000      -0.290350        -7.9008
  67   0.0000       0.028554         0.7770
  68   0.0000       0.081776         2.2252
  69   0.0000       0.112417         3.0590
  70   0.0000       0.127651         3.4736
  71   0.0000       0.133982         3.6458

MULLIKEN ATOMIC CHARGES
-----------------------
   0 S :    0.110496
   1 C :   -0.142672
   2 C :   -0.082944
   3 C :   -0.016947
   4 C :   -0.128211
   5 H :    0.014296
   6 C :    0.077556
   7 H :    0.046905
   8 H :    0.012510
   9 C :   -0.089876
  10 H :    0.024788
  11 H :    0.032976
  12 C :   -0.024476
  13 H :    0.032460
  14 H :    0.043286
  15 H :    0.016907
  16 S :    0.107781
  17 C :   -0.074600
  18 C :   -0.038892
  19 C :   -0.078050
  20 C :   -0.154610
  21 H :    0.023124
  22 C :    0.068041
  23 H :    0.007017
  24 H :    0.027404
  25 C :   -0.025681
  26 H :    0.024649
  27 H :    0.035638
  28 C :   -0.078471
  29 H :    0.039573
  30 H :    0.040254
  31 H :    0.032952
  32 H :    0.062497
  33 H :    0.054317
Sum of atomic charges:    0.0000000

LOEWDIN ATOMIC CHARGES
----------------------
   0 S :    0.420911
   1 C :   -0.219583
   2 C :   -0.062729
   3 C :   -0.074085
   4 C :   -0.196534
   5 H :    0.031375
   6 C :   -0.027292
   7 H :    0.044506
   8 H :    0.021401
   9 C :   -0.046217
  10 H :    0.020637
  11 H :    0.026964
  12 C :   -0.058673
  13 H :    0.030374
  14 H :    0.032135
  15 H :    0.012971
  16 S :    0.429625
  17 C :   -0.194029
  18 C :   -0.073814
  19 C :   -0.058669
  20 C :   -0.209375
  21 H :    0.033108
  22 C :   -0.031304
  23 H :    0.023065
  24 H :    0.032825
  25 C :   -0.035006
  26 H :    0.024702
  27 H :    0.021382
  28 C :   -0.072478
  29 H :    0.034668
  30 H :    0.019165
  31 H :    0.028858
  32 H :    0.040145
  33 H :    0.030971

  Mayer bond orders larger than 0.100000
B(  0-S ,  1-C ) :   1.1381 B(  0-S ,  4-C ) :   1.1663 B(  1-C ,  2-C ) :   1.6303
B(  1-C , 32-H ) :   0.9637 B(  2-C ,  3-C ) :   1.2347 B(  2-C ,  6-C ) :   0.9936
B(  3-C ,  4-C ) :   1.5683 B(  3-C ,  5-H ) :   0.9959 B(  4-C , 20-C ) :   1.0327
B(  6-C ,  7-H ) :   0.9305 B(  6-C ,  8-H ) :   0.9498 B(  6-C ,  9-C ) :   1.0695
B(  9-C , 10-H ) :   0.9443 B(  9-C , 11-H ) :   0.9577 B(  9-C , 12-C ) :   1.0880
B( 12-C , 13-H ) :   0.9731 B( 12-C , 14-H ) :   0.9730 B( 12-C , 15-H ) :   0.9766
B( 16-S , 17-C ) :   1.1545 B( 16-S , 20-C ) :   1.1573 B( 17-C , 18-C ) :   1.6026
B( 17-C , 33-H ) :   0.9722 B( 18-C , 19-C ) :   1.2462 B( 18-C , 21-H ) :   0.9866
B( 19-C , 20-C ) :   1.5767 B( 19-C , 22-C ) :   1.0394 B( 22-C , 23-H ) :   0.9359
B( 22-C , 24-H ) :   0.9326 B( 22-C , 25-C ) :   1.0600 B( 25-C , 26-H ) :   0.9542
B( 25-C , 27-H ) :   0.9510 B( 25-C , 28-C ) :   1.0658 B( 28-C , 29-H ) :   0.9748
B( 28-C , 30-H ) :   0.9768 B( 28-C , 31-H ) :   0.9777

Dispersion correction           -0.015546968
FINAL SINGLE POINT ENERGY     -1339.887513379317

DIPOLE MOMENT
-------------
                                X             Y             Z
Electronic contribution:     10.31553     -25.67840      -2.20897
Nuclear contribution   :    -10.48071      26.30238       2.34344
                        -----------------------------------------
Total Dipole Moment    :     -0.16518       0.62398       0.13446
                        -----------------------------------------
Magnitude (a.u.)       :      0.65933
Magnitude (Debye)      :      1.67588

Rotational constants in cm-1:     0.021654     0.008659     0.007325
Rotational constants in MHz :   649.185004   259.576236   219.586210

                             ****ORCA TERMINATED NORMALLY****
TOTAL RUN TIME: 0 days 0 hours 0 minutes 22 seconds 589 msec
