                         Program Version 4.2.1 -  RELEASE  -
|  1> ! wB97X-D3 SP def2-SVP
|  2> %pal
|  3> nprocs 24
|  4> end
|  5>
|  6> * xyz 0 1
|  7> S 	 -45.1687 	 -5.61164 	 -13.6076
|  8> C 	 -46.3227 	 -4.75864 	 -12.6689
|  9> C 	 -45.7593 	 -3.54923 	 -12.2932
| 10> C 	 -44.4894 	 -3.31219 	 -12.8532
| 11> C 	 -44.0161 	 -4.33238 	 -13.6603
| 12> H 	 -43.9299 	 -2.35183 	 -12.9215
| 13> C 	 -46.511 	 -2.46564 	 -11.4865
| 14> H 	 -45.8056 	 -1.81881 	 -10.9803
| 15> H 	 -47.0962 	 -2.84971 	 -10.678
| 16> C 	 -47.4788 	 -1.56133 	 -12.3906
| 17> H 	 -48.4418 	 -2.10346 	 -12.4641
| 18> H 	 -47.7025 	 -0.683508 	 -11.7569
| 19> C 	 -47.0488 	 -1.02829 	 -13.7487
| 20> H 	 -46.2031 	 -0.395672 	 -13.7859
| 21> H 	 -46.8392 	 -1.85729 	 -14.4783
| 22> H 	 -47.8659 	 -0.525121 	 -14.2551
| 23> S 	 -41.4292 	 -4.67867 	 -13.9401
| 24> C 	 -40.7564 	 -5.011 	 -15.4592
| 25> C 	 -41.6964 	 -4.91835 	 -16.5379
| 26> C 	 -42.9495 	 -4.5047 	 -16.0245
| 27> C 	 -42.9498 	 -4.35381 	 -14.6291
| 28> H 	 -41.4096 	 -5.04141 	 -17.6011
| 29> C 	 -44.2286 	 -4.55185 	 -16.8356
| 30> H 	 -44.9901 	 -5.02643 	 -16.2481
| 31> H 	 -44.1331 	 -5.08632 	 -17.7698
| 32> C 	 -44.698 	 -3.12233 	 -17.1761
| 33> H 	 -44.977 	 -2.63354 	 -16.2633
| 34> H 	 -45.5464 	 -3.17144 	 -17.8446
| 35> C 	 -43.666 	 -2.3414 	 -17.9129
| 36> H 	 -42.9137 	 -1.97343 	 -17.2159
| 37> H 	 -44.1642 	 -1.52358 	 -18.3823
| 38> H 	 -43.1097 	 -2.90883 	 -18.6204
| 39> H 	 -47.3559 	 -4.77886 	 -12.561
| 40> H 	 -39.7751 	 -5.43693 	 -15.3984
| 41> *
| 42>
| 43>                          ****END OF INPUT****

CARTESIAN COORDINATES (ANGSTROEM)
---------------------------------
  S    -45.168700   -5.611640  -13.607600
  C    -46.322700   -4.758640  -12.668900
  C    -45.759300   -3.549230  -12.293200
  C    -44.489400   -3.312190  -12.853200
  C    -44.016100   -4.332380  -13.660300
  H    -43.929900   -2.351830  -12.921500
  C    -46.511000   -2.465640  -11.486500
  H    -45.805600   -1.818810  -10.980300
  H    -47.096200   -2.849710  -10.678000
  C    -47.478800   -1.561330  -12.390600
  H    -48.441800   -2.103460  -12.464100
  H    -47.702500   -0.683508  -11.756900
  C    -47.048800   -1.028290  -13.748700
  H    -46.203100   -0.395672  -13.785900
  H    -46.839200   -1.857290  -14.478300
  H    -47.865900   -0.525121  -14.255100
  S    -41.429200   -4.678670  -13.940100
  C    -40.756400   -5.011000  -15.459200
  C    -41.696400   -4.918350  -16.537900
  C    -42.949500   -4.504700  -16.024500
  C    -42.949800   -4.353810  -14.629100
  H    -41.409600   -5.041410  -17.601100
  C    -44.228600   -4.551850  -16.835600
  H    -44.990100   -5.026430  -16.248100
  H    -44.133100   -5.086320  -17.769800
  C    -44.698000   -3.122330  -17.176100
  H    -44.977000   -2.633540  -16.263300
  H    -45.546400   -3.171440  -17.844600
  C    -43.666000   -2.341400  -17.912900
  H    -42.913700   -1.973430  -17.215900
  H    -44.164200   -1.523580  -18.382300
  H    -43.109700   -2.908830  -18.620400
  H    -47.355900   -4.778860  -12.561000
  H    -39.775100   -5.436930  -15.398400

 Total Charge           Charge          ....    0
 Multiplicity           Mult            ....    1
 Number of Electrons    NEL             ....  134
 Basis Dimension        Dim             ....  322

ORBITAL ENERGIES
----------------

  NO   OCC          E(Eh)            E(eV)
   0   2.0000     -88.968312     -2420.9509
   1   2.0000     -88.964932     -2420.8589
   2   2.0000     -10.323386      -280.9136
   3   2.0000     -10.319026      -280.7950
   4   2.0000     -10.318852      -280.7902
   5   2.0000     -10.306367      -280.4505
   6   2.0000     -10.305098      -280.4160
   7   2.0000     -10.304304      -280.3944
   8   2.0000     -10.298941      -280.2484
   9   2.0000     -10.294025      -280.1147
  10   2.0000     -10.293964      -280.1130
  11   2.0000     -10.292423      -280.0711
  12   2.0000     -10.282097      -279.7901
  13   2.0000     -10.276648      -279.6418
  14   2.0000     -10.273016      -279.5430
  15   2.0000     -10.262233      -279.2496
  16   2.0000      -8.085000      -220.0040
  17   2.0000      -8.079962      -219.8669
  18   2.0000      -6.042950      -164.4370
  19   2.0000      -6.038996      -164.3294
  20   2.0000      -6.038446      -164.3145
  21   2.0000      -6.036471      -164.2607
  22   2.0000      -6.034055      -164.1950
  23   2.0000      -6.031076      -164.1139
  24   2.0000      -1.017380       -27.6843
  25   2.0000      -0.992722       -27.0133
  26   2.0000      -0.915698       -24.9174
  27   2.0000      -0.902329       -24.5536
  28   2.0000      -0.870323       -23.6827
  29   2.0000      -0.855807       -23.2877
  30   2.0000      -0.843967       -22.9655
  31   2.0000      -0.814137       -22.1538
  32   2.0000      -0.787217       -21.4213
  33   2.0000      -0.776508       -21.1299
  34   2.0000      -0.704273       -19.1642
  35   2.0000      -0.698771       -19.0145
  36   2.0000      -0.687239       -18.7007
  37   2.0000      -0.671572       -18.2744
  38   2.0000      -0.638183       -17.3658
  39   2.0000      -0.612489       -16.6667
  40   2.0000      -0.595797       -16.2125
  41   2.0000      -0.575777       -15.6677
  42   2.0000      -0.560996       -15.2655
  43   2.0000      -0.552193       -15.0259
  44   2.0000      -0.547774       -14.9057
  45   2.0000      -0.532447       -14.4886
  46   2.0000      -0.521208       -14.1828
  47   2.0000      -0.508090       -13.8258
  48   2.0000      -0.502211       -13.6659
  49   2.0000      -0.497191       -13.5293
  50   2.0000      -0.487233       -13.2583
  51   2.0000      -0.486107       -13.2277
  52   2.0000      -0.475061       -12.9271
  53   2.0000      -0.464000       -12.6261
  54   2.0000      -0.462457       -12.5841
  55   2.0000      -0.448629       -12.2078
  56   2.0000      -0.444957       -12.1079
  57   2.0000      -0.434982       -11.8365
  58   2.0000      -0.428720       -11.6661
  59   2.0000      -0.425611       -11.5815
  60   2.0000      -0.420876       -11.4526
  61   2.0000      -0.413970       -11.2647
  62   2.0000      -0.406138       -11.0516
  63   2.0000      -0.338889        -9.2216
  64   2.0000      -0.333233        -9.0677
  65   2.0000      -0.321398        -8.7457
  66   2.0000      -0.300569        -8.1789
  67   0.0000       0.031378         0.8538
  68   0.0000       0.058873         1.6020
  69   0.0000       0.115766         3.1502
  70   0.0000       0.121661         3.3106
  71   0.0000       0.132336         3.6010

MULLIKEN ATOMIC CHARGES
-----------------------
   0 S :    0.123245
   1 C :   -0.064500
   2 C :   -0.133678
   3 C :    0.036640
   4 C :   -0.169579
   5 H :    0.024865
   6 C :    0.085430
   7 H :    0.019639
   8 H :    0.022859
   9 C :   -0.105553
  10 H :    0.030044
  11 H :    0.031672
  12 C :   -0.040322
  13 H :    0.026859
  14 H :    0.040532
  15 H :    0.029689
  16 S :    0.141926
  17 C :   -0.112252
  18 C :   -0.045762
  19 C :   -0.037224
  20 C :   -0.185739
  21 H :    0.042548
  22 C :    0.094250
  23 H :    0.020893
  24 H :    0.016008
  25 C :   -0.077946
  26 H :    0.030542
  27 H :    0.019589
  28 C :   -0.018330
  29 H :    0.033545
  30 H :    0.026978
  31 H :    0.008200
  32 H :    0.023951
  33 H :    0.060981
Sum of atomic charges:   -0.0000000

LOEWDIN ATOMIC CHARGES
----------------------
   0 S :    0.448077
   1 C :   -0.212997
   2 C :   -0.063823
   3 C :   -0.073449
   4 C :   -0.215179
   5 H :    0.038375
   6 C :   -0.028281
   7 H :    0.027700
   8 H :    0.028288
   9 C :   -0.043280
  10 H :    0.024206
  11 H :    0.026203
  12 C :   -0.072022
  13 H :    0.018240
  14 H :    0.031352
  15 H :    0.030584
  16 S :    0.477540
  17 C :   -0.199753
  18 C :   -0.071677
  19 C :   -0.045569
  20 C :   -0.237072
  21 H :    0.040344
  22 C :   -0.026670
  23 H :    0.016764
  24 H :    0.026375
  25 C :   -0.035077
  26 H :    0.020487
  27 H :    0.019596
  28 C :   -0.060760
  29 H :    0.027513
  30 H :    0.023823
  31 H :    0.016297
  32 H :    0.023668
  33 H :    0.020177

  Mayer bond orders larger than 0.100000
B(  0-S ,  1-C ) :   1.1524 B(  0-S ,  4-C ) :   1.1681 B(  1-C ,  2-C ) :   1.5881
B(  1-C , 32-H ) :   0.9721 B(  2-C ,  3-C ) :   1.2679 B(  2-C ,  6-C ) :   1.0260
B(  3-C ,  4-C ) :   1.5663 B(  3-C ,  5-H ) :   0.9866 B(  4-C , 20-C ) :   0.9948
B(  6-C ,  7-H ) :   0.9456 B(  6-C ,  8-H ) :   0.9453 B(  6-C ,  9-C ) :   1.0567
B(  9-C , 10-H ) :   0.9590 B(  9-C , 11-H ) :   0.9574 B(  9-C , 12-C ) :   1.0879
B( 12-C , 13-H ) :   0.9768 B( 12-C , 14-H ) :   0.9656 B( 12-C , 15-H ) :   0.9669
B( 16-S , 17-C ) :   1.2329 B( 16-S , 20-C ) :   1.1929 B( 17-C , 18-C ) :   1.5055
B( 17-C , 20-C ) :   0.1103 B( 17-C , 33-H ) :   0.9735 B( 18-C , 19-C ) :   1.2992
B( 18-C , 21-H ) :   0.9912 B( 19-C , 20-C ) :   1.5287 B( 19-C , 22-C ) :   1.0433
B( 22-C , 23-H ) :   0.9292 B( 22-C , 24-H ) :   0.9387 B( 22-C , 25-C ) :   1.0774
B( 25-C , 26-H ) :   0.9534 B( 25-C , 27-H ) :   0.9590 B( 25-C , 28-C ) :   1.0846
B( 28-C , 29-H ) :   0.9662 B( 28-C , 30-H ) :   0.9731 B( 28-C , 31-H ) :   0.9744

Dispersion correction           -0.016259697
FINAL SINGLE POINT ENERGY     -1339.865559060370

DIPOLE MOMENT
-------------
                                X             Y             Z
Electronic contribution:     15.15942     -18.66952       9.51938
Nuclear contribution   :    -15.39173      19.01025      -9.78424
                        -----------------------------------------
Total Dipole Moment    :     -0.23231       0.34073      -0.26485
                        -----------------------------------------
Magnitude (a.u.)       :      0.49012
Magnitude (Debye)      :      1.24577

Rotational constants in cm-1:     0.020295     0.009736     0.008007
Rotational constants in MHz :   608.442423   291.891722   240.053069

                             ****ORCA TERMINATED NORMALLY****
TOTAL RUN TIME: 0 days 0 hours 0 minutes 21 seconds 969 msec
