                         Program Version 4.2.1 -  RELEASE  -
|  1> ! wB97X-D3 SP def2-SVP
|  2> %pal
|  3> nprocs 24
|  4> end
|  5>
|  6> * xyz 0 1
|  7> S 	 -67.9201 	 -54.7565 	 -82.9704
|  8> C 	 -68.4133 	 -55.4887 	 -84.3939
|  9> C 	 -69.5703 	 -56.2564 	 -84.2138
| 10> C 	 -70.0153 	 -56.2402 	 -82.8128
| 11> C 	 -69.1437 	 -55.486 	 -82.0298
| 12> H 	 -70.7531 	 -56.888 	 -82.3447
| 13> C 	 -70.2489 	 -57.1513 	 -85.2672
| 14> H 	 -70.5967 	 -56.5152 	 -86.1501
| 15> H 	 -71.2398 	 -57.3228 	 -84.997
| 16> C 	 -69.5928 	 -58.489 	 -85.7467
| 17> H 	 -70.4068 	 -59.0391 	 -86.3037
| 18> H 	 -68.8332 	 -58.3767 	 -86.5042
| 19> C 	 -68.8796 	 -59.3399 	 -84.703
| 20> H 	 -68.141 	 -58.6547 	 -84.2485
| 21> H 	 -69.558 	 -59.6938 	 -83.935
| 22> H 	 -68.2496 	 -60.1423 	 -85.0693
| 23> S 	 -69.4422 	 -53.6587 	 -80.0191
| 24> C 	 -69.2039 	 -54.1916 	 -78.3734
| 25> C 	 -69.1157 	 -55.5366 	 -78.2391
| 26> C 	 -68.9735 	 -56.17 	 -79.5351
| 27> C 	 -69.2495 	 -55.2726 	 -80.6059
| 28> H 	 -68.8662 	 -56.1269 	 -77.3437
| 29> C 	 -68.5346 	 -57.6522 	 -79.6655
| 30> H 	 -69.1009 	 -58.0996 	 -80.4717
| 31> H 	 -68.87 	 -58.1909 	 -78.7636
| 32> C 	 -67.0663 	 -57.8318 	 -79.9459
| 33> H 	 -66.8559 	 -57.2269 	 -80.8331
| 34> H 	 -67.116 	 -58.8603 	 -80.3654
| 35> C 	 -66.0221 	 -57.7383 	 -78.8342
| 36> H 	 -66.1118 	 -56.7957 	 -78.3056
| 37> H 	 -64.9865 	 -57.7934 	 -79.2491
| 38> H 	 -66.0455 	 -58.5461 	 -78.0629
| 39> H 	 -67.9484 	 -55.4629 	 -85.3373
| 40> H 	 -69.4164 	 -53.5029 	 -77.5132
| 41> *
| 42>
| 43>                          ****END OF INPUT****

CARTESIAN COORDINATES (ANGSTROEM)
---------------------------------
  S    -67.920100  -54.756500  -82.970400
  C    -68.413300  -55.488700  -84.393900
  C    -69.570300  -56.256400  -84.213800
  C    -70.015300  -56.240200  -82.812800
  C    -69.143700  -55.486000  -82.029800
  H    -70.753100  -56.888000  -82.344700
  C    -70.248900  -57.151300  -85.267200
  H    -70.596700  -56.515200  -86.150100
  H    -71.239800  -57.322800  -84.997000
  C    -69.592800  -58.489000  -85.746700
  H    -70.406800  -59.039100  -86.303700
  H    -68.833200  -58.376700  -86.504200
  C    -68.879600  -59.339900  -84.703000
  H    -68.141000  -58.654700  -84.248500
  H    -69.558000  -59.693800  -83.935000
  H    -68.249600  -60.142300  -85.069300
  S    -69.442200  -53.658700  -80.019100
  C    -69.203900  -54.191600  -78.373400
  C    -69.115700  -55.536600  -78.239100
  C    -68.973500  -56.170000  -79.535100
  C    -69.249500  -55.272600  -80.605900
  H    -68.866200  -56.126900  -77.343700
  C    -68.534600  -57.652200  -79.665500
  H    -69.100900  -58.099600  -80.471700
  H    -68.870000  -58.190900  -78.763600
  C    -67.066300  -57.831800  -79.945900
  H    -66.855900  -57.226900  -80.833100
  H    -67.116000  -58.860300  -80.365400
  C    -66.022100  -57.738300  -78.834200
  H    -66.111800  -56.795700  -78.305600
  H    -64.986500  -57.793400  -79.249100
  H    -66.045500  -58.546100  -78.062900
  H    -67.948400  -55.462900  -85.337300
  H    -69.416400  -53.502900  -77.513200

 Total Charge           Charge          ....    0
 Multiplicity           Mult            ....    1
 Number of Electrons    NEL             ....  134
 Basis Dimension        Dim             ....  322

ORBITAL ENERGIES
----------------

  NO   OCC          E(Eh)            E(eV)
   0   2.0000     -88.969513     -2420.9835
   1   2.0000     -88.965940     -2420.8863
   2   2.0000     -10.324023      -280.9310
   3   2.0000     -10.323280      -280.9107
   4   2.0000     -10.318653      -280.7848
   5   2.0000     -10.308604      -280.5114
   6   2.0000     -10.307026      -280.4684
   7   2.0000     -10.304915      -280.4110
   8   2.0000     -10.297608      -280.2122
   9   2.0000     -10.295423      -280.1527
  10   2.0000     -10.294684      -280.1326
  11   2.0000     -10.292254      -280.0665
  12   2.0000     -10.290945      -280.0309
  13   2.0000     -10.283960      -279.8408
  14   2.0000     -10.282354      -279.7971
  15   2.0000     -10.275663      -279.6150
  16   2.0000      -8.085898      -220.0285
  17   2.0000      -8.081206      -219.9008
  18   2.0000      -6.044210      -164.4713
  19   2.0000      -6.039922      -164.3546
  20   2.0000      -6.039682      -164.3481
  21   2.0000      -6.037009      -164.2754
  22   2.0000      -6.035608      -164.2373
  23   2.0000      -6.032011      -164.1394
  24   2.0000      -1.012554       -27.5530
  25   2.0000      -0.987277       -26.8652
  26   2.0000      -0.907408       -24.6918
  27   2.0000      -0.904582       -24.6149
  28   2.0000      -0.872573       -23.7439
  29   2.0000      -0.849522       -23.1167
  30   2.0000      -0.843003       -22.9393
  31   2.0000      -0.813618       -22.1397
  32   2.0000      -0.787443       -21.4274
  33   2.0000      -0.774688       -21.0803
  34   2.0000      -0.704999       -19.1840
  35   2.0000      -0.700656       -19.0658
  36   2.0000      -0.682781       -18.5794
  37   2.0000      -0.660180       -17.9644
  38   2.0000      -0.645927       -17.5766
  39   2.0000      -0.607856       -16.5406
  40   2.0000      -0.594151       -16.1677
  41   2.0000      -0.571539       -15.5524
  42   2.0000      -0.549721       -14.9587
  43   2.0000      -0.547329       -14.8936
  44   2.0000      -0.541996       -14.7485
  45   2.0000      -0.537126       -14.6159
  46   2.0000      -0.514252       -13.9935
  47   2.0000      -0.506370       -13.7790
  48   2.0000      -0.499890       -13.6027
  49   2.0000      -0.496350       -13.5064
  50   2.0000      -0.489768       -13.3273
  51   2.0000      -0.477619       -12.9967
  52   2.0000      -0.472350       -12.8533
  53   2.0000      -0.469243       -12.7688
  54   2.0000      -0.461292       -12.5524
  55   2.0000      -0.452407       -12.3106
  56   2.0000      -0.444913       -12.1067
  57   2.0000      -0.440201       -11.9785
  58   2.0000      -0.434141       -11.8136
  59   2.0000      -0.423226       -11.5166
  60   2.0000      -0.416571       -11.3355
  61   2.0000      -0.405083       -11.0229
  62   2.0000      -0.401270       -10.9191
  63   2.0000      -0.343860        -9.3569
  64   2.0000      -0.331550        -9.0219
  65   2.0000      -0.328031        -8.9262
  66   2.0000      -0.297090        -8.0842
  67   0.0000       0.039364         1.0711
  68   0.0000       0.062786         1.7085
  69   0.0000       0.114741         3.1223
  70   0.0000       0.121282         3.3003
  71   0.0000       0.125026         3.4021

MULLIKEN ATOMIC CHARGES
-----------------------
   0 S :    0.150214
   1 C :   -0.084986
   2 C :   -0.131499
   3 C :    0.051133
   4 C :   -0.189374
   5 H :    0.024515
   6 C :    0.077442
   7 H :    0.032094
   8 H :   -0.003925
   9 C :   -0.069750
  10 H :    0.031474
  11 H :    0.021155
  12 C :   -0.051644
  13 H :    0.037340
  14 H :    0.030929
  15 H :    0.034803
  16 S :    0.115068
  17 C :   -0.108124
  18 C :   -0.009774
  19 C :   -0.092264
  20 C :   -0.171479
  21 H :    0.032216
  22 C :    0.078988
  23 H :    0.016822
  24 H :    0.017103
  25 C :   -0.062780
  26 H :    0.027961
  27 H :    0.023825
  28 C :   -0.041146
  29 H :    0.033529
  30 H :    0.041243
  31 H :    0.032279
  32 H :    0.030106
  33 H :    0.076507
Sum of atomic charges:    0.0000000

LOEWDIN ATOMIC CHARGES
----------------------
   0 S :    0.464836
   1 C :   -0.218057
   2 C :   -0.063489
   3 C :   -0.058832
   4 C :   -0.221196
   5 H :    0.033861
   6 C :   -0.046018
   7 H :    0.045460
   8 H :    0.021768
   9 C :   -0.043936
  10 H :    0.028828
  11 H :    0.019897
  12 C :   -0.069484
  13 H :    0.031516
  14 H :    0.020675
  15 H :    0.027110
  16 S :    0.418866
  17 C :   -0.192634
  18 C :   -0.079165
  19 C :   -0.048722
  20 C :   -0.221278
  21 H :    0.037682
  22 C :   -0.032609
  23 H :    0.030308
  24 H :    0.028537
  25 C :   -0.047593
  26 H :    0.026859
  27 H :    0.030029
  28 C :   -0.071281
  29 H :    0.024057
  30 H :    0.034948
  31 H :    0.027848
  32 H :    0.023274
  33 H :    0.037937

  Mayer bond orders larger than 0.100000
B(  0-S ,  1-C ) :   1.1632 B(  0-S ,  4-C ) :   1.1776 B(  1-C ,  2-C ) :   1.5821
B(  1-C , 32-H ) :   0.9779 B(  2-C ,  3-C ) :   1.2503 B(  2-C ,  6-C ) :   1.0273
B(  3-C ,  4-C ) :   1.5631 B(  3-C ,  5-H ) :   0.9890 B(  4-C , 20-C ) :   1.0232
B(  6-C ,  7-H ) :   0.9340 B(  6-C ,  8-H ) :   0.9351 B(  6-C ,  9-C ) :   1.0533
B(  9-C , 10-H ) :   0.9547 B(  9-C , 11-H ) :   0.9595 B(  9-C , 12-C ) :   1.0817
B( 12-C , 13-H ) :   0.9652 B( 12-C , 14-H ) :   0.9787 B( 12-C , 15-H ) :   0.9744
B( 16-S , 17-C ) :   1.1621 B( 16-S , 20-C ) :   1.1536 B( 17-C , 18-C ) :   1.6083
B( 17-C , 33-H ) :   0.9541 B( 18-C , 19-C ) :   1.2623 B( 18-C , 21-H ) :   0.9772
B( 19-C , 20-C ) :   1.5852 B( 19-C , 22-C ) :   1.0375 B( 22-C , 23-H ) :   0.9310
B( 22-C , 24-H ) :   0.9345 B( 22-C , 25-C ) :   1.0750 B( 25-C , 26-H ) :   0.9526
B( 25-C , 27-H ) :   0.9519 B( 25-C , 28-C ) :   1.0720 B( 28-C , 29-H ) :   0.9748
B( 28-C , 30-H ) :   0.9723 B( 28-C , 31-H ) :   0.9744

Dispersion correction           -0.015449526
FINAL SINGLE POINT ENERGY     -1339.873959680175

DIPOLE MOMENT
-------------
                                X             Y             Z
Electronic contribution:     -4.72658      25.54973       4.91759
Nuclear contribution   :      4.76750     -26.13813      -4.96383
                        -----------------------------------------
Total Dipole Moment    :      0.04092      -0.58840      -0.04624
                        -----------------------------------------
Magnitude (a.u.)       :      0.59163
Magnitude (Debye)      :      1.50380

Rotational constants in cm-1:     0.020092     0.009048     0.007338
Rotational constants in MHz :   602.352324   271.260984   219.975025

                             ****ORCA TERMINATED NORMALLY****
TOTAL RUN TIME: 0 days 0 hours 0 minutes 22 seconds 228 msec
