                         Program Version 4.2.1 -  RELEASE  -
|  1> ! wB97X-D3 SP def2-SVP
|  2> %pal
|  3> nprocs 24
|  4> end
|  5>
|  6> * xyz 0 1
|  7> S 	 -124.898 	 59.1661 	 -54.6464
|  8> C 	 -125.839 	 57.8475 	 -55.302
|  9> C 	 -126.703 	 58.2597 	 -56.306
| 10> C 	 -126.539 	 59.6566 	 -56.567
| 11> C 	 -125.586 	 60.352 	 -55.7961
| 12> H 	 -127.005 	 60.1797 	 -57.4116
| 13> C 	 -127.79 	 57.3154 	 -56.8167
| 14> H 	 -128.669 	 57.7525 	 -56.3315
| 15> H 	 -127.607 	 56.4317 	 -56.2251
| 16> C 	 -128.011 	 57.3002 	 -58.353
| 17> H 	 -128.241 	 58.2998 	 -58.734
| 18> H 	 -127.063 	 56.9464 	 -58.775
| 19> C 	 -129.025 	 56.2983 	 -58.8894
| 20> H 	 -129.118 	 56.201 	 -60.061
| 21> H 	 -128.843 	 55.2378 	 -58.6412
| 22> H 	 -130.039 	 56.6759 	 -58.4683
| 23> S 	 -126.309 	 62.7706 	 -56.9278
| 24> C 	 -125.331 	 64.1315 	 -56.5576
| 25> C 	 -124.287 	 63.8676 	 -55.7147
| 26> C 	 -124.214 	 62.4555 	 -55.3316
| 27> C 	 -125.298 	 61.7675 	 -55.8459
| 28> H 	 -123.708 	 64.6985 	 -55.3164
| 29> C 	 -123.095 	 61.89 	 -54.4597
| 30> H 	 -123.526 	 61.1904 	 -53.7194
| 31> H 	 -122.796 	 62.6236 	 -53.828
| 32> C 	 -121.902 	 61.3617 	 -55.285
| 33> H 	 -121.516 	 62.2128 	 -55.8948
| 34> H 	 -122.286 	 60.5536 	 -55.9695
| 35> C 	 -120.857 	 60.6884 	 -54.3729
| 36> H 	 -120.778 	 61.2627 	 -53.4975
| 37> H 	 -119.814 	 60.5884 	 -54.7645
| 38> H 	 -121.084 	 59.6541 	 -54.0878
| 39> H 	 -125.72 	 56.8553 	 -54.9746
| 40> H 	 -125.607 	 65.1655 	 -56.8405
| 41> *
| 42>
| 43>                          ****END OF INPUT****

CARTESIAN COORDINATES (ANGSTROEM)
---------------------------------
  S    -124.898000   59.166100  -54.646400
  C    -125.839000   57.847500  -55.302000
  C    -126.703000   58.259700  -56.306000
  C    -126.539000   59.656600  -56.567000
  C    -125.586000   60.352000  -55.796100
  H    -127.005000   60.179700  -57.411600
  C    -127.790000   57.315400  -56.816700
  H    -128.669000   57.752500  -56.331500
  H    -127.607000   56.431700  -56.225100
  C    -128.011000   57.300200  -58.353000
  H    -128.241000   58.299800  -58.734000
  H    -127.063000   56.946400  -58.775000
  C    -129.025000   56.298300  -58.889400
  H    -129.118000   56.201000  -60.061000
  H    -128.843000   55.237800  -58.641200
  H    -130.039000   56.675900  -58.468300
  S    -126.309000   62.770600  -56.927800
  C    -125.331000   64.131500  -56.557600
  C    -124.287000   63.867600  -55.714700
  C    -124.214000   62.455500  -55.331600
  C    -125.298000   61.767500  -55.845900
  H    -123.708000   64.698500  -55.316400
  C    -123.095000   61.890000  -54.459700
  H    -123.526000   61.190400  -53.719400
  H    -122.796000   62.623600  -53.828000
  C    -121.902000   61.361700  -55.285000
  H    -121.516000   62.212800  -55.894800
  H    -122.286000   60.553600  -55.969500
  C    -120.857000   60.688400  -54.372900
  H    -120.778000   61.262700  -53.497500
  H    -119.814000   60.588400  -54.764500
  H    -121.084000   59.654100  -54.087800
  H    -125.720000   56.855300  -54.974600
  H    -125.607000   65.165500  -56.840500

 Total Charge           Charge          ....    0
 Multiplicity           Mult            ....    1
 Number of Electrons    NEL             ....  134
 Basis Dimension        Dim             ....  322

ORBITAL ENERGIES
----------------

  NO   OCC          E(Eh)            E(eV)
   0   2.0000     -88.968177     -2420.9472
   1   2.0000     -88.966827     -2420.9104
   2   2.0000     -10.335212      -281.2354
   3   2.0000     -10.330602      -281.1100
   4   2.0000     -10.317881      -280.7638
   5   2.0000     -10.308830      -280.5175
   6   2.0000     -10.308527      -280.5093
   7   2.0000     -10.302620      -280.3485
   8   2.0000     -10.296814      -280.1906
   9   2.0000     -10.296612      -280.1851
  10   2.0000     -10.295794      -280.1628
  11   2.0000     -10.295264      -280.1484
  12   2.0000     -10.293585      -280.1027
  13   2.0000     -10.293002      -280.0868
  14   2.0000     -10.288273      -279.9581
  15   2.0000     -10.274898      -279.5942
  16   2.0000      -8.082901      -219.9469
  17   2.0000      -8.080114      -219.8711
  18   2.0000      -6.041545      -164.3988
  19   2.0000      -6.038829      -164.3249
  20   2.0000      -6.037561      -164.2904
  21   2.0000      -6.034722      -164.2131
  22   2.0000      -6.033376      -164.1765
  23   2.0000      -6.030870      -164.1083
  24   2.0000      -1.003662       -27.3110
  25   2.0000      -0.980556       -26.6823
  26   2.0000      -0.910859       -24.7857
  27   2.0000      -0.906795       -24.6751
  28   2.0000      -0.871196       -23.7065
  29   2.0000      -0.851101       -23.1596
  30   2.0000      -0.843353       -22.9488
  31   2.0000      -0.812323       -22.1044
  32   2.0000      -0.785842       -21.3838
  33   2.0000      -0.768514       -20.9123
  34   2.0000      -0.710220       -19.3261
  35   2.0000      -0.699489       -19.0341
  36   2.0000      -0.688641       -18.7389
  37   2.0000      -0.668594       -18.1934
  38   2.0000      -0.629737       -17.1360
  39   2.0000      -0.615393       -16.7457
  40   2.0000      -0.596512       -16.2319
  41   2.0000      -0.571819       -15.5600
  42   2.0000      -0.561021       -15.2662
  43   2.0000      -0.557160       -15.1611
  44   2.0000      -0.523391       -14.2422
  45   2.0000      -0.522187       -14.2094
  46   2.0000      -0.520947       -14.1757
  47   2.0000      -0.512732       -13.9521
  48   2.0000      -0.504018       -13.7150
  49   2.0000      -0.498849       -13.5744
  50   2.0000      -0.486716       -13.2442
  51   2.0000      -0.482343       -13.1252
  52   2.0000      -0.470945       -12.8151
  53   2.0000      -0.466208       -12.6862
  54   2.0000      -0.458198       -12.4682
  55   2.0000      -0.452889       -12.3237
  56   2.0000      -0.441127       -12.0037
  57   2.0000      -0.433341       -11.7918
  58   2.0000      -0.432026       -11.7560
  59   2.0000      -0.424915       -11.5625
  60   2.0000      -0.423401       -11.5213
  61   2.0000      -0.410263       -11.1638
  62   2.0000      -0.405656       -11.0385
  63   2.0000      -0.364928        -9.9302
  64   2.0000      -0.334343        -9.0979
  65   2.0000      -0.327349        -8.9076
  66   2.0000      -0.279034        -7.5929
  67   0.0000       0.018217         0.4957
  68   0.0000       0.087763         2.3882
  69   0.0000       0.105343         2.8665
  70   0.0000       0.119360         3.2480
  71   0.0000       0.128449         3.4953

MULLIKEN ATOMIC CHARGES
-----------------------
   0 S :    0.082315
   1 C :   -0.120285
   2 C :   -0.083003
   3 C :   -0.033827
   4 C :   -0.115264
   5 H :    0.024618
   6 C :    0.090277
   7 H :    0.038140
   8 H :    0.009200
   9 C :   -0.058484
  10 H :    0.044171
  11 H :    0.032990
  12 C :   -0.111633
  13 H :    0.051953
  14 H :    0.040600
  15 H :    0.040239
  16 S :    0.091752
  17 C :   -0.087833
  18 C :   -0.028667
  19 C :   -0.099132
  20 C :   -0.099942
  21 H :    0.023858
  22 C :    0.078630
  23 H :    0.035045
  24 H :   -0.012200
  25 C :   -0.074021
  26 H :    0.042235
  27 H :    0.046984
  28 C :   -0.032208
  29 H :    0.012461
  30 H :    0.035673
  31 H :    0.035027
  32 H :    0.034823
  33 H :    0.065507
Sum of atomic charges:   -0.0000000

LOEWDIN ATOMIC CHARGES
----------------------
   0 S :    0.398601
   1 C :   -0.198278
   2 C :   -0.058055
   3 C :   -0.082455
   4 C :   -0.173203
   5 H :    0.023217
   6 C :   -0.027973
   7 H :    0.037493
   8 H :    0.030128
   9 C :   -0.045844
  10 H :    0.029570
  11 H :    0.026823
  12 C :   -0.084094
  13 H :    0.038506
  14 H :    0.024841
  15 H :    0.030497
  16 S :    0.402385
  17 C :   -0.193133
  18 C :   -0.074561
  19 C :   -0.046822
  20 C :   -0.179265
  21 H :    0.033846
  22 C :   -0.035215
  23 H :    0.025845
  24 H :    0.015023
  25 C :   -0.037607
  26 H :    0.030810
  27 H :    0.030714
  28 C :   -0.069643
  29 H :    0.014149
  30 H :    0.031337
  31 H :    0.028972
  32 H :    0.017475
  33 H :    0.035914

  Mayer bond orders larger than 0.100000
B(  0-S ,  1-C ) :   1.1336 B(  0-S ,  4-C ) :   1.1301 B(  1-C ,  2-C ) :   1.5986
B(  1-C , 32-H ) :   0.9685 B(  2-C ,  3-C ) :   1.2635 B(  2-C ,  6-C ) :   1.0205
B(  3-C ,  4-C ) :   1.5542 B(  3-C ,  5-H ) :   0.9734 B(  4-C , 20-C ) :   1.1281
B(  6-C ,  7-H ) :   0.9326 B(  6-C ,  8-H ) :   0.9425 B(  6-C ,  9-C ) :   1.0376
B(  9-C , 10-H ) :   0.9538 B(  9-C , 11-H ) :   0.9606 B(  9-C , 12-C ) :   1.0805
B( 12-C , 13-H ) :   0.9738 B( 12-C , 14-H ) :   0.9751 B( 12-C , 15-H ) :   0.9734
B( 16-S , 17-C ) :   1.1463 B( 16-S , 20-C ) :   1.1143 B( 17-C , 18-C ) :   1.6523
B( 17-C , 33-H ) :   0.9579 B( 18-C , 19-C ) :   1.2059 B( 18-C , 21-H ) :   0.9864
B( 19-C , 20-C ) :   1.6050 B( 19-C , 22-C ) :   1.0399 B( 22-C , 23-H ) :   0.9342
B( 22-C , 24-H ) :   0.9137 B( 22-C , 25-C ) :   1.0467 B( 25-C , 26-H ) :   0.9558
B( 25-C , 27-H ) :   0.9610 B( 25-C , 28-C ) :   1.0695 B( 28-C , 29-H ) :   0.9738
B( 28-C , 30-H ) :   0.9747 B( 28-C , 31-H ) :   0.9752

Dispersion correction           -0.013818558
FINAL SINGLE POINT ENERGY     -1339.873933164132

DIPOLE MOMENT
-------------
                                X             Y             Z
Electronic contribution:     -3.21413      13.28752       4.45244
Nuclear contribution   :      3.27246     -13.30774      -4.46299
                        -----------------------------------------
Total Dipole Moment    :      0.05833      -0.02022      -0.01054
                        -----------------------------------------
Magnitude (a.u.)       :      0.06263
Magnitude (Debye)      :      0.15919

Rotational constants in cm-1:     0.020253     0.007917     0.006087
Rotational constants in MHz :   607.159616   237.335030   182.487057

                             ****ORCA TERMINATED NORMALLY****
TOTAL RUN TIME: 0 days 0 hours 0 minutes 21 seconds 14 msec
