                         Program Version 4.2.1 -  RELEASE  -
|  1> ! wB97X-D3 SP def2-SVP
|  2> %pal
|  3> nprocs 24
|  4> end
|  5>
|  6> * xyz 0 1
|  7> S 	 -141.492 	 6.56416 	 2.74886
|  8> C 	 -140.79 	 5.28748 	 3.79962
|  9> C 	 -140.56 	 5.75892 	 5.05984
| 10> C 	 -141.118 	 7.07126 	 5.27725
| 11> C 	 -141.802 	 7.56139 	 4.18804
| 12> H 	 -141.052 	 7.66093 	 6.18619
| 13> C 	 -139.611 	 5.10344 	 6.04795
| 14> H 	 -139 	 5.86028 	 6.44956
| 15> H 	 -138.949 	 4.51134 	 5.43956
| 16> C 	 -140.267 	 4.42171 	 7.31161
| 17> H 	 -139.445 	 4.19412 	 7.95711
| 18> H 	 -140.833 	 5.18714 	 7.88814
| 19> C 	 -141.116 	 3.16298 	 7.19439
| 20> H 	 -142.1 	 3.48722 	 6.69719
| 21> H 	 -140.633 	 2.29567 	 6.62067
| 22> H 	 -141.459 	 2.85876 	 8.19487
| 23> S 	 -141.813 	 10.127 	 2.91924
| 24> C 	 -143.052 	 11.2405 	 3.47823
| 25> C 	 -143.963 	 10.7139 	 4.32518
| 26> C 	 -143.678 	 9.41539 	 4.74849
| 27> C 	 -142.55 	 8.86702 	 4.09278
| 28> H 	 -144.852 	 11.2533 	 4.56943
| 29> C 	 -144.502 	 8.79481 	 5.88121
| 30> H 	 -144.557 	 9.56482 	 6.62408
| 31> H 	 -144 	 7.92943 	 6.29358
| 32> C 	 -145.928 	 8.42828 	 5.60361
| 33> H 	 -145.969 	 7.79009 	 4.72297
| 34> H 	 -146.509 	 9.33152 	 5.29674
| 35> C 	 -146.79 	 7.78997 	 6.69618
| 36> H 	 -146.365 	 6.83801 	 6.92895
| 37> H 	 -147.822 	 7.63941 	 6.35066
| 38> H 	 -146.772 	 8.45125 	 7.565
| 39> H 	 -140.371 	 4.416 	 3.35494
| 40> H 	 -143.113 	 12.2662 	 3.17459
| 41> *
| 42>
| 43>                          ****END OF INPUT****

CARTESIAN COORDINATES (ANGSTROEM)
---------------------------------
  S    -141.492000    6.564160    2.748860
  C    -140.790000    5.287480    3.799620
  C    -140.560000    5.758920    5.059840
  C    -141.118000    7.071260    5.277250
  C    -141.802000    7.561390    4.188040
  H    -141.052000    7.660930    6.186190
  C    -139.611000    5.103440    6.047950
  H    -139.000000    5.860280    6.449560
  H    -138.949000    4.511340    5.439560
  C    -140.267000    4.421710    7.311610
  H    -139.445000    4.194120    7.957110
  H    -140.833000    5.187140    7.888140
  C    -141.116000    3.162980    7.194390
  H    -142.100000    3.487220    6.697190
  H    -140.633000    2.295670    6.620670
  H    -141.459000    2.858760    8.194870
  S    -141.813000   10.127000    2.919240
  C    -143.052000   11.240500    3.478230
  C    -143.963000   10.713900    4.325180
  C    -143.678000    9.415390    4.748490
  C    -142.550000    8.867020    4.092780
  H    -144.852000   11.253300    4.569430
  C    -144.502000    8.794810    5.881210
  H    -144.557000    9.564820    6.624080
  H    -144.000000    7.929430    6.293580
  C    -145.928000    8.428280    5.603610
  H    -145.969000    7.790090    4.722970
  H    -146.509000    9.331520    5.296740
  C    -146.790000    7.789970    6.696180
  H    -146.365000    6.838010    6.928950
  H    -147.822000    7.639410    6.350660
  H    -146.772000    8.451250    7.565000
  H    -140.371000    4.416000    3.354940
  H    -143.113000   12.266200    3.174590

 Total Charge           Charge          ....    0
 Multiplicity           Mult            ....    1
 Number of Electrons    NEL             ....  134
 Basis Dimension        Dim             ....  322

ORBITAL ENERGIES
----------------

  NO   OCC          E(Eh)            E(eV)
   0   2.0000     -88.965975     -2420.8873
   1   2.0000     -88.962288     -2420.7869
   2   2.0000     -10.340989      -281.3926
   3   2.0000     -10.335098      -281.2323
   4   2.0000     -10.315442      -280.6974
   5   2.0000     -10.313413      -280.6422
   6   2.0000     -10.310439      -280.5613
   7   2.0000     -10.301350      -280.3140
   8   2.0000     -10.295445      -280.1533
   9   2.0000     -10.291831      -280.0550
  10   2.0000     -10.290713      -280.0245
  11   2.0000     -10.290505      -280.0189
  12   2.0000     -10.289243      -279.9845
  13   2.0000     -10.286309      -279.9047
  14   2.0000     -10.283221      -279.8207
  15   2.0000     -10.278661      -279.6966
  16   2.0000      -8.079133      -219.8444
  17   2.0000      -8.076281      -219.7668
  18   2.0000      -6.037679      -164.2936
  19   2.0000      -6.034928      -164.2187
  20   2.0000      -6.034113      -164.1966
  21   2.0000      -6.031165      -164.1164
  22   2.0000      -6.029706      -164.0767
  23   2.0000      -6.026666      -163.9939
  24   2.0000      -0.995190       -27.0805
  25   2.0000      -0.978743       -26.6329
  26   2.0000      -0.912029       -24.8176
  27   2.0000      -0.904782       -24.6204
  28   2.0000      -0.862421       -23.4677
  29   2.0000      -0.852870       -23.2078
  30   2.0000      -0.841989       -22.9117
  31   2.0000      -0.814626       -22.1671
  32   2.0000      -0.787499       -21.4289
  33   2.0000      -0.775059       -21.0904
  34   2.0000      -0.704735       -19.1768
  35   2.0000      -0.692978       -18.8569
  36   2.0000      -0.690634       -18.7931
  37   2.0000      -0.657979       -17.9045
  38   2.0000      -0.642286       -17.4775
  39   2.0000      -0.616192       -16.7674
  40   2.0000      -0.599300       -16.3078
  41   2.0000      -0.572707       -15.5841
  42   2.0000      -0.562430       -15.3045
  43   2.0000      -0.545154       -14.8344
  44   2.0000      -0.536989       -14.6122
  45   2.0000      -0.526200       -14.3186
  46   2.0000      -0.522111       -14.2074
  47   2.0000      -0.512361       -13.9420
  48   2.0000      -0.499343       -13.5878
  49   2.0000      -0.497471       -13.5369
  50   2.0000      -0.484632       -13.1875
  51   2.0000      -0.480518       -13.0756
  52   2.0000      -0.470649       -12.8070
  53   2.0000      -0.467134       -12.7113
  54   2.0000      -0.462431       -12.5834
  55   2.0000      -0.449352       -12.2275
  56   2.0000      -0.440482       -11.9861
  57   2.0000      -0.438126       -11.9220
  58   2.0000      -0.432425       -11.7669
  59   2.0000      -0.427405       -11.6303
  60   2.0000      -0.416311       -11.3284
  61   2.0000      -0.414544       -11.2803
  62   2.0000      -0.408133       -11.1059
  63   2.0000      -0.339779        -9.2459
  64   2.0000      -0.334446        -9.1007
  65   2.0000      -0.327267        -8.9054
  66   2.0000      -0.295026        -8.0281
  67   0.0000       0.031424         0.8551
  68   0.0000       0.055409         1.5078
  69   0.0000       0.101901         2.7729
  70   0.0000       0.108344         2.9482
  71   0.0000       0.127751         3.4763

MULLIKEN ATOMIC CHARGES
-----------------------
   0 S :    0.083817
   1 C :   -0.117850
   2 C :   -0.081952
   3 C :    0.038594
   4 C :   -0.149793
   5 H :    0.018845
   6 C :    0.103145
   7 H :    0.016131
   8 H :    0.014499
   9 C :   -0.080570
  10 H :    0.022035
  11 H :    0.027195
  12 C :   -0.076157
  13 H :    0.042988
  14 H :    0.052523
  15 H :    0.035899
  16 S :    0.082907
  17 C :   -0.071469
  18 C :   -0.035769
  19 C :   -0.003928
  20 C :   -0.179072
  21 H :    0.015028
  22 C :    0.125103
  23 H :    0.015404
  24 H :    0.015499
  25 C :   -0.126654
  26 H :    0.028953
  27 H :    0.019568
  28 C :   -0.022034
  29 H :    0.026237
  30 H :    0.043065
  31 H :    0.027607
  32 H :    0.041237
  33 H :    0.048969
Sum of atomic charges:    0.0000000

LOEWDIN ATOMIC CHARGES
----------------------
   0 S :    0.364542
   1 C :   -0.173681
   2 C :   -0.062763
   3 C :   -0.062804
   4 C :   -0.181631
   5 H :    0.033485
   6 C :   -0.022435
   7 H :    0.030387
   8 H :    0.027571
   9 C :   -0.045527
  10 H :    0.018867
  11 H :    0.028537
  12 C :   -0.079138
  13 H :    0.033573
  14 H :    0.033662
  15 H :    0.028150
  16 S :    0.349641
  17 C :   -0.165508
  18 C :   -0.076203
  19 C :   -0.041893
  20 C :   -0.162085
  21 H :    0.031493
  22 C :   -0.025547
  23 H :    0.029369
  24 H :    0.028500
  25 C :   -0.049193
  26 H :    0.022895
  27 H :    0.021489
  28 C :   -0.057159
  29 H :    0.019889
  30 H :    0.033071
  31 H :    0.023625
  32 H :    0.020634
  33 H :    0.026189

  Mayer bond orders larger than 0.100000
B(  0-S ,  1-C ) :   1.1141 B(  0-S ,  4-C ) :   1.1374 B(  1-C ,  2-C ) :   1.6399
B(  1-C , 32-H ) :   0.9739 B(  2-C ,  3-C ) :   1.1996 B(  2-C ,  6-C ) :   1.0177
B(  3-C ,  4-C ) :   1.6114 B(  3-C ,  5-H ) :   0.9938 B(  4-C , 20-C ) :   1.0147
B(  6-C ,  7-H ) :   0.9363 B(  6-C ,  8-H ) :   0.9466 B(  6-C ,  9-C ) :   1.0595
B(  9-C , 10-H ) :   0.9561 B(  9-C , 11-H ) :   0.9546 B(  9-C , 12-C ) :   1.0820
B( 12-C , 13-H ) :   0.9732 B( 12-C , 14-H ) :   0.9737 B( 12-C , 15-H ) :   0.9698
B( 16-S , 17-C ) :   1.1437 B( 16-S , 20-C ) :   1.1108 B( 17-C , 18-C ) :   1.6492
B( 17-C , 20-C ) :   0.1001 B( 17-C , 33-H ) :   0.9617 B( 18-C , 19-C ) :   1.2219
B( 18-C , 21-H ) :   0.9885 B( 19-C , 20-C ) :   1.6235 B( 19-C , 22-C ) :   1.0397
B( 22-C , 23-H ) :   0.9276 B( 22-C , 24-H ) :   0.9314 B( 22-C , 25-C ) :   1.0682
B( 25-C , 26-H ) :   0.9533 B( 25-C , 27-H ) :   0.9521 B( 25-C , 28-C ) :   1.0919
B( 28-C , 29-H ) :   0.9745 B( 28-C , 30-H ) :   0.9726 B( 28-C , 31-H ) :   0.9740

Dispersion correction           -0.013417529
FINAL SINGLE POINT ENERGY     -1339.869256662537

DIPOLE MOMENT
-------------
                                X             Y             Z
Electronic contribution:     10.68226      14.28540     -23.45441
Nuclear contribution   :    -10.77495     -14.29636      24.15088
                        -----------------------------------------
Total Dipole Moment    :     -0.09269      -0.01096       0.69647
                        -----------------------------------------
Magnitude (a.u.)       :      0.70270
Magnitude (Debye)      :      1.78611

Rotational constants in cm-1:     0.016381     0.008542     0.006353
Rotational constants in MHz :   491.086522   256.069402   190.458822

                             ****ORCA TERMINATED NORMALLY****
TOTAL RUN TIME: 0 days 0 hours 0 minutes 20 seconds 696 msec
