                         Program Version 4.2.1 -  RELEASE  -
|  1> ! wB97X-D3 SP def2-SVP
|  2> %pal
|  3> nprocs 24
|  4> end
|  5>
|  6> * xyz 0 1
|  7> S 	 -107.942 	 41.9076 	 -12.9622
|  8> C 	 -107.307 	 43.521 	 -13.2925
|  9> C 	 -107.308 	 44.2796 	 -12.1253
| 10> C 	 -107.739 	 43.5749 	 -10.9918
| 11> C 	 -108.056 	 42.2557 	 -11.2554
| 12> H 	 -107.721 	 43.9346 	 -9.97439
| 13> C 	 -106.945 	 45.8184 	 -11.9091
| 14> H 	 -105.934 	 45.9237 	 -12.2644
| 15> H 	 -107.001 	 45.9232 	 -10.8425
| 16> C 	 -107.751 	 46.8825 	 -12.5975
| 17> H 	 -107.296 	 47.8768 	 -12.4339
| 18> H 	 -107.83 	 46.7587 	 -13.7209
| 19> C 	 -109.083 	 47.1481 	 -11.9921
| 20> H 	 -109.857 	 46.4434 	 -12.2438
| 21> H 	 -108.954 	 47.1383 	 -10.9657
| 22> H 	 -109.459 	 48.1201 	 -12.2578
| 23> S 	 -110.011 	 40.4257 	 -10.54
| 24> C 	 -110.042 	 39.7757 	 -8.91921
| 25> C 	 -108.801 	 40.0356 	 -8.322
| 26> C 	 -107.905 	 40.895 	 -9.0772
| 27> C 	 -108.481 	 41.2874 	 -10.2918
| 28> H 	 -108.707 	 39.4299 	 -7.4255
| 29> C 	 -106.59 	 41.3303 	 -8.45548
| 30> H 	 -106.049 	 42.0631 	 -9.10129
| 31> H 	 -105.944 	 40.4445 	 -8.42698
| 32> C 	 -106.55 	 41.9306 	 -7.05145
| 33> H 	 -105.683 	 42.5976 	 -6.98444
| 34> H 	 -106.531 	 41.1475 	 -6.35339
| 35> C 	 -107.748 	 42.7617 	 -6.74985
| 36> H 	 -108.641 	 42.0892 	 -6.63237
| 37> H 	 -107.848 	 43.6577 	 -7.38034
| 38> H 	 -107.646 	 43.1575 	 -5.66432
| 39> H 	 -107.01 	 43.9553 	 -14.2542
| 40> H 	 -110.789 	 39.0734 	 -8.49122
| 41> *
| 42>
| 43>                          ****END OF INPUT****

CARTESIAN COORDINATES (ANGSTROEM)
---------------------------------
  S    -107.942000   41.907600  -12.962200
  C    -107.307000   43.521000  -13.292500
  C    -107.308000   44.279600  -12.125300
  C    -107.739000   43.574900  -10.991800
  C    -108.056000   42.255700  -11.255400
  H    -107.721000   43.934600   -9.974390
  C    -106.945000   45.818400  -11.909100
  H    -105.934000   45.923700  -12.264400
  H    -107.001000   45.923200  -10.842500
  C    -107.751000   46.882500  -12.597500
  H    -107.296000   47.876800  -12.433900
  H    -107.830000   46.758700  -13.720900
  C    -109.083000   47.148100  -11.992100
  H    -109.857000   46.443400  -12.243800
  H    -108.954000   47.138300  -10.965700
  H    -109.459000   48.120100  -12.257800
  S    -110.011000   40.425700  -10.540000
  C    -110.042000   39.775700   -8.919210
  C    -108.801000   40.035600   -8.322000
  C    -107.905000   40.895000   -9.077200
  C    -108.481000   41.287400  -10.291800
  H    -108.707000   39.429900   -7.425500
  C    -106.590000   41.330300   -8.455480
  H    -106.049000   42.063100   -9.101290
  H    -105.944000   40.444500   -8.426980
  C    -106.550000   41.930600   -7.051450
  H    -105.683000   42.597600   -6.984440
  H    -106.531000   41.147500   -6.353390
  C    -107.748000   42.761700   -6.749850
  H    -108.641000   42.089200   -6.632370
  H    -107.848000   43.657700   -7.380340
  H    -107.646000   43.157500   -5.664320
  H    -107.010000   43.955300  -14.254200
  H    -110.789000   39.073400   -8.491220

 Total Charge           Charge          ....    0
 Multiplicity           Mult            ....    1
 Number of Electrons    NEL             ....  134
 Basis Dimension        Dim             ....  322

ORBITAL ENERGIES
----------------

  NO   OCC          E(Eh)            E(eV)
   0   2.0000     -88.970918     -2421.0218
   1   2.0000     -88.963730     -2420.8262
   2   2.0000     -10.330135      -281.0973
   3   2.0000     -10.327544      -281.0268
   4   2.0000     -10.322609      -280.8925
   5   2.0000     -10.318067      -280.7689
   6   2.0000     -10.312468      -280.6165
   7   2.0000     -10.302501      -280.3453
   8   2.0000     -10.297907      -280.2203
   9   2.0000     -10.293638      -280.1041
  10   2.0000     -10.291629      -280.0495
  11   2.0000     -10.290573      -280.0207
  12   2.0000     -10.286529      -279.9107
  13   2.0000     -10.281354      -279.7699
  14   2.0000     -10.279884      -279.7299
  15   2.0000     -10.261766      -279.2368
  16   2.0000      -8.085096      -220.0066
  17   2.0000      -8.078250      -219.8204
  18   2.0000      -6.043613      -164.4551
  19   2.0000      -6.039661      -164.3475
  20   2.0000      -6.036818      -164.2702
  21   2.0000      -6.035896      -164.2451
  22   2.0000      -6.032789      -164.1605
  23   2.0000      -6.028943      -164.0559
  24   2.0000      -1.006138       -27.3784
  25   2.0000      -0.980979       -26.6938
  26   2.0000      -0.915884       -24.9225
  27   2.0000      -0.914016       -24.8716
  28   2.0000      -0.872442       -23.7403
  29   2.0000      -0.853956       -23.2373
  30   2.0000      -0.843404       -22.9502
  31   2.0000      -0.812212       -22.1014
  32   2.0000      -0.786413       -21.3994
  33   2.0000      -0.774999       -21.0888
  34   2.0000      -0.709262       -19.3000
  35   2.0000      -0.697839       -18.9892
  36   2.0000      -0.685137       -18.6435
  37   2.0000      -0.655006       -17.8236
  38   2.0000      -0.637141       -17.3375
  39   2.0000      -0.616251       -16.7690
  40   2.0000      -0.594368       -16.1736
  41   2.0000      -0.574156       -15.6236
  42   2.0000      -0.561047       -15.2669
  43   2.0000      -0.556328       -15.1384
  44   2.0000      -0.549336       -14.9482
  45   2.0000      -0.541285       -14.7291
  46   2.0000      -0.520161       -14.1543
  47   2.0000      -0.512614       -13.9489
  48   2.0000      -0.506532       -13.7834
  49   2.0000      -0.495077       -13.4717
  50   2.0000      -0.487490       -13.2653
  51   2.0000      -0.480240       -13.0680
  52   2.0000      -0.476121       -12.9559
  53   2.0000      -0.464929       -12.6514
  54   2.0000      -0.460178       -12.5221
  55   2.0000      -0.443315       -12.0632
  56   2.0000      -0.439569       -11.9613
  57   2.0000      -0.434980       -11.8364
  58   2.0000      -0.430681       -11.7194
  59   2.0000      -0.422402       -11.4941
  60   2.0000      -0.417580       -11.3629
  61   2.0000      -0.411350       -11.1934
  62   2.0000      -0.403083       -10.9685
  63   2.0000      -0.346116        -9.4183
  64   2.0000      -0.336020        -9.1436
  65   2.0000      -0.325856        -8.8670
  66   2.0000      -0.291332        -7.9275
  67   0.0000       0.027804         0.7566
  68   0.0000       0.064171         1.7462
  69   0.0000       0.108197         2.9442
  70   0.0000       0.119771         3.2591
  71   0.0000       0.127123         3.4592

MULLIKEN ATOMIC CHARGES
-----------------------
   0 S :    0.124645
   1 C :   -0.130975
   2 C :   -0.096464
   3 C :    0.032277
   4 C :   -0.158940
   5 H :    0.002676
   6 C :    0.109679
   7 H :    0.031583
   8 H :    0.007807
   9 C :   -0.095369
  10 H :    0.028286
  11 H :    0.036857
  12 C :   -0.008290
  13 H :    0.034180
  14 H :   -0.000329
  15 H :    0.020709
  16 S :    0.100822
  17 C :   -0.123293
  18 C :   -0.060720
  19 C :   -0.010230
  20 C :   -0.158411
  21 H :    0.026333
  22 C :    0.055766
  23 H :    0.028721
  24 H :    0.038375
  25 C :   -0.042494
  26 H :    0.033925
  27 H :    0.014768
  28 C :   -0.086985
  29 H :    0.043669
  30 H :    0.043618
  31 H :    0.030167
  32 H :    0.049904
  33 H :    0.077733
Sum of atomic charges:   -0.0000000

LOEWDIN ATOMIC CHARGES
----------------------
   0 S :    0.412933
   1 C :   -0.202979
   2 C :   -0.061651
   3 C :   -0.064842
   4 C :   -0.194436
   5 H :    0.029410
   6 C :   -0.020389
   7 H :    0.032604
   8 H :    0.024474
   9 C :   -0.050168
  10 H :    0.031349
  11 H :    0.028732
  12 C :   -0.058344
  13 H :    0.023813
  14 H :    0.013907
  15 H :    0.024116
  16 S :    0.394127
  17 C :   -0.195342
  18 C :   -0.079812
  19 C :   -0.050535
  20 C :   -0.192190
  21 H :    0.032733
  22 C :   -0.039900
  23 H :    0.033230
  24 H :    0.037785
  25 C :   -0.041877
  26 H :    0.030500
  27 H :    0.016489
  28 C :   -0.075180
  29 H :    0.032135
  30 H :    0.022694
  31 H :    0.031382
  32 H :    0.033649
  33 H :    0.041583

  Mayer bond orders larger than 0.100000
B(  0-S ,  1-C ) :   1.1347 B(  0-S ,  4-C ) :   1.1601 B(  1-C ,  2-C ) :   1.6073
B(  1-C ,  4-C ) :   0.1051 B(  1-C , 32-H ) :   0.9687 B(  2-C ,  3-C ) :   1.2649
B(  2-C ,  6-C ) :   0.9916 B(  3-C ,  4-C ) :   1.5510 B(  3-C ,  5-H ) :   0.9947
B(  4-C , 20-C ) :   1.0581 B(  6-C ,  7-H ) :   0.9341 B(  6-C ,  8-H ) :   0.9440
B(  6-C ,  9-C ) :   1.0922 B(  9-C , 10-H ) :   0.9514 B(  9-C , 11-H ) :   0.9524
B(  9-C , 12-C ) :   1.0802 B( 12-C , 13-H ) :   0.9743 B( 12-C , 14-H ) :   0.9694
B( 12-C , 15-H ) :   0.9742 B( 16-S , 17-C ) :   1.1522 B( 16-S , 20-C ) :   1.1330
B( 17-C , 18-C ) :   1.6237 B( 17-C , 20-C ) :   0.1000 B( 17-C , 33-H ) :   0.9623
B( 18-C , 19-C ) :   1.2016 B( 18-C , 21-H ) :   0.9865 B( 19-C , 20-C ) :   1.5866
B( 19-C , 22-C ) :   1.0555 B( 22-C , 23-H ) :   0.9353 B( 22-C , 24-H ) :   0.9322
B( 22-C , 25-C ) :   1.0671 B( 25-C , 26-H ) :   0.9573 B( 25-C , 27-H ) :   0.9426
B( 25-C , 28-C ) :   1.1196 B( 28-C , 29-H ) :   0.9585 B( 28-C , 30-H ) :   0.9714
B( 28-C , 31-H ) :   0.9674

Dispersion correction           -0.014697928
FINAL SINGLE POINT ENERGY     -1339.863939731797

DIPOLE MOMENT
-------------
                                X             Y             Z
Electronic contribution:     -7.01807     -21.76762     -13.60515
Nuclear contribution   :      7.33626      22.10863      14.08235
                        -----------------------------------------
Total Dipole Moment    :      0.31819       0.34101       0.47720
                        -----------------------------------------
Magnitude (a.u.)       :      0.66727
Magnitude (Debye)      :      1.69607

Rotational constants in cm-1:     0.018959     0.008695     0.007126
Rotational constants in MHz :   568.370354   260.678408   213.626447

                             ****ORCA TERMINATED NORMALLY****
TOTAL RUN TIME: 0 days 0 hours 0 minutes 20 seconds 854 msec
