                         Program Version 4.2.1 -  RELEASE  -
|  1> ! wB97X-D3 SP def2-SVP
|  2> %pal
|  3> nprocs 24
|  4> end
|  5>
|  6> * xyz 0 1
|  7> S 	 -39.7346 	 19.1866 	 -97.5172
|  8> C 	 -38.1969 	 18.469 	 -97.7979
|  9> C 	 -38.1218 	 17.2139 	 -97.2262
| 10> C 	 -39.1719 	 16.924 	 -96.362
| 11> C 	 -40.1998 	 17.8474 	 -96.4535
| 12> H 	 -39.2488 	 16.0495 	 -95.807
| 13> C 	 -37.0117 	 16.1806 	 -97.4998
| 14> H 	 -36.856 	 15.572 	 -96.5994
| 15> H 	 -36.0792 	 16.7075 	 -97.6122
| 16> C 	 -37.1779 	 15.2866 	 -98.6627
| 17> H 	 -37.0426 	 15.9594 	 -99.4862
| 18> H 	 -36.3344 	 14.5541 	 -98.8009
| 19> C 	 -38.5269 	 14.6214 	 -98.8023
| 20> H 	 -38.6485 	 14.1215 	 -99.7611
| 21> H 	 -38.527 	 13.8213 	 -98.0899
| 22> H 	 -39.4369 	 15.2046 	 -98.5782
| 23> S 	 -41.7827 	 19.4005 	 -94.8334
| 24> C 	 -42.9987 	 18.611 	 -93.8551
| 25> C 	 -42.9706 	 17.2906 	 -93.9857
| 26> C 	 -42.1152 	 16.836 	 -95.0699
| 27> C 	 -41.3472 	 17.861 	 -95.6043
| 28> H 	 -43.5708 	 16.715 	 -93.2292
| 29> C 	 -41.9355 	 15.337 	 -95.2538
| 30> H 	 -41.4257 	 14.8454 	 -94.4182
| 31> H 	 -41.266 	 15.2944 	 -96.069
| 32> C 	 -43.1573 	 14.5225 	 -95.5054
| 33> H 	 -43.724 	 14.964 	 -96.3182
| 34> H 	 -43.719 	 14.6499 	 -94.5634
| 35> C 	 -42.7866 	 13.0199 	 -95.6868
| 36> H 	 -43.693 	 12.543 	 -95.9586
| 37> H 	 -42.2911 	 12.4669 	 -94.9684
| 38> H 	 -41.9978 	 12.9552 	 -96.504
| 39> H 	 -37.377 	 18.803 	 -98.4564
| 40> H 	 -43.604 	 19.163 	 -93.1251
| 41> *
| 42>
| 43>                          ****END OF INPUT****

CARTESIAN COORDINATES (ANGSTROEM)
---------------------------------
  S    -39.734600   19.186600  -97.517200
  C    -38.196900   18.469000  -97.797900
  C    -38.121800   17.213900  -97.226200
  C    -39.171900   16.924000  -96.362000
  C    -40.199800   17.847400  -96.453500
  H    -39.248800   16.049500  -95.807000
  C    -37.011700   16.180600  -97.499800
  H    -36.856000   15.572000  -96.599400
  H    -36.079200   16.707500  -97.612200
  C    -37.177900   15.286600  -98.662700
  H    -37.042600   15.959400  -99.486200
  H    -36.334400   14.554100  -98.800900
  C    -38.526900   14.621400  -98.802300
  H    -38.648500   14.121500  -99.761100
  H    -38.527000   13.821300  -98.089900
  H    -39.436900   15.204600  -98.578200
  S    -41.782700   19.400500  -94.833400
  C    -42.998700   18.611000  -93.855100
  C    -42.970600   17.290600  -93.985700
  C    -42.115200   16.836000  -95.069900
  C    -41.347200   17.861000  -95.604300
  H    -43.570800   16.715000  -93.229200
  C    -41.935500   15.337000  -95.253800
  H    -41.425700   14.845400  -94.418200
  H    -41.266000   15.294400  -96.069000
  C    -43.157300   14.522500  -95.505400
  H    -43.724000   14.964000  -96.318200
  H    -43.719000   14.649900  -94.563400
  C    -42.786600   13.019900  -95.686800
  H    -43.693000   12.543000  -95.958600
  H    -42.291100   12.466900  -94.968400
  H    -41.997800   12.955200  -96.504000
  H    -37.377000   18.803000  -98.456400
  H    -43.604000   19.163000  -93.125100

 Total Charge           Charge          ....    0
 Multiplicity           Mult            ....    1
 Number of Electrons    NEL             ....  134
 Basis Dimension        Dim             ....  322

ORBITAL ENERGIES
----------------

  NO   OCC          E(Eh)            E(eV)
   0   2.0000     -88.972987     -2421.0781
   1   2.0000     -88.960070     -2420.7266
   2   2.0000     -10.329862      -281.0898
   3   2.0000     -10.328675      -281.0575
   4   2.0000     -10.315465      -280.6981
   5   2.0000     -10.312224      -280.6099
   6   2.0000     -10.304731      -280.4060
   7   2.0000     -10.297003      -280.1957
   8   2.0000     -10.292581      -280.0754
   9   2.0000     -10.287881      -279.9475
  10   2.0000     -10.287813      -279.9456
  11   2.0000     -10.286343      -279.9056
  12   2.0000     -10.283089      -279.8171
  13   2.0000     -10.282771      -279.8084
  14   2.0000     -10.277452      -279.6637
  15   2.0000     -10.272498      -279.5289
  16   2.0000      -8.087407      -220.0695
  17   2.0000      -8.075039      -219.7330
  18   2.0000      -6.045896      -164.5172
  19   2.0000      -6.041951      -164.4098
  20   2.0000      -6.038210      -164.3080
  21   2.0000      -6.033672      -164.1846
  22   2.0000      -6.029610      -164.0740
  23   2.0000      -6.025549      -163.9635
  24   2.0000      -1.011465       -27.5234
  25   2.0000      -0.987724       -26.8773
  26   2.0000      -0.919248       -25.0140
  27   2.0000      -0.915140       -24.9022
  28   2.0000      -0.877350       -23.8739
  29   2.0000      -0.855607       -23.2822
  30   2.0000      -0.843550       -22.9542
  31   2.0000      -0.817418       -22.2431
  32   2.0000      -0.788287       -21.4504
  33   2.0000      -0.776281       -21.1237
  34   2.0000      -0.711866       -19.3709
  35   2.0000      -0.702395       -19.1131
  36   2.0000      -0.696829       -18.9617
  37   2.0000      -0.657103       -17.8807
  38   2.0000      -0.637819       -17.3559
  39   2.0000      -0.621078       -16.9004
  40   2.0000      -0.598132       -16.2760
  41   2.0000      -0.575584       -15.6624
  42   2.0000      -0.572121       -15.5682
  43   2.0000      -0.554394       -15.0858
  44   2.0000      -0.550091       -14.9687
  45   2.0000      -0.531551       -14.4642
  46   2.0000      -0.512164       -13.9367
  47   2.0000      -0.511182       -13.9100
  48   2.0000      -0.505384       -13.7522
  49   2.0000      -0.504693       -13.7334
  50   2.0000      -0.495423       -13.4811
  51   2.0000      -0.479279       -13.0418
  52   2.0000      -0.472772       -12.8648
  53   2.0000      -0.469285       -12.7699
  54   2.0000      -0.451777       -12.2935
  55   2.0000      -0.449368       -12.2279
  56   2.0000      -0.445277       -12.1166
  57   2.0000      -0.441217       -12.0061
  58   2.0000      -0.440478       -11.9860
  59   2.0000      -0.427464       -11.6319
  60   2.0000      -0.421994       -11.4831
  61   2.0000      -0.406827       -11.0703
  62   2.0000      -0.403586       -10.9821
  63   2.0000      -0.358091        -9.7441
  64   2.0000      -0.334777        -9.1097
  65   2.0000      -0.327657        -8.9160
  66   2.0000      -0.288806        -7.8588
  67   0.0000       0.022352         0.6082
  68   0.0000       0.081064         2.2059
  69   0.0000       0.104222         2.8360
  70   0.0000       0.115454         3.1417
  71   0.0000       0.127537         3.4705

MULLIKEN ATOMIC CHARGES
-----------------------
   0 S :    0.129814
   1 C :   -0.117869
   2 C :   -0.107719
   3 C :    0.037495
   4 C :   -0.157108
   5 H :   -0.008247
   6 C :    0.080077
   7 H :    0.016285
   8 H :    0.013664
   9 C :   -0.046693
  10 H :    0.005759
  11 H :    0.037003
  12 C :   -0.053298
  13 H :    0.031584
  14 H :    0.009420
  15 H :    0.057561
  16 S :    0.083663
  17 C :   -0.095007
  18 C :   -0.050842
  19 C :   -0.041776
  20 C :   -0.111862
  21 H :    0.044265
  22 C :    0.048706
  23 H :    0.034668
  24 H :   -0.004560
  25 C :   -0.070890
  26 H :    0.036615
  27 H :    0.026321
  28 C :   -0.015075
  29 H :    0.034485
  30 H :    0.016657
  31 H :    0.022149
  32 H :    0.054569
  33 H :    0.060189
Sum of atomic charges:    0.0000000

LOEWDIN ATOMIC CHARGES
----------------------
   0 S :    0.418428
   1 C :   -0.209279
   2 C :   -0.064444
   3 C :   -0.047089
   4 C :   -0.188886
   5 H :    0.021926
   6 C :   -0.030878
   7 H :    0.025589
   8 H :    0.028462
   9 C :   -0.046619
  10 H :    0.016751
  11 H :    0.033552
  12 C :   -0.069048
  13 H :    0.028180
  14 H :    0.018604
  15 H :    0.032192
  16 S :    0.380186
  17 C :   -0.180604
  18 C :   -0.081484
  19 C :   -0.055004
  20 C :   -0.183393
  21 H :    0.043490
  22 C :   -0.039535
  23 H :    0.033193
  24 H :    0.015547
  25 C :   -0.034387
  26 H :    0.027790
  27 H :    0.023830
  28 C :   -0.060061
  29 H :    0.024829
  30 H :    0.015492
  31 H :    0.032327
  32 H :    0.037418
  33 H :    0.032925

  Mayer bond orders larger than 0.100000
B(  0-S ,  1-C ) :   1.1464 B(  0-S ,  4-C ) :   1.1484 B(  1-C ,  2-C ) :   1.5961
B(  1-C , 32-H ) :   0.9595 B(  2-C ,  3-C ) :   1.2787 B(  2-C ,  6-C ) :   1.0162
B(  3-C ,  4-C ) :   1.5238 B(  3-C ,  5-H ) :   0.9989 B(  4-C , 20-C ) :   1.0845
B(  6-C ,  7-H ) :   0.9407 B(  6-C ,  8-H ) :   0.9352 B(  6-C ,  9-C ) :   1.0807
B(  9-C , 10-H ) :   0.9490 B(  9-C , 11-H ) :   0.9509 B(  9-C , 12-C ) :   1.0822
B( 12-C , 13-H ) :   0.9708 B( 12-C , 14-H ) :   0.9737 B( 12-C , 15-H ) :   0.9700
B( 16-S , 17-C ) :   1.1300 B( 16-S , 20-C ) :   1.1178 B( 17-C , 18-C ) :   1.6795
B( 17-C , 33-H ) :   0.9614 B( 18-C , 19-C ) :   1.1801 B( 18-C , 21-H ) :   0.9779
B( 19-C , 20-C ) :   1.6211 B( 19-C , 22-C ) :   1.0479 B( 22-C , 23-H ) :   0.9396
B( 22-C , 24-H ) :   0.9211 B( 22-C , 25-C ) :   1.0654 B( 25-C , 26-H ) :   0.9556
B( 25-C , 27-H ) :   0.9521 B( 25-C , 28-C ) :   1.0754 B( 28-C , 29-H ) :   0.9748
B( 28-C , 30-H ) :   0.9747 B( 28-C , 31-H ) :   0.9721

Dispersion correction           -0.014580481
FINAL SINGLE POINT ENERGY     -1339.865656140910

DIPOLE MOMENT
-------------
                                X             Y             Z
Electronic contribution:     -3.50766      30.38819       5.34173
Nuclear contribution   :      3.71416     -31.09007      -5.20003
                        -----------------------------------------
Total Dipole Moment    :      0.20649      -0.70188       0.14171
                        -----------------------------------------
Magnitude (a.u.)       :      0.74522
Magnitude (Debye)      :      1.89421

Rotational constants in cm-1:     0.016466     0.010437     0.006803
Rotational constants in MHz :   493.623842   312.906786   203.953323

                             ****ORCA TERMINATED NORMALLY****
TOTAL RUN TIME: 0 days 0 hours 0 minutes 22 seconds 347 msec
