                         Program Version 4.2.1 -  RELEASE  -
|  1> ! wB97X-D3 SP def2-SVP
|  2> %pal
|  3> nprocs 24
|  4> end
|  5>
|  6> * xyz 0 1
|  7> S 	 -101.83 	 22.4907 	 -115.906
|  8> C 	 -102.985 	 21.1607 	 -116.368
|  9> C 	 -104.012 	 21.6544 	 -117.23
| 10> C 	 -103.721 	 22.9095 	 -117.723
| 11> C 	 -102.599 	 23.478 	 -117.082
| 12> H 	 -104.323 	 23.5249 	 -118.316
| 13> C 	 -105.255 	 20.8931 	 -117.601
| 14> H 	 -105.675 	 21.3749 	 -118.483
| 15> H 	 -105.919 	 20.9899 	 -116.78
| 16> C 	 -105.079 	 19.4047 	 -117.961
| 17> H 	 -104.588 	 19.3819 	 -118.909
| 18> H 	 -104.488 	 19.0405 	 -117.159
| 19> C 	 -106.373 	 18.6454 	 -118.043
| 20> H 	 -106.341 	 17.539 	 -117.941
| 21> H 	 -107.025 	 18.9659 	 -117.235
| 22> H 	 -106.771 	 18.6705 	 -119.043
| 23> S 	 -103.437 	 26.0411 	 -117.235
| 24> C 	 -102.224 	 27.3492 	 -117.406
| 25> C 	 -100.943 	 26.8325 	 -117.19
| 26> C 	 -100.87 	 25.4294 	 -117.352
| 27> C 	 -102.173 	 24.8609 	 -117.334
| 28> H 	 -100.056 	 27.3746 	 -117.162
| 29> C 	 -99.5364 	 24.6918 	 -117.294
| 30> H 	 -99.5273 	 24.2271 	 -116.301
| 31> H 	 -98.6308 	 25.4138 	 -117.353
| 32> C 	 -99.2805 	 23.5211 	 -118.313
| 33> H 	 -99.0365 	 23.8348 	 -119.368
| 34> H 	 -100.225 	 23.0792 	 -118.533
| 35> C 	 -98.3907 	 22.4566 	 -117.685
| 36> H 	 -97.8381 	 21.8143 	 -118.444
| 37> H 	 -98.6684 	 21.795 	 -116.872
| 38> H 	 -97.5797 	 23.0443 	 -117.236
| 39> H 	 -102.982 	 20.2318 	 -115.838
| 40> H 	 -102.464 	 28.4134 	 -117.323
| 41> *
| 42>
| 43>                          ****END OF INPUT****

CARTESIAN COORDINATES (ANGSTROEM)
---------------------------------
  S    -101.830000   22.490700  -115.906000
  C    -102.985000   21.160700  -116.368000
  C    -104.012000   21.654400  -117.230000
  C    -103.721000   22.909500  -117.723000
  C    -102.599000   23.478000  -117.082000
  H    -104.323000   23.524900  -118.316000
  C    -105.255000   20.893100  -117.601000
  H    -105.675000   21.374900  -118.483000
  H    -105.919000   20.989900  -116.780000
  C    -105.079000   19.404700  -117.961000
  H    -104.588000   19.381900  -118.909000
  H    -104.488000   19.040500  -117.159000
  C    -106.373000   18.645400  -118.043000
  H    -106.341000   17.539000  -117.941000
  H    -107.025000   18.965900  -117.235000
  H    -106.771000   18.670500  -119.043000
  S    -103.437000   26.041100  -117.235000
  C    -102.224000   27.349200  -117.406000
  C    -100.943000   26.832500  -117.190000
  C    -100.870000   25.429400  -117.352000
  C    -102.173000   24.860900  -117.334000
  H    -100.056000   27.374600  -117.162000
  C    -99.536400   24.691800  -117.294000
  H    -99.527300   24.227100  -116.301000
  H    -98.630800   25.413800  -117.353000
  C    -99.280500   23.521100  -118.313000
  H    -99.036500   23.834800  -119.368000
  H    -100.225000   23.079200  -118.533000
  C    -98.390700   22.456600  -117.685000
  H    -97.838100   21.814300  -118.444000
  H    -98.668400   21.795000  -116.872000
  H    -97.579700   23.044300  -117.236000
  H    -102.982000   20.231800  -115.838000
  H    -102.464000   28.413400  -117.323000

 Total Charge           Charge          ....    0
 Multiplicity           Mult            ....    1
 Number of Electrons    NEL             ....  134
 Basis Dimension        Dim             ....  322

ORBITAL ENERGIES
----------------

  NO   OCC          E(Eh)            E(eV)
   0   2.0000     -88.975212     -2421.1386
   1   2.0000     -88.969693     -2420.9884
   2   2.0000     -10.329925      -281.0915
   3   2.0000     -10.326077      -280.9868
   4   2.0000     -10.321382      -280.8591
   5   2.0000     -10.318212      -280.7728
   6   2.0000     -10.304139      -280.3899
   7   2.0000     -10.303741      -280.3790
   8   2.0000     -10.302582      -280.3475
   9   2.0000     -10.291412      -280.0435
  10   2.0000     -10.287344      -279.9329
  11   2.0000     -10.287248      -279.9302
  12   2.0000     -10.285813      -279.8912
  13   2.0000     -10.279762      -279.7265
  14   2.0000     -10.277421      -279.6629
  15   2.0000     -10.276865      -279.6477
  16   2.0000      -8.088518      -220.0998
  17   2.0000      -8.083689      -219.9684
  18   2.0000      -6.046845      -164.5430
  19   2.0000      -6.043293      -164.4464
  20   2.0000      -6.042172      -164.4159
  21   2.0000      -6.039522      -164.3437
  22   2.0000      -6.038324      -164.3111
  23   2.0000      -6.034508      -164.2073
  24   2.0000      -1.004732       -27.3402
  25   2.0000      -0.978999       -26.6399
  26   2.0000      -0.917784       -24.9742
  27   2.0000      -0.901609       -24.5340
  28   2.0000      -0.867384       -23.6027
  29   2.0000      -0.859544       -23.3894
  30   2.0000      -0.843749       -22.9596
  31   2.0000      -0.808610       -22.0034
  32   2.0000      -0.781521       -21.2663
  33   2.0000      -0.762612       -20.7517
  34   2.0000      -0.710649       -19.3377
  35   2.0000      -0.705053       -19.1855
  36   2.0000      -0.686162       -18.6714
  37   2.0000      -0.670278       -18.2392
  38   2.0000      -0.641346       -17.4519
  39   2.0000      -0.612949       -16.6792
  40   2.0000      -0.595070       -16.1927
  41   2.0000      -0.584649       -15.9091
  42   2.0000      -0.560833       -15.2610
  43   2.0000      -0.550993       -14.9933
  44   2.0000      -0.525806       -14.3079
  45   2.0000      -0.520787       -14.1713
  46   2.0000      -0.516127       -14.0445
  47   2.0000      -0.511530       -13.9194
  48   2.0000      -0.506234       -13.7753
  49   2.0000      -0.494684       -13.4610
  50   2.0000      -0.485007       -13.1977
  51   2.0000      -0.479062       -13.0359
  52   2.0000      -0.474228       -12.9044
  53   2.0000      -0.466686       -12.6992
  54   2.0000      -0.457379       -12.4459
  55   2.0000      -0.452912       -12.3244
  56   2.0000      -0.442718       -12.0470
  57   2.0000      -0.438268       -11.9259
  58   2.0000      -0.436659       -11.8821
  59   2.0000      -0.432318       -11.7640
  60   2.0000      -0.420284       -11.4365
  61   2.0000      -0.407008       -11.0753
  62   2.0000      -0.402689       -10.9577
  63   2.0000      -0.342374        -9.3165
  64   2.0000      -0.339639        -9.2421
  65   2.0000      -0.326482        -8.8840
  66   2.0000      -0.281997        -7.6735
  67   0.0000       0.016633         0.4526
  68   0.0000       0.064127         1.7450
  69   0.0000       0.098675         2.6851
  70   0.0000       0.105668         2.8754
  71   0.0000       0.124327         3.3831

MULLIKEN ATOMIC CHARGES
-----------------------
   0 S :    0.121826
   1 C :   -0.148588
   2 C :   -0.058968
   3 C :    0.027565
   4 C :   -0.149513
   5 H :   -0.006619
   6 C :    0.077708
   7 H :    0.019145
   8 H :    0.029611
   9 C :   -0.054708
  10 H :    0.032166
  11 H :    0.018796
  12 C :   -0.047719
  13 H :    0.028323
  14 H :    0.029962
  15 H :    0.029587
  16 S :    0.106442
  17 C :   -0.097473
  18 C :   -0.004618
  19 C :   -0.054955
  20 C :   -0.143443
  21 H :   -0.001015
  22 C :    0.000461
  23 H :    0.043339
  24 H :    0.044322
  25 C :   -0.037260
  26 H :    0.038668
  27 H :    0.025843
  28 C :   -0.078571
  29 H :    0.035530
  30 H :    0.042024
  31 H :    0.015974
  32 H :    0.048752
  33 H :    0.067405
Sum of atomic charges:   -0.0000000

LOEWDIN ATOMIC CHARGES
----------------------
   0 S :    0.418483
   1 C :   -0.192669
   2 C :   -0.046894
   3 C :   -0.067169
   4 C :   -0.196535
   5 H :    0.019346
   6 C :   -0.024352
   7 H :    0.028564
   8 H :    0.028554
   9 C :   -0.032822
  10 H :    0.025872
  11 H :    0.017281
  12 C :   -0.071312
  13 H :    0.031269
  14 H :    0.025737
  15 H :    0.026075
  16 S :    0.412484
  17 C :   -0.183114
  18 C :   -0.053947
  19 C :   -0.063647
  20 C :   -0.204954
  21 H :    0.020036
  22 C :   -0.039765
  23 H :    0.029993
  24 H :    0.038744
  25 C :   -0.048084
  26 H :    0.035023
  27 H :    0.018535
  28 C :   -0.078612
  29 H :    0.033144
  30 H :    0.024497
  31 H :    0.022534
  32 H :    0.016760
  33 H :    0.030944

  Mayer bond orders larger than 0.100000
B(  0-S ,  1-C ) :   1.1287 B(  0-S ,  4-C ) :   1.1909 B(  1-C ,  2-C ) :   1.5468
B(  1-C ,  4-C ) :   0.1102 B(  1-C , 32-H ) :   0.9720 B(  2-C ,  3-C ) :   1.2944
B(  2-C ,  6-C ) :   1.0189 B(  3-C ,  4-C ) :   1.4996 B(  3-C ,  5-H ) :   0.9993
B(  4-C , 20-C ) :   1.0469 B(  6-C ,  7-H ) :   0.9459 B(  6-C ,  8-H ) :   0.9245
B(  6-C ,  9-C ) :   1.0720 B(  9-C , 10-H ) :   0.9609 B(  9-C , 11-H ) :   0.9545
B(  9-C , 12-C ) :   1.0893 B( 12-C , 13-H ) :   0.9712 B( 12-C , 14-H ) :   0.9729
B( 12-C , 15-H ) :   0.9745 B( 16-S , 17-C ) :   1.1455 B( 16-S , 20-C ) :   1.1636
B( 17-C , 18-C ) :   1.5800 B( 17-C , 20-C ) :   0.1072 B( 17-C , 33-H ) :   0.9671
B( 18-C , 19-C ) :   1.2938 B( 18-C , 21-H ) :   0.9842 B( 19-C , 20-C ) :   1.5285
B( 19-C , 22-C ) :   1.0361 B( 22-C , 23-H ) :   0.9403 B( 22-C , 24-H ) :   0.9364
B( 22-C , 25-C ) :   1.0403 B( 25-C , 26-H ) :   0.9531 B( 25-C , 27-H ) :   0.9606
B( 25-C , 28-C ) :   1.0618 B( 28-C , 29-H ) :   0.9723 B( 28-C , 30-H ) :   0.9759
B( 28-C , 31-H ) :   0.9745

Dispersion correction           -0.014285256
FINAL SINGLE POINT ENERGY     -1339.846853989861

DIPOLE MOMENT
-------------
                                X             Y             Z
Electronic contribution:     -1.87714      19.67294       7.29366
Nuclear contribution   :      1.81643     -19.87126      -7.26555
                        -----------------------------------------
Total Dipole Moment    :     -0.06071      -0.19832       0.02811
                        -----------------------------------------
Magnitude (a.u.)       :      0.20930
Magnitude (Debye)      :      0.53200

Rotational constants in cm-1:     0.021036     0.008103     0.006381
Rotational constants in MHz :   630.648040   242.915374   191.304668

                             ****ORCA TERMINATED NORMALLY****
TOTAL RUN TIME: 0 days 0 hours 0 minutes 20 seconds 293 msec
