                         Program Version 4.2.1 -  RELEASE  -
|  1> ! wB97X-D3 SP def2-SVP
|  2> %pal
|  3> nprocs 24
|  4> end
|  5>
|  6> * xyz 0 1
|  7> S 	 -133.678 	 66.9157 	 -61.6537
|  8> C 	 -135.451 	 66.6046 	 -61.7181
|  9> C 	 -136.027 	 66.57 	 -60.4938
| 10> C 	 -135.05 	 66.6107 	 -59.4662
| 11> C 	 -133.803 	 66.9126 	 -59.9175
| 12> H 	 -135.311 	 66.548 	 -58.4424
| 13> C 	 -137.57 	 66.375 	 -60.1617
| 14> H 	 -137.726 	 66.9962 	 -59.3391
| 15> H 	 -137.596 	 65.308 	 -59.8712
| 16> C 	 -138.546 	 66.6622 	 -61.2839
| 17> H 	 -138.303 	 66.2193 	 -62.2817
| 18> H 	 -139.384 	 66.0603 	 -61.0562
| 19> C 	 -138.945 	 68.2065 	 -61.3546
| 20> H 	 -139.805 	 68.4274 	 -62.0724
| 21> H 	 -139.308 	 68.5723 	 -60.3929
| 22> H 	 -138.098 	 68.9245 	 -61.5037
| 23> S 	 -131.508 	 65.626 	 -59.21
| 24> C 	 -130.61 	 66.1596 	 -57.904
| 25> C 	 -131.089 	 67.4365 	 -57.4446
| 26> C 	 -132.361 	 67.7872 	 -58.0467
| 27> C 	 -132.621 	 66.9481 	 -59.1091
| 28> H 	 -130.651 	 68.0284 	 -56.6375
| 29> C 	 -132.998 	 69.1318 	 -57.7275
| 30> H 	 -133.923 	 69.2065 	 -58.2801
| 31> H 	 -132.416 	 69.9546 	 -58.1141
| 32> C 	 -133.195 	 69.4549 	 -56.3048
| 33> H 	 -133.845 	 70.3471 	 -56.1676
| 34> H 	 -132.275 	 69.7079 	 -55.727
| 35> C 	 -133.957 	 68.3516 	 -55.4345
| 36> H 	 -134.978 	 68.4249 	 -55.7964
| 37> H 	 -133.943 	 68.5789 	 -54.3792
| 38> H 	 -133.717 	 67.2925 	 -55.5925
| 39> H 	 -136.049 	 66.6445 	 -62.6334
| 40> H 	 -129.714 	 65.7226 	 -57.3863
| 41> *
| 42>
| 43>                          ****END OF INPUT****

CARTESIAN COORDINATES (ANGSTROEM)
---------------------------------
  S    -133.678000   66.915700  -61.653700
  C    -135.451000   66.604600  -61.718100
  C    -136.027000   66.570000  -60.493800
  C    -135.050000   66.610700  -59.466200
  C    -133.803000   66.912600  -59.917500
  H    -135.311000   66.548000  -58.442400
  C    -137.570000   66.375000  -60.161700
  H    -137.726000   66.996200  -59.339100
  H    -137.596000   65.308000  -59.871200
  C    -138.546000   66.662200  -61.283900
  H    -138.303000   66.219300  -62.281700
  H    -139.384000   66.060300  -61.056200
  C    -138.945000   68.206500  -61.354600
  H    -139.805000   68.427400  -62.072400
  H    -139.308000   68.572300  -60.392900
  H    -138.098000   68.924500  -61.503700
  S    -131.508000   65.626000  -59.210000
  C    -130.610000   66.159600  -57.904000
  C    -131.089000   67.436500  -57.444600
  C    -132.361000   67.787200  -58.046700
  C    -132.621000   66.948100  -59.109100
  H    -130.651000   68.028400  -56.637500
  C    -132.998000   69.131800  -57.727500
  H    -133.923000   69.206500  -58.280100
  H    -132.416000   69.954600  -58.114100
  C    -133.195000   69.454900  -56.304800
  H    -133.845000   70.347100  -56.167600
  H    -132.275000   69.707900  -55.727000
  C    -133.957000   68.351600  -55.434500
  H    -134.978000   68.424900  -55.796400
  H    -133.943000   68.578900  -54.379200
  H    -133.717000   67.292500  -55.592500
  H    -136.049000   66.644500  -62.633400
  H    -129.714000   65.722600  -57.386300

 Total Charge           Charge          ....    0
 Multiplicity           Mult            ....    1
 Number of Electrons    NEL             ....  134
 Basis Dimension        Dim             ....  322

ORBITAL ENERGIES
----------------

  NO   OCC          E(Eh)            E(eV)
   0   2.0000     -88.968367     -2420.9523
   1   2.0000     -88.963798     -2420.8280
   2   2.0000     -10.321210      -280.8544
   3   2.0000     -10.319399      -280.8051
   4   2.0000     -10.317205      -280.7454
   5   2.0000     -10.309542      -280.5369
   6   2.0000     -10.300706      -280.2965
   7   2.0000     -10.298107      -280.2257
   8   2.0000     -10.296568      -280.1839
   9   2.0000     -10.295980      -280.1679
  10   2.0000     -10.295085      -280.1435
  11   2.0000     -10.292748      -280.0799
  12   2.0000     -10.291379      -280.0427
  13   2.0000     -10.286882      -279.9203
  14   2.0000     -10.285318      -279.8777
  15   2.0000     -10.275014      -279.5973
  16   2.0000      -8.084423      -219.9883
  17   2.0000      -8.078161      -219.8179
  18   2.0000      -6.042796      -164.4328
  19   2.0000      -6.038551      -164.3173
  20   2.0000      -6.036702      -164.2670
  21   2.0000      -6.035424      -164.2322
  22   2.0000      -6.032975      -164.1656
  23   2.0000      -6.028671      -164.0485
  24   2.0000      -1.011390       -27.5213
  25   2.0000      -0.984267       -26.7833
  26   2.0000      -0.913612       -24.8606
  27   2.0000      -0.908907       -24.7326
  28   2.0000      -0.865688       -23.5566
  29   2.0000      -0.847648       -23.0657
  30   2.0000      -0.840729       -22.8774
  31   2.0000      -0.802925       -21.8487
  32   2.0000      -0.787304       -21.4236
  33   2.0000      -0.776868       -21.1396
  34   2.0000      -0.716094       -19.4859
  35   2.0000      -0.701961       -19.1013
  36   2.0000      -0.689286       -18.7564
  37   2.0000      -0.655931       -17.8488
  38   2.0000      -0.634144       -17.2559
  39   2.0000      -0.614617       -16.7246
  40   2.0000      -0.595644       -16.2083
  41   2.0000      -0.564699       -15.3662
  42   2.0000      -0.557351       -15.1663
  43   2.0000      -0.554485       -15.0883
  44   2.0000      -0.542237       -14.7550
  45   2.0000      -0.528236       -14.3740
  46   2.0000      -0.514977       -14.0132
  47   2.0000      -0.509754       -13.8711
  48   2.0000      -0.500209       -13.6114
  49   2.0000      -0.496693       -13.5157
  50   2.0000      -0.483983       -13.1698
  51   2.0000      -0.476998       -12.9798
  52   2.0000      -0.468912       -12.7598
  53   2.0000      -0.465758       -12.6739
  54   2.0000      -0.454737       -12.3740
  55   2.0000      -0.448361       -12.2005
  56   2.0000      -0.447196       -12.1688
  57   2.0000      -0.441080       -12.0024
  58   2.0000      -0.437182       -11.8963
  59   2.0000      -0.434074       -11.8117
  60   2.0000      -0.419325       -11.4104
  61   2.0000      -0.410535       -11.1712
  62   2.0000      -0.405572       -11.0362
  63   2.0000      -0.337468        -9.1830
  64   2.0000      -0.333696        -9.0803
  65   2.0000      -0.327035        -8.8991
  66   2.0000      -0.294775        -8.0212
  67   0.0000       0.043014         1.1705
  68   0.0000       0.065566         1.7841
  69   0.0000       0.107891         2.9359
  70   0.0000       0.116939         3.1821
  71   0.0000       0.134243         3.6530

MULLIKEN ATOMIC CHARGES
-----------------------
   0 S :    0.098528
   1 C :   -0.138316
   2 C :   -0.109610
   3 C :    0.046475
   4 C :   -0.162557
   5 H :   -0.007529
   6 C :    0.084859
   7 H :    0.016244
   8 H :    0.051846
   9 C :   -0.041755
  10 H :    0.032918
  11 H :    0.016588
  12 C :   -0.088485
  13 H :    0.051287
  14 H :    0.021421
  15 H :    0.047654
  16 S :    0.153537
  17 C :   -0.114061
  18 C :   -0.049310
  19 C :   -0.050494
  20 C :   -0.155290
  21 H :    0.021829
  22 C :    0.126388
  23 H :    0.015139
  24 H :    0.038852
  25 C :   -0.126872
  26 H :    0.035041
  27 H :    0.033748
  28 C :   -0.074013
  29 H :    0.017987
  30 H :    0.035777
  31 H :    0.047014
  32 H :    0.047229
  33 H :    0.077933
Sum of atomic charges:   -0.0000000

LOEWDIN ATOMIC CHARGES
----------------------
   0 S :    0.380562
   1 C :   -0.189172
   2 C :   -0.062617
   3 C :   -0.057901
   4 C :   -0.192436
   5 H :    0.024937
   6 C :   -0.016596
   7 H :    0.021957
   8 H :    0.042317
   9 C :   -0.044494
  10 H :    0.029690
  11 H :    0.023681
  12 C :   -0.077537
  13 H :    0.034640
  14 H :    0.021875
  15 H :    0.032049
  16 S :    0.460170
  17 C :   -0.228723
  18 C :   -0.072188
  19 C :   -0.052657
  20 C :   -0.218165
  21 H :    0.027847
  22 C :   -0.033367
  23 H :    0.029839
  24 H :    0.040811
  25 C :   -0.045854
  26 H :    0.031898
  27 H :    0.021116
  28 C :   -0.073154
  29 H :    0.020546
  30 H :    0.023906
  31 H :    0.025773
  32 H :    0.026210
  33 H :    0.045039

  Mayer bond orders larger than 0.100000
B(  0-S ,  1-C ) :   1.1070 B(  0-S ,  4-C ) :   1.1407 B(  1-C ,  2-C ) :   1.6801
B(  1-C , 32-H ) :   0.9551 B(  2-C ,  3-C ) :   1.2204 B(  2-C ,  6-C ) :   0.9781
B(  3-C ,  4-C ) :   1.6060 B(  3-C ,  5-H ) :   1.0012 B(  4-C , 20-C ) :   1.0083
B(  6-C ,  7-H ) :   0.9458 B(  6-C ,  8-H ) :   0.9404 B(  6-C ,  9-C ) :   1.0813
B(  9-C , 10-H ) :   0.9528 B(  9-C , 11-H ) :   0.9483 B(  9-C , 12-C ) :   1.0574
B( 12-C , 13-H ) :   0.9777 B( 12-C , 14-H ) :   0.9739 B( 12-C , 15-H ) :   0.9799
B( 16-S , 17-C ) :   1.1879 B( 16-S , 20-C ) :   1.1598 B( 17-C , 18-C ) :   1.5639
B( 17-C , 33-H ) :   0.9627 B( 18-C , 19-C ) :   1.2557 B( 18-C , 21-H ) :   0.9846
B( 19-C , 20-C ) :   1.5866 B( 19-C , 22-C ) :   1.0474 B( 22-C , 23-H ) :   0.9264
B( 22-C , 24-H ) :   0.9311 B( 22-C , 25-C ) :   1.0768 B( 25-C , 26-H ) :   0.9559
B( 25-C , 27-H ) :   0.9568 B( 25-C , 28-C ) :   1.0607 B( 28-C , 29-H ) :   0.9784
B( 28-C , 30-H ) :   0.9776 B( 28-C , 31-H ) :   0.9762

Dispersion correction           -0.014596230
FINAL SINGLE POINT ENERGY     -1339.864030717662

DIPOLE MOMENT
-------------
                                X             Y             Z
Electronic contribution:     22.36855     -11.78064     -11.61426
Nuclear contribution   :    -22.91869      12.00279      12.05585
                        -----------------------------------------
Total Dipole Moment    :     -0.55014       0.22216       0.44159
                        -----------------------------------------
Magnitude (a.u.)       :      0.73960
Magnitude (Debye)      :      1.87992

Rotational constants in cm-1:     0.020375     0.008326     0.006589
Rotational constants in MHz :   610.836852   249.599111   197.546107

                             ****ORCA TERMINATED NORMALLY****
TOTAL RUN TIME: 0 days 0 hours 0 minutes 21 seconds 741 msec
