                         Program Version 4.2.1 -  RELEASE  -
|  1> ! wB97X-D3 SP def2-SVP
|  2> %pal
|  3> nprocs 24
|  4> end
|  5>
|  6> * xyz 0 1
|  7> S 	 -121.031 	 60.409 	 -37.0805
|  8> C 	 -120.351 	 61.3643 	 -38.3794
|  9> C 	 -119.903 	 62.567 	 -37.9213
| 10> C 	 -119.938 	 62.6214 	 -36.482
| 11> C 	 -120.573 	 61.5925 	 -35.8621
| 12> H 	 -119.699 	 63.3959 	 -35.791
| 13> C 	 -119.341 	 63.6584 	 -38.7853
| 14> H 	 -119.027 	 63.2308 	 -39.7748
| 15> H 	 -118.413 	 64.1299 	 -38.4585
| 16> C 	 -120.509 	 64.694 	 -39.0325
| 17> H 	 -120.329 	 65.1609 	 -40.024
| 18> H 	 -121.433 	 64.1527 	 -39.3047
| 19> C 	 -120.873 	 65.7909 	 -37.9803
| 20> H 	 -121.665 	 66.4522 	 -38.4808
| 21> H 	 -121.349 	 65.3727 	 -37.0734
| 22> H 	 -120.061 	 66.3902 	 -37.7636
| 23> S 	 -122.357 	 61.6626 	 -33.7743
| 24> C 	 -121.763 	 61.8379 	 -32.1037
| 25> C 	 -120.405 	 61.6844 	 -32.1508
| 26> C 	 -119.791 	 61.7449 	 -33.4563
| 27> C 	 -120.745 	 61.5463 	 -34.4407
| 28> H 	 -119.893 	 61.7668 	 -31.2436
| 29> C 	 -118.25 	 61.9952 	 -33.5702
| 30> H 	 -117.767 	 62.4959 	 -32.6503
| 31> H 	 -118.152 	 62.7138 	 -34.329
| 32> C 	 -117.396 	 60.8181 	 -34.0309
| 33> H 	 -117.539 	 60.6336 	 -35.1519
| 34> H 	 -117.864 	 59.9805 	 -33.4399
| 35> C 	 -115.943 	 60.8598 	 -33.7485
| 36> H 	 -115.441 	 60.1267 	 -34.348
| 37> H 	 -115.713 	 60.5631 	 -32.7167
| 38> H 	 -115.499 	 61.8524 	 -34.002
| 39> H 	 -120.324 	 61.1451 	 -39.4073
| 40> H 	 -122.281 	 62.0334 	 -31.1293
| 41> *
| 42>
| 43>                          ****END OF INPUT****

CARTESIAN COORDINATES (ANGSTROEM)
---------------------------------
  S    -121.031000   60.409000  -37.080500
  C    -120.351000   61.364300  -38.379400
  C    -119.903000   62.567000  -37.921300
  C    -119.938000   62.621400  -36.482000
  C    -120.573000   61.592500  -35.862100
  H    -119.699000   63.395900  -35.791000
  C    -119.341000   63.658400  -38.785300
  H    -119.027000   63.230800  -39.774800
  H    -118.413000   64.129900  -38.458500
  C    -120.509000   64.694000  -39.032500
  H    -120.329000   65.160900  -40.024000
  H    -121.433000   64.152700  -39.304700
  C    -120.873000   65.790900  -37.980300
  H    -121.665000   66.452200  -38.480800
  H    -121.349000   65.372700  -37.073400
  H    -120.061000   66.390200  -37.763600
  S    -122.357000   61.662600  -33.774300
  C    -121.763000   61.837900  -32.103700
  C    -120.405000   61.684400  -32.150800
  C    -119.791000   61.744900  -33.456300
  C    -120.745000   61.546300  -34.440700
  H    -119.893000   61.766800  -31.243600
  C    -118.250000   61.995200  -33.570200
  H    -117.767000   62.495900  -32.650300
  H    -118.152000   62.713800  -34.329000
  C    -117.396000   60.818100  -34.030900
  H    -117.539000   60.633600  -35.151900
  H    -117.864000   59.980500  -33.439900
  C    -115.943000   60.859800  -33.748500
  H    -115.441000   60.126700  -34.348000
  H    -115.713000   60.563100  -32.716700
  H    -115.499000   61.852400  -34.002000
  H    -120.324000   61.145100  -39.407300
  H    -122.281000   62.033400  -31.129300

 Total Charge           Charge          ....    0
 Multiplicity           Mult            ....    1
 Number of Electrons    NEL             ....  134
 Basis Dimension        Dim             ....  322

ORBITAL ENERGIES
----------------

  NO   OCC          E(Eh)            E(eV)
   0   2.0000     -88.965745     -2420.8810
   1   2.0000     -88.965204     -2420.8663
   2   2.0000     -10.328213      -281.0450
   3   2.0000     -10.324157      -280.9346
   4   2.0000     -10.322419      -280.8873
   5   2.0000     -10.309758      -280.5428
   6   2.0000     -10.309174      -280.5269
   7   2.0000     -10.300576      -280.2929
   8   2.0000     -10.300128      -280.2807
   9   2.0000     -10.296569      -280.1839
  10   2.0000     -10.292433      -280.0713
  11   2.0000     -10.288337      -279.9599
  12   2.0000     -10.287568      -279.9390
  13   2.0000     -10.285647      -279.8867
  14   2.0000     -10.281952      -279.7861
  15   2.0000     -10.275882      -279.6210
  16   2.0000      -8.079958      -219.8668
  17   2.0000      -8.079660      -219.8587
  18   2.0000      -6.038734      -164.3223
  19   2.0000      -6.038358      -164.3121
  20   2.0000      -6.034496      -164.2070
  21   2.0000      -6.034167      -164.1980
  22   2.0000      -6.030473      -164.0975
  23   2.0000      -6.030259      -164.0917
  24   2.0000      -1.009349       -27.4658
  25   2.0000      -0.984865       -26.7995
  26   2.0000      -0.908061       -24.7096
  27   2.0000      -0.906090       -24.6560
  28   2.0000      -0.874991       -23.8097
  29   2.0000      -0.849205       -23.1080
  30   2.0000      -0.840932       -22.8829
  31   2.0000      -0.819430       -22.2978
  32   2.0000      -0.784770       -21.3547
  33   2.0000      -0.775167       -21.0934
  34   2.0000      -0.708924       -19.2908
  35   2.0000      -0.698294       -19.0015
  36   2.0000      -0.681575       -18.5466
  37   2.0000      -0.661447       -17.9989
  38   2.0000      -0.646168       -17.5831
  39   2.0000      -0.615361       -16.7448
  40   2.0000      -0.593424       -16.1479
  41   2.0000      -0.575798       -15.6683
  42   2.0000      -0.565091       -15.3769
  43   2.0000      -0.536845       -14.6083
  44   2.0000      -0.534848       -14.5539
  45   2.0000      -0.525536       -14.3006
  46   2.0000      -0.521409       -14.1883
  47   2.0000      -0.517319       -14.0770
  48   2.0000      -0.509467       -13.8633
  49   2.0000      -0.500767       -13.6266
  50   2.0000      -0.489192       -13.3116
  51   2.0000      -0.483650       -13.1608
  52   2.0000      -0.472646       -12.8614
  53   2.0000      -0.466775       -12.7016
  54   2.0000      -0.460212       -12.5230
  55   2.0000      -0.448863       -12.2142
  56   2.0000      -0.435419       -11.8484
  57   2.0000      -0.432199       -11.7607
  58   2.0000      -0.426601       -11.6084
  59   2.0000      -0.421149       -11.4600
  60   2.0000      -0.417905       -11.3718
  61   2.0000      -0.411464       -11.1965
  62   2.0000      -0.403764       -10.9870
  63   2.0000      -0.348644        -9.4871
  64   2.0000      -0.328043        -8.9265
  65   2.0000      -0.327578        -8.9138
  66   2.0000      -0.298454        -8.1213
  67   0.0000       0.035782         0.9737
  68   0.0000       0.064677         1.7599
  69   0.0000       0.116979         3.1832
  70   0.0000       0.125632         3.4186
  71   0.0000       0.127188         3.4610

MULLIKEN ATOMIC CHARGES
-----------------------
   0 S :    0.112336
   1 C :   -0.092837
   2 C :   -0.064704
   3 C :    0.020539
   4 C :   -0.156123
   5 H :    0.011347
   6 C :    0.059519
   7 H :    0.021602
   8 H :    0.033618
   9 C :   -0.103087
  10 H :    0.021800
  11 H :    0.027054
  12 C :   -0.039252
  13 H :    0.042277
  14 H :    0.050913
  15 H :    0.023600
  16 S :    0.103183
  17 C :   -0.115155
  18 C :   -0.005944
  19 C :   -0.062123
  20 C :   -0.145050
  21 H :   -0.003182
  22 C :    0.087918
  23 H :    0.037899
  24 H :   -0.002981
  25 C :   -0.119170
  26 H :    0.052083
  27 H :    0.035293
  28 C :   -0.026749
  29 H :    0.027995
  30 H :    0.031347
  31 H :    0.031138
  32 H :    0.025575
  33 H :    0.079323
Sum of atomic charges:    0.0000000

LOEWDIN ATOMIC CHARGES
----------------------
   0 S :    0.397268
   1 C :   -0.188207
   2 C :   -0.061068
   3 C :   -0.060406
   4 C :   -0.196062
   5 H :    0.026981
   6 C :   -0.033856
   7 H :    0.035221
   8 H :    0.030004
   9 C :   -0.047515
  10 H :    0.023203
  11 H :    0.027222
  12 C :   -0.064099
  13 H :    0.039946
  14 H :    0.030234
  15 H :    0.011259
  16 S :    0.395874
  17 C :   -0.187634
  18 C :   -0.067895
  19 C :   -0.047313
  20 C :   -0.199001
  21 H :    0.019309
  22 C :   -0.034338
  23 H :    0.040186
  24 H :    0.017873
  25 C :   -0.054910
  26 H :    0.035053
  27 H :    0.029327
  28 C :   -0.068989
  29 H :    0.027159
  30 H :    0.026919
  31 H :    0.027229
  32 H :    0.022008
  33 H :    0.049020

  Mayer bond orders larger than 0.100000
B(  0-S ,  1-C ) :   1.1288 B(  0-S ,  4-C ) :   1.1206 B(  1-C ,  2-C ) :   1.6385
B(  1-C , 32-H ) :   0.9698 B(  2-C ,  3-C ) :   1.1978 B(  2-C ,  6-C ) :   1.0328
B(  3-C ,  4-C ) :   1.6185 B(  3-C ,  5-H ) :   0.9919 B(  4-C , 20-C ) :   1.0411
B(  6-C ,  7-H ) :   0.9394 B(  6-C ,  8-H ) :   0.9514 B(  6-C ,  9-C ) :   1.0498
B(  9-C , 10-H ) :   0.9573 B(  9-C , 11-H ) :   0.9561 B(  9-C , 12-C ) :   1.0747
B( 12-C , 13-H ) :   0.9712 B( 12-C , 14-H ) :   0.9736 B( 12-C , 15-H ) :   0.9783
B( 16-S , 17-C ) :   1.1316 B( 16-S , 20-C ) :   1.1356 B( 17-C , 18-C ) :   1.6436
B( 17-C , 33-H ) :   0.9614 B( 18-C , 19-C ) :   1.2245 B( 18-C , 21-H ) :   0.9886
B( 19-C , 20-C ) :   1.6091 B( 19-C , 22-C ) :   1.0357 B( 22-C , 23-H ) :   0.9449
B( 22-C , 24-H ) :   0.9169 B( 22-C , 25-C ) :   1.0541 B( 25-C , 26-H ) :   0.9518
B( 25-C , 27-H ) :   0.9598 B( 25-C , 28-C ) :   1.0974 B( 28-C , 29-H ) :   0.9698
B( 28-C , 30-H ) :   0.9713 B( 28-C , 31-H ) :   0.9704

Dispersion correction           -0.014674937
FINAL SINGLE POINT ENERGY     -1339.856513868739

DIPOLE MOMENT
-------------
                                X             Y             Z
Electronic contribution:    -18.71212     -13.38067       4.85002
Nuclear contribution   :     19.26924      13.93209      -4.85495
                        -----------------------------------------
Total Dipole Moment    :      0.55712       0.55143      -0.00493
                        -----------------------------------------
Magnitude (a.u.)       :      0.78389
Magnitude (Debye)      :      1.99248

Rotational constants in cm-1:     0.016165     0.009191     0.007823
Rotational constants in MHz :   484.627211   275.553005   234.535042

                             ****ORCA TERMINATED NORMALLY****
TOTAL RUN TIME: 0 days 0 hours 0 minutes 20 seconds 755 msec
