                         Program Version 4.2.1 -  RELEASE  -
|  1> ! wB97X-D3 SP def2-SVP
|  2> %pal
|  3> nprocs 24
|  4> end
|  5>
|  6> * xyz 0 1
|  7> S 	 -118.42 	 62.344 	 -82.0295
|  8> C 	 -119.645 	 62.3016 	 -80.7453
|  9> C 	 -119.119 	 62.8148 	 -79.5774
| 10> C 	 -117.729 	 63.1104 	 -79.6105
| 11> C 	 -117.172 	 62.7155 	 -80.8574
| 12> H 	 -117.187 	 63.5344 	 -78.8256
| 13> C 	 -119.878 	 62.836 	 -78.2563
| 14> H 	 -120.806 	 63.3042 	 -78.4067
| 15> H 	 -119.431 	 63.3443 	 -77.3812
| 16> C 	 -120.376 	 61.4787 	 -77.8065
| 17> H 	 -121.085 	 61.6713 	 -76.9927
| 18> H 	 -120.941 	 60.9699 	 -78.6573
| 19> C 	 -119.26 	 60.4857 	 -77.3922
| 20> H 	 -118.723 	 60.1345 	 -78.2696
| 21> H 	 -118.502 	 60.9626 	 -76.8373
| 22> H 	 -119.64 	 59.628 	 -76.8412
| 23> S 	 -115.09 	 63.7111 	 -82.569
| 24> C 	 -113.427 	 63.0911 	 -82.2296
| 25> C 	 -113.386 	 62.5461 	 -80.9882
| 26> C 	 -114.679 	 62.3309 	 -80.3495
| 27> C 	 -115.711 	 62.7437 	 -81.1572
| 28> H 	 -112.326 	 62.3469 	 -80.6484
| 29> C 	 -114.832 	 61.6778 	 -79.0499
| 30> H 	 -115.33 	 62.3764 	 -78.4324
| 31> H 	 -113.877 	 61.5363 	 -78.6143
| 32> C 	 -115.618 	 60.3297 	 -78.9866
| 33> H 	 -115.087 	 59.6127 	 -79.5717
| 34> H 	 -116.602 	 60.4008 	 -79.4537
| 35> C 	 -115.645 	 59.8772 	 -77.5638
| 36> H 	 -116.294 	 58.9791 	 -77.3213
| 37> H 	 -116.035 	 60.7268 	 -76.9341
| 38> H 	 -114.635 	 59.645 	 -77.1986
| 39> H 	 -120.633 	 61.8851 	 -80.7599
| 40> H 	 -112.579 	 63.4044 	 -82.7978
| 41> *
| 42>
| 43>                          ****END OF INPUT****

CARTESIAN COORDINATES (ANGSTROEM)
---------------------------------
  S    -118.420000   62.344000  -82.029500
  C    -119.645000   62.301600  -80.745300
  C    -119.119000   62.814800  -79.577400
  C    -117.729000   63.110400  -79.610500
  C    -117.172000   62.715500  -80.857400
  H    -117.187000   63.534400  -78.825600
  C    -119.878000   62.836000  -78.256300
  H    -120.806000   63.304200  -78.406700
  H    -119.431000   63.344300  -77.381200
  C    -120.376000   61.478700  -77.806500
  H    -121.085000   61.671300  -76.992700
  H    -120.941000   60.969900  -78.657300
  C    -119.260000   60.485700  -77.392200
  H    -118.723000   60.134500  -78.269600
  H    -118.502000   60.962600  -76.837300
  H    -119.640000   59.628000  -76.841200
  S    -115.090000   63.711100  -82.569000
  C    -113.427000   63.091100  -82.229600
  C    -113.386000   62.546100  -80.988200
  C    -114.679000   62.330900  -80.349500
  C    -115.711000   62.743700  -81.157200
  H    -112.326000   62.346900  -80.648400
  C    -114.832000   61.677800  -79.049900
  H    -115.330000   62.376400  -78.432400
  H    -113.877000   61.536300  -78.614300
  C    -115.618000   60.329700  -78.986600
  H    -115.087000   59.612700  -79.571700
  H    -116.602000   60.400800  -79.453700
  C    -115.645000   59.877200  -77.563800
  H    -116.294000   58.979100  -77.321300
  H    -116.035000   60.726800  -76.934100
  H    -114.635000   59.645000  -77.198600
  H    -120.633000   61.885100  -80.759900
  H    -112.579000   63.404400  -82.797800

 Total Charge           Charge          ....    0
 Multiplicity           Mult            ....    1
 Number of Electrons    NEL             ....  134
 Basis Dimension        Dim             ....  322

ORBITAL ENERGIES
----------------

  NO   OCC          E(Eh)            E(eV)
   0   2.0000     -88.973570     -2421.0939
   1   2.0000     -88.960376     -2420.7349
   2   2.0000     -10.338700      -281.3303
   3   2.0000     -10.332235      -281.1544
   4   2.0000     -10.317489      -280.7532
   5   2.0000     -10.315468      -280.6982
   6   2.0000     -10.305050      -280.4147
   7   2.0000     -10.302682      -280.3502
   8   2.0000     -10.300573      -280.2928
   9   2.0000     -10.296234      -280.1748
  10   2.0000     -10.292619      -280.0764
  11   2.0000     -10.288612      -279.9674
  12   2.0000     -10.283672      -279.8330
  13   2.0000     -10.283534      -279.8292
  14   2.0000     -10.281277      -279.7678
  15   2.0000     -10.270904      -279.4855
  16   2.0000      -8.087306      -220.0668
  17   2.0000      -8.073658      -219.6954
  18   2.0000      -6.045953      -164.5187
  19   2.0000      -6.041930      -164.4093
  20   2.0000      -6.037995      -164.3022
  21   2.0000      -6.032418      -164.1504
  22   2.0000      -6.028697      -164.0492
  23   2.0000      -6.023917      -163.9191
  24   2.0000      -1.000502       -27.2250
  25   2.0000      -0.979023       -26.6406
  26   2.0000      -0.915133       -24.9020
  27   2.0000      -0.913940       -24.8696
  28   2.0000      -0.864262       -23.5178
  29   2.0000      -0.852062       -23.1858
  30   2.0000      -0.844042       -22.9676
  31   2.0000      -0.814378       -22.1603
  32   2.0000      -0.786420       -21.3996
  33   2.0000      -0.771699       -20.9990
  34   2.0000      -0.711446       -19.3594
  35   2.0000      -0.699276       -19.0283
  36   2.0000      -0.692138       -18.8340
  37   2.0000      -0.658846       -17.9281
  38   2.0000      -0.639583       -17.4039
  39   2.0000      -0.616082       -16.7644
  40   2.0000      -0.595834       -16.2135
  41   2.0000      -0.576974       -15.7003
  42   2.0000      -0.572477       -15.5779
  43   2.0000      -0.552216       -15.0265
  44   2.0000      -0.538014       -14.6401
  45   2.0000      -0.521968       -14.2035
  46   2.0000      -0.519917       -14.1477
  47   2.0000      -0.514054       -13.9881
  48   2.0000      -0.507181       -13.8011
  49   2.0000      -0.497060       -13.5257
  50   2.0000      -0.487963       -13.2781
  51   2.0000      -0.485451       -13.2098
  52   2.0000      -0.471587       -12.8325
  53   2.0000      -0.463495       -12.6123
  54   2.0000      -0.455365       -12.3911
  55   2.0000      -0.451484       -12.2855
  56   2.0000      -0.444060       -12.0835
  57   2.0000      -0.433488       -11.7958
  58   2.0000      -0.427738       -11.6394
  59   2.0000      -0.425107       -11.5678
  60   2.0000      -0.420529       -11.4432
  61   2.0000      -0.419753       -11.4220
  62   2.0000      -0.417164       -11.3516
  63   2.0000      -0.344286        -9.3685
  64   2.0000      -0.333045        -9.0626
  65   2.0000      -0.325727        -8.8635
  66   2.0000      -0.291845        -7.9415
  67   0.0000       0.018665         0.5079
  68   0.0000       0.062988         1.7140
  69   0.0000       0.096073         2.6143
  70   0.0000       0.115239         3.1358
  71   0.0000       0.130333         3.5465

MULLIKEN ATOMIC CHARGES
-----------------------
   0 S :    0.131493
   1 C :   -0.125601
   2 C :   -0.059628
   3 C :    0.039209
   4 C :   -0.174001
   5 H :    0.000710
   6 C :    0.085268
   7 H :    0.014206
   8 H :    0.030858
   9 C :   -0.125844
  10 H :    0.032483
  11 H :    0.030747
  12 C :   -0.026122
  13 H :    0.033148
  14 H :    0.006475
  15 H :    0.036781
  16 S :    0.066258
  17 C :   -0.089917
  18 C :   -0.048062
  19 C :   -0.029443
  20 C :   -0.124625
  21 H :    0.040705
  22 C :    0.089850
  23 H :    0.002774
  24 H :   -0.000396
  25 C :   -0.035316
  26 H :    0.021502
  27 H :    0.047309
  28 C :   -0.072114
  29 H :    0.047878
  30 H :    0.028664
  31 H :    0.028184
  32 H :    0.043051
  33 H :    0.053515
Sum of atomic charges:    0.0000000

LOEWDIN ATOMIC CHARGES
----------------------
   0 S :    0.410515
   1 C :   -0.196317
   2 C :   -0.056290
   3 C :   -0.052056
   4 C :   -0.186651
   5 H :    0.022184
   6 C :   -0.035489
   7 H :    0.028103
   8 H :    0.032995
   9 C :   -0.038578
  10 H :    0.023253
  11 H :    0.025937
  12 C :   -0.065868
  13 H :    0.026947
  14 H :    0.013080
  15 H :    0.027767
  16 S :    0.334159
  17 C :   -0.160433
  18 C :   -0.075399
  19 C :   -0.054223
  20 C :   -0.170438
  21 H :    0.044493
  22 C :   -0.026774
  23 H :    0.023491
  24 H :    0.026372
  25 C :   -0.031850
  26 H :    0.021629
  27 H :    0.025653
  28 C :   -0.071144
  29 H :    0.032017
  30 H :    0.025070
  31 H :    0.024419
  32 H :    0.027506
  33 H :    0.025919

  Mayer bond orders larger than 0.100000
B(  0-S ,  1-C ) :   1.1246 B(  0-S ,  4-C ) :   1.1685 B(  1-C ,  2-C ) :   1.6009
B(  1-C ,  4-C ) :   0.1039 B(  1-C , 32-H ) :   0.9689 B(  2-C ,  3-C ) :   1.2510
B(  2-C ,  6-C ) :   1.0230 B(  3-C ,  4-C ) :   1.5173 B(  3-C ,  5-H ) :   1.0081
B(  4-C , 20-C ) :   1.0506 B(  6-C ,  7-H ) :   0.9243 B(  6-C ,  8-H ) :   0.9494
B(  6-C ,  9-C ) :   1.0829 B(  9-C , 10-H ) :   0.9560 B(  9-C , 11-H ) :   0.9553
B(  9-C , 12-C ) :   1.0682 B( 12-C , 13-H ) :   0.9700 B( 12-C , 14-H ) :   0.9745
B( 12-C , 15-H ) :   0.9721 B( 16-S , 17-C ) :   1.1124 B( 16-S , 20-C ) :   1.1116
B( 17-C , 18-C ) :   1.6804 B( 17-C , 33-H ) :   0.9669 B( 18-C , 19-C ) :   1.1787
B( 18-C , 21-H ) :   0.9786 B( 19-C , 20-C ) :   1.6331 B( 19-C , 22-C ) :   1.0586
B( 22-C , 23-H ) :   0.9150 B( 22-C , 24-H ) :   0.9262 B( 22-C , 25-C ) :   1.0600
B( 25-C , 26-H ) :   0.9479 B( 25-C , 27-H ) :   0.9508 B( 25-C , 28-C ) :   1.0882
B( 28-C , 29-H ) :   0.9701 B( 28-C , 30-H ) :   0.9694 B( 28-C , 31-H ) :   0.9689

Dispersion correction           -0.016889043
FINAL SINGLE POINT ENERGY     -1339.865150210649

DIPOLE MOMENT
-------------
                                X             Y             Z
Electronic contribution:      5.60305      14.62472     -27.54633
Nuclear contribution   :     -5.53121     -14.80364      28.33843
                        -----------------------------------------
Total Dipole Moment    :      0.07184      -0.17892       0.79210
                        -----------------------------------------
Magnitude (a.u.)       :      0.81522
Magnitude (Debye)      :      2.07213

Rotational constants in cm-1:     0.020454     0.010214     0.007464
Rotational constants in MHz :   613.201919   306.193844   223.752229

                             ****ORCA TERMINATED NORMALLY****
TOTAL RUN TIME: 0 days 0 hours 0 minutes 24 seconds 47 msec
