                         Program Version 4.2.1 -  RELEASE  -
|  1> ! wB97X-D3 SP def2-SVP
|  2> %pal
|  3> nprocs 24
|  4> end
|  5>
|  6> * xyz 0 1
|  7> S 	 -120.814 	 24.1938 	 -15.4522
|  8> C 	 -119.253 	 23.9189 	 -16.2296
|  9> C 	 -118.843 	 22.6087 	 -16.3156
| 10> C 	 -119.823 	 21.7286 	 -15.765
| 11> C 	 -120.943 	 22.4003 	 -15.2501
| 12> H 	 -119.744 	 20.6377 	 -15.5317
| 13> C 	 -117.57 	 22.0665 	 -16.7942
| 14> H 	 -116.749 	 22.3796 	 -16.1398
| 15> H 	 -117.331 	 22.7071 	 -17.6535
| 16> C 	 -117.52 	 20.5985 	 -17.2799
| 17> H 	 -116.449 	 20.2696 	 -17.5474
| 18> H 	 -117.708 	 19.9644 	 -16.4491
| 19> C 	 -118.457 	 20.1222 	 -18.3792
| 20> H 	 -119.541 	 20.2774 	 -18.1897
| 21> H 	 -118.233 	 20.4852 	 -19.4195
| 22> H 	 -118.388 	 19.0418 	 -18.4561
| 23> S 	 -123.361 	 21.0377 	 -15.2007
| 24> C 	 -124.243 	 21.0309 	 -13.7099
| 25> C 	 -123.539 	 21.6235 	 -12.7242
| 26> C 	 -122.226 	 21.9485 	 -13.0989
| 27> C 	 -122.007 	 21.8514 	 -14.4658
| 28> H 	 -123.974 	 21.6531 	 -11.7685
| 29> C 	 -121.218 	 22.5523 	 -12.134
| 30> H 	 -121.15 	 23.6289 	 -12.3358
| 31> H 	 -120.182 	 22.1235 	 -12.3632
| 32> C 	 -121.399 	 22.3602 	 -10.6048
| 33> H 	 -120.396 	 22.5558 	 -10.1812
| 34> H 	 -121.629 	 21.3402 	 -10.3719
| 35> C 	 -122.323 	 23.3773 	 -9.88795
| 36> H 	 -123.248 	 23.1593 	 -10.3574
| 37> H 	 -122.197 	 24.4154 	 -9.9962
| 38> H 	 -122.418 	 23.0554 	 -8.85045
| 39> H 	 -118.569 	 24.7544 	 -16.4528
| 40> H 	 -125.313 	 20.9461 	 -13.6551
| 41> *
| 42>
| 43>                          ****END OF INPUT****

CARTESIAN COORDINATES (ANGSTROEM)
---------------------------------
  S    -120.814000   24.193800  -15.452200
  C    -119.253000   23.918900  -16.229600
  C    -118.843000   22.608700  -16.315600
  C    -119.823000   21.728600  -15.765000
  C    -120.943000   22.400300  -15.250100
  H    -119.744000   20.637700  -15.531700
  C    -117.570000   22.066500  -16.794200
  H    -116.749000   22.379600  -16.139800
  H    -117.331000   22.707100  -17.653500
  C    -117.520000   20.598500  -17.279900
  H    -116.449000   20.269600  -17.547400
  H    -117.708000   19.964400  -16.449100
  C    -118.457000   20.122200  -18.379200
  H    -119.541000   20.277400  -18.189700
  H    -118.233000   20.485200  -19.419500
  H    -118.388000   19.041800  -18.456100
  S    -123.361000   21.037700  -15.200700
  C    -124.243000   21.030900  -13.709900
  C    -123.539000   21.623500  -12.724200
  C    -122.226000   21.948500  -13.098900
  C    -122.007000   21.851400  -14.465800
  H    -123.974000   21.653100  -11.768500
  C    -121.218000   22.552300  -12.134000
  H    -121.150000   23.628900  -12.335800
  H    -120.182000   22.123500  -12.363200
  C    -121.399000   22.360200  -10.604800
  H    -120.396000   22.555800  -10.181200
  H    -121.629000   21.340200  -10.371900
  C    -122.323000   23.377300   -9.887950
  H    -123.248000   23.159300  -10.357400
  H    -122.197000   24.415400   -9.996200
  H    -122.418000   23.055400   -8.850450
  H    -118.569000   24.754400  -16.452800
  H    -125.313000   20.946100  -13.655100

 Total Charge           Charge          ....    0
 Multiplicity           Mult            ....    1
 Number of Electrons    NEL             ....  134
 Basis Dimension        Dim             ....  322

ORBITAL ENERGIES
----------------

  NO   OCC          E(Eh)            E(eV)
   0   2.0000     -88.969091     -2420.9721
   1   2.0000     -88.960911     -2420.7494
   2   2.0000     -10.330080      -281.0958
   3   2.0000     -10.317571      -280.7554
   4   2.0000     -10.315298      -280.6935
   5   2.0000     -10.308248      -280.5017
   6   2.0000     -10.300127      -280.2807
   7   2.0000     -10.299604      -280.2665
   8   2.0000     -10.298279      -280.2304
   9   2.0000     -10.295831      -280.1638
  10   2.0000     -10.292844      -280.0825
  11   2.0000     -10.292252      -280.0664
  12   2.0000     -10.286707      -279.9155
  13   2.0000     -10.283266      -279.8219
  14   2.0000     -10.282305      -279.7957
  15   2.0000     -10.270342      -279.4702
  16   2.0000      -8.082382      -219.9328
  17   2.0000      -8.076393      -219.7698
  18   2.0000      -6.040862      -164.3802
  19   2.0000      -6.037300      -164.2833
  20   2.0000      -6.034745      -164.2137
  21   2.0000      -6.033061      -164.1679
  22   2.0000      -6.030744      -164.1049
  23   2.0000      -6.027313      -164.0115
  24   2.0000      -1.007177       -27.4067
  25   2.0000      -0.982599       -26.7379
  26   2.0000      -0.913175       -24.8488
  27   2.0000      -0.903140       -24.5757
  28   2.0000      -0.872533       -23.7428
  29   2.0000      -0.848656       -23.0931
  30   2.0000      -0.846377       -23.0311
  31   2.0000      -0.817573       -22.2473
  32   2.0000      -0.786782       -21.4094
  33   2.0000      -0.771878       -21.0039
  34   2.0000      -0.713007       -19.4019
  35   2.0000      -0.698752       -19.0140
  36   2.0000      -0.692216       -18.8362
  37   2.0000      -0.657424       -17.8894
  38   2.0000      -0.635799       -17.3010
  39   2.0000      -0.621666       -16.9164
  40   2.0000      -0.598581       -16.2882
  41   2.0000      -0.566780       -15.4229
  42   2.0000      -0.554923       -15.1002
  43   2.0000      -0.542426       -14.7602
  44   2.0000      -0.533029       -14.5045
  45   2.0000      -0.530461       -14.4346
  46   2.0000      -0.521167       -14.1817
  47   2.0000      -0.514590       -14.0027
  48   2.0000      -0.508982       -13.8501
  49   2.0000      -0.494525       -13.4567
  50   2.0000      -0.492057       -13.3895
  51   2.0000      -0.476540       -12.9673
  52   2.0000      -0.472267       -12.8510
  53   2.0000      -0.469235       -12.7685
  54   2.0000      -0.457527       -12.4500
  55   2.0000      -0.448279       -12.1983
  56   2.0000      -0.444254       -12.0888
  57   2.0000      -0.442244       -12.0341
  58   2.0000      -0.431358       -11.7379
  59   2.0000      -0.425976       -11.5914
  60   2.0000      -0.418622       -11.3913
  61   2.0000      -0.412762       -11.2318
  62   2.0000      -0.402115       -10.9421
  63   2.0000      -0.336604        -9.1595
  64   2.0000      -0.333592        -9.0775
  65   2.0000      -0.317895        -8.6504
  66   2.0000      -0.299684        -8.1548
  67   0.0000       0.034489         0.9385
  68   0.0000       0.051883         1.4118
  69   0.0000       0.107462         2.9242
  70   0.0000       0.120128         3.2689
  71   0.0000       0.137426         3.7396

MULLIKEN ATOMIC CHARGES
-----------------------
   0 S :    0.114904
   1 C :   -0.135889
   2 C :   -0.079999
   3 C :    0.016233
   4 C :   -0.182584
   5 H :    0.041038
   6 C :    0.093783
   7 H :    0.043123
   8 H :    0.019143
   9 C :   -0.080530
  10 H :    0.037953
  11 H :    0.019028
  12 C :   -0.068350
  13 H :    0.045453
  14 H :    0.039761
  15 H :    0.027662
  16 S :    0.110444
  17 C :   -0.077966
  18 C :   -0.044725
  19 C :   -0.017507
  20 C :   -0.180535
  21 H :    0.012355
  22 C :    0.035472
  23 H :    0.034850
  24 H :    0.043514
  25 C :   -0.083397
  26 H :    0.028488
  27 H :    0.027147
  28 C :   -0.005075
  29 H :   -0.006679
  30 H :    0.031296
  31 H :    0.035311
  32 H :    0.049595
  33 H :    0.056684
Sum of atomic charges:   -0.0000000

LOEWDIN ATOMIC CHARGES
----------------------
   0 S :    0.382709
   1 C :   -0.194858
   2 C :   -0.067851
   3 C :   -0.056828
   4 C :   -0.176902
   5 H :    0.043539
   6 C :   -0.043488
   7 H :    0.041392
   8 H :    0.037022
   9 C :   -0.046655
  10 H :    0.038505
  11 H :    0.017221
  12 C :   -0.073902
  13 H :    0.030405
  14 H :    0.028958
  15 H :    0.028310
  16 S :    0.416348
  17 C :   -0.188405
  18 C :   -0.073324
  19 C :   -0.055477
  20 C :   -0.218085
  21 H :    0.025204
  22 C :   -0.040983
  23 H :    0.030995
  24 H :    0.042833
  25 C :   -0.040140
  26 H :    0.027496
  27 H :    0.021214
  28 C :   -0.062038
  29 H :    0.015662
  30 H :    0.020883
  31 H :    0.030570
  32 H :    0.029676
  33 H :    0.029993

  Mayer bond orders larger than 0.100000
B(  0-S ,  1-C ) :   1.1310 B(  0-S ,  4-C ) :   1.1275 B(  1-C ,  2-C ) :   1.6424
B(  1-C , 32-H ) :   0.9605 B(  2-C ,  3-C ) :   1.2221 B(  2-C ,  6-C ) :   1.0092
B(  3-C ,  4-C ) :   1.6093 B(  3-C ,  5-H ) :   0.9756 B(  4-C , 20-C ) :   1.0479
B(  6-C ,  7-H ) :   0.9275 B(  6-C ,  8-H ) :   0.9287 B(  6-C ,  9-C ) :   1.0723
B(  9-C , 10-H ) :   0.9512 B(  9-C , 11-H ) :   0.9468 B(  9-C , 12-C ) :   1.0857
B( 12-C , 13-H ) :   0.9700 B( 12-C , 14-H ) :   0.9745 B( 12-C , 15-H ) :   0.9699
B( 16-S , 17-C ) :   1.1668 B( 16-S , 20-C ) :   1.1486 B( 17-C , 18-C ) :   1.6192
B( 17-C , 33-H ) :   0.9568 B( 18-C , 19-C ) :   1.2528 B( 18-C , 21-H ) :   0.9867
B( 19-C , 20-C ) :   1.5708 B( 19-C , 22-C ) :   1.0427 B( 22-C , 23-H ) :   0.9279
B( 22-C , 24-H ) :   0.9338 B( 22-C , 25-C ) :   1.0746 B( 25-C , 26-H ) :   0.9566
B( 25-C , 27-H ) :   0.9585 B( 25-C , 28-C ) :   1.0700 B( 28-C , 29-H ) :   0.9767
B( 28-C , 30-H ) :   0.9731 B( 28-C , 31-H ) :   0.9704

Dispersion correction           -0.014645773
FINAL SINGLE POINT ENERGY     -1339.864147997159

DIPOLE MOMENT
-------------
                                X             Y             Z
Electronic contribution:    -13.41702       5.03306      -7.58951
Nuclear contribution   :     13.87291      -5.10818       7.91434
                        -----------------------------------------
Total Dipole Moment    :      0.45589      -0.07512       0.32483
                        -----------------------------------------
Magnitude (a.u.)       :      0.56479
Magnitude (Debye)      :      1.43559

Rotational constants in cm-1:     0.020705     0.007945     0.006980
Rotational constants in MHz :   620.722859   238.197341   209.267843

                             ****ORCA TERMINATED NORMALLY****
TOTAL RUN TIME: 0 days 0 hours 0 minutes 21 seconds 652 msec
