                         Program Version 4.2.1 -  RELEASE  -
|  1> ! wB97X-D3 SP def2-SVP
|  2> %pal
|  3> nprocs 24
|  4> end
|  5>
|  6> * xyz 0 1
|  7> S 	 -114.332 	 61.9398 	 -31.1608
|  8> C 	 -113.072 	 62.9891 	 -30.5484
|  9> C 	 -113.576 	 63.8739 	 -29.643
| 10> C 	 -114.83 	 63.4221 	 -29.1054
| 11> C 	 -115.371 	 62.36 	 -29.8445
| 12> H 	 -115.273 	 63.8548 	 -28.2408
| 13> C 	 -112.705 	 64.896 	 -29.0248
| 14> H 	 -113.236 	 65.7734 	 -28.7003
| 15> H 	 -112.129 	 65.2652 	 -29.9226
| 16> C 	 -111.744 	 64.4658 	 -27.9132
| 17> H 	 -112.263 	 64.0954 	 -26.9964
| 18> H 	 -111.163 	 63.6203 	 -28.227
| 19> C 	 -110.884 	 65.683 	 -27.5177
| 20> H 	 -111.375 	 66.5971 	 -27.3907
| 21> H 	 -110.22 	 65.5173 	 -26.7095
| 22> H 	 -110.136 	 65.8369 	 -28.3098
| 23> S 	 -117.637 	 61.5775 	 -31.1162
| 24> C 	 -119.024 	 61.0638 	 -30.1619
| 25> C 	 -118.782 	 61.1339 	 -28.7933
| 26> C 	 -117.498 	 61.5811 	 -28.4968
| 27> C 	 -116.686 	 61.7799 	 -29.6553
| 28> H 	 -119.687 	 60.9458 	 -28.1069
| 29> C 	 -117.101 	 61.6635 	 -27.0303
| 30> H 	 -116.049 	 61.8927 	 -26.9435
| 31> H 	 -117.233 	 60.6426 	 -26.6501
| 32> C 	 -117.887 	 62.5756 	 -26.0701
| 33> H 	 -117.496 	 62.4786 	 -25.0499
| 34> H 	 -118.89 	 62.186 	 -25.9947
| 35> C 	 -118.077 	 64.0557 	 -26.5514
| 36> H 	 -118.736 	 64.5945 	 -25.94
| 37> H 	 -118.549 	 63.9616 	 -27.5581
| 38> H 	 -117.165 	 64.5827 	 -26.8042
| 39> H 	 -112.194 	 63.2545 	 -31.0733
| 40> H 	 -119.984 	 60.7552 	 -30.6153
| 41> *
| 42>
| 43>                          ****END OF INPUT****

CARTESIAN COORDINATES (ANGSTROEM)
---------------------------------
  S    -114.332000   61.939800  -31.160800
  C    -113.072000   62.989100  -30.548400
  C    -113.576000   63.873900  -29.643000
  C    -114.830000   63.422100  -29.105400
  C    -115.371000   62.360000  -29.844500
  H    -115.273000   63.854800  -28.240800
  C    -112.705000   64.896000  -29.024800
  H    -113.236000   65.773400  -28.700300
  H    -112.129000   65.265200  -29.922600
  C    -111.744000   64.465800  -27.913200
  H    -112.263000   64.095400  -26.996400
  H    -111.163000   63.620300  -28.227000
  C    -110.884000   65.683000  -27.517700
  H    -111.375000   66.597100  -27.390700
  H    -110.220000   65.517300  -26.709500
  H    -110.136000   65.836900  -28.309800
  S    -117.637000   61.577500  -31.116200
  C    -119.024000   61.063800  -30.161900
  C    -118.782000   61.133900  -28.793300
  C    -117.498000   61.581100  -28.496800
  C    -116.686000   61.779900  -29.655300
  H    -119.687000   60.945800  -28.106900
  C    -117.101000   61.663500  -27.030300
  H    -116.049000   61.892700  -26.943500
  H    -117.233000   60.642600  -26.650100
  C    -117.887000   62.575600  -26.070100
  H    -117.496000   62.478600  -25.049900
  H    -118.890000   62.186000  -25.994700
  C    -118.077000   64.055700  -26.551400
  H    -118.736000   64.594500  -25.940000
  H    -118.549000   63.961600  -27.558100
  H    -117.165000   64.582700  -26.804200
  H    -112.194000   63.254500  -31.073300
  H    -119.984000   60.755200  -30.615300

 Total Charge           Charge          ....    0
 Multiplicity           Mult            ....    1
 Number of Electrons    NEL             ....  134
 Basis Dimension        Dim             ....  322

ORBITAL ENERGIES
----------------

  NO   OCC          E(Eh)            E(eV)
   0   2.0000     -88.968941     -2420.9680
   1   2.0000     -88.967439     -2420.9271
   2   2.0000     -10.331580      -281.1366
   3   2.0000     -10.330808      -281.1156
   4   2.0000     -10.320838      -280.8443
   5   2.0000     -10.307218      -280.4737
   6   2.0000     -10.305784      -280.4346
   7   2.0000     -10.299365      -280.2600
   8   2.0000     -10.295228      -280.1474
   9   2.0000     -10.292627      -280.0766
  10   2.0000     -10.291164      -280.0368
  11   2.0000     -10.290934      -280.0305
  12   2.0000     -10.290237      -280.0116
  13   2.0000     -10.290097      -280.0078
  14   2.0000     -10.276218      -279.6301
  15   2.0000     -10.272308      -279.5237
  16   2.0000      -8.083397      -219.9604
  17   2.0000      -8.082472      -219.9352
  18   2.0000      -6.041819      -164.4063
  19   2.0000      -6.041013      -164.3843
  20   2.0000      -6.037959      -164.3012
  21   2.0000      -6.037060      -164.2768
  22   2.0000      -6.034257      -164.2005
  23   2.0000      -6.033066      -164.1681
  24   2.0000      -1.008807       -27.4510
  25   2.0000      -0.985735       -26.8232
  26   2.0000      -0.916791       -24.9471
  27   2.0000      -0.906394       -24.6642
  28   2.0000      -0.871593       -23.7172
  29   2.0000      -0.849711       -23.1218
  30   2.0000      -0.847036       -23.0490
  31   2.0000      -0.813345       -22.1322
  32   2.0000      -0.784771       -21.3547
  33   2.0000      -0.773079       -21.0365
  34   2.0000      -0.713664       -19.4198
  35   2.0000      -0.707552       -19.2535
  36   2.0000      -0.694093       -18.8872
  37   2.0000      -0.657760       -17.8986
  38   2.0000      -0.637075       -17.3357
  39   2.0000      -0.621234       -16.9046
  40   2.0000      -0.594483       -16.1767
  41   2.0000      -0.576958       -15.6998
  42   2.0000      -0.554733       -15.0951
  43   2.0000      -0.551206       -14.9991
  44   2.0000      -0.535531       -14.5725
  45   2.0000      -0.528861       -14.3910
  46   2.0000      -0.521310       -14.1856
  47   2.0000      -0.508927       -13.8486
  48   2.0000      -0.502863       -13.6836
  49   2.0000      -0.498356       -13.5610
  50   2.0000      -0.495983       -13.4964
  51   2.0000      -0.478702       -13.0261
  52   2.0000      -0.473200       -12.8764
  53   2.0000      -0.461881       -12.5684
  54   2.0000      -0.456325       -12.4172
  55   2.0000      -0.454546       -12.3688
  56   2.0000      -0.445276       -12.1166
  57   2.0000      -0.441512       -12.0141
  58   2.0000      -0.437200       -11.8968
  59   2.0000      -0.428124       -11.6498
  60   2.0000      -0.421014       -11.4564
  61   2.0000      -0.415973       -11.3192
  62   2.0000      -0.412623       -11.2281
  63   2.0000      -0.353197        -9.6110
  64   2.0000      -0.334336        -9.0978
  65   2.0000      -0.329398        -8.9634
  66   2.0000      -0.283053        -7.7023
  67   0.0000       0.021604         0.5879
  68   0.0000       0.069686         1.8962
  69   0.0000       0.101672         2.7666
  70   0.0000       0.123168         3.3516
  71   0.0000       0.127032         3.4567

MULLIKEN ATOMIC CHARGES
-----------------------
   0 S :    0.111411
   1 C :   -0.092280
   2 C :   -0.083019
   3 C :    0.038774
   4 C :   -0.126134
   5 H :   -0.020366
   6 C :    0.013344
   7 H :    0.017452
   8 H :    0.025097
   9 C :   -0.039340
  10 H :    0.031722
  11 H :    0.022345
  12 C :   -0.018393
  13 H :    0.023622
  14 H :    0.020217
  15 H :    0.017312
  16 S :    0.102965
  17 C :   -0.114795
  18 C :   -0.065052
  19 C :   -0.041705
  20 C :   -0.130745
  21 H :    0.055971
  22 C :    0.056884
  23 H :    0.020123
  24 H :    0.040555
  25 C :   -0.071580
  26 H :    0.034405
  27 H :    0.014782
  28 C :   -0.049782
  29 H :    0.031714
  30 H :    0.038160
  31 H :    0.034014
  32 H :    0.035994
  33 H :    0.066330
Sum of atomic charges:    0.0000000

LOEWDIN ATOMIC CHARGES
----------------------
   0 S :    0.413099
   1 C :   -0.194269
   2 C :   -0.062337
   3 C :   -0.056764
   4 C :   -0.197734
   5 H :    0.021352
   6 C :   -0.039439
   7 H :    0.026115
   8 H :    0.037033
   9 C :   -0.032403
  10 H :    0.027075
  11 H :    0.022309
  12 C :   -0.061898
  13 H :    0.017868
  14 H :    0.022028
  15 H :    0.028437
  16 S :    0.406260
  17 C :   -0.188191
  18 C :   -0.082692
  19 C :   -0.061322
  20 C :   -0.195761
  21 H :    0.050877
  22 C :   -0.032649
  23 H :    0.024936
  24 H :    0.039531
  25 C :   -0.037579
  26 H :    0.026214
  27 H :    0.018132
  28 C :   -0.065304
  29 H :    0.018954
  30 H :    0.034973
  31 H :    0.020186
  32 H :    0.020005
  33 H :    0.032961

  Mayer bond orders larger than 0.100000
B(  0-S ,  1-C ) :   1.1279 B(  0-S ,  4-C ) :   1.1581 B(  1-C ,  2-C ) :   1.6121
B(  1-C , 32-H ) :   0.9652 B(  2-C ,  3-C ) :   1.2414 B(  2-C ,  6-C ) :   1.0478
B(  3-C ,  4-C ) :   1.5335 B(  3-C ,  5-H ) :   1.0020 B(  4-C , 20-C ) :   1.0625
B(  6-C ,  7-H ) :   0.9379 B(  6-C ,  8-H ) :   0.9383 B(  6-C ,  9-C ) :   1.0583
B(  9-C , 10-H ) :   0.9557 B(  9-C , 11-H ) :   0.9542 B(  9-C , 12-C ) :   1.0750
B( 12-C , 13-H ) :   0.9775 B( 12-C , 14-H ) :   0.9717 B( 12-C , 15-H ) :   0.9725
B( 16-S , 17-C ) :   1.1627 B( 16-S , 20-C ) :   1.1546 B( 17-C , 18-C ) :   1.5924
B( 17-C , 20-C ) :   0.1133 B( 17-C , 33-H ) :   0.9633 B( 18-C , 19-C ) :   1.2638
B( 18-C , 21-H ) :   0.9773 B( 19-C , 20-C ) :   1.5494 B( 19-C , 22-C ) :   1.0339
B( 22-C , 23-H ) :   0.9380 B( 22-C , 24-H ) :   0.9396 B( 22-C , 25-C ) :   1.0758
B( 25-C , 26-H ) :   0.9563 B( 25-C , 27-H ) :   0.9510 B( 25-C , 28-C ) :   1.0709
B( 28-C , 29-H ) :   0.9752 B( 28-C , 30-H ) :   0.9687 B( 28-C , 31-H ) :   0.9760

Dispersion correction           -0.014429392
FINAL SINGLE POINT ENERGY     -1339.871581603485

DIPOLE MOMENT
-------------
                                X             Y             Z
Electronic contribution:     -8.63477     -15.74210     -24.03639
Nuclear contribution   :      8.59342      16.10827      24.60032
                        -----------------------------------------
Total Dipole Moment    :     -0.04134       0.36617       0.56393
                        -----------------------------------------
Magnitude (a.u.)       :      0.67365
Magnitude (Debye)      :      1.71229

Rotational constants in cm-1:     0.019458     0.008643     0.006369
Rotational constants in MHz :   583.346160   259.122669   190.946951

                             ****ORCA TERMINATED NORMALLY****
TOTAL RUN TIME: 0 days 0 hours 0 minutes 21 seconds 692 msec
