                         Program Version 4.2.1 -  RELEASE  -
|  1> ! wB97X-D3 SP def2-SVP
|  2> %pal
|  3> nprocs 24
|  4> end
|  5>
|  6> * xyz 0 1
|  7> S 	 -46.8983 	 -3.75011 	 -12.4686
|  8> C 	 -46.854 	 -2.21298 	 -11.6209
|  9> C 	 -46.5791 	 -1.10599 	 -12.4601
| 10> C 	 -46.5123 	 -1.45733 	 -13.8456
| 11> C 	 -46.4685 	 -2.85078 	 -13.9777
| 12> H 	 -46.5955 	 -0.767321 	 -14.7321
| 13> C 	 -46.5468 	 0.320778 	 -12.1379
| 14> H 	 -46.0183 	 0.84971 	 -13.0233
| 15> H 	 -45.8916 	 0.40447 	 -11.254
| 16> C 	 -47.8489 	 0.989261 	 -11.6975
| 17> H 	 -48.3528 	 0.532376 	 -10.8046
| 18> H 	 -47.6625 	 1.95584 	 -11.3952
| 19> C 	 -48.8293 	 0.988462 	 -12.9551
| 20> H 	 -49.0036 	 -0.0710796 	 -13.2962
| 21> H 	 -49.8094 	 1.47428 	 -12.6266
| 22> H 	 -48.3523 	 1.61152 	 -13.7654
| 23> S 	 -44.6817 	 -2.82634 	 -16.0448
| 24> C 	 -44.5483 	 -4.14551 	 -17.1205
| 25> C 	 -45.6087 	 -5.05632 	 -16.8981
| 26> C 	 -46.5979 	 -4.65229 	 -15.9268
| 27> C 	 -46.1254 	 -3.51185 	 -15.2533
| 28> H 	 -45.6749 	 -5.87301 	 -17.4785
| 29> C 	 -47.7963 	 -5.39302 	 -15.5357
| 30> H 	 -47.8151 	 -5.46726 	 -14.408
| 31> H 	 -47.6367 	 -6.40281 	 -15.9891
| 32> C 	 -49.1517 	 -4.88501 	 -15.9316
| 33> H 	 -48.9811 	 -3.80983 	 -16.1857
| 34> H 	 -49.8009 	 -4.84925 	 -15.0283
| 35> C 	 -49.7987 	 -5.53021 	 -17.1462
| 36> H 	 -50.8641 	 -5.6872 	 -17.1595
| 37> H 	 -49.4259 	 -6.59669 	 -17.3157
| 38> H 	 -49.62 	 -4.92279 	 -18.0533
| 39> H 	 -46.8512 	 -2.20872 	 -10.5618
| 40> H 	 -43.9294 	 -4.11601 	 -18.0304
| 41> *
| 42>
| 43>                          ****END OF INPUT****

CARTESIAN COORDINATES (ANGSTROEM)
---------------------------------
  S    -46.898300   -3.750110  -12.468600
  C    -46.854000   -2.212980  -11.620900
  C    -46.579100   -1.105990  -12.460100
  C    -46.512300   -1.457330  -13.845600
  C    -46.468500   -2.850780  -13.977700
  H    -46.595500   -0.767321  -14.732100
  C    -46.546800    0.320778  -12.137900
  H    -46.018300    0.849710  -13.023300
  H    -45.891600    0.404470  -11.254000
  C    -47.848900    0.989261  -11.697500
  H    -48.352800    0.532376  -10.804600
  H    -47.662500    1.955840  -11.395200
  C    -48.829300    0.988462  -12.955100
  H    -49.003600   -0.071080  -13.296200
  H    -49.809400    1.474280  -12.626600
  H    -48.352300    1.611520  -13.765400
  S    -44.681700   -2.826340  -16.044800
  C    -44.548300   -4.145510  -17.120500
  C    -45.608700   -5.056320  -16.898100
  C    -46.597900   -4.652290  -15.926800
  C    -46.125400   -3.511850  -15.253300
  H    -45.674900   -5.873010  -17.478500
  C    -47.796300   -5.393020  -15.535700
  H    -47.815100   -5.467260  -14.408000
  H    -47.636700   -6.402810  -15.989100
  C    -49.151700   -4.885010  -15.931600
  H    -48.981100   -3.809830  -16.185700
  H    -49.800900   -4.849250  -15.028300
  C    -49.798700   -5.530210  -17.146200
  H    -50.864100   -5.687200  -17.159500
  H    -49.425900   -6.596690  -17.315700
  H    -49.620000   -4.922790  -18.053300
  H    -46.851200   -2.208720  -10.561800
  H    -43.929400   -4.116010  -18.030400

 Total Charge           Charge          ....    0
 Multiplicity           Mult            ....    1
 Number of Electrons    NEL             ....  134
 Basis Dimension        Dim             ....  322

ORBITAL ENERGIES
----------------

  NO   OCC          E(Eh)            E(eV)
   0   2.0000     -88.973538     -2421.0930
   1   2.0000     -88.964061     -2420.8352
   2   2.0000     -10.336821      -281.2792
   3   2.0000     -10.327162      -281.0164
   4   2.0000     -10.317247      -280.7466
   5   2.0000     -10.315873      -280.7092
   6   2.0000     -10.303223      -280.3649
   7   2.0000     -10.302460      -280.3442
   8   2.0000     -10.299836      -280.2728
   9   2.0000     -10.294683      -280.1326
  10   2.0000     -10.291997      -280.0595
  11   2.0000     -10.289989      -280.0048
  12   2.0000     -10.289762      -279.9987
  13   2.0000     -10.287453      -279.9358
  14   2.0000     -10.285864      -279.8926
  15   2.0000     -10.280775      -279.7541
  16   2.0000      -8.086709      -220.0505
  17   2.0000      -8.078867      -219.8372
  18   2.0000      -6.045256      -164.4998
  19   2.0000      -6.041648      -164.4016
  20   2.0000      -6.037352      -164.2847
  21   2.0000      -6.037249      -164.2819
  22   2.0000      -6.033174      -164.1710
  23   2.0000      -6.029934      -164.0828
  24   2.0000      -0.999834       -27.2069
  25   2.0000      -0.978451       -26.6250
  26   2.0000      -0.915944       -24.9241
  27   2.0000      -0.910469       -24.7751
  28   2.0000      -0.861996       -23.4561
  29   2.0000      -0.852939       -23.2097
  30   2.0000      -0.844759       -22.9871
  31   2.0000      -0.804767       -21.8988
  32   2.0000      -0.781360       -21.2619
  33   2.0000      -0.764128       -20.7930
  34   2.0000      -0.708848       -19.2887
  35   2.0000      -0.703371       -19.1397
  36   2.0000      -0.684069       -18.6145
  37   2.0000      -0.667152       -18.1541
  38   2.0000      -0.638520       -17.3750
  39   2.0000      -0.606409       -16.5012
  40   2.0000      -0.592260       -16.1162
  41   2.0000      -0.567027       -15.4296
  42   2.0000      -0.559441       -15.2232
  43   2.0000      -0.546564       -14.8728
  44   2.0000      -0.543024       -14.7764
  45   2.0000      -0.536982       -14.6120
  46   2.0000      -0.516915       -14.0660
  47   2.0000      -0.511507       -13.9188
  48   2.0000      -0.498704       -13.5704
  49   2.0000      -0.490126       -13.3370
  50   2.0000      -0.480602       -13.0778
  51   2.0000      -0.477569       -12.9953
  52   2.0000      -0.468737       -12.7550
  53   2.0000      -0.466512       -12.6944
  54   2.0000      -0.453018       -12.3272
  55   2.0000      -0.451892       -12.2966
  56   2.0000      -0.444256       -12.0888
  57   2.0000      -0.437963       -11.9176
  58   2.0000      -0.428603       -11.6629
  59   2.0000      -0.425378       -11.5751
  60   2.0000      -0.417951       -11.3730
  61   2.0000      -0.408803       -11.1241
  62   2.0000      -0.406449       -11.0600
  63   2.0000      -0.343366        -9.3435
  64   2.0000      -0.330561        -8.9950
  65   2.0000      -0.327942        -8.9237
  66   2.0000      -0.281038        -7.6474
  67   0.0000       0.016699         0.4544
  68   0.0000       0.066103         1.7987
  69   0.0000       0.094320         2.5666
  70   0.0000       0.109511         2.9799
  71   0.0000       0.117787         3.2052

MULLIKEN ATOMIC CHARGES
-----------------------
   0 S :    0.100255
   1 C :   -0.109503
   2 C :   -0.062872
   3 C :   -0.038869
   4 C :   -0.119596
   5 H :    0.058226
   6 C :    0.007183
   7 H :    0.045783
   8 H :    0.030979
   9 C :   -0.021234
  10 H :    0.035521
  11 H :    0.012016
  12 C :   -0.122854
  13 H :    0.065995
  14 H :    0.046877
  15 H :    0.039315
  16 S :    0.110748
  17 C :   -0.101052
  18 C :   -0.007698
  19 C :   -0.030882
  20 C :   -0.171543
  21 H :   -0.029933
  22 C :    0.031405
  23 H :    0.040418
  24 H :    0.023363
  25 C :   -0.058346
  26 H :    0.038185
  27 H :    0.037866
  28 C :   -0.067003
  29 H :    0.030896
  30 H :    0.029282
  31 H :    0.041620
  32 H :    0.039780
  33 H :    0.075673
Sum of atomic charges:   -0.0000000

LOEWDIN ATOMIC CHARGES
----------------------
   0 S :    0.387598
   1 C :   -0.195328
   2 C :   -0.059854
   3 C :   -0.075224
   4 C :   -0.173093
   5 H :    0.046648
   6 C :   -0.045977
   7 H :    0.042212
   8 H :    0.035745
   9 C :   -0.033031
  10 H :    0.030159
  11 H :    0.011281
  12 C :   -0.078266
  13 H :    0.033212
  14 H :    0.030013
  15 H :    0.026895
  16 S :    0.422304
  17 C :   -0.209725
  18 C :   -0.055883
  19 C :   -0.060321
  20 C :   -0.187642
  21 H :    0.006086
  22 C :   -0.044280
  23 H :    0.035047
  24 H :    0.034474
  25 C :   -0.052269
  26 H :    0.034580
  27 H :    0.031142
  28 C :   -0.076046
  29 H :    0.024595
  30 H :    0.029320
  31 H :    0.031425
  32 H :    0.017186
  33 H :    0.037018

  Mayer bond orders larger than 0.100000
B(  0-S ,  1-C ) :   1.1250 B(  0-S ,  4-C ) :   1.1398 B(  1-C ,  2-C ) :   1.5964
B(  1-C , 32-H ) :   0.9725 B(  2-C ,  3-C ) :   1.2260 B(  2-C ,  6-C ) :   1.0396
B(  3-C ,  4-C ) :   1.5593 B(  3-C ,  5-H ) :   0.9785 B(  4-C , 20-C ) :   1.0698
B(  6-C ,  7-H ) :   0.9450 B(  6-C ,  8-H ) :   0.9228 B(  6-C ,  9-C ) :   1.0781
B(  9-C , 10-H ) :   0.9545 B(  9-C , 11-H ) :   0.9535 B(  9-C , 12-C ) :   1.0605
B( 12-C , 13-H ) :   0.9757 B( 12-C , 14-H ) :   0.9758 B( 12-C , 15-H ) :   0.9747
B( 16-S , 17-C ) :   1.1713 B( 16-S , 20-C ) :   1.1536 B( 17-C , 18-C ) :   1.5625
B( 17-C , 20-C ) :   0.1018 B( 17-C , 33-H ) :   0.9626 B( 18-C , 19-C ) :   1.2706
B( 18-C , 21-H ) :   1.0025 B( 19-C , 20-C ) :   1.5184 B( 19-C , 22-C ) :   1.0642
B( 22-C , 23-H ) :   0.9301 B( 22-C , 24-H ) :   0.9321 B( 22-C , 25-C ) :   1.0510
B( 25-C , 26-H ) :   0.9624 B( 25-C , 27-H ) :   0.9577 B( 25-C , 28-C ) :   1.0608
B( 28-C , 29-H ) :   0.9768 B( 28-C , 30-H ) :   0.9777 B( 28-C , 31-H ) :   0.9786

Dispersion correction           -0.014632614
FINAL SINGLE POINT ENERGY     -1339.846719440837

DIPOLE MOMENT
-------------
                                X             Y             Z
Electronic contribution:     18.14530      -6.98112       1.51453
Nuclear contribution   :    -18.43760       7.18904      -1.55420
                        -----------------------------------------
Total Dipole Moment    :     -0.29230       0.20792      -0.03967
                        -----------------------------------------
Magnitude (a.u.)       :      0.36089
Magnitude (Debye)      :      0.91731

Rotational constants in cm-1:     0.019478     0.008330     0.007263
Rotational constants in MHz :   583.946758   249.741547   217.727371

                             ****ORCA TERMINATED NORMALLY****
TOTAL RUN TIME: 0 days 0 hours 0 minutes 20 seconds 585 msec
