                         Program Version 4.2.1 -  RELEASE  -
|  1> ! wB97X-D3 SP def2-SVP
|  2> %pal
|  3> nprocs 24
|  4> end
|  5>
|  6> * xyz 0 1
|  7> S 	 -38.8978 	 -47.3822 	 -72.1837
|  8> C 	 -39.2526 	 -47.7961 	 -73.8366
|  9> C 	 -38.6573 	 -48.9223 	 -74.2334
| 10> C 	 -37.9121 	 -49.5248 	 -73.2264
| 11> C 	 -37.839 	 -48.7961 	 -72.0481
| 12> H 	 -37.4445 	 -50.5156 	 -73.2982
| 13> C 	 -38.9806 	 -49.729 	 -75.4684
| 14> H 	 -38.2714 	 -50.5658 	 -75.4554
| 15> H 	 -38.8526 	 -49.2103 	 -76.4282
| 16> C 	 -40.365 	 -50.3742 	 -75.3467
| 17> H 	 -41.0759 	 -49.6857 	 -75.2027
| 18> H 	 -40.7226 	 -50.841 	 -76.2472
| 19> C 	 -40.5988 	 -51.5168 	 -74.2452
| 20> H 	 -40.6213 	 -50.9525 	 -73.3452
| 21> H 	 -41.6105 	 -51.9779 	 -74.2017
| 22> H 	 -39.7594 	 -52.1976 	 -74.115
| 23> S 	 -37.8912 	 -48.9347 	 -69.2975
| 24> C 	 -36.5597 	 -49.7348 	 -68.4123
| 25> C 	 -35.5207 	 -49.9004 	 -69.3023
| 26> C 	 -35.9348 	 -49.7409 	 -70.6935
| 27> C 	 -37.1857 	 -49.1711 	 -70.8502
| 28> H 	 -34.5191 	 -50.207 	 -68.9672
| 29> C 	 -34.8413 	 -49.9489 	 -71.7234
| 30> H 	 -33.8597 	 -49.7827 	 -71.3176
| 31> H 	 -34.8589 	 -49.1611 	 -72.3964
| 32> C 	 -34.885 	 -51.3446 	 -72.4618
| 33> H 	 -35.899 	 -51.7265 	 -72.5261
| 34> H 	 -34.3318 	 -52.149 	 -71.9009
| 35> C 	 -34.2981 	 -51.2952 	 -73.8192
| 36> H 	 -34.3604 	 -52.1698 	 -74.4586
| 37> H 	 -33.2517 	 -51.1619 	 -73.6843
| 38> H 	 -34.8081 	 -50.603 	 -74.494
| 39> H 	 -40.0035 	 -47.3942 	 -74.3972
| 40> H 	 -36.5646 	 -49.748 	 -67.3573
| 41> *
| 42>
| 43>                          ****END OF INPUT****

CARTESIAN COORDINATES (ANGSTROEM)
---------------------------------
  S    -38.897800  -47.382200  -72.183700
  C    -39.252600  -47.796100  -73.836600
  C    -38.657300  -48.922300  -74.233400
  C    -37.912100  -49.524800  -73.226400
  C    -37.839000  -48.796100  -72.048100
  H    -37.444500  -50.515600  -73.298200
  C    -38.980600  -49.729000  -75.468400
  H    -38.271400  -50.565800  -75.455400
  H    -38.852600  -49.210300  -76.428200
  C    -40.365000  -50.374200  -75.346700
  H    -41.075900  -49.685700  -75.202700
  H    -40.722600  -50.841000  -76.247200
  C    -40.598800  -51.516800  -74.245200
  H    -40.621300  -50.952500  -73.345200
  H    -41.610500  -51.977900  -74.201700
  H    -39.759400  -52.197600  -74.115000
  S    -37.891200  -48.934700  -69.297500
  C    -36.559700  -49.734800  -68.412300
  C    -35.520700  -49.900400  -69.302300
  C    -35.934800  -49.740900  -70.693500
  C    -37.185700  -49.171100  -70.850200
  H    -34.519100  -50.207000  -68.967200
  C    -34.841300  -49.948900  -71.723400
  H    -33.859700  -49.782700  -71.317600
  H    -34.858900  -49.161100  -72.396400
  C    -34.885000  -51.344600  -72.461800
  H    -35.899000  -51.726500  -72.526100
  H    -34.331800  -52.149000  -71.900900
  C    -34.298100  -51.295200  -73.819200
  H    -34.360400  -52.169800  -74.458600
  H    -33.251700  -51.161900  -73.684300
  H    -34.808100  -50.603000  -74.494000
  H    -40.003500  -47.394200  -74.397200
  H    -36.564600  -49.748000  -67.357300

 Total Charge           Charge          ....    0
 Multiplicity           Mult            ....    1
 Number of Electrons    NEL             ....  134
 Basis Dimension        Dim             ....  322

ORBITAL ENERGIES
----------------

  NO   OCC          E(Eh)            E(eV)
   0   2.0000     -88.968823     -2420.9647
   1   2.0000     -88.962116     -2420.7823
   2   2.0000     -10.329962      -281.0926
   3   2.0000     -10.325789      -280.9790
   4   2.0000     -10.320233      -280.8278
   5   2.0000     -10.304152      -280.3902
   6   2.0000     -10.303025      -280.3596
   7   2.0000     -10.300658      -280.2952
   8   2.0000     -10.296436      -280.1803
   9   2.0000     -10.292002      -280.0596
  10   2.0000     -10.291081      -280.0345
  11   2.0000     -10.288453      -279.9630
  12   2.0000     -10.285881      -279.8931
  13   2.0000     -10.279064      -279.7076
  14   2.0000     -10.277244      -279.6580
  15   2.0000     -10.270707      -279.4802
  16   2.0000      -8.083379      -219.9599
  17   2.0000      -8.077231      -219.7926
  18   2.0000      -6.041901      -164.4085
  19   2.0000      -6.037975      -164.3016
  20   2.0000      -6.035914      -164.2456
  21   2.0000      -6.034076      -164.1956
  22   2.0000      -6.031649      -164.1295
  23   2.0000      -6.027808      -164.0250
  24   2.0000      -1.013530       -27.5796
  25   2.0000      -0.989174       -26.9168
  26   2.0000      -0.913484       -24.8572
  27   2.0000      -0.908858       -24.7313
  28   2.0000      -0.875857       -23.8333
  29   2.0000      -0.854207       -23.2442
  30   2.0000      -0.846373       -23.0310
  31   2.0000      -0.818312       -22.2674
  32   2.0000      -0.784650       -21.3514
  33   2.0000      -0.775185       -21.0939
  34   2.0000      -0.718020       -19.5383
  35   2.0000      -0.708620       -19.2825
  36   2.0000      -0.699744       -19.0410
  37   2.0000      -0.669931       -18.2297
  38   2.0000      -0.643103       -17.4997
  39   2.0000      -0.618928       -16.8419
  40   2.0000      -0.600649       -16.3445
  41   2.0000      -0.574728       -15.6391
  42   2.0000      -0.569292       -15.4912
  43   2.0000      -0.550987       -14.9931
  44   2.0000      -0.541592       -14.7375
  45   2.0000      -0.524662       -14.2768
  46   2.0000      -0.520021       -14.1505
  47   2.0000      -0.517651       -14.0860
  48   2.0000      -0.511511       -13.9189
  49   2.0000      -0.500678       -13.6241
  50   2.0000      -0.488794       -13.3008
  51   2.0000      -0.487377       -13.2622
  52   2.0000      -0.478025       -13.0077
  53   2.0000      -0.469126       -12.7656
  54   2.0000      -0.457915       -12.4605
  55   2.0000      -0.451051       -12.2737
  56   2.0000      -0.446526       -12.1506
  57   2.0000      -0.435024       -11.8376
  58   2.0000      -0.425828       -11.5874
  59   2.0000      -0.422657       -11.5011
  60   2.0000      -0.417665       -11.3652
  61   2.0000      -0.414598       -11.2818
  62   2.0000      -0.407087       -11.0774
  63   2.0000      -0.359250        -9.7757
  64   2.0000      -0.337616        -9.1870
  65   2.0000      -0.326271        -8.8783
  66   2.0000      -0.288866        -7.8605
  67   0.0000       0.020067         0.5461
  68   0.0000       0.073591         2.0025
  69   0.0000       0.108724         2.9585
  70   0.0000       0.118321         3.2197
  71   0.0000       0.130226         3.5436

MULLIKEN ATOMIC CHARGES
-----------------------
   0 S :    0.111057
   1 C :   -0.081603
   2 C :   -0.058293
   3 C :   -0.002121
   4 C :   -0.140550
   5 H :    0.001682
   6 C :    0.081042
   7 H :    0.016565
   8 H :    0.041523
   9 C :   -0.028121
  10 H :   -0.012908
  11 H :    0.018469
  12 C :   -0.073596
  13 H :    0.024990
  14 H :    0.044481
  15 H :    0.033289
  16 S :    0.082805
  17 C :   -0.080424
  18 C :   -0.022192
  19 C :   -0.073967
  20 C :   -0.109634
  21 H :    0.033190
  22 C :    0.104410
  23 H :    0.010446
  24 H :    0.006467
  25 C :   -0.084186
  26 H :    0.032062
  27 H :    0.031328
  28 C :   -0.040164
  29 H :    0.019884
  30 H :    0.026219
  31 H :    0.028569
  32 H :    0.006587
  33 H :    0.052695
Sum of atomic charges:    0.0000000

LOEWDIN ATOMIC CHARGES
----------------------
   0 S :    0.402300
   1 C :   -0.178783
   2 C :   -0.069986
   3 C :   -0.059578
   4 C :   -0.180505
   5 H :    0.032556
   6 C :   -0.022616
   7 H :    0.029402
   8 H :    0.036313
   9 C :   -0.028291
  10 H :    0.003546
  11 H :    0.020769
  12 C :   -0.071303
  13 H :    0.022173
  14 H :    0.035566
  15 H :    0.022430
  16 S :    0.394483
  17 C :   -0.164955
  18 C :   -0.062586
  19 C :   -0.055373
  20 C :   -0.207735
  21 H :    0.034972
  22 C :   -0.023514
  23 H :    0.030300
  24 H :    0.021615
  25 C :   -0.041335
  26 H :    0.016184
  27 H :    0.029890
  28 C :   -0.071776
  29 H :    0.025982
  30 H :    0.023198
  31 H :    0.025109
  32 H :    0.010370
  33 H :    0.021177

  Mayer bond orders larger than 0.100000
B(  0-S ,  1-C ) :   1.1349 B(  0-S ,  4-C ) :   1.1371 B(  1-C ,  2-C ) :   1.6177
B(  1-C , 32-H ) :   0.9731 B(  2-C ,  3-C ) :   1.2662 B(  2-C ,  6-C ) :   1.0215
B(  3-C ,  4-C ) :   1.5560 B(  3-C ,  5-H ) :   0.9851 B(  4-C , 20-C ) :   1.0995
B(  6-C ,  7-H ) :   0.9442 B(  6-C ,  8-H ) :   0.9377 B(  6-C ,  9-C ) :   1.0655
B(  9-C , 10-H ) :   0.9555 B(  9-C , 11-H ) :   0.9582 B(  9-C , 12-C ) :   1.0651
B( 12-C , 13-H ) :   0.9751 B( 12-C , 14-H ) :   0.9741 B( 12-C , 15-H ) :   0.9778
B( 16-S , 17-C ) :   1.1406 B( 16-S , 20-C ) :   1.1276 B( 17-C , 18-C ) :   1.5993
B( 17-C , 33-H ) :   0.9771 B( 18-C , 19-C ) :   1.2410 B( 18-C , 21-H ) :   0.9852
B( 19-C , 20-C ) :   1.5743 B( 19-C , 22-C ) :   1.0511 B( 22-C , 23-H ) :   0.9353
B( 22-C , 24-H ) :   0.9403 B( 22-C , 25-C ) :   1.0265 B( 25-C , 26-H ) :   0.9639
B( 25-C , 27-H ) :   0.9491 B( 25-C , 28-C ) :   1.0913 B( 28-C , 29-H ) :   0.9690
B( 28-C , 30-H ) :   0.9733 B( 28-C , 31-H ) :   0.9702

Dispersion correction           -0.015404472
FINAL SINGLE POINT ENERGY     -1339.849054693806

DIPOLE MOMENT
-------------
                                X             Y             Z
Electronic contribution:     -5.54078      18.19900      19.72024
Nuclear contribution   :      5.79806     -18.56939     -20.02112
                        -----------------------------------------
Total Dipole Moment    :      0.25728      -0.37039      -0.30088
                        -----------------------------------------
Magnitude (a.u.)       :      0.54214
Magnitude (Debye)      :      1.37801

Rotational constants in cm-1:     0.017444     0.010138     0.007692
Rotational constants in MHz :   522.947199   303.929799   230.603091

                             ****ORCA TERMINATED NORMALLY****
TOTAL RUN TIME: 0 days 0 hours 0 minutes 22 seconds 953 msec
