                         Program Version 4.2.1 -  RELEASE  -
|  1> ! wB97X-D3 SP def2-SVP
|  2> %pal
|  3> nprocs 24
|  4> end
|  5>
|  6> * xyz 0 1
|  7> S 	 -135.223 	 7.49475 	 -4.31057
|  8> C 	 -135.071 	 6.90956 	 -2.68914
|  9> C 	 -135.286 	 7.90669 	 -1.75966
| 10> C 	 -135.508 	 9.23843 	 -2.35308
| 11> C 	 -135.374 	 9.23502 	 -3.69223
| 12> H 	 -135.792 	 10.0893 	 -1.8092
| 13> C 	 -135.53 	 7.57181 	 -0.254702
| 14> H 	 -134.869 	 8.29289 	 0.305991
| 15> H 	 -135.038 	 6.64667 	 0.00588851
| 16> C 	 -136.967 	 7.61848 	 0.186996
| 17> H 	 -137.111 	 7.56024 	 1.25191
| 18> H 	 -137.305 	 8.67922 	 0.127593
| 19> C 	 -137.878 	 6.62736 	 -0.483769
| 20> H 	 -137.809 	 6.86316 	 -1.56139
| 21> H 	 -137.525 	 5.63623 	 -0.265488
| 22> H 	 -138.97 	 6.61192 	 -0.182738
| 23> S 	 -136.315 	 10.1229 	 -6.29689
| 24> C 	 -136.625 	 11.8444 	 -6.50087
| 25> C 	 -135.901 	 12.6031 	 -5.60702
| 26> C 	 -135.449 	 11.7801 	 -4.4531
| 27> C 	 -135.609 	 10.3965 	 -4.62219
| 28> H 	 -135.916 	 13.6418 	 -5.6365
| 29> C 	 -134.698 	 12.3949 	 -3.29669
| 30> H 	 -134.022 	 13.0028 	 -3.80056
| 31> H 	 -134.134 	 11.6496 	 -2.83792
| 32> C 	 -135.577 	 13.072 	 -2.18041
| 33> H 	 -136.302 	 12.3732 	 -1.72742
| 34> H 	 -136.184 	 13.8944 	 -2.61821
| 35> C 	 -134.763 	 13.5735 	 -0.961924
| 36> H 	 -135.215 	 14.3134 	 -0.258716
| 37> H 	 -133.949 	 14.1468 	 -1.39481
| 38> H 	 -134.375 	 12.6782 	 -0.431694
| 39> H 	 -134.905 	 5.86366 	 -2.36503
| 40> H 	 -137.22 	 12.2285 	 -7.34144
| 41> *
| 42>
| 43>                          ****END OF INPUT****

CARTESIAN COORDINATES (ANGSTROEM)
---------------------------------
  S    -135.223000    7.494750   -4.310570
  C    -135.071000    6.909560   -2.689140
  C    -135.286000    7.906690   -1.759660
  C    -135.508000    9.238430   -2.353080
  C    -135.374000    9.235020   -3.692230
  H    -135.792000   10.089300   -1.809200
  C    -135.530000    7.571810   -0.254702
  H    -134.869000    8.292890    0.305991
  H    -135.038000    6.646670    0.005889
  C    -136.967000    7.618480    0.186996
  H    -137.111000    7.560240    1.251910
  H    -137.305000    8.679220    0.127593
  C    -137.878000    6.627360   -0.483769
  H    -137.809000    6.863160   -1.561390
  H    -137.525000    5.636230   -0.265488
  H    -138.970000    6.611920   -0.182738
  S    -136.315000   10.122900   -6.296890
  C    -136.625000   11.844400   -6.500870
  C    -135.901000   12.603100   -5.607020
  C    -135.449000   11.780100   -4.453100
  C    -135.609000   10.396500   -4.622190
  H    -135.916000   13.641800   -5.636500
  C    -134.698000   12.394900   -3.296690
  H    -134.022000   13.002800   -3.800560
  H    -134.134000   11.649600   -2.837920
  C    -135.577000   13.072000   -2.180410
  H    -136.302000   12.373200   -1.727420
  H    -136.184000   13.894400   -2.618210
  C    -134.763000   13.573500   -0.961924
  H    -135.215000   14.313400   -0.258716
  H    -133.949000   14.146800   -1.394810
  H    -134.375000   12.678200   -0.431694
  H    -134.905000    5.863660   -2.365030
  H    -137.220000   12.228500   -7.341440

 Total Charge           Charge          ....    0
 Multiplicity           Mult            ....    1
 Number of Electrons    NEL             ....  134
 Basis Dimension        Dim             ....  322

ORBITAL ENERGIES
----------------

  NO   OCC          E(Eh)            E(eV)
   0   2.0000     -88.967000     -2420.9152
   1   2.0000     -88.962879     -2420.8030
   2   2.0000     -10.343492      -281.4607
   3   2.0000     -10.340385      -281.3762
   4   2.0000     -10.326401      -280.9957
   5   2.0000     -10.318211      -280.7728
   6   2.0000     -10.313718      -280.6505
   7   2.0000     -10.306474      -280.4534
   8   2.0000     -10.298997      -280.2500
   9   2.0000     -10.297844      -280.2186
  10   2.0000     -10.297788      -280.2171
  11   2.0000     -10.297520      -280.2098
  12   2.0000     -10.287391      -279.9341
  13   2.0000     -10.285528      -279.8834
  14   2.0000     -10.284579      -279.8576
  15   2.0000     -10.277271      -279.6588
  16   2.0000      -8.080682      -219.8865
  17   2.0000      -8.076619      -219.7760
  18   2.0000      -6.039580      -164.3453
  19   2.0000      -6.035560      -164.2359
  20   2.0000      -6.035395      -164.2314
  21   2.0000      -6.031494      -164.1253
  22   2.0000      -6.030860      -164.1080
  23   2.0000      -6.026929      -164.0011
  24   2.0000      -0.995017       -27.0758
  25   2.0000      -0.975725       -26.5508
  26   2.0000      -0.911028       -24.7903
  27   2.0000      -0.907218       -24.6866
  28   2.0000      -0.869435       -23.6585
  29   2.0000      -0.847902       -23.0726
  30   2.0000      -0.842956       -22.9380
  31   2.0000      -0.818617       -22.2757
  32   2.0000      -0.781373       -21.2622
  33   2.0000      -0.770026       -20.9535
  34   2.0000      -0.707136       -19.2421
  35   2.0000      -0.699261       -19.0278
  36   2.0000      -0.690699       -18.7949
  37   2.0000      -0.663717       -18.0606
  38   2.0000      -0.640879       -17.4392
  39   2.0000      -0.623933       -16.9781
  40   2.0000      -0.594609       -16.1801
  41   2.0000      -0.571771       -15.5587
  42   2.0000      -0.564079       -15.3494
  43   2.0000      -0.553138       -15.0517
  44   2.0000      -0.542096       -14.7512
  45   2.0000      -0.523736       -14.2516
  46   2.0000      -0.518625       -14.1125
  47   2.0000      -0.512437       -13.9441
  48   2.0000      -0.505898       -13.7662
  49   2.0000      -0.499490       -13.5918
  50   2.0000      -0.486514       -13.2387
  51   2.0000      -0.482948       -13.1417
  52   2.0000      -0.470398       -12.8002
  53   2.0000      -0.463855       -12.6221
  54   2.0000      -0.456965       -12.4347
  55   2.0000      -0.450516       -12.2592
  56   2.0000      -0.443626       -12.0717
  57   2.0000      -0.438362       -11.9284
  58   2.0000      -0.429794       -11.6953
  59   2.0000      -0.426270       -11.5994
  60   2.0000      -0.419159       -11.4059
  61   2.0000      -0.411048       -11.1852
  62   2.0000      -0.403478       -10.9792
  63   2.0000      -0.365436        -9.9440
  64   2.0000      -0.330967        -9.0061
  65   2.0000      -0.324276        -8.8240
  66   2.0000      -0.287957        -7.8357
  67   0.0000       0.021812         0.5935
  68   0.0000       0.064888         1.7657
  69   0.0000       0.096866         2.6359
  70   0.0000       0.110315         3.0018
  71   0.0000       0.124845         3.3972

MULLIKEN ATOMIC CHARGES
-----------------------
   0 S :    0.088349
   1 C :   -0.104733
   2 C :   -0.131095
   3 C :    0.029146
   4 C :   -0.085088
   5 H :   -0.016480
   6 C :    0.058304
   7 H :    0.030483
   8 H :    0.012483
   9 C :   -0.049034
  10 H :    0.016572
  11 H :    0.016875
  12 C :   -0.057975
  13 H :    0.055857
  14 H :    0.020131
  15 H :    0.044455
  16 S :    0.071707
  17 C :   -0.101255
  18 C :    0.027349
  19 C :   -0.108061
  20 C :   -0.108353
  21 H :    0.003971
  22 C :    0.102151
  23 H :    0.017424
  24 H :    0.003632
  25 C :   -0.095288
  26 H :    0.039285
  27 H :    0.032366
  28 C :   -0.065025
  29 H :    0.049213
  30 H :    0.024785
  31 H :    0.040648
  32 H :    0.062364
  33 H :    0.074838
Sum of atomic charges:   -0.0000000

LOEWDIN ATOMIC CHARGES
----------------------
   0 S :    0.361027
   1 C :   -0.200914
   2 C :   -0.065617
   3 C :   -0.055354
   4 C :   -0.146248
   5 H :    0.024132
   6 C :   -0.032770
   7 H :    0.036044
   8 H :    0.024008
   9 C :   -0.054877
  10 H :    0.022621
  11 H :    0.025862
  12 C :   -0.068757
  13 H :    0.032822
  14 H :    0.020142
  15 H :    0.034733
  16 S :    0.349453
  17 C :   -0.164456
  18 C :   -0.065144
  19 C :   -0.044295
  20 C :   -0.169526
  21 H :    0.020634
  22 C :   -0.023648
  23 H :    0.027872
  24 H :    0.021482
  25 C :   -0.041034
  26 H :    0.022651
  27 H :    0.024611
  28 C :   -0.074945
  29 H :    0.033082
  30 H :    0.022345
  31 H :    0.028229
  32 H :    0.039747
  33 H :    0.036085

  Mayer bond orders larger than 0.100000
B(  0-S ,  1-C ) :   1.1213 B(  0-S ,  4-C ) :   1.1023 B(  1-C ,  2-C ) :   1.6638
B(  1-C , 32-H ) :   0.9585 B(  2-C ,  3-C ) :   1.1847 B(  2-C ,  6-C ) :   1.0235
B(  3-C ,  4-C ) :   1.6205 B(  3-C ,  5-H ) :   1.0014 B(  4-C , 20-C ) :   1.0578
B(  6-C ,  7-H ) :   0.9368 B(  6-C ,  8-H ) :   0.9455 B(  6-C ,  9-C ) :   1.0714
B(  9-C , 10-H ) :   0.9486 B(  9-C , 11-H ) :   0.9496 B(  9-C , 12-C ) :   1.0673
B( 12-C , 13-H ) :   0.9762 B( 12-C , 14-H ) :   0.9732 B( 12-C , 15-H ) :   0.9726
B( 16-S , 17-C ) :   1.1495 B( 16-S , 20-C ) :   1.0886 B( 17-C , 18-C ) :   1.6362
B( 17-C , 33-H ) :   0.9637 B( 18-C , 19-C ) :   1.1946 B( 18-C , 21-H ) :   0.9944
B( 19-C , 20-C ) :   1.6380 B( 19-C , 22-C ) :   1.0447 B( 22-C , 23-H ) :   0.9321
B( 22-C , 24-H ) :   0.9361 B( 22-C , 25-C ) :   1.0436 B( 25-C , 26-H ) :   0.9587
B( 25-C , 27-H ) :   0.9566 B( 25-C , 28-C ) :   1.0715 B( 28-C , 29-H ) :   0.9757
B( 28-C , 30-H ) :   0.9752 B( 28-C , 31-H ) :   0.9753

Dispersion correction           -0.014595849
FINAL SINGLE POINT ENERGY     -1339.857406720553

DIPOLE MOMENT
-------------
                                X             Y             Z
Electronic contribution:      2.75536      -7.72940     -27.15999
Nuclear contribution   :     -2.86416       8.21035      27.79141
                        -----------------------------------------
Total Dipole Moment    :     -0.10880       0.48095       0.63142
                        -----------------------------------------
Magnitude (a.u.)       :      0.80115
Magnitude (Debye)      :      2.03636

Rotational constants in cm-1:     0.016688     0.009391     0.006791
Rotational constants in MHz :   500.278963   281.530106   203.599567

                             ****ORCA TERMINATED NORMALLY****
TOTAL RUN TIME: 0 days 0 hours 0 minutes 21 seconds 683 msec
