                         Program Version 4.2.1 -  RELEASE  -
|  1> ! wB97X-D3 SP def2-SVP
|  2> %pal
|  3> nprocs 24
|  4> end
|  5>
|  6> * xyz 0 1
|  7> S 	 -89.5166 	 -30.4885 	 -56.218
|  8> C 	 -87.8116 	 -30.6738 	 -56.6329
|  9> C 	 -87.0184 	 -30.0168 	 -55.7421
| 10> C 	 -87.7322 	 -29.2591 	 -54.7689
| 11> C 	 -89.1109 	 -29.3973 	 -54.9189
| 12> H 	 -87.4239 	 -28.5852 	 -53.8998
| 13> C 	 -85.5335 	 -30.1517 	 -55.7988
| 14> H 	 -85.0766 	 -29.1866 	 -55.9741
| 15> H 	 -85.2031 	 -30.9577 	 -56.4708
| 16> C 	 -84.9318 	 -30.6797 	 -54.5357
| 17> H 	 -85.2028 	 -29.9472 	 -53.7741
| 18> H 	 -85.4488 	 -31.6156 	 -54.3229
| 19> C 	 -83.406 	 -30.8349 	 -54.5235
| 20> H 	 -82.9116 	 -30.9672 	 -53.5522
| 21> H 	 -83.1908 	 -31.7686 	 -55.0768
| 22> H 	 -82.9864 	 -30.0158 	 -55.007
| 23> S 	 -90.9647 	 -27.4036 	 -55.0936
| 24> C 	 -91.9304 	 -27.0086 	 -53.6261
| 25> C 	 -91.5532 	 -27.7774 	 -52.5662
| 26> C 	 -90.4155 	 -28.6076 	 -52.908
| 27> C 	 -90.1529 	 -28.6892 	 -54.2558
| 28> H 	 -91.9886 	 -27.692 	 -51.5777
| 29> C 	 -89.8056 	 -29.5465 	 -51.9276
| 30> H 	 -89.3247 	 -28.9209 	 -51.1416
| 31> H 	 -89.0939 	 -30.1635 	 -52.3508
| 32> C 	 -90.7583 	 -30.6035 	 -51.3117
| 33> H 	 -91.317 	 -31.0963 	 -52.0893
| 34> H 	 -91.5241 	 -30.1778 	 -50.6885
| 35> C 	 -89.9265 	 -31.6324 	 -50.5064
| 36> H 	 -90.5385 	 -32.297 	 -49.9448
| 37> H 	 -89.3544 	 -31.1245 	 -49.7808
| 38> H 	 -89.4077 	 -32.1718 	 -51.2506
| 39> H 	 -87.5436 	 -31.4897 	 -57.2713
| 40> H 	 -92.7303 	 -26.289 	 -53.5087
| 41> *
| 42>
| 43>                          ****END OF INPUT****

CARTESIAN COORDINATES (ANGSTROEM)
---------------------------------
  S    -89.516600  -30.488500  -56.218000
  C    -87.811600  -30.673800  -56.632900
  C    -87.018400  -30.016800  -55.742100
  C    -87.732200  -29.259100  -54.768900
  C    -89.110900  -29.397300  -54.918900
  H    -87.423900  -28.585200  -53.899800
  C    -85.533500  -30.151700  -55.798800
  H    -85.076600  -29.186600  -55.974100
  H    -85.203100  -30.957700  -56.470800
  C    -84.931800  -30.679700  -54.535700
  H    -85.202800  -29.947200  -53.774100
  H    -85.448800  -31.615600  -54.322900
  C    -83.406000  -30.834900  -54.523500
  H    -82.911600  -30.967200  -53.552200
  H    -83.190800  -31.768600  -55.076800
  H    -82.986400  -30.015800  -55.007000
  S    -90.964700  -27.403600  -55.093600
  C    -91.930400  -27.008600  -53.626100
  C    -91.553200  -27.777400  -52.566200
  C    -90.415500  -28.607600  -52.908000
  C    -90.152900  -28.689200  -54.255800
  H    -91.988600  -27.692000  -51.577700
  C    -89.805600  -29.546500  -51.927600
  H    -89.324700  -28.920900  -51.141600
  H    -89.093900  -30.163500  -52.350800
  C    -90.758300  -30.603500  -51.311700
  H    -91.317000  -31.096300  -52.089300
  H    -91.524100  -30.177800  -50.688500
  C    -89.926500  -31.632400  -50.506400
  H    -90.538500  -32.297000  -49.944800
  H    -89.354400  -31.124500  -49.780800
  H    -89.407700  -32.171800  -51.250600
  H    -87.543600  -31.489700  -57.271300
  H    -92.730300  -26.289000  -53.508700

 Total Charge           Charge          ....    0
 Multiplicity           Mult            ....    1
 Number of Electrons    NEL             ....  134
 Basis Dimension        Dim             ....  322

ORBITAL ENERGIES
----------------

  NO   OCC          E(Eh)            E(eV)
   0   2.0000     -88.963398     -2420.8171
   1   2.0000     -88.963187     -2420.8114
   2   2.0000     -10.327578      -281.0277
   3   2.0000     -10.319704      -280.8134
   4   2.0000     -10.318674      -280.7854
   5   2.0000     -10.312008      -280.6040
   6   2.0000     -10.303971      -280.3853
   7   2.0000     -10.302981      -280.3584
   8   2.0000     -10.298770      -280.2438
   9   2.0000     -10.294655      -280.1318
  10   2.0000     -10.286873      -279.9200
  11   2.0000     -10.281983      -279.7870
  12   2.0000     -10.280271      -279.7404
  13   2.0000     -10.280125      -279.7364
  14   2.0000     -10.276949      -279.6500
  15   2.0000     -10.267768      -279.4002
  16   2.0000      -8.078284      -219.8213
  17   2.0000      -8.077705      -219.8055
  18   2.0000      -6.036578      -164.2636
  19   2.0000      -6.036430      -164.2596
  20   2.0000      -6.032775      -164.1602
  21   2.0000      -6.032330      -164.1480
  22   2.0000      -6.029206      -164.0630
  23   2.0000      -6.028168      -164.0348
  24   2.0000      -1.010060       -27.4851
  25   2.0000      -0.984708       -26.7953
  26   2.0000      -0.922456       -25.1013
  27   2.0000      -0.909346       -24.7446
  28   2.0000      -0.876813       -23.8593
  29   2.0000      -0.850082       -23.1319
  30   2.0000      -0.846145       -23.0248
  31   2.0000      -0.819416       -22.2974
  32   2.0000      -0.785077       -21.3630
  33   2.0000      -0.768907       -20.9230
  34   2.0000      -0.710734       -19.3401
  35   2.0000      -0.701397       -19.0860
  36   2.0000      -0.689993       -18.7757
  37   2.0000      -0.659083       -17.9346
  38   2.0000      -0.648441       -17.6450
  39   2.0000      -0.618408       -16.8277
  40   2.0000      -0.599296       -16.3077
  41   2.0000      -0.582559       -15.8522
  42   2.0000      -0.572282       -15.5726
  43   2.0000      -0.566249       -15.4084
  44   2.0000      -0.527677       -14.3588
  45   2.0000      -0.525057       -14.2875
  46   2.0000      -0.519558       -14.1379
  47   2.0000      -0.514558       -14.0018
  48   2.0000      -0.511478       -13.9180
  49   2.0000      -0.499803       -13.6003
  50   2.0000      -0.491933       -13.3862
  51   2.0000      -0.479497       -13.0478
  52   2.0000      -0.469640       -12.7796
  53   2.0000      -0.464273       -12.6335
  54   2.0000      -0.461422       -12.5559
  55   2.0000      -0.452302       -12.3078
  56   2.0000      -0.445548       -12.1240
  57   2.0000      -0.434464       -11.8224
  58   2.0000      -0.432774       -11.7764
  59   2.0000      -0.423593       -11.5266
  60   2.0000      -0.422622       -11.5001
  61   2.0000      -0.415836       -11.3155
  62   2.0000      -0.406982       -11.0745
  63   2.0000      -0.345835        -9.4107
  64   2.0000      -0.332320        -9.0429
  65   2.0000      -0.324195        -8.8218
  66   2.0000      -0.300716        -8.1829
  67   0.0000       0.035316         0.9610
  68   0.0000       0.063881         1.7383
  69   0.0000       0.115256         3.1363
  70   0.0000       0.118869         3.2346
  71   0.0000       0.125371         3.4115

MULLIKEN ATOMIC CHARGES
-----------------------
   0 S :    0.099651
   1 C :   -0.114981
   2 C :   -0.073204
   3 C :    0.037380
   4 C :   -0.215433
   5 H :    0.049647
   6 C :    0.091619
   7 H :    0.029579
   8 H :    0.015602
   9 C :   -0.128228
  10 H :    0.019672
  11 H :    0.027762
  12 C :   -0.008886
  13 H :    0.040487
  14 H :    0.028097
  15 H :    0.015356
  16 S :    0.107963
  17 C :   -0.077613
  18 C :   -0.022305
  19 C :   -0.045454
  20 C :   -0.129711
  21 H :    0.023897
  22 C :    0.070852
  23 H :    0.031612
  24 H :   -0.001513
  25 C :   -0.087848
  26 H :    0.026947
  27 H :    0.014544
  28 C :   -0.000595
  29 H :    0.019066
  30 H :    0.019744
  31 H :    0.032165
  32 H :    0.052046
  33 H :    0.052082
Sum of atomic charges:    0.0000000

LOEWDIN ATOMIC CHARGES
----------------------
   0 S :    0.400871
   1 C :   -0.186453
   2 C :   -0.062266
   3 C :   -0.066669
   4 C :   -0.194613
   5 H :    0.050345
   6 C :   -0.030527
   7 H :    0.030164
   8 H :    0.031535
   9 C :   -0.044463
  10 H :    0.015742
  11 H :    0.021855
  12 C :   -0.060240
  13 H :    0.031473
  14 H :    0.028401
  15 H :    0.015539
  16 S :    0.390635
  17 C :   -0.164849
  18 C :   -0.066265
  19 C :   -0.053594
  20 C :   -0.216061
  21 H :    0.034024
  22 C :   -0.031278
  23 H :    0.034987
  24 H :    0.017067
  25 C :   -0.030923
  26 H :    0.022559
  27 H :    0.012413
  28 C :   -0.050103
  29 H :    0.022235
  30 H :    0.019873
  31 H :    0.022838
  32 H :    0.024658
  33 H :    0.031091

  Mayer bond orders larger than 0.100000
B(  0-S ,  1-C ) :   1.1277 B(  0-S ,  4-C ) :   1.1698 B(  1-C ,  2-C ) :   1.6230
B(  1-C , 32-H ) :   0.9709 B(  2-C ,  3-C ) :   1.2080 B(  2-C ,  6-C ) :   1.0384
B(  3-C ,  4-C ) :   1.5837 B(  3-C ,  5-H ) :   0.9802 B(  4-C , 20-C ) :   1.0234
B(  6-C ,  7-H ) :   0.9249 B(  6-C ,  8-H ) :   0.9486 B(  6-C ,  9-C ) :   1.0576
B(  9-C , 10-H ) :   0.9528 B(  9-C , 11-H ) :   0.9608 B(  9-C , 12-C ) :   1.0821
B( 12-C , 13-H ) :   0.9749 B( 12-C , 14-H ) :   0.9739 B( 12-C , 15-H ) :   0.9714
B( 16-S , 17-C ) :   1.1308 B( 16-S , 20-C ) :   1.1224 B( 17-C , 18-C ) :   1.6485
B( 17-C , 33-H ) :   0.9656 B( 18-C , 19-C ) :   1.1994 B( 18-C , 21-H ) :   0.9893
B( 19-C , 20-C ) :   1.6171 B( 19-C , 22-C ) :   1.0750 B( 22-C , 23-H ) :   0.9200
B( 22-C , 24-H ) :   0.9385 B( 22-C , 25-C ) :   1.0568 B( 25-C , 26-H ) :   0.9583
B( 25-C , 27-H ) :   0.9532 B( 25-C , 28-C ) :   1.0844 B( 28-C , 29-H ) :   0.9724
B( 28-C , 30-H ) :   0.9749 B( 28-C , 31-H ) :   0.9785

Dispersion correction           -0.013956316
FINAL SINGLE POINT ENERGY     -1339.869535708650

DIPOLE MOMENT
-------------
                                X             Y             Z
Electronic contribution:    -19.19919      12.44714     -17.48069
Nuclear contribution   :     19.56221     -12.62443      18.09789
                        -----------------------------------------
Total Dipole Moment    :      0.36301      -0.17729       0.61720
                        -----------------------------------------
Magnitude (a.u.)       :      0.73766
Magnitude (Debye)      :      1.87499

Rotational constants in cm-1:     0.017754     0.008557     0.006852
Rotational constants in MHz :   532.246858   256.525734   205.413293

                             ****ORCA TERMINATED NORMALLY****
TOTAL RUN TIME: 0 days 0 hours 0 minutes 21 seconds 649 msec
