                         Program Version 4.2.1 -  RELEASE  -
|  1> ! wB97X-D3 SP def2-SVP
|  2> %pal
|  3> nprocs 24
|  4> end
|  5>
|  6> * xyz 0 1
|  7> S 	 -102.504 	 45.5539 	 -84.4825
|  8> C 	 -102.368 	 44.0469 	 -85.4421
|  9> C 	 -103.291 	 44.0029 	 -86.4642
| 10> C 	 -103.968 	 45.244 	 -86.5347
| 11> C 	 -103.72 	 46.2064 	 -85.5887
| 12> H 	 -104.718 	 45.5694 	 -87.3006
| 13> C 	 -103.699 	 42.8485 	 -87.4198
| 14> H 	 -104.725 	 42.6129 	 -87.2655
| 15> H 	 -103.297 	 41.8363 	 -86.9692
| 16> C 	 -103.428 	 43.0083 	 -88.8815
| 17> H 	 -103.817 	 43.944 	 -89.1872
| 18> H 	 -102.389 	 43.0254 	 -89.1292
| 19> C 	 -104.003 	 41.9725 	 -89.8259
| 20> H 	 -104.898 	 41.6347 	 -89.37
| 21> H 	 -104.18 	 42.2999 	 -90.899
| 22> H 	 -103.282 	 41.1238 	 -89.8909
| 23> S 	 -103.081 	 48.7838 	 -85.2074
| 24> C 	 -104.234 	 50.0502 	 -84.975
| 25> C 	 -105.507 	 49.6399 	 -85.2919
| 26> C 	 -105.532 	 48.1866 	 -85.6855
| 27> C 	 -104.282 	 47.5924 	 -85.5443
| 28> H 	 -106.361 	 50.2931 	 -85.2868
| 29> C 	 -106.82 	 47.3882 	 -85.8618
| 30> H 	 -107.203 	 47.1533 	 -84.8718
| 31> H 	 -106.465 	 46.4326 	 -86.3147
| 32> C 	 -108.069 	 48.1203 	 -86.4859
| 33> H 	 -108.625 	 47.315 	 -86.9899
| 34> H 	 -107.77 	 48.9276 	 -87.0947
| 35> C 	 -108.987 	 48.827 	 -85.451
| 36> H 	 -109.267 	 48.0308 	 -84.7935
| 37> H 	 -109.85 	 49.2913 	 -85.8721
| 38> H 	 -108.443 	 49.6207 	 -84.9459
| 39> H 	 -101.669 	 43.1938 	 -85.367
| 40> H 	 -104.001 	 51.0928 	 -84.7662
| 41> *
| 42>
| 43>                          ****END OF INPUT****

CARTESIAN COORDINATES (ANGSTROEM)
---------------------------------
  S    -102.504000   45.553900  -84.482500
  C    -102.368000   44.046900  -85.442100
  C    -103.291000   44.002900  -86.464200
  C    -103.968000   45.244000  -86.534700
  C    -103.720000   46.206400  -85.588700
  H    -104.718000   45.569400  -87.300600
  C    -103.699000   42.848500  -87.419800
  H    -104.725000   42.612900  -87.265500
  H    -103.297000   41.836300  -86.969200
  C    -103.428000   43.008300  -88.881500
  H    -103.817000   43.944000  -89.187200
  H    -102.389000   43.025400  -89.129200
  C    -104.003000   41.972500  -89.825900
  H    -104.898000   41.634700  -89.370000
  H    -104.180000   42.299900  -90.899000
  H    -103.282000   41.123800  -89.890900
  S    -103.081000   48.783800  -85.207400
  C    -104.234000   50.050200  -84.975000
  C    -105.507000   49.639900  -85.291900
  C    -105.532000   48.186600  -85.685500
  C    -104.282000   47.592400  -85.544300
  H    -106.361000   50.293100  -85.286800
  C    -106.820000   47.388200  -85.861800
  H    -107.203000   47.153300  -84.871800
  H    -106.465000   46.432600  -86.314700
  C    -108.069000   48.120300  -86.485900
  H    -108.625000   47.315000  -86.989900
  H    -107.770000   48.927600  -87.094700
  C    -108.987000   48.827000  -85.451000
  H    -109.267000   48.030800  -84.793500
  H    -109.850000   49.291300  -85.872100
  H    -108.443000   49.620700  -84.945900
  H    -101.669000   43.193800  -85.367000
  H    -104.001000   51.092800  -84.766200

 Total Charge           Charge          ....    0
 Multiplicity           Mult            ....    1
 Number of Electrons    NEL             ....  134
 Basis Dimension        Dim             ....  322

ORBITAL ENERGIES
----------------

  NO   OCC          E(Eh)            E(eV)
   0   2.0000     -88.971612     -2421.0406
   1   2.0000     -88.961925     -2420.7770
   2   2.0000     -10.334777      -281.2236
   3   2.0000     -10.330874      -281.1174
   4   2.0000     -10.322979      -280.9025
   5   2.0000     -10.317981      -280.7665
   6   2.0000     -10.312444      -280.6159
   7   2.0000     -10.306382      -280.4509
   8   2.0000     -10.304417      -280.3974
   9   2.0000     -10.300811      -280.2993
  10   2.0000     -10.295943      -280.1668
  11   2.0000     -10.293666      -280.1049
  12   2.0000     -10.289548      -279.9928
  13   2.0000     -10.282214      -279.7933
  14   2.0000     -10.278772      -279.6996
  15   2.0000     -10.277457      -279.6638
  16   2.0000      -8.084905      -220.0015
  17   2.0000      -8.077807      -219.8083
  18   2.0000      -6.043690      -164.4572
  19   2.0000      -6.039611      -164.3462
  20   2.0000      -6.036441      -164.2599
  21   2.0000      -6.035411      -164.2319
  22   2.0000      -6.032004      -164.1392
  23   2.0000      -6.028492      -164.0436
  24   2.0000      -1.005858       -27.3708
  25   2.0000      -0.983828       -26.7713
  26   2.0000      -0.916582       -24.9415
  27   2.0000      -0.906578       -24.6693
  28   2.0000      -0.872434       -23.7401
  29   2.0000      -0.851406       -23.1679
  30   2.0000      -0.842349       -22.9215
  31   2.0000      -0.817394       -22.2424
  32   2.0000      -0.783750       -21.3269
  33   2.0000      -0.774607       -21.0781
  34   2.0000      -0.706800       -19.2330
  35   2.0000      -0.700841       -19.0709
  36   2.0000      -0.694124       -18.8881
  37   2.0000      -0.660449       -17.9717
  38   2.0000      -0.639591       -17.4042
  39   2.0000      -0.616359       -16.7720
  40   2.0000      -0.601519       -16.3682
  41   2.0000      -0.576405       -15.6848
  42   2.0000      -0.563946       -15.3458
  43   2.0000      -0.551443       -15.0055
  44   2.0000      -0.545636       -14.8475
  45   2.0000      -0.531190       -14.4544
  46   2.0000      -0.516668       -14.0593
  47   2.0000      -0.510526       -13.8921
  48   2.0000      -0.503869       -13.7110
  49   2.0000      -0.500802       -13.6275
  50   2.0000      -0.492520       -13.4021
  51   2.0000      -0.480626       -13.0785
  52   2.0000      -0.472362       -12.8536
  53   2.0000      -0.468349       -12.7444
  54   2.0000      -0.459666       -12.5081
  55   2.0000      -0.449661       -12.2359
  56   2.0000      -0.443472       -12.0675
  57   2.0000      -0.441291       -12.0081
  58   2.0000      -0.431268       -11.7354
  59   2.0000      -0.422783       -11.5045
  60   2.0000      -0.419159       -11.4059
  61   2.0000      -0.413394       -11.2490
  62   2.0000      -0.409262       -11.1366
  63   2.0000      -0.352014        -9.5788
  64   2.0000      -0.335004        -9.1159
  65   2.0000      -0.324637        -8.8338
  66   2.0000      -0.295308        -8.0357
  67   0.0000       0.028530         0.7763
  68   0.0000       0.075916         2.0658
  69   0.0000       0.108218         2.9448
  70   0.0000       0.109899         2.9905
  71   0.0000       0.131744         3.5849

MULLIKEN ATOMIC CHARGES
-----------------------
   0 S :    0.118753
   1 C :   -0.132342
   2 C :   -0.057977
   3 C :   -0.006708
   4 C :   -0.139700
   5 H :    0.033236
   6 C :    0.045684
   7 H :    0.022128
   8 H :    0.021135
   9 C :   -0.030377
  10 H :    0.015214
  11 H :    0.022877
  12 C :   -0.062180
  13 H :    0.015791
  14 H :    0.050887
  15 H :    0.033687
  16 S :    0.100482
  17 C :   -0.079045
  18 C :   -0.039035
  19 C :   -0.049399
  20 C :   -0.157788
  21 H :    0.016549
  22 C :    0.045872
  23 H :    0.035500
  24 H :    0.020284
  25 C :   -0.070928
  26 H :    0.040872
  27 H :    0.026330
  28 C :   -0.048571
  29 H :    0.029472
  30 H :    0.035825
  31 H :    0.026832
  32 H :    0.055866
  33 H :    0.060775
Sum of atomic charges:   -0.0000000

LOEWDIN ATOMIC CHARGES
----------------------
   0 S :    0.387377
   1 C :   -0.186287
   2 C :   -0.065643
   3 C :   -0.072621
   4 C :   -0.195603
   5 H :    0.034548
   6 C :   -0.032716
   7 H :    0.027313
   8 H :    0.036231
   9 C :   -0.044910
  10 H :    0.020171
  11 H :    0.024252
  12 C :   -0.063327
  13 H :    0.015272
  14 H :    0.037097
  15 H :    0.027587
  16 S :    0.420436
  17 C :   -0.190429
  18 C :   -0.071331
  19 C :   -0.053333
  20 C :   -0.203687
  21 H :    0.025794
  22 C :   -0.037643
  23 H :    0.034825
  24 H :    0.032242
  25 C :   -0.035019
  26 H :    0.031187
  27 H :    0.015876
  28 C :   -0.058674
  29 H :    0.021468
  30 H :    0.024836
  31 H :    0.021440
  32 H :    0.039766
  33 H :    0.033506

  Mayer bond orders larger than 0.100000
B(  0-S ,  1-C ) :   1.1297 B(  0-S ,  4-C ) :   1.1234 B(  1-C ,  2-C ) :   1.6389
B(  1-C , 32-H ) :   0.9571 B(  2-C ,  3-C ) :   1.2325 B(  2-C ,  6-C ) :   1.0123
B(  3-C ,  4-C ) :   1.6184 B(  3-C ,  5-H ) :   0.9711 B(  4-C , 20-C ) :   1.0208
B(  6-C ,  7-H ) :   0.9367 B(  6-C ,  8-H ) :   0.9392 B(  6-C ,  9-C ) :   1.0669
B(  9-C , 10-H ) :   0.9523 B(  9-C , 11-H ) :   0.9547 B(  9-C , 12-C ) :   1.0783
B( 12-C , 13-H ) :   0.9750 B( 12-C , 14-H ) :   0.9750 B( 12-C , 15-H ) :   0.9784
B( 16-S , 17-C ) :   1.1516 B( 16-S , 20-C ) :   1.1445 B( 17-C , 18-C ) :   1.6345
B( 17-C , 33-H ) :   0.9655 B( 18-C , 19-C ) :   1.2024 B( 18-C , 21-H ) :   0.9861
B( 19-C , 20-C ) :   1.6102 B( 19-C , 22-C ) :   1.0502 B( 22-C , 23-H ) :   0.9358
B( 22-C , 24-H ) :   0.9375 B( 22-C , 25-C ) :   1.0374 B( 25-C , 26-H ) :   0.9579
B( 25-C , 27-H ) :   0.9672 B( 25-C , 28-C ) :   1.0735 B( 28-C , 29-H ) :   0.9745
B( 28-C , 30-H ) :   0.9723 B( 28-C , 31-H ) :   0.9774

Dispersion correction           -0.013249199
FINAL SINGLE POINT ENERGY     -1339.853768298038

DIPOLE MOMENT
-------------
                                X             Y             Z
Electronic contribution:     20.28726      11.48233      16.19563
Nuclear contribution   :    -20.86891     -11.64054     -16.58441
                        -----------------------------------------
Total Dipole Moment    :     -0.58165      -0.15820      -0.38878
                        -----------------------------------------
Magnitude (a.u.)       :      0.71728
Magnitude (Debye)      :      1.82319

Rotational constants in cm-1:     0.017609     0.007798     0.005989
Rotational constants in MHz :   527.912596   233.783343   179.538296

                             ****ORCA TERMINATED NORMALLY****
TOTAL RUN TIME: 0 days 0 hours 0 minutes 20 seconds 722 msec
