                         Program Version 4.2.1 -  RELEASE  -
|  1> ! wB97X-D3 SP def2-SVP
|  2> %pal
|  3> nprocs 24
|  4> end
|  5>
|  6> * xyz 0 1
|  7> S 	 -102.47 	 2.72944 	 -103.332
|  8> C 	 -103.167 	 1.18612 	 -102.772
|  9> C 	 -102.57 	 0.0501691 	 -103.306
| 10> C 	 -101.386 	 0.480909 	 -104.03
| 11> C 	 -101.2 	 1.87363 	 -104.106
| 12> H 	 -100.573 	 -0.175085 	 -104.363
| 13> C 	 -102.884 	 -1.34798 	 -102.914
| 14> H 	 -102.456 	 -2.10185 	 -103.624
| 15> H 	 -103.953 	 -1.35379 	 -103.182
| 16> C 	 -102.546 	 -1.6678 	 -101.451
| 17> H 	 -101.429 	 -1.87233 	 -101.444
| 18> H 	 -102.977 	 -0.99389 	 -100.741
| 19> C 	 -102.863 	 -3.11466 	 -101.022
| 20> H 	 -102.538 	 -3.2914 	 -99.9732
| 21> H 	 -103.874 	 -3.45116 	 -101.062
| 22> H 	 -102.211 	 -3.96547 	 -101.474
| 23> S 	 -100.285 	 3.1535 	 -106.389
| 24> C 	 -98.6231 	 3.7164 	 -106.367
| 25> C 	 -98.0205 	 3.44447 	 -105.198
| 26> C 	 -98.8406 	 2.73507 	 -104.262
| 27> C 	 -100.108 	 2.53274 	 -104.738
| 28> H 	 -97.0073 	 3.7771 	 -105.064
| 29> C 	 -98.3631 	 2.39728 	 -102.851
| 30> H 	 -97.3264 	 2.20203 	 -102.89
| 31> H 	 -98.6646 	 1.47011 	 -102.581
| 32> C 	 -98.56 	 3.56367 	 -101.826
| 33> H 	 -99.5356 	 4.07831 	 -101.963
| 34> H 	 -97.8167 	 4.38498 	 -101.919
| 35> C 	 -98.575 	 3.11684 	 -100.29
| 36> H 	 -98.5981 	 2.02244 	 -100.128
| 37> H 	 -99.3873 	 3.51686 	 -99.7977
| 38> H 	 -97.6875 	 3.55925 	 -99.805
| 39> H 	 -103.935 	 1.0409 	 -102.069
| 40> H 	 -97.9813 	 4.02394 	 -107.231
| 41> *
| 42>
| 43>                          ****END OF INPUT****

CARTESIAN COORDINATES (ANGSTROEM)
---------------------------------
  S    -102.470000    2.729440  -103.332000
  C    -103.167000    1.186120  -102.772000
  C    -102.570000    0.050169  -103.306000
  C    -101.386000    0.480909  -104.030000
  C    -101.200000    1.873630  -104.106000
  H    -100.573000   -0.175085  -104.363000
  C    -102.884000   -1.347980  -102.914000
  H    -102.456000   -2.101850  -103.624000
  H    -103.953000   -1.353790  -103.182000
  C    -102.546000   -1.667800  -101.451000
  H    -101.429000   -1.872330  -101.444000
  H    -102.977000   -0.993890  -100.741000
  C    -102.863000   -3.114660  -101.022000
  H    -102.538000   -3.291400  -99.973200
  H    -103.874000   -3.451160  -101.062000
  H    -102.211000   -3.965470  -101.474000
  S    -100.285000    3.153500  -106.389000
  C    -98.623100    3.716400  -106.367000
  C    -98.020500    3.444470  -105.198000
  C    -98.840600    2.735070  -104.262000
  C    -100.108000    2.532740  -104.738000
  H    -97.007300    3.777100  -105.064000
  C    -98.363100    2.397280  -102.851000
  H    -97.326400    2.202030  -102.890000
  H    -98.664600    1.470110  -102.581000
  C    -98.560000    3.563670  -101.826000
  H    -99.535600    4.078310  -101.963000
  H    -97.816700    4.384980  -101.919000
  C    -98.575000    3.116840  -100.290000
  H    -98.598100    2.022440  -100.128000
  H    -99.387300    3.516860  -99.797700
  H    -97.687500    3.559250  -99.805000
  H    -103.935000    1.040900  -102.069000
  H    -97.981300    4.023940  -107.231000

 Total Charge           Charge          ....    0
 Multiplicity           Mult            ....    1
 Number of Electrons    NEL             ....  134
 Basis Dimension        Dim             ....  322

ORBITAL ENERGIES
----------------

  NO   OCC          E(Eh)            E(eV)
   0   2.0000     -88.969938     -2420.9951
   1   2.0000     -88.961431     -2420.7636
   2   2.0000     -10.322305      -280.8842
   3   2.0000     -10.319255      -280.8012
   4   2.0000     -10.313276      -280.6385
   5   2.0000     -10.311747      -280.5969
   6   2.0000     -10.302136      -280.3354
   7   2.0000     -10.299658      -280.2679
   8   2.0000     -10.299502      -280.2637
   9   2.0000     -10.298715      -280.2423
  10   2.0000     -10.296320      -280.1771
  11   2.0000     -10.292264      -280.0668
  12   2.0000     -10.286729      -279.9161
  13   2.0000     -10.285183      -279.8741
  14   2.0000     -10.281266      -279.7675
  15   2.0000     -10.273385      -279.5530
  16   2.0000      -8.084236      -219.9832
  17   2.0000      -8.075983      -219.7587
  18   2.0000      -6.042716      -164.4307
  19   2.0000      -6.038811      -164.3244
  20   2.0000      -6.035049      -164.2220
  21   2.0000      -6.034584      -164.2094
  22   2.0000      -6.030599      -164.1009
  23   2.0000      -6.026571      -163.9913
  24   2.0000      -1.005413       -27.3587
  25   2.0000      -0.981235       -26.7008
  26   2.0000      -0.917439       -24.9648
  27   2.0000      -0.897615       -24.4253
  28   2.0000      -0.871427       -23.7127
  29   2.0000      -0.848614       -23.0920
  30   2.0000      -0.841362       -22.8946
  31   2.0000      -0.811378       -22.0787
  32   2.0000      -0.786726       -21.4079
  33   2.0000      -0.773151       -21.0385
  34   2.0000      -0.706293       -19.2192
  35   2.0000      -0.705079       -19.1862
  36   2.0000      -0.697503       -18.9800
  37   2.0000      -0.654636       -17.8135
  38   2.0000      -0.637700       -17.3527
  39   2.0000      -0.610998       -16.6261
  40   2.0000      -0.593409       -16.1475
  41   2.0000      -0.582532       -15.8515
  42   2.0000      -0.562180       -15.2977
  43   2.0000      -0.549061       -14.9407
  44   2.0000      -0.530084       -14.4243
  45   2.0000      -0.524579       -14.2745
  46   2.0000      -0.518408       -14.1066
  47   2.0000      -0.509506       -13.8644
  48   2.0000      -0.500779       -13.6269
  49   2.0000      -0.497410       -13.5352
  50   2.0000      -0.493911       -13.4400
  51   2.0000      -0.479703       -13.0534
  52   2.0000      -0.464805       -12.6480
  53   2.0000      -0.461480       -12.5575
  54   2.0000      -0.451989       -12.2993
  55   2.0000      -0.448822       -12.2131
  56   2.0000      -0.443138       -12.0584
  57   2.0000      -0.436073       -11.8661
  58   2.0000      -0.434932       -11.8351
  59   2.0000      -0.428457       -11.6589
  60   2.0000      -0.419002       -11.4016
  61   2.0000      -0.409165       -11.1339
  62   2.0000      -0.407040       -11.0761
  63   2.0000      -0.334629        -9.1057
  64   2.0000      -0.329245        -8.9592
  65   2.0000      -0.322277        -8.7696
  66   2.0000      -0.304167        -8.2768
  67   0.0000       0.045652         1.2422
  68   0.0000       0.054325         1.4783
  69   0.0000       0.112455         3.0601
  70   0.0000       0.120170         3.2700
  71   0.0000       0.126933         3.4540

MULLIKEN ATOMIC CHARGES
-----------------------
   0 S :    0.134751
   1 C :   -0.108827
   2 C :   -0.080076
   3 C :    0.039026
   4 C :   -0.195087
   5 H :    0.017509
   6 C :    0.048565
   7 H :    0.031455
   8 H :    0.036662
   9 C :   -0.044201
  10 H :    0.048545
  11 H :    0.041764
  12 C :   -0.097070
  13 H :    0.030983
  14 H :    0.028347
  15 H :    0.036156
  16 S :    0.107422
  17 C :   -0.099121
  18 C :   -0.038499
  19 C :   -0.049775
  20 C :   -0.185203
  21 H :    0.011467
  22 C :    0.205797
  23 H :   -0.003597
  24 H :   -0.017499
  25 C :   -0.105611
  26 H :    0.035779
  27 H :    0.035577
  28 C :   -0.043296
  29 H :    0.037341
  30 H :    0.019530
  31 H :    0.031618
  32 H :    0.018158
  33 H :    0.071414
Sum of atomic charges:    0.0000000

LOEWDIN ATOMIC CHARGES
----------------------
   0 S :    0.418375
   1 C :   -0.183213
   2 C :   -0.059657
   3 C :   -0.057169
   4 C :   -0.215880
   5 H :    0.031686
   6 C :   -0.044305
   7 H :    0.038503
   8 H :    0.037250
   9 C :   -0.037499
  10 H :    0.047026
  11 H :    0.025712
  12 C :   -0.082300
  13 H :    0.029856
  14 H :    0.012395
  15 H :    0.033341
  16 S :    0.388024
  17 C :   -0.191437
  18 C :   -0.075207
  19 C :   -0.046623
  20 C :   -0.199793
  21 H :    0.030067
  22 C :   -0.020451
  23 H :    0.028327
  24 H :    0.015245
  25 C :   -0.036859
  26 H :    0.024635
  27 H :    0.026312
  28 C :   -0.064439
  29 H :    0.027689
  30 H :    0.014820
  31 H :    0.027439
  32 H :    0.013775
  33 H :    0.044355

  Mayer bond orders larger than 0.100000
B(  0-S ,  1-C ) :   1.1391 B(  0-S ,  4-C ) :   1.1507 B(  1-C ,  2-C ) :   1.6181
B(  1-C , 32-H ) :   0.9707 B(  2-C ,  3-C ) :   1.2309 B(  2-C ,  6-C ) :   1.0215
B(  3-C ,  4-C ) :   1.5922 B(  3-C ,  5-H ) :   0.9870 B(  4-C , 20-C ) :   1.0357
B(  6-C ,  7-H ) :   0.9422 B(  6-C ,  8-H ) :   0.9301 B(  6-C ,  9-C ) :   1.0678
B(  9-C , 10-H ) :   0.9567 B(  9-C , 11-H ) :   0.9576 B(  9-C , 12-C ) :   1.0642
B( 12-C , 13-H ) :   0.9725 B( 12-C , 14-H ) :   0.9762 B( 12-C , 15-H ) :   0.9770
B( 16-S , 17-C ) :   1.1347 B( 16-S , 20-C ) :   1.1274 B( 17-C , 18-C ) :   1.6624
B( 17-C , 33-H ) :   0.9534 B( 18-C , 19-C ) :   1.2162 B( 18-C , 21-H ) :   0.9890
B( 19-C , 20-C ) :   1.6359 B( 19-C , 22-C ) :   1.0532 B( 22-C , 23-H ) :   0.9148
B( 22-C , 24-H ) :   0.9181 B( 22-C , 25-C ) :   1.0430 B( 25-C , 26-H ) :   0.9707
B( 25-C , 27-H ) :   0.9648 B( 25-C , 28-C ) :   1.0533 B( 28-C , 29-H ) :   0.9818
B( 28-C , 30-H ) :   0.9822 B( 28-C , 31-H ) :   0.9818

Dispersion correction           -0.014326434
FINAL SINGLE POINT ENERGY     -1339.845177373917

DIPOLE MOMENT
-------------
                                X             Y             Z
Electronic contribution:     -4.96299      16.43178     -22.92369
Nuclear contribution   :      5.31548     -16.95226      23.43977
                        -----------------------------------------
Total Dipole Moment    :      0.35250      -0.52048       0.51608
                        -----------------------------------------
Magnitude (a.u.)       :      0.81332
Magnitude (Debye)      :      2.06729

Rotational constants in cm-1:     0.019052     0.008163     0.006863
Rotational constants in MHz :   571.177687   244.728124   205.740849

                             ****ORCA TERMINATED NORMALLY****
TOTAL RUN TIME: 0 days 0 hours 0 minutes 21 seconds 304 msec
