                         Program Version 4.2.1 -  RELEASE  -
|  1> ! wB97X-D3 SP def2-SVP
|  2> %pal
|  3> nprocs 24
|  4> end
|  5>
|  6> * xyz 0 1
|  7> S 	 -106.77 	 52.079 	 -89.9151
|  8> C 	 -107.491 	 50.475 	 -89.8649
|  9> C 	 -108.507 	 50.3486 	 -88.8738
| 10> C 	 -108.547 	 51.5063 	 -88.0741
| 11> C 	 -107.647 	 52.4766 	 -88.4472
| 12> H 	 -109.26 	 51.7086 	 -87.3089
| 13> C 	 -109.266 	 49.1382 	 -88.5477
| 14> H 	 -108.975 	 48.7668 	 -87.5918
| 15> H 	 -108.869 	 48.3778 	 -89.1802
| 16> C 	 -110.812 	 49.1801 	 -88.7826
| 17> H 	 -111.045 	 49.9613 	 -89.4402
| 18> H 	 -111.146 	 48.1866 	 -89.1693
| 19> C 	 -111.657 	 49.5838 	 -87.5746
| 20> H 	 -111.578 	 50.6251 	 -87.5848
| 21> H 	 -112.703 	 49.2297 	 -87.732
| 22> H 	 -111.417 	 49.0539 	 -86.6042
| 23> S 	 -105.793 	 54.2029 	 -87.4418
| 24> C 	 -106.155 	 55.7369 	 -86.6495
| 25> C 	 -107.535 	 55.9052 	 -86.6069
| 26> C 	 -108.264 	 54.8195 	 -87.2468
| 27> C 	 -107.452 	 53.7772 	 -87.8024
| 28> H 	 -107.932 	 56.7314 	 -85.9772
| 29> C 	 -109.779 	 54.8497 	 -87.3159
| 30> H 	 -110.134 	 54.6357 	 -86.2899
| 31> H 	 -110.095 	 53.9884 	 -87.9091
| 32> C 	 -110.413 	 56.0705 	 -87.9957
| 33> H 	 -110.11 	 56.1699 	 -89.0327
| 34> H 	 -109.998 	 56.9879 	 -87.6035
| 35> C 	 -111.99 	 56.1501 	 -87.8016
| 36> H 	 -112.576 	 55.392 	 -88.29
| 37> H 	 -112.411 	 57.1969 	 -88.1306
| 38> H 	 -112.192 	 56.0725 	 -86.7173
| 39> H 	 -107.299 	 49.6731 	 -90.567
| 40> H 	 -105.407 	 56.3776 	 -86.1702
| 41> *
| 42>
| 43>                          ****END OF INPUT****

CARTESIAN COORDINATES (ANGSTROEM)
---------------------------------
  S    -106.770000   52.079000  -89.915100
  C    -107.491000   50.475000  -89.864900
  C    -108.507000   50.348600  -88.873800
  C    -108.547000   51.506300  -88.074100
  C    -107.647000   52.476600  -88.447200
  H    -109.260000   51.708600  -87.308900
  C    -109.266000   49.138200  -88.547700
  H    -108.975000   48.766800  -87.591800
  H    -108.869000   48.377800  -89.180200
  C    -110.812000   49.180100  -88.782600
  H    -111.045000   49.961300  -89.440200
  H    -111.146000   48.186600  -89.169300
  C    -111.657000   49.583800  -87.574600
  H    -111.578000   50.625100  -87.584800
  H    -112.703000   49.229700  -87.732000
  H    -111.417000   49.053900  -86.604200
  S    -105.793000   54.202900  -87.441800
  C    -106.155000   55.736900  -86.649500
  C    -107.535000   55.905200  -86.606900
  C    -108.264000   54.819500  -87.246800
  C    -107.452000   53.777200  -87.802400
  H    -107.932000   56.731400  -85.977200
  C    -109.779000   54.849700  -87.315900
  H    -110.134000   54.635700  -86.289900
  H    -110.095000   53.988400  -87.909100
  C    -110.413000   56.070500  -87.995700
  H    -110.110000   56.169900  -89.032700
  H    -109.998000   56.987900  -87.603500
  C    -111.990000   56.150100  -87.801600
  H    -112.576000   55.392000  -88.290000
  H    -112.411000   57.196900  -88.130600
  H    -112.192000   56.072500  -86.717300
  H    -107.299000   49.673100  -90.567000
  H    -105.407000   56.377600  -86.170200

 Total Charge           Charge          ....    0
 Multiplicity           Mult            ....    1
 Number of Electrons    NEL             ....  134
 Basis Dimension        Dim             ....  322

ORBITAL ENERGIES
----------------

  NO   OCC          E(Eh)            E(eV)
   0   2.0000     -88.973372     -2421.0885
   1   2.0000     -88.960914     -2420.7495
   2   2.0000     -10.332849      -281.1711
   3   2.0000     -10.332272      -281.1554
   4   2.0000     -10.322187      -280.8810
   5   2.0000     -10.319097      -280.7969
   6   2.0000     -10.311971      -280.6030
   7   2.0000     -10.301468      -280.3172
   8   2.0000     -10.301381      -280.3148
   9   2.0000     -10.292115      -280.0627
  10   2.0000     -10.290671      -280.0234
  11   2.0000     -10.290043      -280.0063
  12   2.0000     -10.288342      -279.9600
  13   2.0000     -10.287850      -279.9466
  14   2.0000     -10.285524      -279.8833
  15   2.0000     -10.280764      -279.7538
  16   2.0000      -8.087500      -220.0721
  17   2.0000      -8.075580      -219.7477
  18   2.0000      -6.045942      -164.5184
  19   2.0000      -6.042222      -164.4172
  20   2.0000      -6.038228      -164.3085
  21   2.0000      -6.034106      -164.1964
  22   2.0000      -6.029843      -164.0804
  23   2.0000      -6.026551      -163.9908
  24   2.0000      -1.004120       -27.3235
  25   2.0000      -0.979505       -26.6537
  26   2.0000      -0.916303       -24.9339
  27   2.0000      -0.901300       -24.5256
  28   2.0000      -0.868930       -23.6448
  29   2.0000      -0.855203       -23.2713
  30   2.0000      -0.837890       -22.8001
  31   2.0000      -0.819136       -22.2898
  32   2.0000      -0.781881       -21.2761
  33   2.0000      -0.764417       -20.8008
  34   2.0000      -0.707497       -19.2520
  35   2.0000      -0.699362       -19.0306
  36   2.0000      -0.697241       -18.9729
  37   2.0000      -0.655026       -17.8242
  38   2.0000      -0.642633       -17.4869
  39   2.0000      -0.627238       -17.0680
  40   2.0000      -0.593407       -16.1474
  41   2.0000      -0.576316       -15.6824
  42   2.0000      -0.555723       -15.1220
  43   2.0000      -0.554762       -15.0958
  44   2.0000      -0.538084       -14.6420
  45   2.0000      -0.522702       -14.2235
  46   2.0000      -0.517152       -14.0724
  47   2.0000      -0.507891       -13.8204
  48   2.0000      -0.503586       -13.7033
  49   2.0000      -0.498124       -13.5547
  50   2.0000      -0.492350       -13.3975
  51   2.0000      -0.481468       -13.1014
  52   2.0000      -0.469486       -12.7754
  53   2.0000      -0.466582       -12.6963
  54   2.0000      -0.456055       -12.4099
  55   2.0000      -0.453083       -12.3290
  56   2.0000      -0.443086       -12.0570
  57   2.0000      -0.437426       -11.9030
  58   2.0000      -0.435626       -11.8540
  59   2.0000      -0.423754       -11.5309
  60   2.0000      -0.419078       -11.4037
  61   2.0000      -0.414974       -11.2920
  62   2.0000      -0.407033       -11.0759
  63   2.0000      -0.348108        -9.4725
  64   2.0000      -0.334207        -9.0942
  65   2.0000      -0.324353        -8.8261
  66   2.0000      -0.289742        -7.8843
  67   0.0000       0.025847         0.7033
  68   0.0000       0.067441         1.8352
  69   0.0000       0.108572         2.9544
  70   0.0000       0.116685         3.1752
  71   0.0000       0.128849         3.5062

MULLIKEN ATOMIC CHARGES
-----------------------
   0 S :    0.135719
   1 C :   -0.111978
   2 C :   -0.112956
   3 C :    0.040705
   4 C :   -0.143481
   5 H :    0.001272
   6 C :    0.106963
   7 H :    0.028086
   8 H :   -0.004651
   9 C :   -0.071001
  10 H :    0.024956
  11 H :    0.037799
  12 C :   -0.063534
  13 H :    0.030212
  14 H :    0.036792
  15 H :    0.038293
  16 S :    0.083819
  17 C :   -0.105958
  18 C :   -0.048410
  19 C :   -0.060419
  20 C :   -0.141028
  21 H :    0.044024
  22 C :    0.058026
  23 H :    0.036978
  24 H :    0.016930
  25 C :   -0.055313
  26 H :    0.032084
  27 H :    0.017690
  28 C :   -0.087196
  29 H :    0.038476
  30 H :    0.047774
  31 H :    0.032007
  32 H :    0.045536
  33 H :    0.071784
Sum of atomic charges:    0.0000000

LOEWDIN ATOMIC CHARGES
----------------------
   0 S :    0.413656
   1 C :   -0.196809
   2 C :   -0.059380
   3 C :   -0.057102
   4 C :   -0.193210
   5 H :    0.027812
   6 C :   -0.032564
   7 H :    0.031267
   8 H :    0.029313
   9 C :   -0.032292
  10 H :    0.021272
  11 H :    0.027846
  12 C :   -0.068286
  13 H :    0.015580
  14 H :    0.032383
  15 H :    0.028273
  16 S :    0.400738
  17 C :   -0.185642
  18 C :   -0.081861
  19 C :   -0.058678
  20 C :   -0.203191
  21 H :    0.040835
  22 C :   -0.040141
  23 H :    0.033858
  24 H :    0.028196
  25 C :   -0.039508
  26 H :    0.027157
  27 H :    0.019167
  28 C :   -0.072349
  29 H :    0.019084
  30 H :    0.037734
  31 H :    0.025278
  32 H :    0.025424
  33 H :    0.036141

  Mayer bond orders larger than 0.100000
B(  0-S ,  1-C ) :   1.1421 B(  0-S ,  4-C ) :   1.1573 B(  1-C ,  2-C ) :   1.5855
B(  1-C ,  4-C ) :   0.1020 B(  1-C , 32-H ) :   0.9628 B(  2-C ,  3-C ) :   1.2462
B(  2-C ,  6-C ) :   1.0476 B(  3-C ,  4-C ) :   1.5685 B(  3-C ,  5-H ) :   1.0003
B(  4-C , 20-C ) :   1.0294 B(  6-C ,  7-H ) :   0.9407 B(  6-C ,  8-H ) :   0.9235
B(  6-C ,  9-C ) :   1.0434 B(  9-C , 10-H ) :   0.9654 B(  9-C , 11-H ) :   0.9625
B(  9-C , 12-C ) :   1.0692 B( 12-C , 13-H ) :   0.9828 B( 12-C , 14-H ) :   0.9713
B( 12-C , 15-H ) :   0.9768 B( 16-S , 17-C ) :   1.1638 B( 16-S , 20-C ) :   1.1465
B( 17-C , 18-C ) :   1.5905 B( 17-C , 20-C ) :   0.1042 B( 17-C , 33-H ) :   0.9666
B( 18-C , 19-C ) :   1.2475 B( 18-C , 21-H ) :   0.9831 B( 19-C , 20-C ) :   1.5601
B( 19-C , 22-C ) :   1.0503 B( 22-C , 23-H ) :   0.9338 B( 22-C , 24-H ) :   0.9360
B( 22-C , 25-C ) :   1.0557 B( 25-C , 26-H ) :   0.9550 B( 25-C , 27-H ) :   0.9586
B( 25-C , 28-C ) :   1.0631 B( 28-C , 29-H ) :   0.9805 B( 28-C , 30-H ) :   0.9767
B( 28-C , 31-H ) :   0.9769

Dispersion correction           -0.013824112
FINAL SINGLE POINT ENERGY     -1339.866303694723

DIPOLE MOMENT
-------------
                                X             Y             Z
Electronic contribution:     30.06984       3.08604      -4.75121
Nuclear contribution   :    -30.67043      -3.24992       4.97793
                        -----------------------------------------
Total Dipole Moment    :     -0.60059      -0.16388       0.22672
                        -----------------------------------------
Magnitude (a.u.)       :      0.66255
Magnitude (Debye)      :      1.68407

Rotational constants in cm-1:     0.015687     0.009384     0.006606
Rotational constants in MHz :   470.280908   281.334954   198.036589

                             ****ORCA TERMINATED NORMALLY****
TOTAL RUN TIME: 0 days 0 hours 0 minutes 21 seconds 208 msec
