                         Program Version 4.2.1 -  RELEASE  -
|  1> ! wB97X-D3 SP def2-SVP
|  2> %pal
|  3> nprocs 24
|  4> end
|  5>
|  6> * xyz 0 1
|  7> S 	 -96.6697 	 8.23528 	 -2.53829
|  8> C 	 -96.3188 	 9.06844 	 -4.08365
|  9> C 	 -95.3757 	 8.33712 	 -4.80905
| 10> C 	 -95.1623 	 7.069 	 -4.17228
| 11> C 	 -95.8543 	 6.78853 	 -3.02951
| 12> H 	 -94.5363 	 6.27373 	 -4.60217
| 13> C 	 -94.6402 	 8.69407 	 -6.07509
| 14> H 	 -95.2036 	 8.29153 	 -6.97571
| 15> H 	 -93.5787 	 8.45078 	 -6.07182
| 16> C 	 -94.5439 	 10.2543 	 -6.21161
| 17> H 	 -95.4945 	 10.6496 	 -6.50922
| 18> H 	 -94.4345 	 10.7844 	 -5.24559
| 19> C 	 -93.4517 	 10.6979 	 -7.20834
| 20> H 	 -92.4415 	 10.3639 	 -7.03608
| 21> H 	 -93.8104 	 10.4739 	 -8.24966
| 22> H 	 -93.4117 	 11.8139 	 -7.1795
| 23> S 	 -97.1435 	 4.34355 	 -2.92204
| 24> C 	 -96.8169 	 3.3236 	 -1.48275
| 25> C 	 -95.7735 	 3.84454 	 -0.716578
| 26> C 	 -95.3336 	 5.10331 	 -1.15795
| 27> C 	 -96.0585 	 5.56233 	 -2.27672
| 28> H 	 -95.365 	 3.28111 	 0.0999236
| 29> C 	 -94.291 	 5.86394 	 -0.377711
| 30> H 	 -94.4969 	 5.83154 	 0.71276
| 31> H 	 -94.2776 	 6.86409 	 -0.57717
| 32> C 	 -92.8704 	 5.39849 	 -0.583985
| 33> H 	 -92.7722 	 5.2065 	 -1.61815
| 34> H 	 -92.7236 	 4.42582 	 -0.0582879
| 35> C 	 -91.8805 	 6.33779 	 -0.0721153
| 36> H 	 -90.9275 	 6.02695 	 -0.476502
| 37> H 	 -91.7948 	 6.32771 	 1.02917
| 38> H 	 -92.0079 	 7.3787 	 -0.378101
| 39> H 	 -96.7009 	 10.1018 	 -4.29651
| 40> H 	 -97.3489 	 2.41809 	 -1.19246
| 41> *
| 42>
| 43>                          ****END OF INPUT****

CARTESIAN COORDINATES (ANGSTROEM)
---------------------------------
  S    -96.669700    8.235280   -2.538290
  C    -96.318800    9.068440   -4.083650
  C    -95.375700    8.337120   -4.809050
  C    -95.162300    7.069000   -4.172280
  C    -95.854300    6.788530   -3.029510
  H    -94.536300    6.273730   -4.602170
  C    -94.640200    8.694070   -6.075090
  H    -95.203600    8.291530   -6.975710
  H    -93.578700    8.450780   -6.071820
  C    -94.543900   10.254300   -6.211610
  H    -95.494500   10.649600   -6.509220
  H    -94.434500   10.784400   -5.245590
  C    -93.451700   10.697900   -7.208340
  H    -92.441500   10.363900   -7.036080
  H    -93.810400   10.473900   -8.249660
  H    -93.411700   11.813900   -7.179500
  S    -97.143500    4.343550   -2.922040
  C    -96.816900    3.323600   -1.482750
  C    -95.773500    3.844540   -0.716578
  C    -95.333600    5.103310   -1.157950
  C    -96.058500    5.562330   -2.276720
  H    -95.365000    3.281110    0.099924
  C    -94.291000    5.863940   -0.377711
  H    -94.496900    5.831540    0.712760
  H    -94.277600    6.864090   -0.577170
  C    -92.870400    5.398490   -0.583985
  H    -92.772200    5.206500   -1.618150
  H    -92.723600    4.425820   -0.058288
  C    -91.880500    6.337790   -0.072115
  H    -90.927500    6.026950   -0.476502
  H    -91.794800    6.327710    1.029170
  H    -92.007900    7.378700   -0.378101
  H    -96.700900   10.101800   -4.296510
  H    -97.348900    2.418090   -1.192460

 Total Charge           Charge          ....    0
 Multiplicity           Mult            ....    1
 Number of Electrons    NEL             ....  134
 Basis Dimension        Dim             ....  322

ORBITAL ENERGIES
----------------

  NO   OCC          E(Eh)            E(eV)
   0   2.0000     -88.970339     -2421.0060
   1   2.0000     -88.959630     -2420.7146
   2   2.0000     -10.327352      -281.0215
   3   2.0000     -10.323157      -280.9074
   4   2.0000     -10.322661      -280.8939
   5   2.0000     -10.322399      -280.8868
   6   2.0000     -10.305128      -280.4168
   7   2.0000     -10.302770      -280.3526
   8   2.0000     -10.300676      -280.2957
   9   2.0000     -10.292562      -280.0748
  10   2.0000     -10.291246      -280.0391
  11   2.0000     -10.287443      -279.9356
  12   2.0000     -10.285396      -279.8799
  13   2.0000     -10.278711      -279.6979
  14   2.0000     -10.275153      -279.6011
  15   2.0000     -10.272495      -279.5288
  16   2.0000      -8.083928      -219.9749
  17   2.0000      -8.074309      -219.7131
  18   2.0000      -6.042446      -164.4233
  19   2.0000      -6.038692      -164.3212
  20   2.0000      -6.034656      -164.2113
  21   2.0000      -6.032899      -164.1635
  22   2.0000      -6.028787      -164.0516
  23   2.0000      -6.025012      -163.9489
  24   2.0000      -1.003105       -27.2959
  25   2.0000      -0.979809       -26.6620
  26   2.0000      -0.920280       -25.0421
  27   2.0000      -0.909515       -24.7492
  28   2.0000      -0.865433       -23.5496
  29   2.0000      -0.855046       -23.2670
  30   2.0000      -0.841641       -22.9022
  31   2.0000      -0.811054       -22.0699
  32   2.0000      -0.783262       -21.3136
  33   2.0000      -0.768343       -20.9077
  34   2.0000      -0.708158       -19.2700
  35   2.0000      -0.696988       -18.9660
  36   2.0000      -0.692296       -18.8383
  37   2.0000      -0.659050       -17.9337
  38   2.0000      -0.639310       -17.3965
  39   2.0000      -0.612707       -16.6726
  40   2.0000      -0.601406       -16.3651
  41   2.0000      -0.574623       -15.6363
  42   2.0000      -0.570608       -15.5270
  43   2.0000      -0.565205       -15.3800
  44   2.0000      -0.525197       -14.2913
  45   2.0000      -0.523261       -14.2387
  46   2.0000      -0.516698       -14.0601
  47   2.0000      -0.510974       -13.9043
  48   2.0000      -0.507267       -13.8034
  49   2.0000      -0.498423       -13.5628
  50   2.0000      -0.491750       -13.3812
  51   2.0000      -0.474560       -12.9134
  52   2.0000      -0.472667       -12.8619
  53   2.0000      -0.463545       -12.6137
  54   2.0000      -0.455325       -12.3900
  55   2.0000      -0.449679       -12.2364
  56   2.0000      -0.447469       -12.1762
  57   2.0000      -0.436236       -11.8706
  58   2.0000      -0.424623       -11.5546
  59   2.0000      -0.423544       -11.5252
  60   2.0000      -0.419605       -11.4180
  61   2.0000      -0.414585       -11.2814
  62   2.0000      -0.412800       -11.2329
  63   2.0000      -0.337127        -9.1737
  64   2.0000      -0.325696        -8.8626
  65   2.0000      -0.322954        -8.7880
  66   2.0000      -0.304075        -8.2743
  67   0.0000       0.042741         1.1631
  68   0.0000       0.048015         1.3066
  69   0.0000       0.105129         2.8607
  70   0.0000       0.115126         3.1327
  71   0.0000       0.128800         3.5048

MULLIKEN ATOMIC CHARGES
-----------------------
   0 S :    0.100336
   1 C :   -0.155906
   2 C :   -0.082159
   3 C :    0.032876
   4 C :   -0.184083
   5 H :    0.012216
   6 C :    0.068671
   7 H :    0.064029
   8 H :    0.037382
   9 C :   -0.122156
  10 H :    0.016441
  11 H :    0.034948
  12 C :   -0.056010
  13 H :    0.041312
  14 H :    0.037160
  15 H :    0.032331
  16 S :    0.126215
  17 C :   -0.102668
  18 C :   -0.023661
  19 C :    0.000918
  20 C :   -0.169336
  21 H :    0.016054
  22 C :    0.111681
  23 H :    0.024295
  24 H :   -0.020841
  25 C :   -0.072950
  26 H :    0.017566
  27 H :    0.024141
  28 C :   -0.026923
  29 H :    0.024874
  30 H :    0.031141
  31 H :    0.029843
  32 H :    0.070936
  33 H :    0.061328
Sum of atomic charges:    0.0000000

LOEWDIN ATOMIC CHARGES
----------------------
   0 S :    0.395178
   1 C :   -0.191295
   2 C :   -0.067858
   3 C :   -0.066409
   4 C :   -0.206561
   5 H :    0.032238
   6 C :   -0.032067
   7 H :    0.047280
   8 H :    0.034019
   9 C :   -0.048593
  10 H :    0.016584
  11 H :    0.024600
  12 C :   -0.070799
  13 H :    0.021433
  14 H :    0.030636
  15 H :    0.031442
  16 S :    0.401028
  17 C :   -0.172995
  18 C :   -0.064517
  19 C :   -0.046419
  20 C :   -0.208420
  21 H :    0.030896
  22 C :   -0.027284
  23 H :    0.034473
  24 H :    0.012108
  25 C :   -0.040087
  26 H :    0.018832
  27 H :    0.026799
  28 C :   -0.063593
  29 H :    0.028076
  30 H :    0.028181
  31 H :    0.025047
  32 H :    0.036433
  33 H :    0.031614

  Mayer bond orders larger than 0.100000
B(  0-S ,  1-C ) :   1.1394 B(  0-S ,  4-C ) :   1.1430 B(  1-C ,  2-C ) :   1.5985
B(  1-C , 32-H ) :   0.9641 B(  2-C ,  3-C ) :   1.2324 B(  2-C ,  6-C ) :   1.0214
B(  3-C ,  4-C ) :   1.6153 B(  3-C ,  5-H ) :   0.9964 B(  4-C , 20-C ) :   1.0048
B(  6-C ,  7-H ) :   0.9294 B(  6-C ,  8-H ) :   0.9558 B(  6-C ,  9-C ) :   1.0552
B(  9-C , 10-H ) :   0.9468 B(  9-C , 11-H ) :   0.9643 B(  9-C , 12-C ) :   1.0888
B( 12-C , 13-H ) :   0.9765 B( 12-C , 14-H ) :   0.9735 B( 12-C , 15-H ) :   0.9722
B( 16-S , 17-C ) :   1.1504 B( 16-S , 20-C ) :   1.1458 B( 17-C , 18-C ) :   1.6023
B( 17-C , 20-C ) :   0.1087 B( 17-C , 33-H ) :   0.9661 B( 18-C , 19-C ) :   1.2551
B( 18-C , 21-H ) :   0.9906 B( 19-C , 20-C ) :   1.5748 B( 19-C , 22-C ) :   1.0565
B( 22-C , 23-H ) :   0.9338 B( 22-C , 24-H ) :   0.9198 B( 22-C , 25-C ) :   1.0643
B( 25-C , 26-H ) :   0.9529 B( 25-C , 27-H ) :   0.9451 B( 25-C , 28-C ) :   1.1092
B( 28-C , 29-H ) :   0.9684 B( 28-C , 30-H ) :   0.9692 B( 28-C , 31-H ) :   0.9701

Dispersion correction           -0.013717732
FINAL SINGLE POINT ENERGY     -1339.870428792303

DIPOLE MOMENT
-------------
                                X             Y             Z
Electronic contribution:    -22.73112     -12.19678       4.91179
Nuclear contribution   :     23.26562      12.24302      -4.99649
                        -----------------------------------------
Total Dipole Moment    :      0.53449       0.04624      -0.08470
                        -----------------------------------------
Magnitude (a.u.)       :      0.54314
Magnitude (Debye)      :      1.38054

Rotational constants in cm-1:     0.019626     0.007559     0.006295
Rotational constants in MHz :   588.361772   226.623271   188.732689

                             ****ORCA TERMINATED NORMALLY****
TOTAL RUN TIME: 0 days 0 hours 0 minutes 21 seconds 905 msec
