                         Program Version 4.2.1 -  RELEASE  -
|  1> ! wB97X-D3 SP def2-SVP
|  2> %pal
|  3> nprocs 24
|  4> end
|  5>
|  6> * xyz 0 1
|  7> S 	 -113.829 	 57.9884 	 -92.6955
|  8> C 	 -112.984 	 58.5253 	 -91.2792
|  9> C 	 -111.629 	 58.6924 	 -91.5258
| 10> C 	 -111.265 	 58.2901 	 -92.8566
| 11> C 	 -112.311 	 57.6901 	 -93.5559
| 12> H 	 -110.329 	 58.3736 	 -93.2834
| 13> C 	 -110.662 	 59.3053 	 -90.4988
| 14> H 	 -109.93 	 58.5149 	 -90.3391
| 15> H 	 -111.104 	 59.2391 	 -89.5137
| 16> C 	 -109.965 	 60.6869 	 -90.837
| 17> H 	 -109.341 	 60.8322 	 -90.0009
| 18> H 	 -109.39 	 60.743 	 -91.7281
| 19> C 	 -110.974 	 61.8678 	 -90.8355
| 20> H 	 -111.588 	 61.8774 	 -91.7174
| 21> H 	 -111.636 	 61.6555 	 -89.9725
| 22> H 	 -110.476 	 62.8583 	 -90.7007
| 23> S 	 -113.565 	 57.4393 	 -96.0015
| 24> C 	 -112.726 	 56.6334 	 -97.3539
| 25> C 	 -111.526 	 56.1411 	 -96.9481
| 26> C 	 -111.184 	 56.5623 	 -95.6381
| 27> C 	 -112.22 	 57.1629 	 -94.9198
| 28> H 	 -110.913 	 55.5367 	 -97.6224
| 29> C 	 -109.782 	 56.1136 	 -95.0833
| 30> H 	 -109.548 	 55.1157 	 -95.3433
| 31> H 	 -109.961 	 55.9967 	 -94.0245
| 32> C 	 -108.565 	 56.962 	 -95.4005
| 33> H 	 -108.714 	 57.915 	 -94.8728
| 34> H 	 -108.387 	 57.1875 	 -96.3833
| 35> C 	 -107.26 	 56.4254 	 -94.7389
| 36> H 	 -106.583 	 57.3262 	 -94.482
| 37> H 	 -106.672 	 55.7875 	 -95.4246
| 38> H 	 -107.515 	 55.9972 	 -93.7443
| 39> H 	 -113.479 	 58.9242 	 -90.3646
| 40> H 	 -112.953 	 56.6745 	 -98.3879
| 41> *
| 42>
| 43>                          ****END OF INPUT****

CARTESIAN COORDINATES (ANGSTROEM)
---------------------------------
  S    -113.829000   57.988400  -92.695500
  C    -112.984000   58.525300  -91.279200
  C    -111.629000   58.692400  -91.525800
  C    -111.265000   58.290100  -92.856600
  C    -112.311000   57.690100  -93.555900
  H    -110.329000   58.373600  -93.283400
  C    -110.662000   59.305300  -90.498800
  H    -109.930000   58.514900  -90.339100
  H    -111.104000   59.239100  -89.513700
  C    -109.965000   60.686900  -90.837000
  H    -109.341000   60.832200  -90.000900
  H    -109.390000   60.743000  -91.728100
  C    -110.974000   61.867800  -90.835500
  H    -111.588000   61.877400  -91.717400
  H    -111.636000   61.655500  -89.972500
  H    -110.476000   62.858300  -90.700700
  S    -113.565000   57.439300  -96.001500
  C    -112.726000   56.633400  -97.353900
  C    -111.526000   56.141100  -96.948100
  C    -111.184000   56.562300  -95.638100
  C    -112.220000   57.162900  -94.919800
  H    -110.913000   55.536700  -97.622400
  C    -109.782000   56.113600  -95.083300
  H    -109.548000   55.115700  -95.343300
  H    -109.961000   55.996700  -94.024500
  C    -108.565000   56.962000  -95.400500
  H    -108.714000   57.915000  -94.872800
  H    -108.387000   57.187500  -96.383300
  C    -107.260000   56.425400  -94.738900
  H    -106.583000   57.326200  -94.482000
  H    -106.672000   55.787500  -95.424600
  H    -107.515000   55.997200  -93.744300
  H    -113.479000   58.924200  -90.364600
  H    -112.953000   56.674500  -98.387900

 Total Charge           Charge          ....    0
 Multiplicity           Mult            ....    1
 Number of Electrons    NEL             ....  134
 Basis Dimension        Dim             ....  322

ORBITAL ENERGIES
----------------

  NO   OCC          E(Eh)            E(eV)
   0   2.0000     -88.968075     -2420.9444
   1   2.0000     -88.966246     -2420.8946
   2   2.0000     -10.335678      -281.2481
   3   2.0000     -10.333354      -281.1848
   4   2.0000     -10.316039      -280.7137
   5   2.0000     -10.315454      -280.6978
   6   2.0000     -10.306741      -280.4607
   7   2.0000     -10.303946      -280.3846
   8   2.0000     -10.297538      -280.2103
   9   2.0000     -10.292904      -280.0841
  10   2.0000     -10.292320      -280.0683
  11   2.0000     -10.290842      -280.0280
  12   2.0000     -10.288516      -279.9648
  13   2.0000     -10.288157      -279.9550
  14   2.0000     -10.282205      -279.7930
  15   2.0000     -10.279250      -279.7126
  16   2.0000      -8.082607      -219.9389
  17   2.0000      -8.080599      -219.8843
  18   2.0000      -6.041217      -164.3899
  19   2.0000      -6.039243      -164.3362
  20   2.0000      -6.037284      -164.2828
  21   2.0000      -6.035200      -164.2261
  22   2.0000      -6.033136      -164.1700
  23   2.0000      -6.031190      -164.1170
  24   2.0000      -1.005969       -27.3738
  25   2.0000      -0.983935       -26.7742
  26   2.0000      -0.907487       -24.6940
  27   2.0000      -0.904761       -24.6198
  28   2.0000      -0.872172       -23.7330
  29   2.0000      -0.850798       -23.1514
  30   2.0000      -0.843369       -22.9492
  31   2.0000      -0.817651       -22.2494
  32   2.0000      -0.779837       -21.2204
  33   2.0000      -0.770074       -20.9548
  34   2.0000      -0.711456       -19.3597
  35   2.0000      -0.700781       -19.0692
  36   2.0000      -0.695880       -18.9359
  37   2.0000      -0.664552       -18.0834
  38   2.0000      -0.640193       -17.4205
  39   2.0000      -0.624035       -16.9809
  40   2.0000      -0.594867       -16.1872
  41   2.0000      -0.569841       -15.5062
  42   2.0000      -0.567457       -15.4413
  43   2.0000      -0.549118       -14.9423
  44   2.0000      -0.542151       -14.7527
  45   2.0000      -0.527666       -14.3585
  46   2.0000      -0.514869       -14.0103
  47   2.0000      -0.509001       -13.8506
  48   2.0000      -0.506089       -13.7714
  49   2.0000      -0.499604       -13.5949
  50   2.0000      -0.489396       -13.3171
  51   2.0000      -0.477049       -12.9812
  52   2.0000      -0.470982       -12.8161
  53   2.0000      -0.464908       -12.6508
  54   2.0000      -0.458713       -12.4822
  55   2.0000      -0.452632       -12.3167
  56   2.0000      -0.446237       -12.1427
  57   2.0000      -0.444337       -12.0910
  58   2.0000      -0.434870       -11.8334
  59   2.0000      -0.427305       -11.6276
  60   2.0000      -0.416457       -11.3324
  61   2.0000      -0.412115       -11.2142
  62   2.0000      -0.408522       -11.1164
  63   2.0000      -0.360028        -9.7969
  64   2.0000      -0.334647        -9.1062
  65   2.0000      -0.326867        -8.8945
  66   2.0000      -0.284994        -7.7551
  67   0.0000       0.020438         0.5561
  68   0.0000       0.076273         2.0755
  69   0.0000       0.103242         2.8094
  70   0.0000       0.121326         3.3015
  71   0.0000       0.128257         3.4900

MULLIKEN ATOMIC CHARGES
-----------------------
   0 S :    0.107132
   1 C :   -0.126571
   2 C :   -0.094883
   3 C :    0.052252
   4 C :   -0.119704
   5 H :   -0.042159
   6 C :    0.050624
   7 H :    0.026225
   8 H :    0.009020
   9 C :   -0.026089
  10 H :    0.023033
  11 H :    0.031773
  12 C :   -0.072964
  13 H :    0.043840
  14 H :    0.023317
  15 H :    0.044742
  16 S :    0.089141
  17 C :   -0.072680
  18 C :   -0.025771
  19 C :   -0.061183
  20 C :   -0.118495
  21 H :    0.026981
  22 C :    0.049203
  23 H :    0.009586
  24 H :    0.017931
  25 C :   -0.013720
  26 H :    0.019261
  27 H :    0.009777
  28 C :   -0.102299
  29 H :    0.041022
  30 H :    0.049003
  31 H :    0.040183
  32 H :    0.064359
  33 H :    0.048112
Sum of atomic charges:   -0.0000000

LOEWDIN ATOMIC CHARGES
----------------------
   0 S :    0.400171
   1 C :   -0.211593
   2 C :   -0.063666
   3 C :   -0.052051
   4 C :   -0.180346
   5 H :    0.015104
   6 C :   -0.034675
   7 H :    0.033024
   8 H :    0.029324
   9 C :   -0.028664
  10 H :    0.021939
  11 H :    0.019921
  12 C :   -0.066199
  13 H :    0.023088
  14 H :    0.025202
  15 H :    0.030432
  16 S :    0.389480
  17 C :   -0.169898
  18 C :   -0.067811
  19 C :   -0.057588
  20 C :   -0.192245
  21 H :    0.036638
  22 C :   -0.031658
  23 H :    0.022430
  24 H :    0.027913
  25 C :   -0.035465
  26 H :    0.023244
  27 H :    0.011696
  28 C :   -0.072223
  29 H :    0.035114
  30 H :    0.025678
  31 H :    0.028579
  32 H :    0.037956
  33 H :    0.027148

  Mayer bond orders larger than 0.100000
B(  0-S ,  1-C ) :   1.1331 B(  0-S ,  4-C ) :   1.1476 B(  1-C ,  2-C ) :   1.6081
B(  1-C , 32-H ) :   0.9602 B(  2-C ,  3-C ) :   1.2454 B(  2-C ,  6-C ) :   1.0180
B(  3-C ,  4-C ) :   1.5425 B(  3-C ,  5-H ) :   1.0093 B(  4-C , 20-C ) :   1.0748
B(  6-C ,  7-H ) :   0.9354 B(  6-C ,  8-H ) :   0.9396 B(  6-C ,  9-C ) :   1.0637
B(  9-C , 10-H ) :   0.9538 B(  9-C , 11-H ) :   0.9621 B(  9-C , 12-C ) :   1.0673
B( 12-C , 13-H ) :   0.9795 B( 12-C , 14-H ) :   0.9769 B( 12-C , 15-H ) :   0.9764
B( 16-S , 17-C ) :   1.1382 B( 16-S , 20-C ) :   1.1279 B( 17-C , 18-C ) :   1.6209
B( 17-C , 33-H ) :   0.9692 B( 18-C , 19-C ) :   1.2511 B( 18-C , 21-H ) :   0.9872
B( 19-C , 20-C ) :   1.5967 B( 19-C , 22-C ) :   1.0245 B( 22-C , 23-H ) :   0.9439
B( 22-C , 24-H ) :   0.9336 B( 22-C , 25-C ) :   1.0655 B( 25-C , 26-H ) :   0.9538
B( 25-C , 27-H ) :   0.9545 B( 25-C , 28-C ) :   1.0721 B( 28-C , 29-H ) :   0.9790
B( 28-C , 30-H ) :   0.9771 B( 28-C , 31-H ) :   0.9735

Dispersion correction           -0.014092661
FINAL SINGLE POINT ENERGY     -1339.861509639637

DIPOLE MOMENT
-------------
                                X             Y             Z
Electronic contribution:    -27.18004      -7.55464     -10.06949
Nuclear contribution   :     27.97049       7.71540      10.13479
                        -----------------------------------------
Total Dipole Moment    :      0.79045       0.16076       0.06530
                        -----------------------------------------
Magnitude (a.u.)       :      0.80927
Magnitude (Debye)      :      2.05699

Rotational constants in cm-1:     0.016575     0.009363     0.006645
Rotational constants in MHz :   496.905472   280.695728   199.225733

                             ****ORCA TERMINATED NORMALLY****
TOTAL RUN TIME: 0 days 0 hours 0 minutes 21 seconds 487 msec
