                         Program Version 4.2.1 -  RELEASE  -
|  1> ! wB97X-D3 SP def2-SVP
|  2> %pal
|  3> nprocs 24
|  4> end
|  5>
|  6> * xyz 0 1
|  7> S 	 -106.491 	 54.3525 	 -102.041
|  8> C 	 -108.187 	 54.0679 	 -101.652
|  9> C 	 -108.938 	 55.1408 	 -101.94
| 10> C 	 -108.181 	 56.2695 	 -102.331
| 11> C 	 -106.934 	 55.9044 	 -102.743
| 12> H 	 -108.521 	 57.2909 	 -102.356
| 13> C 	 -110.448 	 55.1269 	 -101.74
| 14> H 	 -110.848 	 56.1745 	 -101.614
| 15> H 	 -110.596 	 54.6951 	 -100.748
| 16> C 	 -111.217 	 54.2756 	 -102.775
| 17> H 	 -111.092 	 54.8958 	 -103.72
| 18> H 	 -110.736 	 53.3522 	 -102.913
| 19> C 	 -112.688 	 54 	 -102.47
| 20> H 	 -112.695 	 53.6878 	 -101.446
| 21> H 	 -113.399 	 54.8594 	 -102.543
| 22> H 	 -113.018 	 53.0344 	 -103.016
| 23> S 	 -105.129 	 57.4533 	 -101.36
| 24> C 	 -104.396 	 58.7511 	 -102.135
| 25> C 	 -104.707 	 58.7936 	 -103.484
| 26> C 	 -105.719 	 57.8526 	 -103.915
| 27> C 	 -105.923 	 56.9739 	 -102.857
| 28> H 	 -104.177 	 59.6156 	 -104.031
| 29> C 	 -106.338 	 57.7152 	 -105.342
| 30> H 	 -106.626 	 56.7254 	 -105.576
| 31> H 	 -105.499 	 58.0009 	 -105.948
| 32> C 	 -107.355 	 58.7971 	 -105.704
| 33> H 	 -107.549 	 58.6219 	 -106.698
| 34> H 	 -106.769 	 59.7632 	 -105.624
| 35> C 	 -108.576 	 58.8055 	 -104.777
| 36> H 	 -109.132 	 57.8284 	 -104.696
| 37> H 	 -109.27 	 59.5546 	 -105.292
| 38> H 	 -108.283 	 59.0557 	 -103.783
| 39> H 	 -108.431 	 53.0695 	 -101.361
| 40> H 	 -103.601 	 59.3673 	 -101.697
| 41> *
| 42>
| 43>                          ****END OF INPUT****

CARTESIAN COORDINATES (ANGSTROEM)
---------------------------------
  S    -106.491000   54.352500  -102.041000
  C    -108.187000   54.067900  -101.652000
  C    -108.938000   55.140800  -101.940000
  C    -108.181000   56.269500  -102.331000
  C    -106.934000   55.904400  -102.743000
  H    -108.521000   57.290900  -102.356000
  C    -110.448000   55.126900  -101.740000
  H    -110.848000   56.174500  -101.614000
  H    -110.596000   54.695100  -100.748000
  C    -111.217000   54.275600  -102.775000
  H    -111.092000   54.895800  -103.720000
  H    -110.736000   53.352200  -102.913000
  C    -112.688000   54.000000  -102.470000
  H    -112.695000   53.687800  -101.446000
  H    -113.399000   54.859400  -102.543000
  H    -113.018000   53.034400  -103.016000
  S    -105.129000   57.453300  -101.360000
  C    -104.396000   58.751100  -102.135000
  C    -104.707000   58.793600  -103.484000
  C    -105.719000   57.852600  -103.915000
  C    -105.923000   56.973900  -102.857000
  H    -104.177000   59.615600  -104.031000
  C    -106.338000   57.715200  -105.342000
  H    -106.626000   56.725400  -105.576000
  H    -105.499000   58.000900  -105.948000
  C    -107.355000   58.797100  -105.704000
  H    -107.549000   58.621900  -106.698000
  H    -106.769000   59.763200  -105.624000
  C    -108.576000   58.805500  -104.777000
  H    -109.132000   57.828400  -104.696000
  H    -109.270000   59.554600  -105.292000
  H    -108.283000   59.055700  -103.783000
  H    -108.431000   53.069500  -101.361000
  H    -103.601000   59.367300  -101.697000

 Total Charge           Charge          ....    0
 Multiplicity           Mult            ....    1
 Number of Electrons    NEL             ....  134
 Basis Dimension        Dim             ....  322

ORBITAL ENERGIES
----------------

  NO   OCC          E(Eh)            E(eV)
   0   2.0000     -88.962022     -2420.7797
   1   2.0000     -88.960334     -2420.7338
   2   2.0000     -10.321319      -280.8574
   3   2.0000     -10.319566      -280.8097
   4   2.0000     -10.312263      -280.6109
   5   2.0000     -10.307977      -280.4943
   6   2.0000     -10.305503      -280.4270
   7   2.0000     -10.298071      -280.2248
   8   2.0000     -10.295397      -280.1520
   9   2.0000     -10.294553      -280.1290
  10   2.0000     -10.293504      -280.1005
  11   2.0000     -10.289028      -279.9787
  12   2.0000     -10.287265      -279.9307
  13   2.0000     -10.287235      -279.9299
  14   2.0000     -10.283861      -279.8381
  15   2.0000     -10.282659      -279.8054
  16   2.0000      -8.076951      -219.7850
  17   2.0000      -8.076348      -219.7686
  18   2.0000      -6.035438      -164.2326
  19   2.0000      -6.034657      -164.2114
  20   2.0000      -6.031627      -164.1289
  21   2.0000      -6.030727      -164.1044
  22   2.0000      -6.027517      -164.0171
  23   2.0000      -6.027191      -164.0082
  24   2.0000      -1.011583       -27.5266
  25   2.0000      -0.987504       -26.8714
  26   2.0000      -0.911140       -24.7934
  27   2.0000      -0.910283       -24.7701
  28   2.0000      -0.868609       -23.6361
  29   2.0000      -0.850668       -23.1479
  30   2.0000      -0.845007       -22.9938
  31   2.0000      -0.810143       -22.0451
  32   2.0000      -0.785415       -21.3722
  33   2.0000      -0.771210       -20.9857
  34   2.0000      -0.702491       -19.1158
  35   2.0000      -0.699468       -19.0335
  36   2.0000      -0.689799       -18.7704
  37   2.0000      -0.652379       -17.7521
  38   2.0000      -0.644625       -17.5411
  39   2.0000      -0.615689       -16.7538
  40   2.0000      -0.594233       -16.1699
  41   2.0000      -0.571298       -15.5458
  42   2.0000      -0.556279       -15.1371
  43   2.0000      -0.552358       -15.0304
  44   2.0000      -0.541118       -14.7246
  45   2.0000      -0.526377       -14.3235
  46   2.0000      -0.517796       -14.0899
  47   2.0000      -0.510495       -13.8913
  48   2.0000      -0.507267       -13.8034
  49   2.0000      -0.496470       -13.5096
  50   2.0000      -0.490022       -13.3342
  51   2.0000      -0.476311       -12.9611
  52   2.0000      -0.473455       -12.8834
  53   2.0000      -0.463845       -12.6219
  54   2.0000      -0.454696       -12.3729
  55   2.0000      -0.453076       -12.3288
  56   2.0000      -0.440218       -11.9790
  57   2.0000      -0.431941       -11.7537
  58   2.0000      -0.426527       -11.6064
  59   2.0000      -0.424048       -11.5389
  60   2.0000      -0.421377       -11.4663
  61   2.0000      -0.416551       -11.3349
  62   2.0000      -0.413836       -11.2610
  63   2.0000      -0.339216        -9.2305
  64   2.0000      -0.327209        -8.9038
  65   2.0000      -0.323498        -8.8028
  66   2.0000      -0.302380        -8.2282
  67   0.0000       0.035747         0.9727
  68   0.0000       0.062445         1.6992
  69   0.0000       0.111296         3.0285
  70   0.0000       0.124838         3.3970
  71   0.0000       0.128182         3.4880

MULLIKEN ATOMIC CHARGES
-----------------------
   0 S :    0.081728
   1 C :   -0.124488
   2 C :   -0.053097
   3 C :    0.030192
   4 C :   -0.140955
   5 H :    0.018726
   6 C :    0.046164
   7 H :    0.028750
   8 H :    0.019077
   9 C :   -0.064836
  10 H :    0.037146
  11 H :    0.018187
  12 C :   -0.052057
  13 H :    0.013159
  14 H :    0.049893
  15 H :    0.047678
  16 S :    0.123184
  17 C :   -0.106950
  18 C :   -0.065202
  19 C :   -0.055205
  20 C :   -0.188969
  21 H :    0.028897
  22 C :    0.100607
  23 H :    0.028218
  24 H :    0.015739
  25 C :   -0.054236
  26 H :    0.015528
  27 H :    0.033413
  28 C :   -0.077810
  29 H :    0.041998
  30 H :    0.045829
  31 H :    0.049609
  32 H :    0.047618
  33 H :    0.062464
Sum of atomic charges:   -0.0000000

LOEWDIN ATOMIC CHARGES
----------------------
   0 S :    0.386686
   1 C :   -0.169535
   2 C :   -0.068437
   3 C :   -0.037659
   4 C :   -0.202555
   5 H :    0.033107
   6 C :   -0.036324
   7 H :    0.032185
   8 H :    0.025472
   9 C :   -0.041853
  10 H :    0.030981
  11 H :    0.017577
  12 C :   -0.074361
  13 H :    0.019060
  14 H :    0.031262
  15 H :    0.040601
  16 S :    0.423710
  17 C :   -0.219386
  18 C :   -0.085877
  19 C :   -0.055990
  20 C :   -0.199579
  21 H :    0.035186
  22 C :   -0.019134
  23 H :    0.024020
  24 H :    0.032515
  25 C :   -0.033866
  26 H :    0.013191
  27 H :    0.032178
  28 C :   -0.071259
  29 H :    0.028394
  30 H :    0.036156
  31 H :    0.019046
  32 H :    0.021123
  33 H :    0.033365

  Mayer bond orders larger than 0.100000
B(  0-S ,  1-C ) :   1.1364 B(  0-S ,  4-C ) :   1.1475 B(  1-C ,  2-C ) :   1.6199
B(  1-C , 32-H ) :   0.9754 B(  2-C ,  3-C ) :   1.2256 B(  2-C ,  6-C ) :   1.0110
B(  3-C ,  4-C ) :   1.5773 B(  3-C ,  5-H ) :   0.9944 B(  4-C , 20-C ) :   0.9935
B(  6-C ,  7-H ) :   0.9466 B(  6-C ,  8-H ) :   0.9371 B(  6-C ,  9-C ) :   1.0592
B(  9-C , 10-H ) :   0.9533 B(  9-C , 11-H ) :   0.9580 B(  9-C , 12-C ) :   1.0793
B( 12-C , 13-H ) :   0.9703 B( 12-C , 14-H ) :   0.9750 B( 12-C , 15-H ) :   0.9738
B( 16-S , 17-C ) :   1.1613 B( 16-S , 20-C ) :   1.1576 B( 17-C , 18-C ) :   1.6382
B( 17-C , 33-H ) :   0.9603 B( 18-C , 19-C ) :   1.2136 B( 18-C , 21-H ) :   0.9806
B( 19-C , 20-C ) :   1.6190 B( 19-C , 22-C ) :   1.0240 B( 22-C , 23-H ) :   0.9444
B( 22-C , 24-H ) :   0.9323 B( 22-C , 25-C ) :   1.0742 B( 25-C , 26-H ) :   0.9559
B( 25-C , 27-H ) :   0.9559 B( 25-C , 28-C ) :   1.0715 B( 28-C , 29-H ) :   0.9723
B( 28-C , 30-H ) :   0.9704 B( 28-C , 31-H ) :   0.9676

Dispersion correction           -0.014979539
FINAL SINGLE POINT ENERGY     -1339.852769625468

DIPOLE MOMENT
-------------
                                X             Y             Z
Electronic contribution:     25.15241      -3.51648      11.90946
Nuclear contribution   :    -25.63309       3.67437     -12.05746
                        -----------------------------------------
Total Dipole Moment    :     -0.48068       0.15790      -0.14799
                        -----------------------------------------
Magnitude (a.u.)       :      0.52715
Magnitude (Debye)      :      1.33990

Rotational constants in cm-1:     0.020530     0.008726     0.006875
Rotational constants in MHz :   615.459540   261.589611   206.108813

                             ****ORCA TERMINATED NORMALLY****
TOTAL RUN TIME: 0 days 0 hours 0 minutes 23 seconds 361 msec
