                         Program Version 4.2.1 -  RELEASE  -
|  1> ! wB97X-D3 SP def2-SVP
|  2> %pal
|  3> nprocs 24
|  4> end
|  5>
|  6> * xyz 0 1
|  7> S 	 -69.3127 	 -0.474042 	 -106.79
|  8> C 	 -69.7619 	 0.22117 	 -105.251
|  9> C 	 -69.0154 	 1.36561 	 -104.902
| 10> C 	 -68.1149 	 1.74876 	 -105.971
| 11> C 	 -68.0996 	 0.83816 	 -107.014
| 12> H 	 -67.4716 	 2.63821 	 -105.899
| 13> C 	 -69.1832 	 2.05847 	 -103.541
| 14> H 	 -68.4032 	 2.76087 	 -103.561
| 15> H 	 -68.8827 	 1.32522 	 -102.862
| 16> C 	 -70.5594 	 2.62973 	 -103.217
| 17> H 	 -70.8941 	 3.34362 	 -103.941
| 18> H 	 -71.2787 	 1.80271 	 -103.337
| 19> C 	 -70.685 	 3.13544 	 -101.806
| 20> H 	 -71.7194 	 3.47473 	 -101.822
| 21> H 	 -70.5426 	 2.4179 	 -101.045
| 22> H 	 -70.0495 	 4.00665 	 -101.563
| 23> S 	 -68.0647 	 0.352526 	 -109.705
| 24> C 	 -66.6131 	 0.778258 	 -110.628
| 25> C 	 -65.5408 	 0.934844 	 -109.793
| 26> C 	 -65.8956 	 0.901108 	 -108.379
| 27> C 	 -67.2683 	 0.819648 	 -108.183
| 28> H 	 -64.5735 	 1.18016 	 -110.229
| 29> C 	 -64.8472 	 1.30917 	 -107.372
| 30> H 	 -65.3347 	 1.8863 	 -106.605
| 31> H 	 -64.134 	 1.91606 	 -107.903
| 32> C 	 -64.0005 	 0.167172 	 -106.726
| 33> H 	 -63.8902 	 -0.666902 	 -107.457
| 34> H 	 -64.6998 	 -0.294976 	 -106.025
| 35> C 	 -62.6297 	 0.657755 	 -106.111
| 36> H 	 -62.7281 	 1.50055 	 -105.36
| 37> H 	 -61.843 	 0.937343 	 -106.848
| 38> H 	 -62.108 	 -0.12817 	 -105.598
| 39> H 	 -70.5427 	 -0.240431 	 -104.704
| 40> H 	 -66.5046 	 0.633168 	 -111.724
| 41> *
| 42>
| 43>                          ****END OF INPUT****

CARTESIAN COORDINATES (ANGSTROEM)
---------------------------------
  S    -69.312700   -0.474042  -106.790000
  C    -69.761900    0.221170  -105.251000
  C    -69.015400    1.365610  -104.902000
  C    -68.114900    1.748760  -105.971000
  C    -68.099600    0.838160  -107.014000
  H    -67.471600    2.638210  -105.899000
  C    -69.183200    2.058470  -103.541000
  H    -68.403200    2.760870  -103.561000
  H    -68.882700    1.325220  -102.862000
  C    -70.559400    2.629730  -103.217000
  H    -70.894100    3.343620  -103.941000
  H    -71.278700    1.802710  -103.337000
  C    -70.685000    3.135440  -101.806000
  H    -71.719400    3.474730  -101.822000
  H    -70.542600    2.417900  -101.045000
  H    -70.049500    4.006650  -101.563000
  S    -68.064700    0.352526  -109.705000
  C    -66.613100    0.778258  -110.628000
  C    -65.540800    0.934844  -109.793000
  C    -65.895600    0.901108  -108.379000
  C    -67.268300    0.819648  -108.183000
  H    -64.573500    1.180160  -110.229000
  C    -64.847200    1.309170  -107.372000
  H    -65.334700    1.886300  -106.605000
  H    -64.134000    1.916060  -107.903000
  C    -64.000500    0.167172  -106.726000
  H    -63.890200   -0.666902  -107.457000
  H    -64.699800   -0.294976  -106.025000
  C    -62.629700    0.657755  -106.111000
  H    -62.728100    1.500550  -105.360000
  H    -61.843000    0.937343  -106.848000
  H    -62.108000   -0.128170  -105.598000
  H    -70.542700   -0.240431  -104.704000
  H    -66.504600    0.633168  -111.724000

 Total Charge           Charge          ....    0
 Multiplicity           Mult            ....    1
 Number of Electrons    NEL             ....  134
 Basis Dimension        Dim             ....  322

ORBITAL ENERGIES
----------------

  NO   OCC          E(Eh)            E(eV)
   0   2.0000     -88.966718     -2420.9075
   1   2.0000     -88.960307     -2420.7330
   2   2.0000     -10.332770      -281.1690
   3   2.0000     -10.327731      -281.0318
   4   2.0000     -10.319160      -280.7986
   5   2.0000     -10.312589      -280.6198
   6   2.0000     -10.306149      -280.4446
   7   2.0000     -10.305436      -280.4252
   8   2.0000     -10.302155      -280.3359
   9   2.0000     -10.295277      -280.1487
  10   2.0000     -10.292794      -280.0812
  11   2.0000     -10.288802      -279.9725
  12   2.0000     -10.287183      -279.9285
  13   2.0000     -10.286234      -279.9027
  14   2.0000     -10.283457      -279.8271
  15   2.0000     -10.276069      -279.6260
  16   2.0000      -8.080797      -219.8897
  17   2.0000      -8.074709      -219.7240
  18   2.0000      -6.039238      -164.3360
  19   2.0000      -6.035507      -164.2345
  20   2.0000      -6.033395      -164.1770
  21   2.0000      -6.031568      -164.1273
  22   2.0000      -6.029432      -164.0692
  23   2.0000      -6.025128      -163.9521
  24   2.0000      -1.000548       -27.2263
  25   2.0000      -0.975509       -26.5450
  26   2.0000      -0.915128       -24.9019
  27   2.0000      -0.900219       -24.4962
  28   2.0000      -0.870291       -23.6818
  29   2.0000      -0.852641       -23.2016
  30   2.0000      -0.840381       -22.8679
  31   2.0000      -0.816475       -22.2174
  32   2.0000      -0.781738       -21.2722
  33   2.0000      -0.768491       -20.9117
  34   2.0000      -0.709150       -19.2969
  35   2.0000      -0.707205       -19.2440
  36   2.0000      -0.691778       -18.8242
  37   2.0000      -0.661850       -18.0098
  38   2.0000      -0.641027       -17.4432
  39   2.0000      -0.619824       -16.8663
  40   2.0000      -0.590168       -16.0593
  41   2.0000      -0.569255       -15.4902
  42   2.0000      -0.561026       -15.2663
  43   2.0000      -0.550939       -14.9918
  44   2.0000      -0.535220       -14.5641
  45   2.0000      -0.518161       -14.0999
  46   2.0000      -0.516035       -14.0420
  47   2.0000      -0.510442       -13.8898
  48   2.0000      -0.508176       -13.8282
  49   2.0000      -0.497312       -13.5325
  50   2.0000      -0.491638       -13.3781
  51   2.0000      -0.475834       -12.9481
  52   2.0000      -0.473214       -12.8768
  53   2.0000      -0.462789       -12.5931
  54   2.0000      -0.456658       -12.4263
  55   2.0000      -0.454241       -12.3605
  56   2.0000      -0.449531       -12.2323
  57   2.0000      -0.439654       -11.9636
  58   2.0000      -0.432206       -11.7609
  59   2.0000      -0.422660       -11.5012
  60   2.0000      -0.421787       -11.4774
  61   2.0000      -0.415671       -11.3110
  62   2.0000      -0.410432       -11.1684
  63   2.0000      -0.350206        -9.5296
  64   2.0000      -0.331718        -9.0265
  65   2.0000      -0.324461        -8.8290
  66   2.0000      -0.285975        -7.7818
  67   0.0000       0.023548         0.6408
  68   0.0000       0.065332         1.7778
  69   0.0000       0.098255         2.6737
  70   0.0000       0.118983         3.2377
  71   0.0000       0.133415         3.6304

MULLIKEN ATOMIC CHARGES
-----------------------
   0 S :    0.103271
   1 C :   -0.124643
   2 C :   -0.129531
   3 C :    0.014221
   4 C :   -0.132581
   5 H :    0.031404
   6 C :    0.150082
   7 H :   -0.010546
   8 H :    0.018272
   9 C :   -0.079149
  10 H :    0.029231
  11 H :    0.020807
  12 C :   -0.022930
  13 H :    0.031327
  14 H :    0.025943
  15 H :    0.033843
  16 S :    0.076511
  17 C :   -0.091212
  18 C :   -0.046847
  19 C :   -0.015968
  20 C :   -0.157618
  21 H :    0.027969
  22 C :    0.075836
  23 H :    0.013120
  24 H :    0.013741
  25 C :   -0.079570
  26 H :    0.033070
  27 H :    0.033817
  28 C :   -0.065209
  29 H :    0.043752
  30 H :    0.037481
  31 H :    0.029288
  32 H :    0.041231
  33 H :    0.071587
Sum of atomic charges:   -0.0000000

LOEWDIN ATOMIC CHARGES
----------------------
   0 S :    0.385438
   1 C :   -0.192082
   2 C :   -0.055585
   3 C :   -0.064125
   4 C :   -0.177303
   5 H :    0.036550
   6 C :   -0.025087
   7 H :    0.019260
   8 H :    0.028067
   9 C :   -0.036773
  10 H :    0.025215
  11 H :    0.026006
  12 C :   -0.060517
  13 H :    0.032372
  14 H :    0.018771
  15 H :    0.027194
  16 S :    0.369654
  17 C :   -0.180116
  18 C :   -0.071190
  19 C :   -0.051754
  20 C :   -0.186043
  21 H :    0.033395
  22 C :   -0.029255
  23 H :    0.024857
  24 H :    0.025790
  25 C :   -0.042163
  26 H :    0.027726
  27 H :    0.026900
  28 C :   -0.076752
  29 H :    0.032543
  30 H :    0.030313
  31 H :    0.024626
  32 H :    0.015722
  33 H :    0.038350

  Mayer bond orders larger than 0.100000
B(  0-S ,  1-C ) :   1.1422 B(  0-S ,  4-C ) :   1.1341 B(  1-C ,  2-C ) :   1.5981
B(  1-C , 32-H ) :   0.9759 B(  2-C ,  3-C ) :   1.2486 B(  2-C ,  6-C ) :   1.0020
B(  3-C ,  4-C ) :   1.5829 B(  3-C ,  5-H ) :   0.9827 B(  4-C , 20-C ) :   1.0759
B(  6-C ,  7-H ) :   0.9310 B(  6-C ,  8-H ) :   0.9321 B(  6-C ,  9-C ) :   1.0679
B(  9-C , 10-H ) :   0.9566 B(  9-C , 11-H ) :   0.9523 B(  9-C , 12-C ) :   1.0874
B( 12-C , 13-H ) :   0.9723 B( 12-C , 14-H ) :   0.9743 B( 12-C , 15-H ) :   0.9742
B( 16-S , 17-C ) :   1.1284 B( 16-S , 20-C ) :   1.1131 B( 17-C , 18-C ) :   1.6610
B( 17-C , 33-H ) :   0.9599 B( 18-C , 19-C ) :   1.1951 B( 18-C , 21-H ) :   0.9844
B( 19-C , 20-C ) :   1.6004 B( 19-C , 22-C ) :   1.0450 B( 22-C , 23-H ) :   0.9391
B( 22-C , 24-H ) :   0.9435 B( 22-C , 25-C ) :   1.0422 B( 25-C , 26-H ) :   0.9616
B( 25-C , 27-H ) :   0.9577 B( 25-C , 28-C ) :   1.0648 B( 28-C , 29-H ) :   0.9766
B( 28-C , 30-H ) :   0.9742 B( 28-C , 31-H ) :   0.9753

Dispersion correction           -0.013304030
FINAL SINGLE POINT ENERGY     -1339.872027074922

DIPOLE MOMENT
-------------
                                X             Y             Z
Electronic contribution:    -10.73562     -10.60411     -23.29603
Nuclear contribution   :     11.12450      10.88798      23.79019
                        -----------------------------------------
Total Dipole Moment    :      0.38888       0.28388       0.49416
                        -----------------------------------------
Magnitude (a.u.)       :      0.68993
Magnitude (Debye)      :      1.75367

Rotational constants in cm-1:     0.018611     0.007550     0.005925
Rotational constants in MHz :   557.935202   226.341094   177.616584

                             ****ORCA TERMINATED NORMALLY****
TOTAL RUN TIME: 0 days 0 hours 0 minutes 20 seconds 705 msec
