                         Program Version 4.2.1 -  RELEASE  -
|  1> ! wB97X-D3 SP def2-SVP
|  2> %pal
|  3> nprocs 24
|  4> end
|  5>
|  6> * xyz 0 1
|  7> S 	 -95.0078 	 -25.3781 	 -67.2264
|  8> C 	 -96.125 	 -23.9353 	 -67.1769
|  9> C 	 -97.3807 	 -24.3953 	 -66.9021
| 10> C 	 -97.4065 	 -25.7272 	 -66.3681
| 11> C 	 -96.206 	 -26.4302 	 -66.5431
| 12> H 	 -98.2374 	 -26.3285 	 -65.9884
| 13> C 	 -98.7266 	 -23.5389 	 -66.7423
| 14> H 	 -99.5056 	 -24.187 	 -67.1274
| 15> H 	 -98.7811 	 -22.74 	 -67.5233
| 16> C 	 -99.0741 	 -22.9441 	 -65.3328
| 17> H 	 -98.5592 	 -22.009 	 -65.1188
| 18> H 	 -100.141 	 -22.7439 	 -65.2467
| 19> C 	 -98.5559 	 -23.8857 	 -64.1883
| 20> H 	 -99.005 	 -23.6511 	 -63.2397
| 21> H 	 -98.886 	 -24.925 	 -64.2293
| 22> H 	 -97.4281 	 -23.8155 	 -64.1357
| 23> S 	 -94.8827 	 -28.7732 	 -66.9156
| 24> C 	 -94.9261 	 -30.0482 	 -65.7264
| 25> C 	 -95.5505 	 -29.5852 	 -64.5609
| 26> C 	 -96.1335 	 -28.2592 	 -64.6944
| 27> C 	 -95.8785 	 -27.7135 	 -65.9264
| 28> H 	 -95.64 	 -30.2901 	 -63.696
| 29> C 	 -96.8691 	 -27.5713 	 -63.5377
| 30> H 	 -97.1778 	 -26.5935 	 -63.9553
| 31> H 	 -96.0646 	 -27.3387 	 -62.8116
| 32> C 	 -98.0197 	 -28.4294 	 -62.918
| 33> H 	 -97.6147 	 -29.3328 	 -62.4484
| 34> H 	 -98.6213 	 -28.8744 	 -63.7387
| 35> C 	 -98.843 	 -27.6656 	 -61.8705
| 36> H 	 -99.244 	 -28.4636 	 -61.2621
| 37> H 	 -99.6205 	 -27.1625 	 -62.4237
| 38> H 	 -98.3423 	 -26.8482 	 -61.2979
| 39> H 	 -95.8658 	 -22.9438 	 -67.4003
| 40> H 	 -94.6051 	 -31.0517 	 -65.8076
| 41> *
| 42>
| 43>                          ****END OF INPUT****

CARTESIAN COORDINATES (ANGSTROEM)
---------------------------------
  S    -95.007800  -25.378100  -67.226400
  C    -96.125000  -23.935300  -67.176900
  C    -97.380700  -24.395300  -66.902100
  C    -97.406500  -25.727200  -66.368100
  C    -96.206000  -26.430200  -66.543100
  H    -98.237400  -26.328500  -65.988400
  C    -98.726600  -23.538900  -66.742300
  H    -99.505600  -24.187000  -67.127400
  H    -98.781100  -22.740000  -67.523300
  C    -99.074100  -22.944100  -65.332800
  H    -98.559200  -22.009000  -65.118800
  H    -100.141000  -22.743900  -65.246700
  C    -98.555900  -23.885700  -64.188300
  H    -99.005000  -23.651100  -63.239700
  H    -98.886000  -24.925000  -64.229300
  H    -97.428100  -23.815500  -64.135700
  S    -94.882700  -28.773200  -66.915600
  C    -94.926100  -30.048200  -65.726400
  C    -95.550500  -29.585200  -64.560900
  C    -96.133500  -28.259200  -64.694400
  C    -95.878500  -27.713500  -65.926400
  H    -95.640000  -30.290100  -63.696000
  C    -96.869100  -27.571300  -63.537700
  H    -97.177800  -26.593500  -63.955300
  H    -96.064600  -27.338700  -62.811600
  C    -98.019700  -28.429400  -62.918000
  H    -97.614700  -29.332800  -62.448400
  H    -98.621300  -28.874400  -63.738700
  C    -98.843000  -27.665600  -61.870500
  H    -99.244000  -28.463600  -61.262100
  H    -99.620500  -27.162500  -62.423700
  H    -98.342300  -26.848200  -61.297900
  H    -95.865800  -22.943800  -67.400300
  H    -94.605100  -31.051700  -65.807600

 Total Charge           Charge          ....    0
 Multiplicity           Mult            ....    1
 Number of Electrons    NEL             ....  134
 Basis Dimension        Dim             ....  322

ORBITAL ENERGIES
----------------

  NO   OCC          E(Eh)            E(eV)
   0   2.0000     -88.965526     -2420.8750
   1   2.0000     -88.963129     -2420.8098
   2   2.0000     -10.330674      -281.1119
   3   2.0000     -10.327113      -281.0150
   4   2.0000     -10.319561      -280.8095
   5   2.0000     -10.317087      -280.7422
   6   2.0000     -10.309935      -280.5476
   7   2.0000     -10.305857      -280.4366
   8   2.0000     -10.303043      -280.3601
   9   2.0000     -10.299946      -280.2758
  10   2.0000     -10.296290      -280.1763
  11   2.0000     -10.296102      -280.1712
  12   2.0000     -10.295937      -280.1667
  13   2.0000     -10.293449      -280.0990
  14   2.0000     -10.281352      -279.7698
  15   2.0000     -10.281103      -279.7630
  16   2.0000      -8.079512      -219.8547
  17   2.0000      -8.078008      -219.8138
  18   2.0000      -6.038269      -164.3096
  19   2.0000      -6.036636      -164.2652
  20   2.0000      -6.034114      -164.1966
  21   2.0000      -6.032407      -164.1501
  22   2.0000      -6.030033      -164.0855
  23   2.0000      -6.028736      -164.0502
  24   2.0000      -1.004214       -27.3260
  25   2.0000      -0.979114       -26.6430
  26   2.0000      -0.904233       -24.6054
  27   2.0000      -0.900158       -24.4946
  28   2.0000      -0.867876       -23.6161
  29   2.0000      -0.851077       -23.1590
  30   2.0000      -0.834663       -22.7123
  31   2.0000      -0.811846       -22.0915
  32   2.0000      -0.783251       -21.3133
  33   2.0000      -0.774032       -21.0625
  34   2.0000      -0.706267       -19.2185
  35   2.0000      -0.702928       -19.1276
  36   2.0000      -0.699229       -19.0270
  37   2.0000      -0.657408       -17.8890
  38   2.0000      -0.643022       -17.4975
  39   2.0000      -0.608656       -16.5624
  40   2.0000      -0.587509       -15.9869
  41   2.0000      -0.568028       -15.4568
  42   2.0000      -0.561023       -15.2662
  43   2.0000      -0.546912       -14.8822
  44   2.0000      -0.537541       -14.6272
  45   2.0000      -0.533485       -14.5169
  46   2.0000      -0.518497       -14.1090
  47   2.0000      -0.508770       -13.8443
  48   2.0000      -0.505660       -13.7597
  49   2.0000      -0.499933       -13.6039
  50   2.0000      -0.489793       -13.3280
  51   2.0000      -0.477638       -12.9972
  52   2.0000      -0.475919       -12.9504
  53   2.0000      -0.458217       -12.4687
  54   2.0000      -0.457465       -12.4483
  55   2.0000      -0.446001       -12.1363
  56   2.0000      -0.441726       -12.0200
  57   2.0000      -0.437054       -11.8928
  58   2.0000      -0.431821       -11.7505
  59   2.0000      -0.420812       -11.4509
  60   2.0000      -0.415933       -11.3181
  61   2.0000      -0.412798       -11.2328
  62   2.0000      -0.408589       -11.1183
  63   2.0000      -0.353380        -9.6160
  64   2.0000      -0.330652        -8.9975
  65   2.0000      -0.327678        -8.9166
  66   2.0000      -0.290274        -7.8988
  67   0.0000       0.029480         0.8022
  68   0.0000       0.065737         1.7888
  69   0.0000       0.101221         2.7544
  70   0.0000       0.117351         3.1933
  71   0.0000       0.126195         3.4339

MULLIKEN ATOMIC CHARGES
-----------------------
   0 S :    0.093002
   1 C :   -0.114938
   2 C :   -0.057039
   3 C :   -0.030301
   4 C :   -0.105493
   5 H :    0.033486
   6 C :    0.039863
   7 H :    0.029983
   8 H :    0.026490
   9 C :   -0.037210
  10 H :    0.034050
  11 H :    0.035734
  12 C :   -0.091666
  13 H :    0.020044
  14 H :    0.024858
  15 H :    0.066830
  16 S :    0.096743
  17 C :   -0.071366
  18 C :   -0.068930
  19 C :   -0.056940
  20 C :   -0.158356
  21 H :    0.037366
  22 C :    0.081375
  23 H :    0.010739
  24 H :    0.044397
  25 C :   -0.115452
  26 H :    0.026407
  27 H :    0.038437
  28 C :   -0.026572
  29 H :    0.037592
  30 H :    0.029908
  31 H :    0.046689
  32 H :    0.035020
  33 H :    0.045251
Sum of atomic charges:   -0.0000000

LOEWDIN ATOMIC CHARGES
----------------------
   0 S :    0.380069
   1 C :   -0.162576
   2 C :   -0.059844
   3 C :   -0.070293
   4 C :   -0.197539
   5 H :    0.034005
   6 C :   -0.035421
   7 H :    0.030352
   8 H :    0.030428
   9 C :   -0.035075
  10 H :    0.026524
  11 H :    0.026502
  12 C :   -0.074808
  13 H :    0.021108
  14 H :    0.018154
  15 H :    0.038096
  16 S :    0.398347
  17 C :   -0.181985
  18 C :   -0.076310
  19 C :   -0.057806
  20 C :   -0.195388
  21 H :    0.036809
  22 C :   -0.033998
  23 H :    0.029655
  24 H :    0.038905
  25 C :   -0.044006
  26 H :    0.019967
  27 H :    0.029618
  28 C :   -0.066439
  29 H :    0.029173
  30 H :    0.023795
  31 H :    0.033477
  32 H :    0.021392
  33 H :    0.025110

  Mayer bond orders larger than 0.100000
B(  0-S ,  1-C ) :   1.1145 B(  0-S ,  4-C ) :   1.1441 B(  1-C ,  2-C ) :   1.6257
B(  1-C , 32-H ) :   0.9834 B(  2-C ,  3-C ) :   1.1970 B(  2-C ,  6-C ) :   1.0210
B(  3-C ,  4-C ) :   1.5922 B(  3-C ,  5-H ) :   0.9904 B(  4-C , 20-C ) :   1.0247
B(  6-C ,  7-H ) :   0.9440 B(  6-C ,  8-H ) :   0.9490 B(  6-C ,  9-C ) :   1.0539
B(  9-C , 10-H ) :   0.9594 B(  9-C , 11-H ) :   0.9574 B(  9-C , 12-C ) :   1.0887
B( 12-C , 13-H ) :   0.9684 B( 12-C , 14-H ) :   0.9670 B( 12-C , 15-H ) :   0.9668
B( 16-S , 17-C ) :   1.1503 B( 16-S , 20-C ) :   1.1227 B( 17-C , 18-C ) :   1.6292
B( 17-C , 33-H ) :   0.9724 B( 18-C , 19-C ) :   1.2125 B( 18-C , 21-H ) :   0.9804
B( 19-C , 20-C ) :   1.6249 B( 19-C , 22-C ) :   1.0332 B( 22-C , 23-H ) :   0.9380
B( 22-C , 24-H ) :   0.9254 B( 22-C , 25-C ) :   1.0462 B( 25-C , 26-H ) :   0.9592
B( 25-C , 27-H ) :   0.9598 B( 25-C , 28-C ) :   1.0677 B( 28-C , 29-H ) :   0.9762
B( 28-C , 30-H ) :   0.9762 B( 28-C , 31-H ) :   0.9760

Dispersion correction           -0.015804523
FINAL SINGLE POINT ENERGY     -1339.863542223133

DIPOLE MOMENT
-------------
                                X             Y             Z
Electronic contribution:     22.07454      -8.38100     -21.36403
Nuclear contribution   :    -22.69776       8.51387      21.97558
                        -----------------------------------------
Total Dipole Moment    :     -0.62322       0.13286       0.61156
                        -----------------------------------------
Magnitude (a.u.)       :      0.88321
Magnitude (Debye)      :      2.24494

Rotational constants in cm-1:     0.016383     0.011110     0.007009
Rotational constants in MHz :   491.154534   333.080108   210.113731

                             ****ORCA TERMINATED NORMALLY****
TOTAL RUN TIME: 0 days 0 hours 0 minutes 22 seconds 778 msec
