                         Program Version 4.2.1 -  RELEASE  -
|  1> ! wB97X-D3 SP def2-SVP
|  2> %pal
|  3> nprocs 24
|  4> end
|  5>
|  6> * xyz 0 1
|  7> S 	 -47.3295 	 -3.84105 	 20.7448
|  8> C 	 -47.2457 	 -2.81738 	 19.2518
|  9> C 	 -46.5229 	 -3.46802 	 18.2804
| 10> C 	 -45.8629 	 -4.62092 	 18.7881
| 11> C 	 -46.1125 	 -4.87766 	 20.1396
| 12> H 	 -45.3289 	 -5.35482 	 18.2113
| 13> C 	 -46.6017 	 -2.93896 	 16.8413
| 14> H 	 -46.4755 	 -3.88336 	 16.2207
| 15> H 	 -45.7649 	 -2.34411 	 16.7289
| 16> C 	 -47.8926 	 -2.21328 	 16.242
| 17> H 	 -48.5566 	 -3.02592 	 15.739
| 18> H 	 -48.4658 	 -1.74873 	 17.0343
| 19> C 	 -47.4771 	 -1.26454 	 15.1152
| 20> H 	 -46.8155 	 -0.453882 	 15.5027
| 21> H 	 -46.9049 	 -1.78311 	 14.3449
| 22> H 	 -48.3786 	 -0.932327 	 14.6596
| 23> S 	 -46.689 	 -7.54769 	 20.5142
| 24> C 	 -45.6786 	 -8.58211 	 21.4326
| 25> C 	 -44.6904 	 -7.82794 	 22.0284
| 26> C 	 -44.6559 	 -6.43355 	 21.6778
| 27> C 	 -45.6843 	 -6.12609 	 20.7903
| 28> H 	 -43.8988 	 -8.34183 	 22.5532
| 29> C 	 -43.6274 	 -5.53021 	 22.3281
| 30> H 	 -43.3381 	 -5.78915 	 23.3454
| 31> H 	 -44.0148 	 -4.54678 	 22.2064
| 32> C 	 -42.2107 	 -5.63455 	 21.7531
| 33> H 	 -42.1715 	 -5.4571 	 20.7258
| 34> H 	 -41.7969 	 -6.59531 	 22.0359
| 35> C 	 -41.3256 	 -4.56748 	 22.4496
| 36> H 	 -41.2698 	 -4.70012 	 23.5648
| 37> H 	 -41.71 	 -3.54539 	 22.3848
| 38> H 	 -40.3421 	 -4.51087 	 22.0276
| 39> H 	 -47.7342 	 -1.90436 	 19.1218
| 40> H 	 -45.8242 	 -9.58764 	 21.7322
| 41> *
| 42>
| 43>                          ****END OF INPUT****

CARTESIAN COORDINATES (ANGSTROEM)
---------------------------------
  S    -47.329500   -3.841050   20.744800
  C    -47.245700   -2.817380   19.251800
  C    -46.522900   -3.468020   18.280400
  C    -45.862900   -4.620920   18.788100
  C    -46.112500   -4.877660   20.139600
  H    -45.328900   -5.354820   18.211300
  C    -46.601700   -2.938960   16.841300
  H    -46.475500   -3.883360   16.220700
  H    -45.764900   -2.344110   16.728900
  C    -47.892600   -2.213280   16.242000
  H    -48.556600   -3.025920   15.739000
  H    -48.465800   -1.748730   17.034300
  C    -47.477100   -1.264540   15.115200
  H    -46.815500   -0.453882   15.502700
  H    -46.904900   -1.783110   14.344900
  H    -48.378600   -0.932327   14.659600
  S    -46.689000   -7.547690   20.514200
  C    -45.678600   -8.582110   21.432600
  C    -44.690400   -7.827940   22.028400
  C    -44.655900   -6.433550   21.677800
  C    -45.684300   -6.126090   20.790300
  H    -43.898800   -8.341830   22.553200
  C    -43.627400   -5.530210   22.328100
  H    -43.338100   -5.789150   23.345400
  H    -44.014800   -4.546780   22.206400
  C    -42.210700   -5.634550   21.753100
  H    -42.171500   -5.457100   20.725800
  H    -41.796900   -6.595310   22.035900
  C    -41.325600   -4.567480   22.449600
  H    -41.269800   -4.700120   23.564800
  H    -41.710000   -3.545390   22.384800
  H    -40.342100   -4.510870   22.027600
  H    -47.734200   -1.904360   19.121800
  H    -45.824200   -9.587640   21.732200

 Total Charge           Charge          ....    0
 Multiplicity           Mult            ....    1
 Number of Electrons    NEL             ....  134
 Basis Dimension        Dim             ....  322

ORBITAL ENERGIES
----------------

  NO   OCC          E(Eh)            E(eV)
   0   2.0000     -88.966565     -2420.9033
   1   2.0000     -88.962701     -2420.7982
   2   2.0000     -10.327847      -281.0350
   3   2.0000     -10.327454      -281.0243
   4   2.0000     -10.311461      -280.5891
   5   2.0000     -10.311338      -280.5858
   6   2.0000     -10.303490      -280.3722
   7   2.0000     -10.302407      -280.3428
   8   2.0000     -10.301402      -280.3154
   9   2.0000     -10.295833      -280.1639
  10   2.0000     -10.294527      -280.1283
  11   2.0000     -10.287547      -279.9384
  12   2.0000     -10.286594      -279.9124
  13   2.0000     -10.282595      -279.8036
  14   2.0000     -10.280903      -279.7576
  15   2.0000     -10.277300      -279.6595
  16   2.0000      -8.080885      -219.8921
  17   2.0000      -8.077887      -219.8105
  18   2.0000      -6.039349      -164.3390
  19   2.0000      -6.036453      -164.2602
  20   2.0000      -6.035510      -164.2346
  21   2.0000      -6.032144      -164.1430
  22   2.0000      -6.031646      -164.1294
  23   2.0000      -6.028739      -164.0503
  24   2.0000      -1.005637       -27.3648
  25   2.0000      -0.983670       -26.7670
  26   2.0000      -0.912725       -24.8365
  27   2.0000      -0.907233       -24.6871
  28   2.0000      -0.868904       -23.6441
  29   2.0000      -0.847941       -23.0737
  30   2.0000      -0.846184       -23.0258
  31   2.0000      -0.812101       -22.0984
  32   2.0000      -0.780895       -21.2492
  33   2.0000      -0.771182       -20.9849
  34   2.0000      -0.709182       -19.2978
  35   2.0000      -0.701534       -19.0897
  36   2.0000      -0.695354       -18.9216
  37   2.0000      -0.658990       -17.9320
  38   2.0000      -0.640831       -17.4379
  39   2.0000      -0.612394       -16.6641
  40   2.0000      -0.596215       -16.2238
  41   2.0000      -0.579329       -15.7643
  42   2.0000      -0.572016       -15.5654
  43   2.0000      -0.560539       -15.2530
  44   2.0000      -0.527018       -14.3409
  45   2.0000      -0.523063       -14.2333
  46   2.0000      -0.515370       -14.0239
  47   2.0000      -0.514685       -14.0053
  48   2.0000      -0.510520       -13.8920
  49   2.0000      -0.501280       -13.6405
  50   2.0000      -0.490911       -13.3584
  51   2.0000      -0.480581       -13.0773
  52   2.0000      -0.468290       -12.7428
  53   2.0000      -0.466166       -12.6850
  54   2.0000      -0.456125       -12.4118
  55   2.0000      -0.449626       -12.2349
  56   2.0000      -0.437370       -11.9014
  57   2.0000      -0.433460       -11.7950
  58   2.0000      -0.431978       -11.7547
  59   2.0000      -0.427367       -11.6292
  60   2.0000      -0.425700       -11.5839
  61   2.0000      -0.417620       -11.3640
  62   2.0000      -0.410744       -11.1769
  63   2.0000      -0.333221        -9.0674
  64   2.0000      -0.323978        -8.8159
  65   2.0000      -0.318092        -8.6557
  66   2.0000      -0.314510        -8.5583
  67   0.0000       0.042008         1.1431
  68   0.0000       0.053306         1.4505
  69   0.0000       0.107081         2.9138
  70   0.0000       0.119334         3.2472
  71   0.0000       0.133049         3.6204

MULLIKEN ATOMIC CHARGES
-----------------------
   0 S :    0.115974
   1 C :   -0.130806
   2 C :   -0.058829
   3 C :    0.023613
   4 C :   -0.152170
   5 H :    0.011127
   6 C :    0.051309
   7 H :    0.041292
   8 H :    0.027393
   9 C :   -0.098455
  10 H :    0.050188
  11 H :    0.032900
  12 C :   -0.050714
  13 H :    0.043533
  14 H :    0.033986
  15 H :    0.032918
  16 S :    0.116714
  17 C :   -0.065853
  18 C :   -0.060611
  19 C :    0.013234
  20 C :   -0.209382
  21 H :    0.015888
  22 C :    0.078362
  23 H :    0.021353
  24 H :    0.019180
  25 C :   -0.048265
  26 H :    0.022227
  27 H :    0.028220
  28 C :   -0.064448
  29 H :    0.027600
  30 H :    0.023343
  31 H :    0.032977
  32 H :    0.028824
  33 H :    0.047377
Sum of atomic charges:   -0.0000000

LOEWDIN ATOMIC CHARGES
----------------------
   0 S :    0.404069
   1 C :   -0.172240
   2 C :   -0.061116
   3 C :   -0.060361
   4 C :   -0.216652
   5 H :    0.029472
   6 C :   -0.031379
   7 H :    0.041645
   8 H :    0.019751
   9 C :   -0.039155
  10 H :    0.037538
  11 H :    0.016872
  12 C :   -0.063656
  13 H :    0.029496
  14 H :    0.026616
  15 H :    0.023784
  16 S :    0.418946
  17 C :   -0.194381
  18 C :   -0.076034
  19 C :   -0.049677
  20 C :   -0.203323
  21 H :    0.026025
  22 C :   -0.025483
  23 H :    0.035920
  24 H :    0.025791
  25 C :   -0.024645
  26 H :    0.014813
  27 H :    0.022598
  28 C :   -0.070107
  29 H :    0.026931
  30 H :    0.023996
  31 H :    0.022167
  32 H :    0.013428
  33 H :    0.028350

  Mayer bond orders larger than 0.100000
B(  0-S ,  1-C ) :   1.1320 B(  0-S ,  4-C ) :   1.1718 B(  1-C ,  2-C ) :   1.5985
B(  1-C , 32-H ) :   0.9798 B(  2-C ,  3-C ) :   1.2604 B(  2-C ,  6-C ) :   0.9865
B(  3-C ,  4-C ) :   1.5546 B(  3-C ,  5-H ) :   0.9990 B(  4-C , 20-C ) :   1.0117
B(  6-C ,  7-H ) :   0.9481 B(  6-C ,  8-H ) :   0.9473 B(  6-C ,  9-C ) :   1.0423
B(  9-C , 10-H ) :   0.9615 B(  9-C , 11-H ) :   0.9618 B(  9-C , 12-C ) :   1.0736
B( 12-C , 13-H ) :   0.9762 B( 12-C , 14-H ) :   0.9756 B( 12-C , 15-H ) :   0.9724
B( 16-S , 17-C ) :   1.1586 B( 16-S , 20-C ) :   1.1500 B( 17-C , 18-C ) :   1.6179
B( 17-C , 33-H ) :   0.9672 B( 18-C , 19-C ) :   1.2444 B( 18-C , 21-H ) :   0.9837
B( 19-C , 20-C ) :   1.5938 B( 19-C , 22-C ) :   1.0509 B( 22-C , 23-H ) :   0.9419
B( 22-C , 24-H ) :   0.9323 B( 22-C , 25-C ) :   1.0626 B( 25-C , 26-H ) :   0.9535
B( 25-C , 27-H ) :   0.9581 B( 25-C , 28-C ) :   1.0871 B( 28-C , 29-H ) :   0.9714
B( 28-C , 30-H ) :   0.9741 B( 28-C , 31-H ) :   0.9749

Dispersion correction           -0.013122160
FINAL SINGLE POINT ENERGY     -1339.857982523374

DIPOLE MOMENT
-------------
                                X             Y             Z
Electronic contribution:    -14.03430     -13.88489      10.40781
Nuclear contribution   :     14.33765      14.01976     -10.74693
                        -----------------------------------------
Total Dipole Moment    :      0.30335       0.13488      -0.33912
                        -----------------------------------------
Magnitude (a.u.)       :      0.47457
Magnitude (Debye)      :      1.20626

Rotational constants in cm-1:     0.020560     0.006893     0.005904
Rotational constants in MHz :   616.368440   206.652274   176.997069

                             ****ORCA TERMINATED NORMALLY****
TOTAL RUN TIME: 0 days 0 hours 0 minutes 20 seconds 508 msec
