                         Program Version 4.2.1 -  RELEASE  -
|  1> ! wB97X-D3 SP def2-SVP
|  2> %pal
|  3> nprocs 24
|  4> end
|  5>
|  6> * xyz 0 1
|  7> S 	 -122.093 	 29.9547 	 -113.872
|  8> C 	 -120.388 	 29.7481 	 -113.755
|  9> C 	 -120.014 	 29.3452 	 -112.524
| 10> C 	 -121.068 	 29.4464 	 -111.567
| 11> C 	 -122.238 	 29.8928 	 -112.111
| 12> H 	 -121.12 	 29.0758 	 -110.606
| 13> C 	 -118.63 	 28.8619 	 -112.184
| 14> H 	 -118.461 	 29.0184 	 -111.103
| 15> H 	 -117.863 	 29.2102 	 -112.839
| 16> C 	 -118.673 	 27.2943 	 -112.44
| 17> H 	 -119.476 	 27.0164 	 -113.213
| 18> H 	 -117.809 	 26.8921 	 -112.906
| 19> C 	 -118.855 	 26.4622 	 -111.18
| 20> H 	 -119.848 	 26.6993 	 -110.845
| 21> H 	 -118.74 	 25.4233 	 -111.304
| 22> H 	 -118.209 	 26.8626 	 -110.407
| 23> S 	 -124.675 	 28.519 	 -112.017
| 24> C 	 -125.709 	 28.8681 	 -110.694
| 25> C 	 -125.234 	 29.852 	 -109.864
| 26> C 	 -123.987 	 30.3756 	 -110.374
| 27> C 	 -123.557 	 29.7935 	 -111.515
| 28> H 	 -125.786 	 30.1983 	 -108.954
| 29> C 	 -123.165 	 31.3951 	 -109.531
| 30> H 	 -123.7 	 32.3716 	 -109.428
| 31> H 	 -122.415 	 31.8272 	 -110.195
| 32> C 	 -122.561 	 30.8072 	 -108.194
| 33> H 	 -121.727 	 31.479 	 -107.891
| 34> H 	 -122.133 	 29.8387 	 -108.332
| 35> C 	 -123.458 	 30.6357 	 -106.919
| 36> H 	 -122.812 	 30.3885 	 -106.078
| 37> H 	 -124.051 	 29.7386 	 -107.102
| 38> H 	 -124.239 	 31.3767 	 -106.702
| 39> H 	 -119.78 	 29.7311 	 -114.686
| 40> H 	 -126.556 	 28.1789 	 -110.39
| 41> *
| 42>
| 43>                          ****END OF INPUT****

CARTESIAN COORDINATES (ANGSTROEM)
---------------------------------
  S    -122.093000   29.954700  -113.872000
  C    -120.388000   29.748100  -113.755000
  C    -120.014000   29.345200  -112.524000
  C    -121.068000   29.446400  -111.567000
  C    -122.238000   29.892800  -112.111000
  H    -121.120000   29.075800  -110.606000
  C    -118.630000   28.861900  -112.184000
  H    -118.461000   29.018400  -111.103000
  H    -117.863000   29.210200  -112.839000
  C    -118.673000   27.294300  -112.440000
  H    -119.476000   27.016400  -113.213000
  H    -117.809000   26.892100  -112.906000
  C    -118.855000   26.462200  -111.180000
  H    -119.848000   26.699300  -110.845000
  H    -118.740000   25.423300  -111.304000
  H    -118.209000   26.862600  -110.407000
  S    -124.675000   28.519000  -112.017000
  C    -125.709000   28.868100  -110.694000
  C    -125.234000   29.852000  -109.864000
  C    -123.987000   30.375600  -110.374000
  C    -123.557000   29.793500  -111.515000
  H    -125.786000   30.198300  -108.954000
  C    -123.165000   31.395100  -109.531000
  H    -123.700000   32.371600  -109.428000
  H    -122.415000   31.827200  -110.195000
  C    -122.561000   30.807200  -108.194000
  H    -121.727000   31.479000  -107.891000
  H    -122.133000   29.838700  -108.332000
  C    -123.458000   30.635700  -106.919000
  H    -122.812000   30.388500  -106.078000
  H    -124.051000   29.738600  -107.102000
  H    -124.239000   31.376700  -106.702000
  H    -119.780000   29.731100  -114.686000
  H    -126.556000   28.178900  -110.390000

 Total Charge           Charge          ....    0
 Multiplicity           Mult            ....    1
 Number of Electrons    NEL             ....  134
 Basis Dimension        Dim             ....  322

ORBITAL ENERGIES
----------------

  NO   OCC          E(Eh)            E(eV)
   0   2.0000     -88.964521     -2420.8477
   1   2.0000     -88.960086     -2420.7270
   2   2.0000     -10.325278      -280.9651
   3   2.0000     -10.320517      -280.8356
   4   2.0000     -10.318805      -280.7890
   5   2.0000     -10.309611      -280.5388
   6   2.0000     -10.300598      -280.2935
   7   2.0000     -10.298673      -280.2412
   8   2.0000     -10.297708      -280.2149
   9   2.0000     -10.296151      -280.1725
  10   2.0000     -10.296027      -280.1691
  11   2.0000     -10.295104      -280.1440
  12   2.0000     -10.288922      -279.9758
  13   2.0000     -10.285511      -279.8830
  14   2.0000     -10.280984      -279.7598
  15   2.0000     -10.269856      -279.4570
  16   2.0000      -8.079856      -219.8640
  17   2.0000      -8.075641      -219.7494
  18   2.0000      -6.038334      -164.3114
  19   2.0000      -6.034420      -164.2049
  20   2.0000      -6.034046      -164.1947
  21   2.0000      -6.030452      -164.0969
  22   2.0000      -6.030244      -164.0913
  23   2.0000      -6.026262      -163.9829
  24   2.0000      -1.012255       -27.5449
  25   2.0000      -0.989682       -26.9306
  26   2.0000      -0.911804       -24.8115
  27   2.0000      -0.896626       -24.3984
  28   2.0000      -0.872532       -23.7428
  29   2.0000      -0.850866       -23.1533
  30   2.0000      -0.844358       -22.9762
  31   2.0000      -0.818193       -22.2642
  32   2.0000      -0.785328       -21.3699
  33   2.0000      -0.770939       -20.9783
  34   2.0000      -0.702519       -19.1165
  35   2.0000      -0.698502       -19.0072
  36   2.0000      -0.692135       -18.8339
  37   2.0000      -0.660762       -17.9803
  38   2.0000      -0.646823       -17.6009
  39   2.0000      -0.619752       -16.8643
  40   2.0000      -0.595697       -16.2097
  41   2.0000      -0.568130       -15.4596
  42   2.0000      -0.558330       -15.1929
  43   2.0000      -0.540964       -14.7204
  44   2.0000      -0.537126       -14.6159
  45   2.0000      -0.534226       -14.5370
  46   2.0000      -0.522351       -14.2139
  47   2.0000      -0.511692       -13.9238
  48   2.0000      -0.503468       -13.7001
  49   2.0000      -0.495947       -13.4954
  50   2.0000      -0.487402       -13.2629
  51   2.0000      -0.481800       -13.1104
  52   2.0000      -0.475792       -12.9470
  53   2.0000      -0.467560       -12.7230
  54   2.0000      -0.455080       -12.3834
  55   2.0000      -0.449524       -12.2322
  56   2.0000      -0.445306       -12.1174
  57   2.0000      -0.437645       -11.9089
  58   2.0000      -0.437147       -11.8954
  59   2.0000      -0.421996       -11.4831
  60   2.0000      -0.416664       -11.3380
  61   2.0000      -0.409619       -11.1463
  62   2.0000      -0.407863       -11.0985
  63   2.0000      -0.349407        -9.5079
  64   2.0000      -0.331884        -9.0310
  65   2.0000      -0.324631        -8.8337
  66   2.0000      -0.297329        -8.0907
  67   0.0000       0.036840         1.0025
  68   0.0000       0.063163         1.7187
  69   0.0000       0.113437         3.0868
  70   0.0000       0.127373         3.4660
  71   0.0000       0.130425         3.5491

MULLIKEN ATOMIC CHARGES
-----------------------
   0 S :    0.088026
   1 C :   -0.128248
   2 C :   -0.090852
   3 C :    0.072057
   4 C :   -0.173170
   5 H :   -0.017198
   6 C :    0.101286
   7 H :    0.035621
   8 H :    0.025918
   9 C :   -0.118963
  10 H :    0.044198
  11 H :    0.013650
  12 C :   -0.010203
  13 H :    0.012464
  14 H :    0.035508
  15 H :    0.020181
  16 S :    0.111174
  17 C :   -0.114729
  18 C :   -0.044703
  19 C :   -0.072224
  20 C :   -0.125279
  21 H :    0.041686
  22 C :    0.062787
  23 H :    0.033020
  24 H :    0.022724
  25 C :   -0.075884
  26 H :    0.038642
  27 H :    0.028798
  28 C :   -0.059564
  29 H :    0.039748
  30 H :    0.022990
  31 H :    0.038374
  32 H :    0.061289
  33 H :    0.080876
Sum of atomic charges:    0.0000000

LOEWDIN ATOMIC CHARGES
----------------------
   0 S :    0.398729
   1 C :   -0.204213
   2 C :   -0.064180
   3 C :   -0.047915
   4 C :   -0.180592
   5 H :    0.019258
   6 C :   -0.018801
   7 H :    0.033530
   8 H :    0.031350
   9 C :   -0.042628
  10 H :    0.031930
  11 H :    0.011334
  12 C :   -0.059370
  13 H :    0.020398
  14 H :    0.021385
  15 H :    0.022267
  16 S :    0.405370
  17 C :   -0.201926
  18 C :   -0.081775
  19 C :   -0.057909
  20 C :   -0.203111
  21 H :    0.041726
  22 C :   -0.041132
  23 H :    0.037716
  24 H :    0.032695
  25 C :   -0.036691
  26 H :    0.028855
  27 H :    0.021005
  28 C :   -0.072888
  29 H :    0.029981
  30 H :    0.022372
  31 H :    0.025140
  32 H :    0.034727
  33 H :    0.043363

  Mayer bond orders larger than 0.100000
B(  0-S ,  1-C ) :   1.1376 B(  0-S ,  4-C ) :   1.1483 B(  1-C ,  2-C ) :   1.6228
B(  1-C , 32-H ) :   0.9663 B(  2-C ,  3-C ) :   1.2238 B(  2-C ,  6-C ) :   1.0412
B(  3-C ,  4-C ) :   1.5839 B(  3-C ,  5-H ) :   1.0032 B(  4-C , 20-C ) :   1.0203
B(  6-C ,  7-H ) :   0.9496 B(  6-C ,  8-H ) :   0.9405 B(  6-C ,  9-C ) :   1.0274
B(  9-C , 10-H ) :   0.9602 B(  9-C , 11-H ) :   0.9613 B(  9-C , 12-C ) :   1.0792
B( 12-C , 13-H ) :   0.9732 B( 12-C , 14-H ) :   0.9740 B( 12-C , 15-H ) :   0.9742
B( 16-S , 17-C ) :   1.1625 B( 16-S , 20-C ) :   1.1168 B( 17-C , 18-C ) :   1.6273
B( 17-C , 33-H ) :   0.9533 B( 18-C , 19-C ) :   1.2211 B( 18-C , 21-H ) :   0.9840
B( 19-C , 20-C ) :   1.6630 B( 19-C , 22-C ) :   1.0447 B( 22-C , 23-H ) :   0.9394
B( 22-C , 24-H ) :   0.9280 B( 22-C , 25-C ) :   1.0465 B( 25-C , 26-H ) :   0.9627
B( 25-C , 27-H ) :   0.9575 B( 25-C , 28-C ) :   1.0707 B( 28-C , 29-H ) :   0.9715
B( 28-C , 30-H ) :   0.9742 B( 28-C , 31-H ) :   0.9783

Dispersion correction           -0.015076407
FINAL SINGLE POINT ENERGY     -1339.861603789246

DIPOLE MOMENT
-------------
                                X             Y             Z
Electronic contribution:    -15.05386       3.34427     -20.11542
Nuclear contribution   :     15.48443      -3.60992      20.63815
                        -----------------------------------------
Total Dipole Moment    :      0.43057      -0.26565       0.52273
                        -----------------------------------------
Magnitude (a.u.)       :      0.72747
Magnitude (Debye)      :      1.84907

Rotational constants in cm-1:     0.018032     0.009090     0.007552
Rotational constants in MHz :   540.572603   272.522992   226.392452

                             ****ORCA TERMINATED NORMALLY****
TOTAL RUN TIME: 0 days 0 hours 0 minutes 22 seconds 339 msec
