                         Program Version 4.2.1 -  RELEASE  -
|  1> ! wB97X-D3 SP def2-SVP
|  2> %pal
|  3> nprocs 24
|  4> end
|  5>
|  6> * xyz 0 1
|  7> S 	 -30.5658 	 -34.4173 	 -94.7434
|  8> C 	 -29.9007 	 -35.5828 	 -93.7534
|  9> C 	 -28.561 	 -35.2812 	 -93.4483
| 10> C 	 -28.1221 	 -34.1559 	 -94.1551
| 11> C 	 -29.1171 	 -33.5045 	 -94.8898
| 12> H 	 -27.1334 	 -33.838 	 -94.1288
| 13> C 	 -27.6032 	 -36.0798 	 -92.6498
| 14> H 	 -28.173 	 -36.9583 	 -92.2913
| 15> H 	 -27.4555 	 -35.4519 	 -91.7659
| 16> C 	 -26.2446 	 -36.4725 	 -93.2964
| 17> H 	 -26.3657 	 -36.9643 	 -94.2936
| 18> H 	 -25.6579 	 -35.6004 	 -93.5766
| 19> C 	 -25.5975 	 -37.5059 	 -92.3168
| 20> H 	 -25.4083 	 -37.0333 	 -91.3132
| 21> H 	 -26.2318 	 -38.3032 	 -92.331
| 22> H 	 -24.6295 	 -37.8548 	 -92.6604
| 23> S 	 -30.168 	 -32.051 	 -96.9138
| 24> C 	 -29.2714 	 -30.7998 	 -97.6253
| 25> C 	 -28.3236 	 -30.2859 	 -96.8044
| 26> C 	 -28.0865 	 -31.2111 	 -95.7043
| 27> C 	 -28.9933 	 -32.264 	 -95.6936
| 28> H 	 -27.6695 	 -29.5156 	 -97.2385
| 29> C 	 -26.916 	 -31.1203 	 -94.6766
| 30> H 	 -26.2367 	 -30.4755 	 -95.1375
| 31> H 	 -26.2405 	 -31.941 	 -94.7447
| 32> C 	 -27.2263 	 -30.8335 	 -93.2298
| 33> H 	 -28.0352 	 -31.5862 	 -93.0339
| 34> H 	 -27.5824 	 -29.7936 	 -93.0589
| 35> C 	 -26.0273 	 -31.2578 	 -92.3169
| 36> H 	 -25.6156 	 -32.2369 	 -92.617
| 37> H 	 -26.4386 	 -31.3746 	 -91.3201
| 38> H 	 -25.2148 	 -30.5298 	 -92.3602
| 39> H 	 -30.3874 	 -36.439 	 -93.359
| 40> H 	 -29.6358 	 -30.3379 	 -98.5082
| 41> *
| 42>
| 43>                          ****END OF INPUT****

CARTESIAN COORDINATES (ANGSTROEM)
---------------------------------
  S    -30.565800  -34.417300  -94.743400
  C    -29.900700  -35.582800  -93.753400
  C    -28.561000  -35.281200  -93.448300
  C    -28.122100  -34.155900  -94.155100
  C    -29.117100  -33.504500  -94.889800
  H    -27.133400  -33.838000  -94.128800
  C    -27.603200  -36.079800  -92.649800
  H    -28.173000  -36.958300  -92.291300
  H    -27.455500  -35.451900  -91.765900
  C    -26.244600  -36.472500  -93.296400
  H    -26.365700  -36.964300  -94.293600
  H    -25.657900  -35.600400  -93.576600
  C    -25.597500  -37.505900  -92.316800
  H    -25.408300  -37.033300  -91.313200
  H    -26.231800  -38.303200  -92.331000
  H    -24.629500  -37.854800  -92.660400
  S    -30.168000  -32.051000  -96.913800
  C    -29.271400  -30.799800  -97.625300
  C    -28.323600  -30.285900  -96.804400
  C    -28.086500  -31.211100  -95.704300
  C    -28.993300  -32.264000  -95.693600
  H    -27.669500  -29.515600  -97.238500
  C    -26.916000  -31.120300  -94.676600
  H    -26.236700  -30.475500  -95.137500
  H    -26.240500  -31.941000  -94.744700
  C    -27.226300  -30.833500  -93.229800
  H    -28.035200  -31.586200  -93.033900
  H    -27.582400  -29.793600  -93.058900
  C    -26.027300  -31.257800  -92.316900
  H    -25.615600  -32.236900  -92.617000
  H    -26.438600  -31.374600  -91.320100
  H    -25.214800  -30.529800  -92.360200
  H    -30.387400  -36.439000  -93.359000
  H    -29.635800  -30.337900  -98.508200

 Total Charge           Charge          ....    0
 Multiplicity           Mult            ....    1
 Number of Electrons    NEL             ....  134
 Basis Dimension        Dim             ....  322

ORBITAL ENERGIES
----------------

  NO   OCC          E(Eh)            E(eV)
   0   2.0000     -88.968131     -2420.9459
   1   2.0000     -88.959822     -2420.7198
   2   2.0000     -10.329633      -281.0836
   3   2.0000     -10.325217      -280.9634
   4   2.0000     -10.308138      -280.4987
   5   2.0000     -10.308103      -280.4977
   6   2.0000     -10.305973      -280.4398
   7   2.0000     -10.296407      -280.1795
   8   2.0000     -10.295643      -280.1587
   9   2.0000     -10.292928      -280.0848
  10   2.0000     -10.292334      -280.0686
  11   2.0000     -10.288693      -279.9696
  12   2.0000     -10.282820      -279.8098
  13   2.0000     -10.282008      -279.7877
  14   2.0000     -10.281808      -279.7822
  15   2.0000     -10.278979      -279.7052
  16   2.0000      -8.084423      -219.9883
  17   2.0000      -8.077199      -219.7918
  18   2.0000      -6.042799      -164.4329
  19   2.0000      -6.038492      -164.3157
  20   2.0000      -6.035479      -164.2337
  21   2.0000      -6.035423      -164.2322
  22   2.0000      -6.031453      -164.1242
  23   2.0000      -6.027992      -164.0300
  24   2.0000      -1.017869       -27.6976
  25   2.0000      -0.997418       -27.1411
  26   2.0000      -0.913959       -24.8701
  27   2.0000      -0.908810       -24.7300
  28   2.0000      -0.871666       -23.7192
  29   2.0000      -0.855618       -23.2825
  30   2.0000      -0.846599       -23.0371
  31   2.0000      -0.818236       -22.2653
  32   2.0000      -0.782267       -21.2866
  33   2.0000      -0.771457       -20.9924
  34   2.0000      -0.714308       -19.4373
  35   2.0000      -0.701806       -19.0971
  36   2.0000      -0.691370       -18.8131
  37   2.0000      -0.666282       -18.1304
  38   2.0000      -0.641476       -17.4555
  39   2.0000      -0.627364       -17.0715
  40   2.0000      -0.598226       -16.2785
  41   2.0000      -0.571076       -15.5398
  42   2.0000      -0.566833       -15.4243
  43   2.0000      -0.561183       -15.2706
  44   2.0000      -0.527382       -14.3508
  45   2.0000      -0.525531       -14.3004
  46   2.0000      -0.517337       -14.0774
  47   2.0000      -0.507463       -13.8088
  48   2.0000      -0.506132       -13.7726
  49   2.0000      -0.501437       -13.6448
  50   2.0000      -0.495162       -13.4740
  51   2.0000      -0.488344       -13.2885
  52   2.0000      -0.472721       -12.8634
  53   2.0000      -0.466925       -12.7057
  54   2.0000      -0.459933       -12.5154
  55   2.0000      -0.452131       -12.3031
  56   2.0000      -0.446829       -12.1588
  57   2.0000      -0.438854       -11.9418
  58   2.0000      -0.435396       -11.8477
  59   2.0000      -0.428912       -11.6713
  60   2.0000      -0.420435       -11.4406
  61   2.0000      -0.416239       -11.3264
  62   2.0000      -0.404842       -11.0163
  63   2.0000      -0.361307        -9.8317
  64   2.0000      -0.335340        -9.1251
  65   2.0000      -0.325504        -8.8574
  66   2.0000      -0.282105        -7.6765
  67   0.0000       0.026638         0.7248
  68   0.0000       0.086096         2.3428
  69   0.0000       0.109686         2.9847
  70   0.0000       0.117667         3.2019
  71   0.0000       0.133419         3.6305

MULLIKEN ATOMIC CHARGES
-----------------------
   0 S :    0.128105
   1 C :   -0.098873
   2 C :   -0.097050
   3 C :    0.015380
   4 C :   -0.093419
   5 H :   -0.048709
   6 C :    0.058795
   7 H :    0.010831
   8 H :    0.038196
   9 C :   -0.100063
  10 H :    0.039254
  11 H :    0.033411
  12 C :   -0.008865
  13 H :    0.040733
  14 H :    0.018773
  15 H :    0.025604
  16 S :    0.095009
  17 C :   -0.087221
  18 C :   -0.021584
  19 C :   -0.097542
  20 C :   -0.107429
  21 H :    0.037472
  22 C :    0.089231
  23 H :   -0.021575
  24 H :    0.005109
  25 C :   -0.070012
  26 H :    0.045620
  27 H :    0.045165
  28 C :   -0.051671
  29 H :    0.022821
  30 H :    0.039716
  31 H :    0.038200
  32 H :    0.030842
  33 H :    0.045745
Sum of atomic charges:    0.0000000

LOEWDIN ATOMIC CHARGES
----------------------
   0 S :    0.458676
   1 C :   -0.228339
   2 C :   -0.066567
   3 C :   -0.064349
   4 C :   -0.201941
   5 H :    0.012923
   6 C :   -0.037267
   7 H :    0.030278
   8 H :    0.037486
   9 C :   -0.038889
  10 H :    0.030583
  11 H :    0.019430
  12 C :   -0.052912
  13 H :    0.032896
  14 H :    0.013074
  15 H :    0.023413
  16 S :    0.431744
  17 C :   -0.187135
  18 C :   -0.077839
  19 C :   -0.053612
  20 C :   -0.203085
  21 H :    0.040492
  22 C :   -0.041545
  23 H :    0.019199
  24 H :    0.024972
  25 C :   -0.040729
  26 H :    0.032930
  27 H :    0.030475
  28 C :   -0.061821
  29 H :    0.022319
  30 H :    0.028005
  31 H :    0.023780
  32 H :    0.023307
  33 H :    0.020047

  Mayer bond orders larger than 0.100000
B(  0-S ,  1-C ) :   1.1720 B(  0-S ,  4-C ) :   1.1851 B(  1-C ,  2-C ) :   1.5378
B(  1-C ,  4-C ) :   0.1021 B(  1-C , 32-H ) :   0.9714 B(  2-C ,  3-C ) :   1.3116
B(  2-C ,  6-C ) :   1.0300 B(  3-C ,  4-C ) :   1.4929 B(  3-C ,  5-H ) :   1.0092
B(  4-C , 20-C ) :   1.0524 B(  6-C ,  7-H ) :   0.9427 B(  6-C ,  8-H ) :   0.9233
B(  6-C ,  9-C ) :   1.0544 B(  9-C , 10-H ) :   0.9597 B(  9-C , 11-H ) :   0.9529
B(  9-C , 12-C ) :   1.0733 B( 12-C , 13-H ) :   0.9760 B( 12-C , 14-H ) :   0.9772
B( 12-C , 15-H ) :   0.9738 B( 16-S , 17-C ) :   1.1805 B( 16-S , 20-C ) :   1.1463
B( 17-C , 18-C ) :   1.6199 B( 17-C , 33-H ) :   0.9680 B( 18-C , 19-C ) :   1.2362
B( 18-C , 21-H ) :   0.9834 B( 19-C , 20-C ) :   1.5985 B( 19-C , 22-C ) :   1.0281
B( 22-C , 23-H ) :   0.9074 B( 22-C , 24-H ) :   0.9335 B( 22-C , 25-C ) :   1.0500
B( 25-C , 26-H ) :   0.9570 B( 25-C , 27-H ) :   0.9543 B( 25-C , 28-C ) :   1.0721
B( 28-C , 29-H ) :   0.9736 B( 28-C , 30-H ) :   0.9761 B( 28-C , 31-H ) :   0.9774

Dispersion correction           -0.014590579
FINAL SINGLE POINT ENERGY     -1339.863513971992

DIPOLE MOMENT
-------------
                                X             Y             Z
Electronic contribution:    -25.41202       6.03595     -18.67533
Nuclear contribution   :     26.02597      -6.11126      18.85767
                        -----------------------------------------
Total Dipole Moment    :      0.61395      -0.07532       0.18234
                        -----------------------------------------
Magnitude (a.u.)       :      0.64487
Magnitude (Debye)      :      1.63912

Rotational constants in cm-1:     0.018776     0.009230     0.006941
Rotational constants in MHz :   562.882049   276.712644   208.098986

                             ****ORCA TERMINATED NORMALLY****
TOTAL RUN TIME: 0 days 0 hours 0 minutes 22 seconds 296 msec
