                         Program Version 4.2.1 -  RELEASE  -
|  1> ! wB97X-D3 SP def2-SVP
|  2> %pal
|  3> nprocs 24
|  4> end
|  5>
|  6> * xyz 0 1
|  7> S 	 -111.128 	 62.2 	 -75.3382
|  8> C 	 -110.219 	 60.9788 	 -76.2083
|  9> C 	 -111.044 	 60.0203 	 -76.7759
| 10> C 	 -112.379 	 60.1813 	 -76.5016
| 11> C 	 -112.587 	 61.3565 	 -75.774
| 12> H 	 -113.198 	 59.5313 	 -76.7048
| 13> C 	 -110.458 	 58.9366 	 -77.6602
| 14> H 	 -109.794 	 59.4109 	 -78.4053
| 15> H 	 -111.229 	 58.6254 	 -78.3296
| 16> C 	 -109.765 	 57.7057 	 -77.0738
| 17> H 	 -109.568 	 57.0501 	 -77.878
| 18> H 	 -108.837 	 58.0443 	 -76.6512
| 19> C 	 -110.661 	 56.9603 	 -76.0213
| 20> H 	 -110.108 	 56.0547 	 -75.7283
| 21> H 	 -110.848 	 57.6381 	 -75.15
| 22> H 	 -111.637 	 56.528 	 -76.3581
| 23> S 	 -114.155 	 62.0916 	 -73.732
| 24> C 	 -115.86 	 62.5003 	 -74.0076
| 25> C 	 -116.11 	 62.5825 	 -75.3628
| 26> C 	 -114.97 	 62.3163 	 -76.2087
| 27> C 	 -113.851 	 61.9835 	 -75.4587
| 28> H 	 -117.092 	 62.857 	 -75.6391
| 29> C 	 -114.995 	 62.2952 	 -77.7295
| 30> H 	 -116.101 	 62.1356 	 -77.9015
| 31> H 	 -114.434 	 61.5475 	 -78.174
| 32> C 	 -114.803 	 63.6311 	 -78.3122
| 33> H 	 -115.539 	 64.2797 	 -77.9989
| 34> H 	 -114.927 	 63.3839 	 -79.3497
| 35> C 	 -113.361 	 64.2942 	 -78.227
| 36> H 	 -112.618 	 63.5929 	 -78.6461
| 37> H 	 -112.964 	 64.4997 	 -77.2313
| 38> H 	 -113.342 	 65.2905 	 -78.843
| 39> H 	 -109.158 	 61.0267 	 -76.222
| 40> H 	 -116.609 	 62.4485 	 -73.2444
| 41> *
| 42>
| 43>                          ****END OF INPUT****

CARTESIAN COORDINATES (ANGSTROEM)
---------------------------------
  S    -111.128000   62.200000  -75.338200
  C    -110.219000   60.978800  -76.208300
  C    -111.044000   60.020300  -76.775900
  C    -112.379000   60.181300  -76.501600
  C    -112.587000   61.356500  -75.774000
  H    -113.198000   59.531300  -76.704800
  C    -110.458000   58.936600  -77.660200
  H    -109.794000   59.410900  -78.405300
  H    -111.229000   58.625400  -78.329600
  C    -109.765000   57.705700  -77.073800
  H    -109.568000   57.050100  -77.878000
  H    -108.837000   58.044300  -76.651200
  C    -110.661000   56.960300  -76.021300
  H    -110.108000   56.054700  -75.728300
  H    -110.848000   57.638100  -75.150000
  H    -111.637000   56.528000  -76.358100
  S    -114.155000   62.091600  -73.732000
  C    -115.860000   62.500300  -74.007600
  C    -116.110000   62.582500  -75.362800
  C    -114.970000   62.316300  -76.208700
  C    -113.851000   61.983500  -75.458700
  H    -117.092000   62.857000  -75.639100
  C    -114.995000   62.295200  -77.729500
  H    -116.101000   62.135600  -77.901500
  H    -114.434000   61.547500  -78.174000
  C    -114.803000   63.631100  -78.312200
  H    -115.539000   64.279700  -77.998900
  H    -114.927000   63.383900  -79.349700
  C    -113.361000   64.294200  -78.227000
  H    -112.618000   63.592900  -78.646100
  H    -112.964000   64.499700  -77.231300
  H    -113.342000   65.290500  -78.843000
  H    -109.158000   61.026700  -76.222000
  H    -116.609000   62.448500  -73.244400

 Total Charge           Charge          ....    0
 Multiplicity           Mult            ....    1
 Number of Electrons    NEL             ....  134
 Basis Dimension        Dim             ....  322

ORBITAL ENERGIES
----------------

  NO   OCC          E(Eh)            E(eV)
   0   2.0000     -88.968736     -2420.9624
   1   2.0000     -88.959378     -2420.7077
   2   2.0000     -10.326851      -281.0079
   3   2.0000     -10.320993      -280.8485
   4   2.0000     -10.317232      -280.7461
   5   2.0000     -10.309745      -280.5424
   6   2.0000     -10.304198      -280.3915
   7   2.0000     -10.297529      -280.2100
   8   2.0000     -10.294856      -280.1373
   9   2.0000     -10.291180      -280.0373
  10   2.0000     -10.286838      -279.9191
  11   2.0000     -10.285681      -279.8876
  12   2.0000     -10.285291      -279.8770
  13   2.0000     -10.283776      -279.8358
  14   2.0000     -10.281526      -279.7746
  15   2.0000     -10.275793      -279.6186
  16   2.0000      -8.083543      -219.9644
  17   2.0000      -8.074133      -219.7083
  18   2.0000      -6.041706      -164.4032
  19   2.0000      -6.038046      -164.3036
  20   2.0000      -6.034665      -164.2116
  21   2.0000      -6.032664      -164.1571
  22   2.0000      -6.028580      -164.0460
  23   2.0000      -6.024911      -163.9462
  24   2.0000      -1.008551       -27.4441
  25   2.0000      -0.982377       -26.7318
  26   2.0000      -0.915543       -24.9132
  27   2.0000      -0.909315       -24.7437
  28   2.0000      -0.867265       -23.5995
  29   2.0000      -0.853514       -23.2253
  30   2.0000      -0.837758       -22.7965
  31   2.0000      -0.811495       -22.0819
  32   2.0000      -0.782146       -21.2833
  33   2.0000      -0.771759       -21.0006
  34   2.0000      -0.706160       -19.2156
  35   2.0000      -0.703548       -19.1445
  36   2.0000      -0.692741       -18.8504
  37   2.0000      -0.661537       -18.0013
  38   2.0000      -0.647458       -17.6182
  39   2.0000      -0.617476       -16.8024
  40   2.0000      -0.604050       -16.4370
  41   2.0000      -0.574640       -15.6368
  42   2.0000      -0.551269       -15.0008
  43   2.0000      -0.543603       -14.7922
  44   2.0000      -0.539179       -14.6718
  45   2.0000      -0.535020       -14.5586
  46   2.0000      -0.518298       -14.1036
  47   2.0000      -0.515190       -14.0190
  48   2.0000      -0.500731       -13.6256
  49   2.0000      -0.495152       -13.4738
  50   2.0000      -0.486392       -13.2354
  51   2.0000      -0.479933       -13.0596
  52   2.0000      -0.474070       -12.9001
  53   2.0000      -0.461255       -12.5514
  54   2.0000      -0.458158       -12.4671
  55   2.0000      -0.450796       -12.2668
  56   2.0000      -0.440027       -11.9737
  57   2.0000      -0.436467       -11.8769
  58   2.0000      -0.432339       -11.7645
  59   2.0000      -0.421243       -11.4626
  60   2.0000      -0.418833       -11.3970
  61   2.0000      -0.418225       -11.3805
  62   2.0000      -0.400537       -10.8992
  63   2.0000      -0.342652        -9.3240
  64   2.0000      -0.337431        -9.1820
  65   2.0000      -0.324974        -8.8430
  66   2.0000      -0.290742        -7.9115
  67   0.0000       0.033151         0.9021
  68   0.0000       0.059137         1.6092
  69   0.0000       0.109400         2.9769
  70   0.0000       0.116443         3.1686
  71   0.0000       0.135015         3.6739

MULLIKEN ATOMIC CHARGES
-----------------------
   0 S :    0.122467
   1 C :   -0.118635
   2 C :   -0.066794
   3 C :    0.047660
   4 C :   -0.169964
   5 H :    0.010273
   6 C :    0.047655
   7 H :    0.027229
   8 H :    0.000099
   9 C :   -0.010658
  10 H :    0.022669
  11 H :    0.024648
  12 C :   -0.098288
  13 H :    0.034833
  14 H :    0.059060
  15 H :    0.034393
  16 S :    0.086201
  17 C :   -0.083945
  18 C :   -0.036801
  19 C :   -0.031062
  20 C :   -0.170384
  21 H :    0.003935
  22 C :    0.107231
  23 H :    0.018982
  24 H :    0.008253
  25 C :   -0.022999
  26 H :    0.012516
  27 H :    0.023197
  28 C :   -0.091301
  29 H :    0.030511
  30 H :    0.039275
  31 H :    0.048306
  32 H :    0.035507
  33 H :    0.055930
Sum of atomic charges:   -0.0000000

LOEWDIN ATOMIC CHARGES
----------------------
   0 S :    0.420068
   1 C :   -0.191458
   2 C :   -0.064875
   3 C :   -0.058986
   4 C :   -0.194473
   5 H :    0.033820
   6 C :   -0.038115
   7 H :    0.034618
   8 H :    0.022467
   9 C :   -0.028954
  10 H :    0.021088
  11 H :    0.021553
  12 C :   -0.075625
  13 H :    0.026851
  14 H :    0.033279
  15 H :    0.027149
  16 S :    0.386519
  17 C :   -0.173043
  18 C :   -0.066680
  19 C :   -0.053087
  20 C :   -0.203419
  21 H :    0.024145
  22 C :   -0.021575
  23 H :    0.042651
  24 H :    0.018098
  25 C :   -0.032047
  26 H :    0.013185
  27 H :    0.027239
  28 C :   -0.076989
  29 H :    0.025362
  30 H :    0.019750
  31 H :    0.037094
  32 H :    0.017525
  33 H :    0.026865

  Mayer bond orders larger than 0.100000
B(  0-S ,  1-C ) :   1.1451 B(  0-S ,  4-C ) :   1.1918 B(  1-C ,  2-C ) :   1.5711
B(  1-C ,  4-C ) :   0.1147 B(  1-C , 32-H ) :   0.9812 B(  2-C ,  3-C ) :   1.2656
B(  2-C ,  6-C ) :   1.0089 B(  3-C ,  4-C ) :   1.5365 B(  3-C ,  5-H ) :   1.0067
B(  4-C , 20-C ) :   1.0020 B(  6-C ,  7-H ) :   0.9409 B(  6-C ,  8-H ) :   0.9361
B(  6-C ,  9-C ) :   1.0794 B(  9-C , 10-H ) :   0.9520 B(  9-C , 11-H ) :   0.9557
B(  9-C , 12-C ) :   1.0738 B( 12-C , 13-H ) :   0.9753 B( 12-C , 14-H ) :   0.9738
B( 12-C , 15-H ) :   0.9766 B( 16-S , 17-C ) :   1.1433 B( 16-S , 20-C ) :   1.1413
B( 17-C , 18-C ) :   1.6308 B( 17-C , 33-H ) :   0.9690 B( 18-C , 19-C ) :   1.2159
B( 18-C , 21-H ) :   0.9940 B( 19-C , 20-C ) :   1.6130 B( 19-C , 22-C ) :   1.0287
B( 22-C , 23-H ) :   0.9228 B( 22-C , 24-H ) :   0.9404 B( 22-C , 25-C ) :   1.0913
B( 25-C , 26-H ) :   0.9544 B( 25-C , 27-H ) :   0.9518 B( 25-C , 28-C ) :   1.0653
B( 28-C , 29-H ) :   0.9743 B( 28-C , 30-H ) :   0.9769 B( 28-C , 31-H ) :   0.9752

Dispersion correction           -0.015398685
FINAL SINGLE POINT ENERGY     -1339.865876850466

DIPOLE MOMENT
-------------
                                X             Y             Z
Electronic contribution:     -3.08248       9.55349      17.75632
Nuclear contribution   :      2.89806      -9.94019     -18.29234
                        -----------------------------------------
Total Dipole Moment    :     -0.18443      -0.38670      -0.53602
                        -----------------------------------------
Magnitude (a.u.)       :      0.68620
Magnitude (Debye)      :      1.74418

Rotational constants in cm-1:     0.020645     0.008562     0.007679
Rotational constants in MHz :   618.914535   256.695567   230.210325

                             ****ORCA TERMINATED NORMALLY****
TOTAL RUN TIME: 0 days 0 hours 0 minutes 22 seconds 363 msec
