                         Program Version 4.2.1 -  RELEASE  -
|  1> ! wB97X-D3 SP def2-SVP
|  2> %pal
|  3> nprocs 24
|  4> end
|  5>
|  6> * xyz 0 1
|  7> S 	 39.8129 	 -23.3283 	 -111.539
|  8> C 	 41.4955 	 -23.651 	 -111.254
|  9> C 	 41.9559 	 -22.9797 	 -110.093
| 10> C 	 40.9104 	 -22.2287 	 -109.419
| 11> C 	 39.7333 	 -22.1971 	 -110.215
| 12> H 	 40.9686 	 -21.8058 	 -108.475
| 13> C 	 43.3873 	 -23.0677 	 -109.558
| 14> H 	 43.5012 	 -22.1237 	 -109.127
| 15> H 	 44.1097 	 -23.1461 	 -110.416
| 16> C 	 43.7873 	 -24.1331 	 -108.528
| 17> H 	 44.7912 	 -23.8805 	 -108.174
| 18> H 	 43.1115 	 -24.1114 	 -107.698
| 19> C 	 43.8424 	 -25.5908 	 -109.123
| 20> H 	 42.9017 	 -25.7954 	 -109.658
| 21> H 	 44.7368 	 -25.5371 	 -109.778
| 22> H 	 43.9333 	 -26.3123 	 -108.316
| 23> S 	 36.9911 	 -22.2698 	 -110.39
| 24> C 	 36.0638 	 -21.0358 	 -109.686
| 25> C 	 36.8831 	 -19.9945 	 -109.181
| 26> C 	 38.2266 	 -20.3133 	 -109.387
| 27> C 	 38.4849 	 -21.5799 	 -109.866
| 28> H 	 36.5006 	 -19.1101 	 -108.699
| 29> C 	 39.2869 	 -19.2902 	 -109.241
| 30> H 	 39.6587 	 -19.2176 	 -110.234
| 31> H 	 40.0929 	 -19.7057 	 -108.668
| 32> C 	 38.9111 	 -17.8917 	 -108.758
| 33> H 	 38.7339 	 -18.0513 	 -107.68
| 34> H 	 37.9628 	 -17.5961 	 -109.198
| 35> C 	 39.9668 	 -16.7138 	 -108.982
| 36> H 	 39.3725 	 -15.8151 	 -109.087
| 37> H 	 40.5203 	 -16.7769 	 -109.93
| 38> H 	 40.6967 	 -16.6667 	 -108.128
| 39> H 	 42.0504 	 -24.5018 	 -111.753
| 40> H 	 34.975 	 -20.9628 	 -109.758
| 41> *
| 42>
| 43>                          ****END OF INPUT****

CARTESIAN COORDINATES (ANGSTROEM)
---------------------------------
  S     39.812900  -23.328300  -111.539000
  C     41.495500  -23.651000  -111.254000
  C     41.955900  -22.979700  -110.093000
  C     40.910400  -22.228700  -109.419000
  C     39.733300  -22.197100  -110.215000
  H     40.968600  -21.805800  -108.475000
  C     43.387300  -23.067700  -109.558000
  H     43.501200  -22.123700  -109.127000
  H     44.109700  -23.146100  -110.416000
  C     43.787300  -24.133100  -108.528000
  H     44.791200  -23.880500  -108.174000
  H     43.111500  -24.111400  -107.698000
  C     43.842400  -25.590800  -109.123000
  H     42.901700  -25.795400  -109.658000
  H     44.736800  -25.537100  -109.778000
  H     43.933300  -26.312300  -108.316000
  S     36.991100  -22.269800  -110.390000
  C     36.063800  -21.035800  -109.686000
  C     36.883100  -19.994500  -109.181000
  C     38.226600  -20.313300  -109.387000
  C     38.484900  -21.579900  -109.866000
  H     36.500600  -19.110100  -108.699000
  C     39.286900  -19.290200  -109.241000
  H     39.658700  -19.217600  -110.234000
  H     40.092900  -19.705700  -108.668000
  C     38.911100  -17.891700  -108.758000
  H     38.733900  -18.051300  -107.680000
  H     37.962800  -17.596100  -109.198000
  C     39.966800  -16.713800  -108.982000
  H     39.372500  -15.815100  -109.087000
  H     40.520300  -16.776900  -109.930000
  H     40.696700  -16.666700  -108.128000
  H     42.050400  -24.501800  -111.753000
  H     34.975000  -20.962800  -109.758000

 Total Charge           Charge          ....    0
 Multiplicity           Mult            ....    1
 Number of Electrons    NEL             ....  134
 Basis Dimension        Dim             ....  322

ORBITAL ENERGIES
----------------

  NO   OCC          E(Eh)            E(eV)
   0   2.0000     -88.968451     -2420.9546
   1   2.0000     -88.967412     -2420.9264
   2   2.0000     -10.332628      -281.1651
   3   2.0000     -10.318653      -280.7848
   4   2.0000     -10.318442      -280.7791
   5   2.0000     -10.316890      -280.7369
   6   2.0000     -10.308426      -280.5065
   7   2.0000     -10.296667      -280.1866
   8   2.0000     -10.295494      -280.1546
   9   2.0000     -10.292046      -280.0608
  10   2.0000     -10.290949      -280.0310
  11   2.0000     -10.290026      -280.0059
  12   2.0000     -10.288120      -279.9540
  13   2.0000     -10.286327      -279.9052
  14   2.0000     -10.281682      -279.7788
  15   2.0000     -10.278772      -279.6996
  16   2.0000      -8.083325      -219.9585
  17   2.0000      -8.083275      -219.9571
  18   2.0000      -6.041783      -164.4053
  19   2.0000      -6.041591      -164.4000
  20   2.0000      -6.037778      -164.2963
  21   2.0000      -6.037507      -164.2889
  22   2.0000      -6.034323      -164.2023
  23   2.0000      -6.034182      -164.1984
  24   2.0000      -1.014607       -27.6089
  25   2.0000      -0.984057       -26.7776
  26   2.0000      -0.912258       -24.8238
  27   2.0000      -0.907723       -24.7004
  28   2.0000      -0.868379       -23.6298
  29   2.0000      -0.852368       -23.1941
  30   2.0000      -0.844141       -22.9702
  31   2.0000      -0.809328       -22.0229
  32   2.0000      -0.783844       -21.3295
  33   2.0000      -0.772101       -21.0099
  34   2.0000      -0.711806       -19.3692
  35   2.0000      -0.700738       -19.0681
  36   2.0000      -0.692126       -18.8337
  37   2.0000      -0.655373       -17.8336
  38   2.0000      -0.638033       -17.3618
  39   2.0000      -0.619410       -16.8550
  40   2.0000      -0.598773       -16.2935
  41   2.0000      -0.570918       -15.5355
  42   2.0000      -0.567831       -15.4515
  43   2.0000      -0.552885       -15.0448
  44   2.0000      -0.542547       -14.7635
  45   2.0000      -0.525005       -14.2861
  46   2.0000      -0.515815       -14.0361
  47   2.0000      -0.510579       -13.8936
  48   2.0000      -0.504612       -13.7312
  49   2.0000      -0.496141       -13.5007
  50   2.0000      -0.487774       -13.2730
  51   2.0000      -0.480906       -13.0861
  52   2.0000      -0.472783       -12.8651
  53   2.0000      -0.464844       -12.6491
  54   2.0000      -0.463432       -12.6106
  55   2.0000      -0.457363       -12.4455
  56   2.0000      -0.445182       -12.1140
  57   2.0000      -0.438644       -11.9361
  58   2.0000      -0.431246       -11.7348
  59   2.0000      -0.423257       -11.5174
  60   2.0000      -0.421021       -11.4566
  61   2.0000      -0.418520       -11.3885
  62   2.0000      -0.411060       -11.1855
  63   2.0000      -0.352611        -9.5950
  64   2.0000      -0.333505        -9.0751
  65   2.0000      -0.326649        -8.8886
  66   2.0000      -0.278034        -7.5657
  67   0.0000       0.018158         0.4941
  68   0.0000       0.076432         2.0798
  69   0.0000       0.104997         2.8571
  70   0.0000       0.112793         3.0693
  71   0.0000       0.140360         3.8194

MULLIKEN ATOMIC CHARGES
-----------------------
   0 S :    0.106657
   1 C :   -0.139087
   2 C :   -0.109208
   3 C :    0.027217
   4 C :   -0.142796
   5 H :    0.002904
   6 C :    0.065623
   7 H :    0.009549
   8 H :    0.029938
   9 C :   -0.054843
  10 H :    0.030658
  11 H :    0.018583
  12 C :   -0.070994
  13 H :    0.040828
  14 H :    0.037133
  15 H :    0.040276
  16 S :    0.115783
  17 C :   -0.089025
  18 C :   -0.056870
  19 C :   -0.084339
  20 C :   -0.127272
  21 H :    0.021763
  22 C :    0.119865
  23 H :    0.024377
  24 H :    0.012377
  25 C :   -0.117568
  26 H :    0.034356
  27 H :    0.031902
  28 C :   -0.040988
  29 H :    0.033455
  30 H :    0.036684
  31 H :    0.049600
  32 H :    0.080325
  33 H :    0.063137
Sum of atomic charges:    0.0000000

LOEWDIN ATOMIC CHARGES
----------------------
   0 S :    0.414598
   1 C :   -0.224658
   2 C :   -0.056299
   3 C :   -0.055124
   4 C :   -0.186252
   5 H :    0.019713
   6 C :   -0.034396
   7 H :    0.023024
   8 H :    0.035636
   9 C :   -0.034360
  10 H :    0.024634
  11 H :    0.015651
  12 C :   -0.066528
  13 H :    0.025687
  14 H :    0.027988
  15 H :    0.025620
  16 S :    0.444387
  17 C :   -0.200241
  18 C :   -0.077911
  19 C :   -0.054055
  20 C :   -0.223493
  21 H :    0.031416
  22 C :   -0.035226
  23 H :    0.033572
  24 H :    0.026470
  25 C :   -0.042933
  26 H :    0.027509
  27 H :    0.019626
  28 C :   -0.065454
  29 H :    0.027689
  30 H :    0.027320
  31 H :    0.032404
  32 H :    0.041990
  33 H :    0.031995

  Mayer bond orders larger than 0.100000
B(  0-S ,  1-C ) :   1.1403 B(  0-S ,  4-C ) :   1.1631 B(  1-C ,  2-C ) :   1.5811
B(  1-C , 32-H ) :   0.9586 B(  2-C ,  3-C ) :   1.2652 B(  2-C ,  6-C ) :   1.0190
B(  3-C ,  4-C ) :   1.5174 B(  3-C ,  5-H ) :   0.9983 B(  4-C , 20-C ) :   1.1072
B(  6-C ,  7-H ) :   0.9332 B(  6-C ,  8-H ) :   0.9446 B(  6-C ,  9-C ) :   1.0761
B(  9-C , 10-H ) :   0.9568 B(  9-C , 11-H ) :   0.9563 B(  9-C , 12-C ) :   1.0665
B( 12-C , 13-H ) :   0.9768 B( 12-C , 14-H ) :   0.9792 B( 12-C , 15-H ) :   0.9760
B( 16-S , 17-C ) :   1.2153 B( 16-S , 20-C ) :   1.1346 B( 17-C , 18-C ) :   1.5099
B( 17-C , 20-C ) :   0.1039 B( 17-C , 33-H ) :   0.9646 B( 18-C , 19-C ) :   1.3223
B( 18-C , 21-H ) :   0.9901 B( 19-C , 20-C ) :   1.5357 B( 19-C , 22-C ) :   1.0331
B( 22-C , 23-H ) :   0.9092 B( 22-C , 24-H ) :   0.9206 B( 22-C , 25-C ) :   1.0833
B( 25-C , 26-H ) :   0.9560 B( 25-C , 27-H ) :   0.9511 B( 25-C , 28-C ) :   1.0667
B( 28-C , 29-H ) :   0.9785 B( 28-C , 30-H ) :   0.9778 B( 28-C , 31-H ) :   0.9778

Dispersion correction           -0.013676714
FINAL SINGLE POINT ENERGY     -1339.870132682686

DIPOLE MOMENT
-------------
                                X             Y             Z
Electronic contribution:    -20.52780     -10.15296     -11.69979
Nuclear contribution   :     20.81478      10.52577      12.04717
                        -----------------------------------------
Total Dipole Moment    :      0.28697       0.37281       0.34739
                        -----------------------------------------
Magnitude (a.u.)       :      0.58482
Magnitude (Debye)      :      1.48650

Rotational constants in cm-1:     0.019106     0.007952     0.006134
Rotational constants in MHz :   572.775109   238.390048   183.888809

                             ****ORCA TERMINATED NORMALLY****
TOTAL RUN TIME: 0 days 0 hours 0 minutes 20 seconds 3 msec
