                         Program Version 4.2.1 -  RELEASE  -
|  1> ! wB97X-D3 SP def2-SVP
|  2> %pal
|  3> nprocs 24
|  4> end
|  5>
|  6> * xyz 0 1
|  7> S 	 -118.099 	 61.3018 	 -36.4461
|  8> C 	 -118.372 	 62.971 	 -36.7856
|  9> C 	 -117.279 	 63.5786 	 -37.3669
| 10> C 	 -116.158 	 62.6531 	 -37.5909
| 11> C 	 -116.458 	 61.424 	 -37.0852
| 12> H 	 -115.202 	 63.0339 	 -38.0361
| 13> C 	 -117.181 	 65.0202 	 -37.885
| 14> H 	 -116.83 	 65.1255 	 -38.9349
| 15> H 	 -116.462 	 65.4782 	 -37.2013
| 16> C 	 -118.491 	 65.8594 	 -37.9951
| 17> H 	 -118.067 	 66.7661 	 -38.4432
| 18> H 	 -119.246 	 65.3148 	 -38.647
| 19> C 	 -119.016 	 66.5252 	 -36.7242
| 20> H 	 -118.269 	 67.1986 	 -36.2939
| 21> H 	 -119.89 	 67.1562 	 -36.9124
| 22> H 	 -119.056 	 65.6494 	 -36.0655
| 23> S 	 -114.51 	 59.9101 	 -38.4086
| 24> C 	 -113.82 	 58.5534 	 -37.5643
| 25> C 	 -114.292 	 58.4112 	 -36.2882
| 26> C 	 -115.252 	 59.3778 	 -35.9595
| 27> C 	 -115.533 	 60.2252 	 -37.0094
| 28> H 	 -114.016 	 57.536 	 -35.7251
| 29> C 	 -115.95 	 59.4441 	 -34.6471
| 30> H 	 -115.674 	 58.5429 	 -34.0902
| 31> H 	 -117.06 	 59.2864 	 -34.7228
| 32> C 	 -115.629 	 60.6034 	 -33.7674
| 33> H 	 -116.159 	 60.397 	 -32.8003
| 34> H 	 -116.033 	 61.5594 	 -34.1145
| 35> C 	 -114.058 	 60.6994 	 -33.5549
| 36> H 	 -113.772 	 61.2506 	 -32.6241
| 37> H 	 -113.554 	 61.2043 	 -34.3911
| 38> H 	 -113.555 	 59.7533 	 -33.5575
| 39> H 	 -119.38 	 63.4258 	 -36.8149
| 40> H 	 -113.005 	 57.9287 	 -38.0403
| 41> *
| 42>
| 43>                          ****END OF INPUT****

CARTESIAN COORDINATES (ANGSTROEM)
---------------------------------
  S    -118.099000   61.301800  -36.446100
  C    -118.372000   62.971000  -36.785600
  C    -117.279000   63.578600  -37.366900
  C    -116.158000   62.653100  -37.590900
  C    -116.458000   61.424000  -37.085200
  H    -115.202000   63.033900  -38.036100
  C    -117.181000   65.020200  -37.885000
  H    -116.830000   65.125500  -38.934900
  H    -116.462000   65.478200  -37.201300
  C    -118.491000   65.859400  -37.995100
  H    -118.067000   66.766100  -38.443200
  H    -119.246000   65.314800  -38.647000
  C    -119.016000   66.525200  -36.724200
  H    -118.269000   67.198600  -36.293900
  H    -119.890000   67.156200  -36.912400
  H    -119.056000   65.649400  -36.065500
  S    -114.510000   59.910100  -38.408600
  C    -113.820000   58.553400  -37.564300
  C    -114.292000   58.411200  -36.288200
  C    -115.252000   59.377800  -35.959500
  C    -115.533000   60.225200  -37.009400
  H    -114.016000   57.536000  -35.725100
  C    -115.950000   59.444100  -34.647100
  H    -115.674000   58.542900  -34.090200
  H    -117.060000   59.286400  -34.722800
  C    -115.629000   60.603400  -33.767400
  H    -116.159000   60.397000  -32.800300
  H    -116.033000   61.559400  -34.114500
  C    -114.058000   60.699400  -33.554900
  H    -113.772000   61.250600  -32.624100
  H    -113.554000   61.204300  -34.391100
  H    -113.555000   59.753300  -33.557500
  H    -119.380000   63.425800  -36.814900
  H    -113.005000   57.928700  -38.040300

 Total Charge           Charge          ....    0
 Multiplicity           Mult            ....    1
 Number of Electrons    NEL             ....  134
 Basis Dimension        Dim             ....  322

ORBITAL ENERGIES
----------------

  NO   OCC          E(Eh)            E(eV)
   0   2.0000     -88.967283     -2420.9228
   1   2.0000     -88.966869     -2420.9116
   2   2.0000     -10.335770      -281.2506
   3   2.0000     -10.326460      -280.9973
   4   2.0000     -10.318839      -280.7899
   5   2.0000     -10.313331      -280.6400
   6   2.0000     -10.304079      -280.3882
   7   2.0000     -10.300618      -280.2941
   8   2.0000     -10.298413      -280.2341
   9   2.0000     -10.296447      -280.1806
  10   2.0000     -10.291699      -280.0514
  11   2.0000     -10.290210      -280.0108
  12   2.0000     -10.286195      -279.9016
  13   2.0000     -10.285650      -279.8868
  14   2.0000     -10.278994      -279.7056
  15   2.0000     -10.274589      -279.5858
  16   2.0000      -8.081810      -219.9172
  17   2.0000      -8.081551      -219.9102
  18   2.0000      -6.040454      -164.3691
  19   2.0000      -6.039891      -164.3538
  20   2.0000      -6.036442      -164.2599
  21   2.0000      -6.036146      -164.2519
  22   2.0000      -6.032432      -164.1508
  23   2.0000      -6.032347      -164.1485
  24   2.0000      -1.006603       -27.3911
  25   2.0000      -0.986516       -26.8445
  26   2.0000      -0.910958       -24.7884
  27   2.0000      -0.908339       -24.7172
  28   2.0000      -0.864162       -23.5151
  29   2.0000      -0.851209       -23.1626
  30   2.0000      -0.842019       -22.9125
  31   2.0000      -0.811450       -22.0807
  32   2.0000      -0.781540       -21.2668
  33   2.0000      -0.772930       -21.0325
  34   2.0000      -0.704982       -19.1835
  35   2.0000      -0.695066       -18.9137
  36   2.0000      -0.680829       -18.5263
  37   2.0000      -0.661752       -18.0072
  38   2.0000      -0.634167       -17.2566
  39   2.0000      -0.608065       -16.5463
  40   2.0000      -0.593736       -16.1564
  41   2.0000      -0.577391       -15.7116
  42   2.0000      -0.552761       -15.0414
  43   2.0000      -0.548064       -14.9136
  44   2.0000      -0.542345       -14.7580
  45   2.0000      -0.536411       -14.5965
  46   2.0000      -0.518180       -14.1004
  47   2.0000      -0.507541       -13.8109
  48   2.0000      -0.501544       -13.6477
  49   2.0000      -0.491240       -13.3673
  50   2.0000      -0.483764       -13.1639
  51   2.0000      -0.480310       -13.0699
  52   2.0000      -0.470205       -12.7949
  53   2.0000      -0.467570       -12.7232
  54   2.0000      -0.457749       -12.4560
  55   2.0000      -0.449472       -12.2308
  56   2.0000      -0.440530       -11.9874
  57   2.0000      -0.438229       -11.9248
  58   2.0000      -0.432745       -11.7756
  59   2.0000      -0.420976       -11.4553
  60   2.0000      -0.417546       -11.3620
  61   2.0000      -0.406354       -11.0575
  62   2.0000      -0.394432       -10.7330
  63   2.0000      -0.352376        -9.5886
  64   2.0000      -0.336107        -9.1459
  65   2.0000      -0.327690        -8.9169
  66   2.0000      -0.291503        -7.9322
  67   0.0000       0.032236         0.8772
  68   0.0000       0.076290         2.0760
  69   0.0000       0.109926         2.9912
  70   0.0000       0.113141         3.0787
  71   0.0000       0.129054         3.5117

MULLIKEN ATOMIC CHARGES
-----------------------
   0 S :    0.110262
   1 C :   -0.135920
   2 C :   -0.100531
   3 C :   -0.005850
   4 C :   -0.126170
   5 H :    0.039433
   6 C :    0.014712
   7 H :    0.051312
   8 H :    0.038618
   9 C :   -0.124502
  10 H :    0.025174
  11 H :    0.056831
  12 C :   -0.037665
  13 H :    0.024905
  14 H :    0.049905
  15 H :    0.023450
  16 S :    0.107000
  17 C :   -0.120228
  18 C :   -0.026433
  19 C :   -0.030877
  20 C :   -0.137974
  21 H :    0.018596
  22 C :    0.032379
  23 H :    0.007315
  24 H :    0.044616
  25 C :   -0.049299
  26 H :    0.034220
  27 H :    0.041992
  28 C :   -0.069703
  29 H :    0.041485
  30 H :    0.040252
  31 H :    0.015642
  32 H :    0.071234
  33 H :    0.075821
Sum of atomic charges:    0.0000000

LOEWDIN ATOMIC CHARGES
----------------------
   0 S :    0.414803
   1 C :   -0.223068
   2 C :   -0.063064
   3 C :   -0.072602
   4 C :   -0.176966
   5 H :    0.043143
   6 C :   -0.038504
   7 H :    0.041057
   8 H :    0.034735
   9 C :   -0.056621
  10 H :    0.028768
  11 H :    0.032531
  12 C :   -0.071284
  13 H :    0.025416
  14 H :    0.030893
  15 H :    0.022847
  16 S :    0.406563
  17 C :   -0.191933
  18 C :   -0.073758
  19 C :   -0.064628
  20 C :   -0.189388
  21 H :    0.033786
  22 C :   -0.048717
  23 H :    0.029557
  24 H :    0.031061
  25 C :   -0.037565
  26 H :    0.030014
  27 H :    0.022015
  28 C :   -0.072440
  29 H :    0.029620
  30 H :    0.030072
  31 H :    0.017831
  32 H :    0.035977
  33 H :    0.039848

  Mayer bond orders larger than 0.100000
B(  0-S ,  1-C ) :   1.1147 B(  0-S ,  4-C ) :   1.1536 B(  1-C ,  2-C ) :   1.6676
B(  1-C , 32-H ) :   0.9456 B(  2-C ,  3-C ) :   1.2203 B(  2-C ,  6-C ) :   0.9996
B(  3-C ,  4-C ) :   1.6015 B(  3-C ,  5-H ) :   0.9889 B(  4-C , 20-C ) :   0.9918
B(  6-C ,  7-H ) :   0.9550 B(  6-C ,  8-H ) :   0.9341 B(  6-C ,  9-C ) :   1.0767
B(  9-C , 10-H ) :   0.9577 B(  9-C , 11-H ) :   0.9547 B(  9-C , 12-C ) :   1.0625
B( 12-C , 13-H ) :   0.9728 B( 12-C , 14-H ) :   0.9731 B( 12-C , 15-H ) :   0.9797
B( 16-S , 17-C ) :   1.1630 B( 16-S , 20-C ) :   1.1480 B( 17-C , 18-C ) :   1.6049
B( 17-C , 33-H ) :   0.9572 B( 18-C , 19-C ) :   1.2522 B( 18-C , 21-H ) :   0.9914
B( 19-C , 20-C ) :   1.5901 B( 19-C , 22-C ) :   1.0366 B( 22-C , 23-H ) :   0.9257
B( 22-C , 24-H ) :   0.9324 B( 22-C , 25-C ) :   1.0791 B( 25-C , 26-H ) :   0.9563
B( 25-C , 27-H ) :   0.9557 B( 25-C , 28-C ) :   1.0547 B( 28-C , 29-H ) :   0.9779
B( 28-C , 30-H ) :   0.9709 B( 28-C , 31-H ) :   0.9792

Dispersion correction           -0.015223800
FINAL SINGLE POINT ENERGY     -1339.873532733440

DIPOLE MOMENT
-------------
                                X             Y             Z
Electronic contribution:      2.28968     -17.18408     -11.72226
Nuclear contribution   :     -2.14716      17.46299      11.76620
                        -----------------------------------------
Total Dipole Moment    :      0.14252       0.27891       0.04394
                        -----------------------------------------
Magnitude (a.u.)       :      0.31628
Magnitude (Debye)      :      0.80392

Rotational constants in cm-1:     0.024356     0.007756     0.006823
Rotational constants in MHz :   730.171288   232.525536   204.540078

                             ****ORCA TERMINATED NORMALLY****
TOTAL RUN TIME: 0 days 0 hours 0 minutes 22 seconds 34 msec
