                         Program Version 4.2.1 -  RELEASE  -
|  1> ! wB97X-D3 SP def2-SVP
|  2> %pal
|  3> nprocs 24
|  4> end
|  5>
|  6> * xyz 0 1
|  7> S 	 -75.8456 	 6.44378 	 -103.954
|  8> C 	 -77.0849 	 7.49706 	 -104.498
|  9> C 	 -77.3186 	 7.24213 	 -105.815
| 10> C 	 -76.4038 	 6.3978 	 -106.406
| 11> C 	 -75.4641 	 5.85387 	 -105.557
| 12> H 	 -76.4595 	 6.20427 	 -107.391
| 13> C 	 -78.3736 	 7.85395 	 -106.628
| 14> H 	 -78.2512 	 7.52482 	 -107.682
| 15> H 	 -78.2916 	 8.89046 	 -106.569
| 16> C 	 -79.8391 	 7.47226 	 -106.23
| 17> H 	 -79.9708 	 7.64356 	 -105.169
| 18> H 	 -80.5773 	 8.22957 	 -106.652
| 19> C 	 -80.1686 	 6.04508 	 -106.568
| 20> H 	 -80.0612 	 5.91194 	 -107.62
| 21> H 	 -79.4944 	 5.31728 	 -106.14
| 22> H 	 -81.2348 	 5.74609 	 -106.333
| 23> S 	 -73.8353 	 3.78208 	 -104.583
| 24> C 	 -72.7083 	 2.96386 	 -105.562
| 25> C 	 -72.8473 	 3.38803 	 -106.835
| 26> C 	 -73.8443 	 4.33514 	 -107.049
| 27> C 	 -74.4566 	 4.75428 	 -105.891
| 28> H 	 -72.249 	 2.91979 	 -107.628
| 29> C 	 -74.0347 	 4.97014 	 -108.391
| 30> H 	 -73.8616 	 6.04341 	 -108.265
| 31> H 	 -74.9829 	 4.83587 	 -108.81
| 32> C 	 -73.1302 	 4.395 	 -109.496
| 33> H 	 -73.195 	 3.30172 	 -109.62
| 34> H 	 -72.1051 	 4.63222 	 -109.152
| 35> C 	 -73.3182 	 5.08588 	 -110.846
| 36> H 	 -74.2848 	 4.88796 	 -111.213
| 37> H 	 -72.6499 	 4.62975 	 -111.558
| 38> H 	 -73.1344 	 6.16779 	 -110.837
| 39> H 	 -77.612 	 8.22255 	 -103.866
| 40> H 	 -72.0479 	 2.196 	 -105.138
| 41> *
| 42>
| 43>                          ****END OF INPUT****

CARTESIAN COORDINATES (ANGSTROEM)
---------------------------------
  S    -75.845600    6.443780  -103.954000
  C    -77.084900    7.497060  -104.498000
  C    -77.318600    7.242130  -105.815000
  C    -76.403800    6.397800  -106.406000
  C    -75.464100    5.853870  -105.557000
  H    -76.459500    6.204270  -107.391000
  C    -78.373600    7.853950  -106.628000
  H    -78.251200    7.524820  -107.682000
  H    -78.291600    8.890460  -106.569000
  C    -79.839100    7.472260  -106.230000
  H    -79.970800    7.643560  -105.169000
  H    -80.577300    8.229570  -106.652000
  C    -80.168600    6.045080  -106.568000
  H    -80.061200    5.911940  -107.620000
  H    -79.494400    5.317280  -106.140000
  H    -81.234800    5.746090  -106.333000
  S    -73.835300    3.782080  -104.583000
  C    -72.708300    2.963860  -105.562000
  C    -72.847300    3.388030  -106.835000
  C    -73.844300    4.335140  -107.049000
  C    -74.456600    4.754280  -105.891000
  H    -72.249000    2.919790  -107.628000
  C    -74.034700    4.970140  -108.391000
  H    -73.861600    6.043410  -108.265000
  H    -74.982900    4.835870  -108.810000
  C    -73.130200    4.395000  -109.496000
  H    -73.195000    3.301720  -109.620000
  H    -72.105100    4.632220  -109.152000
  C    -73.318200    5.085880  -110.846000
  H    -74.284800    4.887960  -111.213000
  H    -72.649900    4.629750  -111.558000
  H    -73.134400    6.167790  -110.837000
  H    -77.612000    8.222550  -103.866000
  H    -72.047900    2.196000  -105.138000

 Total Charge           Charge          ....    0
 Multiplicity           Mult            ....    1
 Number of Electrons    NEL             ....  134
 Basis Dimension        Dim             ....  322

ORBITAL ENERGIES
----------------

  NO   OCC          E(Eh)            E(eV)
   0   2.0000     -88.967231     -2420.9214
   1   2.0000     -88.960491     -2420.7380
   2   2.0000     -10.336515      -281.2709
   3   2.0000     -10.331199      -281.1262
   4   2.0000     -10.312273      -280.6112
   5   2.0000     -10.311422      -280.5881
   6   2.0000     -10.296767      -280.1893
   7   2.0000     -10.288927      -279.9759
   8   2.0000     -10.288679      -279.9692
   9   2.0000     -10.287797      -279.9452
  10   2.0000     -10.286213      -279.9021
  11   2.0000     -10.285850      -279.8922
  12   2.0000     -10.285060      -279.8707
  13   2.0000     -10.279186      -279.7109
  14   2.0000     -10.274845      -279.5927
  15   2.0000     -10.274099      -279.5724
  16   2.0000      -8.082275      -219.9299
  17   2.0000      -8.076599      -219.7754
  18   2.0000      -6.040780      -164.3780
  19   2.0000      -6.036603      -164.2643
  20   2.0000      -6.034932      -164.2189
  21   2.0000      -6.033150      -164.1704
  22   2.0000      -6.030774      -164.1057
  23   2.0000      -6.027611      -164.0196
  24   2.0000      -1.016240       -27.6533
  25   2.0000      -1.000947       -27.2371
  26   2.0000      -0.916388       -24.9362
  27   2.0000      -0.914664       -24.8893
  28   2.0000      -0.868416       -23.6308
  29   2.0000      -0.857522       -23.3344
  30   2.0000      -0.850609       -23.1463
  31   2.0000      -0.820470       -22.3261
  32   2.0000      -0.784536       -21.3483
  33   2.0000      -0.775191       -21.0940
  34   2.0000      -0.708402       -19.2766
  35   2.0000      -0.705503       -19.1977
  36   2.0000      -0.695156       -18.9162
  37   2.0000      -0.656467       -17.8634
  38   2.0000      -0.640781       -17.4365
  39   2.0000      -0.626714       -17.0538
  40   2.0000      -0.608038       -16.5456
  41   2.0000      -0.578548       -15.7431
  42   2.0000      -0.576143       -15.6777
  43   2.0000      -0.557256       -15.1637
  44   2.0000      -0.540888       -14.7183
  45   2.0000      -0.529530       -14.4092
  46   2.0000      -0.516209       -14.0468
  47   2.0000      -0.511991       -13.9320
  48   2.0000      -0.504666       -13.7327
  49   2.0000      -0.500294       -13.6137
  50   2.0000      -0.492053       -13.3894
  51   2.0000      -0.483126       -13.1465
  52   2.0000      -0.475213       -12.9312
  53   2.0000      -0.472031       -12.8446
  54   2.0000      -0.469662       -12.7802
  55   2.0000      -0.455574       -12.3968
  56   2.0000      -0.443795       -12.0763
  57   2.0000      -0.437819       -11.9137
  58   2.0000      -0.432483       -11.7685
  59   2.0000      -0.426769       -11.6130
  60   2.0000      -0.415629       -11.3098
  61   2.0000      -0.414022       -11.2661
  62   2.0000      -0.408322       -11.1110
  63   2.0000      -0.361381        -9.8337
  64   2.0000      -0.334929        -9.1139
  65   2.0000      -0.329993        -8.9796
  66   2.0000      -0.286811        -7.8045
  67   0.0000       0.024368         0.6631
  68   0.0000       0.087355         2.3771
  69   0.0000       0.113020         3.0754
  70   0.0000       0.131507         3.5785
  71   0.0000       0.142867         3.8876

MULLIKEN ATOMIC CHARGES
-----------------------
   0 S :    0.108646
   1 C :   -0.131751
   2 C :   -0.060361
   3 C :    0.025214
   4 C :   -0.081153
   5 H :   -0.057138
   6 C :    0.073740
   7 H :    0.019788
   8 H :    0.019260
   9 C :   -0.080915
  10 H :    0.016980
  11 H :    0.033028
  12 C :   -0.041950
  13 H :    0.011152
  14 H :    0.040817
  15 H :    0.041313
  16 S :    0.088913
  17 C :   -0.088715
  18 C :   -0.046929
  19 C :   -0.051656
  20 C :   -0.133443
  21 H :    0.024927
  22 C :    0.069597
  23 H :    0.042911
  24 H :    0.021916
  25 C :   -0.147100
  26 H :    0.044552
  27 H :    0.030098
  28 C :    0.008549
  29 H :    0.013816
  30 H :    0.025192
  31 H :    0.036151
  32 H :    0.057466
  33 H :    0.067084
Sum of atomic charges:   -0.0000000

LOEWDIN ATOMIC CHARGES
----------------------
   0 S :    0.425630
   1 C :   -0.205426
   2 C :   -0.073412
   3 C :   -0.060188
   4 C :   -0.182713
   5 H :    0.008607
   6 C :   -0.024944
   7 H :    0.030635
   8 H :    0.025203
   9 C :   -0.042666
  10 H :    0.016705
  11 H :    0.029588
  12 C :   -0.068817
  13 H :    0.018031
  14 H :    0.027933
  15 H :    0.033676
  16 S :    0.422139
  17 C :   -0.197740
  18 C :   -0.083309
  19 C :   -0.068471
  20 C :   -0.188434
  21 H :    0.036746
  22 C :   -0.030240
  23 H :    0.039009
  24 H :    0.020483
  25 C :   -0.043956
  26 H :    0.025980
  27 H :    0.023479
  28 C :   -0.057877
  29 H :    0.015939
  30 H :    0.027040
  31 H :    0.028606
  32 H :    0.035982
  33 H :    0.036784

  Mayer bond orders larger than 0.100000
B(  0-S ,  1-C ) :   1.1531 B(  0-S ,  4-C ) :   1.1723 B(  1-C ,  2-C ) :   1.5483
B(  1-C ,  4-C ) :   0.1017 B(  1-C , 32-H ) :   0.9712 B(  2-C ,  3-C ) :   1.3073
B(  2-C ,  6-C ) :   1.0263 B(  3-C ,  4-C ) :   1.4954 B(  3-C ,  5-H ) :   1.0206
B(  4-C , 20-C ) :   1.0406 B(  6-C ,  7-H ) :   0.9476 B(  6-C ,  8-H ) :   0.9293
B(  6-C ,  9-C ) :   1.0723 B(  9-C , 10-H ) :   0.9557 B(  9-C , 11-H ) :   0.9551
B(  9-C , 12-C ) :   1.0713 B( 12-C , 13-H ) :   0.9731 B( 12-C , 14-H ) :   0.9754
B( 12-C , 15-H ) :   0.9723 B( 16-S , 17-C ) :   1.1780 B( 16-S , 20-C ) :   1.1559
B( 17-C , 18-C ) :   1.5481 B( 17-C , 33-H ) :   0.9655 B( 18-C , 19-C ) :   1.3061
B( 18-C , 21-H ) :   0.9831 B( 19-C , 20-C ) :   1.5760 B( 19-C , 22-C ) :   1.0310
B( 22-C , 23-H ) :   0.9300 B( 22-C , 24-H ) :   0.9210 B( 22-C , 25-C ) :   1.0935
B( 25-C , 26-H ) :   0.9507 B( 25-C , 27-H ) :   0.9438 B( 25-C , 28-C ) :   1.0879
B( 28-C , 29-H ) :   0.9708 B( 28-C , 30-H ) :   0.9689 B( 28-C , 31-H ) :   0.9735

Dispersion correction           -0.013598342
FINAL SINGLE POINT ENERGY     -1339.878627494880

DIPOLE MOMENT
-------------
                                X             Y             Z
Electronic contribution:     11.10096      -4.33550      24.95737
Nuclear contribution   :    -11.25026       4.42501     -25.60241
                        -----------------------------------------
Total Dipole Moment    :     -0.14929       0.08951      -0.64503
                        -----------------------------------------
Magnitude (a.u.)       :      0.66811
Magnitude (Debye)      :      1.69820

Rotational constants in cm-1:     0.017931     0.008514     0.006379
Rotational constants in MHz :   537.556956   255.235293   191.237549

                             ****ORCA TERMINATED NORMALLY****
TOTAL RUN TIME: 0 days 0 hours 0 minutes 21 seconds 448 msec
