                         Program Version 4.2.1 -  RELEASE  -
|  1> ! wB97X-D3 SP def2-SVP
|  2> %pal
|  3> nprocs 24
|  4> end
|  5>
|  6> * xyz 0 1
|  7> S 	 -106.05 	 1.24702 	 -113.937
|  8> C 	 -106.482 	 2.87255 	 -114.077
|  9> C 	 -106.556 	 3.51511 	 -112.838
| 10> C 	 -106.008 	 2.71455 	 -111.8
| 11> C 	 -105.582 	 1.49354 	 -112.243
| 12> H 	 -105.8 	 3.02169 	 -110.865
| 13> C 	 -106.798 	 5.04319 	 -112.669
| 14> H 	 -107.39 	 5.60773 	 -113.371
| 15> H 	 -105.87 	 5.48897 	 -112.902
| 16> C 	 -107.255 	 5.36318 	 -111.281
| 17> H 	 -108.272 	 4.85129 	 -111.202
| 18> H 	 -106.585 	 4.92028 	 -110.564
| 19> C 	 -107.456 	 6.78806 	 -110.838
| 20> H 	 -107.932 	 6.89736 	 -109.802
| 21> H 	 -106.573 	 7.48724 	 -110.884
| 22> H 	 -108.149 	 7.14172 	 -111.606
| 23> S 	 -105.844 	 -0.0707631 	 -110.026
| 24> C 	 -104.652 	 -1.24243 	 -109.671
| 25> C 	 -103.664 	 -1.40019 	 -110.579
| 26> C 	 -103.792 	 -0.397066 	 -111.656
| 27> C 	 -104.919 	 0.397054 	 -111.476
| 28> H 	 -102.729 	 -2.03793 	 -110.549
| 29> C 	 -102.972 	 -0.513356 	 -112.914
| 30> H 	 -103.68 	 -0.291372 	 -113.724
| 31> H 	 -102.726 	 -1.56592 	 -112.984
| 32> C 	 -101.634 	 0.249096 	 -113.014
| 33> H 	 -101.112 	 -0.138744 	 -113.85
| 34> H 	 -100.985 	 0.0271375 	 -112.094
| 35> C 	 -101.783 	 1.72227 	 -113.303
| 36> H 	 -102.206 	 2.18458 	 -112.415
| 37> H 	 -102.267 	 1.99946 	 -114.266
| 38> H 	 -100.807 	 2.17527 	 -113.479
| 39> H 	 -106.717 	 3.43989 	 -114.993
| 40> H 	 -104.774 	 -1.98092 	 -108.913
| 41> *
| 42>
| 43>                          ****END OF INPUT****

CARTESIAN COORDINATES (ANGSTROEM)
---------------------------------
  S    -106.050000    1.247020  -113.937000
  C    -106.482000    2.872550  -114.077000
  C    -106.556000    3.515110  -112.838000
  C    -106.008000    2.714550  -111.800000
  C    -105.582000    1.493540  -112.243000
  H    -105.800000    3.021690  -110.865000
  C    -106.798000    5.043190  -112.669000
  H    -107.390000    5.607730  -113.371000
  H    -105.870000    5.488970  -112.902000
  C    -107.255000    5.363180  -111.281000
  H    -108.272000    4.851290  -111.202000
  H    -106.585000    4.920280  -110.564000
  C    -107.456000    6.788060  -110.838000
  H    -107.932000    6.897360  -109.802000
  H    -106.573000    7.487240  -110.884000
  H    -108.149000    7.141720  -111.606000
  S    -105.844000   -0.070763  -110.026000
  C    -104.652000   -1.242430  -109.671000
  C    -103.664000   -1.400190  -110.579000
  C    -103.792000   -0.397066  -111.656000
  C    -104.919000    0.397054  -111.476000
  H    -102.729000   -2.037930  -110.549000
  C    -102.972000   -0.513356  -112.914000
  H    -103.680000   -0.291372  -113.724000
  H    -102.726000   -1.565920  -112.984000
  C    -101.634000    0.249096  -113.014000
  H    -101.112000   -0.138744  -113.850000
  H    -100.985000    0.027137  -112.094000
  C    -101.783000    1.722270  -113.303000
  H    -102.206000    2.184580  -112.415000
  H    -102.267000    1.999460  -114.266000
  H    -100.807000    2.175270  -113.479000
  H    -106.717000    3.439890  -114.993000
  H    -104.774000   -1.980920  -108.913000

 Total Charge           Charge          ....    0
 Multiplicity           Mult            ....    1
 Number of Electrons    NEL             ....  134
 Basis Dimension        Dim             ....  322

ORBITAL ENERGIES
----------------

  NO   OCC          E(Eh)            E(eV)
   0   2.0000     -88.966751     -2420.9084
   1   2.0000     -88.964416     -2420.8448
   2   2.0000     -10.329990      -281.0933
   3   2.0000     -10.328940      -281.0647
   4   2.0000     -10.311535      -280.5911
   5   2.0000     -10.310186      -280.5544
   6   2.0000     -10.305657      -280.4312
   7   2.0000     -10.302501      -280.3453
   8   2.0000     -10.298562      -280.2381
   9   2.0000     -10.288272      -279.9581
  10   2.0000     -10.288112      -279.9537
  11   2.0000     -10.286317      -279.9049
  12   2.0000     -10.285791      -279.8906
  13   2.0000     -10.285782      -279.8904
  14   2.0000     -10.283947      -279.8404
  15   2.0000     -10.271225      -279.4942
  16   2.0000      -8.081833      -219.9178
  17   2.0000      -8.079683      -219.8594
  18   2.0000      -6.040199      -164.3622
  19   2.0000      -6.038160      -164.3067
  20   2.0000      -6.036337      -164.2571
  21   2.0000      -6.034239      -164.2000
  22   2.0000      -6.032692      -164.1579
  23   2.0000      -6.030322      -164.0934
  24   2.0000      -1.006860       -27.3980
  25   2.0000      -0.986905       -26.8550
  26   2.0000      -0.915602       -24.9148
  27   2.0000      -0.908100       -24.7107
  28   2.0000      -0.868154       -23.6237
  29   2.0000      -0.853587       -23.2273
  30   2.0000      -0.848686       -23.0939
  31   2.0000      -0.815742       -22.1975
  32   2.0000      -0.784374       -21.3439
  33   2.0000      -0.770196       -20.9581
  34   2.0000      -0.707009       -19.2387
  35   2.0000      -0.693409       -18.8686
  36   2.0000      -0.678213       -18.4551
  37   2.0000      -0.664405       -18.0794
  38   2.0000      -0.645116       -17.5545
  39   2.0000      -0.623637       -16.9700
  40   2.0000      -0.593622       -16.1533
  41   2.0000      -0.569697       -15.5022
  42   2.0000      -0.561806       -15.2875
  43   2.0000      -0.554258       -15.0821
  44   2.0000      -0.541362       -14.7312
  45   2.0000      -0.520969       -14.1763
  46   2.0000      -0.515855       -14.0371
  47   2.0000      -0.510336       -13.8870
  48   2.0000      -0.503677       -13.7057
  49   2.0000      -0.494297       -13.4505
  50   2.0000      -0.490604       -13.3500
  51   2.0000      -0.480213       -13.0673
  52   2.0000      -0.477613       -12.9965
  53   2.0000      -0.469172       -12.7668
  54   2.0000      -0.457251       -12.4424
  55   2.0000      -0.451054       -12.2738
  56   2.0000      -0.444599       -12.0982
  57   2.0000      -0.429150       -11.6778
  58   2.0000      -0.422784       -11.5046
  59   2.0000      -0.422337       -11.4924
  60   2.0000      -0.418596       -11.3906
  61   2.0000      -0.411821       -11.2062
  62   2.0000      -0.410717       -11.1762
  63   2.0000      -0.345235        -9.3943
  64   2.0000      -0.332609        -9.0507
  65   2.0000      -0.326816        -8.8931
  66   2.0000      -0.293626        -7.9900
  67   0.0000       0.032834         0.8935
  68   0.0000       0.073837         2.0092
  69   0.0000       0.102371         2.7857
  70   0.0000       0.119863         3.2616
  71   0.0000       0.124444         3.3863

MULLIKEN ATOMIC CHARGES
-----------------------
   0 S :    0.123210
   1 C :   -0.119803
   2 C :   -0.068987
   3 C :    0.054066
   4 C :   -0.129522
   5 H :   -0.035879
   6 C :    0.098541
   7 H :    0.005556
   8 H :    0.019193
   9 C :   -0.135042
  10 H :    0.043664
  11 H :    0.033294
  12 C :   -0.057729
  13 H :    0.054384
  14 H :    0.038137
  15 H :    0.020805
  16 S :    0.110187
  17 C :   -0.053725
  18 C :   -0.053815
  19 C :   -0.060194
  20 C :   -0.175454
  21 H :    0.046631
  22 C :    0.055187
  23 H :    0.022343
  24 H :    0.018840
  25 C :   -0.055637
  26 H :    0.016951
  27 H :    0.036143
  28 C :   -0.049452
  29 H :    0.041316
  30 H :    0.036617
  31 H :    0.020662
  32 H :    0.052588
  33 H :    0.046925
Sum of atomic charges:    0.0000000

LOEWDIN ATOMIC CHARGES
----------------------
   0 S :    0.425797
   1 C :   -0.221261
   2 C :   -0.056099
   3 C :   -0.052746
   4 C :   -0.182349
   5 H :    0.010893
   6 C :   -0.031565
   7 H :    0.025848
   8 H :    0.026918
   9 C :   -0.053932
  10 H :    0.037011
  11 H :    0.017526
  12 C :   -0.075855
  13 H :    0.038917
  14 H :    0.027002
  15 H :    0.022863
  16 S :    0.408836
  17 C :   -0.189637
  18 C :   -0.078464
  19 C :   -0.052181
  20 C :   -0.192773
  21 H :    0.044164
  22 C :   -0.035445
  23 H :    0.025212
  24 H :    0.031693
  25 C :   -0.041357
  26 H :    0.018297
  27 H :    0.032660
  28 C :   -0.071170
  29 H :    0.026507
  30 H :    0.031489
  31 H :    0.024322
  32 H :    0.034789
  33 H :    0.024092

  Mayer bond orders larger than 0.100000
B(  0-S ,  1-C ) :   1.1579 B(  0-S ,  4-C ) :   1.1475 B(  1-C ,  2-C ) :   1.6058
B(  1-C , 32-H ) :   0.9642 B(  2-C ,  3-C ) :   1.2334 B(  2-C ,  6-C ) :   1.0135
B(  3-C ,  4-C ) :   1.5881 B(  3-C ,  5-H ) :   1.0156 B(  4-C , 20-C ) :   1.0110
B(  6-C ,  7-H ) :   0.9399 B(  6-C ,  8-H ) :   0.9339 B(  6-C ,  9-C ) :   1.0666
B(  9-C , 10-H ) :   0.9572 B(  9-C , 11-H ) :   0.9482 B(  9-C , 12-C ) :   1.0850
B( 12-C , 13-H ) :   0.9709 B( 12-C , 14-H ) :   0.9729 B( 12-C , 15-H ) :   0.9713
B( 16-S , 17-C ) :   1.1533 B( 16-S , 20-C ) :   1.1251 B( 17-C , 18-C ) :   1.6443
B( 17-C , 33-H ) :   0.9612 B( 18-C , 19-C ) :   1.2218 B( 18-C , 21-H ) :   0.9737
B( 19-C , 20-C ) :   1.6320 B( 19-C , 22-C ) :   1.0308 B( 22-C , 23-H ) :   0.9376
B( 22-C , 24-H ) :   0.9345 B( 22-C , 25-C ) :   1.0703 B( 25-C , 26-H ) :   0.9509
B( 25-C , 27-H ) :   0.9533 B( 25-C , 28-C ) :   1.0890 B( 28-C , 29-H ) :   0.9765
B( 28-C , 30-H ) :   0.9711 B( 28-C , 31-H ) :   0.9700

Dispersion correction           -0.014473646
FINAL SINGLE POINT ENERGY     -1339.859949275010

DIPOLE MOMENT
-------------
                                X             Y             Z
Electronic contribution:     -8.13968     -18.60084       1.83286
Nuclear contribution   :      8.49777      18.80519      -1.93489
                        -----------------------------------------
Total Dipole Moment    :      0.35809       0.20435      -0.10203
                        -----------------------------------------
Magnitude (a.u.)       :      0.42473
Magnitude (Debye)      :      1.07957

Rotational constants in cm-1:     0.019363     0.008300     0.007105
Rotational constants in MHz :   580.475685   248.826604   213.015400

                             ****ORCA TERMINATED NORMALLY****
TOTAL RUN TIME: 0 days 0 hours 0 minutes 21 seconds 480 msec
