                         Program Version 4.2.1 -  RELEASE  -
|  1> ! wB97X-D3 SP def2-SVP
|  2> %pal
|  3> nprocs 24
|  4> end
|  5>
|  6> * xyz 0 1
|  7> S 	 -106.538 	 61.6606 	 -96.7669
|  8> C 	 -107.854 	 60.796 	 -97.5969
|  9> C 	 -107.466 	 60.126 	 -98.7516
| 10> C 	 -106.088 	 60.4593 	 -99.0042
| 11> C 	 -105.407 	 61.1919 	 -98.0433
| 12> H 	 -105.432 	 60.0777 	 -99.7738
| 13> C 	 -108.283 	 59.1656 	 -99.5743
| 14> H 	 -108.982 	 58.748 	 -98.836
| 15> H 	 -107.608 	 58.3136 	 -99.9241
| 16> C 	 -109.008 	 59.8894 	 -100.706
| 17> H 	 -109.829 	 59.3624 	 -101.084
| 18> H 	 -109.343 	 60.8835 	 -100.404
| 19> C 	 -107.987 	 59.995 	 -101.843
| 20> H 	 -107.375 	 60.966 	 -101.702
| 21> H 	 -107.338 	 59.1607 	 -101.97
| 22> H 	 -108.52 	 59.879 	 -102.787
| 23> S 	 -103.696 	 63.2758 	 -98.1812
| 24> C 	 -101.971 	 63.1214 	 -98.1283
| 25> C 	 -101.608 	 61.7806 	 -98.0743
| 26> C 	 -102.784 	 60.8699 	 -98.1031
| 27> C 	 -103.991 	 61.5587 	 -98.036
| 28> H 	 -100.595 	 61.4945 	 -97.9444
| 29> C 	 -102.675 	 59.3971 	 -98.1389
| 30> H 	 -103.478 	 58.8921 	 -97.6032
| 31> H 	 -101.798 	 59.269 	 -97.6119
| 32> C 	 -102.626 	 58.7666 	 -99.5774
| 33> H 	 -102.522 	 59.4748 	 -100.418
| 34> H 	 -103.571 	 58.3053 	 -99.8594
| 35> C 	 -101.47 	 57.7621 	 -99.6217
| 36> H 	 -101.409 	 57.2074 	 -100.501
| 37> H 	 -101.461 	 57.1112 	 -98.7092
| 38> H 	 -100.596 	 58.3613 	 -99.7446
| 39> H 	 -108.858 	 60.7229 	 -97.2236
| 40> H 	 -101.241 	 63.9574 	 -98.2736
| 41> *
| 42>
| 43>                          ****END OF INPUT****

CARTESIAN COORDINATES (ANGSTROEM)
---------------------------------
  S    -106.538000   61.660600  -96.766900
  C    -107.854000   60.796000  -97.596900
  C    -107.466000   60.126000  -98.751600
  C    -106.088000   60.459300  -99.004200
  C    -105.407000   61.191900  -98.043300
  H    -105.432000   60.077700  -99.773800
  C    -108.283000   59.165600  -99.574300
  H    -108.982000   58.748000  -98.836000
  H    -107.608000   58.313600  -99.924100
  C    -109.008000   59.889400  -100.706000
  H    -109.829000   59.362400  -101.084000
  H    -109.343000   60.883500  -100.404000
  C    -107.987000   59.995000  -101.843000
  H    -107.375000   60.966000  -101.702000
  H    -107.338000   59.160700  -101.970000
  H    -108.520000   59.879000  -102.787000
  S    -103.696000   63.275800  -98.181200
  C    -101.971000   63.121400  -98.128300
  C    -101.608000   61.780600  -98.074300
  C    -102.784000   60.869900  -98.103100
  C    -103.991000   61.558700  -98.036000
  H    -100.595000   61.494500  -97.944400
  C    -102.675000   59.397100  -98.138900
  H    -103.478000   58.892100  -97.603200
  H    -101.798000   59.269000  -97.611900
  C    -102.626000   58.766600  -99.577400
  H    -102.522000   59.474800  -100.418000
  H    -103.571000   58.305300  -99.859400
  C    -101.470000   57.762100  -99.621700
  H    -101.409000   57.207400  -100.501000
  H    -101.461000   57.111200  -98.709200
  H    -100.596000   58.361300  -99.744600
  H    -108.858000   60.722900  -97.223600
  H    -101.241000   63.957400  -98.273600

 Total Charge           Charge          ....    0
 Multiplicity           Mult            ....    1
 Number of Electrons    NEL             ....  134
 Basis Dimension        Dim             ....  322

ORBITAL ENERGIES
----------------

  NO   OCC          E(Eh)            E(eV)
   0   2.0000     -88.967057     -2420.9167
   1   2.0000     -88.959456     -2420.7099
   2   2.0000     -10.329795      -281.0880
   3   2.0000     -10.324402      -280.9413
   4   2.0000     -10.321617      -280.8655
   5   2.0000     -10.316484      -280.7258
   6   2.0000     -10.307280      -280.4753
   7   2.0000     -10.304260      -280.3932
   8   2.0000     -10.299236      -280.2565
   9   2.0000     -10.297918      -280.2206
  10   2.0000     -10.293158      -280.0911
  11   2.0000     -10.288740      -279.9708
  12   2.0000     -10.283844      -279.8376
  13   2.0000     -10.283028      -279.8154
  14   2.0000     -10.278070      -279.6805
  15   2.0000     -10.273525      -279.5568
  16   2.0000      -8.080869      -219.8916
  17   2.0000      -8.074801      -219.7265
  18   2.0000      -6.039462      -164.3421
  19   2.0000      -6.035558      -164.2359
  20   2.0000      -6.033349      -164.1758
  21   2.0000      -6.031540      -164.1265
  22   2.0000      -6.029074      -164.0594
  23   2.0000      -6.025609      -163.9652
  24   2.0000      -1.001454       -27.2510
  25   2.0000      -0.978983       -26.6395
  26   2.0000      -0.917490       -24.9662
  27   2.0000      -0.910626       -24.7794
  28   2.0000      -0.868052       -23.6209
  29   2.0000      -0.851034       -23.1578
  30   2.0000      -0.842261       -22.9191
  31   2.0000      -0.813916       -22.1478
  32   2.0000      -0.780262       -21.2320
  33   2.0000      -0.768436       -20.9102
  34   2.0000      -0.709744       -19.3131
  35   2.0000      -0.706213       -19.2170
  36   2.0000      -0.692870       -18.8540
  37   2.0000      -0.663201       -18.0466
  38   2.0000      -0.642020       -17.4702
  39   2.0000      -0.612674       -16.6717
  40   2.0000      -0.595156       -16.1950
  41   2.0000      -0.576752       -15.6942
  42   2.0000      -0.557702       -15.1758
  43   2.0000      -0.554561       -15.0904
  44   2.0000      -0.539015       -14.6673
  45   2.0000      -0.532871       -14.5001
  46   2.0000      -0.516192       -14.0463
  47   2.0000      -0.513352       -13.9690
  48   2.0000      -0.506896       -13.7933
  49   2.0000      -0.498089       -13.5537
  50   2.0000      -0.485443       -13.2096
  51   2.0000      -0.477547       -12.9947
  52   2.0000      -0.468236       -12.7414
  53   2.0000      -0.463760       -12.6195
  54   2.0000      -0.457433       -12.4474
  55   2.0000      -0.447276       -12.1710
  56   2.0000      -0.446172       -12.1409
  57   2.0000      -0.442345       -12.0368
  58   2.0000      -0.434034       -11.8107
  59   2.0000      -0.425002       -11.5649
  60   2.0000      -0.416884       -11.3440
  61   2.0000      -0.413289       -11.2462
  62   2.0000      -0.407067       -11.0769
  63   2.0000      -0.339509        -9.2385
  64   2.0000      -0.330112        -8.9828
  65   2.0000      -0.320904        -8.7322
  66   2.0000      -0.299119        -8.1394
  67   0.0000       0.036213         0.9854
  68   0.0000       0.063667         1.7325
  69   0.0000       0.109757         2.9866
  70   0.0000       0.119386         3.2487
  71   0.0000       0.128926         3.5083

MULLIKEN ATOMIC CHARGES
-----------------------
   0 S :    0.116669
   1 C :   -0.113833
   2 C :   -0.101699
   3 C :    0.044401
   4 C :   -0.170088
   5 H :    0.000495
   6 C :    0.039380
   7 H :    0.023295
   8 H :    0.051020
   9 C :   -0.012197
  10 H :    0.017909
  11 H :    0.037033
  12 C :   -0.078367
  13 H :    0.068129
  14 H :    0.012884
  15 H :    0.024612
  16 S :    0.099114
  17 C :   -0.102107
  18 C :   -0.032053
  19 C :   -0.065780
  20 C :   -0.160098
  21 H :    0.011631
  22 C :    0.100949
  23 H :    0.040065
  24 H :    0.005578
  25 C :   -0.085066
  26 H :    0.034020
  27 H :    0.026289
  28 C :   -0.030017
  29 H :    0.010609
  30 H :    0.048993
  31 H :    0.020191
  32 H :    0.038203
  33 H :    0.079836
Sum of atomic charges:   -0.0000000

LOEWDIN ATOMIC CHARGES
----------------------
   0 S :    0.389177
   1 C :   -0.183088
   2 C :   -0.061607
   3 C :   -0.062388
   4 C :   -0.199338
   5 H :    0.027264
   6 C :   -0.032201
   7 H :    0.029566
   8 H :    0.040475
   9 C :   -0.032966
  10 H :    0.015322
  11 H :    0.030648
  12 C :   -0.073078
  13 H :    0.042464
  14 H :    0.015647
  15 H :    0.026503
  16 S :    0.411715
  17 C :   -0.196264
  18 C :   -0.074297
  19 C :   -0.046977
  20 C :   -0.206359
  21 H :    0.024775
  22 C :   -0.026369
  23 H :    0.039273
  24 H :    0.021788
  25 C :   -0.038390
  26 H :    0.025560
  27 H :    0.017814
  28 C :   -0.062266
  29 H :    0.015314
  30 H :    0.032044
  31 H :    0.024411
  32 H :    0.022740
  33 H :    0.043087

  Mayer bond orders larger than 0.100000
B(  0-S ,  1-C ) :   1.1421 B(  0-S ,  4-C ) :   1.1322 B(  1-C ,  2-C ) :   1.6265
B(  1-C , 32-H ) :   0.9635 B(  2-C ,  3-C ) :   1.2195 B(  2-C ,  6-C ) :   1.0127
B(  3-C ,  4-C ) :   1.6092 B(  3-C ,  5-H ) :   0.9888 B(  4-C , 20-C ) :   1.0198
B(  6-C ,  7-H ) :   0.9339 B(  6-C ,  8-H ) :   0.9523 B(  6-C ,  9-C ) :   1.0614
B(  9-C , 10-H ) :   0.9599 B(  9-C , 11-H ) :   0.9560 B(  9-C , 12-C ) :   1.0722
B( 12-C , 13-H ) :   0.9736 B( 12-C , 14-H ) :   0.9747 B( 12-C , 15-H ) :   0.9743
B( 16-S , 17-C ) :   1.1630 B( 16-S , 20-C ) :   1.1406 B( 17-C , 18-C ) :   1.6102
B( 17-C , 33-H ) :   0.9608 B( 18-C , 19-C ) :   1.2139 B( 18-C , 21-H ) :   0.9946
B( 19-C , 20-C ) :   1.6060 B( 19-C , 22-C ) :   1.0647 B( 22-C , 23-H ) :   0.9307
B( 22-C , 24-H ) :   0.9368 B( 22-C , 25-C ) :   1.0241 B( 25-C , 26-H ) :   0.9670
B( 25-C , 27-H ) :   0.9551 B( 25-C , 28-C ) :   1.0749 B( 28-C , 29-H ) :   0.9694
B( 28-C , 30-H ) :   0.9776 B( 28-C , 31-H ) :   0.9740

Dispersion correction           -0.014613824
FINAL SINGLE POINT ENERGY     -1339.859071060758

DIPOLE MOMENT
-------------
                                X             Y             Z
Electronic contribution:      0.15182      20.89078      17.63077
Nuclear contribution   :     -0.08198     -21.51846     -18.07758
                        -----------------------------------------
Total Dipole Moment    :      0.06984      -0.62769      -0.44681
                        -----------------------------------------
Magnitude (a.u.)       :      0.77363
Magnitude (Debye)      :      1.96642

Rotational constants in cm-1:     0.017114     0.009141     0.007108
Rotational constants in MHz :   513.078282   274.035947   213.095791

                             ****ORCA TERMINATED NORMALLY****
TOTAL RUN TIME: 0 days 0 hours 0 minutes 21 seconds 940 msec
