                         Program Version 4.2.1 -  RELEASE  -
|  1> ! wB97X-D3 SP def2-SVP
|  2> %pal
|  3> nprocs 24
|  4> end
|  5>
|  6> * xyz 0 1
|  7> S 	 -107.994 	 64.41 	 -13.1292
|  8> C 	 -108.126 	 65.3852 	 -11.6603
|  9> C 	 -106.897 	 65.3972 	 -11.0221
| 10> C 	 -105.944 	 64.5857 	 -11.7026
| 11> C 	 -106.312 	 64.1003 	 -12.9311
| 12> H 	 -104.952 	 64.4452 	 -11.359
| 13> C 	 -106.584 	 66.0099 	 -9.64479
| 14> H 	 -105.534 	 66.4074 	 -9.67938
| 15> H 	 -106.969 	 65.2322 	 -8.97518
| 16> C 	 -107.459 	 67.2334 	 -9.23456
| 17> H 	 -107.158 	 68.1151 	 -9.84091
| 18> H 	 -108.541 	 67.138 	 -9.50734
| 19> C 	 -107.137 	 67.6197 	 -7.7833
| 20> H 	 -107.47 	 66.9057 	 -7.10671
| 21> H 	 -106.046 	 67.6666 	 -7.63446
| 22> H 	 -107.551 	 68.5061 	 -7.39143
| 23> S 	 -104.26 	 63.8496 	 -14.6375
| 24> C 	 -104.193 	 62.6283 	 -15.8981
| 25> C 	 -105.206 	 61.7123 	 -15.6
| 26> C 	 -105.99 	 61.9483 	 -14.4194
| 27> C 	 -105.64 	 63.1739 	 -13.8828
| 28> H 	 -105.342 	 60.9253 	 -16.2943
| 29> C 	 -107.162 	 61.129 	 -14.0232
| 30> H 	 -107.471 	 60.6586 	 -14.9266
| 31> H 	 -108.056 	 61.5818 	 -13.6306
| 32> C 	 -106.895 	 60.1906 	 -12.8807
| 33> H 	 -107.872 	 59.7944 	 -12.6315
| 34> H 	 -106.52 	 60.7336 	 -12.0392
| 35> C 	 -105.927 	 59.0084 	 -13.2041
| 36> H 	 -105.986 	 58.4666 	 -12.2952
| 37> H 	 -104.862 	 59.4107 	 -13.2846
| 38> H 	 -106.147 	 58.245 	 -13.9914
| 39> H 	 -108.992 	 65.9017 	 -11.2806
| 40> H 	 -103.493 	 62.544 	 -16.7159
| 41> *
| 42>
| 43>                          ****END OF INPUT****

CARTESIAN COORDINATES (ANGSTROEM)
---------------------------------
  S    -107.994000   64.410000  -13.129200
  C    -108.126000   65.385200  -11.660300
  C    -106.897000   65.397200  -11.022100
  C    -105.944000   64.585700  -11.702600
  C    -106.312000   64.100300  -12.931100
  H    -104.952000   64.445200  -11.359000
  C    -106.584000   66.009900   -9.644790
  H    -105.534000   66.407400   -9.679380
  H    -106.969000   65.232200   -8.975180
  C    -107.459000   67.233400   -9.234560
  H    -107.158000   68.115100   -9.840910
  H    -108.541000   67.138000   -9.507340
  C    -107.137000   67.619700   -7.783300
  H    -107.470000   66.905700   -7.106710
  H    -106.046000   67.666600   -7.634460
  H    -107.551000   68.506100   -7.391430
  S    -104.260000   63.849600  -14.637500
  C    -104.193000   62.628300  -15.898100
  C    -105.206000   61.712300  -15.600000
  C    -105.990000   61.948300  -14.419400
  C    -105.640000   63.173900  -13.882800
  H    -105.342000   60.925300  -16.294300
  C    -107.162000   61.129000  -14.023200
  H    -107.471000   60.658600  -14.926600
  H    -108.056000   61.581800  -13.630600
  C    -106.895000   60.190600  -12.880700
  H    -107.872000   59.794400  -12.631500
  H    -106.520000   60.733600  -12.039200
  C    -105.927000   59.008400  -13.204100
  H    -105.986000   58.466600  -12.295200
  H    -104.862000   59.410700  -13.284600
  H    -106.147000   58.245000  -13.991400
  H    -108.992000   65.901700  -11.280600
  H    -103.493000   62.544000  -16.715900

 Total Charge           Charge          ....    0
 Multiplicity           Mult            ....    1
 Number of Electrons    NEL             ....  134
 Basis Dimension        Dim             ....  322

ORBITAL ENERGIES
----------------

  NO   OCC          E(Eh)            E(eV)
   0   2.0000     -88.963561     -2420.8216
   1   2.0000     -88.962988     -2420.8060
   2   2.0000     -10.329425      -281.0779
   3   2.0000     -10.326830      -281.0073
   4   2.0000     -10.318652      -280.7848
   5   2.0000     -10.313996      -280.6581
   6   2.0000     -10.303121      -280.3622
   7   2.0000     -10.302720      -280.3513
   8   2.0000     -10.301111      -280.3075
   9   2.0000     -10.294891      -280.1382
  10   2.0000     -10.293989      -280.1137
  11   2.0000     -10.288779      -279.9719
  12   2.0000     -10.280574      -279.7486
  13   2.0000     -10.277643      -279.6689
  14   2.0000     -10.276358      -279.6339
  15   2.0000     -10.272808      -279.5373
  16   2.0000      -8.078277      -219.8211
  17   2.0000      -8.078137      -219.8173
  18   2.0000      -6.036762      -164.2687
  19   2.0000      -6.036740      -164.2681
  20   2.0000      -6.032465      -164.1517
  21   2.0000      -6.032418      -164.1504
  22   2.0000      -6.029305      -164.0657
  23   2.0000      -6.028980      -164.0569
  24   2.0000      -1.010307       -27.4918
  25   2.0000      -0.987106       -26.8605
  26   2.0000      -0.914523       -24.8854
  27   2.0000      -0.910874       -24.7861
  28   2.0000      -0.868015       -23.6199
  29   2.0000      -0.848996       -23.1023
  30   2.0000      -0.842348       -22.9215
  31   2.0000      -0.815891       -22.2015
  32   2.0000      -0.784965       -21.3600
  33   2.0000      -0.775592       -21.1049
  34   2.0000      -0.709462       -19.3054
  35   2.0000      -0.703000       -19.1296
  36   2.0000      -0.686169       -18.6716
  37   2.0000      -0.666584       -18.1387
  38   2.0000      -0.638971       -17.3873
  39   2.0000      -0.616932       -16.7876
  40   2.0000      -0.598524       -16.2867
  41   2.0000      -0.581940       -15.8354
  42   2.0000      -0.569848       -15.5064
  43   2.0000      -0.549645       -14.9566
  44   2.0000      -0.541480       -14.7344
  45   2.0000      -0.525970       -14.3124
  46   2.0000      -0.518045       -14.0967
  47   2.0000      -0.512127       -13.9357
  48   2.0000      -0.506398       -13.7798
  49   2.0000      -0.499492       -13.5919
  50   2.0000      -0.487781       -13.2732
  51   2.0000      -0.484371       -13.1804
  52   2.0000      -0.478446       -13.0192
  53   2.0000      -0.467708       -12.7270
  54   2.0000      -0.457835       -12.4583
  55   2.0000      -0.447473       -12.1764
  56   2.0000      -0.440598       -11.9893
  57   2.0000      -0.431660       -11.7461
  58   2.0000      -0.429515       -11.6877
  59   2.0000      -0.423969       -11.5368
  60   2.0000      -0.416180       -11.3248
  61   2.0000      -0.414490       -11.2788
  62   2.0000      -0.401854       -10.9350
  63   2.0000      -0.342215        -9.3121
  64   2.0000      -0.327730        -8.9180
  65   2.0000      -0.326812        -8.8930
  66   2.0000      -0.299929        -8.1615
  67   0.0000       0.035213         0.9582
  68   0.0000       0.065292         1.7767
  69   0.0000       0.116425         3.1681
  70   0.0000       0.128451         3.4953
  71   0.0000       0.132520         3.6060

MULLIKEN ATOMIC CHARGES
-----------------------
   0 S :    0.106311
   1 C :   -0.132582
   2 C :   -0.091882
   3 C :    0.040746
   4 C :   -0.120956
   5 H :   -0.009107
   6 C :    0.048474
   7 H :    0.057572
   8 H :    0.059023
   9 C :   -0.127250
  10 H :    0.033629
  11 H :    0.034160
  12 C :    0.001989
  13 H :    0.009175
  14 H :    0.024547
  15 H :    0.021114
  16 S :    0.110326
  17 C :   -0.092056
  18 C :   -0.048515
  19 C :    0.000075
  20 C :   -0.174326
  21 H :    0.006253
  22 C :    0.091151
  23 H :    0.006138
  24 H :    0.020526
  25 C :   -0.065114
  26 H :    0.020694
  27 H :    0.030972
  28 C :   -0.077094
  29 H :    0.020841
  30 H :    0.051235
  31 H :    0.042193
  32 H :    0.043177
  33 H :    0.058557
Sum of atomic charges:   -0.0000000

LOEWDIN ATOMIC CHARGES
----------------------
   0 S :    0.422899
   1 C :   -0.199717
   2 C :   -0.067732
   3 C :   -0.067545
   4 C :   -0.201632
   5 H :    0.022703
   6 C :   -0.031805
   7 H :    0.044612
   8 H :    0.045165
   9 C :   -0.049712
  10 H :    0.026137
  11 H :    0.023069
  12 C :   -0.060677
  13 H :    0.015245
  14 H :    0.030447
  15 H :    0.021499
  16 S :    0.426506
  17 C :   -0.190936
  18 C :   -0.062355
  19 C :   -0.059804
  20 C :   -0.206625
  21 H :    0.022513
  22 C :   -0.039611
  23 H :    0.026539
  24 H :    0.026626
  25 C :   -0.027352
  26 H :    0.021680
  27 H :    0.026604
  28 C :   -0.080162
  29 H :    0.020636
  30 H :    0.034665
  31 H :    0.029037
  32 H :    0.026217
  33 H :    0.032865

  Mayer bond orders larger than 0.100000
B(  0-S ,  1-C ) :   1.1408 B(  0-S ,  4-C ) :   1.1617 B(  1-C ,  2-C ) :   1.5945
B(  1-C , 32-H ) :   0.9725 B(  2-C ,  3-C ) :   1.2629 B(  2-C ,  6-C ) :   1.0028
B(  3-C ,  4-C ) :   1.5768 B(  3-C ,  5-H ) :   0.9996 B(  4-C , 20-C ) :   0.9741
B(  6-C ,  7-H ) :   0.9456 B(  6-C ,  8-H ) :   0.9415 B(  6-C ,  9-C ) :   1.0628
B(  9-C , 10-H ) :   0.9590 B(  9-C , 11-H ) :   0.9542 B(  9-C , 12-C ) :   1.0762
B( 12-C , 13-H ) :   0.9744 B( 12-C , 14-H ) :   0.9703 B( 12-C , 15-H ) :   0.9724
B( 16-S , 17-C ) :   1.1491 B( 16-S , 20-C ) :   1.1802 B( 17-C , 18-C ) :   1.5942
B( 17-C , 20-C ) :   0.1021 B( 17-C , 33-H ) :   0.9734 B( 18-C , 19-C ) :   1.2384
B( 18-C , 21-H ) :   0.9927 B( 19-C , 20-C ) :   1.5675 B( 19-C , 22-C ) :   1.0421
B( 22-C , 23-H ) :   0.9283 B( 22-C , 24-H ) :   0.9395 B( 22-C , 25-C ) :   1.0685
B( 25-C , 26-H ) :   0.9593 B( 25-C , 27-H ) :   0.9540 B( 25-C , 28-C ) :   1.0731
B( 28-C , 29-H ) :   0.9743 B( 28-C , 30-H ) :   0.9730 B( 28-C , 31-H ) :   0.9768

Dispersion correction           -0.014021783
FINAL SINGLE POINT ENERGY     -1339.857232259910

DIPOLE MOMENT
-------------
                                X             Y             Z
Electronic contribution:      4.44849       3.79086     -19.02957
Nuclear contribution   :     -4.57010      -3.93649      19.43159
                        -----------------------------------------
Total Dipole Moment    :     -0.12161      -0.14563       0.40202
                        -----------------------------------------
Magnitude (a.u.)       :      0.44454
Magnitude (Debye)      :      1.12994

Rotational constants in cm-1:     0.024306     0.006878     0.006197
Rotational constants in MHz :   728.678038   206.182517   185.781534

                             ****ORCA TERMINATED NORMALLY****
TOTAL RUN TIME: 0 days 0 hours 0 minutes 20 seconds 44 msec
