                         Program Version 4.2.1 -  RELEASE  -
|  1> ! wB97X-D3 SP def2-SVP
|  2> %pal
|  3> nprocs 24
|  4> end
|  5>
|  6> * xyz 0 1
|  7> S 	 -132.126 	 58.3908 	 -63.9829
|  8> C 	 -130.48 	 58.2136 	 -64.4346
|  9> C 	 -129.583 	 58.327 	 -63.3651
| 10> C 	 -130.288 	 58.5021 	 -62.1909
| 11> C 	 -131.622 	 58.6355 	 -62.3278
| 12> H 	 -129.815 	 58.5676 	 -61.2276
| 13> C 	 -128.073 	 58.3362 	 -63.2953
| 14> H 	 -127.862 	 58.3521 	 -62.2469
| 15> H 	 -127.893 	 59.3726 	 -63.5635
| 16> C 	 -127.236 	 57.2988 	 -64.0264
| 17> H 	 -127.156 	 57.5166 	 -65.1157
| 18> H 	 -126.204 	 57.3778 	 -63.6732
| 19> C 	 -127.955 	 55.9183 	 -63.9002
| 20> H 	 -128.746 	 55.6804 	 -64.5648
| 21> H 	 -127.256 	 55.0978 	 -64.1379
| 22> H 	 -128.287 	 55.6974 	 -62.8105
| 23> S 	 -133.889 	 59.5774 	 -61.1149
| 24> C 	 -134.648 	 58.7923 	 -59.7837
| 25> C 	 -133.886 	 57.713 	 -59.4458
| 26> C 	 -132.675 	 57.5195 	 -60.2452
| 27> C 	 -132.543 	 58.4668 	 -61.2344
| 28> H 	 -134.234 	 57.0419 	 -58.6902
| 29> C 	 -131.783 	 56.2877 	 -60.0789
| 30> H 	 -131.732 	 55.9811 	 -58.9831
| 31> H 	 -130.821 	 56.6458 	 -60.4562
| 32> C 	 -132.169 	 55.0368 	 -60.8126
| 33> H 	 -131.241 	 54.5498 	 -60.5259
| 34> H 	 -132.101 	 55.2866 	 -61.8699
| 35> C 	 -133.432 	 54.2946 	 -60.5058
| 36> H 	 -134.389 	 54.7366 	 -60.7731
| 37> H 	 -133.527 	 54.0572 	 -59.4973
| 38> H 	 -133.32 	 53.4224 	 -61.1146
| 39> H 	 -130.06 	 58.0253 	 -65.4037
| 40> H 	 -135.647 	 59.0638 	 -59.4848
| 41> *
| 42>
| 43>                          ****END OF INPUT****

CARTESIAN COORDINATES (ANGSTROEM)
---------------------------------
  S    -132.126000   58.390800  -63.982900
  C    -130.480000   58.213600  -64.434600
  C    -129.583000   58.327000  -63.365100
  C    -130.288000   58.502100  -62.190900
  C    -131.622000   58.635500  -62.327800
  H    -129.815000   58.567600  -61.227600
  C    -128.073000   58.336200  -63.295300
  H    -127.862000   58.352100  -62.246900
  H    -127.893000   59.372600  -63.563500
  C    -127.236000   57.298800  -64.026400
  H    -127.156000   57.516600  -65.115700
  H    -126.204000   57.377800  -63.673200
  C    -127.955000   55.918300  -63.900200
  H    -128.746000   55.680400  -64.564800
  H    -127.256000   55.097800  -64.137900
  H    -128.287000   55.697400  -62.810500
  S    -133.889000   59.577400  -61.114900
  C    -134.648000   58.792300  -59.783700
  C    -133.886000   57.713000  -59.445800
  C    -132.675000   57.519500  -60.245200
  C    -132.543000   58.466800  -61.234400
  H    -134.234000   57.041900  -58.690200
  C    -131.783000   56.287700  -60.078900
  H    -131.732000   55.981100  -58.983100
  H    -130.821000   56.645800  -60.456200
  C    -132.169000   55.036800  -60.812600
  H    -131.241000   54.549800  -60.525900
  H    -132.101000   55.286600  -61.869900
  C    -133.432000   54.294600  -60.505800
  H    -134.389000   54.736600  -60.773100
  H    -133.527000   54.057200  -59.497300
  H    -133.320000   53.422400  -61.114600
  H    -130.060000   58.025300  -65.403700
  H    -135.647000   59.063800  -59.484800

 Total Charge           Charge          ....    0
 Multiplicity           Mult            ....    1
 Number of Electrons    NEL             ....  134
 Basis Dimension        Dim             ....  322

ORBITAL ENERGIES
----------------

  NO   OCC          E(Eh)            E(eV)
   0   2.0000     -88.971833     -2421.0467
   1   2.0000     -88.952205     -2420.5126
   2   2.0000     -10.319707      -280.8135
   3   2.0000     -10.319408      -280.8054
   4   2.0000     -10.311799      -280.5983
   5   2.0000     -10.311484      -280.5898
   6   2.0000     -10.298593      -280.2390
   7   2.0000     -10.298571      -280.2384
   8   2.0000     -10.295472      -280.1540
   9   2.0000     -10.290592      -280.0212
  10   2.0000     -10.289594      -279.9941
  11   2.0000     -10.289445      -279.9900
  12   2.0000     -10.286157      -279.9005
  13   2.0000     -10.283621      -279.8316
  14   2.0000     -10.277526      -279.6657
  15   2.0000     -10.267952      -279.4052
  16   2.0000      -8.086775      -220.0523
  17   2.0000      -8.068187      -219.5465
  18   2.0000      -6.045170      -164.4974
  19   2.0000      -6.041297      -164.3921
  20   2.0000      -6.037585      -164.2910
  21   2.0000      -6.026654      -163.9936
  22   2.0000      -6.022310      -163.8754
  23   2.0000      -6.019138      -163.7891
  24   2.0000      -1.014200       -27.5978
  25   2.0000      -0.987603       -26.8740
  26   2.0000      -0.916419       -24.9370
  27   2.0000      -0.913732       -24.8639
  28   2.0000      -0.872034       -23.7292
  29   2.0000      -0.857669       -23.3384
  30   2.0000      -0.842764       -22.9328
  31   2.0000      -0.811794       -22.0900
  32   2.0000      -0.789372       -21.4799
  33   2.0000      -0.780917       -21.2498
  34   2.0000      -0.715091       -19.4586
  35   2.0000      -0.705232       -19.1903
  36   2.0000      -0.685939       -18.6654
  37   2.0000      -0.661307       -17.9951
  38   2.0000      -0.641544       -17.4573
  39   2.0000      -0.614441       -16.7198
  40   2.0000      -0.591372       -16.0920
  41   2.0000      -0.573021       -15.5927
  42   2.0000      -0.562665       -15.3109
  43   2.0000      -0.561444       -15.2777
  44   2.0000      -0.545087       -14.8326
  45   2.0000      -0.535596       -14.5743
  46   2.0000      -0.519941       -14.1483
  47   2.0000      -0.509269       -13.8579
  48   2.0000      -0.505857       -13.7651
  49   2.0000      -0.496705       -13.5160
  50   2.0000      -0.490620       -13.3504
  51   2.0000      -0.482353       -13.1255
  52   2.0000      -0.476348       -12.9621
  53   2.0000      -0.469219       -12.7681
  54   2.0000      -0.459013       -12.4904
  55   2.0000      -0.452929       -12.3248
  56   2.0000      -0.436442       -11.8762
  57   2.0000      -0.433592       -11.7986
  58   2.0000      -0.432335       -11.7644
  59   2.0000      -0.425542       -11.5796
  60   2.0000      -0.418900       -11.3988
  61   2.0000      -0.417749       -11.3675
  62   2.0000      -0.397542       -10.8177
  63   2.0000      -0.344720        -9.3803
  64   2.0000      -0.336063        -9.1447
  65   2.0000      -0.321062        -8.7365
  66   2.0000      -0.293107        -7.9758
  67   0.0000       0.034525         0.9395
  68   0.0000       0.070448         1.9170
  69   0.0000       0.116534         3.1710
  70   0.0000       0.120375         3.2756
  71   0.0000       0.133620         3.6360

MULLIKEN ATOMIC CHARGES
-----------------------
   0 S :    0.140412
   1 C :   -0.108676
   2 C :   -0.118738
   3 C :   -0.024744
   4 C :   -0.087040
   5 H :    0.018796
   6 C :    0.090070
   7 H :    0.007206
   8 H :    0.038687
   9 C :   -0.041333
  10 H :    0.032659
  11 H :    0.040425
  12 C :   -0.074790
  13 H :    0.034434
  14 H :    0.027771
  15 H :    0.042706
  16 S :    0.074159
  17 C :   -0.082140
  18 C :   -0.033071
  19 C :   -0.044292
  20 C :   -0.186240
  21 H :    0.007524
  22 C :    0.049557
  23 H :    0.025007
  24 H :    0.005569
  25 C :   -0.066255
  26 H :    0.027891
  27 H :    0.025458
  28 C :    0.014595
  29 H :    0.035783
  30 H :    0.007598
  31 H :    0.030694
  32 H :    0.029136
  33 H :    0.061181
Sum of atomic charges:   -0.0000000

LOEWDIN ATOMIC CHARGES
----------------------
   0 S :    0.436693
   1 C :   -0.207592
   2 C :   -0.061886
   3 C :   -0.059478
   4 C :   -0.204720
   5 H :    0.031604
   6 C :   -0.034455
   7 H :    0.027093
   8 H :    0.039627
   9 C :   -0.042176
  10 H :    0.028420
  11 H :    0.031392
  12 C :   -0.073481
  13 H :    0.022338
  14 H :    0.026395
  15 H :    0.034251
  16 S :    0.399432
  17 C :   -0.189744
  18 C :   -0.074518
  19 C :   -0.060255
  20 C :   -0.203345
  21 H :    0.024522
  22 C :   -0.036982
  23 H :    0.032614
  24 H :    0.028268
  25 C :   -0.042968
  26 H :    0.030885
  27 H :    0.025551
  28 C :   -0.058185
  29 H :    0.030102
  30 H :    0.015080
  31 H :    0.032585
  32 H :    0.022664
  33 H :    0.030271

  Mayer bond orders larger than 0.100000
B(  0-S ,  1-C ) :   1.1608 B(  0-S ,  4-C ) :   1.1523 B(  1-C ,  2-C ) :   1.5758
B(  1-C , 32-H ) :   0.9651 B(  2-C ,  3-C ) :   1.2840 B(  2-C ,  6-C ) :   0.9981
B(  3-C ,  4-C ) :   1.5608 B(  3-C ,  5-H ) :   0.9947 B(  4-C , 20-C ) :   1.0153
B(  6-C ,  7-H ) :   0.9381 B(  6-C ,  8-H ) :   0.9267 B(  6-C ,  9-C ) :   1.0686
B(  9-C , 10-H ) :   0.9510 B(  9-C , 11-H ) :   0.9581 B(  9-C , 12-C ) :   1.0720
B( 12-C , 13-H ) :   0.9709 B( 12-C , 14-H ) :   0.9726 B( 12-C , 15-H ) :   0.9776
B( 16-S , 17-C ) :   1.1602 B( 16-S , 20-C ) :   1.1347 B( 17-C , 18-C ) :   1.5931
B( 17-C , 33-H ) :   0.9729 B( 18-C , 19-C ) :   1.2316 B( 18-C , 21-H ) :   0.9969
B( 19-C , 20-C ) :   1.6070 B( 19-C , 22-C ) :   1.0399 B( 22-C , 23-H ) :   0.9323
B( 22-C , 24-H ) :   0.9249 B( 22-C , 25-C ) :   1.0770 B( 25-C , 26-H ) :   0.9554
B( 25-C , 27-H ) :   0.9472 B( 25-C , 28-C ) :   1.0836 B( 28-C , 29-H ) :   0.9692
B( 28-C , 30-H ) :   0.9702 B( 28-C , 31-H ) :   0.9677

Dispersion correction           -0.015605574
FINAL SINGLE POINT ENERGY     -1339.861576627727

DIPOLE MOMENT
-------------
                                X             Y             Z
Electronic contribution:    -16.85773      20.68956      -2.08889
Nuclear contribution   :     17.39254     -21.26970       2.11747
                        -----------------------------------------
Total Dipole Moment    :      0.53481      -0.58013       0.02859
                        -----------------------------------------
Magnitude (a.u.)       :      0.78956
Magnitude (Debye)      :      2.00689

Rotational constants in cm-1:     0.020925     0.009132     0.007416
Rotational constants in MHz :   627.324719   273.781746   222.335814

                             ****ORCA TERMINATED NORMALLY****
TOTAL RUN TIME: 0 days 0 hours 0 minutes 22 seconds 740 msec
