                         Program Version 4.2.1 -  RELEASE  -
|  1> ! wB97X-D3 SP def2-SVP
|  2> %pal
|  3> nprocs 24
|  4> end
|  5>
|  6> * xyz 0 1
|  7> S 	 -32.1587 	 -9.0602 	 14.2915
|  8> C 	 -32.315 	 -8.79202 	 15.9715
|  9> C 	 -33.3802 	 -9.49639 	 16.4892
| 10> C 	 -34.1168 	 -10.1287 	 15.4492
| 11> C 	 -33.587 	 -10.0654 	 14.2045
| 12> H 	 -34.9304 	 -10.8012 	 15.6537
| 13> C 	 -33.8058 	 -9.52989 	 17.9074
| 14> H 	 -32.9058 	 -9.24893 	 18.3831
| 15> H 	 -34.0059 	 -10.5536 	 18.3226
| 16> C 	 -34.8518 	 -8.52646 	 18.2936
| 17> H 	 -34.9912 	 -8.6569 	 19.3993
| 18> H 	 -34.3975 	 -7.49697 	 18.2247
| 19> C 	 -36.265 	 -8.66354 	 17.6238
| 20> H 	 -36.6225 	 -9.68506 	 17.7313
| 21> H 	 -36.9972 	 -8.04688 	 18.1412
| 22> H 	 -36.134 	 -8.31839 	 16.6166
| 23> S 	 -32.7185 	 -11.894 	 12.2836
| 24> C 	 -33.871 	 -12.653 	 11.1463
| 25> C 	 -35.1083 	 -12.1055 	 11.4025
| 26> C 	 -35.216 	 -11.1378 	 12.4635
| 27> C 	 -33.9906 	 -10.8502 	 13.0221
| 28> H 	 -35.9687 	 -12.4788 	 10.8483
| 29> C 	 -36.5555 	 -10.5782 	 12.822
| 30> H 	 -36.6625 	 -10.2283 	 13.8514
| 31> H 	 -37.1836 	 -11.4649 	 12.6853
| 32> C 	 -37.0497 	 -9.37805 	 11.9443
| 33> H 	 -36.7699 	 -9.60148 	 10.926
| 34> H 	 -36.4566 	 -8.50483 	 12.2542
| 35> C 	 -38.5381 	 -9.23705 	 12.09
| 36> H 	 -39.1085 	 -10.1431 	 12.1994
| 37> H 	 -38.9452 	 -8.7709 	 11.1444
| 38> H 	 -38.7063 	 -8.58235 	 12.9245
| 39> H 	 -31.6313 	 -8.2286 	 16.5151
| 40> H 	 -33.5481 	 -13.3405 	 10.34
| 41> *
| 42>
| 43>                          ****END OF INPUT****

CARTESIAN COORDINATES (ANGSTROEM)
---------------------------------
  S    -32.158700   -9.060200   14.291500
  C    -32.315000   -8.792020   15.971500
  C    -33.380200   -9.496390   16.489200
  C    -34.116800  -10.128700   15.449200
  C    -33.587000  -10.065400   14.204500
  H    -34.930400  -10.801200   15.653700
  C    -33.805800   -9.529890   17.907400
  H    -32.905800   -9.248930   18.383100
  H    -34.005900  -10.553600   18.322600
  C    -34.851800   -8.526460   18.293600
  H    -34.991200   -8.656900   19.399300
  H    -34.397500   -7.496970   18.224700
  C    -36.265000   -8.663540   17.623800
  H    -36.622500   -9.685060   17.731300
  H    -36.997200   -8.046880   18.141200
  H    -36.134000   -8.318390   16.616600
  S    -32.718500  -11.894000   12.283600
  C    -33.871000  -12.653000   11.146300
  C    -35.108300  -12.105500   11.402500
  C    -35.216000  -11.137800   12.463500
  C    -33.990600  -10.850200   13.022100
  H    -35.968700  -12.478800   10.848300
  C    -36.555500  -10.578200   12.822000
  H    -36.662500  -10.228300   13.851400
  H    -37.183600  -11.464900   12.685300
  C    -37.049700   -9.378050   11.944300
  H    -36.769900   -9.601480   10.926000
  H    -36.456600   -8.504830   12.254200
  C    -38.538100   -9.237050   12.090000
  H    -39.108500  -10.143100   12.199400
  H    -38.945200   -8.770900   11.144400
  H    -38.706300   -8.582350   12.924500
  H    -31.631300   -8.228600   16.515100
  H    -33.548100  -13.340500   10.340000

 Total Charge           Charge          ....    0
 Multiplicity           Mult            ....    1
 Number of Electrons    NEL             ....  134
 Basis Dimension        Dim             ....  322

ORBITAL ENERGIES
----------------

  NO   OCC          E(Eh)            E(eV)
   0   2.0000     -88.963939     -2420.8319
   1   2.0000     -88.959364     -2420.7074
   2   2.0000     -10.332158      -281.1523
   3   2.0000     -10.327463      -281.0245
   4   2.0000     -10.324752      -280.9508
   5   2.0000     -10.309214      -280.5280
   6   2.0000     -10.303341      -280.3682
   7   2.0000     -10.296160      -280.1728
   8   2.0000     -10.295763      -280.1620
   9   2.0000     -10.292637      -280.0769
  10   2.0000     -10.290683      -280.0237
  11   2.0000     -10.287003      -279.9236
  12   2.0000     -10.286401      -279.9072
  13   2.0000     -10.284361      -279.8517
  14   2.0000     -10.279365      -279.7157
  15   2.0000     -10.277048      -279.6527
  16   2.0000      -8.079587      -219.8567
  17   2.0000      -8.073108      -219.6804
  18   2.0000      -6.038052      -164.3038
  19   2.0000      -6.033821      -164.1886
  20   2.0000      -6.031793      -164.1334
  21   2.0000      -6.030471      -164.0975
  22   2.0000      -6.027734      -164.0230
  23   2.0000      -6.023741      -163.9143
  24   2.0000      -1.009152       -27.4604
  25   2.0000      -0.982596       -26.7378
  26   2.0000      -0.916370       -24.9357
  27   2.0000      -0.909180       -24.7401
  28   2.0000      -0.869893       -23.6710
  29   2.0000      -0.850738       -23.1498
  30   2.0000      -0.844091       -22.9689
  31   2.0000      -0.818089       -22.2613
  32   2.0000      -0.784571       -21.3493
  33   2.0000      -0.771887       -21.0041
  34   2.0000      -0.705836       -19.2068
  35   2.0000      -0.698387       -19.0041
  36   2.0000      -0.694180       -18.8896
  37   2.0000      -0.662220       -18.0199
  38   2.0000      -0.646632       -17.5958
  39   2.0000      -0.619771       -16.8648
  40   2.0000      -0.598639       -16.2898
  41   2.0000      -0.576287       -15.6816
  42   2.0000      -0.564190       -15.3524
  43   2.0000      -0.547207       -14.8903
  44   2.0000      -0.543234       -14.7821
  45   2.0000      -0.524470       -14.2716
  46   2.0000      -0.520376       -14.1601
  47   2.0000      -0.513385       -13.9699
  48   2.0000      -0.505008       -13.7420
  49   2.0000      -0.499379       -13.5888
  50   2.0000      -0.492321       -13.3967
  51   2.0000      -0.487355       -13.2616
  52   2.0000      -0.470442       -12.8014
  53   2.0000      -0.468471       -12.7477
  54   2.0000      -0.464087       -12.6284
  55   2.0000      -0.449070       -12.2198
  56   2.0000      -0.440250       -11.9798
  57   2.0000      -0.434536       -11.8243
  58   2.0000      -0.430036       -11.7019
  59   2.0000      -0.422114       -11.4863
  60   2.0000      -0.418421       -11.3858
  61   2.0000      -0.410337       -11.1658
  62   2.0000      -0.407272       -11.0824
  63   2.0000      -0.352110        -9.5814
  64   2.0000      -0.328779        -8.9465
  65   2.0000      -0.325543        -8.8585
  66   2.0000      -0.296079        -8.0567
  67   0.0000       0.031753         0.8640
  68   0.0000       0.071571         1.9476
  69   0.0000       0.112066         3.0495
  70   0.0000       0.124209         3.3799
  71   0.0000       0.128920         3.5081

MULLIKEN ATOMIC CHARGES
-----------------------
   0 S :    0.113070
   1 C :   -0.093533
   2 C :   -0.115433
   3 C :    0.033078
   4 C :   -0.145868
   5 H :    0.007674
   6 C :    0.092495
   7 H :   -0.001455
   8 H :    0.039050
   9 C :   -0.108532
  10 H :    0.029883
  11 H :    0.032078
  12 C :   -0.034758
  13 H :    0.030775
  14 H :    0.034744
  15 H :    0.048463
  16 S :    0.070786
  17 C :   -0.106401
  18 C :   -0.036575
  19 C :   -0.026376
  20 C :   -0.135269
  21 H :    0.020293
  22 C :    0.030150
  23 H :    0.023956
  24 H :    0.024093
  25 C :   -0.058273
  26 H :    0.019776
  27 H :    0.042746
  28 C :   -0.037188
  29 H :    0.029609
  30 H :    0.038835
  31 H :    0.034070
  32 H :    0.023716
  33 H :    0.080324
Sum of atomic charges:    0.0000000

LOEWDIN ATOMIC CHARGES
----------------------
   0 S :    0.423455
   1 C :   -0.192545
   2 C :   -0.066142
   3 C :   -0.061402
   4 C :   -0.199960
   5 H :    0.028228
   6 C :   -0.041024
   7 H :    0.028247
   8 H :    0.036957
   9 C :   -0.043742
  10 H :    0.025555
  11 H :    0.027900
  12 C :   -0.063491
  13 H :    0.025218
  14 H :    0.027916
  15 H :    0.024769
  16 S :    0.359195
  17 C :   -0.175742
  18 C :   -0.073807
  19 C :   -0.062057
  20 C :   -0.173660
  21 H :    0.030068
  22 C :   -0.032342
  23 H :    0.028416
  24 H :    0.030900
  25 C :   -0.034799
  26 H :    0.017881
  27 H :    0.031395
  28 C :   -0.066708
  29 H :    0.022923
  30 H :    0.034988
  31 H :    0.026091
  32 H :    0.015608
  33 H :    0.041708

  Mayer bond orders larger than 0.100000
B(  0-S ,  1-C ) :   1.1571 B(  0-S ,  4-C ) :   1.1499 B(  1-C ,  2-C ) :   1.5879
B(  1-C , 32-H ) :   0.9764 B(  2-C ,  3-C ) :   1.2606 B(  2-C ,  6-C ) :   1.0274
B(  3-C ,  4-C ) :   1.5739 B(  3-C ,  5-H ) :   0.9937 B(  4-C , 20-C ) :   1.0230
B(  6-C ,  7-H ) :   0.9205 B(  6-C ,  8-H ) :   0.9387 B(  6-C ,  9-C ) :   1.0866
B(  9-C , 10-H ) :   0.9532 B(  9-C , 11-H ) :   0.9545 B(  9-C , 12-C ) :   1.0740
B( 12-C , 13-H ) :   0.9733 B( 12-C , 14-H ) :   0.9734 B( 12-C , 15-H ) :   0.9734
B( 16-S , 17-C ) :   1.1333 B( 16-S , 20-C ) :   1.1252 B( 17-C , 18-C ) :   1.6220
B( 17-C , 33-H ) :   0.9667 B( 18-C , 19-C ) :   1.2221 B( 18-C , 21-H ) :   0.9833
B( 19-C , 20-C ) :   1.6201 B( 19-C , 22-C ) :   1.0459 B( 22-C , 23-H ) :   0.9372
B( 22-C , 24-H ) :   0.9355 B( 22-C , 25-C ) :   1.0580 B( 25-C , 26-H ) :   0.9624
B( 25-C , 27-H ) :   0.9561 B( 25-C , 28-C ) :   1.0714 B( 28-C , 29-H ) :   0.9763
B( 28-C , 30-H ) :   0.9747 B( 28-C , 31-H ) :   0.9756

Dispersion correction           -0.014295066
FINAL SINGLE POINT ENERGY     -1339.884009859220

DIPOLE MOMENT
-------------
                                X             Y             Z
Electronic contribution:     25.56843      -8.11911     -11.20441
Nuclear contribution   :    -26.17153       8.09607      11.53894
                        -----------------------------------------
Total Dipole Moment    :     -0.60309      -0.02304       0.33454
                        -----------------------------------------
Magnitude (a.u.)       :      0.69005
Magnitude (Debye)      :      1.75397

Rotational constants in cm-1:     0.016583     0.009693     0.006896
Rotational constants in MHz :   497.141285   290.593309   206.722010

                             ****ORCA TERMINATED NORMALLY****
TOTAL RUN TIME: 0 days 0 hours 0 minutes 21 seconds 800 msec
