                         Program Version 4.2.1 -  RELEASE  -
|  1> ! wB97X-D3 SP def2-SVP
|  2> %pal
|  3> nprocs 24
|  4> end
|  5>
|  6> * xyz 0 1
|  7> S 	 -47.8439 	 -48.8534 	 -79.7873
|  8> C 	 -47.2696 	 -49.7408 	 -81.1889
|  9> C 	 -48.2406 	 -50.6379 	 -81.5653
| 10> C 	 -49.5169 	 -50.5143 	 -80.858
| 11> C 	 -49.4499 	 -49.6812 	 -79.8178
| 12> H 	 -50.4951 	 -50.9749 	 -80.8753
| 13> C 	 -48.1922 	 -51.5754 	 -82.7535
| 14> H 	 -47.6083 	 -50.9311 	 -83.49
| 15> H 	 -49.1172 	 -51.7529 	 -83.3595
| 16> C 	 -47.4928 	 -52.8929 	 -82.5345
| 17> H 	 -47.9057 	 -53.5751 	 -83.2602
| 18> H 	 -46.4261 	 -52.8399 	 -82.6016
| 19> C 	 -47.8947 	 -53.5641 	 -81.0955
| 20> H 	 -47.648 	 -54.6035 	 -80.8863
| 21> H 	 -47.3815 	 -53.0333 	 -80.3461
| 22> H 	 -48.9729 	 -53.5606 	 -80.9954
| 23> S 	 -49.9175 	 -50.3692 	 -77.2767
| 24> C 	 -51.4608 	 -49.9695 	 -76.5506
| 25> C 	 -52.1989 	 -49.1924 	 -77.3529
| 26> C 	 -51.6623 	 -49.0057 	 -78.675
| 27> C 	 -50.3769 	 -49.4923 	 -78.6933
| 28> H 	 -53.1587 	 -48.831 	 -77.0258
| 29> C 	 -52.2934 	 -48.1756 	 -79.7365
| 30> H 	 -52.09 	 -48.6494 	 -80.7099
| 31> H 	 -51.8208 	 -47.1948 	 -79.9253
| 32> C 	 -53.8241 	 -48.0432 	 -79.5566
| 33> H 	 -54.0296 	 -47.6524 	 -78.5673
| 34> H 	 -54.2747 	 -49.033 	 -79.7869
| 35> C 	 -54.3221 	 -47.1723 	 -80.6685
| 36> H 	 -54.0592 	 -47.5556 	 -81.6964
| 37> H 	 -53.9043 	 -46.1484 	 -80.5464
| 38> H 	 -55.4681 	 -47.2131 	 -80.7485
| 39> H 	 -46.419 	 -49.5045 	 -81.8138
| 40> H 	 -51.7717 	 -50.2276 	 -75.5478
| 41> *
| 42>
| 43>                          ****END OF INPUT****

CARTESIAN COORDINATES (ANGSTROEM)
---------------------------------
  S    -47.843900  -48.853400  -79.787300
  C    -47.269600  -49.740800  -81.188900
  C    -48.240600  -50.637900  -81.565300
  C    -49.516900  -50.514300  -80.858000
  C    -49.449900  -49.681200  -79.817800
  H    -50.495100  -50.974900  -80.875300
  C    -48.192200  -51.575400  -82.753500
  H    -47.608300  -50.931100  -83.490000
  H    -49.117200  -51.752900  -83.359500
  C    -47.492800  -52.892900  -82.534500
  H    -47.905700  -53.575100  -83.260200
  H    -46.426100  -52.839900  -82.601600
  C    -47.894700  -53.564100  -81.095500
  H    -47.648000  -54.603500  -80.886300
  H    -47.381500  -53.033300  -80.346100
  H    -48.972900  -53.560600  -80.995400
  S    -49.917500  -50.369200  -77.276700
  C    -51.460800  -49.969500  -76.550600
  C    -52.198900  -49.192400  -77.352900
  C    -51.662300  -49.005700  -78.675000
  C    -50.376900  -49.492300  -78.693300
  H    -53.158700  -48.831000  -77.025800
  C    -52.293400  -48.175600  -79.736500
  H    -52.090000  -48.649400  -80.709900
  H    -51.820800  -47.194800  -79.925300
  C    -53.824100  -48.043200  -79.556600
  H    -54.029600  -47.652400  -78.567300
  H    -54.274700  -49.033000  -79.786900
  C    -54.322100  -47.172300  -80.668500
  H    -54.059200  -47.555600  -81.696400
  H    -53.904300  -46.148400  -80.546400
  H    -55.468100  -47.213100  -80.748500
  H    -46.419000  -49.504500  -81.813800
  H    -51.771700  -50.227600  -75.547800

 Total Charge           Charge          ....    0
 Multiplicity           Mult            ....    1
 Number of Electrons    NEL             ....  134
 Basis Dimension        Dim             ....  322

ORBITAL ENERGIES
----------------

  NO   OCC          E(Eh)            E(eV)
   0   2.0000     -88.964559     -2420.8487
   1   2.0000     -88.957971     -2420.6695
   2   2.0000     -10.325524      -280.9718
   3   2.0000     -10.321485      -280.8619
   4   2.0000     -10.315828      -280.7079
   5   2.0000     -10.312169      -280.6084
   6   2.0000     -10.306015      -280.4409
   7   2.0000     -10.301697      -280.3234
   8   2.0000     -10.294967      -280.1403
   9   2.0000     -10.292791      -280.0811
  10   2.0000     -10.290818      -280.0274
  11   2.0000     -10.289828      -280.0004
  12   2.0000     -10.289239      -279.9844
  13   2.0000     -10.288653      -279.9685
  14   2.0000     -10.286168      -279.9009
  15   2.0000     -10.270981      -279.4876
  16   2.0000      -8.079894      -219.8651
  17   2.0000      -8.072232      -219.6566
  18   2.0000      -6.038426      -164.3139
  19   2.0000      -6.034342      -164.2028
  20   2.0000      -6.030941      -164.1102
  21   2.0000      -6.030552      -164.0997
  22   2.0000      -6.026815      -163.9980
  23   2.0000      -6.022778      -163.8881
  24   2.0000      -1.010021       -27.4841
  25   2.0000      -0.983806       -26.7707
  26   2.0000      -0.917648       -24.9705
  27   2.0000      -0.905185       -24.6313
  28   2.0000      -0.872141       -23.7322
  29   2.0000      -0.853733       -23.2312
  30   2.0000      -0.835611       -22.7381
  31   2.0000      -0.819565       -22.3015
  32   2.0000      -0.778485       -21.1836
  33   2.0000      -0.768476       -20.9113
  34   2.0000      -0.703475       -19.1425
  35   2.0000      -0.700186       -19.0530
  36   2.0000      -0.698688       -19.0123
  37   2.0000      -0.652526       -17.7561
  38   2.0000      -0.646191       -17.5838
  39   2.0000      -0.610583       -16.6148
  40   2.0000      -0.598715       -16.2919
  41   2.0000      -0.579505       -15.7691
  42   2.0000      -0.577163       -15.7054
  43   2.0000      -0.546065       -14.8592
  44   2.0000      -0.536889       -14.6095
  45   2.0000      -0.524857       -14.2821
  46   2.0000      -0.519273       -14.1301
  47   2.0000      -0.513054       -13.9609
  48   2.0000      -0.504888       -13.7387
  49   2.0000      -0.494402       -13.4534
  50   2.0000      -0.480761       -13.0822
  51   2.0000      -0.477340       -12.9891
  52   2.0000      -0.470240       -12.7959
  53   2.0000      -0.461015       -12.5449
  54   2.0000      -0.459692       -12.5088
  55   2.0000      -0.453320       -12.3355
  56   2.0000      -0.441891       -12.0245
  57   2.0000      -0.433952       -11.8084
  58   2.0000      -0.430009       -11.7011
  59   2.0000      -0.428409       -11.6576
  60   2.0000      -0.414779       -11.2867
  61   2.0000      -0.411298       -11.1920
  62   2.0000      -0.396625       -10.7927
  63   2.0000      -0.347793        -9.4639
  64   2.0000      -0.329204        -8.9581
  65   2.0000      -0.322629        -8.7792
  66   2.0000      -0.303862        -8.2685
  67   0.0000       0.045558         1.2397
  68   0.0000       0.057540         1.5658
  69   0.0000       0.115517         3.1434
  70   0.0000       0.122299         3.3279
  71   0.0000       0.126661         3.4466

MULLIKEN ATOMIC CHARGES
-----------------------
   0 S :    0.078214
   1 C :   -0.095519
   2 C :   -0.087629
   3 C :    0.071257
   4 C :   -0.200121
   5 H :    0.012233
   6 C :    0.004081
   7 H :    0.028936
   8 H :    0.039794
   9 C :   -0.043601
  10 H :    0.027833
  11 H :    0.033690
  12 C :   -0.066656
  13 H :    0.028037
  14 H :    0.038752
  15 H :    0.025784
  16 S :    0.123061
  17 C :   -0.078527
  18 C :   -0.027360
  19 C :   -0.005985
  20 C :   -0.151394
  21 H :    0.009567
  22 C :    0.034469
  23 H :    0.014074
  24 H :    0.042419
  25 C :   -0.086184
  26 H :    0.046571
  27 H :    0.040375
  28 C :   -0.071636
  29 H :    0.030961
  30 H :    0.040324
  31 H :    0.041643
  32 H :    0.054710
  33 H :    0.047827
Sum of atomic charges:    0.0000000

LOEWDIN ATOMIC CHARGES
----------------------
   0 S :    0.361748
   1 C :   -0.194726
   2 C :   -0.058764
   3 C :   -0.064573
   4 C :   -0.173559
   5 H :    0.038507
   6 C :   -0.049666
   7 H :    0.037461
   8 H :    0.036707
   9 C :   -0.031129
  10 H :    0.023630
  11 H :    0.019431
  12 C :   -0.066401
  13 H :    0.024461
  14 H :    0.019745
  15 H :    0.022321
  16 S :    0.419222
  17 C :   -0.180462
  18 C :   -0.069888
  19 C :   -0.057600
  20 C :   -0.206776
  21 H :    0.027823
  22 C :   -0.037591
  23 H :    0.033398
  24 H :    0.037541
  25 C :   -0.043682
  26 H :    0.023486
  27 H :    0.033573
  28 C :   -0.075000
  29 H :    0.028346
  30 H :    0.026753
  31 H :    0.031619
  32 H :    0.034465
  33 H :    0.029582

  Mayer bond orders larger than 0.100000
B(  0-S ,  1-C ) :   1.1146 B(  0-S ,  4-C ) :   1.1158 B(  1-C ,  2-C ) :   1.6606
B(  1-C , 32-H ) :   0.9676 B(  2-C ,  3-C ) :   1.1547 B(  2-C ,  6-C ) :   1.0087
B(  3-C ,  4-C ) :   1.6775 B(  3-C ,  5-H ) :   0.9893 B(  4-C , 20-C ) :   0.9770
B(  6-C ,  7-H ) :   0.9451 B(  6-C ,  8-H ) :   0.9538 B(  6-C ,  9-C ) :   1.0701
B(  9-C , 10-H ) :   0.9604 B(  9-C , 11-H ) :   0.9622 B(  9-C , 12-C ) :   1.0696
B( 12-C , 13-H ) :   0.9793 B( 12-C , 14-H ) :   0.9733 B( 12-C , 15-H ) :   0.9782
B( 16-S , 17-C ) :   1.1386 B( 16-S , 20-C ) :   1.1597 B( 17-C , 18-C ) :   1.6537
B( 17-C , 33-H ) :   0.9622 B( 18-C , 19-C ) :   1.2112 B( 18-C , 21-H ) :   0.9839
B( 19-C , 20-C ) :   1.6206 B( 19-C , 22-C ) :   1.0435 B( 22-C , 23-H ) :   0.9205
B( 22-C , 24-H ) :   0.9373 B( 22-C , 25-C ) :   1.0696 B( 25-C , 26-H ) :   0.9483
B( 25-C , 27-H ) :   0.9536 B( 25-C , 28-C ) :   1.0944 B( 28-C , 29-H ) :   0.9696
B( 28-C , 30-H ) :   0.9712 B( 28-C , 31-H ) :   0.9711

Dispersion correction           -0.014254373
FINAL SINGLE POINT ENERGY     -1339.854692235066

DIPOLE MOMENT
-------------
                                X             Y             Z
Electronic contribution:     11.88584       4.71369      15.79266
Nuclear contribution   :    -12.42644      -4.82984     -16.16986
                        -----------------------------------------
Total Dipole Moment    :     -0.54060      -0.11616      -0.37721
                        -----------------------------------------
Magnitude (a.u.)       :      0.66935
Magnitude (Debye)      :      1.70135

Rotational constants in cm-1:     0.019466     0.008029     0.007063
Rotational constants in MHz :   583.581999   240.705312   211.738707

                             ****ORCA TERMINATED NORMALLY****
TOTAL RUN TIME: 0 days 0 hours 0 minutes 21 seconds 401 msec
