                         Program Version 4.2.1 -  RELEASE  -
|  1> ! wB97X-D3 SP def2-SVP
|  2> %pal
|  3> nprocs 24
|  4> end
|  5>
|  6> * xyz 0 1
|  7> S 	 -106.241 	 19.9669 	 -119.628
|  8> C 	 -107.934 	 19.6252 	 -119.472
|  9> C 	 -108.624 	 19.6849 	 -120.682
| 10> C 	 -107.732 	 19.9943 	 -121.715
| 11> C 	 -106.354 	 20.2114 	 -121.332
| 12> H 	 -108.133 	 19.9851 	 -122.734
| 13> C 	 -110.119 	 19.3428 	 -120.877
| 14> H 	 -110.538 	 19.9399 	 -121.728
| 15> H 	 -110.721 	 19.4485 	 -119.971
| 16> C 	 -110.216 	 17.7812 	 -121.27
| 17> H 	 -109.648 	 17.2832 	 -120.416
| 18> H 	 -111.284 	 17.4884 	 -121.179
| 19> C 	 -109.747 	 17.365 	 -122.7
| 20> H 	 -110.089 	 18.0433 	 -123.514
| 21> H 	 -108.724 	 17.193 	 -122.692
| 22> H 	 -110.094 	 16.4119 	 -122.878
| 23> S 	 -103.806 	 19.1314 	 -121.647
| 24> C 	 -102.821 	 19.6427 	 -122.944
| 25> C 	 -103.517 	 20.4192 	 -123.836
| 26> C 	 -104.85 	 20.7289 	 -123.428
| 27> C 	 -105.156 	 20.1427 	 -122.161
| 28> H 	 -102.989 	 20.7882 	 -124.716
| 29> C 	 -105.836 	 21.5692 	 -124.316
| 30> H 	 -105.303 	 22.4147 	 -124.714
| 31> H 	 -106.466 	 22.0449 	 -123.604
| 32> C 	 -106.761 	 20.8204 	 -125.383
| 33> H 	 -107.254 	 19.9469 	 -124.94
| 34> H 	 -106.149 	 20.5374 	 -126.188
| 35> C 	 -107.921 	 21.7209 	 -125.911
| 36> H 	 -107.565 	 22.6516 	 -126.228
| 37> H 	 -108.488 	 21.992 	 -125.019
| 38> H 	 -108.638 	 21.3021 	 -126.561
| 39> H 	 -108.42 	 19.3784 	 -118.56
| 40> H 	 -101.783 	 19.4355 	 -123.109
| 41> *
| 42>
| 43>                          ****END OF INPUT****

CARTESIAN COORDINATES (ANGSTROEM)
---------------------------------
  S    -106.241000   19.966900  -119.628000
  C    -107.934000   19.625200  -119.472000
  C    -108.624000   19.684900  -120.682000
  C    -107.732000   19.994300  -121.715000
  C    -106.354000   20.211400  -121.332000
  H    -108.133000   19.985100  -122.734000
  C    -110.119000   19.342800  -120.877000
  H    -110.538000   19.939900  -121.728000
  H    -110.721000   19.448500  -119.971000
  C    -110.216000   17.781200  -121.270000
  H    -109.648000   17.283200  -120.416000
  H    -111.284000   17.488400  -121.179000
  C    -109.747000   17.365000  -122.700000
  H    -110.089000   18.043300  -123.514000
  H    -108.724000   17.193000  -122.692000
  H    -110.094000   16.411900  -122.878000
  S    -103.806000   19.131400  -121.647000
  C    -102.821000   19.642700  -122.944000
  C    -103.517000   20.419200  -123.836000
  C    -104.850000   20.728900  -123.428000
  C    -105.156000   20.142700  -122.161000
  H    -102.989000   20.788200  -124.716000
  C    -105.836000   21.569200  -124.316000
  H    -105.303000   22.414700  -124.714000
  H    -106.466000   22.044900  -123.604000
  C    -106.761000   20.820400  -125.383000
  H    -107.254000   19.946900  -124.940000
  H    -106.149000   20.537400  -126.188000
  C    -107.921000   21.720900  -125.911000
  H    -107.565000   22.651600  -126.228000
  H    -108.488000   21.992000  -125.019000
  H    -108.638000   21.302100  -126.561000
  H    -108.420000   19.378400  -118.560000
  H    -101.783000   19.435500  -123.109000

 Total Charge           Charge          ....    0
 Multiplicity           Mult            ....    1
 Number of Electrons    NEL             ....  134
 Basis Dimension        Dim             ....  322

ORBITAL ENERGIES
----------------

  NO   OCC          E(Eh)            E(eV)
   0   2.0000     -88.971902     -2421.0485
   1   2.0000     -88.967096     -2420.9178
   2   2.0000     -10.334740      -281.2226
   3   2.0000     -10.332250      -281.1548
   4   2.0000     -10.312571      -280.6193
   5   2.0000     -10.308870      -280.5186
   6   2.0000     -10.308268      -280.5022
   7   2.0000     -10.306101      -280.4433
   8   2.0000     -10.302057      -280.3332
   9   2.0000     -10.300000      -280.2772
  10   2.0000     -10.299386      -280.2605
  11   2.0000     -10.293330      -280.0957
  12   2.0000     -10.290397      -280.0159
  13   2.0000     -10.289774      -279.9990
  14   2.0000     -10.273011      -279.5429
  15   2.0000     -10.271820      -279.5104
  16   2.0000      -8.086837      -220.0540
  17   2.0000      -8.082056      -219.9239
  18   2.0000      -6.045166      -164.4973
  19   2.0000      -6.041148      -164.3880
  20   2.0000      -6.040543      -164.3715
  21   2.0000      -6.037944      -164.3008
  22   2.0000      -6.036466      -164.2606
  23   2.0000      -6.032879      -164.1630
  24   2.0000      -1.006736       -27.3947
  25   2.0000      -0.984824       -26.7984
  26   2.0000      -0.904214       -24.6049
  27   2.0000      -0.897627       -24.4257
  28   2.0000      -0.865906       -23.5625
  29   2.0000      -0.850630       -23.1468
  30   2.0000      -0.844251       -22.9732
  31   2.0000      -0.810987       -22.0681
  32   2.0000      -0.788139       -21.4464
  33   2.0000      -0.773124       -21.0378
  34   2.0000      -0.710143       -19.3240
  35   2.0000      -0.699832       -19.0434
  36   2.0000      -0.695214       -18.9177
  37   2.0000      -0.656057       -17.8522
  38   2.0000      -0.632650       -17.2153
  39   2.0000      -0.622449       -16.9377
  40   2.0000      -0.590086       -16.0571
  41   2.0000      -0.571148       -15.5417
  42   2.0000      -0.563186       -15.3251
  43   2.0000      -0.547274       -14.8921
  44   2.0000      -0.538747       -14.6601
  45   2.0000      -0.527285       -14.3482
  46   2.0000      -0.514314       -13.9952
  47   2.0000      -0.509245       -13.8573
  48   2.0000      -0.508528       -13.8377
  49   2.0000      -0.499798       -13.6002
  50   2.0000      -0.488201       -13.2846
  51   2.0000      -0.476855       -12.9759
  52   2.0000      -0.472325       -12.8526
  53   2.0000      -0.464447       -12.6383
  54   2.0000      -0.455000       -12.3812
  55   2.0000      -0.449134       -12.2216
  56   2.0000      -0.443175       -12.0594
  57   2.0000      -0.439655       -11.9636
  58   2.0000      -0.433876       -11.8064
  59   2.0000      -0.426845       -11.6150
  60   2.0000      -0.422776       -11.5043
  61   2.0000      -0.421687       -11.4747
  62   2.0000      -0.417854       -11.3704
  63   2.0000      -0.350311        -9.5324
  64   2.0000      -0.334418        -9.1000
  65   2.0000      -0.330799        -9.0015
  66   2.0000      -0.280757        -7.6398
  67   0.0000       0.018678         0.5083
  68   0.0000       0.077542         2.1100
  69   0.0000       0.113412         3.0861
  70   0.0000       0.120426         3.2770
  71   0.0000       0.130986         3.5643

MULLIKEN ATOMIC CHARGES
-----------------------
   0 S :    0.123001
   1 C :   -0.123408
   2 C :   -0.089747
   3 C :    0.022841
   4 C :   -0.135467
   5 H :   -0.001844
   6 C :    0.055223
   7 H :    0.039927
   8 H :    0.034071
   9 C :   -0.137105
  10 H :    0.042275
  11 H :    0.036870
  12 C :    0.004824
  13 H :    0.042005
  14 H :    0.026493
  15 H :    0.012295
  16 S :    0.117738
  17 C :   -0.088929
  18 C :   -0.038584
  19 C :   -0.055275
  20 C :   -0.145184
  21 H :    0.018572
  22 C :    0.075951
  23 H :    0.019838
  24 H :    0.005745
  25 C :   -0.044912
  26 H :    0.036751
  27 H :    0.024725
  28 C :   -0.023938
  29 H :    0.015472
  30 H :    0.012069
  31 H :    0.034866
  32 H :    0.033187
  33 H :    0.049653
Sum of atomic charges:    0.0000000

LOEWDIN ATOMIC CHARGES
----------------------
   0 S :    0.441033
   1 C :   -0.200962
   2 C :   -0.066683
   3 C :   -0.058771
   4 C :   -0.213031
   5 H :    0.027839
   6 C :   -0.028753
   7 H :    0.032778
   8 H :    0.032094
   9 C :   -0.040412
  10 H :    0.031427
  11 H :    0.021309
  12 C :   -0.062589
  13 H :    0.031837
  14 H :    0.021626
  15 H :    0.020491
  16 S :    0.420683
  17 C :   -0.204729
  18 C :   -0.076002
  19 C :   -0.054884
  20 C :   -0.198487
  21 H :    0.032943
  22 C :   -0.027849
  23 H :    0.028286
  24 H :    0.023279
  25 C :   -0.025202
  26 H :    0.024690
  27 H :    0.015050
  28 C :   -0.060319
  29 H :    0.016497
  30 H :    0.025441
  31 H :    0.022233
  32 H :    0.019688
  33 H :    0.029448

  Mayer bond orders larger than 0.100000
B(  0-S ,  1-C ) :   1.1771 B(  0-S ,  4-C ) :   1.1740 B(  1-C ,  2-C ) :   1.5390
B(  1-C ,  4-C ) :   0.1060 B(  1-C , 32-H ) :   0.9679 B(  2-C ,  3-C ) :   1.3517
B(  2-C ,  6-C ) :   1.0231 B(  3-C ,  4-C ) :   1.4577 B(  3-C ,  5-H ) :   0.9805
B(  4-C , 20-C ) :   1.0820 B(  6-C ,  7-H ) :   0.9458 B(  6-C ,  8-H ) :   0.9446
B(  6-C ,  9-C ) :   1.0539 B(  9-C , 10-H ) :   0.9563 B(  9-C , 11-H ) :   0.9647
B(  9-C , 12-C ) :   1.0725 B( 12-C , 13-H ) :   0.9742 B( 12-C , 14-H ) :   0.9695
B( 12-C , 15-H ) :   0.9674 B( 16-S , 17-C ) :   1.1567 B( 16-S , 20-C ) :   1.1527
B( 17-C , 18-C ) :   1.5970 B( 17-C , 33-H ) :   0.9669 B( 18-C , 19-C ) :   1.2720
B( 18-C , 21-H ) :   0.9908 B( 19-C , 20-C ) :   1.5459 B( 19-C , 22-C ) :   1.0406
B( 22-C , 23-H ) :   0.9381 B( 22-C , 24-H ) :   0.9315 B( 22-C , 25-C ) :   1.0457
B( 25-C , 26-H ) :   0.9589 B( 25-C , 27-H ) :   0.9590 B( 25-C , 28-C ) :   1.0742
B( 28-C , 29-H ) :   0.9755 B( 28-C , 30-H ) :   0.9726 B( 28-C , 31-H ) :   0.9764

Dispersion correction           -0.014798095
FINAL SINGLE POINT ENERGY     -1339.865600039863

DIPOLE MOMENT
-------------
                                X             Y             Z
Electronic contribution:     22.64818       0.35972      18.87523
Nuclear contribution   :    -23.13996      -0.49697     -19.27401
                        -----------------------------------------
Total Dipole Moment    :     -0.49178      -0.13724      -0.39878
                        -----------------------------------------
Magnitude (a.u.)       :      0.64785
Magnitude (Debye)      :      1.64670

Rotational constants in cm-1:     0.015877     0.010333     0.007360
Rotational constants in MHz :   475.966424   309.769373   220.634421

                             ****ORCA TERMINATED NORMALLY****
TOTAL RUN TIME: 0 days 0 hours 0 minutes 22 seconds 8 msec
