                         Program Version 4.2.1 -  RELEASE  -
|  1> ! wB97X-D3 SP def2-SVP
|  2> %pal
|  3> nprocs 24
|  4> end
|  5>
|  6> * xyz 0 1
|  7> S 	 -47.8396 	 19.3577 	 30.7915
|  8> C 	 -47.4895 	 18.0439 	 29.6757
|  9> C 	 -48.15 	 18.3478 	 28.5018
| 10> C 	 -48.5691 	 19.6972 	 28.3715
| 11> C 	 -48.5138 	 20.4142 	 29.5327
| 12> H 	 -49.0966 	 20.1949 	 27.5907
| 13> C 	 -48.4302 	 17.3211 	 27.401
| 14> H 	 -49.5059 	 17.228 	 27.2306
| 15> H 	 -48.0443 	 16.376 	 27.7348
| 16> C 	 -47.7467 	 17.5554 	 26.0321
| 17> H 	 -47.8709 	 18.6162 	 25.7888
| 18> H 	 -46.6457 	 17.3924 	 26.1377
| 19> C 	 -48.2886 	 16.6055 	 24.974
| 20> H 	 -48.3391 	 15.561 	 25.2704
| 21> H 	 -49.265 	 16.9309 	 24.6518
| 22> H 	 -47.6176 	 16.7162 	 24.0697
| 23> S 	 -50.3652 	 22.265 	 30.5273
| 24> C 	 -50.1043 	 24.0059 	 30.314
| 25> C 	 -49.0989 	 24.1395 	 29.3058
| 26> C 	 -48.433 	 22.9181 	 28.9252
| 27> C 	 -48.9243 	 21.813 	 29.6183
| 28> H 	 -48.8324 	 25.119 	 28.9622
| 29> C 	 -47.2773 	 22.8228 	 27.9448
| 30> H 	 -47.5719 	 23.3662 	 27.0729
| 31> H 	 -47.2341 	 21.8018 	 27.595
| 32> C 	 -45.9514 	 23.261 	 28.5773
| 33> H 	 -45.2326 	 22.839 	 27.9369
| 34> H 	 -45.8498 	 22.8689 	 29.5634
| 35> C 	 -45.8928 	 24.7955 	 28.5981
| 36> H 	 -46.6671 	 25.16 	 29.2018
| 37> H 	 -46.2379 	 25.172 	 27.6138
| 38> H 	 -44.889 	 25.26 	 28.8553
| 39> H 	 -47.2013 	 17.0472 	 29.9389
| 40> H 	 -50.6518 	 24.8207 	 30.8318
| 41> *
| 42>
| 43>                          ****END OF INPUT****

CARTESIAN COORDINATES (ANGSTROEM)
---------------------------------
  S    -47.839600   19.357700   30.791500
  C    -47.489500   18.043900   29.675700
  C    -48.150000   18.347800   28.501800
  C    -48.569100   19.697200   28.371500
  C    -48.513800   20.414200   29.532700
  H    -49.096600   20.194900   27.590700
  C    -48.430200   17.321100   27.401000
  H    -49.505900   17.228000   27.230600
  H    -48.044300   16.376000   27.734800
  C    -47.746700   17.555400   26.032100
  H    -47.870900   18.616200   25.788800
  H    -46.645700   17.392400   26.137700
  C    -48.288600   16.605500   24.974000
  H    -48.339100   15.561000   25.270400
  H    -49.265000   16.930900   24.651800
  H    -47.617600   16.716200   24.069700
  S    -50.365200   22.265000   30.527300
  C    -50.104300   24.005900   30.314000
  C    -49.098900   24.139500   29.305800
  C    -48.433000   22.918100   28.925200
  C    -48.924300   21.813000   29.618300
  H    -48.832400   25.119000   28.962200
  C    -47.277300   22.822800   27.944800
  H    -47.571900   23.366200   27.072900
  H    -47.234100   21.801800   27.595000
  C    -45.951400   23.261000   28.577300
  H    -45.232600   22.839000   27.936900
  H    -45.849800   22.868900   29.563400
  C    -45.892800   24.795500   28.598100
  H    -46.667100   25.160000   29.201800
  H    -46.237900   25.172000   27.613800
  H    -44.889000   25.260000   28.855300
  H    -47.201300   17.047200   29.938900
  H    -50.651800   24.820700   30.831800

 Total Charge           Charge          ....    0
 Multiplicity           Mult            ....    1
 Number of Electrons    NEL             ....  134
 Basis Dimension        Dim             ....  322

ORBITAL ENERGIES
----------------

  NO   OCC          E(Eh)            E(eV)
   0   2.0000     -88.966408     -2420.8990
   1   2.0000     -88.965387     -2420.8713
   2   2.0000     -10.331502      -281.1345
   3   2.0000     -10.330006      -281.0938
   4   2.0000     -10.328821      -281.0615
   5   2.0000     -10.317289      -280.7477
   6   2.0000     -10.306326      -280.4494
   7   2.0000     -10.303652      -280.3766
   8   2.0000     -10.301562      -280.3198
   9   2.0000     -10.290786      -280.0265
  10   2.0000     -10.290203      -280.0107
  11   2.0000     -10.289186      -279.9830
  12   2.0000     -10.285321      -279.8778
  13   2.0000     -10.282337      -279.7966
  14   2.0000     -10.277865      -279.6749
  15   2.0000     -10.276322      -279.6329
  16   2.0000      -8.080400      -219.8789
  17   2.0000      -8.079430      -219.8525
  18   2.0000      -6.039093      -164.3321
  19   2.0000      -6.038016      -164.3028
  20   2.0000      -6.034954      -164.2194
  21   2.0000      -6.033951      -164.1922
  22   2.0000      -6.031015      -164.1123
  23   2.0000      -6.030223      -164.0907
  24   2.0000      -1.005418       -27.3588
  25   2.0000      -0.981678       -26.7128
  26   2.0000      -0.912332       -24.8258
  27   2.0000      -0.909448       -24.7473
  28   2.0000      -0.873167       -23.7601
  29   2.0000      -0.847202       -23.0536
  30   2.0000      -0.840986       -22.8844
  31   2.0000      -0.815761       -22.1980
  32   2.0000      -0.781055       -21.2536
  33   2.0000      -0.769941       -20.9512
  34   2.0000      -0.711160       -19.3516
  35   2.0000      -0.698970       -19.0199
  36   2.0000      -0.694563       -18.9000
  37   2.0000      -0.661155       -17.9910
  38   2.0000      -0.648078       -17.6351
  39   2.0000      -0.618796       -16.8383
  40   2.0000      -0.596750       -16.2384
  41   2.0000      -0.570135       -15.5142
  42   2.0000      -0.564643       -15.3647
  43   2.0000      -0.549745       -14.9593
  44   2.0000      -0.542394       -14.7593
  45   2.0000      -0.523662       -14.2496
  46   2.0000      -0.520025       -14.1506
  47   2.0000      -0.517548       -14.0832
  48   2.0000      -0.505919       -13.7668
  49   2.0000      -0.500077       -13.6078
  50   2.0000      -0.486123       -13.2281
  51   2.0000      -0.483450       -13.1553
  52   2.0000      -0.480148       -13.0655
  53   2.0000      -0.469589       -12.7782
  54   2.0000      -0.459609       -12.5066
  55   2.0000      -0.445072       -12.1110
  56   2.0000      -0.437117       -11.8946
  57   2.0000      -0.431843       -11.7511
  58   2.0000      -0.430140       -11.7047
  59   2.0000      -0.424741       -11.5578
  60   2.0000      -0.422295       -11.4912
  61   2.0000      -0.415588       -11.3087
  62   2.0000      -0.413613       -11.2550
  63   2.0000      -0.340562        -9.2672
  64   2.0000      -0.328497        -8.9389
  65   2.0000      -0.326131        -8.8745
  66   2.0000      -0.301630        -8.2078
  67   0.0000       0.026094         0.7100
  68   0.0000       0.059543         1.6203
  69   0.0000       0.109741         2.9862
  70   0.0000       0.111766         3.0413
  71   0.0000       0.136421         3.7122

MULLIKEN ATOMIC CHARGES
-----------------------
   0 S :    0.103817
   1 C :   -0.094681
   2 C :   -0.096084
   3 C :    0.041707
   4 C :   -0.155413
   5 H :    0.015645
   6 C :    0.074221
   7 H :    0.037517
   8 H :    0.000126
   9 C :   -0.102249
  10 H :    0.029070
  11 H :    0.034443
  12 C :   -0.046770
  13 H :    0.037912
  14 H :    0.028243
  15 H :    0.041059
  16 S :    0.104280
  17 C :   -0.117709
  18 C :   -0.040820
  19 C :   -0.057337
  20 C :   -0.178603
  21 H :    0.017217
  22 C :    0.075078
  23 H :    0.020283
  24 H :    0.010016
  25 C :    0.005294
  26 H :    0.020045
  27 H :    0.032770
  28 C :   -0.044810
  29 H :    0.011157
  30 H :    0.009527
  31 H :    0.052202
  32 H :    0.050120
  33 H :    0.082728
Sum of atomic charges:   -0.0000000

LOEWDIN ATOMIC CHARGES
----------------------
   0 S :    0.393717
   1 C :   -0.190920
   2 C :   -0.061331
   3 C :   -0.062627
   4 C :   -0.186628
   5 H :    0.030677
   6 C :   -0.030269
   7 H :    0.032292
   8 H :    0.021756
   9 C :   -0.044764
  10 H :    0.020714
  11 H :    0.026956
  12 C :   -0.066793
  13 H :    0.025469
  14 H :    0.022059
  15 H :    0.035009
  16 S :    0.394920
  17 C :   -0.187227
  18 C :   -0.072553
  19 C :   -0.051371
  20 C :   -0.199991
  21 H :    0.023701
  22 C :   -0.026159
  23 H :    0.027183
  24 H :    0.028354
  25 C :   -0.022363
  26 H :    0.018919
  27 H :    0.026056
  28 C :   -0.066663
  29 H :    0.014029
  30 H :    0.023126
  31 H :    0.033393
  32 H :    0.029071
  33 H :    0.042258

  Mayer bond orders larger than 0.100000
B(  0-S ,  1-C ) :   1.1312 B(  0-S ,  4-C ) :   1.1359 B(  1-C ,  2-C ) :   1.6172
B(  1-C , 32-H ) :   0.9668 B(  2-C ,  3-C ) :   1.2196 B(  2-C ,  6-C ) :   1.0300
B(  3-C ,  4-C ) :   1.5910 B(  3-C ,  5-H ) :   0.9905 B(  4-C , 20-C ) :   1.0420
B(  6-C ,  7-H ) :   0.9458 B(  6-C ,  8-H ) :   0.9358 B(  6-C ,  9-C ) :   1.0561
B(  9-C , 10-H ) :   0.9604 B(  9-C , 11-H ) :   0.9570 B(  9-C , 12-C ) :   1.0788
B( 12-C , 13-H ) :   0.9747 B( 12-C , 14-H ) :   0.9742 B( 12-C , 15-H ) :   0.9735
B( 16-S , 17-C ) :   1.1594 B( 16-S , 20-C ) :   1.1471 B( 17-C , 18-C ) :   1.5707
B( 17-C , 20-C ) :   0.1102 B( 17-C , 33-H ) :   0.9672 B( 18-C , 19-C ) :   1.2544
B( 18-C , 21-H ) :   0.9845 B( 19-C , 20-C ) :   1.5775 B( 19-C , 22-C ) :   1.0442
B( 22-C , 23-H ) :   0.9309 B( 22-C , 24-H ) :   0.9201 B( 22-C , 25-C ) :   1.0680
B( 25-C , 26-H ) :   0.9554 B( 25-C , 27-H ) :   0.9545 B( 25-C , 28-C ) :   1.0736
B( 28-C , 29-H ) :   0.9692 B( 28-C , 30-H ) :   0.9728 B( 28-C , 31-H ) :   0.9717

Dispersion correction           -0.014378290
FINAL SINGLE POINT ENERGY     -1339.869621142664

DIPOLE MOMENT
-------------
                                X             Y             Z
Electronic contribution:    -11.75441       2.12182      22.56760
Nuclear contribution   :     11.82447      -2.16577     -23.19615
                        -----------------------------------------
Total Dipole Moment    :      0.07006      -0.04395      -0.62855
                        -----------------------------------------
Magnitude (a.u.)       :      0.63397
Magnitude (Debye)      :      1.61142

Rotational constants in cm-1:     0.019045     0.007861     0.006881
Rotational constants in MHz :   570.946998   235.661229   206.296116

                             ****ORCA TERMINATED NORMALLY****
TOTAL RUN TIME: 0 days 0 hours 0 minutes 20 seconds 489 msec
