                         Program Version 4.2.1 -  RELEASE  -
|  1> ! wB97X-D3 SP def2-SVP
|  2> %pal
|  3> nprocs 24
|  4> end
|  5>
|  6> * xyz 0 1
|  7> S 	 -44.5354 	 19.8208 	 31.1554
|  8> C 	 -44.9399 	 18.9117 	 29.7677
|  9> C 	 -46.176 	 19.2914 	 29.1845
| 10> C 	 -46.7221 	 20.2905 	 30.0666
| 11> C 	 -45.9774 	 20.7862 	 31.1117
| 12> H 	 -47.6778 	 20.7274 	 29.8368
| 13> C 	 -46.7901 	 18.7627 	 27.9222
| 14> H 	 -47.6063 	 19.4124 	 27.6389
| 15> H 	 -47.2094 	 17.8112 	 28.1663
| 16> C 	 -45.8749 	 18.6812 	 26.7085
| 17> H 	 -45.4293 	 19.6147 	 26.4659
| 18> H 	 -45.0753 	 17.9284 	 27.0396
| 19> C 	 -46.6702 	 18.0265 	 25.5886
| 20> H 	 -46.0568 	 17.7616 	 24.6892
| 21> H 	 -47.1329 	 17.0734 	 25.8874
| 22> H 	 -47.4613 	 18.6531 	 25.1982
| 23> S 	 -46.073 	 21.2271 	 33.8516
| 24> C 	 -46.7107 	 22.6935 	 34.4915
| 25> C 	 -46.9916 	 23.5806 	 33.4712
| 26> C 	 -46.7279 	 23.0939 	 32.1521
| 27> C 	 -46.2199 	 21.7819 	 32.1682
| 28> H 	 -47.3353 	 24.6206 	 33.7205
| 29> C 	 -47.0008 	 23.9336 	 30.9683
| 30> H 	 -47.4385 	 24.8411 	 31.3687
| 31> H 	 -47.5946 	 23.4715 	 30.242
| 32> C 	 -45.727 	 24.3163 	 30.1272
| 33> H 	 -45.8572 	 24.2786 	 29.0025
| 34> H 	 -44.8721 	 23.6204 	 30.3313
| 35> C 	 -45.2303 	 25.7725 	 30.4209
| 36> H 	 -44.9563 	 25.7494 	 31.445
| 37> H 	 -45.9815 	 26.515 	 30.4217
| 38> H 	 -44.3361 	 26.1113 	 29.8468
| 39> H 	 -44.339 	 18.013 	 29.5706
| 40> H 	 -46.6698 	 22.9459 	 35.5343
| 41> *
| 42>
| 43>                          ****END OF INPUT****

CARTESIAN COORDINATES (ANGSTROEM)
---------------------------------
  S    -44.535400   19.820800   31.155400
  C    -44.939900   18.911700   29.767700
  C    -46.176000   19.291400   29.184500
  C    -46.722100   20.290500   30.066600
  C    -45.977400   20.786200   31.111700
  H    -47.677800   20.727400   29.836800
  C    -46.790100   18.762700   27.922200
  H    -47.606300   19.412400   27.638900
  H    -47.209400   17.811200   28.166300
  C    -45.874900   18.681200   26.708500
  H    -45.429300   19.614700   26.465900
  H    -45.075300   17.928400   27.039600
  C    -46.670200   18.026500   25.588600
  H    -46.056800   17.761600   24.689200
  H    -47.132900   17.073400   25.887400
  H    -47.461300   18.653100   25.198200
  S    -46.073000   21.227100   33.851600
  C    -46.710700   22.693500   34.491500
  C    -46.991600   23.580600   33.471200
  C    -46.727900   23.093900   32.152100
  C    -46.219900   21.781900   32.168200
  H    -47.335300   24.620600   33.720500
  C    -47.000800   23.933600   30.968300
  H    -47.438500   24.841100   31.368700
  H    -47.594600   23.471500   30.242000
  C    -45.727000   24.316300   30.127200
  H    -45.857200   24.278600   29.002500
  H    -44.872100   23.620400   30.331300
  C    -45.230300   25.772500   30.420900
  H    -44.956300   25.749400   31.445000
  H    -45.981500   26.515000   30.421700
  H    -44.336100   26.111300   29.846800
  H    -44.339000   18.013000   29.570600
  H    -46.669800   22.945900   35.534300

 Total Charge           Charge          ....    0
 Multiplicity           Mult            ....    1
 Number of Electrons    NEL             ....  134
 Basis Dimension        Dim             ....  322

ORBITAL ENERGIES
----------------

  NO   OCC          E(Eh)            E(eV)
   0   2.0000     -88.965387     -2420.8712
   1   2.0000     -88.962270     -2420.7864
   2   2.0000     -10.332619      -281.1649
   3   2.0000     -10.328674      -281.0575
   4   2.0000     -10.317043      -280.7410
   5   2.0000     -10.315592      -280.7015
   6   2.0000     -10.306183      -280.4455
   7   2.0000     -10.305794      -280.4349
   8   2.0000     -10.298466      -280.2355
   9   2.0000     -10.293740      -280.1069
  10   2.0000     -10.292553      -280.0746
  11   2.0000     -10.292406      -280.0706
  12   2.0000     -10.290588      -280.0211
  13   2.0000     -10.287945      -279.9492
  14   2.0000     -10.282949      -279.8133
  15   2.0000     -10.270187      -279.4660
  16   2.0000      -8.080233      -219.8743
  17   2.0000      -8.078201      -219.8190
  18   2.0000      -6.038731      -164.3222
  19   2.0000      -6.036495      -164.2614
  20   2.0000      -6.034544      -164.2083
  21   2.0000      -6.032332      -164.1481
  22   2.0000      -6.031166      -164.1164
  23   2.0000      -6.029321      -164.0662
  24   2.0000      -1.007452       -27.4142
  25   2.0000      -0.986831       -26.8530
  26   2.0000      -0.920185       -25.0395
  27   2.0000      -0.907551       -24.6957
  28   2.0000      -0.867846       -23.6153
  29   2.0000      -0.849953       -23.1284
  30   2.0000      -0.845378       -23.0039
  31   2.0000      -0.813270       -22.1302
  32   2.0000      -0.783773       -21.3276
  33   2.0000      -0.771534       -20.9945
  34   2.0000      -0.707439       -19.2504
  35   2.0000      -0.705383       -19.1945
  36   2.0000      -0.685585       -18.6557
  37   2.0000      -0.662531       -18.0284
  38   2.0000      -0.643692       -17.5158
  39   2.0000      -0.620188       -16.8762
  40   2.0000      -0.599198       -16.3050
  41   2.0000      -0.576764       -15.6945
  42   2.0000      -0.567044       -15.4300
  43   2.0000      -0.551899       -15.0179
  44   2.0000      -0.536246       -14.5920
  45   2.0000      -0.522988       -14.2312
  46   2.0000      -0.519753       -14.1432
  47   2.0000      -0.508452       -13.8357
  48   2.0000      -0.505899       -13.7662
  49   2.0000      -0.501083       -13.6352
  50   2.0000      -0.487412       -13.2632
  51   2.0000      -0.480905       -13.0861
  52   2.0000      -0.472746       -12.8641
  53   2.0000      -0.464757       -12.6467
  54   2.0000      -0.458555       -12.4779
  55   2.0000      -0.453059       -12.3284
  56   2.0000      -0.441638       -12.0176
  57   2.0000      -0.441309       -12.0086
  58   2.0000      -0.434863       -11.8332
  59   2.0000      -0.425959       -11.5909
  60   2.0000      -0.418179       -11.3792
  61   2.0000      -0.414111       -11.2685
  62   2.0000      -0.408361       -11.1121
  63   2.0000      -0.344690        -9.3795
  64   2.0000      -0.329976        -8.9791
  65   2.0000      -0.327383        -8.9086
  66   2.0000      -0.293664        -7.9910
  67   0.0000       0.027208         0.7404
  68   0.0000       0.068091         1.8528
  69   0.0000       0.116587         3.1725
  70   0.0000       0.122690         3.3386
  71   0.0000       0.130184         3.5425

MULLIKEN ATOMIC CHARGES
-----------------------
   0 S :    0.105909
   1 C :   -0.147542
   2 C :   -0.095671
   3 C :    0.034591
   4 C :   -0.159468
   5 H :   -0.006361
   6 C :    0.081347
   7 H :    0.012311
   8 H :    0.032986
   9 C :   -0.072588
  10 H :    0.036904
  11 H :    0.037376
  12 C :   -0.055057
  13 H :    0.037930
  14 H :    0.027308
  15 H :    0.029096
  16 S :    0.107708
  17 C :   -0.082683
  18 C :   -0.065928
  19 C :   -0.042721
  20 C :   -0.140342
  21 H :    0.036674
  22 C :    0.135835
  23 H :    0.014751
  24 H :    0.021225
  25 C :   -0.127030
  26 H :    0.037004
  27 H :    0.052260
  28 C :   -0.045334
  29 H :    0.011624
  30 H :    0.016293
  31 H :    0.044301
  32 H :    0.067249
  33 H :    0.060041
Sum of atomic charges:   -0.0000000

LOEWDIN ATOMIC CHARGES
----------------------
   0 S :    0.431182
   1 C :   -0.212047
   2 C :   -0.063328
   3 C :   -0.062520
   4 C :   -0.211644
   5 H :    0.022645
   6 C :   -0.030928
   7 H :    0.027739
   8 H :    0.032341
   9 C :   -0.033769
  10 H :    0.023131
  11 H :    0.031929
  12 C :   -0.070361
  13 H :    0.030387
  14 H :    0.027216
  15 H :    0.022192
  16 S :    0.413436
  17 C :   -0.191582
  18 C :   -0.081656
  19 C :   -0.053439
  20 C :   -0.195960
  21 H :    0.038481
  22 C :   -0.024244
  23 H :    0.031319
  24 H :    0.029835
  25 C :   -0.039468
  26 H :    0.024943
  27 H :    0.031369
  28 C :   -0.070504
  29 H :    0.019274
  30 H :    0.014065
  31 H :    0.031283
  32 H :    0.028700
  33 H :    0.029982

  Mayer bond orders larger than 0.100000
B(  0-S ,  1-C ) :   1.1911 B(  0-S ,  4-C ) :   1.1565 B(  1-C ,  2-C ) :   1.5359
B(  1-C ,  4-C ) :   0.1037 B(  1-C , 32-H ) :   0.9647 B(  2-C ,  3-C ) :   1.2980
B(  2-C ,  6-C ) :   1.0150 B(  3-C ,  4-C ) :   1.5571 B(  3-C ,  5-H ) :   0.9948
B(  4-C , 20-C ) :   1.0206 B(  6-C ,  7-H ) :   0.9416 B(  6-C ,  8-H ) :   0.9315
B(  6-C ,  9-C ) :   1.0655 B(  9-C , 10-H ) :   0.9612 B(  9-C , 11-H ) :   0.9516
B(  9-C , 12-C ) :   1.0822 B( 12-C , 13-H ) :   0.9729 B( 12-C , 14-H ) :   0.9718
B( 12-C , 15-H ) :   0.9739 B( 16-S , 17-C ) :   1.1723 B( 16-S , 20-C ) :   1.1498
B( 17-C , 18-C ) :   1.5846 B( 17-C , 20-C ) :   0.1052 B( 17-C , 33-H ) :   0.9671
B( 18-C , 19-C ) :   1.2710 B( 18-C , 21-H ) :   0.9773 B( 19-C , 20-C ) :   1.5567
B( 19-C , 22-C ) :   1.0693 B( 22-C , 23-H ) :   0.9354 B( 22-C , 24-H ) :   0.9237
B( 22-C , 25-C ) :   1.0286 B( 25-C , 26-H ) :   0.9652 B( 25-C , 27-H ) :   0.9647
B( 25-C , 28-C ) :   1.0706 B( 28-C , 29-H ) :   0.9747 B( 28-C , 30-H ) :   0.9775
B( 28-C , 31-H ) :   0.9757

Dispersion correction           -0.013702264
FINAL SINGLE POINT ENERGY     -1339.877785699026

DIPOLE MOMENT
-------------
                                X             Y             Z
Electronic contribution:      4.07408      -6.86460      25.67250
Nuclear contribution   :     -4.38236       7.00279     -26.11511
                        -----------------------------------------
Total Dipole Moment    :     -0.30828       0.13819      -0.44261
                        -----------------------------------------
Magnitude (a.u.)       :      0.55681
Magnitude (Debye)      :      1.41531

Rotational constants in cm-1:     0.020882     0.007514     0.006208
Rotational constants in MHz :   626.039947   225.262281   186.096568

                             ****ORCA TERMINATED NORMALLY****
TOTAL RUN TIME: 0 days 0 hours 0 minutes 21 seconds 85 msec
