                         Program Version 4.2.1 -  RELEASE  -
|  1> ! wB97X-D3 SP def2-SVP
|  2> %pal
|  3> nprocs 24
|  4> end
|  5>
|  6> * xyz 0 1
|  7> S 	 -42.65 	 -4.22689 	 -7.98236
|  8> C 	 -42.773 	 -2.63346 	 -7.20052
|  9> C 	 -43.9159 	 -1.97251 	 -7.57889
| 10> C 	 -44.6333 	 -2.73303 	 -8.63657
| 11> C 	 -44.0815 	 -3.95099 	 -8.99029
| 12> H 	 -45.5347 	 -2.49828 	 -9.10802
| 13> C 	 -44.4525 	 -0.617711 	 -6.97361
| 14> H 	 -44.9744 	 -0.0759799 	 -7.73442
| 15> H 	 -43.6728 	 0.0398984 	 -6.76142
| 16> C 	 -45.4096 	 -0.806358 	 -5.81506
| 17> H 	 -46.1993 	 -1.4421 	 -6.24395
| 18> H 	 -44.8824 	 -1.39726 	 -4.96847
| 19> C 	 -46.0664 	 0.468776 	 -5.15964
| 20> H 	 -46.6972 	 1.03038 	 -5.88159
| 21> H 	 -46.7566 	 0.183407 	 -4.36419
| 22> H 	 -45.3196 	 1.18421 	 -4.78322
| 23> S 	 -43.5141 	 -5.18975 	 -11.3268
| 24> C 	 -44.7297 	 -6.12963 	 -12.0757
| 25> C 	 -45.9454 	 -5.99988 	 -11.4189
| 26> C 	 -45.9263 	 -5.21644 	 -10.1972
| 27> C 	 -44.616 	 -4.88039 	 -9.93111
| 28> H 	 -46.7847 	 -6.4565 	 -11.8384
| 29> C 	 -47.1128 	 -5.04776 	 -9.2783
| 30> H 	 -46.6415 	 -4.768 	 -8.36368
| 31> H 	 -47.4791 	 -6.05458 	 -9.05793
| 32> C 	 -48.1615 	 -3.9984 	 -9.74478
| 33> H 	 -48.44 	 -3.95641 	 -10.7555
| 34> H 	 -47.8011 	 -2.93098 	 -9.7582
| 35> C 	 -49.4652 	 -4.04265 	 -8.90712
| 36> H 	 -50.2214 	 -3.3342 	 -9.20806
| 37> H 	 -49.1865 	 -3.74591 	 -7.95575
| 38> H 	 -49.9392 	 -5.00354 	 -8.66816
| 39> H 	 -42.1514 	 -2.11618 	 -6.50564
| 40> H 	 -44.6335 	 -6.75174 	 -12.9553
| 41> *
| 42>
| 43>                          ****END OF INPUT****

CARTESIAN COORDINATES (ANGSTROEM)
---------------------------------
  S    -42.650000   -4.226890   -7.982360
  C    -42.773000   -2.633460   -7.200520
  C    -43.915900   -1.972510   -7.578890
  C    -44.633300   -2.733030   -8.636570
  C    -44.081500   -3.950990   -8.990290
  H    -45.534700   -2.498280   -9.108020
  C    -44.452500   -0.617711   -6.973610
  H    -44.974400   -0.075980   -7.734420
  H    -43.672800    0.039898   -6.761420
  C    -45.409600   -0.806358   -5.815060
  H    -46.199300   -1.442100   -6.243950
  H    -44.882400   -1.397260   -4.968470
  C    -46.066400    0.468776   -5.159640
  H    -46.697200    1.030380   -5.881590
  H    -46.756600    0.183407   -4.364190
  H    -45.319600    1.184210   -4.783220
  S    -43.514100   -5.189750  -11.326800
  C    -44.729700   -6.129630  -12.075700
  C    -45.945400   -5.999880  -11.418900
  C    -45.926300   -5.216440  -10.197200
  C    -44.616000   -4.880390   -9.931110
  H    -46.784700   -6.456500  -11.838400
  C    -47.112800   -5.047760   -9.278300
  H    -46.641500   -4.768000   -8.363680
  H    -47.479100   -6.054580   -9.057930
  C    -48.161500   -3.998400   -9.744780
  H    -48.440000   -3.956410  -10.755500
  H    -47.801100   -2.930980   -9.758200
  C    -49.465200   -4.042650   -8.907120
  H    -50.221400   -3.334200   -9.208060
  H    -49.186500   -3.745910   -7.955750
  H    -49.939200   -5.003540   -8.668160
  H    -42.151400   -2.116180   -6.505640
  H    -44.633500   -6.751740  -12.955300

 Total Charge           Charge          ....    0
 Multiplicity           Mult            ....    1
 Number of Electrons    NEL             ....  134
 Basis Dimension        Dim             ....  322

ORBITAL ENERGIES
----------------

  NO   OCC          E(Eh)            E(eV)
   0   2.0000     -88.965362     -2420.8706
   1   2.0000     -88.964017     -2420.8340
   2   2.0000     -10.326963      -281.0109
   3   2.0000     -10.326246      -280.9914
   4   2.0000     -10.315750      -280.7058
   5   2.0000     -10.315648      -280.7030
   6   2.0000     -10.309415      -280.5334
   7   2.0000     -10.308778      -280.5161
   8   2.0000     -10.299286      -280.2578
   9   2.0000     -10.296953      -280.1943
  10   2.0000     -10.296069      -280.1703
  11   2.0000     -10.293685      -280.1054
  12   2.0000     -10.291046      -280.0336
  13   2.0000     -10.289469      -279.9907
  14   2.0000     -10.287509      -279.9373
  15   2.0000     -10.274370      -279.5798
  16   2.0000      -8.079088      -219.8432
  17   2.0000      -8.078945      -219.8393
  18   2.0000      -6.037837      -164.2979
  19   2.0000      -6.037453      -164.2874
  20   2.0000      -6.033772      -164.1873
  21   2.0000      -6.033556      -164.1814
  22   2.0000      -6.029586      -164.0734
  23   2.0000      -6.029546      -164.0723
  24   2.0000      -1.004015       -27.3206
  25   2.0000      -0.976841       -26.5812
  26   2.0000      -0.911081       -24.7918
  27   2.0000      -0.906654       -24.6713
  28   2.0000      -0.872297       -23.7364
  29   2.0000      -0.855625       -23.2827
  30   2.0000      -0.836108       -22.7517
  31   2.0000      -0.812007       -22.0958
  32   2.0000      -0.788771       -21.4635
  33   2.0000      -0.779005       -21.1978
  34   2.0000      -0.720397       -19.6030
  35   2.0000      -0.703162       -19.1340
  36   2.0000      -0.695333       -18.9210
  37   2.0000      -0.663705       -18.0603
  38   2.0000      -0.642294       -17.4777
  39   2.0000      -0.613981       -16.7073
  40   2.0000      -0.596408       -16.2291
  41   2.0000      -0.567134       -15.4325
  42   2.0000      -0.560295       -15.2464
  43   2.0000      -0.551296       -15.0015
  44   2.0000      -0.540262       -14.7013
  45   2.0000      -0.520641       -14.1674
  46   2.0000      -0.519868       -14.1463
  47   2.0000      -0.517677       -14.0867
  48   2.0000      -0.501542       -13.6476
  49   2.0000      -0.500672       -13.6240
  50   2.0000      -0.496762       -13.5176
  51   2.0000      -0.480698       -13.0805
  52   2.0000      -0.466217       -12.6864
  53   2.0000      -0.465705       -12.6725
  54   2.0000      -0.455969       -12.4076
  55   2.0000      -0.454272       -12.3614
  56   2.0000      -0.451325       -12.2812
  57   2.0000      -0.443126       -12.0581
  58   2.0000      -0.433296       -11.7906
  59   2.0000      -0.424993       -11.5647
  60   2.0000      -0.420807       -11.4508
  61   2.0000      -0.413845       -11.2613
  62   2.0000      -0.410058       -11.1583
  63   2.0000      -0.343366        -9.3435
  64   2.0000      -0.332763        -9.0549
  65   2.0000      -0.325845        -8.8667
  66   2.0000      -0.298332        -8.1180
  67   0.0000       0.027876         0.7585
  68   0.0000       0.072016         1.9596
  69   0.0000       0.108588         2.9548
  70   0.0000       0.115469         3.1421
  71   0.0000       0.125458         3.4139

MULLIKEN ATOMIC CHARGES
-----------------------
   0 S :    0.106699
   1 C :   -0.084976
   2 C :   -0.114968
   3 C :    0.064767
   4 C :   -0.162505
   5 H :   -0.037213
   6 C :    0.119166
   7 H :    0.008601
   8 H :    0.002895
   9 C :   -0.108484
  10 H :    0.030703
  11 H :    0.042766
  12 C :   -0.055148
  13 H :    0.029202
  14 H :    0.043478
  15 H :    0.038819
  16 S :    0.103763
  17 C :   -0.068907
  18 C :   -0.027791
  19 C :   -0.032178
  20 C :   -0.158596
  21 H :   -0.008974
  22 C :    0.099192
  23 H :    0.021073
  24 H :    0.038977
  25 C :   -0.060734
  26 H :    0.014675
  27 H :    0.026687
  28 C :   -0.022287
  29 H :    0.031197
  30 H :    0.001592
  31 H :    0.029813
  32 H :    0.032924
  33 H :    0.055772
Sum of atomic charges:   -0.0000000

LOEWDIN ATOMIC CHARGES
----------------------
   0 S :    0.380930
   1 C :   -0.184474
   2 C :   -0.053946
   3 C :   -0.053426
   4 C :   -0.198235
   5 H :    0.014878
   6 C :   -0.027932
   7 H :    0.027223
   8 H :    0.018006
   9 C :   -0.046777
  10 H :    0.025509
  11 H :    0.031625
  12 C :   -0.071682
  13 H :    0.025371
  14 H :    0.030091
  15 H :    0.026314
  16 S :    0.401352
  17 C :   -0.190806
  18 C :   -0.066707
  19 C :   -0.042865
  20 C :   -0.185412
  21 H :    0.017989
  22 C :   -0.023380
  23 H :    0.031638
  24 H :    0.039631
  25 C :   -0.039394
  26 H :    0.016841
  27 H :    0.033214
  28 C :   -0.065980
  29 H :    0.026825
  30 H :    0.015199
  31 H :    0.027847
  32 H :    0.029026
  33 H :    0.031507

  Mayer bond orders larger than 0.100000
B(  0-S ,  1-C ) :   1.1179 B(  0-S ,  4-C ) :   1.1157 B(  1-C ,  2-C ) :   1.6663
B(  1-C , 32-H ) :   0.9654 B(  2-C ,  3-C ) :   1.1964 B(  2-C ,  6-C ) :   1.0202
B(  3-C ,  4-C ) :   1.6115 B(  3-C ,  5-H ) :   1.0006 B(  4-C , 20-C ) :   1.0408
B(  6-C ,  7-H ) :   0.9370 B(  6-C ,  8-H ) :   0.9391 B(  6-C ,  9-C ) :   1.0588
B(  9-C , 10-H ) :   0.9561 B(  9-C , 11-H ) :   0.9577 B(  9-C , 12-C ) :   1.0743
B( 12-C , 13-H ) :   0.9744 B( 12-C , 14-H ) :   0.9756 B( 12-C , 15-H ) :   0.9764
B( 16-S , 17-C ) :   1.1489 B( 16-S , 20-C ) :   1.1334 B( 17-C , 18-C ) :   1.6268
B( 17-C , 33-H ) :   0.9672 B( 18-C , 19-C ) :   1.2005 B( 18-C , 21-H ) :   0.9997
B( 19-C , 20-C ) :   1.6069 B( 19-C , 22-C ) :   1.0360 B( 22-C , 23-H ) :   0.9292
B( 22-C , 24-H ) :   0.9451 B( 22-C , 25-C ) :   1.0312 B( 25-C , 26-H ) :   0.9641
B( 25-C , 27-H ) :   0.9445 B( 25-C , 28-C ) :   1.0777 B( 28-C , 29-H ) :   0.9740
B( 28-C , 30-H ) :   0.9707 B( 28-C , 31-H ) :   0.9772

Dispersion correction           -0.014095777
FINAL SINGLE POINT ENERGY     -1339.856493096008

DIPOLE MOMENT
-------------
                                X             Y             Z
Electronic contribution:     25.49331     -16.72374     -14.31346
Nuclear contribution   :    -26.26834      17.08970      14.42936
                        -----------------------------------------
Total Dipole Moment    :     -0.77503       0.36595       0.11590
                        -----------------------------------------
Magnitude (a.u.)       :      0.86488
Magnitude (Debye)      :      2.19835

Rotational constants in cm-1:     0.016838     0.009115     0.006320
Rotational constants in MHz :   504.800722   273.249580   189.480855

                             ****ORCA TERMINATED NORMALLY****
TOTAL RUN TIME: 0 days 0 hours 0 minutes 21 seconds 245 msec
