                         Program Version 4.2.1 -  RELEASE  -
|  1> ! wB97X-D3 SP def2-SVP
|  2> %pal
|  3> nprocs 24
|  4> end
|  5>
|  6> * xyz 0 1
|  7> S 	 28.3212 	 -30.9621 	 -132.414
|  8> C 	 28.5969 	 -29.6578 	 -133.434
|  9> C 	 28.2899 	 -28.4578 	 -132.893
| 10> C 	 28.0811 	 -28.6013 	 -131.468
| 11> C 	 27.9656 	 -29.9439 	 -131.038
| 12> H 	 27.9047 	 -27.7982 	 -130.827
| 13> C 	 28.2182 	 -27.1105 	 -133.65
| 14> H 	 27.2565 	 -26.6152 	 -133.35
| 15> H 	 27.9745 	 -27.3329 	 -134.707
| 16> C 	 29.377 	 -26.1051 	 -133.48
| 17> H 	 29.6385 	 -25.7751 	 -132.438
| 18> H 	 30.277 	 -26.6742 	 -133.748
| 19> C 	 29.2742 	 -24.8498 	 -134.439
| 20> H 	 29.1771 	 -25.1317 	 -135.484
| 21> H 	 28.5423 	 -24.0984 	 -134.017
| 22> H 	 30.2022 	 -24.2902 	 -134.398
| 23> S 	 27.1555 	 -32.0832 	 -129.517
| 24> C 	 27.2964 	 -32.0223 	 -127.782
| 25> C 	 27.6719 	 -30.8243 	 -127.367
| 26> C 	 27.9351 	 -29.8788 	 -128.425
| 27> C 	 27.7639 	 -30.4551 	 -129.668
| 28> H 	 27.7637 	 -30.6028 	 -126.324
| 29> C 	 28.6475 	 -28.5715 	 -128.107
| 30> H 	 29.2699 	 -28.1877 	 -128.865
| 31> H 	 29.2855 	 -28.8319 	 -127.275
| 32> C 	 27.6154 	 -27.4603 	 -127.729
| 33> H 	 27.1196 	 -27.6648 	 -126.78
| 34> H 	 26.8845 	 -27.479 	 -128.414
| 35> C 	 28.4994 	 -26.1318 	 -127.616
| 36> H 	 28.9275 	 -25.7599 	 -128.5
| 37> H 	 29.3838 	 -26.3714 	 -127.028
| 38> H 	 27.9392 	 -25.2834 	 -127.138
| 39> H 	 28.9919 	 -29.7176 	 -134.381
| 40> H 	 27.1762 	 -32.9125 	 -127.138
| 41> *
| 42>
| 43>                          ****END OF INPUT****

CARTESIAN COORDINATES (ANGSTROEM)
---------------------------------
  S     28.321200  -30.962100  -132.414000
  C     28.596900  -29.657800  -133.434000
  C     28.289900  -28.457800  -132.893000
  C     28.081100  -28.601300  -131.468000
  C     27.965600  -29.943900  -131.038000
  H     27.904700  -27.798200  -130.827000
  C     28.218200  -27.110500  -133.650000
  H     27.256500  -26.615200  -133.350000
  H     27.974500  -27.332900  -134.707000
  C     29.377000  -26.105100  -133.480000
  H     29.638500  -25.775100  -132.438000
  H     30.277000  -26.674200  -133.748000
  C     29.274200  -24.849800  -134.439000
  H     29.177100  -25.131700  -135.484000
  H     28.542300  -24.098400  -134.017000
  H     30.202200  -24.290200  -134.398000
  S     27.155500  -32.083200  -129.517000
  C     27.296400  -32.022300  -127.782000
  C     27.671900  -30.824300  -127.367000
  C     27.935100  -29.878800  -128.425000
  C     27.763900  -30.455100  -129.668000
  H     27.763700  -30.602800  -126.324000
  C     28.647500  -28.571500  -128.107000
  H     29.269900  -28.187700  -128.865000
  H     29.285500  -28.831900  -127.275000
  C     27.615400  -27.460300  -127.729000
  H     27.119600  -27.664800  -126.780000
  H     26.884500  -27.479000  -128.414000
  C     28.499400  -26.131800  -127.616000
  H     28.927500  -25.759900  -128.500000
  H     29.383800  -26.371400  -127.028000
  H     27.939200  -25.283400  -127.138000
  H     28.991900  -29.717600  -134.381000
  H     27.176200  -32.912500  -127.138000

 Total Charge           Charge          ....    0
 Multiplicity           Mult            ....    1
 Number of Electrons    NEL             ....  134
 Basis Dimension        Dim             ....  322

ORBITAL ENERGIES
----------------

  NO   OCC          E(Eh)            E(eV)
   0   2.0000     -88.966120     -2420.8912
   1   2.0000     -88.960168     -2420.7292
   2   2.0000     -10.333644      -281.1928
   3   2.0000     -10.328714      -281.0586
   4   2.0000     -10.312674      -280.6221
   5   2.0000     -10.302122      -280.3350
   6   2.0000     -10.301632      -280.3217
   7   2.0000     -10.300448      -280.2894
   8   2.0000     -10.299963      -280.2762
   9   2.0000     -10.297685      -280.2143
  10   2.0000     -10.293552      -280.1018
  11   2.0000     -10.288073      -279.9527
  12   2.0000     -10.287716      -279.9430
  13   2.0000     -10.287652      -279.9412
  14   2.0000     -10.284881      -279.8658
  15   2.0000     -10.282110      -279.7904
  16   2.0000      -8.082137      -219.9261
  17   2.0000      -8.075760      -219.7526
  18   2.0000      -6.040634      -164.3740
  19   2.0000      -6.036405      -164.2589
  20   2.0000      -6.034347      -164.2029
  21   2.0000      -6.032889      -164.1633
  22   2.0000      -6.030284      -164.0924
  23   2.0000      -6.026265      -163.9830
  24   2.0000      -1.011497       -27.5242
  25   2.0000      -0.992437       -27.0056
  26   2.0000      -0.908332       -24.7170
  27   2.0000      -0.903094       -24.5744
  28   2.0000      -0.872853       -23.7515
  29   2.0000      -0.849315       -23.1110
  30   2.0000      -0.842758       -22.9326
  31   2.0000      -0.817920       -22.2567
  32   2.0000      -0.780467       -21.2376
  33   2.0000      -0.772054       -21.0087
  34   2.0000      -0.718513       -19.5517
  35   2.0000      -0.704028       -19.1576
  36   2.0000      -0.697592       -18.9824
  37   2.0000      -0.667222       -18.1560
  38   2.0000      -0.643169       -17.5015
  39   2.0000      -0.622159       -16.9298
  40   2.0000      -0.599910       -16.3244
  41   2.0000      -0.571396       -15.5485
  42   2.0000      -0.564981       -15.3739
  43   2.0000      -0.554923       -15.1002
  44   2.0000      -0.526609       -14.3298
  45   2.0000      -0.518457       -14.1079
  46   2.0000      -0.517732       -14.0882
  47   2.0000      -0.509578       -13.8663
  48   2.0000      -0.504202       -13.7200
  49   2.0000      -0.497674       -13.5424
  50   2.0000      -0.489243       -13.3130
  51   2.0000      -0.486895       -13.2491
  52   2.0000      -0.471983       -12.8433
  53   2.0000      -0.467689       -12.7265
  54   2.0000      -0.464852       -12.6493
  55   2.0000      -0.453651       -12.3445
  56   2.0000      -0.444464       -12.0945
  57   2.0000      -0.443569       -12.0701
  58   2.0000      -0.437653       -11.9091
  59   2.0000      -0.432809       -11.7773
  60   2.0000      -0.424116       -11.5408
  61   2.0000      -0.413006       -11.2385
  62   2.0000      -0.407266       -11.0823
  63   2.0000      -0.365366        -9.9421
  64   2.0000      -0.332111        -9.0372
  65   2.0000      -0.326066        -8.8727
  66   2.0000      -0.285437        -7.7671
  67   0.0000       0.027301         0.7429
  68   0.0000       0.086812         2.3623
  69   0.0000       0.111970         3.0469
  70   0.0000       0.121686         3.3113
  71   0.0000       0.128951         3.5089

MULLIKEN ATOMIC CHARGES
-----------------------
   0 S :    0.121863
   1 C :   -0.083384
   2 C :   -0.082428
   3 C :    0.021527
   4 C :   -0.114505
   5 H :   -0.023252
   6 C :    0.051117
   7 H :    0.032644
   8 H :    0.022740
   9 C :   -0.083888
  10 H :    0.037009
  11 H :    0.024701
  12 C :   -0.061882
  13 H :    0.041133
  14 H :    0.047148
  15 H :    0.028201
  16 S :    0.081233
  17 C :   -0.085144
  18 C :   -0.013313
  19 C :   -0.065821
  20 C :   -0.117396
  21 H :    0.008968
  22 C :    0.034612
  23 H :    0.018997
  24 H :    0.027368
  25 C :   -0.021002
  26 H :    0.026821
  27 H :    0.006495
  28 C :   -0.050285
  29 H :    0.020158
  30 H :    0.025486
  31 H :    0.043562
  32 H :    0.013624
  33 H :    0.066894
Sum of atomic charges:    0.0000000

LOEWDIN ATOMIC CHARGES
----------------------
   0 S :    0.434998
   1 C :   -0.203244
   2 C :   -0.064419
   3 C :   -0.054661
   4 C :   -0.193783
   5 H :    0.015786
   6 C :   -0.039038
   7 H :    0.035088
   8 H :    0.033041
   9 C :   -0.048209
  10 H :    0.029075
  11 H :    0.023239
  12 C :   -0.071461
  13 H :    0.026160
  14 H :    0.033778
  15 H :    0.026166
  16 S :    0.390925
  17 C :   -0.183921
  18 C :   -0.070410
  19 C :   -0.060759
  20 C :   -0.189431
  21 H :    0.029867
  22 C :   -0.021439
  23 H :    0.021672
  24 H :    0.030494
  25 C :   -0.018027
  26 H :    0.026291
  27 H :    0.003205
  28 C :   -0.066167
  29 H :    0.015103
  30 H :    0.026649
  31 H :    0.029998
  32 H :    0.014985
  33 H :    0.038448

  Mayer bond orders larger than 0.100000
B(  0-S ,  1-C ) :   1.1592 B(  0-S ,  4-C ) :   1.1514 B(  1-C ,  2-C ) :   1.6094
B(  1-C , 32-H ) :   0.9712 B(  2-C ,  3-C ) :   1.2554 B(  2-C ,  6-C ) :   1.0205
B(  3-C ,  4-C ) :   1.5509 B(  3-C ,  5-H ) :   1.0017 B(  4-C , 20-C ) :   1.0588
B(  6-C ,  7-H ) :   0.9393 B(  6-C ,  8-H ) :   0.9444 B(  6-C ,  9-C ) :   1.0466
B(  9-C , 10-H ) :   0.9579 B(  9-C , 11-H ) :   0.9564 B(  9-C , 12-C ) :   1.0783
B( 12-C , 13-H ) :   0.9759 B( 12-C , 14-H ) :   0.9761 B( 12-C , 15-H ) :   0.9742
B( 16-S , 17-C ) :   1.1281 B( 16-S , 20-C ) :   1.1297 B( 17-C , 18-C ) :   1.6540
B( 17-C , 33-H ) :   0.9622 B( 18-C , 19-C ) :   1.2173 B( 18-C , 21-H ) :   0.9917
B( 19-C , 20-C ) :   1.6181 B( 19-C , 22-C ) :   1.0338 B( 22-C , 23-H ) :   0.9534
B( 22-C , 24-H ) :   0.9375 B( 22-C , 25-C ) :   1.0415 B( 25-C , 26-H ) :   0.9567
B( 25-C , 27-H ) :   0.9645 B( 25-C , 28-C ) :   1.0630 B( 28-C , 29-H ) :   0.9786
B( 28-C , 30-H ) :   0.9714 B( 28-C , 31-H ) :   0.9765

Dispersion correction           -0.013778820
FINAL SINGLE POINT ENERGY     -1339.866927686935

DIPOLE MOMENT
-------------
                                X             Y             Z
Electronic contribution:     -6.70039     -32.97298      -0.37023
Nuclear contribution   :      6.98930      33.62541       0.53313
                        -----------------------------------------
Total Dipole Moment    :      0.28891       0.65243       0.16290
                        -----------------------------------------
Magnitude (a.u.)       :      0.73190
Magnitude (Debye)      :      1.86033

Rotational constants in cm-1:     0.018023     0.008751     0.006055
Rotational constants in MHz :   540.328453   262.335046   181.526297

                             ****ORCA TERMINATED NORMALLY****
TOTAL RUN TIME: 0 days 0 hours 0 minutes 21 seconds 317 msec
