                         Program Version 4.2.1 -  RELEASE  -
|  1> ! wB97X-D3 SP def2-SVP
|  2> %pal
|  3> nprocs 24
|  4> end
|  5>
|  6> * xyz 0 1
|  7> S 	 -54.6424 	 14.1127 	 23.2278
|  8> C 	 -56.1897 	 13.4915 	 22.6073
|  9> C 	 -56.7403 	 14.2641 	 21.6636
| 10> C 	 -55.9586 	 15.3744 	 21.4655
| 11> C 	 -54.8117 	 15.463 	 22.2442
| 12> H 	 -56.2405 	 16.1704 	 20.7661
| 13> C 	 -57.9752 	 13.8997 	 20.8559
| 14> H 	 -58.7078 	 14.6254 	 21.1191
| 15> H 	 -58.3805 	 12.9259 	 21.2311
| 16> C 	 -57.7704 	 13.7996 	 19.3481
| 17> H 	 -57.1993 	 14.6863 	 19.0234
| 18> H 	 -57.0995 	 12.9993 	 19.0629
| 19> C 	 -59.1569 	 13.6465 	 18.5514
| 20> H 	 -59.4633 	 12.6231 	 18.7722
| 21> H 	 -59.9604 	 14.1525 	 19.0146
| 22> H 	 -59.0821 	 13.7577 	 17.4759
| 23> S 	 -53.6682 	 17.6994 	 23.5634
| 24> C 	 -52.4309 	 18.6355 	 22.7592
| 25> C 	 -52.0004 	 18.0616 	 21.5609
| 26> C 	 -52.866 	 16.8839 	 21.2508
| 27> C 	 -53.7604 	 16.5185 	 22.2523
| 28> H 	 -51.3011 	 18.5721 	 20.9093
| 29> C 	 -52.7332 	 16.1951 	 19.89
| 30> H 	 -52.758 	 15.1576 	 20.113
| 31> H 	 -51.83 	 16.3923 	 19.4174
| 32> C 	 -53.8273 	 16.4808 	 18.833
| 33> H 	 -54.7394 	 15.8632 	 18.962
| 34> H 	 -53.5316 	 16.1746 	 17.8319
| 35> C 	 -54.422 	 17.9635 	 18.7603
| 36> H 	 -54.9408 	 18.2705 	 19.7586
| 37> H 	 -55.0501 	 18.0676 	 17.9209
| 38> H 	 -53.5902 	 18.5975 	 18.5499
| 39> H 	 -56.6865 	 12.6461 	 23.0031
| 40> H 	 -51.9791 	 19.4563 	 23.1745
| 41> *
| 42>
| 43>                          ****END OF INPUT****

CARTESIAN COORDINATES (ANGSTROEM)
---------------------------------
  S    -54.642400   14.112700   23.227800
  C    -56.189700   13.491500   22.607300
  C    -56.740300   14.264100   21.663600
  C    -55.958600   15.374400   21.465500
  C    -54.811700   15.463000   22.244200
  H    -56.240500   16.170400   20.766100
  C    -57.975200   13.899700   20.855900
  H    -58.707800   14.625400   21.119100
  H    -58.380500   12.925900   21.231100
  C    -57.770400   13.799600   19.348100
  H    -57.199300   14.686300   19.023400
  H    -57.099500   12.999300   19.062900
  C    -59.156900   13.646500   18.551400
  H    -59.463300   12.623100   18.772200
  H    -59.960400   14.152500   19.014600
  H    -59.082100   13.757700   17.475900
  S    -53.668200   17.699400   23.563400
  C    -52.430900   18.635500   22.759200
  C    -52.000400   18.061600   21.560900
  C    -52.866000   16.883900   21.250800
  C    -53.760400   16.518500   22.252300
  H    -51.301100   18.572100   20.909300
  C    -52.733200   16.195100   19.890000
  H    -52.758000   15.157600   20.113000
  H    -51.830000   16.392300   19.417400
  C    -53.827300   16.480800   18.833000
  H    -54.739400   15.863200   18.962000
  H    -53.531600   16.174600   17.831900
  C    -54.422000   17.963500   18.760300
  H    -54.940800   18.270500   19.758600
  H    -55.050100   18.067600   17.920900
  H    -53.590200   18.597500   18.549900
  H    -56.686500   12.646100   23.003100
  H    -51.979100   19.456300   23.174500

 Total Charge           Charge          ....    0
 Multiplicity           Mult            ....    1
 Number of Electrons    NEL             ....  134
 Basis Dimension        Dim             ....  322

ORBITAL ENERGIES
----------------

  NO   OCC          E(Eh)            E(eV)
   0   2.0000     -88.967133     -2420.9188
   1   2.0000     -88.964586     -2420.8495
   2   2.0000     -10.328714      -281.0586
   3   2.0000     -10.326711      -281.0041
   4   2.0000     -10.315930      -280.7107
   5   2.0000     -10.310731      -280.5693
   6   2.0000     -10.306119      -280.4437
   7   2.0000     -10.300993      -280.3043
   8   2.0000     -10.296712      -280.1878
   9   2.0000     -10.294261      -280.1211
  10   2.0000     -10.291182      -280.0373
  11   2.0000     -10.289112      -279.9810
  12   2.0000     -10.287377      -279.9338
  13   2.0000     -10.283006      -279.8148
  14   2.0000     -10.281818      -279.7825
  15   2.0000     -10.278334      -279.6877
  16   2.0000      -8.082807      -219.9444
  17   2.0000      -8.079095      -219.8434
  18   2.0000      -6.041046      -164.3852
  19   2.0000      -6.037706      -164.2943
  20   2.0000      -6.037189      -164.2803
  21   2.0000      -6.033778      -164.1875
  22   2.0000      -6.033499      -164.1799
  23   2.0000      -6.029903      -164.0820
  24   2.0000      -1.013100       -27.5679
  25   2.0000      -0.982406       -26.7326
  26   2.0000      -0.914142       -24.8751
  27   2.0000      -0.898991       -24.4628
  28   2.0000      -0.868123       -23.6228
  29   2.0000      -0.846251       -23.0277
  30   2.0000      -0.836749       -22.7691
  31   2.0000      -0.814569       -22.1656
  32   2.0000      -0.788588       -21.4586
  33   2.0000      -0.777450       -21.1555
  34   2.0000      -0.713963       -19.4279
  35   2.0000      -0.701736       -19.0952
  36   2.0000      -0.688292       -18.7294
  37   2.0000      -0.663003       -18.0412
  38   2.0000      -0.643294       -17.5049
  39   2.0000      -0.624178       -16.9847
  40   2.0000      -0.585681       -15.9372
  41   2.0000      -0.573859       -15.6155
  42   2.0000      -0.557231       -15.1630
  43   2.0000      -0.552639       -15.0381
  44   2.0000      -0.542282       -14.7563
  45   2.0000      -0.532344       -14.4858
  46   2.0000      -0.521266       -14.1844
  47   2.0000      -0.505843       -13.7647
  48   2.0000      -0.498094       -13.5538
  49   2.0000      -0.494275       -13.4499
  50   2.0000      -0.488649       -13.2968
  51   2.0000      -0.483179       -13.1480
  52   2.0000      -0.466994       -12.7075
  53   2.0000      -0.464086       -12.6284
  54   2.0000      -0.461782       -12.5657
  55   2.0000      -0.452080       -12.3017
  56   2.0000      -0.448936       -12.2162
  57   2.0000      -0.442257       -12.0344
  58   2.0000      -0.438427       -11.9302
  59   2.0000      -0.424337       -11.5468
  60   2.0000      -0.417309       -11.3556
  61   2.0000      -0.413988       -11.2652
  62   2.0000      -0.404236       -10.9998
  63   2.0000      -0.341196        -9.2844
  64   2.0000      -0.332606        -9.0507
  65   2.0000      -0.321792        -8.7564
  66   2.0000      -0.307979        -8.3805
  67   0.0000       0.042951         1.1688
  68   0.0000       0.060208         1.6383
  69   0.0000       0.117145         3.1877
  70   0.0000       0.124253         3.3811
  71   0.0000       0.125939         3.4270

MULLIKEN ATOMIC CHARGES
-----------------------
   0 S :    0.126871
   1 C :   -0.127285
   2 C :   -0.057521
   3 C :    0.024848
   4 C :   -0.179602
   5 H :    0.007643
   6 C :    0.097920
   7 H :    0.027861
   8 H :    0.016924
   9 C :   -0.100765
  10 H :    0.033151
  11 H :    0.034134
  12 C :   -0.025107
  13 H :    0.017846
  14 H :    0.020014
  15 H :    0.049116
  16 S :    0.105788
  17 C :   -0.064929
  18 C :   -0.019676
  19 C :   -0.090887
  20 C :   -0.146025
  21 H :    0.030074
  22 C :    0.164432
  23 H :    0.025547
  24 H :    0.001541
  25 C :   -0.111780
  26 H :    0.021857
  27 H :    0.020120
  28 C :   -0.062439
  29 H :    0.064966
  30 H :    0.025278
  31 H :    0.018851
  32 H :    0.021597
  33 H :    0.029635
Sum of atomic charges:   -0.0000000

LOEWDIN ATOMIC CHARGES
----------------------
   0 S :    0.433327
   1 C :   -0.177729
   2 C :   -0.070480
   3 C :   -0.062424
   4 C :   -0.218074
   5 H :    0.031332
   6 C :   -0.023310
   7 H :    0.028879
   8 H :    0.031551
   9 C :   -0.037359
  10 H :    0.020457
  11 H :    0.025618
  12 C :   -0.062452
  13 H :    0.027176
  14 H :    0.019685
  15 H :    0.028962
  16 S :    0.399738
  17 C :   -0.165628
  18 C :   -0.070578
  19 C :   -0.041185
  20 C :   -0.212076
  21 H :    0.033237
  22 C :   -0.025136
  23 H :    0.034175
  24 H :    0.020872
  25 C :   -0.041566
  26 H :    0.018706
  27 H :    0.021357
  28 C :   -0.069083
  29 H :    0.039004
  30 H :    0.018061
  31 H :    0.016733
  32 H :    0.016961
  33 H :    0.011249

  Mayer bond orders larger than 0.100000
B(  0-S ,  1-C ) :   1.1453 B(  0-S ,  4-C ) :   1.1890 B(  1-C ,  2-C ) :   1.6183
B(  1-C , 32-H ) :   0.9663 B(  2-C ,  3-C ) :   1.2728 B(  2-C ,  6-C ) :   1.0078
B(  3-C ,  4-C ) :   1.5616 B(  3-C ,  5-H ) :   0.9936 B(  4-C , 20-C ) :   0.9855
B(  6-C ,  7-H ) :   0.9309 B(  6-C ,  8-H ) :   0.9412 B(  6-C ,  9-C ) :   1.0592
B(  9-C , 10-H ) :   0.9597 B(  9-C , 11-H ) :   0.9592 B(  9-C , 12-C ) :   1.0619
B( 12-C , 13-H ) :   0.9740 B( 12-C , 14-H ) :   0.9774 B( 12-C , 15-H ) :   0.9775
B( 16-S , 17-C ) :   1.1693 B( 16-S , 20-C ) :   1.1200 B( 17-C , 18-C ) :   1.6183
B( 17-C , 33-H ) :   0.9748 B( 18-C , 19-C ) :   1.2122 B( 18-C , 21-H ) :   0.9878
B( 19-C , 20-C ) :   1.6323 B( 19-C , 22-C ) :   1.0496 B( 22-C , 23-H ) :   0.9258
B( 22-C , 24-H ) :   0.9367 B( 22-C , 25-C ) :   1.0595 B( 25-C , 26-H ) :   0.9536
B( 25-C , 27-H ) :   0.9559 B( 25-C , 28-C ) :   1.0791 B( 28-C , 29-H ) :   0.9673
B( 28-C , 30-H ) :   0.9748 B( 28-C , 31-H ) :   0.9776

Dispersion correction           -0.015747575
FINAL SINGLE POINT ENERGY     -1339.866330931224

DIPOLE MOMENT
-------------
                                X             Y             Z
Electronic contribution:     13.86225       2.84047      27.28852
Nuclear contribution   :    -14.08525      -2.88054     -27.93903
                        -----------------------------------------
Total Dipole Moment    :     -0.22300      -0.04007      -0.65051
                        -----------------------------------------
Magnitude (a.u.)       :      0.68884
Magnitude (Debye)      :      1.75089

Rotational constants in cm-1:     0.020080     0.009080     0.007052
Rotational constants in MHz :   601.978330   272.196934   211.409187

                             ****ORCA TERMINATED NORMALLY****
TOTAL RUN TIME: 0 days 0 hours 0 minutes 22 seconds 641 msec
