                         Program Version 4.2.1 -  RELEASE  -
|  1> ! wB97X-D3 SP def2-SVP
|  2> %pal
|  3> nprocs 24
|  4> end
|  5>
|  6> * xyz 0 1
|  7> S 	 -107.992 	 55.9877 	 -111.968
|  8> C 	 -107.663 	 57.6609 	 -111.694
|  9> C 	 -108.283 	 58.2325 	 -110.597
| 10> C 	 -109.077 	 57.245 	 -109.863
| 11> C 	 -108.971 	 55.9802 	 -110.53
| 12> H 	 -109.677 	 57.3523 	 -108.979
| 13> C 	 -108.25 	 59.7009 	 -110.257
| 14> H 	 -109.292 	 60.0554 	 -109.94
| 15> H 	 -107.993 	 60.3489 	 -111.048
| 16> C 	 -107.235 	 60.0863 	 -109.272
| 17> H 	 -106.247 	 59.7736 	 -109.613
| 18> H 	 -107.135 	 61.1872 	 -109.312
| 19> C 	 -107.491 	 59.591 	 -107.867
| 20> H 	 -106.735 	 60.0625 	 -107.223
| 21> H 	 -108.396 	 59.9347 	 -107.384
| 22> H 	 -107.583 	 58.4727 	 -107.712
| 23> S 	 -108.238 	 53.6163 	 -109.336
| 24> C 	 -109.41 	 52.4246 	 -109.044
| 25> C 	 -110.7 	 52.8954 	 -109.264
| 26> C 	 -110.689 	 54.2628 	 -109.79
| 27> C 	 -109.409 	 54.697 	 -109.986
| 28> H 	 -111.567 	 52.2634 	 -109.084
| 29> C 	 -111.886 	 54.8726 	 -110.41
| 30> H 	 -112.505 	 54.0117 	 -110.738
| 31> H 	 -111.66 	 55.4229 	 -111.365
| 32> C 	 -112.648 	 55.8012 	 -109.406
| 33> H 	 -112.125 	 56.7779 	 -109.32
| 34> H 	 -112.717 	 55.4477 	 -108.434
| 35> C 	 -114.118 	 56.0272 	 -109.802
| 36> H 	 -114.664 	 55.1411 	 -110
| 37> H 	 -114.194 	 56.7781 	 -110.613
| 38> H 	 -114.55 	 56.6538 	 -108.993
| 39> H 	 -107.047 	 58.267 	 -112.353
| 40> H 	 -109.336 	 51.4152 	 -108.652
| 41> *
| 42>
| 43>                          ****END OF INPUT****

CARTESIAN COORDINATES (ANGSTROEM)
---------------------------------
  S    -107.992000   55.987700  -111.968000
  C    -107.663000   57.660900  -111.694000
  C    -108.283000   58.232500  -110.597000
  C    -109.077000   57.245000  -109.863000
  C    -108.971000   55.980200  -110.530000
  H    -109.677000   57.352300  -108.979000
  C    -108.250000   59.700900  -110.257000
  H    -109.292000   60.055400  -109.940000
  H    -107.993000   60.348900  -111.048000
  C    -107.235000   60.086300  -109.272000
  H    -106.247000   59.773600  -109.613000
  H    -107.135000   61.187200  -109.312000
  C    -107.491000   59.591000  -107.867000
  H    -106.735000   60.062500  -107.223000
  H    -108.396000   59.934700  -107.384000
  H    -107.583000   58.472700  -107.712000
  S    -108.238000   53.616300  -109.336000
  C    -109.410000   52.424600  -109.044000
  C    -110.700000   52.895400  -109.264000
  C    -110.689000   54.262800  -109.790000
  C    -109.409000   54.697000  -109.986000
  H    -111.567000   52.263400  -109.084000
  C    -111.886000   54.872600  -110.410000
  H    -112.505000   54.011700  -110.738000
  H    -111.660000   55.422900  -111.365000
  C    -112.648000   55.801200  -109.406000
  H    -112.125000   56.777900  -109.320000
  H    -112.717000   55.447700  -108.434000
  C    -114.118000   56.027200  -109.802000
  H    -114.664000   55.141100  -110.000000
  H    -114.194000   56.778100  -110.613000
  H    -114.550000   56.653800  -108.993000
  H    -107.047000   58.267000  -112.353000
  H    -109.336000   51.415200  -108.652000

 Total Charge           Charge          ....    0
 Multiplicity           Mult            ....    1
 Number of Electrons    NEL             ....  134
 Basis Dimension        Dim             ....  322

ORBITAL ENERGIES
----------------

  NO   OCC          E(Eh)            E(eV)
   0   2.0000     -88.971490     -2421.0373
   1   2.0000     -88.962872     -2420.8028
   2   2.0000     -10.330228      -281.0998
   3   2.0000     -10.314579      -280.6740
   4   2.0000     -10.312791      -280.6253
   5   2.0000     -10.310911      -280.5742
   6   2.0000     -10.305146      -280.4173
   7   2.0000     -10.304156      -280.3903
   8   2.0000     -10.295180      -280.1461
   9   2.0000     -10.292395      -280.0703
  10   2.0000     -10.291356      -280.0420
  11   2.0000     -10.288104      -279.9536
  12   2.0000     -10.282937      -279.8129
  13   2.0000     -10.281741      -279.7804
  14   2.0000     -10.276445      -279.6363
  15   2.0000     -10.275281      -279.6046
  16   2.0000      -8.086558      -220.0464
  17   2.0000      -8.079032      -219.8416
  18   2.0000      -6.044830      -164.4882
  19   2.0000      -6.041070      -164.3859
  20   2.0000      -6.037514      -164.2891
  21   2.0000      -6.037499      -164.2887
  22   2.0000      -6.033298      -164.1744
  23   2.0000      -6.029781      -164.0787
  24   2.0000      -1.009144       -27.4602
  25   2.0000      -0.984831       -26.7986
  26   2.0000      -0.922565       -25.1043
  27   2.0000      -0.906199       -24.6589
  28   2.0000      -0.866382       -23.5755
  29   2.0000      -0.851743       -23.1771
  30   2.0000      -0.846615       -23.0376
  31   2.0000      -0.811234       -22.0748
  32   2.0000      -0.785556       -21.3761
  33   2.0000      -0.768344       -20.9077
  34   2.0000      -0.702055       -19.1039
  35   2.0000      -0.698418       -19.0049
  36   2.0000      -0.691276       -18.8106
  37   2.0000      -0.660071       -17.9615
  38   2.0000      -0.643003       -17.4970
  39   2.0000      -0.615468       -16.7477
  40   2.0000      -0.592711       -16.1285
  41   2.0000      -0.571261       -15.5448
  42   2.0000      -0.560421       -15.2498
  43   2.0000      -0.551275       -15.0009
  44   2.0000      -0.541571       -14.7369
  45   2.0000      -0.526619       -14.3300
  46   2.0000      -0.515330       -14.0228
  47   2.0000      -0.512805       -13.9541
  48   2.0000      -0.502079       -13.6623
  49   2.0000      -0.491796       -13.3825
  50   2.0000      -0.485699       -13.2165
  51   2.0000      -0.484250       -13.1771
  52   2.0000      -0.472703       -12.8629
  53   2.0000      -0.464335       -12.6352
  54   2.0000      -0.456726       -12.4282
  55   2.0000      -0.451314       -12.2809
  56   2.0000      -0.446265       -12.1435
  57   2.0000      -0.438479       -11.9316
  58   2.0000      -0.432535       -11.7699
  59   2.0000      -0.419616       -11.4183
  60   2.0000      -0.417213       -11.3529
  61   2.0000      -0.411526       -11.1982
  62   2.0000      -0.411289       -11.1917
  63   2.0000      -0.338733        -9.2174
  64   2.0000      -0.327577        -8.9138
  65   2.0000      -0.322774        -8.7831
  66   2.0000      -0.301077        -8.1927
  67   0.0000       0.038568         1.0495
  68   0.0000       0.068450         1.8626
  69   0.0000       0.108172         2.9435
  70   0.0000       0.122348         3.3292
  71   0.0000       0.127321         3.4646

MULLIKEN ATOMIC CHARGES
-----------------------
   0 S :    0.137480
   1 C :   -0.108683
   2 C :   -0.081468
   3 C :    0.062023
   4 C :   -0.208126
   5 H :    0.019743
   6 C :    0.069873
   7 H :    0.035616
   8 H :    0.003137
   9 C :   -0.053852
  10 H :    0.019186
  11 H :    0.024508
  12 C :   -0.067310
  13 H :    0.031900
  14 H :    0.011905
  15 H :    0.052446
  16 S :    0.137758
  17 C :   -0.083880
  18 C :   -0.061076
  19 C :    0.009024
  20 C :   -0.180128
  21 H :    0.020288
  22 C :    0.025238
  23 H :    0.025507
  24 H :    0.046759
  25 C :   -0.068337
  26 H :    0.029000
  27 H :    0.015575
  28 C :   -0.045585
  29 H :    0.037831
  30 H :    0.024524
  31 H :    0.026115
  32 H :    0.040336
  33 H :    0.052676
Sum of atomic charges:    0.0000000

LOEWDIN ATOMIC CHARGES
----------------------
   0 S :    0.429856
   1 C :   -0.204020
   2 C :   -0.057819
   3 C :   -0.047271
   4 C :   -0.199786
   5 H :    0.029608
   6 C :   -0.037986
   7 H :    0.037678
   8 H :    0.025874
   9 C :   -0.043692
  10 H :    0.025309
  11 H :    0.027502
  12 C :   -0.078820
  13 H :    0.029930
  14 H :    0.019481
  15 H :    0.034715
  16 S :    0.436996
  17 C :   -0.209225
  18 C :   -0.072501
  19 C :   -0.059933
  20 C :   -0.223065
  21 H :    0.029659
  22 C :   -0.034894
  23 H :    0.032119
  24 H :    0.039291
  25 C :   -0.036088
  26 H :    0.027589
  27 H :    0.013170
  28 C :   -0.066810
  29 H :    0.018443
  30 H :    0.025725
  31 H :    0.029922
  32 H :    0.024944
  33 H :    0.034102

  Mayer bond orders larger than 0.100000
B(  0-S ,  1-C ) :   1.1423 B(  0-S ,  4-C ) :   1.1727 B(  1-C ,  2-C ) :   1.6329
B(  1-C , 32-H ) :   0.9611 B(  2-C ,  3-C ) :   1.2197 B(  2-C ,  6-C ) :   1.0221
B(  3-C ,  4-C ) :   1.5667 B(  3-C ,  5-H ) :   0.9887 B(  4-C , 20-C ) :   1.0095
B(  6-C ,  7-H ) :   0.9433 B(  6-C ,  8-H ) :   0.9338 B(  6-C ,  9-C ) :   1.0888
B(  9-C , 10-H ) :   0.9442 B(  9-C , 11-H ) :   0.9509 B(  9-C , 12-C ) :   1.0838
B( 12-C , 13-H ) :   0.9714 B( 12-C , 14-H ) :   0.9718 B( 12-C , 15-H ) :   0.9701
B( 16-S , 17-C ) :   1.1549 B( 16-S , 20-C ) :   1.1481 B( 17-C , 18-C ) :   1.6298
B( 17-C , 33-H ) :   0.9644 B( 18-C , 19-C ) :   1.2238 B( 18-C , 21-H ) :   0.9860
B( 19-C , 20-C ) :   1.6146 B( 19-C , 22-C ) :   1.0439 B( 22-C , 23-H ) :   0.9518
B( 22-C , 24-H ) :   0.9377 B( 22-C , 25-C ) :   1.0407 B( 25-C , 26-H ) :   0.9483
B( 25-C , 27-H ) :   0.9661 B( 25-C , 28-C ) :   1.0873 B( 28-C , 29-H ) :   0.9780
B( 28-C , 30-H ) :   0.9730 B( 28-C , 31-H ) :   0.9724

Dispersion correction           -0.014593764
FINAL SINGLE POINT ENERGY     -1339.871890231999

DIPOLE MOMENT
-------------
                                X             Y             Z
Electronic contribution:     14.28054     -19.02199      -8.97707
Nuclear contribution   :    -14.57742      19.40803       9.09717
                        -----------------------------------------
Total Dipole Moment    :     -0.29689       0.38604       0.12010
                        -----------------------------------------
Magnitude (a.u.)       :      0.50159
Magnitude (Debye)      :      1.27493

Rotational constants in cm-1:     0.017154     0.009004     0.007443
Rotational constants in MHz :   514.257835   269.947493   223.134629

                             ****ORCA TERMINATED NORMALLY****
TOTAL RUN TIME: 0 days 0 hours 0 minutes 21 seconds 953 msec
