                         Program Version 4.2.1 -  RELEASE  -
|  1> ! wB97X-D3 SP def2-SVP
|  2> %pal
|  3> nprocs 24
|  4> end
|  5>
|  6> * xyz 0 1
|  7> S 	 -70.2633 	 15.5855 	 -77.8537
|  8> C 	 -68.6192 	 15.2985 	 -78.4756
|  9> C 	 -67.9349 	 14.3087 	 -77.7349
| 10> C 	 -68.7068 	 13.806 	 -76.647
| 11> C 	 -70.0335 	 14.3063 	 -76.6415
| 12> H 	 -68.4405 	 12.9839 	 -75.9938
| 13> C 	 -66.5719 	 13.8389 	 -78.0041
| 14> H 	 -66.4005 	 13.7996 	 -79.0435
| 15> H 	 -66.4574 	 12.77 	 -77.7353
| 16> C 	 -65.3707 	 14.6811 	 -77.4712
| 17> H 	 -64.494 	 14.0625 	 -77.6673
| 18> H 	 -65.2448 	 15.5703 	 -78.0168
| 19> C 	 -65.4059 	 14.9672 	 -75.94
| 20> H 	 -65.3514 	 14.085 	 -75.351
| 21> H 	 -64.5438 	 15.6019 	 -75.6922
| 22> H 	 -66.2009 	 15.5917 	 -75.5988
| 23> S 	 -72.6094 	 13.2115 	 -76.2719
| 24> C 	 -73.1163 	 12.9439 	 -74.5791
| 25> C 	 -72.1404 	 13.2376 	 -73.6773
| 26> C 	 -70.9823 	 13.783 	 -74.2816
| 27> C 	 -71.0558 	 13.856 	 -75.7021
| 28> H 	 -72.2722 	 13.0898 	 -72.5772
| 29> C 	 -69.9179 	 14.4362 	 -73.3822
| 30> H 	 -70.3927 	 15.1919 	 -72.7226
| 31> H 	 -69.2687 	 15.0499 	 -73.9903
| 32> C 	 -69.0524 	 13.3185 	 -72.6549
| 33> H 	 -68.6559 	 12.6846 	 -73.4692
| 34> H 	 -69.7736 	 12.6669 	 -72.1101
| 35> C 	 -67.9138 	 13.9676 	 -71.7644
| 36> H 	 -67.3553 	 14.7296 	 -72.2964
| 37> H 	 -67.1652 	 13.2032 	 -71.4784
| 38> H 	 -68.3071 	 14.3378 	 -70.8001
| 39> H 	 -68.1204 	 15.6703 	 -79.3417
| 40> H 	 -74.1083 	 12.5647 	 -74.2753
| 41> *
| 42>
| 43>                          ****END OF INPUT****

CARTESIAN COORDINATES (ANGSTROEM)
---------------------------------
  S    -70.263300   15.585500  -77.853700
  C    -68.619200   15.298500  -78.475600
  C    -67.934900   14.308700  -77.734900
  C    -68.706800   13.806000  -76.647000
  C    -70.033500   14.306300  -76.641500
  H    -68.440500   12.983900  -75.993800
  C    -66.571900   13.838900  -78.004100
  H    -66.400500   13.799600  -79.043500
  H    -66.457400   12.770000  -77.735300
  C    -65.370700   14.681100  -77.471200
  H    -64.494000   14.062500  -77.667300
  H    -65.244800   15.570300  -78.016800
  C    -65.405900   14.967200  -75.940000
  H    -65.351400   14.085000  -75.351000
  H    -64.543800   15.601900  -75.692200
  H    -66.200900   15.591700  -75.598800
  S    -72.609400   13.211500  -76.271900
  C    -73.116300   12.943900  -74.579100
  C    -72.140400   13.237600  -73.677300
  C    -70.982300   13.783000  -74.281600
  C    -71.055800   13.856000  -75.702100
  H    -72.272200   13.089800  -72.577200
  C    -69.917900   14.436200  -73.382200
  H    -70.392700   15.191900  -72.722600
  H    -69.268700   15.049900  -73.990300
  C    -69.052400   13.318500  -72.654900
  H    -68.655900   12.684600  -73.469200
  H    -69.773600   12.666900  -72.110100
  C    -67.913800   13.967600  -71.764400
  H    -67.355300   14.729600  -72.296400
  H    -67.165200   13.203200  -71.478400
  H    -68.307100   14.337800  -70.800100
  H    -68.120400   15.670300  -79.341700
  H    -74.108300   12.564700  -74.275300

 Total Charge           Charge          ....    0
 Multiplicity           Mult            ....    1
 Number of Electrons    NEL             ....  134
 Basis Dimension        Dim             ....  322

ORBITAL ENERGIES
----------------

  NO   OCC          E(Eh)            E(eV)
   0   2.0000     -88.973611     -2421.0950
   1   2.0000     -88.967518     -2420.9292
   2   2.0000     -10.334282      -281.2101
   3   2.0000     -10.331213      -281.1266
   4   2.0000     -10.320889      -280.8457
   5   2.0000     -10.316251      -280.7195
   6   2.0000     -10.304803      -280.4079
   7   2.0000     -10.300279      -280.2849
   8   2.0000     -10.299036      -280.2510
   9   2.0000     -10.296766      -280.1892
  10   2.0000     -10.294669      -280.1322
  11   2.0000     -10.293124      -280.0901
  12   2.0000     -10.287811      -279.9456
  13   2.0000     -10.287020      -279.9240
  14   2.0000     -10.286145      -279.9002
  15   2.0000     -10.272506      -279.5291
  16   2.0000      -8.086689      -220.0500
  17   2.0000      -8.081180      -219.9001
  18   2.0000      -6.045298      -164.5009
  19   2.0000      -6.041399      -164.3948
  20   2.0000      -6.039762      -164.3503
  21   2.0000      -6.037470      -164.2879
  22   2.0000      -6.035897      -164.2451
  23   2.0000      -6.031863      -164.1353
  24   2.0000      -0.996361       -27.1123
  25   2.0000      -0.975742       -26.5513
  26   2.0000      -0.910272       -24.7698
  27   2.0000      -0.895126       -24.3576
  28   2.0000      -0.864428       -23.5223
  29   2.0000      -0.847108       -23.0510
  30   2.0000      -0.841641       -22.9022
  31   2.0000      -0.811096       -22.0710
  32   2.0000      -0.784015       -21.3341
  33   2.0000      -0.766299       -20.8521
  34   2.0000      -0.708255       -19.2726
  35   2.0000      -0.705064       -19.1858
  36   2.0000      -0.696117       -18.9423
  37   2.0000      -0.654261       -17.8033
  38   2.0000      -0.635308       -17.2876
  39   2.0000      -0.612602       -16.6697
  40   2.0000      -0.591973       -16.1084
  41   2.0000      -0.573331       -15.6011
  42   2.0000      -0.554541       -15.0898
  43   2.0000      -0.548331       -14.9208
  44   2.0000      -0.536466       -14.5980
  45   2.0000      -0.514818       -14.0089
  46   2.0000      -0.511249       -13.9118
  47   2.0000      -0.505800       -13.7635
  48   2.0000      -0.504061       -13.7162
  49   2.0000      -0.493624       -13.4322
  50   2.0000      -0.489786       -13.3278
  51   2.0000      -0.474427       -12.9098
  52   2.0000      -0.469895       -12.7865
  53   2.0000      -0.465043       -12.6545
  54   2.0000      -0.460265       -12.5244
  55   2.0000      -0.451006       -12.2725
  56   2.0000      -0.443826       -12.0771
  57   2.0000      -0.436157       -11.8684
  58   2.0000      -0.433606       -11.7990
  59   2.0000      -0.429354       -11.6833
  60   2.0000      -0.423302       -11.5186
  61   2.0000      -0.418139       -11.3781
  62   2.0000      -0.414385       -11.2760
  63   2.0000      -0.342966        -9.3326
  64   2.0000      -0.331978        -9.0336
  65   2.0000      -0.328353        -8.9349
  66   2.0000      -0.288662        -7.8549
  67   0.0000       0.023315         0.6344
  68   0.0000       0.066547         1.8108
  69   0.0000       0.110419         3.0047
  70   0.0000       0.117116         3.1869
  71   0.0000       0.120860         3.2888

MULLIKEN ATOMIC CHARGES
-----------------------
   0 S :    0.125152
   1 C :   -0.089914
   2 C :   -0.096653
   3 C :    0.033608
   4 C :   -0.168613
   5 H :    0.018554
   6 C :    0.058245
   7 H :    0.008745
   8 H :    0.026716
   9 C :   -0.042688
  10 H :    0.027018
  11 H :    0.019179
  12 C :   -0.049489
  13 H :    0.025265
  14 H :    0.025020
  15 H :    0.036042
  16 S :    0.105022
  17 C :   -0.104062
  18 C :   -0.029860
  19 C :   -0.039454
  20 C :   -0.162572
  21 H :    0.040301
  22 C :    0.044613
  23 H :    0.041793
  24 H :    0.018096
  25 C :   -0.103673
  26 H :    0.034117
  27 H :    0.033789
  28 C :   -0.042476
  29 H :    0.037515
  30 H :    0.035500
  31 H :    0.040633
  32 H :    0.030695
  33 H :    0.063837
Sum of atomic charges:    0.0000000

LOEWDIN ATOMIC CHARGES
----------------------
   0 S :    0.395606
   1 C :   -0.192714
   2 C :   -0.060804
   3 C :   -0.053806
   4 C :   -0.188808
   5 H :    0.031729
   6 C :   -0.040305
   7 H :    0.027073
   8 H :    0.034906
   9 C :   -0.024463
  10 H :    0.027049
  11 H :    0.016020
  12 C :   -0.066608
  13 H :    0.019144
  14 H :    0.029507
  15 H :    0.022632
  16 S :    0.381048
  17 C :   -0.174427
  18 C :   -0.077488
  19 C :   -0.053672
  20 C :   -0.199704
  21 H :    0.042278
  22 C :   -0.032420
  23 H :    0.033334
  24 H :    0.023259
  25 C :   -0.038776
  26 H :    0.024475
  27 H :    0.023793
  28 C :   -0.070198
  29 H :    0.025485
  30 H :    0.028985
  31 H :    0.029168
  32 H :    0.024175
  33 H :    0.034527

  Mayer bond orders larger than 0.100000
B(  0-S ,  1-C ) :   1.1264 B(  0-S ,  4-C ) :   1.1481 B(  1-C ,  2-C ) :   1.6005
B(  1-C ,  4-C ) :   0.1031 B(  1-C , 32-H ) :   0.9659 B(  2-C ,  3-C ) :   1.2483
B(  2-C ,  6-C ) :   1.0435 B(  3-C ,  4-C ) :   1.5474 B(  3-C ,  5-H ) :   0.9904
B(  4-C , 20-C ) :   1.0655 B(  6-C ,  7-H ) :   0.9281 B(  6-C ,  8-H ) :   0.9403
B(  6-C ,  9-C ) :   1.0727 B(  9-C , 10-H ) :   0.9543 B(  9-C , 11-H ) :   0.9577
B(  9-C , 12-C ) :   1.0833 B( 12-C , 13-H ) :   0.9774 B( 12-C , 14-H ) :   0.9719
B( 12-C , 15-H ) :   0.9739 B( 16-S , 17-C ) :   1.1416 B( 16-S , 20-C ) :   1.1287
B( 17-C , 18-C ) :   1.6268 B( 17-C , 33-H ) :   0.9615 B( 18-C , 19-C ) :   1.2458
B( 18-C , 21-H ) :   0.9778 B( 19-C , 20-C ) :   1.5788 B( 19-C , 22-C ) :   1.0371
B( 22-C , 23-H ) :   0.9505 B( 22-C , 24-H ) :   0.9360 B( 22-C , 25-C ) :   1.0343
B( 25-C , 26-H ) :   0.9576 B( 25-C , 27-H ) :   0.9636 B( 25-C , 28-C ) :   1.0656
B( 28-C , 29-H ) :   0.9761 B( 28-C , 30-H ) :   0.9766 B( 28-C , 31-H ) :   0.9766

Dispersion correction           -0.015051582
FINAL SINGLE POINT ENERGY     -1339.881768576940

DIPOLE MOMENT
-------------
                                X             Y             Z
Electronic contribution:    -27.65537       0.78076     -15.84593
Nuclear contribution   :     28.23065      -0.90592      16.22476
                        -----------------------------------------
Total Dipole Moment    :      0.57528      -0.12516       0.37883
                        -----------------------------------------
Magnitude (a.u.)       :      0.70009
Magnitude (Debye)      :      1.77948

Rotational constants in cm-1:     0.016700     0.010097     0.006856
Rotational constants in MHz :   500.665958   302.711457   205.548625

                             ****ORCA TERMINATED NORMALLY****
TOTAL RUN TIME: 0 days 0 hours 0 minutes 22 seconds 73 msec
