                         Program Version 4.2.1 -  RELEASE  -
|  1> ! wB97X-D3 SP def2-SVP
|  2> %pal
|  3> nprocs 24
|  4> end
|  5>
|  6> * xyz 0 1
|  7> S 	 -119.2 	 23.7762 	 -17.6233
|  8> C 	 -118.726 	 23.3506 	 -19.2022
|  9> C 	 -118.289 	 24.3675 	 -20.006
| 10> C 	 -118.122 	 25.5104 	 -19.1645
| 11> C 	 -118.497 	 25.3449 	 -17.7967
| 12> H 	 -117.7 	 26.4776 	 -19.4328
| 13> C 	 -117.841 	 24.3016 	 -21.4247
| 14> H 	 -118.731 	 24.2527 	 -22.1194
| 15> H 	 -117.3 	 23.4086 	 -21.6619
| 16> C 	 -116.954 	 25.3872 	 -22.1069
| 17> H 	 -117.152 	 25.3862 	 -23.1831
| 18> H 	 -117.329 	 26.3484 	 -21.7512
| 19> C 	 -115.443 	 25.1747 	 -21.8164
| 20> H 	 -115.094 	 25.8848 	 -21.0284
| 21> H 	 -115.07 	 24.2038 	 -21.574
| 22> H 	 -114.93 	 25.3075 	 -22.7478
| 23> S 	 -117.577 	 25.9139 	 -15.3121
| 24> C 	 -117.863 	 27.5261 	 -14.6725
| 25> C 	 -118.603 	 28.3065 	 -15.4644
| 26> C 	 -118.81 	 27.6871 	 -16.7136
| 27> C 	 -118.413 	 26.3513 	 -16.7546
| 28> H 	 -118.871 	 29.3338 	 -15.1619
| 29> C 	 -119.422 	 28.3982 	 -17.9115
| 30> H 	 -119.933 	 27.7101 	 -18.6315
| 31> H 	 -118.55 	 28.8985 	 -18.4781
| 32> C 	 -120.203 	 29.7257 	 -17.6844
| 33> H 	 -120.482 	 30.0865 	 -18.623
| 34> H 	 -119.555 	 30.4619 	 -17.2688
| 35> C 	 -121.483 	 29.4441 	 -16.792
| 36> H 	 -122.151 	 30.3172 	 -16.783
| 37> H 	 -121.169 	 29.4087 	 -15.7602
| 38> H 	 -122.182 	 28.6482 	 -17.1734
| 39> H 	 -118.682 	 22.3189 	 -19.5818
| 40> H 	 -117.669 	 27.7207 	 -13.5719
| 41> *
| 42>
| 43>                          ****END OF INPUT****

CARTESIAN COORDINATES (ANGSTROEM)
---------------------------------
  S    -119.200000   23.776200  -17.623300
  C    -118.726000   23.350600  -19.202200
  C    -118.289000   24.367500  -20.006000
  C    -118.122000   25.510400  -19.164500
  C    -118.497000   25.344900  -17.796700
  H    -117.700000   26.477600  -19.432800
  C    -117.841000   24.301600  -21.424700
  H    -118.731000   24.252700  -22.119400
  H    -117.300000   23.408600  -21.661900
  C    -116.954000   25.387200  -22.106900
  H    -117.152000   25.386200  -23.183100
  H    -117.329000   26.348400  -21.751200
  C    -115.443000   25.174700  -21.816400
  H    -115.094000   25.884800  -21.028400
  H    -115.070000   24.203800  -21.574000
  H    -114.930000   25.307500  -22.747800
  S    -117.577000   25.913900  -15.312100
  C    -117.863000   27.526100  -14.672500
  C    -118.603000   28.306500  -15.464400
  C    -118.810000   27.687100  -16.713600
  C    -118.413000   26.351300  -16.754600
  H    -118.871000   29.333800  -15.161900
  C    -119.422000   28.398200  -17.911500
  H    -119.933000   27.710100  -18.631500
  H    -118.550000   28.898500  -18.478100
  C    -120.203000   29.725700  -17.684400
  H    -120.482000   30.086500  -18.623000
  H    -119.555000   30.461900  -17.268800
  C    -121.483000   29.444100  -16.792000
  H    -122.151000   30.317200  -16.783000
  H    -121.169000   29.408700  -15.760200
  H    -122.182000   28.648200  -17.173400
  H    -118.682000   22.318900  -19.581800
  H    -117.669000   27.720700  -13.571900

 Total Charge           Charge          ....    0
 Multiplicity           Mult            ....    1
 Number of Electrons    NEL             ....  134
 Basis Dimension        Dim             ....  322

ORBITAL ENERGIES
----------------

  NO   OCC          E(Eh)            E(eV)
   0   2.0000     -88.967687     -2420.9338
   1   2.0000     -88.962351     -2420.7886
   2   2.0000     -10.325222      -280.9636
   3   2.0000     -10.321066      -280.8505
   4   2.0000     -10.316369      -280.7227
   5   2.0000     -10.308042      -280.4961
   6   2.0000     -10.303145      -280.3628
   7   2.0000     -10.299899      -280.2745
   8   2.0000     -10.297831      -280.2182
   9   2.0000     -10.294358      -280.1237
  10   2.0000     -10.292832      -280.0822
  11   2.0000     -10.292803      -280.0814
  12   2.0000     -10.292574      -280.0752
  13   2.0000     -10.286225      -279.9024
  14   2.0000     -10.279774      -279.7269
  15   2.0000     -10.275933      -279.6224
  16   2.0000      -8.083306      -219.9580
  17   2.0000      -8.077843      -219.8093
  18   2.0000      -6.041638      -164.4013
  19   2.0000      -6.037678      -164.2936
  20   2.0000      -6.036235      -164.2543
  21   2.0000      -6.034233      -164.1998
  22   2.0000      -6.032302      -164.1473
  23   2.0000      -6.028630      -164.0474
  24   2.0000      -1.011365       -27.5206
  25   2.0000      -0.991172       -26.9712
  26   2.0000      -0.910795       -24.7840
  27   2.0000      -0.902675       -24.5630
  28   2.0000      -0.873311       -23.7640
  29   2.0000      -0.848363       -23.0851
  30   2.0000      -0.843482       -22.9523
  31   2.0000      -0.810382       -22.0516
  32   2.0000      -0.785023       -21.3616
  33   2.0000      -0.771250       -20.9868
  34   2.0000      -0.713862       -19.4252
  35   2.0000      -0.698761       -19.0143
  36   2.0000      -0.688795       -18.7431
  37   2.0000      -0.656247       -17.8574
  38   2.0000      -0.636523       -17.3207
  39   2.0000      -0.622114       -16.9286
  40   2.0000      -0.596910       -16.2428
  41   2.0000      -0.570876       -15.5343
  42   2.0000      -0.549294       -14.9470
  43   2.0000      -0.547737       -14.9047
  44   2.0000      -0.537907       -14.6372
  45   2.0000      -0.531911       -14.4740
  46   2.0000      -0.519917       -14.1477
  47   2.0000      -0.504289       -13.7224
  48   2.0000      -0.498222       -13.5573
  49   2.0000      -0.494982       -13.4691
  50   2.0000      -0.488698       -13.2982
  51   2.0000      -0.480829       -13.0840
  52   2.0000      -0.476230       -12.9589
  53   2.0000      -0.464643       -12.6436
  54   2.0000      -0.462978       -12.5983
  55   2.0000      -0.447253       -12.1704
  56   2.0000      -0.442410       -12.0386
  57   2.0000      -0.437496       -11.9049
  58   2.0000      -0.434306       -11.8181
  59   2.0000      -0.427821       -11.6416
  60   2.0000      -0.421409       -11.4671
  61   2.0000      -0.408209       -11.1079
  62   2.0000      -0.406539       -11.0625
  63   2.0000      -0.346675        -9.4335
  64   2.0000      -0.330024        -8.9804
  65   2.0000      -0.323912        -8.8141
  66   2.0000      -0.289545        -7.8789
  67   0.0000       0.030153         0.8205
  68   0.0000       0.075601         2.0572
  69   0.0000       0.120127         3.2688
  70   0.0000       0.122808         3.3418
  71   0.0000       0.125907         3.4261

MULLIKEN ATOMIC CHARGES
-----------------------
   0 S :    0.142288
   1 C :   -0.138119
   2 C :   -0.010169
   3 C :   -0.003576
   4 C :   -0.170383
   5 H :    0.007549
   6 C :    0.019973
   7 H :    0.041214
   8 H :    0.018579
   9 C :   -0.079799
  10 H :    0.031970
  11 H :    0.028203
  12 C :   -0.040818
  13 H :    0.050570
  14 H :    0.022838
  15 H :    0.022127
  16 S :    0.107027
  17 C :   -0.107779
  18 C :   -0.042432
  19 C :    0.003169
  20 C :   -0.177232
  21 H :    0.033870
  22 C :   -0.022847
  23 H :    0.054959
  24 H :    0.047551
  25 C :   -0.032297
  26 H :    0.014229
  27 H :    0.021777
  28 C :   -0.068380
  29 H :    0.019260
  30 H :    0.031125
  31 H :    0.052445
  32 H :    0.048250
  33 H :    0.074856
Sum of atomic charges:    0.0000000

LOEWDIN ATOMIC CHARGES
----------------------
   0 S :    0.440067
   1 C :   -0.210904
   2 C :   -0.068346
   3 C :   -0.059298
   4 C :   -0.216350
   5 H :    0.025789
   6 C :   -0.039786
   7 H :    0.041549
   8 H :    0.026288
   9 C :   -0.036882
  10 H :    0.027782
  11 H :    0.022121
  12 C :   -0.072040
  13 H :    0.035234
  14 H :    0.021884
  15 H :    0.025929
  16 S :    0.411812
  17 C :   -0.185340
  18 C :   -0.078901
  19 C :   -0.053304
  20 C :   -0.213428
  21 H :    0.040906
  22 C :   -0.042142
  23 H :    0.035298
  24 H :    0.042587
  25 C :   -0.032082
  26 H :    0.018081
  27 H :    0.018883
  28 C :   -0.076780
  29 H :    0.022507
  30 H :    0.022200
  31 H :    0.036657
  32 H :    0.031261
  33 H :    0.038747

  Mayer bond orders larger than 0.100000
B(  0-S ,  1-C ) :   1.1670 B(  0-S ,  4-C ) :   1.1642 B(  1-C ,  2-C ) :   1.5851
B(  1-C , 32-H ) :   0.9612 B(  2-C ,  3-C ) :   1.2658 B(  2-C ,  6-C ) :   1.0177
B(  3-C ,  4-C ) :   1.5373 B(  3-C ,  5-H ) :   0.9915 B(  4-C , 20-C ) :   1.0521
B(  6-C ,  7-H ) :   0.9286 B(  6-C ,  8-H ) :   0.9477 B(  6-C ,  9-C ) :   1.0844
B(  9-C , 10-H ) :   0.9611 B(  9-C , 11-H ) :   0.9546 B(  9-C , 12-C ) :   1.0586
B( 12-C , 13-H ) :   0.9789 B( 12-C , 14-H ) :   0.9792 B( 12-C , 15-H ) :   0.9762
B( 16-S , 17-C ) :   1.1577 B( 16-S , 20-C ) :   1.1484 B( 17-C , 18-C ) :   1.6285
B( 17-C , 33-H ) :   0.9506 B( 18-C , 19-C ) :   1.2399 B( 18-C , 21-H ) :   0.9802
B( 19-C , 20-C ) :   1.5866 B( 19-C , 22-C ) :   1.0382 B( 22-C , 23-H ) :   0.9409
B( 22-C , 24-H ) :   0.9289 B( 22-C , 25-C ) :   1.0771 B( 25-C , 26-H ) :   0.9525
B( 25-C , 27-H ) :   0.9501 B( 25-C , 28-C ) :   1.0727 B( 28-C , 29-H ) :   0.9744
B( 28-C , 30-H ) :   0.9752 B( 28-C , 31-H ) :   0.9757

Dispersion correction           -0.014139747
FINAL SINGLE POINT ENERGY     -1339.858213795017

DIPOLE MOMENT
-------------
                                X             Y             Z
Electronic contribution:      0.39791     -14.86342      19.59292
Nuclear contribution   :     -0.36241      15.31290     -20.11561
                        -----------------------------------------
Total Dipole Moment    :      0.03549       0.44948      -0.52269
                        -----------------------------------------
Magnitude (a.u.)       :      0.69029
Magnitude (Debye)      :      1.75457

Rotational constants in cm-1:     0.018283     0.008293     0.007144
Rotational constants in MHz :   548.116920   248.605673   214.169779

                             ****ORCA TERMINATED NORMALLY****
TOTAL RUN TIME: 0 days 0 hours 0 minutes 21 seconds 556 msec
