                         Program Version 4.2.1 -  RELEASE  -
|  1> ! wB97X-D3 SP def2-SVP
|  2> %pal
|  3> nprocs 24
|  4> end
|  5>
|  6> * xyz 0 1
|  7> S 	 -134.902 	 63.3823 	 -59.2747
|  8> C 	 -133.907 	 63.6909 	 -60.686
|  9> C 	 -132.901 	 64.6719 	 -60.3782
| 10> C 	 -132.936 	 65.0881 	 -59.0244
| 11> C 	 -133.947 	 64.4428 	 -58.3092
| 12> H 	 -132.181 	 65.7076 	 -58.5681
| 13> C 	 -131.869 	 65.2374 	 -61.4187
| 14> H 	 -131.775 	 64.5784 	 -62.2242
| 15> H 	 -130.911 	 65.1124 	 -60.9202
| 16> C 	 -132.209 	 66.681 	 -61.8799
| 17> H 	 -133.158 	 66.8013 	 -62.3432
| 18> H 	 -132.327 	 67.2979 	 -60.9689
| 19> C 	 -131.296 	 67.3435 	 -62.8928
| 20> H 	 -131.571 	 68.3467 	 -63.026
| 21> H 	 -130.257 	 67.3302 	 -62.5785
| 22> H 	 -131.343 	 66.8308 	 -63.8748
| 23> S 	 -135.409 	 65.8391 	 -56.4259
| 24> C 	 -135.369 	 65.2853 	 -54.7702
| 25> C 	 -134.378 	 64.3113 	 -54.6157
| 26> C 	 -133.739 	 63.886 	 -55.8135
| 27> C 	 -134.215 	 64.5985 	 -56.913
| 28> H 	 -134.108 	 64.007 	 -53.6569
| 29> C 	 -132.668 	 62.8024 	 -55.8437
| 30> H 	 -132.794 	 62.1587 	 -56.7527
| 31> H 	 -132.917 	 62.0586 	 -55.103
| 32> C 	 -131.304 	 63.2825 	 -55.6512
| 33> H 	 -131.313 	 64.0959 	 -54.9187
| 34> H 	 -130.905 	 63.836 	 -56.5565
| 35> C 	 -130.389 	 62.1361 	 -55.229
| 36> H 	 -130.554 	 61.8494 	 -54.2047
| 37> H 	 -129.419 	 62.546 	 -55.3978
| 38> H 	 -130.471 	 61.194 	 -55.7933
| 39> H 	 -133.809 	 63.1187 	 -61.5985
| 40> H 	 -136.067 	 65.5793 	 -53.9548
| 41> *
| 42>
| 43>                          ****END OF INPUT****

CARTESIAN COORDINATES (ANGSTROEM)
---------------------------------
  S    -134.902000   63.382300  -59.274700
  C    -133.907000   63.690900  -60.686000
  C    -132.901000   64.671900  -60.378200
  C    -132.936000   65.088100  -59.024400
  C    -133.947000   64.442800  -58.309200
  H    -132.181000   65.707600  -58.568100
  C    -131.869000   65.237400  -61.418700
  H    -131.775000   64.578400  -62.224200
  H    -130.911000   65.112400  -60.920200
  C    -132.209000   66.681000  -61.879900
  H    -133.158000   66.801300  -62.343200
  H    -132.327000   67.297900  -60.968900
  C    -131.296000   67.343500  -62.892800
  H    -131.571000   68.346700  -63.026000
  H    -130.257000   67.330200  -62.578500
  H    -131.343000   66.830800  -63.874800
  S    -135.409000   65.839100  -56.425900
  C    -135.369000   65.285300  -54.770200
  C    -134.378000   64.311300  -54.615700
  C    -133.739000   63.886000  -55.813500
  C    -134.215000   64.598500  -56.913000
  H    -134.108000   64.007000  -53.656900
  C    -132.668000   62.802400  -55.843700
  H    -132.794000   62.158700  -56.752700
  H    -132.917000   62.058600  -55.103000
  C    -131.304000   63.282500  -55.651200
  H    -131.313000   64.095900  -54.918700
  H    -130.905000   63.836000  -56.556500
  C    -130.389000   62.136100  -55.229000
  H    -130.554000   61.849400  -54.204700
  H    -129.419000   62.546000  -55.397800
  H    -130.471000   61.194000  -55.793300
  H    -133.809000   63.118700  -61.598500
  H    -136.067000   65.579300  -53.954800

 Total Charge           Charge          ....    0
 Multiplicity           Mult            ....    1
 Number of Electrons    NEL             ....  134
 Basis Dimension        Dim             ....  322

ORBITAL ENERGIES
----------------

  NO   OCC          E(Eh)            E(eV)
   0   2.0000     -88.970776     -2421.0179
   1   2.0000     -88.963702     -2420.8254
   2   2.0000     -10.324297      -280.9384
   3   2.0000     -10.322332      -280.8849
   4   2.0000     -10.320611      -280.8381
   5   2.0000     -10.316151      -280.7167
   6   2.0000     -10.305932      -280.4387
   7   2.0000     -10.302181      -280.3366
   8   2.0000     -10.293854      -280.1100
   9   2.0000     -10.293189      -280.0919
  10   2.0000     -10.288225      -279.9568
  11   2.0000     -10.286415      -279.9076
  12   2.0000     -10.284568      -279.8573
  13   2.0000     -10.284353      -279.8515
  14   2.0000     -10.274733      -279.5897
  15   2.0000     -10.273780      -279.5638
  16   2.0000      -8.085241      -220.0106
  17   2.0000      -8.077916      -219.8113
  18   2.0000      -6.043644      -164.4559
  19   2.0000      -6.039588      -164.3456
  20   2.0000      -6.036435      -164.2597
  21   2.0000      -6.036318      -164.2566
  22   2.0000      -6.032438      -164.1510
  23   2.0000      -6.028755      -164.0508
  24   2.0000      -1.003100       -27.2957
  25   2.0000      -0.977655       -26.6034
  26   2.0000      -0.917539       -24.9675
  27   2.0000      -0.906229       -24.6597
  28   2.0000      -0.865914       -23.5627
  29   2.0000      -0.850845       -23.1527
  30   2.0000      -0.849205       -23.1081
  31   2.0000      -0.809523       -22.0282
  32   2.0000      -0.785803       -21.3828
  33   2.0000      -0.769460       -20.9381
  34   2.0000      -0.706280       -19.2188
  35   2.0000      -0.700364       -19.0579
  36   2.0000      -0.692490       -18.8436
  37   2.0000      -0.660329       -17.9685
  38   2.0000      -0.639915       -17.4130
  39   2.0000      -0.619286       -16.8516
  40   2.0000      -0.597811       -16.2673
  41   2.0000      -0.564891       -15.3715
  42   2.0000      -0.560335       -15.2475
  43   2.0000      -0.555190       -15.1075
  44   2.0000      -0.533820       -14.5260
  45   2.0000      -0.527673       -14.3587
  46   2.0000      -0.518153       -14.0997
  47   2.0000      -0.514921       -14.0117
  48   2.0000      -0.503640       -13.7047
  49   2.0000      -0.498533       -13.5658
  50   2.0000      -0.495288       -13.4775
  51   2.0000      -0.476081       -12.9548
  52   2.0000      -0.466064       -12.6822
  53   2.0000      -0.461958       -12.5705
  54   2.0000      -0.461268       -12.5517
  55   2.0000      -0.452722       -12.3192
  56   2.0000      -0.447926       -12.1887
  57   2.0000      -0.440054       -11.9745
  58   2.0000      -0.437551       -11.9064
  59   2.0000      -0.426966       -11.6183
  60   2.0000      -0.416426       -11.3315
  61   2.0000      -0.408969       -11.1286
  62   2.0000      -0.404510       -11.0073
  63   2.0000      -0.337964        -9.1965
  64   2.0000      -0.328717        -8.9448
  65   2.0000      -0.311709        -8.4820
  66   2.0000      -0.308173        -8.3858
  67   0.0000       0.043288         1.1779
  68   0.0000       0.046820         1.2740
  69   0.0000       0.117615         3.2005
  70   0.0000       0.122721         3.3394
  71   0.0000       0.129424         3.5218

MULLIKEN ATOMIC CHARGES
-----------------------
   0 S :    0.144378
   1 C :   -0.118140
   2 C :   -0.138115
   3 C :    0.056776
   4 C :   -0.181076
   5 H :    0.015983
   6 C :    0.116456
   7 H :   -0.007178
   8 H :    0.023452
   9 C :   -0.075655
  10 H :    0.022421
  11 H :    0.025677
  12 C :   -0.025212
  13 H :    0.026162
  14 H :    0.022122
  15 H :    0.033574
  16 S :    0.112659
  17 C :   -0.109737
  18 C :   -0.021387
  19 C :   -0.008830
  20 C :   -0.207734
  21 H :   -0.008651
  22 C :    0.091331
  23 H :    0.029771
  24 H :    0.006763
  25 C :   -0.075355
  26 H :    0.023750
  27 H :    0.031501
  28 C :   -0.025515
  29 H :    0.031880
  30 H :    0.028152
  31 H :    0.032980
  32 H :    0.050931
  33 H :    0.075867
Sum of atomic charges:    0.0000000

LOEWDIN ATOMIC CHARGES
----------------------
   0 S :    0.436033
   1 C :   -0.214784
   2 C :   -0.052710
   3 C :   -0.059234
   4 C :   -0.211841
   5 H :    0.032530
   6 C :   -0.023518
   7 H :    0.016866
   8 H :    0.031250
   9 C :   -0.042386
  10 H :    0.024597
  11 H :    0.026198
  12 C :   -0.061149
  13 H :    0.022056
  14 H :    0.020718
  15 H :    0.028528
  16 S :    0.394594
  17 C :   -0.192923
  18 C :   -0.069098
  19 C :   -0.047007
  20 C :   -0.199659
  21 H :    0.017974
  22 C :   -0.037862
  23 H :    0.036798
  24 H :    0.027405
  25 C :   -0.045603
  26 H :    0.025502
  27 H :    0.029252
  28 C :   -0.059971
  29 H :    0.023685
  30 H :    0.025334
  31 H :    0.028383
  32 H :    0.029178
  33 H :    0.040866

  Mayer bond orders larger than 0.100000
B(  0-S ,  1-C ) :   1.1521 B(  0-S ,  4-C ) :   1.1768 B(  1-C ,  2-C ) :   1.5785
B(  1-C ,  4-C ) :   0.1108 B(  1-C , 32-H ) :   0.9650 B(  2-C ,  3-C ) :   1.2813
B(  2-C ,  6-C ) :   1.0206 B(  3-C ,  4-C ) :   1.5407 B(  3-C ,  5-H ) :   0.9920
B(  4-C , 20-C ) :   1.0320 B(  6-C ,  7-H ) :   0.9388 B(  6-C ,  8-H ) :   0.9409
B(  6-C ,  9-C ) :   1.0503 B(  9-C , 10-H ) :   0.9555 B(  9-C , 11-H ) :   0.9570
B(  9-C , 12-C ) :   1.0909 B( 12-C , 13-H ) :   0.9719 B( 12-C , 14-H ) :   0.9748
B( 12-C , 15-H ) :   0.9737 B( 16-S , 17-C ) :   1.1592 B( 16-S , 20-C ) :   1.1403
B( 17-C , 18-C ) :   1.5969 B( 17-C , 20-C ) :   0.1052 B( 17-C , 33-H ) :   0.9625
B( 18-C , 19-C ) :   1.2485 B( 18-C , 21-H ) :   0.9956 B( 19-C , 20-C ) :   1.5931
B( 19-C , 22-C ) :   1.0395 B( 22-C , 23-H ) :   0.9145 B( 22-C , 24-H ) :   0.9343
B( 22-C , 25-C ) :   1.0729 B( 25-C , 26-H ) :   0.9526 B( 25-C , 27-H ) :   0.9475
B( 25-C , 28-C ) :   1.0721 B( 28-C , 29-H ) :   0.9750 B( 28-C , 30-H ) :   0.9735
B( 28-C , 31-H ) :   0.9744

Dispersion correction           -0.014090773
FINAL SINGLE POINT ENERGY     -1339.873451170395

DIPOLE MOMENT
-------------
                                X             Y             Z
Electronic contribution:    -23.90246      -0.53103       6.88989
Nuclear contribution   :     24.48079       0.40828      -6.85025
                        -----------------------------------------
Total Dipole Moment    :      0.57833      -0.12274       0.03964
                        -----------------------------------------
Magnitude (a.u.)       :      0.59254
Magnitude (Debye)      :      1.50613

Rotational constants in cm-1:     0.018021     0.007808     0.006725
Rotational constants in MHz :   540.266388   234.075728   201.601086

                             ****ORCA TERMINATED NORMALLY****
TOTAL RUN TIME: 0 days 0 hours 0 minutes 21 seconds 52 msec
