                         Program Version 4.2.1 -  RELEASE  -
|  1> ! wB97X-D3 SP def2-SVP
|  2> %pal
|  3> nprocs 24
|  4> end
|  5>
|  6> * xyz 0 1
|  7> S 	 -81.0166 	 -15.3869 	 -55.101
|  8> C 	 -81.7064 	 -15.2799 	 -53.4887
|  9> C 	 -82.4422 	 -16.3823 	 -53.1959
| 10> C 	 -82.3248 	 -17.4291 	 -54.144
| 11> C 	 -81.5008 	 -17.0712 	 -55.1441
| 12> H 	 -82.721 	 -18.4407 	 -54.2896
| 13> C 	 -83.2826 	 -16.4547 	 -51.9268
| 14> H 	 -83.8595 	 -17.4159 	 -51.9932
| 15> H 	 -84.0101 	 -15.6456 	 -52.1996
| 16> C 	 -82.7312 	 -16.2233 	 -50.5518
| 17> H 	 -82.3083 	 -17.1602 	 -50.1672
| 18> H 	 -81.7892 	 -15.5883 	 -50.5482
| 19> C 	 -83.7116 	 -15.647 	 -49.4894
| 20> H 	 -84.4282 	 -14.8581 	 -49.8548
| 21> H 	 -84.3516 	 -16.4368 	 -49.0191
| 22> H 	 -83.0817 	 -15.2634 	 -48.7252
| 23> S 	 -80.5083 	 -16.8467 	 -57.7845
| 24> C 	 -80.3359 	 -18.2539 	 -58.7969
| 25> C 	 -80.569 	 -19.3995 	 -58.1149
| 26> C 	 -80.8317 	 -19.1537 	 -56.7235
| 27> C 	 -81.0118 	 -17.799 	 -56.3765
| 28> H 	 -80.4964 	 -20.3628 	 -58.5815
| 29> C 	 -80.8774 	 -20.273 	 -55.7487
| 30> H 	 -81.8275 	 -20.7821 	 -55.7489
| 31> H 	 -80.9381 	 -19.8948 	 -54.694
| 32> C 	 -79.8111 	 -21.4218 	 -55.7368
| 33> H 	 -79.7775 	 -21.916 	 -56.6961
| 34> H 	 -80.0566 	 -22.2166 	 -54.9905
| 35> C 	 -78.3832 	 -20.8436 	 -55.5208
| 36> H 	 -78.3135 	 -19.9256 	 -56.0966
| 37> H 	 -77.6602 	 -21.5259 	 -55.8213
| 38> H 	 -78.1757 	 -20.5794 	 -54.4887
| 39> H 	 -81.8254 	 -14.3857 	 -52.8782
| 40> H 	 -80.0906 	 -18.2593 	 -59.8464
| 41> *
| 42>
| 43>                          ****END OF INPUT****

CARTESIAN COORDINATES (ANGSTROEM)
---------------------------------
  S    -81.016600  -15.386900  -55.101000
  C    -81.706400  -15.279900  -53.488700
  C    -82.442200  -16.382300  -53.195900
  C    -82.324800  -17.429100  -54.144000
  C    -81.500800  -17.071200  -55.144100
  H    -82.721000  -18.440700  -54.289600
  C    -83.282600  -16.454700  -51.926800
  H    -83.859500  -17.415900  -51.993200
  H    -84.010100  -15.645600  -52.199600
  C    -82.731200  -16.223300  -50.551800
  H    -82.308300  -17.160200  -50.167200
  H    -81.789200  -15.588300  -50.548200
  C    -83.711600  -15.647000  -49.489400
  H    -84.428200  -14.858100  -49.854800
  H    -84.351600  -16.436800  -49.019100
  H    -83.081700  -15.263400  -48.725200
  S    -80.508300  -16.846700  -57.784500
  C    -80.335900  -18.253900  -58.796900
  C    -80.569000  -19.399500  -58.114900
  C    -80.831700  -19.153700  -56.723500
  C    -81.011800  -17.799000  -56.376500
  H    -80.496400  -20.362800  -58.581500
  C    -80.877400  -20.273000  -55.748700
  H    -81.827500  -20.782100  -55.748900
  H    -80.938100  -19.894800  -54.694000
  C    -79.811100  -21.421800  -55.736800
  H    -79.777500  -21.916000  -56.696100
  H    -80.056600  -22.216600  -54.990500
  C    -78.383200  -20.843600  -55.520800
  H    -78.313500  -19.925600  -56.096600
  H    -77.660200  -21.525900  -55.821300
  H    -78.175700  -20.579400  -54.488700
  H    -81.825400  -14.385700  -52.878200
  H    -80.090600  -18.259300  -59.846400

 Total Charge           Charge          ....    0
 Multiplicity           Mult            ....    1
 Number of Electrons    NEL             ....  134
 Basis Dimension        Dim             ....  322

ORBITAL ENERGIES
----------------

  NO   OCC          E(Eh)            E(eV)
   0   2.0000     -88.964846     -2420.8565
   1   2.0000     -88.963818     -2420.8285
   2   2.0000     -10.335792      -281.2512
   3   2.0000     -10.333106      -281.1781
   4   2.0000     -10.316915      -280.7375
   5   2.0000     -10.308641      -280.5124
   6   2.0000     -10.307618      -280.4845
   7   2.0000     -10.301495      -280.3179
   8   2.0000     -10.295888      -280.1654
   9   2.0000     -10.294717      -280.1335
  10   2.0000     -10.294568      -280.1294
  11   2.0000     -10.292649      -280.0772
  12   2.0000     -10.291426      -280.0439
  13   2.0000     -10.290301      -280.0133
  14   2.0000     -10.286160      -279.9006
  15   2.0000     -10.265073      -279.3268
  16   2.0000      -8.079528      -219.8551
  17   2.0000      -8.078861      -219.8370
  18   2.0000      -6.038210      -164.3080
  19   2.0000      -6.037411      -164.2863
  20   2.0000      -6.034062      -164.1952
  21   2.0000      -6.033621      -164.1832
  22   2.0000      -6.030083      -164.0869
  23   2.0000      -6.029254      -164.0644
  24   2.0000      -1.010412       -27.4947
  25   2.0000      -0.988791       -26.9064
  26   2.0000      -0.910954       -24.7883
  27   2.0000      -0.904340       -24.6083
  28   2.0000      -0.868948       -23.6453
  29   2.0000      -0.853782       -23.2326
  30   2.0000      -0.842335       -22.9211
  31   2.0000      -0.824684       -22.4408
  32   2.0000      -0.782519       -21.2934
  33   2.0000      -0.772010       -21.0075
  34   2.0000      -0.706072       -19.2132
  35   2.0000      -0.703187       -19.1347
  36   2.0000      -0.694636       -18.9020
  37   2.0000      -0.657550       -17.8928
  38   2.0000      -0.643391       -17.5076
  39   2.0000      -0.616433       -16.7740
  40   2.0000      -0.599596       -16.3158
  41   2.0000      -0.572398       -15.5757
  42   2.0000      -0.553843       -15.0708
  43   2.0000      -0.551382       -15.0039
  44   2.0000      -0.534868       -14.5545
  45   2.0000      -0.527176       -14.3452
  46   2.0000      -0.519277       -14.1302
  47   2.0000      -0.511428       -13.9167
  48   2.0000      -0.503521       -13.7015
  49   2.0000      -0.500017       -13.6062
  50   2.0000      -0.490628       -13.3507
  51   2.0000      -0.482335       -13.1250
  52   2.0000      -0.468980       -12.7616
  53   2.0000      -0.467079       -12.7099
  54   2.0000      -0.461699       -12.5635
  55   2.0000      -0.450451       -12.2574
  56   2.0000      -0.447765       -12.1843
  57   2.0000      -0.441062       -12.0019
  58   2.0000      -0.427448       -11.6315
  59   2.0000      -0.421177       -11.4608
  60   2.0000      -0.416354       -11.3296
  61   2.0000      -0.414606       -11.2820
  62   2.0000      -0.408030       -11.1031
  63   2.0000      -0.358664        -9.7597
  64   2.0000      -0.337727        -9.1900
  65   2.0000      -0.324051        -8.8179
  66   2.0000      -0.286310        -7.7909
  67   0.0000       0.021791         0.5930
  68   0.0000       0.080115         2.1800
  69   0.0000       0.093156         2.5349
  70   0.0000       0.119767         3.2590
  71   0.0000       0.138961         3.7813

MULLIKEN ATOMIC CHARGES
-----------------------
   0 S :    0.085314
   1 C :   -0.100940
   2 C :   -0.096865
   3 C :    0.002637
   4 C :   -0.109664
   5 H :    0.018660
   6 C :    0.057560
   7 H :    0.029401
   8 H :    0.040785
   9 C :   -0.082238
  10 H :    0.030199
  11 H :    0.034988
  12 C :   -0.065612
  13 H :    0.043155
  14 H :    0.041642
  15 H :    0.031314
  16 S :    0.082119
  17 C :   -0.070308
  18 C :   -0.018720
  19 C :   -0.063832
  20 C :   -0.112090
  21 H :    0.017844
  22 C :    0.016727
  23 H :    0.027228
  24 H :    0.022245
  25 C :   -0.082279
  26 H :    0.022284
  27 H :    0.038338
  28 C :   -0.028952
  29 H :    0.040719
  30 H :    0.019243
  31 H :    0.026790
  32 H :    0.046256
  33 H :    0.056051
Sum of atomic charges:    0.0000000

LOEWDIN ATOMIC CHARGES
----------------------
   0 S :    0.388523
   1 C :   -0.197445
   2 C :   -0.062085
   3 C :   -0.076849
   4 C :   -0.165126
   5 H :    0.042557
   6 C :   -0.043797
   7 H :    0.034251
   8 H :    0.040569
   9 C :   -0.052281
  10 H :    0.029036
  11 H :    0.030166
  12 C :   -0.067851
  13 H :    0.030181
  14 H :    0.029694
  15 H :    0.023859
  16 S :    0.389182
  17 C :   -0.177364
  18 C :   -0.070711
  19 C :   -0.063432
  20 C :   -0.188988
  21 H :    0.032305
  22 C :   -0.049140
  23 H :    0.029025
  24 H :    0.033486
  25 C :   -0.036054
  26 H :    0.016700
  27 H :    0.030519
  28 C :   -0.060350
  29 H :    0.029546
  30 H :    0.014733
  31 H :    0.024125
  32 H :    0.030726
  33 H :    0.032291

  Mayer bond orders larger than 0.100000
B(  0-S ,  1-C ) :   1.1111 B(  0-S ,  4-C ) :   1.1438 B(  1-C ,  2-C ) :   1.6665
B(  1-C , 32-H ) :   0.9652 B(  2-C ,  3-C ) :   1.1807 B(  2-C ,  6-C ) :   0.9975
B(  3-C ,  4-C ) :   1.6282 B(  3-C ,  5-H ) :   0.9919 B(  4-C , 20-C ) :   1.0218
B(  6-C ,  7-H ) :   0.9443 B(  6-C ,  8-H ) :   0.9392 B(  6-C ,  9-C ) :   1.0558
B(  9-C , 10-H ) :   0.9497 B(  9-C , 11-H ) :   0.9633 B(  9-C , 12-C ) :   1.0684
B( 12-C , 13-H ) :   0.9780 B( 12-C , 14-H ) :   0.9776 B( 12-C , 15-H ) :   0.9754
B( 16-S , 17-C ) :   1.1503 B( 16-S , 20-C ) :   1.1254 B( 17-C , 18-C ) :   1.6225
B( 17-C , 33-H ) :   0.9657 B( 18-C , 19-C ) :   1.2270 B( 18-C , 21-H ) :   0.9958
B( 19-C , 20-C ) :   1.5975 B( 19-C , 22-C ) :   1.0528 B( 22-C , 23-H ) :   0.9256
B( 22-C , 24-H ) :   0.9371 B( 22-C , 25-C ) :   1.0747 B( 25-C , 26-H ) :   0.9562
B( 25-C , 27-H ) :   0.9552 B( 25-C , 28-C ) :   1.0708 B( 28-C , 29-H ) :   0.9767
B( 28-C , 30-H ) :   0.9768 B( 28-C , 31-H ) :   0.9760

Dispersion correction           -0.013690403
FINAL SINGLE POINT ENERGY     -1339.864551381473

DIPOLE MOMENT
-------------
                                X             Y             Z
Electronic contribution:      3.05513      13.78653     -22.23890
Nuclear contribution   :     -3.29392     -14.31576      22.56547
                        -----------------------------------------
Total Dipole Moment    :     -0.23879      -0.52923       0.32657
                        -----------------------------------------
Magnitude (a.u.)       :      0.66615
Magnitude (Debye)      :      1.69322

Rotational constants in cm-1:     0.022366     0.007229     0.005894
Rotational constants in MHz :   670.505917   216.705197   176.703836

                             ****ORCA TERMINATED NORMALLY****
TOTAL RUN TIME: 0 days 0 hours 0 minutes 21 seconds 3 msec
