                         Program Version 4.2.1 -  RELEASE  -
|  1> ! wB97X-D3 SP def2-SVP
|  2> %pal
|  3> nprocs 24
|  4> end
|  5>
|  6> * xyz 0 1
|  7> S 	 -105.876 	 23.4721 	 -116.919
|  8> C 	 -105.815 	 23.9897 	 -115.165
|  9> C 	 -106.345 	 23.0147 	 -114.347
| 10> C 	 -106.814 	 21.8868 	 -115.072
| 11> C 	 -106.688 	 22.0163 	 -116.465
| 12> H 	 -107.325 	 21.0182 	 -114.672
| 13> C 	 -106.498 	 23.1248 	 -112.849
| 14> H 	 -107.529 	 22.8001 	 -112.601
| 15> H 	 -106.567 	 24.1402 	 -112.646
| 16> C 	 -105.486 	 22.4021 	 -111.988
| 17> H 	 -104.461 	 22.3979 	 -112.405
| 18> H 	 -105.52 	 22.9812 	 -111.062
| 19> C 	 -105.872 	 20.8907 	 -111.713
| 20> H 	 -105.674 	 20.2763 	 -112.571
| 21> H 	 -105.182 	 20.5176 	 -110.944
| 22> H 	 -106.872 	 20.792 	 -111.357
| 23> S 	 -108.501 	 21.0883 	 -118.159
| 24> C 	 -108.371 	 19.4162 	 -118.698
| 25> C 	 -107.267 	 18.754 	 -118.209
| 26> C 	 -106.408 	 19.6683 	 -117.475
| 27> C 	 -106.922 	 20.9307 	 -117.419
| 28> H 	 -107.297 	 17.6605 	 -118.357
| 29> C 	 -105.049 	 19.1323 	 -116.887
| 30> H 	 -104.434 	 20.0113 	 -116.653
| 31> H 	 -104.506 	 18.6334 	 -117.643
| 32> C 	 -105.18 	 18.0874 	 -115.743
| 33> H 	 -105.383 	 17.1685 	 -116.263
| 34> H 	 -105.973 	 18.205 	 -114.985
| 35> C 	 -103.898 	 17.9268 	 -115.035
| 36> H 	 -103.845 	 18.672 	 -114.283
| 37> H 	 -102.973 	 18.2007 	 -115.59
| 38> H 	 -103.928 	 16.9417 	 -114.6
| 39> H 	 -105.426 	 24.9303 	 -114.73
| 40> H 	 -109.029 	 19.0022 	 -119.376
| 41> *
| 42>
| 43>                          ****END OF INPUT****

CARTESIAN COORDINATES (ANGSTROEM)
---------------------------------
  S    -105.876000   23.472100  -116.919000
  C    -105.815000   23.989700  -115.165000
  C    -106.345000   23.014700  -114.347000
  C    -106.814000   21.886800  -115.072000
  C    -106.688000   22.016300  -116.465000
  H    -107.325000   21.018200  -114.672000
  C    -106.498000   23.124800  -112.849000
  H    -107.529000   22.800100  -112.601000
  H    -106.567000   24.140200  -112.646000
  C    -105.486000   22.402100  -111.988000
  H    -104.461000   22.397900  -112.405000
  H    -105.520000   22.981200  -111.062000
  C    -105.872000   20.890700  -111.713000
  H    -105.674000   20.276300  -112.571000
  H    -105.182000   20.517600  -110.944000
  H    -106.872000   20.792000  -111.357000
  S    -108.501000   21.088300  -118.159000
  C    -108.371000   19.416200  -118.698000
  C    -107.267000   18.754000  -118.209000
  C    -106.408000   19.668300  -117.475000
  C    -106.922000   20.930700  -117.419000
  H    -107.297000   17.660500  -118.357000
  C    -105.049000   19.132300  -116.887000
  H    -104.434000   20.011300  -116.653000
  H    -104.506000   18.633400  -117.643000
  C    -105.180000   18.087400  -115.743000
  H    -105.383000   17.168500  -116.263000
  H    -105.973000   18.205000  -114.985000
  C    -103.898000   17.926800  -115.035000
  H    -103.845000   18.672000  -114.283000
  H    -102.973000   18.200700  -115.590000
  H    -103.928000   16.941700  -114.600000
  H    -105.426000   24.930300  -114.730000
  H    -109.029000   19.002200  -119.376000

 Total Charge           Charge          ....    0
 Multiplicity           Mult            ....    1
 Number of Electrons    NEL             ....  134
 Basis Dimension        Dim             ....  322

ORBITAL ENERGIES
----------------

  NO   OCC          E(Eh)            E(eV)
   0   2.0000     -88.967126     -2420.9186
   1   2.0000     -88.960653     -2420.7424
   2   2.0000     -10.326043      -280.9859
   3   2.0000     -10.320686      -280.8401
   4   2.0000     -10.318076      -280.7691
   5   2.0000     -10.310718      -280.5689
   6   2.0000     -10.309318      -280.5308
   7   2.0000     -10.297412      -280.2068
   8   2.0000     -10.296643      -280.1859
   9   2.0000     -10.293108      -280.0897
  10   2.0000     -10.291698      -280.0513
  11   2.0000     -10.290961      -280.0313
  12   2.0000     -10.285783      -279.8904
  13   2.0000     -10.283602      -279.8310
  14   2.0000     -10.278958      -279.7047
  15   2.0000     -10.271244      -279.4948
  16   2.0000      -8.080741      -219.8881
  17   2.0000      -8.075766      -219.7528
  18   2.0000      -6.039300      -164.3377
  19   2.0000      -6.035398      -164.2315
  20   2.0000      -6.034210      -164.1992
  21   2.0000      -6.031524      -164.1261
  22   2.0000      -6.030397      -164.0954
  23   2.0000      -6.026391      -163.9864
  24   2.0000      -1.002690       -27.2846
  25   2.0000      -0.977112       -26.5886
  26   2.0000      -0.913126       -24.8474
  27   2.0000      -0.911600       -24.8059
  28   2.0000      -0.865993       -23.5649
  29   2.0000      -0.851760       -23.1776
  30   2.0000      -0.841664       -22.9028
  31   2.0000      -0.810481       -22.0543
  32   2.0000      -0.786325       -21.3970
  33   2.0000      -0.774341       -21.0709
  34   2.0000      -0.703907       -19.1543
  35   2.0000      -0.700864       -19.0715
  36   2.0000      -0.695080       -18.9141
  37   2.0000      -0.660404       -17.9705
  38   2.0000      -0.635572       -17.2948
  39   2.0000      -0.614084       -16.7101
  40   2.0000      -0.594137       -16.1673
  41   2.0000      -0.572915       -15.5898
  42   2.0000      -0.568560       -15.4713
  43   2.0000      -0.544727       -14.8228
  44   2.0000      -0.538137       -14.6435
  45   2.0000      -0.535966       -14.5844
  46   2.0000      -0.519071       -14.1246
  47   2.0000      -0.510159       -13.8821
  48   2.0000      -0.506063       -13.7707
  49   2.0000      -0.488764       -13.2999
  50   2.0000      -0.483591       -13.1592
  51   2.0000      -0.482650       -13.1336
  52   2.0000      -0.475687       -12.9441
  53   2.0000      -0.465237       -12.6598
  54   2.0000      -0.455759       -12.4018
  55   2.0000      -0.446270       -12.1436
  56   2.0000      -0.443471       -12.0675
  57   2.0000      -0.441081       -12.0024
  58   2.0000      -0.438202       -11.9241
  59   2.0000      -0.421153       -11.4602
  60   2.0000      -0.415508       -11.3066
  61   2.0000      -0.413607       -11.2548
  62   2.0000      -0.412141       -11.2149
  63   2.0000      -0.335235        -9.1222
  64   2.0000      -0.331830        -9.0295
  65   2.0000      -0.317006        -8.6262
  66   2.0000      -0.308140        -8.3849
  67   0.0000       0.041667         1.1338
  68   0.0000       0.058525         1.5926
  69   0.0000       0.111557         3.0356
  70   0.0000       0.115483         3.1425
  71   0.0000       0.118731         3.2308

MULLIKEN ATOMIC CHARGES
-----------------------
   0 S :    0.109671
   1 C :   -0.134386
   2 C :   -0.093413
   3 C :    0.039742
   4 C :   -0.164325
   5 H :    0.013217
   6 C :    0.092880
   7 H :    0.022697
   8 H :   -0.004855
   9 C :   -0.066837
  10 H :    0.041089
  11 H :    0.033479
  12 C :   -0.052985
  13 H :    0.037853
  14 H :    0.033429
  15 H :    0.028050
  16 S :    0.097701
  17 C :   -0.074877
  18 C :   -0.050148
  19 C :   -0.014850
  20 C :   -0.170966
  21 H :    0.039349
  22 C :    0.074764
  23 H :    0.029611
  24 H :    0.020026
  25 C :   -0.072954
  26 H :    0.019260
  27 H :    0.036395
  28 C :   -0.031196
  29 H :    0.016719
  30 H :    0.031373
  31 H :    0.035740
  32 H :    0.050256
  33 H :    0.028491
Sum of atomic charges:   -0.0000000

LOEWDIN ATOMIC CHARGES
----------------------
   0 S :    0.390388
   1 C :   -0.187752
   2 C :   -0.061891
   3 C :   -0.062852
   4 C :   -0.210117
   5 H :    0.031194
   6 C :   -0.032352
   7 H :    0.036022
   8 H :    0.019569
   9 C :   -0.035301
  10 H :    0.030329
  11 H :    0.027277
  12 C :   -0.062009
  13 H :    0.021979
  14 H :    0.029302
  15 H :    0.019165
  16 S :    0.398253
  17 C :   -0.162592
  18 C :   -0.076354
  19 C :   -0.044323
  20 C :   -0.208456
  21 H :    0.041309
  22 C :   -0.021592
  23 H :    0.028953
  24 H :    0.028104
  25 C :   -0.040304
  26 H :    0.019053
  27 H :    0.026456
  28 C :   -0.064666
  29 H :    0.020042
  30 H :    0.030905
  31 H :    0.028113
  32 H :    0.034242
  33 H :    0.009904

  Mayer bond orders larger than 0.100000
B(  0-S ,  1-C ) :   1.1182 B(  0-S ,  4-C ) :   1.1600 B(  1-C ,  2-C ) :   1.6316
B(  1-C , 32-H ) :   0.9621 B(  2-C ,  3-C ) :   1.2338 B(  2-C ,  6-C ) :   1.0182
B(  3-C ,  4-C ) :   1.5772 B(  3-C ,  5-H ) :   0.9970 B(  4-C , 20-C ) :   0.9720
B(  6-C ,  7-H ) :   0.9376 B(  6-C ,  8-H ) :   0.9350 B(  6-C ,  9-C ) :   1.0583
B(  9-C , 10-H ) :   0.9576 B(  9-C , 11-H ) :   0.9567 B(  9-C , 12-C ) :   1.0798
B( 12-C , 13-H ) :   0.9756 B( 12-C , 14-H ) :   0.9740 B( 12-C , 15-H ) :   0.9766
B( 16-S , 17-C ) :   1.1529 B( 16-S , 20-C ) :   1.1339 B( 17-C , 18-C ) :   1.6542
B( 17-C , 33-H ) :   0.9743 B( 18-C , 19-C ) :   1.1849 B( 18-C , 21-H ) :   0.9877
B( 19-C , 20-C ) :   1.6726 B( 19-C , 22-C ) :   1.0231 B( 22-C , 23-H ) :   0.9512
B( 22-C , 24-H ) :   0.9345 B( 22-C , 25-C ) :   1.0499 B( 25-C , 26-H ) :   0.9556
B( 25-C , 27-H ) :   0.9594 B( 25-C , 28-C ) :   1.0896 B( 28-C , 29-H ) :   0.9743
B( 28-C , 30-H ) :   0.9674 B( 28-C , 31-H ) :   0.9722

Dispersion correction           -0.015045280
FINAL SINGLE POINT ENERGY     -1339.858976690213

DIPOLE MOMENT
-------------
                                X             Y             Z
Electronic contribution:    -12.43834      14.72361     -24.22986
Nuclear contribution   :     12.58822     -15.24571      24.85278
                        -----------------------------------------
Total Dipole Moment    :      0.14988      -0.52210       0.62292
                        -----------------------------------------
Magnitude (a.u.)       :      0.82649
Magnitude (Debye)      :      2.10077

Rotational constants in cm-1:     0.015955     0.010444     0.007538
Rotational constants in MHz :   478.317220   313.116494   225.974196

                             ****ORCA TERMINATED NORMALLY****
TOTAL RUN TIME: 0 days 0 hours 0 minutes 22 seconds 550 msec
