                         Program Version 4.2.1 -  RELEASE  -
|  1> ! wB97X-D3 SP def2-SVP
|  2> %pal
|  3> nprocs 24
|  4> end
|  5>
|  6> * xyz 0 1
|  7> S 	 -39.6497 	 -49.9941 	 -74.4892
|  8> C 	 -40.7542 	 -48.7238 	 -75.0643
|  9> C 	 -41.2963 	 -48.008 	 -73.9882
| 10> C 	 -40.8396 	 -48.4719 	 -72.7193
| 11> C 	 -39.8887 	 -49.4909 	 -72.8307
| 12> H 	 -41.144 	 -48.0589 	 -71.7162
| 13> C 	 -42.314 	 -46.9272 	 -74.0988
| 14> H 	 -42.0147 	 -46.3552 	 -74.9834
| 15> H 	 -42.2361 	 -46.153 	 -73.3082
| 16> C 	 -43.7477 	 -47.5363 	 -74.2538
| 17> H 	 -43.8796 	 -48.2546 	 -73.4731
| 18> H 	 -44.4743 	 -46.7655 	 -73.992
| 19> C 	 -44.064 	 -48.201 	 -75.6987
| 20> H 	 -45.1251 	 -48.3469 	 -75.7564
| 21> H 	 -43.6881 	 -47.6699 	 -76.5331
| 22> H 	 -43.595 	 -49.1975 	 -75.6944
| 23> S 	 -38.3553 	 -49.6766 	 -70.6224
| 24> C 	 -38.3106 	 -51.1334 	 -69.7664
| 25> C 	 -39.0561 	 -52.1102 	 -70.3302
| 26> C 	 -39.7984 	 -51.6785 	 -71.4755
| 27> C 	 -39.5132 	 -50.3501 	 -71.7719
| 28> H 	 -39.09 	 -53.0651 	 -69.8172
| 29> C 	 -40.7129 	 -52.6517 	 -72.1843
| 30> H 	 -40.4324 	 -53.7019 	 -72.0252
| 31> H 	 -40.6232 	 -52.4583 	 -73.2276
| 32> C 	 -42.1642 	 -52.4216 	 -71.8561
| 33> H 	 -42.7982 	 -52.942 	 -72.5309
| 34> H 	 -42.514 	 -51.3646 	 -72.0189
| 35> C 	 -42.559 	 -52.6403 	 -70.4006
| 36> H 	 -42.297 	 -51.8135 	 -69.7525
| 37> H 	 -42.1152 	 -53.5372 	 -69.9516
| 38> H 	 -43.5697 	 -52.8667 	 -70.354
| 39> H 	 -41.1269 	 -48.6411 	 -76.0594
| 40> H 	 -37.7961 	 -51.3515 	 -68.8568
| 41> *
| 42>
| 43>                          ****END OF INPUT****

CARTESIAN COORDINATES (ANGSTROEM)
---------------------------------
  S    -39.649700  -49.994100  -74.489200
  C    -40.754200  -48.723800  -75.064300
  C    -41.296300  -48.008000  -73.988200
  C    -40.839600  -48.471900  -72.719300
  C    -39.888700  -49.490900  -72.830700
  H    -41.144000  -48.058900  -71.716200
  C    -42.314000  -46.927200  -74.098800
  H    -42.014700  -46.355200  -74.983400
  H    -42.236100  -46.153000  -73.308200
  C    -43.747700  -47.536300  -74.253800
  H    -43.879600  -48.254600  -73.473100
  H    -44.474300  -46.765500  -73.992000
  C    -44.064000  -48.201000  -75.698700
  H    -45.125100  -48.346900  -75.756400
  H    -43.688100  -47.669900  -76.533100
  H    -43.595000  -49.197500  -75.694400
  S    -38.355300  -49.676600  -70.622400
  C    -38.310600  -51.133400  -69.766400
  C    -39.056100  -52.110200  -70.330200
  C    -39.798400  -51.678500  -71.475500
  C    -39.513200  -50.350100  -71.771900
  H    -39.090000  -53.065100  -69.817200
  C    -40.712900  -52.651700  -72.184300
  H    -40.432400  -53.701900  -72.025200
  H    -40.623200  -52.458300  -73.227600
  C    -42.164200  -52.421600  -71.856100
  H    -42.798200  -52.942000  -72.530900
  H    -42.514000  -51.364600  -72.018900
  C    -42.559000  -52.640300  -70.400600
  H    -42.297000  -51.813500  -69.752500
  H    -42.115200  -53.537200  -69.951600
  H    -43.569700  -52.866700  -70.354000
  H    -41.126900  -48.641100  -76.059400
  H    -37.796100  -51.351500  -68.856800

 Total Charge           Charge          ....    0
 Multiplicity           Mult            ....    1
 Number of Electrons    NEL             ....  134
 Basis Dimension        Dim             ....  322

ORBITAL ENERGIES
----------------

  NO   OCC          E(Eh)            E(eV)
   0   2.0000     -88.969842     -2420.9925
   1   2.0000     -88.961415     -2420.7632
   2   2.0000     -10.324767      -280.9512
   3   2.0000     -10.319915      -280.8192
   4   2.0000     -10.315692      -280.7042
   5   2.0000     -10.303224      -280.3650
   6   2.0000     -10.301855      -280.3277
   7   2.0000     -10.301467      -280.3172
   8   2.0000     -10.299720      -280.2696
   9   2.0000     -10.294241      -280.1205
  10   2.0000     -10.293669      -280.1050
  11   2.0000     -10.285040      -279.8702
  12   2.0000     -10.283541      -279.8294
  13   2.0000     -10.282687      -279.8061
  14   2.0000     -10.278592      -279.6947
  15   2.0000     -10.264157      -279.3019
  16   2.0000      -8.083543      -219.9644
  17   2.0000      -8.077207      -219.7920
  18   2.0000      -6.042058      -164.4128
  19   2.0000      -6.038109      -164.3053
  20   2.0000      -6.035581      -164.2365
  21   2.0000      -6.034449      -164.2057
  22   2.0000      -6.031565      -164.1272
  23   2.0000      -6.028058      -164.0318
  24   2.0000      -1.008808       -27.4511
  25   2.0000      -0.983215       -26.7547
  26   2.0000      -0.912549       -24.8317
  27   2.0000      -0.908588       -24.7239
  28   2.0000      -0.867247       -23.5990
  29   2.0000      -0.848613       -23.0919
  30   2.0000      -0.842833       -22.9346
  31   2.0000      -0.810169       -22.0458
  32   2.0000      -0.788488       -21.4558
  33   2.0000      -0.776258       -21.1231
  34   2.0000      -0.714568       -19.4444
  35   2.0000      -0.704818       -19.1791
  36   2.0000      -0.689154       -18.7528
  37   2.0000      -0.659394       -17.9430
  38   2.0000      -0.636876       -17.3303
  39   2.0000      -0.616038       -16.7632
  40   2.0000      -0.594039       -16.1646
  41   2.0000      -0.571071       -15.5396
  42   2.0000      -0.552447       -15.0328
  43   2.0000      -0.548475       -14.9248
  44   2.0000      -0.540110       -14.6971
  45   2.0000      -0.531572       -14.4648
  46   2.0000      -0.522396       -14.2151
  47   2.0000      -0.513459       -13.9719
  48   2.0000      -0.502179       -13.6650
  49   2.0000      -0.489134       -13.3100
  50   2.0000      -0.488078       -13.2813
  51   2.0000      -0.481978       -13.1153
  52   2.0000      -0.473287       -12.8788
  53   2.0000      -0.469815       -12.7843
  54   2.0000      -0.463785       -12.6202
  55   2.0000      -0.450190       -12.2503
  56   2.0000      -0.441324       -12.0090
  57   2.0000      -0.436198       -11.8696
  58   2.0000      -0.432087       -11.7577
  59   2.0000      -0.423802       -11.5322
  60   2.0000      -0.419687       -11.4203
  61   2.0000      -0.418375       -11.3846
  62   2.0000      -0.408240       -11.1088
  63   2.0000      -0.337505        -9.1840
  64   2.0000      -0.330950        -9.0056
  65   2.0000      -0.325394        -8.8544
  66   2.0000      -0.296434        -8.0664
  67   0.0000       0.031159         0.8479
  68   0.0000       0.068585         1.8663
  69   0.0000       0.112362         3.0575
  70   0.0000       0.118910         3.2357
  71   0.0000       0.125214         3.4073

MULLIKEN ATOMIC CHARGES
-----------------------
   0 S :    0.115386
   1 C :   -0.118451
   2 C :   -0.095658
   3 C :    0.023005
   4 C :   -0.145507
   5 H :    0.037974
   6 C :    0.041528
   7 H :    0.027777
   8 H :    0.033300
   9 C :   -0.060757
  10 H :    0.022901
  11 H :    0.029222
  12 C :   -0.052556
  13 H :    0.038296
  14 H :    0.032675
  15 H :    0.042908
  16 S :    0.117544
  17 C :   -0.065832
  18 C :   -0.063476
  19 C :   -0.023864
  20 C :   -0.203631
  21 H :    0.014718
  22 C :    0.134764
  23 H :    0.028239
  24 H :    0.006144
  25 C :   -0.083262
  26 H :    0.015062
  27 H :    0.031576
  28 C :   -0.026748
  29 H :    0.044716
  30 H :    0.009137
  31 H :    0.012580
  32 H :    0.040534
  33 H :    0.039754
Sum of atomic charges:   -0.0000000

LOEWDIN ATOMIC CHARGES
----------------------
   0 S :    0.411806
   1 C :   -0.192475
   2 C :   -0.061036
   3 C :   -0.057639
   4 C :   -0.206731
   5 H :    0.042558
   6 C :   -0.040032
   7 H :    0.031835
   8 H :    0.034347
   9 C :   -0.029967
  10 H :    0.020498
  11 H :    0.021548
  12 C :   -0.060229
  13 H :    0.026845
  14 H :    0.017671
  15 H :    0.029929
  16 S :    0.424763
  17 C :   -0.201906
  18 C :   -0.078253
  19 C :   -0.047021
  20 C :   -0.203933
  21 H :    0.031331
  22 C :   -0.028546
  23 H :    0.033379
  24 H :    0.021510
  25 C :   -0.040779
  26 H :    0.017087
  27 H :    0.033313
  28 C :   -0.064382
  29 H :    0.027582
  30 H :    0.020032
  31 H :    0.018205
  32 H :    0.021726
  33 H :    0.026964

  Mayer bond orders larger than 0.100000
B(  0-S ,  1-C ) :   1.1358 B(  0-S ,  4-C ) :   1.1571 B(  1-C ,  2-C ) :   1.5954
B(  1-C , 32-H ) :   0.9683 B(  2-C ,  3-C ) :   1.2647 B(  2-C ,  6-C ) :   1.0263
B(  3-C ,  4-C ) :   1.5533 B(  3-C ,  5-H ) :   0.9816 B(  4-C , 20-C ) :   1.0322
B(  6-C ,  7-H ) :   0.9433 B(  6-C ,  8-H ) :   0.9465 B(  6-C ,  9-C ) :   1.0521
B(  9-C , 10-H ) :   0.9593 B(  9-C , 11-H ) :   0.9626 B(  9-C , 12-C ) :   1.0617
B( 12-C , 13-H ) :   0.9756 B( 12-C , 14-H ) :   0.9810 B( 12-C , 15-H ) :   0.9739
B( 16-S , 17-C ) :   1.1587 B( 16-S , 20-C ) :   1.1438 B( 17-C , 18-C ) :   1.6337
B( 17-C , 33-H ) :   0.9632 B( 18-C , 19-C ) :   1.2249 B( 18-C , 21-H ) :   0.9905
B( 19-C , 20-C ) :   1.5966 B( 19-C , 22-C ) :   1.0404 B( 22-C , 23-H ) :   0.9384
B( 22-C , 24-H ) :   0.9137 B( 22-C , 25-C ) :   1.0856 B( 25-C , 26-H ) :   0.9576
B( 25-C , 27-H ) :   0.9529 B( 25-C , 28-C ) :   1.0718 B( 28-C , 29-H ) :   0.9757
B( 28-C , 30-H ) :   0.9733 B( 28-C , 31-H ) :   0.9705

Dispersion correction           -0.015795980
FINAL SINGLE POINT ENERGY     -1339.877819931892

DIPOLE MOMENT
-------------
                                X             Y             Z
Electronic contribution:     25.07296       2.56815       3.01212
Nuclear contribution   :    -25.76172      -2.65450      -2.99140
                        -----------------------------------------
Total Dipole Moment    :     -0.68876      -0.08635       0.02072
                        -----------------------------------------
Magnitude (a.u.)       :      0.69446
Magnitude (Debye)      :      1.76517

Rotational constants in cm-1:     0.020878     0.008931     0.007663
Rotational constants in MHz :   625.912330   267.752583   229.741977

                             ****ORCA TERMINATED NORMALLY****
TOTAL RUN TIME: 0 days 0 hours 0 minutes 21 seconds 371 msec
