                         Program Version 4.2.1 -  RELEASE  -
|  1> ! wB97X-D3 SP def2-SVP
|  2> %pal
|  3> nprocs 24
|  4> end
|  5>
|  6> * xyz 0 1
|  7> S 	 -78.2614 	 -0.0693392 	 -67.396
|  8> C 	 -77.5717 	 1.43135 	 -66.9813
|  9> C 	 -77.1877 	 1.53481 	 -65.6374
| 10> C 	 -77.5091 	 0.303581 	 -64.9902
| 11> C 	 -78.0161 	 -0.696681 	 -65.8178
| 12> H 	 -77.4305 	 0.0422449 	 -63.9283
| 13> C 	 -76.6335 	 2.76185 	 -64.928
| 14> H 	 -76.4073 	 2.35907 	 -63.9317
| 15> H 	 -77.3838 	 3.55917 	 -64.8296
| 16> C 	 -75.3748 	 3.25775 	 -65.613
| 17> H 	 -74.4755 	 2.60957 	 -65.5936
| 18> H 	 -75.4947 	 3.4214 	 -66.6534
| 19> C 	 -74.9134 	 4.54933 	 -64.9646
| 20> H 	 -75.4809 	 5.43193 	 -65.1693
| 21> H 	 -74.6688 	 4.50641 	 -63.9051
| 22> H 	 -74.033 	 4.81362 	 -65.5167
| 23> S 	 -77.7144 	 -3.22449 	 -64.7435
| 24> C 	 -79.1844 	 -4.0679 	 -64.3811
| 25> C 	 -80.3094 	 -3.4397 	 -64.7995
| 26> C 	 -80.0373 	 -2.19299 	 -65.3039
| 27> C 	 -78.6704 	 -1.85622 	 -65.2896
| 28> H 	 -81.2282 	 -3.81693 	 -64.6313
| 29> C 	 -81.1204 	 -1.25589 	 -65.7597
| 30> H 	 -80.701 	 -0.32183 	 -66.1469
| 31> H 	 -81.7326 	 -0.986249 	 -64.8907
| 32> C 	 -81.9554 	 -1.88585 	 -66.877
| 33> H 	 -82.5584 	 -1.07442 	 -67.2891
| 34> H 	 -82.5953 	 -2.7137 	 -66.5737
| 35> C 	 -81.13 	 -2.38381 	 -68.081
| 36> H 	 -80.2666 	 -2.99703 	 -67.737
| 37> H 	 -80.7202 	 -1.55583 	 -68.6741
| 38> H 	 -81.727 	 -2.91469 	 -68.7896
| 39> H 	 -77.57 	 2.31353 	 -67.5735
| 40> H 	 -79.1814 	 -5.11737 	 -64.0241
| 41> *
| 42>
| 43>                          ****END OF INPUT****

CARTESIAN COORDINATES (ANGSTROEM)
---------------------------------
  S    -78.261400   -0.069339  -67.396000
  C    -77.571700    1.431350  -66.981300
  C    -77.187700    1.534810  -65.637400
  C    -77.509100    0.303581  -64.990200
  C    -78.016100   -0.696681  -65.817800
  H    -77.430500    0.042245  -63.928300
  C    -76.633500    2.761850  -64.928000
  H    -76.407300    2.359070  -63.931700
  H    -77.383800    3.559170  -64.829600
  C    -75.374800    3.257750  -65.613000
  H    -74.475500    2.609570  -65.593600
  H    -75.494700    3.421400  -66.653400
  C    -74.913400    4.549330  -64.964600
  H    -75.480900    5.431930  -65.169300
  H    -74.668800    4.506410  -63.905100
  H    -74.033000    4.813620  -65.516700
  S    -77.714400   -3.224490  -64.743500
  C    -79.184400   -4.067900  -64.381100
  C    -80.309400   -3.439700  -64.799500
  C    -80.037300   -2.192990  -65.303900
  C    -78.670400   -1.856220  -65.289600
  H    -81.228200   -3.816930  -64.631300
  C    -81.120400   -1.255890  -65.759700
  H    -80.701000   -0.321830  -66.146900
  H    -81.732600   -0.986249  -64.890700
  C    -81.955400   -1.885850  -66.877000
  H    -82.558400   -1.074420  -67.289100
  H    -82.595300   -2.713700  -66.573700
  C    -81.130000   -2.383810  -68.081000
  H    -80.266600   -2.997030  -67.737000
  H    -80.720200   -1.555830  -68.674100
  H    -81.727000   -2.914690  -68.789600
  H    -77.570000    2.313530  -67.573500
  H    -79.181400   -5.117370  -64.024100

 Total Charge           Charge          ....    0
 Multiplicity           Mult            ....    1
 Number of Electrons    NEL             ....  134
 Basis Dimension        Dim             ....  322

ORBITAL ENERGIES
----------------

  NO   OCC          E(Eh)            E(eV)
   0   2.0000     -88.969736     -2420.9896
   1   2.0000     -88.964564     -2420.8489
   2   2.0000     -10.318790      -280.7885
   3   2.0000     -10.317068      -280.7417
   4   2.0000     -10.312803      -280.6256
   5   2.0000     -10.308557      -280.5101
   6   2.0000     -10.299409      -280.2612
   7   2.0000     -10.295297      -280.1493
   8   2.0000     -10.293171      -280.0914
   9   2.0000     -10.291922      -280.0574
  10   2.0000     -10.285213      -279.8749
  11   2.0000     -10.284507      -279.8557
  12   2.0000     -10.282416      -279.7988
  13   2.0000     -10.276768      -279.6451
  14   2.0000     -10.269698      -279.4527
  15   2.0000     -10.269574      -279.4493
  16   2.0000      -8.084784      -219.9982
  17   2.0000      -8.079537      -219.8554
  18   2.0000      -6.043123      -164.4417
  19   2.0000      -6.039054      -164.3310
  20   2.0000      -6.037793      -164.2967
  21   2.0000      -6.035907      -164.2454
  22   2.0000      -6.034088      -164.1959
  23   2.0000      -6.030498      -164.0982
  24   2.0000      -1.011786       -27.5321
  25   2.0000      -0.990224       -26.9454
  26   2.0000      -0.917276       -24.9603
  27   2.0000      -0.908695       -24.7269
  28   2.0000      -0.873317       -23.7642
  29   2.0000      -0.854313       -23.2470
  30   2.0000      -0.846172       -23.0255
  31   2.0000      -0.811641       -22.0859
  32   2.0000      -0.784559       -21.3489
  33   2.0000      -0.769021       -20.9261
  34   2.0000      -0.709516       -19.3069
  35   2.0000      -0.699989       -19.0477
  36   2.0000      -0.688489       -18.7347
  37   2.0000      -0.662695       -18.0329
  38   2.0000      -0.643074       -17.4989
  39   2.0000      -0.614601       -16.7241
  40   2.0000      -0.598492       -16.2858
  41   2.0000      -0.574931       -15.6447
  42   2.0000      -0.562636       -15.3101
  43   2.0000      -0.553941       -15.0735
  44   2.0000      -0.543854       -14.7990
  45   2.0000      -0.526556       -14.3283
  46   2.0000      -0.518973       -14.1220
  47   2.0000      -0.511960       -13.9312
  48   2.0000      -0.504629       -13.7317
  49   2.0000      -0.493624       -13.4322
  50   2.0000      -0.485842       -13.2204
  51   2.0000      -0.476339       -12.9619
  52   2.0000      -0.472177       -12.8486
  53   2.0000      -0.461963       -12.5707
  54   2.0000      -0.458162       -12.4672
  55   2.0000      -0.451942       -12.2980
  56   2.0000      -0.447504       -12.1772
  57   2.0000      -0.438248       -11.9253
  58   2.0000      -0.435265       -11.8442
  59   2.0000      -0.422316       -11.4918
  60   2.0000      -0.421188       -11.4611
  61   2.0000      -0.413571       -11.2538
  62   2.0000      -0.409160       -11.1338
  63   2.0000      -0.340180        -9.2568
  64   2.0000      -0.335745        -9.1361
  65   2.0000      -0.322775        -8.7832
  66   2.0000      -0.293453        -7.9852
  67   0.0000       0.036390         0.9902
  68   0.0000       0.066024         1.7966
  69   0.0000       0.117503         3.1974
  70   0.0000       0.120425         3.2769
  71   0.0000       0.137478         3.7410

MULLIKEN ATOMIC CHARGES
-----------------------
   0 S :    0.133268
   1 C :   -0.110194
   2 C :   -0.094779
   3 C :    0.010931
   4 C :   -0.160024
   5 H :    0.019736
   6 C :    0.108096
   7 H :    0.023557
   8 H :    0.045267
   9 C :   -0.093595
  10 H :    0.037121
  11 H :    0.016754
  12 C :   -0.027605
  13 H :    0.018752
  14 H :    0.036667
  15 H :    0.010515
  16 S :    0.116095
  17 C :   -0.098470
  18 C :    0.017654
  19 C :   -0.058595
  20 C :   -0.188891
  21 H :   -0.031718
  22 C :    0.106807
  23 H :    0.020270
  24 H :    0.038619
  25 C :   -0.092112
  26 H :    0.030310
  27 H :    0.035695
  28 C :   -0.070926
  29 H :    0.051320
  30 H :    0.025352
  31 H :    0.026574
  32 H :    0.033843
  33 H :    0.063705
Sum of atomic charges:   -0.0000000

LOEWDIN ATOMIC CHARGES
----------------------
   0 S :    0.463769
   1 C :   -0.211858
   2 C :   -0.065131
   3 C :   -0.056052
   4 C :   -0.227308
   5 H :    0.032659
   6 C :   -0.027816
   7 H :    0.034661
   8 H :    0.036504
   9 C :   -0.039341
  10 H :    0.034010
  11 H :    0.018488
  12 C :   -0.067886
  13 H :    0.019583
  14 H :    0.025582
  15 H :    0.025047
  16 S :    0.414378
  17 C :   -0.184115
  18 C :   -0.063110
  19 C :   -0.054608
  20 C :   -0.207458
  21 H :    0.015736
  22 C :   -0.031527
  23 H :    0.023002
  24 H :    0.035322
  25 C :   -0.041929
  26 H :    0.027183
  27 H :    0.020417
  28 C :   -0.071394
  29 H :    0.028694
  30 H :    0.019926
  31 H :    0.021316
  32 H :    0.020206
  33 H :    0.033050

  Mayer bond orders larger than 0.100000
B(  0-S ,  1-C ) :   1.1754 B(  0-S ,  4-C ) :   1.1610 B(  1-C ,  2-C ) :   1.5610
B(  1-C , 32-H ) :   0.9666 B(  2-C ,  3-C ) :   1.2934 B(  2-C ,  6-C ) :   1.0079
B(  3-C ,  4-C ) :   1.5470 B(  3-C ,  5-H ) :   0.9855 B(  4-C , 20-C ) :   1.0276
B(  6-C ,  7-H ) :   0.9384 B(  6-C ,  8-H ) :   0.9410 B(  6-C ,  9-C ) :   1.0644
B(  9-C , 10-H ) :   0.9555 B(  9-C , 11-H ) :   0.9561 B(  9-C , 12-C ) :   1.0948
B( 12-C , 13-H ) :   0.9715 B( 12-C , 14-H ) :   0.9735 B( 12-C , 15-H ) :   0.9683
B( 16-S , 17-C ) :   1.1757 B( 16-S , 20-C ) :   1.1493 B( 17-C , 18-C ) :   1.5775
B( 17-C , 20-C ) :   0.1017 B( 17-C , 33-H ) :   0.9591 B( 18-C , 19-C ) :   1.2670
B( 18-C , 21-H ) :   1.0167 B( 19-C , 20-C ) :   1.5613 B( 19-C , 22-C ) :   1.0444
B( 22-C , 23-H ) :   0.9286 B( 22-C , 24-H ) :   0.9346 B( 22-C , 25-C ) :   1.0657
B( 25-C , 26-H ) :   0.9574 B( 25-C , 27-H ) :   0.9590 B( 25-C , 28-C ) :   1.0750
B( 28-C , 29-H ) :   0.9714 B( 28-C , 30-H ) :   0.9736 B( 28-C , 31-H ) :   0.9731

Dispersion correction           -0.015160051
FINAL SINGLE POINT ENERGY     -1339.878158077352

DIPOLE MOMENT
-------------
                                X             Y             Z
Electronic contribution:      2.04788     -16.52524       1.63551
Nuclear contribution   :     -2.31139      16.95236      -1.52432
                        -----------------------------------------
Total Dipole Moment    :     -0.26350       0.42711       0.11119
                        -----------------------------------------
Magnitude (a.u.)       :      0.51403
Magnitude (Debye)      :      1.30656

Rotational constants in cm-1:     0.025807     0.007457     0.006410
Rotational constants in MHz :   773.666963   223.568219   192.165895

                             ****ORCA TERMINATED NORMALLY****
TOTAL RUN TIME: 0 days 0 hours 0 minutes 21 seconds 915 msec
