                         Program Version 4.2.1 -  RELEASE  -
|  1> ! wB97X-D3 SP def2-SVP
|  2> %pal
|  3> nprocs 24
|  4> end
|  5>
|  6> * xyz 0 1
|  7> S 	 -108.667 	 59.692 	 -101.175
|  8> C 	 -109.89 	 58.4741 	 -100.77
|  9> C 	 -111.145 	 58.9364 	 -101.177
| 10> C 	 -111.089 	 60.288 	 -101.631
| 11> C 	 -109.801 	 60.8219 	 -101.763
| 12> H 	 -111.888 	 60.928 	 -101.92
| 13> C 	 -112.497 	 58.3358 	 -100.874
| 14> H 	 -113.259 	 58.6977 	 -101.511
| 15> H 	 -112.694 	 58.6851 	 -99.8748
| 16> C 	 -112.476 	 56.8206 	 -100.838
| 17> H 	 -111.929 	 56.4579 	 -101.75
| 18> H 	 -111.86 	 56.4876 	 -100.016
| 19> C 	 -113.8 	 56.1309 	 -100.553
| 20> H 	 -114.62 	 56.6101 	 -101.107
| 21> H 	 -113.765 	 55.0935 	 -100.901
| 22> H 	 -114.043 	 56.1844 	 -99.5194
| 23> S 	 -108.084 	 62.8333 	 -101.368
| 24> C 	 -108.237 	 64.2986 	 -102.311
| 25> C 	 -109.159 	 64.1818 	 -103.281
| 26> C 	 -109.849 	 62.9499 	 -103.26
| 27> C 	 -109.38 	 62.1449 	 -102.302
| 28> H 	 -109.205 	 64.9841 	 -103.977
| 29> C 	 -110.926 	 62.5707 	 -104.265
| 30> H 	 -111.034 	 61.5067 	 -104.215
| 31> H 	 -110.608 	 62.8499 	 -105.27
| 32> C 	 -112.327 	 63.119 	 -104.021
| 33> H 	 -112.415 	 64.1962 	 -104.111
| 34> H 	 -112.705 	 62.7635 	 -103.009
| 35> C 	 -113.212 	 62.5408 	 -105.1
| 36> H 	 -113.153 	 61.3873 	 -104.984
| 37> H 	 -112.837 	 62.9409 	 -106.072
| 38> H 	 -114.22 	 62.9468 	 -104.908
| 39> H 	 -109.71 	 57.585 	 -100.133
| 40> H 	 -107.536 	 65.1019 	 -102.183
| 41> *
| 42>
| 43>                          ****END OF INPUT****

CARTESIAN COORDINATES (ANGSTROEM)
---------------------------------
  S    -108.667000   59.692000  -101.175000
  C    -109.890000   58.474100  -100.770000
  C    -111.145000   58.936400  -101.177000
  C    -111.089000   60.288000  -101.631000
  C    -109.801000   60.821900  -101.763000
  H    -111.888000   60.928000  -101.920000
  C    -112.497000   58.335800  -100.874000
  H    -113.259000   58.697700  -101.511000
  H    -112.694000   58.685100  -99.874800
  C    -112.476000   56.820600  -100.838000
  H    -111.929000   56.457900  -101.750000
  H    -111.860000   56.487600  -100.016000
  C    -113.800000   56.130900  -100.553000
  H    -114.620000   56.610100  -101.107000
  H    -113.765000   55.093500  -100.901000
  H    -114.043000   56.184400  -99.519400
  S    -108.084000   62.833300  -101.368000
  C    -108.237000   64.298600  -102.311000
  C    -109.159000   64.181800  -103.281000
  C    -109.849000   62.949900  -103.260000
  C    -109.380000   62.144900  -102.302000
  H    -109.205000   64.984100  -103.977000
  C    -110.926000   62.570700  -104.265000
  H    -111.034000   61.506700  -104.215000
  H    -110.608000   62.849900  -105.270000
  C    -112.327000   63.119000  -104.021000
  H    -112.415000   64.196200  -104.111000
  H    -112.705000   62.763500  -103.009000
  C    -113.212000   62.540800  -105.100000
  H    -113.153000   61.387300  -104.984000
  H    -112.837000   62.940900  -106.072000
  H    -114.220000   62.946800  -104.908000
  H    -109.710000   57.585000  -100.133000
  H    -107.536000   65.101900  -102.183000

 Total Charge           Charge          ....    0
 Multiplicity           Mult            ....    1
 Number of Electrons    NEL             ....  134
 Basis Dimension        Dim             ....  322

ORBITAL ENERGIES
----------------

  NO   OCC          E(Eh)            E(eV)
   0   2.0000     -88.964859     -2420.8569
   1   2.0000     -88.960715     -2420.7441
   2   2.0000     -10.328764      -281.0600
   3   2.0000     -10.323335      -280.9122
   4   2.0000     -10.318235      -280.7734
   5   2.0000     -10.311801      -280.5984
   6   2.0000     -10.303716      -280.3784
   7   2.0000     -10.298048      -280.2241
   8   2.0000     -10.289435      -279.9898
   9   2.0000     -10.289428      -279.9896
  10   2.0000     -10.288835      -279.9734
  11   2.0000     -10.288643      -279.9682
  12   2.0000     -10.287905      -279.9481
  13   2.0000     -10.286844      -279.9193
  14   2.0000     -10.284405      -279.8529
  15   2.0000     -10.276971      -279.6506
  16   2.0000      -8.079842      -219.8637
  17   2.0000      -8.076468      -219.7719
  18   2.0000      -6.038395      -164.3131
  19   2.0000      -6.034884      -164.2175
  20   2.0000      -6.034136      -164.1972
  21   2.0000      -6.031003      -164.1119
  22   2.0000      -6.030711      -164.1040
  23   2.0000      -6.027078      -164.0051
  24   2.0000      -1.014329       -27.6013
  25   2.0000      -0.988578       -26.9006
  26   2.0000      -0.918804       -25.0019
  27   2.0000      -0.917264       -24.9600
  28   2.0000      -0.870680       -23.6924
  29   2.0000      -0.857949       -23.3460
  30   2.0000      -0.847331       -23.0571
  31   2.0000      -0.815418       -22.1887
  32   2.0000      -0.783422       -21.3180
  33   2.0000      -0.773061       -21.0361
  34   2.0000      -0.708566       -19.2811
  35   2.0000      -0.692023       -18.8309
  36   2.0000      -0.687595       -18.7104
  37   2.0000      -0.669753       -18.2249
  38   2.0000      -0.639943       -17.4137
  39   2.0000      -0.614958       -16.7339
  40   2.0000      -0.602153       -16.3854
  41   2.0000      -0.578355       -15.7378
  42   2.0000      -0.577404       -15.7120
  43   2.0000      -0.566956       -15.4276
  44   2.0000      -0.529048       -14.3961
  45   2.0000      -0.524465       -14.2714
  46   2.0000      -0.522175       -14.2091
  47   2.0000      -0.517992       -14.0953
  48   2.0000      -0.509577       -13.8663
  49   2.0000      -0.500101       -13.6084
  50   2.0000      -0.494762       -13.4631
  51   2.0000      -0.479902       -13.0588
  52   2.0000      -0.473274       -12.8785
  53   2.0000      -0.462400       -12.5825
  54   2.0000      -0.461444       -12.5565
  55   2.0000      -0.448893       -12.2150
  56   2.0000      -0.441487       -12.0135
  57   2.0000      -0.436174       -11.8689
  58   2.0000      -0.429686       -11.6924
  59   2.0000      -0.428086       -11.6488
  60   2.0000      -0.421514       -11.4700
  61   2.0000      -0.419385       -11.4120
  62   2.0000      -0.415951       -11.3186
  63   2.0000      -0.351949        -9.5770
  64   2.0000      -0.333347        -9.0708
  65   2.0000      -0.328318        -8.9340
  66   2.0000      -0.292951        -7.9716
  67   0.0000       0.030644         0.8339
  68   0.0000       0.079892         2.1740
  69   0.0000       0.107055         2.9131
  70   0.0000       0.124172         3.3789
  71   0.0000       0.126266         3.4359

MULLIKEN ATOMIC CHARGES
-----------------------
   0 S :    0.104440
   1 C :   -0.150393
   2 C :   -0.079936
   3 C :    0.023337
   4 C :   -0.122214
   5 H :   -0.028438
   6 C :    0.098782
   7 H :    0.014860
   8 H :    0.036340
   9 C :   -0.127111
  10 H :    0.039270
  11 H :    0.020503
  12 C :   -0.013101
  13 H :    0.021473
  14 H :    0.038708
  15 H :    0.028208
  16 S :    0.087975
  17 C :   -0.083968
  18 C :   -0.018010
  19 C :   -0.014125
  20 C :   -0.130012
  21 H :    0.002773
  22 C :    0.060541
  23 H :    0.015107
  24 H :    0.019424
  25 C :   -0.094362
  26 H :    0.029161
  27 H :    0.038548
  28 C :   -0.063904
  29 H :    0.048580
  30 H :    0.037109
  31 H :    0.040975
  32 H :    0.070247
  33 H :    0.049212
Sum of atomic charges:   -0.0000000

LOEWDIN ATOMIC CHARGES
----------------------
   0 S :    0.415937
   1 C :   -0.209110
   2 C :   -0.056198
   3 C :   -0.074732
   4 C :   -0.202206
   5 H :    0.020234
   6 C :   -0.025593
   7 H :    0.023028
   8 H :    0.037957
   9 C :   -0.050516
  10 H :    0.028477
  11 H :    0.020979
  12 C :   -0.061043
  13 H :    0.023026
  14 H :    0.032221
  15 H :    0.021526
  16 S :    0.397237
  17 C :   -0.170186
  18 C :   -0.065708
  19 C :   -0.059780
  20 C :   -0.188891
  21 H :    0.029367
  22 C :   -0.026263
  23 H :    0.026637
  24 H :    0.030167
  25 C :   -0.044188
  26 H :    0.020859
  27 H :    0.024764
  28 C :   -0.068831
  29 H :    0.035065
  30 H :    0.027330
  31 H :    0.026828
  32 H :    0.037183
  33 H :    0.024420

  Mayer bond orders larger than 0.100000
B(  0-S ,  1-C ) :   1.1322 B(  0-S ,  4-C ) :   1.1789 B(  1-C ,  2-C ) :   1.5750
B(  1-C ,  4-C ) :   0.1027 B(  1-C , 32-H ) :   0.9681 B(  2-C ,  3-C ) :   1.2548
B(  2-C ,  6-C ) :   1.0284 B(  3-C ,  4-C ) :   1.5490 B(  3-C ,  5-H ) :   1.0024
B(  4-C , 20-C ) :   0.9923 B(  6-C ,  7-H ) :   0.9407 B(  6-C ,  8-H ) :   0.9309
B(  6-C ,  9-C ) :   1.0744 B(  9-C , 10-H ) :   0.9643 B(  9-C , 11-H ) :   0.9459
B(  9-C , 12-C ) :   1.0824 B( 12-C , 13-H ) :   0.9755 B( 12-C , 14-H ) :   0.9717
B( 12-C , 15-H ) :   0.9749 B( 16-S , 17-C ) :   1.1420 B( 16-S , 20-C ) :   1.1335
B( 17-C , 18-C ) :   1.6432 B( 17-C , 33-H ) :   0.9695 B( 18-C , 19-C ) :   1.1885
B( 18-C , 21-H ) :   1.0028 B( 19-C , 20-C ) :   1.6694 B( 19-C , 22-C ) :   1.0357
B( 22-C , 23-H ) :   0.9323 B( 22-C , 24-H ) :   0.9332 B( 22-C , 25-C ) :   1.0728
B( 25-C , 26-H ) :   0.9503 B( 25-C , 27-H ) :   0.9469 B( 25-C , 28-C ) :   1.0846
B( 28-C , 29-H ) :   0.9717 B( 28-C , 30-H ) :   0.9712 B( 28-C , 31-H ) :   0.9730

Dispersion correction           -0.013653866
FINAL SINGLE POINT ENERGY     -1339.882890383646

DIPOLE MOMENT
-------------
                                X             Y             Z
Electronic contribution:     28.00322      10.31634       7.90243
Nuclear contribution   :    -28.58942     -10.18228      -8.07012
                        -----------------------------------------
Total Dipole Moment    :     -0.58620       0.13406      -0.16769
                        -----------------------------------------
Magnitude (a.u.)       :      0.62427
Magnitude (Debye)      :      1.58678

Rotational constants in cm-1:     0.019231     0.008337     0.006049
Rotational constants in MHz :   576.522269   249.939084   181.348660

                             ****ORCA TERMINATED NORMALLY****
TOTAL RUN TIME: 0 days 0 hours 0 minutes 21 seconds 381 msec
