                         Program Version 4.2.1 -  RELEASE  -
|  1> ! wB97X-D3 SP def2-SVP
|  2> %pal
|  3> nprocs 24
|  4> end
|  5>
|  6> * xyz 0 1
|  7> S 	 -50.096 	 20.892 	 -91.0216
|  8> C 	 -48.8451 	 22.0228 	 -90.7503
|  9> C 	 -48.2012 	 22.3024 	 -91.9522
| 10> C 	 -48.6897 	 21.6846 	 -93.0748
| 11> C 	 -49.7971 	 20.9393 	 -92.747
| 12> H 	 -48.3467 	 21.7146 	 -94.1348
| 13> C 	 -47.0437 	 23.2765 	 -92.0665
| 14> H 	 -47.1005 	 23.9326 	 -91.1582
| 15> H 	 -47.2363 	 23.9358 	 -92.8992
| 16> C 	 -45.6702 	 22.5681 	 -92.1641
| 17> H 	 -45.7602 	 21.8899 	 -93.0093
| 18> H 	 -44.9682 	 23.3623 	 -92.3678
| 19> C 	 -45.2249 	 21.84 	 -90.9016
| 20> H 	 -46.0889 	 21.4377 	 -90.3541
| 21> H 	 -44.5677 	 21.0191 	 -91.0679
| 22> H 	 -44.7759 	 22.6197 	 -90.2439
| 23> S 	 -52.2038 	 20.6676 	 -94.0621
| 24> C 	 -52.5078 	 19.2727 	 -94.996
| 25> C 	 -51.3515 	 18.5459 	 -95.1121
| 26> C 	 -50.3045 	 19.0132 	 -94.3439
| 27> C 	 -50.5653 	 20.1679 	 -93.6825
| 28> H 	 -51.2911 	 17.5896 	 -95.6157
| 29> C 	 -49.0058 	 18.222 	 -94.3091
| 30> H 	 -48.1068 	 18.8759 	 -94.1573
| 31> H 	 -48.7619 	 17.8525 	 -95.247
| 32> C 	 -48.8861 	 17.0648 	 -93.2792
| 33> H 	 -49.0115 	 17.471 	 -92.2915
| 34> H 	 -47.843 	 16.7275 	 -93.3107
| 35> C 	 -50.0038 	 16.0373 	 -93.4719
| 36> H 	 -50.0536 	 15.2884 	 -92.6534
| 37> H 	 -49.7864 	 15.5618 	 -94.4189
| 38> H 	 -50.9681 	 16.4611 	 -93.4503
| 39> H 	 -48.5925 	 22.4017 	 -89.728
| 40> H 	 -53.4677 	 19.0439 	 -95.4232
| 41> *
| 42>
| 43>                          ****END OF INPUT****

CARTESIAN COORDINATES (ANGSTROEM)
---------------------------------
  S    -50.096000   20.892000  -91.021600
  C    -48.845100   22.022800  -90.750300
  C    -48.201200   22.302400  -91.952200
  C    -48.689700   21.684600  -93.074800
  C    -49.797100   20.939300  -92.747000
  H    -48.346700   21.714600  -94.134800
  C    -47.043700   23.276500  -92.066500
  H    -47.100500   23.932600  -91.158200
  H    -47.236300   23.935800  -92.899200
  C    -45.670200   22.568100  -92.164100
  H    -45.760200   21.889900  -93.009300
  H    -44.968200   23.362300  -92.367800
  C    -45.224900   21.840000  -90.901600
  H    -46.088900   21.437700  -90.354100
  H    -44.567700   21.019100  -91.067900
  H    -44.775900   22.619700  -90.243900
  S    -52.203800   20.667600  -94.062100
  C    -52.507800   19.272700  -94.996000
  C    -51.351500   18.545900  -95.112100
  C    -50.304500   19.013200  -94.343900
  C    -50.565300   20.167900  -93.682500
  H    -51.291100   17.589600  -95.615700
  C    -49.005800   18.222000  -94.309100
  H    -48.106800   18.875900  -94.157300
  H    -48.761900   17.852500  -95.247000
  C    -48.886100   17.064800  -93.279200
  H    -49.011500   17.471000  -92.291500
  H    -47.843000   16.727500  -93.310700
  C    -50.003800   16.037300  -93.471900
  H    -50.053600   15.288400  -92.653400
  H    -49.786400   15.561800  -94.418900
  H    -50.968100   16.461100  -93.450300
  H    -48.592500   22.401700  -89.728000
  H    -53.467700   19.043900  -95.423200

 Total Charge           Charge          ....    0
 Multiplicity           Mult            ....    1
 Number of Electrons    NEL             ....  134
 Basis Dimension        Dim             ....  322

ORBITAL ENERGIES
----------------

  NO   OCC          E(Eh)            E(eV)
   0   2.0000     -88.967986     -2420.9420
   1   2.0000     -88.960849     -2420.7478
   2   2.0000     -10.323194      -280.9084
   3   2.0000     -10.316871      -280.7363
   4   2.0000     -10.315624      -280.7024
   5   2.0000     -10.312816      -280.6260
   6   2.0000     -10.294250      -280.1208
   7   2.0000     -10.292798      -280.0813
   8   2.0000     -10.292045      -280.0608
   9   2.0000     -10.289103      -279.9807
  10   2.0000     -10.284801      -279.8637
  11   2.0000     -10.284166      -279.8464
  12   2.0000     -10.283948      -279.8405
  13   2.0000     -10.282148      -279.7915
  14   2.0000     -10.274881      -279.5937
  15   2.0000     -10.271356      -279.4978
  16   2.0000      -8.083312      -219.9581
  17   2.0000      -8.076709      -219.7784
  18   2.0000      -6.041550      -164.3989
  19   2.0000      -6.037693      -164.2940
  20   2.0000      -6.034992      -164.2205
  21   2.0000      -6.034367      -164.2035
  22   2.0000      -6.030932      -164.1100
  23   2.0000      -6.027757      -164.0236
  24   2.0000      -1.016856       -27.6701
  25   2.0000      -0.996232       -27.1089
  26   2.0000      -0.910648       -24.7800
  27   2.0000      -0.907744       -24.7010
  28   2.0000      -0.872727       -23.7481
  29   2.0000      -0.854991       -23.2655
  30   2.0000      -0.848640       -23.0927
  31   2.0000      -0.812232       -22.1020
  32   2.0000      -0.785119       -21.3642
  33   2.0000      -0.771991       -21.0069
  34   2.0000      -0.709277       -19.3004
  35   2.0000      -0.695421       -18.9234
  36   2.0000      -0.690253       -18.7828
  37   2.0000      -0.665239       -18.1021
  38   2.0000      -0.644233       -17.5305
  39   2.0000      -0.619656       -16.8617
  40   2.0000      -0.602376       -16.3915
  41   2.0000      -0.569614       -15.5000
  42   2.0000      -0.553644       -15.0654
  43   2.0000      -0.549348       -14.9485
  44   2.0000      -0.544437       -14.8149
  45   2.0000      -0.535087       -14.5604
  46   2.0000      -0.518043       -14.0967
  47   2.0000      -0.517228       -14.0745
  48   2.0000      -0.504970       -13.7409
  49   2.0000      -0.495782       -13.4909
  50   2.0000      -0.486237       -13.2312
  51   2.0000      -0.483140       -13.1469
  52   2.0000      -0.476006       -12.9528
  53   2.0000      -0.466339       -12.6897
  54   2.0000      -0.457941       -12.4612
  55   2.0000      -0.450639       -12.2625
  56   2.0000      -0.440775       -11.9941
  57   2.0000      -0.438533       -11.9331
  58   2.0000      -0.428518       -11.6606
  59   2.0000      -0.424801       -11.5594
  60   2.0000      -0.420223       -11.4349
  61   2.0000      -0.410849       -11.1798
  62   2.0000      -0.408826       -11.1247
  63   2.0000      -0.342480        -9.3194
  64   2.0000      -0.333380        -9.0717
  65   2.0000      -0.325851        -8.8668
  66   2.0000      -0.302956        -8.2438
  67   0.0000       0.038190         1.0392
  68   0.0000       0.063385         1.7248
  69   0.0000       0.121569         3.3081
  70   0.0000       0.126566         3.4440
  71   0.0000       0.131788         3.5861

MULLIKEN ATOMIC CHARGES
-----------------------
   0 S :    0.133272
   1 C :   -0.139443
   2 C :   -0.089170
   3 C :    0.030463
   4 C :   -0.169818
   5 H :    0.038326
   6 C :    0.047490
   7 H :    0.016060
   8 H :    0.027271
   9 C :   -0.046810
  10 H :    0.021237
  11 H :    0.031191
  12 C :   -0.047712
  13 H :    0.028358
  14 H :    0.035071
  15 H :    0.032546
  16 S :    0.112870
  17 C :   -0.088304
  18 C :   -0.033292
  19 C :   -0.001059
  20 C :   -0.212616
  21 H :    0.014321
  22 C :    0.070753
  23 H :    0.014763
  24 H :   -0.001383
  25 C :   -0.044028
  26 H :    0.017978
  27 H :    0.031577
  28 C :   -0.051680
  29 H :    0.033500
  30 H :    0.025029
  31 H :    0.039378
  32 H :    0.069015
  33 H :    0.054846
Sum of atomic charges:   -0.0000000

LOEWDIN ATOMIC CHARGES
----------------------
   0 S :    0.432175
   1 C :   -0.221743
   2 C :   -0.072399
   3 C :   -0.059102
   4 C :   -0.196158
   5 H :    0.047198
   6 C :   -0.030438
   7 H :    0.027960
   8 H :    0.027847
   9 C :   -0.036939
  10 H :    0.019613
  11 H :    0.023187
  12 C :   -0.066971
  13 H :    0.025305
  14 H :    0.023276
  15 H :    0.030606
  16 S :    0.424221
  17 C :   -0.191183
  18 C :   -0.077765
  19 C :   -0.060509
  20 C :   -0.206022
  21 H :    0.030233
  22 C :   -0.029325
  23 H :    0.033421
  24 H :    0.016483
  25 C :   -0.033387
  26 H :    0.018970
  27 H :    0.026199
  28 C :   -0.064601
  29 H :    0.029323
  30 H :    0.021472
  31 H :    0.022089
  32 H :    0.038350
  33 H :    0.028616

  Mayer bond orders larger than 0.100000
B(  0-S ,  1-C ) :   1.1538 B(  0-S ,  4-C ) :   1.1777 B(  1-C ,  2-C ) :   1.5672
B(  1-C ,  4-C ) :   0.1056 B(  1-C , 32-H ) :   0.9632 B(  2-C ,  3-C ) :   1.2695
B(  2-C ,  6-C ) :   1.0212 B(  3-C ,  4-C ) :   1.5509 B(  3-C ,  5-H ) :   0.9923
B(  4-C , 20-C ) :   1.0269 B(  6-C ,  7-H ) :   0.9439 B(  6-C ,  8-H ) :   0.9436
B(  6-C ,  9-C ) :   1.0626 B(  9-C , 10-H ) :   0.9590 B(  9-C , 11-H ) :   0.9602
B(  9-C , 12-C ) :   1.0687 B( 12-C , 13-H ) :   0.9766 B( 12-C , 14-H ) :   0.9748
B( 12-C , 15-H ) :   0.9756 B( 16-S , 17-C ) :   1.1833 B( 16-S , 20-C ) :   1.1534
B( 17-C , 18-C ) :   1.5494 B( 17-C , 20-C ) :   0.1041 B( 17-C , 33-H ) :   0.9730
B( 18-C , 19-C ) :   1.2874 B( 18-C , 21-H ) :   0.9873 B( 19-C , 20-C ) :   1.5984
B( 19-C , 22-C ) :   1.0346 B( 22-C , 23-H ) :   0.9290 B( 22-C , 24-H ) :   0.9347
B( 22-C , 25-C ) :   1.0742 B( 25-C , 26-H ) :   0.9540 B( 25-C , 27-H ) :   0.9579
B( 25-C , 28-C ) :   1.0757 B( 28-C , 29-H ) :   0.9722 B( 28-C , 30-H ) :   0.9774
B( 28-C , 31-H ) :   0.9687

Dispersion correction           -0.015229429
FINAL SINGLE POINT ENERGY     -1339.887114372555

DIPOLE MOMENT
-------------
                                X             Y             Z
Electronic contribution:    -22.32177       8.10010      -0.95298
Nuclear contribution   :     22.76095      -8.24291       0.83524
                        -----------------------------------------
Total Dipole Moment    :      0.43918      -0.14281      -0.11774
                        -----------------------------------------
Magnitude (a.u.)       :      0.47659
Magnitude (Debye)      :      1.21139

Rotational constants in cm-1:     0.021379     0.008624     0.007326
Rotational constants in MHz :   640.931578   258.540427   219.613836

                             ****ORCA TERMINATED NORMALLY****
TOTAL RUN TIME: 0 days 0 hours 0 minutes 22 seconds 265 msec
