                         Program Version 4.2.1 -  RELEASE  -
|  1> ! wB97X-D3 SP def2-SVP
|  2> %pal
|  3> nprocs 24
|  4> end
|  5>
|  6> * xyz 0 1
|  7> S 	 -104.3 	 34.4988 	 -14.221
|  8> C 	 -105.201 	 34.7634 	 -15.6917
|  9> C 	 -106.329 	 35.5494 	 -15.442
| 10> C 	 -106.48 	 35.8519 	 -14.0807
| 11> C 	 -105.492 	 35.3357 	 -13.3274
| 12> H 	 -107.253 	 36.458 	 -13.71
| 13> C 	 -107.292 	 35.9456 	 -16.4683
| 14> H 	 -106.856 	 36.5367 	 -17.2887
| 15> H 	 -108.081 	 36.5674 	 -15.9172
| 16> C 	 -107.925 	 34.7413 	 -17.23
| 17> H 	 -107.162 	 34.0517 	 -17.6677
| 18> H 	 -108.443 	 34.1649 	 -16.4821
| 19> C 	 -108.97 	 34.9815 	 -18.3862
| 20> H 	 -109.924 	 35.2291 	 -17.9256
| 21> H 	 -108.625 	 35.7476 	 -19.1111
| 22> H 	 -109.086 	 34.0709 	 -18.9788
| 23> S 	 -104.72 	 36.9564 	 -11.252
| 24> C 	 -104.708 	 36.36 	 -9.64238
| 25> C 	 -105.1 	 35.0016 	 -9.61557
| 26> C 	 -105.396 	 34.4471 	 -10.9122
| 27> C 	 -105.337 	 35.3997 	 -11.8777
| 28> H 	 -105.046 	 34.4865 	 -8.69761
| 29> C 	 -105.711 	 32.9861 	 -11.1123
| 30> H 	 -105.329 	 32.3863 	 -10.3181
| 31> H 	 -105.146 	 32.7295 	 -12.0388
| 32> C 	 -107.181 	 32.5564 	 -11.4257
| 33> H 	 -107.633 	 33.2577 	 -12.0889
| 34> H 	 -107.787 	 32.6423 	 -10.4959
| 35> C 	 -107.22 	 31.0642 	 -11.9396
| 36> H 	 -107.074 	 31.0607 	 -13.0406
| 37> H 	 -108.131 	 30.5217 	 -11.8923
| 38> H 	 -106.494 	 30.3234 	 -11.6188
| 39> H 	 -105.053 	 34.2801 	 -16.6606
| 40> H 	 -104.29 	 36.9379 	 -8.90808
| 41> *
| 42>
| 43>                          ****END OF INPUT****

CARTESIAN COORDINATES (ANGSTROEM)
---------------------------------
  S    -104.300000   34.498800  -14.221000
  C    -105.201000   34.763400  -15.691700
  C    -106.329000   35.549400  -15.442000
  C    -106.480000   35.851900  -14.080700
  C    -105.492000   35.335700  -13.327400
  H    -107.253000   36.458000  -13.710000
  C    -107.292000   35.945600  -16.468300
  H    -106.856000   36.536700  -17.288700
  H    -108.081000   36.567400  -15.917200
  C    -107.925000   34.741300  -17.230000
  H    -107.162000   34.051700  -17.667700
  H    -108.443000   34.164900  -16.482100
  C    -108.970000   34.981500  -18.386200
  H    -109.924000   35.229100  -17.925600
  H    -108.625000   35.747600  -19.111100
  H    -109.086000   34.070900  -18.978800
  S    -104.720000   36.956400  -11.252000
  C    -104.708000   36.360000   -9.642380
  C    -105.100000   35.001600   -9.615570
  C    -105.396000   34.447100  -10.912200
  C    -105.337000   35.399700  -11.877700
  H    -105.046000   34.486500   -8.697610
  C    -105.711000   32.986100  -11.112300
  H    -105.329000   32.386300  -10.318100
  H    -105.146000   32.729500  -12.038800
  C    -107.181000   32.556400  -11.425700
  H    -107.633000   33.257700  -12.088900
  H    -107.787000   32.642300  -10.495900
  C    -107.220000   31.064200  -11.939600
  H    -107.074000   31.060700  -13.040600
  H    -108.131000   30.521700  -11.892300
  H    -106.494000   30.323400  -11.618800
  H    -105.053000   34.280100  -16.660600
  H    -104.290000   36.937900   -8.908080

 Total Charge           Charge          ....    0
 Multiplicity           Mult            ....    1
 Number of Electrons    NEL             ....  134
 Basis Dimension        Dim             ....  322

ORBITAL ENERGIES
----------------

  NO   OCC          E(Eh)            E(eV)
   0   2.0000     -88.969294     -2420.9776
   1   2.0000     -88.961519     -2420.7660
   2   2.0000     -10.321715      -280.8681
   3   2.0000     -10.320991      -280.8484
   4   2.0000     -10.312452      -280.6161
   5   2.0000     -10.311426      -280.5882
   6   2.0000     -10.303210      -280.3646
   7   2.0000     -10.296753      -280.1889
   8   2.0000     -10.294435      -280.1258
   9   2.0000     -10.293457      -280.0992
  10   2.0000     -10.291983      -280.0591
  11   2.0000     -10.291294      -280.0404
  12   2.0000     -10.291016      -280.0328
  13   2.0000     -10.285018      -279.8696
  14   2.0000     -10.284226      -279.8480
  15   2.0000     -10.276930      -279.6495
  16   2.0000      -8.084315      -219.9854
  17   2.0000      -8.076617      -219.7759
  18   2.0000      -6.042697      -164.4301
  19   2.0000      -6.038686      -164.3210
  20   2.0000      -6.035289      -164.2286
  21   2.0000      -6.034991      -164.2204
  22   2.0000      -6.031013      -164.1122
  23   2.0000      -6.027568      -164.0185
  24   2.0000      -1.013660       -27.5831
  25   2.0000      -0.986181       -26.8354
  26   2.0000      -0.911792       -24.8111
  27   2.0000      -0.902174       -24.5494
  28   2.0000      -0.863654       -23.5012
  29   2.0000      -0.854678       -23.2570
  30   2.0000      -0.847719       -23.0676
  31   2.0000      -0.813175       -22.1276
  32   2.0000      -0.783494       -21.3199
  33   2.0000      -0.771039       -20.9810
  34   2.0000      -0.710868       -19.3437
  35   2.0000      -0.702339       -19.1116
  36   2.0000      -0.693578       -18.8732
  37   2.0000      -0.670418       -18.2430
  38   2.0000      -0.643820       -17.5192
  39   2.0000      -0.622688       -16.9442
  40   2.0000      -0.596091       -16.2205
  41   2.0000      -0.568619       -15.4729
  42   2.0000      -0.561811       -15.2877
  43   2.0000      -0.558120       -15.1872
  44   2.0000      -0.520559       -14.1651
  45   2.0000      -0.519268       -14.1300
  46   2.0000      -0.516688       -14.0598
  47   2.0000      -0.514721       -14.0063
  48   2.0000      -0.505990       -13.7687
  49   2.0000      -0.500976       -13.6323
  50   2.0000      -0.491428       -13.3724
  51   2.0000      -0.478003       -13.0071
  52   2.0000      -0.471462       -12.8291
  53   2.0000      -0.466645       -12.6981
  54   2.0000      -0.458940       -12.4884
  55   2.0000      -0.451171       -12.2770
  56   2.0000      -0.442544       -12.0422
  57   2.0000      -0.439484       -11.9590
  58   2.0000      -0.436284       -11.8719
  59   2.0000      -0.425674       -11.5832
  60   2.0000      -0.421586       -11.4719
  61   2.0000      -0.417673       -11.3655
  62   2.0000      -0.410796       -11.1783
  63   2.0000      -0.338871        -9.2211
  64   2.0000      -0.329268        -8.9598
  65   2.0000      -0.323583        -8.8051
  66   2.0000      -0.303976        -8.2716
  67   0.0000       0.039400         1.0721
  68   0.0000       0.059862         1.6289
  69   0.0000       0.110657         3.0111
  70   0.0000       0.120512         3.2793
  71   0.0000       0.126897         3.4531

MULLIKEN ATOMIC CHARGES
-----------------------
   0 S :    0.139762
   1 C :   -0.135565
   2 C :   -0.071339
   3 C :    0.056564
   4 C :   -0.160791
   5 H :   -0.008985
   6 C :    0.067491
   7 H :    0.038095
   8 H :    0.031612
   9 C :   -0.133426
  10 H :    0.032761
  11 H :    0.025631
  12 C :   -0.046538
  13 H :    0.038515
  14 H :    0.035283
  15 H :    0.035504
  16 S :    0.104968
  17 C :   -0.069141
  18 C :   -0.027906
  19 C :   -0.001427
  20 C :   -0.189815
  21 H :    0.002797
  22 C :    0.068107
  23 H :    0.018139
  24 H :    0.023677
  25 C :   -0.030648
  26 H :    0.028962
  27 H :    0.031542
  28 C :   -0.065503
  29 H :    0.028338
  30 H :    0.020905
  31 H :    0.030051
  32 H :    0.049720
  33 H :    0.032661
Sum of atomic charges:    0.0000000

LOEWDIN ATOMIC CHARGES
----------------------
   0 S :    0.442031
   1 C :   -0.205757
   2 C :   -0.065291
   3 C :   -0.057785
   4 C :   -0.207345
   5 H :    0.027438
   6 C :   -0.039113
   7 H :    0.034703
   8 H :    0.037349
   9 C :   -0.044655
  10 H :    0.024018
  11 H :    0.020312
  12 C :   -0.067740
  13 H :    0.024736
  14 H :    0.026215
  15 H :    0.028906
  16 S :    0.406681
  17 C :   -0.177497
  18 C :   -0.065197
  19 C :   -0.053766
  20 C :   -0.194189
  21 H :    0.022288
  22 C :   -0.030795
  23 H :    0.026178
  24 H :    0.030315
  25 C :   -0.028072
  26 H :    0.022142
  27 H :    0.024962
  28 C :   -0.079100
  29 H :    0.031723
  30 H :    0.021349
  31 H :    0.026674
  32 H :    0.028721
  33 H :    0.009560

  Mayer bond orders larger than 0.100000
B(  0-S ,  1-C ) :   1.1459 B(  0-S ,  4-C ) :   1.1812 B(  1-C ,  2-C ) :   1.5782
B(  1-C , 32-H ) :   0.9677 B(  2-C ,  3-C ) :   1.2634 B(  2-C ,  6-C ) :   1.0381
B(  3-C ,  4-C ) :   1.5659 B(  3-C ,  5-H ) :   1.0075 B(  4-C , 20-C ) :   0.9898
B(  6-C ,  7-H ) :   0.9278 B(  6-C ,  8-H ) :   0.9435 B(  6-C ,  9-C ) :   1.0495
B(  9-C , 10-H ) :   0.9601 B(  9-C , 11-H ) :   0.9595 B(  9-C , 12-C ) :   1.0778
B( 12-C , 13-H ) :   0.9793 B( 12-C , 14-H ) :   0.9749 B( 12-C , 15-H ) :   0.9754
B( 16-S , 17-C ) :   1.1771 B( 16-S , 20-C ) :   1.1477 B( 17-C , 18-C ) :   1.5762
B( 17-C , 20-C ) :   0.1014 B( 17-C , 33-H ) :   0.9826 B( 18-C , 19-C ) :   1.2302
B( 18-C , 21-H ) :   1.0004 B( 19-C , 20-C ) :   1.6129 B( 19-C , 22-C ) :   1.0443
B( 22-C , 23-H ) :   0.9332 B( 22-C , 24-H ) :   0.9273 B( 22-C , 25-C ) :   1.0596
B( 25-C , 26-H ) :   0.9611 B( 25-C , 27-H ) :   0.9591 B( 25-C , 28-C ) :   1.0556
B( 28-C , 29-H ) :   0.9745 B( 28-C , 30-H ) :   0.9770 B( 28-C , 31-H ) :   0.9798

Dispersion correction           -0.014211497
FINAL SINGLE POINT ENERGY     -1339.875301091922

DIPOLE MOMENT
-------------
                                X             Y             Z
Electronic contribution:     19.57425      14.95348      13.24434
Nuclear contribution   :    -19.89982     -15.27296     -13.39200
                        -----------------------------------------
Total Dipole Moment    :     -0.32557      -0.31948      -0.14766
                        -----------------------------------------
Magnitude (a.u.)       :      0.47944
Magnitude (Debye)      :      1.21865

Rotational constants in cm-1:     0.019536     0.008202     0.006724
Rotational constants in MHz :   585.677312   245.896682   201.568603

                             ****ORCA TERMINATED NORMALLY****
TOTAL RUN TIME: 0 days 0 hours 0 minutes 20 seconds 263 msec
