                         Program Version 4.2.1 -  RELEASE  -
|  1> ! wB97X-D3 SP def2-SVP
|  2> %pal
|  3> nprocs 24
|  4> end
|  5>
|  6> * xyz 0 1
|  7> S 	 -45.2499 	 9.51102 	 29.9981
|  8> C 	 -45.0661 	 11.0696 	 29.2114
|  9> C 	 -46.2635 	 11.4649 	 28.6963
| 10> C 	 -47.3429 	 10.4567 	 28.7565
| 11> C 	 -46.9565 	 9.3798 	 29.5333
| 12> H 	 -48.2693 	 10.4571 	 28.207
| 13> C 	 -46.3832 	 12.78 	 27.9076
| 14> H 	 -45.4046 	 12.9901 	 27.513
| 15> H 	 -46.5875 	 13.6293 	 28.5662
| 16> C 	 -47.4138 	 12.8075 	 26.802
| 17> H 	 -48.329 	 12.4469 	 27.2323
| 18> H 	 -47.6427 	 13.8782 	 26.5949
| 19> C 	 -47.0483 	 12.0009 	 25.5619
| 20> H 	 -46.0211 	 12.095 	 25.1536
| 21> H 	 -47.1458 	 10.8773 	 25.6448
| 22> H 	 -47.7122 	 12.3174 	 24.7607
| 23> S 	 -47.0759 	 6.72061 	 29.3848
| 24> C 	 -48.5907 	 5.90587 	 29.7901
| 25> C 	 -49.4374 	 6.73561 	 30.4193
| 26> C 	 -48.9636 	 8.1014 	 30.4157
| 27> C 	 -47.7713 	 8.19811 	 29.7554
| 28> H 	 -50.4279 	 6.35825 	 30.7112
| 29> C 	 -49.9399 	 9.17058 	 30.9263
| 30> H 	 -50.8872 	 8.9187 	 30.43
| 31> H 	 -49.6768 	 10.1999 	 30.5838
| 32> C 	 -50.1377 	 9.18106 	 32.4375
| 33> H 	 -50.732 	 10.0847 	 32.6771
| 34> H 	 -49.1831 	 9.22108 	 32.9837
| 35> C 	 -50.8853 	 7.904 	 32.9144
| 36> H 	 -50.9869 	 7.98188 	 33.9871
| 37> H 	 -50.4054 	 6.95392 	 32.8069
| 38> H 	 -51.8597 	 7.8914 	 32.3944
| 39> H 	 -44.2262 	 11.7775 	 29.5075
| 40> H 	 -48.8205 	 4.85378 	 29.7585
| 41> *
| 42>
| 43>                          ****END OF INPUT****

CARTESIAN COORDINATES (ANGSTROEM)
---------------------------------
  S    -45.249900    9.511020   29.998100
  C    -45.066100   11.069600   29.211400
  C    -46.263500   11.464900   28.696300
  C    -47.342900   10.456700   28.756500
  C    -46.956500    9.379800   29.533300
  H    -48.269300   10.457100   28.207000
  C    -46.383200   12.780000   27.907600
  H    -45.404600   12.990100   27.513000
  H    -46.587500   13.629300   28.566200
  C    -47.413800   12.807500   26.802000
  H    -48.329000   12.446900   27.232300
  H    -47.642700   13.878200   26.594900
  C    -47.048300   12.000900   25.561900
  H    -46.021100   12.095000   25.153600
  H    -47.145800   10.877300   25.644800
  H    -47.712200   12.317400   24.760700
  S    -47.075900    6.720610   29.384800
  C    -48.590700    5.905870   29.790100
  C    -49.437400    6.735610   30.419300
  C    -48.963600    8.101400   30.415700
  C    -47.771300    8.198110   29.755400
  H    -50.427900    6.358250   30.711200
  C    -49.939900    9.170580   30.926300
  H    -50.887200    8.918700   30.430000
  H    -49.676800   10.199900   30.583800
  C    -50.137700    9.181060   32.437500
  H    -50.732000   10.084700   32.677100
  H    -49.183100    9.221080   32.983700
  C    -50.885300    7.904000   32.914400
  H    -50.986900    7.981880   33.987100
  H    -50.405400    6.953920   32.806900
  H    -51.859700    7.891400   32.394400
  H    -44.226200   11.777500   29.507500
  H    -48.820500    4.853780   29.758500

 Total Charge           Charge          ....    0
 Multiplicity           Mult            ....    1
 Number of Electrons    NEL             ....  134
 Basis Dimension        Dim             ....  322

ORBITAL ENERGIES
----------------

  NO   OCC          E(Eh)            E(eV)
   0   2.0000     -88.963328     -2420.8152
   1   2.0000     -88.962543     -2420.7939
   2   2.0000     -10.330897      -281.1180
   3   2.0000     -10.318873      -280.7908
   4   2.0000     -10.314666      -280.6763
   5   2.0000     -10.310628      -280.5664
   6   2.0000     -10.303856      -280.3822
   7   2.0000     -10.300829      -280.2998
   8   2.0000     -10.297626      -280.2126
   9   2.0000     -10.293621      -280.1037
  10   2.0000     -10.290011      -280.0054
  11   2.0000     -10.289252      -279.9848
  12   2.0000     -10.286919      -279.9213
  13   2.0000     -10.286039      -279.8973
  14   2.0000     -10.280713      -279.7524
  15   2.0000     -10.275240      -279.6035
  16   2.0000      -8.079559      -219.8560
  17   2.0000      -8.077042      -219.7875
  18   2.0000      -6.038086      -164.3047
  19   2.0000      -6.035717      -164.2402
  20   2.0000      -6.034008      -164.1937
  21   2.0000      -6.031575      -164.1275
  22   2.0000      -6.030037      -164.0857
  23   2.0000      -6.027637      -164.0203
  24   2.0000      -1.014286       -27.6001
  25   2.0000      -0.983426       -26.7604
  26   2.0000      -0.911759       -24.8102
  27   2.0000      -0.908042       -24.7091
  28   2.0000      -0.875497       -23.8235
  29   2.0000      -0.846250       -23.0276
  30   2.0000      -0.836266       -22.7560
  31   2.0000      -0.820083       -22.3156
  32   2.0000      -0.782389       -21.2899
  33   2.0000      -0.773038       -21.0354
  34   2.0000      -0.712075       -19.3765
  35   2.0000      -0.695133       -18.9155
  36   2.0000      -0.684582       -18.6284
  37   2.0000      -0.660917       -17.9845
  38   2.0000      -0.636324       -17.3153
  39   2.0000      -0.621700       -16.9173
  40   2.0000      -0.594670       -16.1818
  41   2.0000      -0.563528       -15.3344
  42   2.0000      -0.552461       -15.0332
  43   2.0000      -0.550683       -14.9848
  44   2.0000      -0.535059       -14.5597
  45   2.0000      -0.531807       -14.4712
  46   2.0000      -0.523959       -14.2577
  47   2.0000      -0.513163       -13.9639
  48   2.0000      -0.502078       -13.6622
  49   2.0000      -0.498423       -13.5628
  50   2.0000      -0.485362       -13.2074
  51   2.0000      -0.482067       -13.1177
  52   2.0000      -0.476702       -12.9717
  53   2.0000      -0.463354       -12.6085
  54   2.0000      -0.456900       -12.4329
  55   2.0000      -0.443922       -12.0797
  56   2.0000      -0.439130       -11.9493
  57   2.0000      -0.437630       -11.9085
  58   2.0000      -0.432066       -11.7571
  59   2.0000      -0.424267       -11.5449
  60   2.0000      -0.420830       -11.4514
  61   2.0000      -0.413288       -11.2461
  62   2.0000      -0.405961       -11.0468
  63   2.0000      -0.352779        -9.5996
  64   2.0000      -0.329239        -8.9590
  65   2.0000      -0.324864        -8.8400
  66   2.0000      -0.297003        -8.0819
  67   0.0000       0.037157         1.0111
  68   0.0000       0.069435         1.8894
  69   0.0000       0.112522         3.0619
  70   0.0000       0.117767         3.2046
  71   0.0000       0.132472         3.6047

MULLIKEN ATOMIC CHARGES
-----------------------
   0 S :    0.092764
   1 C :   -0.149102
   2 C :   -0.098682
   3 C :    0.018155
   4 C :   -0.130282
   5 H :    0.026872
   6 C :    0.077745
   7 H :    0.013637
   8 H :    0.032045
   9 C :   -0.073540
  10 H :    0.019538
  11 H :    0.030472
  12 C :   -0.069699
  13 H :    0.034068
  14 H :    0.045451
  15 H :    0.033221
  16 S :    0.112618
  17 C :   -0.073124
  18 C :   -0.056734
  19 C :   -0.021081
  20 C :   -0.179652
  21 H :    0.032431
  22 C :    0.050560
  23 H :    0.029128
  24 H :    0.026375
  25 C :   -0.064732
  26 H :    0.038728
  27 H :    0.039860
  28 C :   -0.068441
  29 H :    0.029276
  30 H :    0.041552
  31 H :    0.029233
  32 H :    0.087325
  33 H :    0.044017
Sum of atomic charges:    0.0000000

LOEWDIN ATOMIC CHARGES
----------------------
   0 S :    0.380942
   1 C :   -0.214369
   2 C :   -0.059077
   3 C :   -0.066041
   4 C :   -0.175574
   5 H :    0.032003
   6 C :   -0.033596
   7 H :    0.025067
   8 H :    0.032451
   9 C :   -0.045982
  10 H :    0.020289
  11 H :    0.031526
  12 C :   -0.075932
  13 H :    0.028180
  14 H :    0.033753
  15 H :    0.026897
  16 S :    0.424362
  17 C :   -0.180081
  18 C :   -0.071099
  19 C :   -0.055640
  20 C :   -0.222984
  21 H :    0.036805
  22 C :   -0.034585
  23 H :    0.030552
  24 H :    0.029751
  25 C :   -0.036584
  26 H :    0.029473
  27 H :    0.028974
  28 C :   -0.069683
  29 H :    0.025363
  30 H :    0.022071
  31 H :    0.025006
  32 H :    0.048703
  33 H :    0.029059

  Mayer bond orders larger than 0.100000
B(  0-S ,  1-C ) :   1.1071 B(  0-S ,  4-C ) :   1.1486 B(  1-C ,  2-C ) :   1.6691
B(  1-C , 32-H ) :   0.9532 B(  2-C ,  3-C ) :   1.1981 B(  2-C ,  6-C ) :   1.0059
B(  3-C ,  4-C ) :   1.6068 B(  3-C ,  5-H ) :   0.9864 B(  4-C , 20-C ) :   1.0222
B(  6-C ,  7-H ) :   0.9484 B(  6-C ,  8-H ) :   0.9313 B(  6-C ,  9-C ) :   1.0949
B(  9-C , 10-H ) :   0.9444 B(  9-C , 11-H ) :   0.9532 B(  9-C , 12-C ) :   1.0710
B( 12-C , 13-H ) :   0.9765 B( 12-C , 14-H ) :   0.9732 B( 12-C , 15-H ) :   0.9747
B( 16-S , 17-C ) :   1.1273 B( 16-S , 20-C ) :   1.1462 B( 17-C , 18-C ) :   1.6706
B( 17-C , 33-H ) :   0.9623 B( 18-C , 19-C ) :   1.2078 B( 18-C , 21-H ) :   0.9753
B( 19-C , 20-C ) :   1.6311 B( 19-C , 22-C ) :   1.0237 B( 22-C , 23-H ) :   0.9437
B( 22-C , 24-H ) :   0.9362 B( 22-C , 25-C ) :   1.0752 B( 25-C , 26-H ) :   0.9562
B( 25-C , 27-H ) :   0.9521 B( 25-C , 28-C ) :   1.0841 B( 28-C , 29-H ) :   0.9702
B( 28-C , 30-H ) :   0.9670 B( 28-C , 31-H ) :   0.9738

Dispersion correction           -0.014301663
FINAL SINGLE POINT ENERGY     -1339.876392691425

DIPOLE MOMENT
-------------
                                X             Y             Z
Electronic contribution:     16.26958     -14.31206       2.24408
Nuclear contribution   :    -16.84219      14.69086      -2.23375
                        -----------------------------------------
Total Dipole Moment    :     -0.57261       0.37880       0.01033
                        -----------------------------------------
Magnitude (a.u.)       :      0.68664
Magnitude (Debye)      :      1.74530

Rotational constants in cm-1:     0.020297     0.008054     0.007246
Rotational constants in MHz :   608.482825   241.462484   217.244172

                             ****ORCA TERMINATED NORMALLY****
TOTAL RUN TIME: 0 days 0 hours 0 minutes 21 seconds 682 msec
