                         Program Version 4.2.1 -  RELEASE  -
|  1> ! wB97X-D3 SP def2-SVP
|  2> %pal
|  3> nprocs 24
|  4> end
|  5>
|  6> * xyz 0 1
|  7> S 	 44.8675 	 -21.4854 	 -110.037
|  8> C 	 46.2358 	 -21.6117 	 -108.959
|  9> C 	 47.15 	 -22.5168 	 -109.471
| 10> C 	 46.7708 	 -22.9273 	 -110.782
| 11> C 	 45.582 	 -22.4898 	 -111.235
| 12> H 	 47.352 	 -23.557 	 -111.493
| 13> C 	 48.3245 	 -23.1142 	 -108.738
| 14> H 	 48.6928 	 -24.0616 	 -109.075
| 15> H 	 47.983 	 -23.1604 	 -107.695
| 16> C 	 49.6549 	 -22.3119 	 -108.902
| 17> H 	 49.7301 	 -22.1074 	 -109.958
| 18> H 	 49.3135 	 -21.3962 	 -108.427
| 19> C 	 50.8877 	 -22.7734 	 -108.171
| 20> H 	 51.854 	 -22.24 	 -108.322
| 21> H 	 50.6012 	 -22.6388 	 -107.122
| 22> H 	 51.0351 	 -23.781 	 -108.454
| 23> S 	 43.8469 	 -24.0451 	 -112.602
| 24> C 	 43.8395 	 -23.9555 	 -114.343
| 25> C 	 44.6642 	 -23.0143 	 -114.797
| 26> C 	 45.3434 	 -22.2592 	 -113.784
| 27> C 	 45.0029 	 -22.7486 	 -112.532
| 28> H 	 44.7915 	 -22.8234 	 -115.858
| 29> C 	 46.3057 	 -21.1895 	 -114.116
| 30> H 	 47.1495 	 -21.0367 	 -113.398
| 31> H 	 45.8019 	 -20.273 	 -113.858
| 32> C 	 46.8947 	 -21.0749 	 -115.524
| 33> H 	 46.1116 	 -20.8786 	 -116.262
| 34> H 	 47.242 	 -22.0068 	 -115.814
| 35> C 	 47.9599 	 -20.0374 	 -115.694
| 36> H 	 48.2445 	 -19.8509 	 -116.725
| 37> H 	 48.8127 	 -20.1599 	 -115.048
| 38> H 	 47.5116 	 -19.0639 	 -115.478
| 39> H 	 46.3335 	 -21.1998 	 -107.942
| 40> H 	 43.4433 	 -24.6738 	 -114.998
| 41> *
| 42>
| 43>                          ****END OF INPUT****

CARTESIAN COORDINATES (ANGSTROEM)
---------------------------------
  S     44.867500  -21.485400  -110.037000
  C     46.235800  -21.611700  -108.959000
  C     47.150000  -22.516800  -109.471000
  C     46.770800  -22.927300  -110.782000
  C     45.582000  -22.489800  -111.235000
  H     47.352000  -23.557000  -111.493000
  C     48.324500  -23.114200  -108.738000
  H     48.692800  -24.061600  -109.075000
  H     47.983000  -23.160400  -107.695000
  C     49.654900  -22.311900  -108.902000
  H     49.730100  -22.107400  -109.958000
  H     49.313500  -21.396200  -108.427000
  C     50.887700  -22.773400  -108.171000
  H     51.854000  -22.240000  -108.322000
  H     50.601200  -22.638800  -107.122000
  H     51.035100  -23.781000  -108.454000
  S     43.846900  -24.045100  -112.602000
  C     43.839500  -23.955500  -114.343000
  C     44.664200  -23.014300  -114.797000
  C     45.343400  -22.259200  -113.784000
  C     45.002900  -22.748600  -112.532000
  H     44.791500  -22.823400  -115.858000
  C     46.305700  -21.189500  -114.116000
  H     47.149500  -21.036700  -113.398000
  H     45.801900  -20.273000  -113.858000
  C     46.894700  -21.074900  -115.524000
  H     46.111600  -20.878600  -116.262000
  H     47.242000  -22.006800  -115.814000
  C     47.959900  -20.037400  -115.694000
  H     48.244500  -19.850900  -116.725000
  H     48.812700  -20.159900  -115.048000
  H     47.511600  -19.063900  -115.478000
  H     46.333500  -21.199800  -107.942000
  H     43.443300  -24.673800  -114.998000

 Total Charge           Charge          ....    0
 Multiplicity           Mult            ....    1
 Number of Electrons    NEL             ....  134
 Basis Dimension        Dim             ....  322

ORBITAL ENERGIES
----------------

  NO   OCC          E(Eh)            E(eV)
   0   2.0000     -88.963575     -2420.8220
   1   2.0000     -88.963404     -2420.8173
   2   2.0000     -10.321533      -280.8632
   3   2.0000     -10.318339      -280.7763
   4   2.0000     -10.316751      -280.7331
   5   2.0000     -10.307553      -280.4828
   6   2.0000     -10.304042      -280.3872
   7   2.0000     -10.301079      -280.3066
   8   2.0000     -10.291283      -280.0401
   9   2.0000     -10.289885      -280.0020
  10   2.0000     -10.288888      -279.9749
  11   2.0000     -10.287499      -279.9371
  12   2.0000     -10.281805      -279.7821
  13   2.0000     -10.280029      -279.7338
  14   2.0000     -10.279433      -279.7176
  15   2.0000     -10.276808      -279.6462
  16   2.0000      -8.078893      -219.8378
  17   2.0000      -8.078731      -219.8334
  18   2.0000      -6.037403      -164.2861
  19   2.0000      -6.037221      -164.2811
  20   2.0000      -6.033200      -164.1717
  21   2.0000      -6.033180      -164.1712
  22   2.0000      -6.029722      -164.0771
  23   2.0000      -6.029460      -164.0700
  24   2.0000      -1.013964       -27.5914
  25   2.0000      -0.991227       -26.9727
  26   2.0000      -0.917601       -24.9692
  27   2.0000      -0.914915       -24.8961
  28   2.0000      -0.876123       -23.8405
  29   2.0000      -0.857544       -23.3349
  30   2.0000      -0.848793       -23.0968
  31   2.0000      -0.820432       -22.3251
  32   2.0000      -0.786186       -21.3932
  33   2.0000      -0.774934       -21.0870
  34   2.0000      -0.714043       -19.4301
  35   2.0000      -0.703575       -19.1452
  36   2.0000      -0.694660       -18.9026
  37   2.0000      -0.654457       -17.8087
  38   2.0000      -0.644413       -17.5354
  39   2.0000      -0.618657       -16.8345
  40   2.0000      -0.607814       -16.5395
  41   2.0000      -0.581731       -15.8297
  42   2.0000      -0.571042       -15.5389
  43   2.0000      -0.565153       -15.3786
  44   2.0000      -0.529054       -14.3963
  45   2.0000      -0.526862       -14.3366
  46   2.0000      -0.520865       -14.1734
  47   2.0000      -0.512480       -13.9453
  48   2.0000      -0.507093       -13.7987
  49   2.0000      -0.497947       -13.5498
  50   2.0000      -0.495510       -13.4835
  51   2.0000      -0.481101       -13.0914
  52   2.0000      -0.474693       -12.9170
  53   2.0000      -0.468502       -12.7486
  54   2.0000      -0.465278       -12.6609
  55   2.0000      -0.460938       -12.5428
  56   2.0000      -0.448942       -12.2163
  57   2.0000      -0.431590       -11.7442
  58   2.0000      -0.428743       -11.6667
  59   2.0000      -0.426289       -11.5999
  60   2.0000      -0.422286       -11.4910
  61   2.0000      -0.419428       -11.4132
  62   2.0000      -0.399199       -10.8628
  63   2.0000      -0.339317        -9.2333
  64   2.0000      -0.328296        -8.9334
  65   2.0000      -0.322604        -8.7785
  66   2.0000      -0.308493        -8.3945
  67   0.0000       0.050233         1.3669
  68   0.0000       0.056710         1.5432
  69   0.0000       0.117096         3.1863
  70   0.0000       0.125064         3.4032
  71   0.0000       0.136138         3.7045

MULLIKEN ATOMIC CHARGES
-----------------------
   0 S :    0.117304
   1 C :   -0.128869
   2 C :   -0.086467
   3 C :    0.038985
   4 C :   -0.182794
   5 H :    0.018915
   6 C :    0.063209
   7 H :    0.011722
   8 H :    0.027982
   9 C :   -0.093273
  10 H :    0.023255
  11 H :    0.007170
  12 C :   -0.008846
  13 H :    0.048797
  14 H :    0.032305
  15 H :    0.021262
  16 S :    0.115554
  17 C :   -0.044674
  18 C :   -0.061290
  19 C :    0.021153
  20 C :   -0.195276
  21 H :    0.018414
  22 C :    0.054135
  23 H :    0.023041
  24 H :    0.024443
  25 C :   -0.052945
  26 H :    0.023914
  27 H :    0.010129
  28 C :   -0.019072
  29 H :    0.028422
  30 H :    0.035364
  31 H :    0.015492
  32 H :    0.056494
  33 H :    0.036047
Sum of atomic charges:   -0.0000000

LOEWDIN ATOMIC CHARGES
----------------------
   0 S :    0.420004
   1 C :   -0.202115
   2 C :   -0.065628
   3 C :   -0.064785
   4 C :   -0.218388
   5 H :    0.037400
   6 C :   -0.026653
   7 H :    0.023359
   8 H :    0.030318
   9 C :   -0.044704
  10 H :    0.018180
  11 H :    0.016919
  12 C :   -0.064709
  13 H :    0.036084
  14 H :    0.032116
  15 H :    0.017089
  16 S :    0.414870
  17 C :   -0.178620
  18 C :   -0.072368
  19 C :   -0.044440
  20 C :   -0.207583
  21 H :    0.032188
  22 C :   -0.042608
  23 H :    0.038892
  24 H :    0.038564
  25 C :   -0.039485
  26 H :    0.024981
  27 H :    0.012313
  28 C :   -0.060620
  29 H :    0.029942
  30 H :    0.023670
  31 H :    0.026949
  32 H :    0.035548
  33 H :    0.023317

  Mayer bond orders larger than 0.100000
B(  0-S ,  1-C ) :   1.1487 B(  0-S ,  4-C ) :   1.1483 B(  1-C ,  2-C ) :   1.6015
B(  1-C , 32-H ) :   0.9641 B(  2-C ,  3-C ) :   1.2341 B(  2-C ,  6-C ) :   1.0275
B(  3-C ,  4-C ) :   1.6186 B(  3-C ,  5-H ) :   0.9915 B(  4-C , 20-C ) :   0.9950
B(  6-C ,  7-H ) :   0.9453 B(  6-C ,  8-H ) :   0.9437 B(  6-C ,  9-C ) :   1.0392
B(  9-C , 10-H ) :   0.9597 B(  9-C , 11-H ) :   0.9613 B(  9-C , 12-C ) :   1.0683
B( 12-C , 13-H ) :   0.9731 B( 12-C , 14-H ) :   0.9738 B( 12-C , 15-H ) :   0.9746
B( 16-S , 17-C ) :   1.1419 B( 16-S , 20-C ) :   1.1544 B( 17-C , 18-C ) :   1.6393
B( 17-C , 33-H ) :   0.9633 B( 18-C , 19-C ) :   1.2381 B( 18-C , 21-H ) :   0.9823
B( 19-C , 20-C ) :   1.6088 B( 19-C , 22-C ) :   1.0467 B( 22-C , 23-H ) :   0.9279
B( 22-C , 24-H ) :   0.9068 B( 22-C , 25-C ) :   1.0698 B( 25-C , 26-H ) :   0.9380
B( 25-C , 27-H ) :   0.9546 B( 25-C , 28-C ) :   1.0987 B( 28-C , 29-H ) :   0.9686
B( 28-C , 30-H ) :   0.9739 B( 28-C , 31-H ) :   0.9693

Dispersion correction           -0.013490219
FINAL SINGLE POINT ENERGY     -1339.866810102614

DIPOLE MOMENT
-------------
                                X             Y             Z
Electronic contribution:    -27.56663      -7.48758       3.37109
Nuclear contribution   :     28.20309       7.53993      -3.67670
                        -----------------------------------------
Total Dipole Moment    :      0.63645       0.05235      -0.30561
                        -----------------------------------------
Magnitude (a.u.)       :      0.70796
Magnitude (Debye)      :      1.79950

Rotational constants in cm-1:     0.016870     0.008034     0.006360
Rotational constants in MHz :   505.749640   240.848643   190.680606

                             ****ORCA TERMINATED NORMALLY****
TOTAL RUN TIME: 0 days 0 hours 0 minutes 20 seconds 965 msec
