                         Program Version 4.2.1 -  RELEASE  -
|  1> ! wB97X-D3 SP def2-SVP
|  2> %pal
|  3> nprocs 24
|  4> end
|  5>
|  6> * xyz 0 1
|  7> S 	 -142.31 	 9.9741 	 8.83497
|  8> C 	 -143.21 	 10.4624 	 7.37866
|  9> C 	 -144.607 	 10.4614 	 7.61274
| 10> C 	 -144.916 	 9.7899 	 8.83482
| 11> C 	 -143.827 	 9.59444 	 9.70233
| 12> H 	 -145.904 	 9.605 	 9.10641
| 13> C 	 -145.704 	 10.7518 	 6.58283
| 14> H 	 -146.168 	 9.81988 	 6.30945
| 15> H 	 -145.219 	 11.0596 	 5.61876
| 16> C 	 -146.801 	 11.7957 	 7.00304
| 17> H 	 -147.023 	 11.6106 	 8.00013
| 18> H 	 -146.269 	 12.7008 	 7.16048
| 19> C 	 -147.993 	 11.9536 	 6.04327
| 20> H 	 -147.602 	 12.1343 	 5.08955
| 21> H 	 -148.613 	 11.0812 	 5.9677
| 22> H 	 -148.607 	 12.8057 	 6.34888
| 23> S 	 -143.512 	 7.21943 	 11.0058
| 24> C 	 -143.57 	 7.04261 	 12.7872
| 25> C 	 -144.032 	 8.26926 	 13.2394
| 26> C 	 -144.206 	 9.29449 	 12.2204
| 27> C 	 -143.76 	 8.88677 	 10.9939
| 28> H 	 -144.351 	 8.38348 	 14.2851
| 29> C 	 -144.812 	 10.5953 	 12.5992
| 30> H 	 -145.631 	 10.46 	 13.3181
| 31> H 	 -145.202 	 11.0795 	 11.6636
| 32> C 	 -143.767 	 11.5412 	 13.1298
| 33> H 	 -142.914 	 11.7271 	 12.4816
| 34> H 	 -143.297 	 11.1019 	 13.9606
| 35> C 	 -144.538 	 12.8035 	 13.4649
| 36> H 	 -143.894 	 13.6116 	 13.9063
| 37> H 	 -145.326 	 12.5785 	 14.2686
| 38> H 	 -145.03 	 13.1729 	 12.5488
| 39> H 	 -142.888 	 10.802 	 6.35538
| 40> H 	 -143.328 	 6.11148 	 13.339
| 41> *
| 42>
| 43>                          ****END OF INPUT****

CARTESIAN COORDINATES (ANGSTROEM)
---------------------------------
  S    -142.310000    9.974100    8.834970
  C    -143.210000   10.462400    7.378660
  C    -144.607000   10.461400    7.612740
  C    -144.916000    9.789900    8.834820
  C    -143.827000    9.594440    9.702330
  H    -145.904000    9.605000    9.106410
  C    -145.704000   10.751800    6.582830
  H    -146.168000    9.819880    6.309450
  H    -145.219000   11.059600    5.618760
  C    -146.801000   11.795700    7.003040
  H    -147.023000   11.610600    8.000130
  H    -146.269000   12.700800    7.160480
  C    -147.993000   11.953600    6.043270
  H    -147.602000   12.134300    5.089550
  H    -148.613000   11.081200    5.967700
  H    -148.607000   12.805700    6.348880
  S    -143.512000    7.219430   11.005800
  C    -143.570000    7.042610   12.787200
  C    -144.032000    8.269260   13.239400
  C    -144.206000    9.294490   12.220400
  C    -143.760000    8.886770   10.993900
  H    -144.351000    8.383480   14.285100
  C    -144.812000   10.595300   12.599200
  H    -145.631000   10.460000   13.318100
  H    -145.202000   11.079500   11.663600
  C    -143.767000   11.541200   13.129800
  H    -142.914000   11.727100   12.481600
  H    -143.297000   11.101900   13.960600
  C    -144.538000   12.803500   13.464900
  H    -143.894000   13.611600   13.906300
  H    -145.326000   12.578500   14.268600
  H    -145.030000   13.172900   12.548800
  H    -142.888000   10.802000    6.355380
  H    -143.328000    6.111480   13.339000

 Total Charge           Charge          ....    0
 Multiplicity           Mult            ....    1
 Number of Electrons    NEL             ....  134
 Basis Dimension        Dim             ....  322

ORBITAL ENERGIES
----------------

  NO   OCC          E(Eh)            E(eV)
   0   2.0000     -88.972000     -2421.0512
   1   2.0000     -88.958454     -2420.6826
   2   2.0000     -10.336816      -281.2791
   3   2.0000     -10.326265      -280.9920
   4   2.0000     -10.325449      -280.9697
   5   2.0000     -10.320767      -280.8423
   6   2.0000     -10.305508      -280.4271
   7   2.0000     -10.298400      -280.2337
   8   2.0000     -10.298145      -280.2268
   9   2.0000     -10.297661      -280.2136
  10   2.0000     -10.296511      -280.1823
  11   2.0000     -10.288309      -279.9591
  12   2.0000     -10.283479      -279.8277
  13   2.0000     -10.282062      -279.7891
  14   2.0000     -10.278249      -279.6854
  15   2.0000     -10.274756      -279.5903
  16   2.0000      -8.085073      -220.0060
  17   2.0000      -8.074058      -219.7063
  18   2.0000      -6.043748      -164.4587
  19   2.0000      -6.039724      -164.3492
  20   2.0000      -6.035833      -164.2434
  21   2.0000      -6.032679      -164.1576
  22   2.0000      -6.028415      -164.0415
  23   2.0000      -6.024622      -163.9383
  24   2.0000      -1.006706       -27.3939
  25   2.0000      -0.978681       -26.6313
  26   2.0000      -0.918290       -24.9879
  27   2.0000      -0.907058       -24.6823
  28   2.0000      -0.867852       -23.6155
  29   2.0000      -0.848453       -23.0876
  30   2.0000      -0.843960       -22.9653
  31   2.0000      -0.814100       -22.1528
  32   2.0000      -0.779945       -21.2234
  33   2.0000      -0.762371       -20.7452
  34   2.0000      -0.715609       -19.4727
  35   2.0000      -0.700944       -19.0737
  36   2.0000      -0.695656       -18.9298
  37   2.0000      -0.663478       -18.0542
  38   2.0000      -0.636362       -17.3163
  39   2.0000      -0.621982       -16.9250
  40   2.0000      -0.598063       -16.2741
  41   2.0000      -0.568284       -15.4638
  42   2.0000      -0.566191       -15.4068
  43   2.0000      -0.556393       -15.1402
  44   2.0000      -0.528110       -14.3706
  45   2.0000      -0.526064       -14.3149
  46   2.0000      -0.518260       -14.1026
  47   2.0000      -0.511556       -13.9201
  48   2.0000      -0.501292       -13.6408
  49   2.0000      -0.497098       -13.5267
  50   2.0000      -0.494228       -13.4486
  51   2.0000      -0.479163       -13.0387
  52   2.0000      -0.467772       -12.7287
  53   2.0000      -0.462239       -12.5782
  54   2.0000      -0.458702       -12.4819
  55   2.0000      -0.452614       -12.3162
  56   2.0000      -0.443921       -12.0797
  57   2.0000      -0.438027       -11.9193
  58   2.0000      -0.431196       -11.7335
  59   2.0000      -0.424764       -11.5584
  60   2.0000      -0.419753       -11.4221
  61   2.0000      -0.418756       -11.3949
  62   2.0000      -0.412145       -11.2150
  63   2.0000      -0.338502        -9.2111
  64   2.0000      -0.327490        -8.9115
  65   2.0000      -0.315524        -8.5858
  66   2.0000      -0.308586        -8.3971
  67   0.0000       0.034257         0.9322
  68   0.0000       0.056376         1.5341
  69   0.0000       0.109688         2.9848
  70   0.0000       0.115562         3.1446
  71   0.0000       0.118312         3.2194

MULLIKEN ATOMIC CHARGES
-----------------------
   0 S :    0.119780
   1 C :   -0.121349
   2 C :   -0.116427
   3 C :    0.082384
   4 C :   -0.185986
   5 H :   -0.003662
   6 C :    0.030567
   7 H :    0.031437
   8 H :    0.014487
   9 C :   -0.041176
  10 H :   -0.002917
  11 H :    0.011413
  12 C :   -0.001710
  13 H :    0.017766
  14 H :    0.030523
  15 H :    0.040206
  16 S :    0.099902
  17 C :   -0.117021
  18 C :   -0.029521
  19 C :   -0.042760
  20 C :   -0.129644
  21 H :    0.027468
  22 C :    0.037814
  23 H :    0.031054
  24 H :    0.026185
  25 C :   -0.039298
  26 H :    0.030468
  27 H :    0.005369
  28 C :   -0.058041
  29 H :    0.038775
  30 H :    0.033964
  31 H :    0.035394
  32 H :    0.063687
  33 H :    0.080871
Sum of atomic charges:    0.0000000

LOEWDIN ATOMIC CHARGES
----------------------
   0 S :    0.394358
   1 C :   -0.198787
   2 C :   -0.067862
   3 C :   -0.043223
   4 C :   -0.187116
   5 H :    0.020387
   6 C :   -0.031794
   7 H :    0.027669
   8 H :    0.028126
   9 C :   -0.037271
  10 H :    0.011439
  11 H :    0.023501
  12 C :   -0.052886
  13 H :    0.019665
  14 H :    0.024260
  15 H :    0.033370
  16 S :    0.416423
  17 C :   -0.180851
  18 C :   -0.075657
  19 C :   -0.057646
  20 C :   -0.233329
  21 H :    0.031722
  22 C :   -0.033033
  23 H :    0.033369
  24 H :    0.033865
  25 C :   -0.039262
  26 H :    0.028210
  27 H :    0.014808
  28 C :   -0.070292
  29 H :    0.026213
  30 H :    0.030556
  31 H :    0.026285
  32 H :    0.042299
  33 H :    0.042481

  Mayer bond orders larger than 0.100000
B(  0-S ,  1-C ) :   1.1469 B(  0-S ,  4-C ) :   1.1383 B(  1-C ,  2-C ) :   1.6058
B(  1-C ,  4-C ) :   0.1065 B(  1-C , 32-H ) :   0.9548 B(  2-C ,  3-C ) :   1.2450
B(  2-C ,  6-C ) :   1.0334 B(  3-C ,  4-C ) :   1.5804 B(  3-C ,  5-H ) :   0.9964
B(  4-C , 20-C ) :   0.9989 B(  6-C ,  7-H ) :   0.9475 B(  6-C ,  8-H ) :   0.9421
B(  6-C ,  9-C ) :   1.0427 B(  9-C , 10-H ) :   0.9587 B(  9-C , 11-H ) :   0.9487
B(  9-C , 12-C ) :   1.0751 B( 12-C , 13-H ) :   0.9743 B( 12-C , 14-H ) :   0.9769
B( 12-C , 15-H ) :   0.9737 B( 16-S , 17-C ) :   1.1515 B( 16-S , 20-C ) :   1.1588
B( 17-C , 18-C ) :   1.5846 B( 17-C , 33-H ) :   0.9707 B( 18-C , 19-C ) :   1.2463
B( 18-C , 21-H ) :   0.9841 B( 19-C , 20-C ) :   1.5874 B( 19-C , 22-C ) :   1.0534
B( 22-C , 23-H ) :   0.9377 B( 22-C , 24-H ) :   0.9255 B( 22-C , 25-C ) :   1.0684
B( 25-C , 26-H ) :   0.9500 B( 25-C , 27-H ) :   0.9509 B( 25-C , 28-C ) :   1.0822
B( 28-C , 29-H ) :   0.9720 B( 28-C , 30-H ) :   0.9715 B( 28-C , 31-H ) :   0.9719

Dispersion correction           -0.013738621
FINAL SINGLE POINT ENERGY     -1339.860675638946

DIPOLE MOMENT
-------------
                                X             Y             Z
Electronic contribution:     18.28936     -20.53174       1.21646
Nuclear contribution   :    -18.88361      20.78503      -1.17414
                        -----------------------------------------
Total Dipole Moment    :     -0.59425       0.25329       0.04232
                        -----------------------------------------
Magnitude (a.u.)       :      0.64736
Magnitude (Debye)      :      1.64546

Rotational constants in cm-1:     0.017328     0.008057     0.006805
Rotational constants in MHz :   519.489976   241.554249   203.998027

                             ****ORCA TERMINATED NORMALLY****
TOTAL RUN TIME: 0 days 0 hours 0 minutes 21 seconds 189 msec
