                         Program Version 4.2.1 -  RELEASE  -
|  1> ! wB97X-D3 SP def2-SVP
|  2> %pal
|  3> nprocs 24
|  4> end
|  5>
|  6> * xyz 0 1
|  7> S 	 43.1389 	 -18.3579 	 -114.042
|  8> C 	 42.8104 	 -16.7282 	 -113.494
|  9> C 	 43.45 	 -16.4457 	 -112.323
| 10> C 	 44.2002 	 -17.5787 	 -111.762
| 11> C 	 44.0034 	 -18.7656 	 -112.489
| 12> H 	 44.8614 	 -17.5134 	 -110.921
| 13> C 	 43.6897 	 -14.9871 	 -111.837
| 14> H 	 43.0924 	 -14.3325 	 -112.371
| 15> H 	 44.7178 	 -14.8053 	 -112.183
| 16> C 	 43.6873 	 -14.6798 	 -110.358
| 17> H 	 44.497 	 -15.2139 	 -109.844
| 18> H 	 43.8251 	 -13.6018 	 -110.261
| 19> C 	 42.5113 	 -15.2766 	 -109.571
| 20> H 	 42.6898 	 -15.1405 	 -108.469
| 21> H 	 41.5103 	 -14.8797 	 -109.747
| 22> H 	 42.3673 	 -16.3388 	 -109.601
| 23> S 	 44.7243 	 -21.0834 	 -113.755
| 24> C 	 45.5158 	 -22.3609 	 -112.899
| 25> C 	 45.4883 	 -22.1452 	 -111.575
| 26> C 	 44.9799 	 -20.8775 	 -111.27
| 27> C 	 44.63 	 -20.0736 	 -112.374
| 28> H 	 45.7934 	 -22.8999 	 -110.853
| 29> C 	 44.9507 	 -20.4889 	 -109.77
| 30> H 	 43.9987 	 -19.8776 	 -109.691
| 31> H 	 45.8136 	 -19.8177 	 -109.622
| 32> C 	 45.1114 	 -21.5571 	 -108.647
| 33> H 	 46.0628 	 -22.0558 	 -108.684
| 34> H 	 44.4303 	 -22.3894 	 -108.836
| 35> C 	 45.0169 	 -20.9526 	 -107.255
| 36> H 	 46.0003 	 -20.733 	 -106.917
| 37> H 	 44.6789 	 -21.8017 	 -106.665
| 38> H 	 44.3545 	 -20.1166 	 -107.108
| 39> H 	 42.3641 	 -15.9765 	 -114.147
| 40> H 	 45.7945 	 -23.2628 	 -113.408
| 41> *
| 42>
| 43>                          ****END OF INPUT****

CARTESIAN COORDINATES (ANGSTROEM)
---------------------------------
  S     43.138900  -18.357900  -114.042000
  C     42.810400  -16.728200  -113.494000
  C     43.450000  -16.445700  -112.323000
  C     44.200200  -17.578700  -111.762000
  C     44.003400  -18.765600  -112.489000
  H     44.861400  -17.513400  -110.921000
  C     43.689700  -14.987100  -111.837000
  H     43.092400  -14.332500  -112.371000
  H     44.717800  -14.805300  -112.183000
  C     43.687300  -14.679800  -110.358000
  H     44.497000  -15.213900  -109.844000
  H     43.825100  -13.601800  -110.261000
  C     42.511300  -15.276600  -109.571000
  H     42.689800  -15.140500  -108.469000
  H     41.510300  -14.879700  -109.747000
  H     42.367300  -16.338800  -109.601000
  S     44.724300  -21.083400  -113.755000
  C     45.515800  -22.360900  -112.899000
  C     45.488300  -22.145200  -111.575000
  C     44.979900  -20.877500  -111.270000
  C     44.630000  -20.073600  -112.374000
  H     45.793400  -22.899900  -110.853000
  C     44.950700  -20.488900  -109.770000
  H     43.998700  -19.877600  -109.691000
  H     45.813600  -19.817700  -109.622000
  C     45.111400  -21.557100  -108.647000
  H     46.062800  -22.055800  -108.684000
  H     44.430300  -22.389400  -108.836000
  C     45.016900  -20.952600  -107.255000
  H     46.000300  -20.733000  -106.917000
  H     44.678900  -21.801700  -106.665000
  H     44.354500  -20.116600  -107.108000
  H     42.364100  -15.976500  -114.147000
  H     45.794500  -23.262800  -113.408000

 Total Charge           Charge          ....    0
 Multiplicity           Mult            ....    1
 Number of Electrons    NEL             ....  134
 Basis Dimension        Dim             ....  322

ORBITAL ENERGIES
----------------

  NO   OCC          E(Eh)            E(eV)
   0   2.0000     -88.962913     -2420.8039
   1   2.0000     -88.961982     -2420.7786
   2   2.0000     -10.341560      -281.4081
   3   2.0000     -10.327234      -281.0183
   4   2.0000     -10.312759      -280.6244
   5   2.0000     -10.311970      -280.6030
   6   2.0000     -10.304884      -280.4102
   7   2.0000     -10.303620      -280.3758
   8   2.0000     -10.302266      -280.3389
   9   2.0000     -10.297949      -280.2214
  10   2.0000     -10.289871      -280.0016
  11   2.0000     -10.289736      -279.9979
  12   2.0000     -10.288664      -279.9688
  13   2.0000     -10.287525      -279.9378
  14   2.0000     -10.276341      -279.6334
  15   2.0000     -10.275197      -279.6023
  16   2.0000      -8.078994      -219.8406
  17   2.0000      -8.075982      -219.7586
  18   2.0000      -6.037432      -164.2869
  19   2.0000      -6.034730      -164.2134
  20   2.0000      -6.033323      -164.1751
  21   2.0000      -6.030825      -164.1071
  22   2.0000      -6.029738      -164.0775
  23   2.0000      -6.026305      -163.9841
  24   2.0000      -1.011948       -27.5365
  25   2.0000      -0.980275       -26.6746
  26   2.0000      -0.911026       -24.7903
  27   2.0000      -0.907522       -24.6949
  28   2.0000      -0.874693       -23.8016
  29   2.0000      -0.855581       -23.2815
  30   2.0000      -0.837270       -22.7833
  31   2.0000      -0.819527       -22.3005
  32   2.0000      -0.783570       -21.3220
  33   2.0000      -0.772472       -21.0200
  34   2.0000      -0.713011       -19.4020
  35   2.0000      -0.703319       -19.1383
  36   2.0000      -0.692666       -18.8484
  37   2.0000      -0.656061       -17.8523
  38   2.0000      -0.636361       -17.3163
  39   2.0000      -0.623930       -16.9780
  40   2.0000      -0.601219       -16.3600
  41   2.0000      -0.569735       -15.5033
  42   2.0000      -0.567505       -15.4426
  43   2.0000      -0.549101       -14.9418
  44   2.0000      -0.537569       -14.6280
  45   2.0000      -0.530508       -14.4359
  46   2.0000      -0.519393       -14.1334
  47   2.0000      -0.516075       -14.0431
  48   2.0000      -0.505503       -13.7554
  49   2.0000      -0.498768       -13.5722
  50   2.0000      -0.487926       -13.2771
  51   2.0000      -0.483878       -13.1670
  52   2.0000      -0.479743       -13.0545
  53   2.0000      -0.470421       -12.8008
  54   2.0000      -0.457497       -12.4491
  55   2.0000      -0.453008       -12.3270
  56   2.0000      -0.447129       -12.1670
  57   2.0000      -0.432119       -11.7585
  58   2.0000      -0.428054       -11.6479
  59   2.0000      -0.420533       -11.4433
  60   2.0000      -0.415792       -11.3143
  61   2.0000      -0.415647       -11.3103
  62   2.0000      -0.405934       -11.0460
  63   2.0000      -0.365006        -9.9323
  64   2.0000      -0.333925        -9.0866
  65   2.0000      -0.321383        -8.7453
  66   2.0000      -0.282179        -7.6785
  67   0.0000       0.017759         0.4833
  68   0.0000       0.080099         2.1796
  69   0.0000       0.101822         2.7707
  70   0.0000       0.121323         3.3014
  71   0.0000       0.133208         3.6248

MULLIKEN ATOMIC CHARGES
-----------------------
   0 S :    0.065198
   1 C :   -0.116018
   2 C :   -0.098808
   3 C :    0.005679
   4 C :   -0.116060
   5 H :    0.014922
   6 C :    0.093861
   7 H :    0.000743
   8 H :    0.041189
   9 C :   -0.054760
  10 H :    0.024975
  11 H :    0.039107
  12 C :   -0.076306
  13 H :    0.026987
  14 H :    0.027766
  15 H :    0.031766
  16 S :    0.088599
  17 C :   -0.067574
  18 C :   -0.034187
  19 C :   -0.055775
  20 C :   -0.113689
  21 H :    0.022636
  22 C :    0.003419
  23 H :    0.045884
  24 H :    0.045078
  25 C :   -0.097504
  26 H :    0.025385
  27 H :    0.030673
  28 C :   -0.005896
  29 H :    0.027568
  30 H :    0.029985
  31 H :    0.037737
  32 H :    0.057713
  33 H :    0.049708
Sum of atomic charges:   -0.0000000

LOEWDIN ATOMIC CHARGES
----------------------
   0 S :    0.359330
   1 C :   -0.197054
   2 C :   -0.060650
   3 C :   -0.061887
   4 C :   -0.155390
   5 H :    0.027331
   6 C :   -0.025480
   7 H :    0.016818
   8 H :    0.041092
   9 C :   -0.043245
  10 H :    0.027311
  11 H :    0.031195
  12 C :   -0.076041
  13 H :    0.030136
  14 H :    0.020513
  15 H :    0.024113
  16 S :    0.427777
  17 C :   -0.177974
  18 C :   -0.080353
  19 C :   -0.056373
  20 C :   -0.218624
  21 H :    0.036723
  22 C :   -0.041394
  23 H :    0.036828
  24 H :    0.033205
  25 C :   -0.045409
  26 H :    0.022841
  27 H :    0.019924
  28 C :   -0.055553
  29 H :    0.023043
  30 H :    0.033894
  31 H :    0.024785
  32 H :    0.032683
  33 H :    0.025888

  Mayer bond orders larger than 0.100000
B(  0-S ,  1-C ) :   1.1165 B(  0-S ,  4-C ) :   1.1206 B(  1-C ,  2-C ) :   1.6595
B(  1-C , 32-H ) :   0.9626 B(  2-C ,  3-C ) :   1.1971 B(  2-C ,  6-C ) :   1.0179
B(  3-C ,  4-C ) :   1.5862 B(  3-C ,  5-H ) :   0.9950 B(  4-C , 20-C ) :   1.1032
B(  6-C ,  7-H ) :   0.9429 B(  6-C ,  8-H ) :   0.9376 B(  6-C ,  9-C ) :   1.0776
B(  9-C , 10-H ) :   0.9507 B(  9-C , 11-H ) :   0.9547 B(  9-C , 12-C ) :   1.0758
B( 12-C , 13-H ) :   0.9758 B( 12-C , 14-H ) :   0.9773 B( 12-C , 15-H ) :   0.9692
B( 16-S , 17-C ) :   1.1824 B( 16-S , 20-C ) :   1.1396 B( 17-C , 18-C ) :   1.5550
B( 17-C , 33-H ) :   0.9684 B( 18-C , 19-C ) :   1.3019 B( 18-C , 21-H ) :   0.9904
B( 19-C , 20-C ) :   1.5345 B( 19-C , 22-C ) :   1.0169 B( 22-C , 23-H ) :   0.9351
B( 22-C , 24-H ) :   0.9397 B( 22-C , 25-C ) :   1.0766 B( 25-C , 26-H ) :   0.9430
B( 25-C , 27-H ) :   0.9621 B( 25-C , 28-C ) :   1.0708 B( 28-C , 29-H ) :   0.9779
B( 28-C , 30-H ) :   0.9703 B( 28-C , 31-H ) :   0.9792

Dispersion correction           -0.013561744
FINAL SINGLE POINT ENERGY     -1339.864517939394

DIPOLE MOMENT
-------------
                                X             Y             Z
Electronic contribution:     -0.90103     -10.34513     -29.55946
Nuclear contribution   :      1.25688      10.44532      30.22157
                        -----------------------------------------
Total Dipole Moment    :      0.35585       0.10019       0.66211
                        -----------------------------------------
Magnitude (a.u.)       :      0.75833
Magnitude (Debye)      :      1.92751

Rotational constants in cm-1:     0.016077     0.009449     0.006189
Rotational constants in MHz :   481.968911   283.263847   185.537787

                             ****ORCA TERMINATED NORMALLY****
TOTAL RUN TIME: 0 days 0 hours 0 minutes 21 seconds 374 msec
