                         Program Version 4.2.1 -  RELEASE  -
|  1> ! wB97X-D3 SP def2-SVP
|  2> %pal
|  3> nprocs 24
|  4> end
|  5>
|  6> * xyz 0 1
|  7> S 	 -92.8695 	 6.50629 	 -2.74542
|  8> C 	 -91.1702 	 6.34269 	 -3.12873
|  9> C 	 -90.3532 	 6.55477 	 -2.04187
| 10> C 	 -91.0617 	 6.83713 	 -0.858435
| 11> C 	 -92.3958 	 6.69941 	 -1.03006
| 12> H 	 -90.5911 	 6.97626 	 0.115329
| 13> C 	 -88.8271 	 6.41491 	 -2.0688
| 14> H 	 -88.275 	 7.18541 	 -1.51727
| 15> H 	 -88.4762 	 6.71436 	 -3.08663
| 16> C 	 -88.3327 	 4.99989 	 -1.57819
| 17> H 	 -88.6556 	 4.8466 	 -0.559038
| 18> H 	 -88.7483 	 4.28286 	 -2.20362
| 19> C 	 -86.8008 	 4.83284 	 -1.50359
| 20> H 	 -86.2892 	 5.16842 	 -2.36907
| 21> H 	 -86.4786 	 5.4471 	 -0.658119
| 22> H 	 -86.4976 	 3.78291 	 -1.36098
| 23> S 	 -94.4539 	 8.44184 	 -0.248013
| 24> C 	 -95.0372 	 8.48128 	 1.41105
| 25> C 	 -94.3768 	 7.43868 	 2.11911
| 26> C 	 -93.3812 	 6.78758 	 1.37274
| 27> C 	 -93.3333 	 7.09447 	 -0.000238464
| 28> H 	 -94.4035 	 7.26208 	 3.21601
| 29> C 	 -92.5055 	 5.73874 	 2.0353
| 30> H 	 -91.735 	 6.17184 	 2.68466
| 31> H 	 -92.1023 	 5.15819 	 1.23042
| 32> C 	 -93.3042 	 4.79385 	 2.90585
| 33> H 	 -93.5754 	 5.44627 	 3.71973
| 34> H 	 -92.6506 	 4.02835 	 3.38318
| 35> C 	 -94.4445 	 4.01332 	 2.26448
| 36> H 	 -95.1264 	 4.64295 	 1.68625
| 37> H 	 -95.0547 	 3.50899 	 3.04172
| 38> H 	 -94.029 	 3.325 	 1.46965
| 39> H 	 -90.761 	 6.13751 	 -4.15508
| 40> H 	 -95.6138 	 9.30653 	 1.79158
| 41> *
| 42>
| 43>                          ****END OF INPUT****

CARTESIAN COORDINATES (ANGSTROEM)
---------------------------------
  S    -92.869500    6.506290   -2.745420
  C    -91.170200    6.342690   -3.128730
  C    -90.353200    6.554770   -2.041870
  C    -91.061700    6.837130   -0.858435
  C    -92.395800    6.699410   -1.030060
  H    -90.591100    6.976260    0.115329
  C    -88.827100    6.414910   -2.068800
  H    -88.275000    7.185410   -1.517270
  H    -88.476200    6.714360   -3.086630
  C    -88.332700    4.999890   -1.578190
  H    -88.655600    4.846600   -0.559038
  H    -88.748300    4.282860   -2.203620
  C    -86.800800    4.832840   -1.503590
  H    -86.289200    5.168420   -2.369070
  H    -86.478600    5.447100   -0.658119
  H    -86.497600    3.782910   -1.360980
  S    -94.453900    8.441840   -0.248013
  C    -95.037200    8.481280    1.411050
  C    -94.376800    7.438680    2.119110
  C    -93.381200    6.787580    1.372740
  C    -93.333300    7.094470   -0.000238
  H    -94.403500    7.262080    3.216010
  C    -92.505500    5.738740    2.035300
  H    -91.735000    6.171840    2.684660
  H    -92.102300    5.158190    1.230420
  C    -93.304200    4.793850    2.905850
  H    -93.575400    5.446270    3.719730
  H    -92.650600    4.028350    3.383180
  C    -94.444500    4.013320    2.264480
  H    -95.126400    4.642950    1.686250
  H    -95.054700    3.508990    3.041720
  H    -94.029000    3.325000    1.469650
  H    -90.761000    6.137510   -4.155080
  H    -95.613800    9.306530    1.791580

 Total Charge           Charge          ....    0
 Multiplicity           Mult            ....    1
 Number of Electrons    NEL             ....  134
 Basis Dimension        Dim             ....  322

ORBITAL ENERGIES
----------------

  NO   OCC          E(Eh)            E(eV)
   0   2.0000     -88.972226     -2421.0574
   1   2.0000     -88.964659     -2420.8514
   2   2.0000     -10.330626      -281.1106
   3   2.0000     -10.327902      -281.0365
   4   2.0000     -10.324737      -280.9504
   5   2.0000     -10.319542      -280.8090
   6   2.0000     -10.300688      -280.2960
   7   2.0000     -10.299159      -280.2544
   8   2.0000     -10.298881      -280.2468
   9   2.0000     -10.298216      -280.2287
  10   2.0000     -10.293231      -280.0931
  11   2.0000     -10.285583      -279.8849
  12   2.0000     -10.284724      -279.8616
  13   2.0000     -10.281924      -279.7854
  14   2.0000     -10.278427      -279.6902
  15   2.0000     -10.277705      -279.6706
  16   2.0000      -8.086263      -220.0384
  17   2.0000      -8.078797      -219.8352
  18   2.0000      -6.044821      -164.4879
  19   2.0000      -6.041100      -164.3867
  20   2.0000      -6.037246      -164.2818
  21   2.0000      -6.036775      -164.2690
  22   2.0000      -6.033188      -164.1714
  23   2.0000      -6.029831      -164.0800
  24   2.0000      -1.007664       -27.4199
  25   2.0000      -0.982955       -26.7476
  26   2.0000      -0.912752       -24.8372
  27   2.0000      -0.905550       -24.6413
  28   2.0000      -0.870997       -23.7010
  29   2.0000      -0.854863       -23.2620
  30   2.0000      -0.839771       -22.8513
  31   2.0000      -0.811823       -22.0908
  32   2.0000      -0.781847       -21.2751
  33   2.0000      -0.769976       -20.9521
  34   2.0000      -0.706467       -19.2239
  35   2.0000      -0.701000       -19.0752
  36   2.0000      -0.697046       -18.9676
  37   2.0000      -0.655128       -17.8270
  38   2.0000      -0.640097       -17.4179
  39   2.0000      -0.619915       -16.8687
  40   2.0000      -0.598039       -16.2735
  41   2.0000      -0.572293       -15.5729
  42   2.0000      -0.559506       -15.2249
  43   2.0000      -0.555689       -15.1211
  44   2.0000      -0.536236       -14.5917
  45   2.0000      -0.524988       -14.2856
  46   2.0000      -0.519656       -14.1406
  47   2.0000      -0.508452       -13.8357
  48   2.0000      -0.504402       -13.7255
  49   2.0000      -0.497484       -13.5372
  50   2.0000      -0.494350       -13.4519
  51   2.0000      -0.478602       -13.0234
  52   2.0000      -0.466751       -12.7009
  53   2.0000      -0.464724       -12.6458
  54   2.0000      -0.458019       -12.4633
  55   2.0000      -0.449572       -12.2335
  56   2.0000      -0.438944       -11.9443
  57   2.0000      -0.435609       -11.8535
  58   2.0000      -0.434389       -11.8203
  59   2.0000      -0.429495       -11.6872
  60   2.0000      -0.421808       -11.4780
  61   2.0000      -0.414293       -11.2735
  62   2.0000      -0.403545       -10.9810
  63   2.0000      -0.353234        -9.6120
  64   2.0000      -0.333755        -9.0819
  65   2.0000      -0.329441        -8.9645
  66   2.0000      -0.288777        -7.8580
  67   0.0000       0.026061         0.7091
  68   0.0000       0.062461         1.6996
  69   0.0000       0.105518         2.8713
  70   0.0000       0.121540         3.3073
  71   0.0000       0.132694         3.6108

MULLIKEN ATOMIC CHARGES
-----------------------
   0 S :    0.113422
   1 C :   -0.129901
   2 C :   -0.073499
   3 C :    0.028885
   4 C :   -0.154096
   5 H :    0.028723
   6 C :    0.033486
   7 H :    0.018369
   8 H :    0.017764
   9 C :   -0.039597
  10 H :    0.026571
  11 H :    0.018239
  12 C :   -0.042044
  13 H :    0.021583
  14 H :    0.029446
  15 H :    0.040394
  16 S :    0.095156
  17 C :   -0.104286
  18 C :   -0.025396
  19 C :   -0.108392
  20 C :   -0.122791
  21 H :    0.034468
  22 C :    0.097601
  23 H :    0.040142
  24 H :    0.017665
  25 C :   -0.103921
  26 H :    0.010314
  27 H :    0.029923
  28 C :   -0.055253
  29 H :    0.038321
  30 H :    0.045354
  31 H :    0.040322
  32 H :    0.062894
  33 H :    0.070135
Sum of atomic charges:    0.0000000

LOEWDIN ATOMIC CHARGES
----------------------
   0 S :    0.391159
   1 C :   -0.198219
   2 C :   -0.067035
   3 C :   -0.048139
   4 C :   -0.181563
   5 H :    0.039380
   6 C :   -0.036351
   7 H :    0.027651
   8 H :    0.030099
   9 C :   -0.028653
  10 H :    0.024501
  11 H :    0.013671
  12 C :   -0.063081
  13 H :    0.016562
  14 H :    0.025963
  15 H :    0.030952
  16 S :    0.402441
  17 C :   -0.184131
  18 C :   -0.077661
  19 C :   -0.066204
  20 C :   -0.196879
  21 H :    0.036550
  22 C :   -0.031482
  23 H :    0.034811
  24 H :    0.023746
  25 C :   -0.049423
  26 H :    0.013651
  27 H :    0.028084
  28 C :   -0.071597
  29 H :    0.024950
  30 H :    0.032404
  31 H :    0.034043
  32 H :    0.039102
  33 H :    0.030695

  Mayer bond orders larger than 0.100000
B(  0-S ,  1-C ) :   1.1282 B(  0-S ,  4-C ) :   1.1307 B(  1-C ,  2-C ) :   1.6335
B(  1-C , 32-H ) :   0.9574 B(  2-C ,  3-C ) :   1.2416 B(  2-C ,  6-C ) :   1.0274
B(  3-C ,  4-C ) :   1.5771 B(  3-C ,  5-H ) :   0.9903 B(  4-C , 20-C ) :   1.0497
B(  6-C ,  7-H ) :   0.9447 B(  6-C ,  8-H ) :   0.9402 B(  6-C ,  9-C ) :   1.0478
B(  9-C , 10-H ) :   0.9602 B(  9-C , 11-H ) :   0.9597 B(  9-C , 12-C ) :   1.0795
B( 12-C , 13-H ) :   0.9772 B( 12-C , 14-H ) :   0.9770 B( 12-C , 15-H ) :   0.9750
B( 16-S , 17-C ) :   1.1827 B( 16-S , 20-C ) :   1.1445 B( 17-C , 18-C ) :   1.5213
B( 17-C , 20-C ) :   0.1136 B( 17-C , 33-H ) :   0.9731 B( 18-C , 19-C ) :   1.3152
B( 18-C , 21-H ) :   0.9775 B( 19-C , 20-C ) :   1.5534 B( 19-C , 22-C ) :   1.0341
B( 22-C , 23-H ) :   0.9300 B( 22-C , 24-H ) :   0.9333 B( 22-C , 25-C ) :   1.0806
B( 25-C , 26-H ) :   0.9493 B( 25-C , 27-H ) :   0.9515 B( 25-C , 28-C ) :   1.0764
B( 28-C , 29-H ) :   0.9721 B( 28-C , 30-H ) :   0.9726 B( 28-C , 31-H ) :   0.9715

Dispersion correction           -0.014254762
FINAL SINGLE POINT ENERGY     -1339.876061353083

DIPOLE MOMENT
-------------
                                X             Y             Z
Electronic contribution:    -19.18007      16.26311     -11.84594
Nuclear contribution   :     19.83914     -16.37581      12.21388
                        -----------------------------------------
Total Dipole Moment    :      0.65907      -0.11270       0.36794
                        -----------------------------------------
Magnitude (a.u.)       :      0.76319
Magnitude (Debye)      :      1.93986

Rotational constants in cm-1:     0.019089     0.008310     0.006652
Rotational constants in MHz :   572.278795   249.136255   199.431668

                             ****ORCA TERMINATED NORMALLY****
TOTAL RUN TIME: 0 days 0 hours 0 minutes 20 seconds 433 msec
