                         Program Version 4.2.1 -  RELEASE  -
|  1> ! wB97X-D3 SP def2-SVP
|  2> %pal
|  3> nprocs 24
|  4> end
|  5>
|  6> * xyz 0 1
|  7> S 	 -41.993 	 -49.9974 	 -69.7418
|  8> C 	 -40.6105 	 -49.041 	 -69.1471
|  9> C 	 -39.5523 	 -49.922 	 -68.8284
| 10> C 	 -39.8382 	 -51.2935 	 -69.2345
| 11> C 	 -41.1089 	 -51.5028 	 -69.8329
| 12> H 	 -39.2105 	 -52.1339 	 -69.2394
| 13> C 	 -38.3226 	 -49.5371 	 -68.1095
| 14> H 	 -38.168 	 -48.5201 	 -68.0704
| 15> H 	 -37.4081 	 -49.9332 	 -68.5947
| 16> C 	 -38.3841 	 -49.9912 	 -66.6738
| 17> H 	 -38.6272 	 -51.074 	 -66.7724
| 18> H 	 -37.4455 	 -49.9208 	 -66.1664
| 19> C 	 -39.4377 	 -49.2226 	 -65.8261
| 20> H 	 -40.4833 	 -49.1536 	 -66.2388
| 21> H 	 -39.4892 	 -49.6321 	 -64.8158
| 22> H 	 -39.1625 	 -48.1784 	 -65.7577
| 23> S 	 -42.5057 	 -52.7117 	 -71.7879
| 24> C 	 -42.4972 	 -54.4193 	 -71.9427
| 25> C 	 -42.0161 	 -55.0564 	 -70.8258
| 26> C 	 -41.3522 	 -54.1062 	 -69.9618
| 27> C 	 -41.6694 	 -52.777 	 -70.3108
| 28> H 	 -41.9936 	 -56.1406 	 -70.6378
| 29> C 	 -40.6032 	 -54.7002 	 -68.7359
| 30> H 	 -41.3078 	 -55.3855 	 -68.211
| 31> H 	 -40.467 	 -53.9096 	 -67.9827
| 32> C 	 -39.2592 	 -55.3658 	 -69.0489
| 33> H 	 -38.6028 	 -54.5765 	 -69.4794
| 34> H 	 -39.2912 	 -56.151 	 -69.7397
| 35> C 	 -38.6114 	 -56.1726 	 -67.8946
| 36> H 	 -37.6148 	 -56.46 	 -68.0764
| 37> H 	 -39.1128 	 -57.0964 	 -67.7351
| 38> H 	 -38.5771 	 -55.5692 	 -66.9351
| 39> H 	 -40.7435 	 -48.071 	 -68.6435
| 40> H 	 -42.9511 	 -54.8832 	 -72.8002
| 41> *
| 42>
| 43>                          ****END OF INPUT****

CARTESIAN COORDINATES (ANGSTROEM)
---------------------------------
  S    -41.993000  -49.997400  -69.741800
  C    -40.610500  -49.041000  -69.147100
  C    -39.552300  -49.922000  -68.828400
  C    -39.838200  -51.293500  -69.234500
  C    -41.108900  -51.502800  -69.832900
  H    -39.210500  -52.133900  -69.239400
  C    -38.322600  -49.537100  -68.109500
  H    -38.168000  -48.520100  -68.070400
  H    -37.408100  -49.933200  -68.594700
  C    -38.384100  -49.991200  -66.673800
  H    -38.627200  -51.074000  -66.772400
  H    -37.445500  -49.920800  -66.166400
  C    -39.437700  -49.222600  -65.826100
  H    -40.483300  -49.153600  -66.238800
  H    -39.489200  -49.632100  -64.815800
  H    -39.162500  -48.178400  -65.757700
  S    -42.505700  -52.711700  -71.787900
  C    -42.497200  -54.419300  -71.942700
  C    -42.016100  -55.056400  -70.825800
  C    -41.352200  -54.106200  -69.961800
  C    -41.669400  -52.777000  -70.310800
  H    -41.993600  -56.140600  -70.637800
  C    -40.603200  -54.700200  -68.735900
  H    -41.307800  -55.385500  -68.211000
  H    -40.467000  -53.909600  -67.982700
  C    -39.259200  -55.365800  -69.048900
  H    -38.602800  -54.576500  -69.479400
  H    -39.291200  -56.151000  -69.739700
  C    -38.611400  -56.172600  -67.894600
  H    -37.614800  -56.460000  -68.076400
  H    -39.112800  -57.096400  -67.735100
  H    -38.577100  -55.569200  -66.935100
  H    -40.743500  -48.071000  -68.643500
  H    -42.951100  -54.883200  -72.800200

 Total Charge           Charge          ....    0
 Multiplicity           Mult            ....    1
 Number of Electrons    NEL             ....  134
 Basis Dimension        Dim             ....  322

ORBITAL ENERGIES
----------------

  NO   OCC          E(Eh)            E(eV)
   0   2.0000     -88.967888     -2420.9393
   1   2.0000     -88.964833     -2420.8562
   2   2.0000     -10.336746      -281.2772
   3   2.0000     -10.330739      -281.1137
   4   2.0000     -10.318530      -280.7815
   5   2.0000     -10.317268      -280.7471
   6   2.0000     -10.311746      -280.5969
   7   2.0000     -10.308500      -280.5085
   8   2.0000     -10.301239      -280.3110
   9   2.0000     -10.299340      -280.2593
  10   2.0000     -10.294764      -280.1348
  11   2.0000     -10.289572      -279.9935
  12   2.0000     -10.286045      -279.8975
  13   2.0000     -10.282887      -279.8116
  14   2.0000     -10.279660      -279.7238
  15   2.0000     -10.279481      -279.7189
  16   2.0000      -8.084471      -219.9896
  17   2.0000      -8.078914      -219.8384
  18   2.0000      -6.042832      -164.4338
  19   2.0000      -6.038685      -164.3210
  20   2.0000      -6.037560      -164.2904
  21   2.0000      -6.035292      -164.2286
  22   2.0000      -6.033411      -164.1775
  23   2.0000      -6.029663      -164.0755
  24   2.0000      -1.011894       -27.5350
  25   2.0000      -0.981275       -26.7019
  26   2.0000      -0.919571       -25.0228
  27   2.0000      -0.909019       -24.7357
  28   2.0000      -0.867907       -23.6169
  29   2.0000      -0.855021       -23.2663
  30   2.0000      -0.838080       -22.8053
  31   2.0000      -0.812406       -22.1067
  32   2.0000      -0.785460       -21.3734
  33   2.0000      -0.776596       -21.1322
  34   2.0000      -0.709179       -19.2978
  35   2.0000      -0.700170       -19.0526
  36   2.0000      -0.690545       -18.7907
  37   2.0000      -0.665857       -18.1189
  38   2.0000      -0.641780       -17.4637
  39   2.0000      -0.620517       -16.8851
  40   2.0000      -0.602860       -16.4046
  41   2.0000      -0.573316       -15.6007
  42   2.0000      -0.566216       -15.4075
  43   2.0000      -0.548064       -14.9136
  44   2.0000      -0.540156       -14.6984
  45   2.0000      -0.525812       -14.3081
  46   2.0000      -0.521237       -14.1836
  47   2.0000      -0.516228       -14.0473
  48   2.0000      -0.503049       -13.6887
  49   2.0000      -0.498946       -13.5770
  50   2.0000      -0.489356       -13.3160
  51   2.0000      -0.481669       -13.1069
  52   2.0000      -0.467280       -12.7153
  53   2.0000      -0.466687       -12.6992
  54   2.0000      -0.459711       -12.5094
  55   2.0000      -0.457107       -12.4385
  56   2.0000      -0.442087       -12.0298
  57   2.0000      -0.436786       -11.8855
  58   2.0000      -0.434336       -11.8189
  59   2.0000      -0.428879       -11.6704
  60   2.0000      -0.420329       -11.4377
  61   2.0000      -0.413923       -11.2634
  62   2.0000      -0.412566       -11.2265
  63   2.0000      -0.356557        -9.7024
  64   2.0000      -0.332156        -9.0384
  65   2.0000      -0.325366        -8.8537
  66   2.0000      -0.288182        -7.8418
  67   0.0000       0.024493         0.6665
  68   0.0000       0.072642         1.9767
  69   0.0000       0.104586         2.8459
  70   0.0000       0.119430         3.2499
  71   0.0000       0.122649         3.3374

MULLIKEN ATOMIC CHARGES
-----------------------
   0 S :    0.087322
   1 C :   -0.113725
   2 C :   -0.113816
   3 C :    0.035002
   4 C :   -0.130618
   5 H :   -0.021065
   6 C :    0.110017
   7 H :   -0.010006
   8 H :    0.034686
   9 C :   -0.070729
  10 H :    0.027921
  11 H :    0.027801
  12 C :   -0.076458
  13 H :    0.046887
  14 H :    0.041010
  15 H :    0.019646
  16 S :    0.119942
  17 C :   -0.092063
  18 C :   -0.010269
  19 C :   -0.081689
  20 C :   -0.113473
  21 H :    0.033010
  22 C :    0.023845
  23 H :    0.034740
  24 H :    0.027417
  25 C :   -0.055047
  26 H :    0.038277
  27 H :    0.014864
  28 C :   -0.044084
  29 H :    0.023446
  30 H :    0.026991
  31 H :    0.032742
  32 H :    0.069840
  33 H :    0.057635
Sum of atomic charges:   -0.0000000

LOEWDIN ATOMIC CHARGES
----------------------
   0 S :    0.389427
   1 C :   -0.206734
   2 C :   -0.047394
   3 C :   -0.068561
   4 C :   -0.186244
   5 H :    0.017363
   6 C :   -0.032963
   7 H :    0.016304
   8 H :    0.038028
   9 C :   -0.035228
  10 H :    0.024718
  11 H :    0.020970
  12 C :   -0.071975
  13 H :    0.031632
  14 H :    0.028190
  15 H :    0.020267
  16 S :    0.450618
  17 C :   -0.188980
  18 C :   -0.067505
  19 C :   -0.050739
  20 C :   -0.221808
  21 H :    0.037636
  22 C :   -0.036587
  23 H :    0.035166
  24 H :    0.029789
  25 C :   -0.040761
  26 H :    0.027531
  27 H :    0.017294
  28 C :   -0.060705
  29 H :    0.021557
  30 H :    0.021396
  31 H :    0.027969
  32 H :    0.034980
  33 H :    0.025349

  Mayer bond orders larger than 0.100000
B(  0-S ,  1-C ) :   1.1224 B(  0-S ,  4-C ) :   1.1642 B(  1-C ,  2-C ) :   1.5957
B(  1-C , 32-H ) :   0.9592 B(  2-C ,  3-C ) :   1.2347 B(  2-C ,  6-C ) :   1.0543
B(  3-C ,  4-C ) :   1.5627 B(  3-C ,  5-H ) :   0.9956 B(  4-C , 20-C ) :   1.0236
B(  6-C ,  7-H ) :   0.9342 B(  6-C ,  8-H ) :   0.9340 B(  6-C ,  9-C ) :   1.0678
B(  9-C , 10-H ) :   0.9579 B(  9-C , 11-H ) :   0.9551 B(  9-C , 12-C ) :   1.0669
B( 12-C , 13-H ) :   0.9748 B( 12-C , 14-H ) :   0.9745 B( 12-C , 15-H ) :   0.9735
B( 16-S , 17-C ) :   1.1842 B( 16-S , 20-C ) :   1.1546 B( 17-C , 18-C ) :   1.5713
B( 17-C , 33-H ) :   0.9703 B( 18-C , 19-C ) :   1.2583 B( 18-C , 21-H ) :   0.9869
B( 19-C , 20-C ) :   1.5787 B( 19-C , 22-C ) :   1.0324 B( 22-C , 23-H ) :   0.9447
B( 22-C , 24-H ) :   0.9395 B( 22-C , 25-C ) :   1.0549 B( 25-C , 26-H ) :   0.9529
B( 25-C , 27-H ) :   0.9573 B( 25-C , 28-C ) :   1.0765 B( 28-C , 29-H ) :   0.9735
B( 28-C , 30-H ) :   0.9764 B( 28-C , 31-H ) :   0.9757

Dispersion correction           -0.014490645
FINAL SINGLE POINT ENERGY     -1339.870418942102

DIPOLE MOMENT
-------------
                                X             Y             Z
Electronic contribution:    -20.10385       7.55043     -21.63826
Nuclear contribution   :     20.59028      -8.08701      22.02517
                        -----------------------------------------
Total Dipole Moment    :      0.48643      -0.53658       0.38692
                        -----------------------------------------
Magnitude (a.u.)       :      0.82112
Magnitude (Debye)      :      2.08712

Rotational constants in cm-1:     0.016951     0.009714     0.006588
Rotational constants in MHz :   508.180200   291.209252   197.512217

                             ****ORCA TERMINATED NORMALLY****
TOTAL RUN TIME: 0 days 0 hours 0 minutes 21 seconds 897 msec
