                         Program Version 4.2.1 -  RELEASE  -
|  1> ! wB97X-D3 SP def2-SVP
|  2> %pal
|  3> nprocs 24
|  4> end
|  5>
|  6> * xyz 0 1
|  7> S 	 -134.141 	 30.2862 	 -19.7763
|  8> C 	 -133.514 	 28.9476 	 -18.7729
|  9> C 	 -133.446 	 27.7933 	 -19.5877
| 10> C 	 -133.856 	 28.0744 	 -20.9396
| 11> C 	 -134.372 	 29.3258 	 -21.1458
| 12> H 	 -133.93 	 27.3307 	 -21.6918
| 13> C 	 -132.986 	 26.4409 	 -19.2776
| 14> H 	 -133.753 	 25.7308 	 -19.7483
| 15> H 	 -133.079 	 26.304 	 -18.222
| 16> C 	 -131.593 	 26.0443 	 -19.7509
| 17> H 	 -131.5 	 24.9776 	 -19.9154
| 18> H 	 -131.577 	 26.3626 	 -20.8177
| 19> C 	 -130.411 	 26.509 	 -18.8609
| 20> H 	 -129.666 	 25.7366 	 -18.7742
| 21> H 	 -129.883 	 27.4357 	 -19.0672
| 22> H 	 -130.847 	 26.6493 	 -17.9427
| 23> S 	 -136.414 	 29.3391 	 -22.9497
| 24> C 	 -136.388 	 30.36 	 -24.3402
| 25> C 	 -135.338 	 31.2147 	 -24.3282
| 26> C 	 -134.506 	 30.9921 	 -23.1751
| 27> C 	 -134.901 	 29.8898 	 -22.3912
| 28> H 	 -135.33 	 31.7899 	 -25.2364
| 29> C 	 -133.293 	 31.8541 	 -22.9451
| 30> H 	 -133.562 	 32.3338 	 -21.9803
| 31> H 	 -133.458 	 32.7458 	 -23.5295
| 32> C 	 -131.91 	 31.1373 	 -23.0603
| 33> H 	 -131.899 	 30.3105 	 -23.7606
| 34> H 	 -131.615 	 30.5263 	 -22.1722
| 35> C 	 -130.914 	 32.2327 	 -23.4452
| 36> H 	 -129.856 	 31.9917 	 -23.4492
| 37> H 	 -130.997 	 33.1937 	 -22.9539
| 38> H 	 -130.965 	 32.403 	 -24.4982
| 39> H 	 -133.307 	 29.0228 	 -17.7631
| 40> H 	 -136.997 	 30.2846 	 -25.1596
| 41> *
| 42>
| 43>                          ****END OF INPUT****

CARTESIAN COORDINATES (ANGSTROEM)
---------------------------------
  S    -134.141000   30.286200  -19.776300
  C    -133.514000   28.947600  -18.772900
  C    -133.446000   27.793300  -19.587700
  C    -133.856000   28.074400  -20.939600
  C    -134.372000   29.325800  -21.145800
  H    -133.930000   27.330700  -21.691800
  C    -132.986000   26.440900  -19.277600
  H    -133.753000   25.730800  -19.748300
  H    -133.079000   26.304000  -18.222000
  C    -131.593000   26.044300  -19.750900
  H    -131.500000   24.977600  -19.915400
  H    -131.577000   26.362600  -20.817700
  C    -130.411000   26.509000  -18.860900
  H    -129.666000   25.736600  -18.774200
  H    -129.883000   27.435700  -19.067200
  H    -130.847000   26.649300  -17.942700
  S    -136.414000   29.339100  -22.949700
  C    -136.388000   30.360000  -24.340200
  C    -135.338000   31.214700  -24.328200
  C    -134.506000   30.992100  -23.175100
  C    -134.901000   29.889800  -22.391200
  H    -135.330000   31.789900  -25.236400
  C    -133.293000   31.854100  -22.945100
  H    -133.562000   32.333800  -21.980300
  H    -133.458000   32.745800  -23.529500
  C    -131.910000   31.137300  -23.060300
  H    -131.899000   30.310500  -23.760600
  H    -131.615000   30.526300  -22.172200
  C    -130.914000   32.232700  -23.445200
  H    -129.856000   31.991700  -23.449200
  H    -130.997000   33.193700  -22.953900
  H    -130.965000   32.403000  -24.498200
  H    -133.307000   29.022800  -17.763100
  H    -136.997000   30.284600  -25.159600

 Total Charge           Charge          ....    0
 Multiplicity           Mult            ....    1
 Number of Electrons    NEL             ....  134
 Basis Dimension        Dim             ....  322

ORBITAL ENERGIES
----------------

  NO   OCC          E(Eh)            E(eV)
   0   2.0000     -88.964606     -2420.8500
   1   2.0000     -88.961110     -2420.7549
   2   2.0000     -10.325673      -280.9759
   3   2.0000     -10.322910      -280.9007
   4   2.0000     -10.317171      -280.7445
   5   2.0000     -10.304096      -280.3887
   6   2.0000     -10.303318      -280.3675
   7   2.0000     -10.302363      -280.3415
   8   2.0000     -10.291563      -280.0477
   9   2.0000     -10.290150      -280.0092
  10   2.0000     -10.289424      -279.9895
  11   2.0000     -10.288054      -279.9522
  12   2.0000     -10.288013      -279.9511
  13   2.0000     -10.287882      -279.9475
  14   2.0000     -10.271417      -279.4995
  15   2.0000     -10.269851      -279.4569
  16   2.0000      -8.079644      -219.8583
  17   2.0000      -8.077151      -219.7905
  18   2.0000      -6.038201      -164.3078
  19   2.0000      -6.035505      -164.2344
  20   2.0000      -6.033898      -164.1907
  21   2.0000      -6.031317      -164.1205
  22   2.0000      -6.030539      -164.0993
  23   2.0000      -6.028164      -164.0347
  24   2.0000      -1.012016       -27.5384
  25   2.0000      -0.988884       -26.9089
  26   2.0000      -0.918310       -24.9885
  27   2.0000      -0.903501       -24.5855
  28   2.0000      -0.872039       -23.7294
  29   2.0000      -0.851278       -23.1644
  30   2.0000      -0.845127       -22.9971
  31   2.0000      -0.820687       -22.3320
  32   2.0000      -0.786541       -21.4029
  33   2.0000      -0.768776       -20.9195
  34   2.0000      -0.718301       -19.5460
  35   2.0000      -0.710680       -19.3386
  36   2.0000      -0.698625       -19.0105
  37   2.0000      -0.661436       -17.9986
  38   2.0000      -0.642754       -17.4902
  39   2.0000      -0.626791       -17.0558
  40   2.0000      -0.589536       -16.0421
  41   2.0000      -0.575027       -15.6473
  42   2.0000      -0.557230       -15.1630
  43   2.0000      -0.546551       -14.8724
  44   2.0000      -0.538504       -14.6534
  45   2.0000      -0.529623       -14.4118
  46   2.0000      -0.520800       -14.1717
  47   2.0000      -0.518706       -14.1147
  48   2.0000      -0.509104       -13.8534
  49   2.0000      -0.498303       -13.5595
  50   2.0000      -0.494886       -13.4665
  51   2.0000      -0.477692       -12.9987
  52   2.0000      -0.471117       -12.8198
  53   2.0000      -0.465297       -12.6614
  54   2.0000      -0.457654       -12.4534
  55   2.0000      -0.451167       -12.2769
  56   2.0000      -0.442824       -12.0499
  57   2.0000      -0.437793       -11.9130
  58   2.0000      -0.435255       -11.8439
  59   2.0000      -0.422696       -11.5021
  60   2.0000      -0.416944       -11.3456
  61   2.0000      -0.410678       -11.1751
  62   2.0000      -0.399214       -10.8632
  63   2.0000      -0.341415        -9.2904
  64   2.0000      -0.328473        -8.9382
  65   2.0000      -0.323392        -8.7999
  66   2.0000      -0.300443        -8.1755
  67   0.0000       0.037201         1.0123
  68   0.0000       0.070458         1.9173
  69   0.0000       0.115068         3.1312
  70   0.0000       0.121751         3.3130
  71   0.0000       0.124961         3.4003

MULLIKEN ATOMIC CHARGES
-----------------------
   0 S :    0.111636
   1 C :   -0.102961
   2 C :   -0.067768
   3 C :    0.032076
   4 C :   -0.140596
   5 H :   -0.003643
   6 C :    0.028606
   7 H :    0.042778
   8 H :    0.012209
   9 C :   -0.064376
  10 H :    0.023667
  11 H :    0.019826
  12 C :    0.009414
  13 H :    0.028110
  14 H :    0.040158
  15 H :   -0.004835
  16 S :    0.116153
  17 C :   -0.066078
  18 C :   -0.043575
  19 C :   -0.073638
  20 C :   -0.149504
  21 H :    0.016794
  22 C :    0.093032
  23 H :    0.028282
  24 H :    0.003674
  25 C :   -0.019699
  26 H :    0.026434
  27 H :    0.042838
  28 C :   -0.049707
  29 H :    0.015169
  30 H :    0.037685
  31 H :    0.017926
  32 H :    0.022332
  33 H :    0.017580
Sum of atomic charges:   -0.0000000

LOEWDIN ATOMIC CHARGES
----------------------
   0 S :    0.427200
   1 C :   -0.180320
   2 C :   -0.056637
   3 C :   -0.062435
   4 C :   -0.213516
   5 H :    0.023040
   6 C :   -0.041509
   7 H :    0.045830
   8 H :    0.022200
   9 C :   -0.041657
  10 H :    0.025847
  11 H :    0.026795
  12 C :   -0.057644
  13 H :    0.027544
  14 H :    0.030184
  15 H :    0.013262
  16 S :    0.436281
  17 C :   -0.180372
  18 C :   -0.076227
  19 C :   -0.054761
  20 C :   -0.223353
  21 H :    0.037286
  22 C :   -0.041078
  23 H :    0.036865
  24 H :    0.029475
  25 C :   -0.036399
  26 H :    0.026062
  27 H :    0.032928
  28 C :   -0.072657
  29 H :    0.023407
  30 H :    0.025810
  31 H :    0.024404
  32 H :    0.012828
  33 H :    0.011316

  Mayer bond orders larger than 0.100000
B(  0-S ,  1-C ) :   1.1363 B(  0-S ,  4-C ) :   1.1715 B(  1-C ,  2-C ) :   1.5701
B(  1-C , 32-H ) :   0.9873 B(  2-C ,  3-C ) :   1.2424 B(  2-C ,  6-C ) :   1.0459
B(  3-C ,  4-C ) :   1.5758 B(  3-C ,  5-H ) :   0.9958 B(  4-C , 20-C ) :   0.9998
B(  6-C ,  7-H ) :   0.9327 B(  6-C ,  8-H ) :   0.9373 B(  6-C ,  9-C ) :   1.0836
B(  9-C , 10-H ) :   0.9564 B(  9-C , 11-H ) :   0.9513 B(  9-C , 12-C ) :   1.0521
B( 12-C , 13-H ) :   0.9772 B( 12-C , 14-H ) :   0.9754 B( 12-C , 15-H ) :   0.9751
B( 16-S , 17-C ) :   1.1686 B( 16-S , 20-C ) :   1.1659 B( 17-C , 18-C ) :   1.6245
B( 17-C , 33-H ) :   0.9715 B( 18-C , 19-C ) :   1.2240 B( 18-C , 21-H ) :   0.9989
B( 19-C , 20-C ) :   1.5684 B( 19-C , 22-C ) :   1.0447 B( 22-C , 23-H ) :   0.9142
B( 22-C , 24-H ) :   0.9378 B( 22-C , 25-C ) :   1.0225 B( 25-C , 26-H ) :   0.9646
B( 25-C , 27-H ) :   0.9532 B( 25-C , 28-C ) :   1.0718 B( 28-C , 29-H ) :   0.9710
B( 28-C , 30-H ) :   0.9776 B( 28-C , 31-H ) :   0.9735

Dispersion correction           -0.014612679
FINAL SINGLE POINT ENERGY     -1339.847715911858

DIPOLE MOMENT
-------------
                                X             Y             Z
Electronic contribution:    -24.17818       4.52042      -0.67780
Nuclear contribution   :     24.58030      -4.71242       0.50215
                        -----------------------------------------
Total Dipole Moment    :      0.40211      -0.19200      -0.17564
                        -----------------------------------------
Magnitude (a.u.)       :      0.47897
Magnitude (Debye)      :      1.21744

Rotational constants in cm-1:     0.018952     0.008685     0.007168
Rotational constants in MHz :   568.164812   260.372424   214.905782

                             ****ORCA TERMINATED NORMALLY****
TOTAL RUN TIME: 0 days 0 hours 0 minutes 21 seconds 749 msec
