                         Program Version 4.2.1 -  RELEASE  -
|  1> ! wB97X-D3 SP def2-SVP
|  2> %pal
|  3> nprocs 24
|  4> end
|  5>
|  6> * xyz 0 1
|  7> S 	 -144.335 	 2.49409 	 14.8384
|  8> C 	 -143.266 	 1.5692 	 13.7728
|  9> C 	 -142.196 	 2.21849 	 13.3106
| 10> C 	 -142.353 	 3.6044 	 13.5762
| 11> C 	 -143.402 	 3.93482 	 14.4127
| 12> H 	 -141.691 	 4.42158 	 13.2697
| 13> C 	 -141.014 	 1.53497 	 12.5125
| 14> H 	 -140.398 	 2.29268 	 12.0595
| 15> H 	 -141.531 	 1.04487 	 11.6716
| 16> C 	 -140.092 	 0.581973 	 13.3081
| 17> H 	 -139.552 	 1.14124 	 14.0506
| 18> H 	 -140.844 	 -0.0513278 	 13.8148
| 19> C 	 -139.128 	 -0.208391 	 12.4484
| 20> H 	 -138.66 	 0.510331 	 11.7261
| 21> H 	 -138.433 	 -0.821236 	 13.1337
| 22> H 	 -139.634 	 -0.940677 	 11.8721
| 23> S 	 -142.97 	 6.05271 	 16.146
| 24> C 	 -144.066 	 7.38238 	 16.1796
| 25> C 	 -145.146 	 7.14638 	 15.421
| 26> C 	 -145.008 	 5.98194 	 14.6101
| 27> C 	 -143.803 	 5.32199 	 14.8201
| 28> H 	 -145.99 	 7.85931 	 15.3744
| 29> C 	 -146.108 	 5.53476 	 13.6693
| 30> H 	 -147.079 	 5.87726 	 14.0521
| 31> H 	 -146.244 	 4.42219 	 13.5492
| 32> C 	 -146.098 	 6.08943 	 12.2729
| 33> H 	 -145.29 	 5.69218 	 11.7234
| 34> H 	 -145.986 	 7.11353 	 12.2258
| 35> C 	 -147.4 	 5.86304 	 11.6477
| 36> H 	 -148.107 	 6.43297 	 12.1443
| 37> H 	 -147.858 	 4.86303 	 11.685
| 38> H 	 -147.478 	 6.06715 	 10.5522
| 39> H 	 -143.287 	 0.48171 	 13.6147
| 40> H 	 -144.111 	 8.05572 	 17.031
| 41> *
| 42>
| 43>                          ****END OF INPUT****

CARTESIAN COORDINATES (ANGSTROEM)
---------------------------------
  S    -144.335000    2.494090   14.838400
  C    -143.266000    1.569200   13.772800
  C    -142.196000    2.218490   13.310600
  C    -142.353000    3.604400   13.576200
  C    -143.402000    3.934820   14.412700
  H    -141.691000    4.421580   13.269700
  C    -141.014000    1.534970   12.512500
  H    -140.398000    2.292680   12.059500
  H    -141.531000    1.044870   11.671600
  C    -140.092000    0.581973   13.308100
  H    -139.552000    1.141240   14.050600
  H    -140.844000   -0.051328   13.814800
  C    -139.128000   -0.208391   12.448400
  H    -138.660000    0.510331   11.726100
  H    -138.433000   -0.821236   13.133700
  H    -139.634000   -0.940677   11.872100
  S    -142.970000    6.052710   16.146000
  C    -144.066000    7.382380   16.179600
  C    -145.146000    7.146380   15.421000
  C    -145.008000    5.981940   14.610100
  C    -143.803000    5.321990   14.820100
  H    -145.990000    7.859310   15.374400
  C    -146.108000    5.534760   13.669300
  H    -147.079000    5.877260   14.052100
  H    -146.244000    4.422190   13.549200
  C    -146.098000    6.089430   12.272900
  H    -145.290000    5.692180   11.723400
  H    -145.986000    7.113530   12.225800
  C    -147.400000    5.863040   11.647700
  H    -148.107000    6.432970   12.144300
  H    -147.858000    4.863030   11.685000
  H    -147.478000    6.067150   10.552200
  H    -143.287000    0.481710   13.614700
  H    -144.111000    8.055720   17.031000

 Total Charge           Charge          ....    0
 Multiplicity           Mult            ....    1
 Number of Electrons    NEL             ....  134
 Basis Dimension        Dim             ....  322

ORBITAL ENERGIES
----------------

  NO   OCC          E(Eh)            E(eV)
   0   2.0000     -88.969405     -2420.9806
   1   2.0000     -88.962624     -2420.7961
   2   2.0000     -10.330318      -281.1022
   3   2.0000     -10.325179      -280.9624
   4   2.0000     -10.311030      -280.5774
   5   2.0000     -10.310457      -280.5618
   6   2.0000     -10.301983      -280.3312
   7   2.0000     -10.299160      -280.2544
   8   2.0000     -10.298812      -280.2449
   9   2.0000     -10.293993      -280.1138
  10   2.0000     -10.292130      -280.0631
  11   2.0000     -10.288098      -279.9534
  12   2.0000     -10.287878      -279.9474
  13   2.0000     -10.287455      -279.9359
  14   2.0000     -10.266097      -279.3547
  15   2.0000     -10.264752      -279.3181
  16   2.0000      -8.083095      -219.9522
  17   2.0000      -8.078489      -219.8269
  18   2.0000      -6.041666      -164.4021
  19   2.0000      -6.037935      -164.3006
  20   2.0000      -6.036834      -164.2706
  21   2.0000      -6.033649      -164.1839
  22   2.0000      -6.032839      -164.1619
  23   2.0000      -6.029338      -164.0666
  24   2.0000      -1.009659       -27.4742
  25   2.0000      -0.989683       -26.9306
  26   2.0000      -0.921335       -25.0708
  27   2.0000      -0.909700       -24.7542
  28   2.0000      -0.870637       -23.6912
  29   2.0000      -0.854489       -23.2518
  30   2.0000      -0.846604       -23.0373
  31   2.0000      -0.816320       -22.2132
  32   2.0000      -0.782387       -21.2898
  33   2.0000      -0.770620       -20.9696
  34   2.0000      -0.706378       -19.2215
  35   2.0000      -0.699371       -19.0309
  36   2.0000      -0.693516       -18.8715
  37   2.0000      -0.659732       -17.9522
  38   2.0000      -0.634703       -17.2712
  39   2.0000      -0.616016       -16.7626
  40   2.0000      -0.600786       -16.3482
  41   2.0000      -0.578271       -15.7356
  42   2.0000      -0.573497       -15.6056
  43   2.0000      -0.557876       -15.1806
  44   2.0000      -0.525318       -14.2946
  45   2.0000      -0.518164       -14.1000
  46   2.0000      -0.515869       -14.0375
  47   2.0000      -0.514563       -14.0020
  48   2.0000      -0.503780       -13.7085
  49   2.0000      -0.497737       -13.5441
  50   2.0000      -0.490449       -13.3458
  51   2.0000      -0.475704       -12.9446
  52   2.0000      -0.469971       -12.7886
  53   2.0000      -0.463992       -12.6259
  54   2.0000      -0.457444       -12.4477
  55   2.0000      -0.451883       -12.2964
  56   2.0000      -0.443440       -12.0666
  57   2.0000      -0.435232       -11.8433
  58   2.0000      -0.430029       -11.7017
  59   2.0000      -0.428322       -11.6552
  60   2.0000      -0.422856       -11.5065
  61   2.0000      -0.418670       -11.3926
  62   2.0000      -0.413630       -11.2554
  63   2.0000      -0.339403        -9.2356
  64   2.0000      -0.335609        -9.1324
  65   2.0000      -0.325235        -8.8501
  66   2.0000      -0.308050        -8.3825
  67   0.0000       0.039152         1.0654
  68   0.0000       0.060707         1.6519
  69   0.0000       0.107528         2.9260
  70   0.0000       0.119462         3.2507
  71   0.0000       0.132417         3.6033

MULLIKEN ATOMIC CHARGES
-----------------------
   0 S :    0.126598
   1 C :   -0.136729
   2 C :   -0.064170
   3 C :    0.014397
   4 C :   -0.161762
   5 H :    0.015961
   6 C :    0.050618
   7 H :    0.010525
   8 H :    0.037899
   9 C :   -0.062411
  10 H :    0.033587
  11 H :    0.021550
  12 C :   -0.044894
  13 H :    0.041302
  14 H :    0.052705
  15 H :    0.020799
  16 S :    0.105119
  17 C :   -0.076743
  18 C :   -0.047575
  19 C :   -0.020608
  20 C :   -0.158129
  21 H :    0.030198
  22 C :    0.014521
  23 H :    0.003282
  24 H :    0.035861
  25 C :    0.035669
  26 H :    0.014825
  27 H :    0.000450
  28 C :   -0.055705
  29 H :    0.004897
  30 H :    0.015452
  31 H :    0.033716
  32 H :    0.045972
  33 H :    0.062823
Sum of atomic charges:   -0.0000000

LOEWDIN ATOMIC CHARGES
----------------------
   0 S :    0.393203
   1 C :   -0.187554
   2 C :   -0.068485
   3 C :   -0.059152
   4 C :   -0.192798
   5 H :    0.034276
   6 C :   -0.026258
   7 H :    0.021804
   8 H :    0.033927
   9 C :   -0.042410
  10 H :    0.024021
  11 H :    0.023128
  12 C :   -0.067819
  13 H :    0.032290
  14 H :    0.040733
  15 H :    0.017741
  16 S :    0.427578
  17 C :   -0.195385
  18 C :   -0.072549
  19 C :   -0.055261
  20 C :   -0.211367
  21 H :    0.037636
  22 C :   -0.034232
  23 H :    0.027256
  24 H :    0.032285
  25 C :   -0.033822
  26 H :    0.019537
  27 H :    0.016984
  28 C :   -0.065258
  29 H :    0.013578
  30 H :    0.023544
  31 H :    0.031346
  32 H :    0.029011
  33 H :    0.032472

  Mayer bond orders larger than 0.100000
B(  0-S ,  1-C ) :   1.1299 B(  0-S ,  4-C ) :   1.1230 B(  1-C ,  2-C ) :   1.6723
B(  1-C , 32-H ) :   0.9517 B(  2-C ,  3-C ) :   1.2180 B(  2-C ,  6-C ) :   0.9962
B(  3-C ,  4-C ) :   1.6260 B(  3-C ,  5-H ) :   0.9883 B(  4-C , 20-C ) :   1.0093
B(  6-C ,  7-H ) :   0.9404 B(  6-C ,  8-H ) :   0.9489 B(  6-C ,  9-C ) :   1.0551
B(  9-C , 10-H ) :   0.9562 B(  9-C , 11-H ) :   0.9572 B(  9-C , 12-C ) :   1.0807
B( 12-C , 13-H ) :   0.9719 B( 12-C , 14-H ) :   0.9725 B( 12-C , 15-H ) :   0.9748
B( 16-S , 17-C ) :   1.1677 B( 16-S , 20-C ) :   1.1617 B( 17-C , 18-C ) :   1.6097
B( 17-C , 33-H ) :   0.9587 B( 18-C , 19-C ) :   1.2665 B( 18-C , 21-H ) :   0.9854
B( 19-C , 20-C ) :   1.5797 B( 19-C , 22-C ) :   1.0377 B( 22-C , 23-H ) :   0.9385
B( 22-C , 24-H ) :   0.9316 B( 22-C , 25-C ) :   1.0756 B( 25-C , 26-H ) :   0.9454
B( 25-C , 27-H ) :   0.9456 B( 25-C , 28-C ) :   1.0843 B( 28-C , 29-H ) :   0.9713
B( 28-C , 30-H ) :   0.9700 B( 28-C , 31-H ) :   0.9690

Dispersion correction           -0.013556398
FINAL SINGLE POINT ENERGY     -1339.865058567852

DIPOLE MOMENT
-------------
                                X             Y             Z
Electronic contribution:     -1.46963       8.10346      19.02928
Nuclear contribution   :      1.45040      -8.20315     -19.31641
                        -----------------------------------------
Total Dipole Moment    :     -0.01922      -0.09969      -0.28714
                        -----------------------------------------
Magnitude (a.u.)       :      0.30455
Magnitude (Debye)      :      0.77412

Rotational constants in cm-1:     0.021113     0.007141     0.006039
Rotational constants in MHz :   632.957101   214.084142   181.030164

                             ****ORCA TERMINATED NORMALLY****
TOTAL RUN TIME: 0 days 0 hours 0 minutes 20 seconds 828 msec
