                         Program Version 4.2.1 -  RELEASE  -
|  1> ! wB97X-D3 SP def2-SVP
|  2> %pal
|  3> nprocs 24
|  4> end
|  5>
|  6> * xyz 0 1
|  7> S 	 34.3843 	 -4.33224 	 -122.454
|  8> C 	 33.7966 	 -6.04774 	 -122.325
|  9> C 	 34.4049 	 -6.62493 	 -121.232
| 10> C 	 35.2138 	 -5.6473 	 -120.452
| 11> C 	 35.2697 	 -4.38915 	 -120.98
| 12> H 	 35.7933 	 -5.96245 	 -119.602
| 13> C 	 34.2826 	 -8.08066 	 -120.727
| 14> H 	 33.2828 	 -8.3462 	 -120.683
| 15> H 	 34.6359 	 -8.1188 	 -119.692
| 16> C 	 34.9414 	 -9.15746 	 -121.603
| 17> H 	 34.293 	 -9.3429 	 -122.473
| 18> H 	 35.9662 	 -8.91834 	 -121.787
| 19> C 	 34.8817 	 -10.5703 	 -120.963
| 20> H 	 33.9448 	 -10.7568 	 -120.368
| 21> H 	 34.834 	 -11.2466 	 -121.845
| 22> H 	 35.7605 	 -10.8981 	 -120.409
| 23> S 	 37.5591 	 -3.07609 	 -121.683
| 24> C 	 38.3513 	 -1.98306 	 -120.577
| 25> C 	 37.7286 	 -1.96776 	 -119.371
| 26> C 	 36.5545 	 -2.81079 	 -119.358
| 27> C 	 36.2293 	 -3.35675 	 -120.62
| 28> H 	 38.1635 	 -1.44809 	 -118.528
| 29> C 	 35.6982 	 -2.93782 	 -118.123
| 30> H 	 34.9097 	 -3.59199 	 -118.504
| 31> H 	 35.2647 	 -1.96085 	 -117.868
| 32> C 	 36.374 	 -3.61318 	 -116.931
| 33> H 	 37.1034 	 -2.94718 	 -116.446
| 34> H 	 36.9492 	 -4.3831 	 -117.337
| 35> C 	 35.3799 	 -4.02256 	 -115.807
| 36> H 	 35.8141 	 -4.77886 	 -115.145
| 37> H 	 34.502 	 -4.38121 	 -116.255
| 38> H 	 35.1798 	 -3.14065 	 -115.275
| 39> H 	 33.1863 	 -6.664 	 -123.044
| 40> H 	 39.3416 	 -1.54404 	 -120.668
| 41> *
| 42>
| 43>                          ****END OF INPUT****

CARTESIAN COORDINATES (ANGSTROEM)
---------------------------------
  S     34.384300   -4.332240  -122.454000
  C     33.796600   -6.047740  -122.325000
  C     34.404900   -6.624930  -121.232000
  C     35.213800   -5.647300  -120.452000
  C     35.269700   -4.389150  -120.980000
  H     35.793300   -5.962450  -119.602000
  C     34.282600   -8.080660  -120.727000
  H     33.282800   -8.346200  -120.683000
  H     34.635900   -8.118800  -119.692000
  C     34.941400   -9.157460  -121.603000
  H     34.293000   -9.342900  -122.473000
  H     35.966200   -8.918340  -121.787000
  C     34.881700  -10.570300  -120.963000
  H     33.944800  -10.756800  -120.368000
  H     34.834000  -11.246600  -121.845000
  H     35.760500  -10.898100  -120.409000
  S     37.559100   -3.076090  -121.683000
  C     38.351300   -1.983060  -120.577000
  C     37.728600   -1.967760  -119.371000
  C     36.554500   -2.810790  -119.358000
  C     36.229300   -3.356750  -120.620000
  H     38.163500   -1.448090  -118.528000
  C     35.698200   -2.937820  -118.123000
  H     34.909700   -3.591990  -118.504000
  H     35.264700   -1.960850  -117.868000
  C     36.374000   -3.613180  -116.931000
  H     37.103400   -2.947180  -116.446000
  H     36.949200   -4.383100  -117.337000
  C     35.379900   -4.022560  -115.807000
  H     35.814100   -4.778860  -115.145000
  H     34.502000   -4.381210  -116.255000
  H     35.179800   -3.140650  -115.275000
  H     33.186300   -6.664000  -123.044000
  H     39.341600   -1.544040  -120.668000

 Total Charge           Charge          ....    0
 Multiplicity           Mult            ....    1
 Number of Electrons    NEL             ....  134
 Basis Dimension        Dim             ....  322

ORBITAL ENERGIES
----------------

  NO   OCC          E(Eh)            E(eV)
   0   2.0000     -88.965767     -2420.8816
   1   2.0000     -88.964669     -2420.8517
   2   2.0000     -10.330447      -281.1058
   3   2.0000     -10.327647      -281.0296
   4   2.0000     -10.325322      -280.9663
   5   2.0000     -10.314564      -280.6735
   6   2.0000     -10.308441      -280.5069
   7   2.0000     -10.303970      -280.3853
   8   2.0000     -10.296729      -280.1882
   9   2.0000     -10.290905      -280.0298
  10   2.0000     -10.290375      -280.0153
  11   2.0000     -10.289476      -279.9909
  12   2.0000     -10.285739      -279.8892
  13   2.0000     -10.285001      -279.8691
  14   2.0000     -10.280930      -279.7583
  15   2.0000     -10.271253      -279.4950
  16   2.0000      -8.080038      -219.8690
  17   2.0000      -8.079868      -219.8644
  18   2.0000      -6.038816      -164.3245
  19   2.0000      -6.038430      -164.3140
  20   2.0000      -6.034570      -164.2090
  21   2.0000      -6.034264      -164.2007
  22   2.0000      -6.030563      -164.1000
  23   2.0000      -6.030521      -164.0988
  24   2.0000      -1.008641       -27.4465
  25   2.0000      -0.981594       -26.7105
  26   2.0000      -0.912577       -24.8325
  27   2.0000      -0.909382       -24.7455
  28   2.0000      -0.873341       -23.7648
  29   2.0000      -0.848829       -23.0978
  30   2.0000      -0.841815       -22.9070
  31   2.0000      -0.816999       -22.2317
  32   2.0000      -0.782619       -21.2961
  33   2.0000      -0.771076       -20.9820
  34   2.0000      -0.707018       -19.2389
  35   2.0000      -0.700216       -19.0538
  36   2.0000      -0.696438       -18.9510
  37   2.0000      -0.656209       -17.8563
  38   2.0000      -0.636354       -17.3161
  39   2.0000      -0.620422       -16.8825
  40   2.0000      -0.591665       -16.1000
  41   2.0000      -0.575273       -15.6540
  42   2.0000      -0.571566       -15.5531
  43   2.0000      -0.567511       -15.4428
  44   2.0000      -0.525462       -14.2985
  45   2.0000      -0.524563       -14.2741
  46   2.0000      -0.517485       -14.0815
  47   2.0000      -0.513265       -13.9667
  48   2.0000      -0.509760       -13.8713
  49   2.0000      -0.502475       -13.6730
  50   2.0000      -0.495558       -13.4848
  51   2.0000      -0.473694       -12.8899
  52   2.0000      -0.472091       -12.8463
  53   2.0000      -0.462412       -12.5829
  54   2.0000      -0.458473       -12.4757
  55   2.0000      -0.451239       -12.2788
  56   2.0000      -0.443697       -12.0736
  57   2.0000      -0.438048       -11.9199
  58   2.0000      -0.434934       -11.8352
  59   2.0000      -0.421896       -11.4804
  60   2.0000      -0.421675       -11.4744
  61   2.0000      -0.413437       -11.2502
  62   2.0000      -0.411355       -11.1935
  63   2.0000      -0.349332        -9.5058
  64   2.0000      -0.329498        -8.9661
  65   2.0000      -0.323798        -8.8110
  66   2.0000      -0.300675        -8.1818
  67   0.0000       0.033455         0.9104
  68   0.0000       0.066145         1.7999
  69   0.0000       0.111128         3.0239
  70   0.0000       0.119616         3.2549
  71   0.0000       0.122931         3.3451

MULLIKEN ATOMIC CHARGES
-----------------------
   0 S :    0.094759
   1 C :   -0.127900
   2 C :   -0.109405
   3 C :    0.035529
   4 C :   -0.147072
   5 H :    0.009067
   6 C :    0.085804
   7 H :    0.009640
   8 H :    0.021682
   9 C :   -0.065858
  10 H :    0.032975
  11 H :    0.036740
  12 C :   -0.088215
  13 H :    0.038339
  14 H :    0.031456
  15 H :    0.041768
  16 S :    0.110002
  17 C :   -0.081946
  18 C :   -0.022121
  19 C :   -0.091215
  20 C :   -0.113181
  21 H :    0.020355
  22 C :    0.063246
  23 H :    0.017747
  24 H :    0.038248
  25 C :   -0.086718
  26 H :    0.023712
  27 H :    0.012727
  28 C :    0.002506
  29 H :    0.038998
  30 H :    0.017980
  31 H :    0.022234
  32 H :    0.069476
  33 H :    0.058642
Sum of atomic charges:    0.0000000

LOEWDIN ATOMIC CHARGES
----------------------
   0 S :    0.393041
   1 C :   -0.190870
   2 C :   -0.056822
   3 C :   -0.061278
   4 C :   -0.208203
   5 H :    0.026831
   6 C :   -0.030528
   7 H :    0.021553
   8 H :    0.030134
   9 C :   -0.034085
  10 H :    0.028681
  11 H :    0.024138
  12 C :   -0.074527
  13 H :    0.028952
  14 H :    0.029542
  15 H :    0.023003
  16 S :    0.422325
  17 C :   -0.187224
  18 C :   -0.072731
  19 C :   -0.053046
  20 C :   -0.213599
  21 H :    0.032785
  22 C :   -0.035575
  23 H :    0.029172
  24 H :    0.032084
  25 C :   -0.036612
  26 H :    0.022282
  27 H :    0.012120
  28 C :   -0.050162
  29 H :    0.030329
  30 H :    0.017024
  31 H :    0.021101
  32 H :    0.045504
  33 H :    0.034657

  Mayer bond orders larger than 0.100000
B(  0-S ,  1-C ) :   1.1067 B(  0-S ,  4-C ) :   1.1421 B(  1-C ,  2-C ) :   1.6553
B(  1-C , 32-H ) :   0.9627 B(  2-C ,  3-C ) :   1.2208 B(  2-C ,  6-C ) :   1.0164
B(  3-C ,  4-C ) :   1.5841 B(  3-C ,  5-H ) :   0.9944 B(  4-C , 20-C ) :   1.0138
B(  6-C ,  7-H ) :   0.9330 B(  6-C ,  8-H ) :   0.9475 B(  6-C ,  9-C ) :   1.0733
B(  9-C , 10-H ) :   0.9627 B(  9-C , 11-H ) :   0.9605 B(  9-C , 12-C ) :   1.0673
B( 12-C , 13-H ) :   0.9729 B( 12-C , 14-H ) :   0.9814 B( 12-C , 15-H ) :   0.9780
B( 16-S , 17-C ) :   1.1571 B( 16-S , 20-C ) :   1.1494 B( 17-C , 18-C ) :   1.6151
B( 17-C , 33-H ) :   0.9624 B( 18-C , 19-C ) :   1.2411 B( 18-C , 21-H ) :   0.9925
B( 19-C , 20-C ) :   1.5764 B( 19-C , 22-C ) :   1.0564 B( 22-C , 23-H ) :   0.9290
B( 22-C , 24-H ) :   0.9379 B( 22-C , 25-C ) :   1.0591 B( 25-C , 26-H ) :   0.9544
B( 25-C , 27-H ) :   0.9591 B( 25-C , 28-C ) :   1.0777 B( 28-C , 29-H ) :   0.9763
B( 28-C , 30-H ) :   0.9782 B( 28-C , 31-H ) :   0.9753

Dispersion correction           -0.013625432
FINAL SINGLE POINT ENERGY     -1339.865697185021

DIPOLE MOMENT
-------------
                                X             Y             Z
Electronic contribution:      3.99858      20.14981     -19.97035
Nuclear contribution   :     -3.82576     -20.72496      20.52965
                        -----------------------------------------
Total Dipole Moment    :      0.17282      -0.57516       0.55930
                        -----------------------------------------
Magnitude (a.u.)       :      0.82067
Magnitude (Debye)      :      2.08596

Rotational constants in cm-1:     0.017047     0.008128     0.006482
Rotational constants in MHz :   511.060981   243.683709   194.328587

                             ****ORCA TERMINATED NORMALLY****
TOTAL RUN TIME: 0 days 0 hours 0 minutes 21 seconds 28 msec
