                         Program Version 4.2.1 -  RELEASE  -
|  1> ! wB97X-D3 SP def2-SVP
|  2> %pal
|  3> nprocs 24
|  4> end
|  5>
|  6> * xyz 0 1
|  7> S 	 -41.8624 	 18.2784 	 28.4164
|  8> C 	 -40.1266 	 18.1238 	 27.9756
|  9> C 	 -39.3603 	 19.1106 	 28.6021
| 10> C 	 -40.1052 	 19.9545 	 29.5166
| 11> C 	 -41.4244 	 19.5494 	 29.5675
| 12> H 	 -39.7321 	 20.7928 	 30.1267
| 13> C 	 -37.8639 	 19.3137 	 28.3024
| 14> H 	 -37.7619 	 20.1119 	 27.4931
| 15> H 	 -37.3929 	 18.4462 	 27.8197
| 16> C 	 -36.9875 	 19.8247 	 29.5199
| 17> H 	 -35.979 	 20.1106 	 29.1304
| 18> H 	 -37.4369 	 20.7418 	 29.872
| 19> C 	 -36.9016 	 18.854 	 30.6892
| 20> H 	 -36.4357 	 17.9352 	 30.3319
| 21> H 	 -36.3056 	 19.1687 	 31.5341
| 22> H 	 -37.9158 	 18.588 	 30.9473
| 23> S 	 -43.508 	 19.0361 	 31.2804
| 24> C 	 -44.3492 	 20.3533 	 31.9849
| 25> C 	 -43.6797 	 21.5549 	 31.7752
| 26> C 	 -42.6903 	 21.4686 	 30.7446
| 27> C 	 -42.4023 	 20.1397 	 30.4688
| 28> H 	 -44.0253 	 22.4794 	 32.274
| 29> C 	 -42.1286 	 22.7676 	 30.0228
| 30> H 	 -43.0413 	 23.1928 	 29.4978
| 31> H 	 -41.412 	 22.588 	 29.2587
| 32> C 	 -41.5891 	 23.8142 	 31.0009
| 33> H 	 -42.1879 	 24.0778 	 31.8217
| 34> H 	 -41.6022 	 24.7228 	 30.4221
| 35> C 	 -40.223 	 23.3828 	 31.5509
| 36> H 	 -40.2833 	 22.3207 	 31.8423
| 37> H 	 -39.9566 	 23.9129 	 32.4889
| 38> H 	 -39.5461 	 23.6025 	 30.7604
| 39> H 	 -39.734 	 17.6318 	 27.1121
| 40> H 	 -45.1157 	 20.2706 	 32.729
| 41> *
| 42>
| 43>                          ****END OF INPUT****

CARTESIAN COORDINATES (ANGSTROEM)
---------------------------------
  S    -41.862400   18.278400   28.416400
  C    -40.126600   18.123800   27.975600
  C    -39.360300   19.110600   28.602100
  C    -40.105200   19.954500   29.516600
  C    -41.424400   19.549400   29.567500
  H    -39.732100   20.792800   30.126700
  C    -37.863900   19.313700   28.302400
  H    -37.761900   20.111900   27.493100
  H    -37.392900   18.446200   27.819700
  C    -36.987500   19.824700   29.519900
  H    -35.979000   20.110600   29.130400
  H    -37.436900   20.741800   29.872000
  C    -36.901600   18.854000   30.689200
  H    -36.435700   17.935200   30.331900
  H    -36.305600   19.168700   31.534100
  H    -37.915800   18.588000   30.947300
  S    -43.508000   19.036100   31.280400
  C    -44.349200   20.353300   31.984900
  C    -43.679700   21.554900   31.775200
  C    -42.690300   21.468600   30.744600
  C    -42.402300   20.139700   30.468800
  H    -44.025300   22.479400   32.274000
  C    -42.128600   22.767600   30.022800
  H    -43.041300   23.192800   29.497800
  H    -41.412000   22.588000   29.258700
  C    -41.589100   23.814200   31.000900
  H    -42.187900   24.077800   31.821700
  H    -41.602200   24.722800   30.422100
  C    -40.223000   23.382800   31.550900
  H    -40.283300   22.320700   31.842300
  H    -39.956600   23.912900   32.488900
  H    -39.546100   23.602500   30.760400
  H    -39.734000   17.631800   27.112100
  H    -45.115700   20.270600   32.729000

 Total Charge           Charge          ....    0
 Multiplicity           Mult            ....    1
 Number of Electrons    NEL             ....  134
 Basis Dimension        Dim             ....  322

ORBITAL ENERGIES
----------------

  NO   OCC          E(Eh)            E(eV)
   0   2.0000     -88.969542     -2420.9843
   1   2.0000     -88.965790     -2420.8822
   2   2.0000     -10.331678      -281.1392
   3   2.0000     -10.324994      -280.9574
   4   2.0000     -10.314545      -280.6730
   5   2.0000     -10.314171      -280.6629
   6   2.0000     -10.308864      -280.5185
   7   2.0000     -10.308321      -280.5037
   8   2.0000     -10.302579      -280.3474
   9   2.0000     -10.301927      -280.3297
  10   2.0000     -10.298917      -280.2478
  11   2.0000     -10.296845      -280.1914
  12   2.0000     -10.290577      -280.0208
  13   2.0000     -10.282016      -279.7879
  14   2.0000     -10.280067      -279.7348
  15   2.0000     -10.270865      -279.4844
  16   2.0000      -8.082999      -219.9496
  17   2.0000      -8.081046      -219.8964
  18   2.0000      -6.041572      -164.3995
  19   2.0000      -6.039456      -164.3420
  20   2.0000      -6.037900      -164.2996
  21   2.0000      -6.035510      -164.2346
  22   2.0000      -6.033534      -164.1808
  23   2.0000      -6.031840      -164.1347
  24   2.0000      -1.004992       -27.3472
  25   2.0000      -0.978395       -26.6235
  26   2.0000      -0.912023       -24.8174
  27   2.0000      -0.903164       -24.5763
  28   2.0000      -0.866587       -23.5810
  29   2.0000      -0.850345       -23.1391
  30   2.0000      -0.840522       -22.8718
  31   2.0000      -0.811513       -22.0824
  32   2.0000      -0.783997       -21.3336
  33   2.0000      -0.771645       -20.9975
  34   2.0000      -0.709587       -19.3089
  35   2.0000      -0.699171       -19.0254
  36   2.0000      -0.690383       -18.7863
  37   2.0000      -0.653865       -17.7926
  38   2.0000      -0.635479       -17.2923
  39   2.0000      -0.620942       -16.8967
  40   2.0000      -0.603167       -16.4130
  41   2.0000      -0.559782       -15.2324
  42   2.0000      -0.551634       -15.0107
  43   2.0000      -0.546746       -14.8777
  44   2.0000      -0.545733       -14.8501
  45   2.0000      -0.533393       -14.5144
  46   2.0000      -0.519458       -14.1352
  47   2.0000      -0.511807       -13.9270
  48   2.0000      -0.496829       -13.5194
  49   2.0000      -0.494476       -13.4554
  50   2.0000      -0.488340       -13.2884
  51   2.0000      -0.481679       -13.1072
  52   2.0000      -0.467192       -12.7129
  53   2.0000      -0.462923       -12.5968
  54   2.0000      -0.460000       -12.5172
  55   2.0000      -0.451514       -12.2863
  56   2.0000      -0.447142       -12.1674
  57   2.0000      -0.438823       -11.9410
  58   2.0000      -0.434423       -11.8212
  59   2.0000      -0.426517       -11.6061
  60   2.0000      -0.419035       -11.4025
  61   2.0000      -0.416886       -11.3440
  62   2.0000      -0.412841       -11.2340
  63   2.0000      -0.348819        -9.4918
  64   2.0000      -0.332383        -9.0446
  65   2.0000      -0.328336        -8.9345
  66   2.0000      -0.288498        -7.8504
  67   0.0000       0.026826         0.7300
  68   0.0000       0.071197         1.9374
  69   0.0000       0.103206         2.8084
  70   0.0000       0.115978         3.1559
  71   0.0000       0.125512         3.4154

MULLIKEN ATOMIC CHARGES
-----------------------
   0 S :    0.109367
   1 C :   -0.102357
   2 C :   -0.094382
   3 C :    0.014012
   4 C :   -0.129666
   5 H :    0.016980
   6 C :    0.020508
   7 H :    0.050401
   8 H :    0.025724
   9 C :   -0.092431
  10 H :    0.030763
  11 H :    0.022898
  12 C :   -0.021746
  13 H :    0.018110
  14 H :    0.038717
  15 H :    0.035387
  16 S :    0.115481
  17 C :   -0.079361
  18 C :   -0.059504
  19 C :   -0.052904
  20 C :   -0.172148
  21 H :    0.032150
  22 C :    0.065257
  23 H :    0.048988
  24 H :    0.020954
  25 C :   -0.062489
  26 H :    0.014085
  27 H :    0.021244
  28 C :   -0.059546
  29 H :    0.057161
  30 H :    0.038541
  31 H :    0.033386
  32 H :    0.044134
  33 H :    0.052286
Sum of atomic charges:   -0.0000000

LOEWDIN ATOMIC CHARGES
----------------------
   0 S :    0.379044
   1 C :   -0.192839
   2 C :   -0.055303
   3 C :   -0.068240
   4 C :   -0.177642
   5 H :    0.036700
   6 C :   -0.037583
   7 H :    0.041471
   8 H :    0.027616
   9 C :   -0.042539
  10 H :    0.026512
  11 H :    0.016166
  12 C :   -0.064653
  13 H :    0.024198
  14 H :    0.026134
  15 H :    0.026638
  16 S :    0.415021
  17 C :   -0.195021
  18 C :   -0.073642
  19 C :   -0.057852
  20 C :   -0.200488
  21 H :    0.033747
  22 C :   -0.018723
  23 H :    0.042460
  24 H :    0.023561
  25 C :   -0.041453
  26 H :    0.014218
  27 H :    0.023776
  28 C :   -0.064588
  29 H :    0.030164
  30 H :    0.030651
  31 H :    0.021690
  32 H :    0.025205
  33 H :    0.025593

  Mayer bond orders larger than 0.100000
B(  0-S ,  1-C ) :   1.1002 B(  0-S ,  4-C ) :   1.1497 B(  1-C ,  2-C ) :   1.6505
B(  1-C , 32-H ) :   0.9653 B(  2-C ,  3-C ) :   1.2019 B(  2-C ,  6-C ) :   1.0167
B(  3-C ,  4-C ) :   1.5886 B(  3-C ,  5-H ) :   0.9847 B(  4-C , 20-C ) :   1.0476
B(  6-C ,  7-H ) :   0.9380 B(  6-C ,  8-H ) :   0.9495 B(  6-C ,  9-C ) :   1.0682
B(  9-C , 10-H ) :   0.9553 B(  9-C , 11-H ) :   0.9527 B(  9-C , 12-C ) :   1.0754
B( 12-C , 13-H ) :   0.9729 B( 12-C , 14-H ) :   0.9750 B( 12-C , 15-H ) :   0.9726
B( 16-S , 17-C ) :   1.1582 B( 16-S , 20-C ) :   1.1418 B( 17-C , 18-C ) :   1.6217
B( 17-C , 33-H ) :   0.9665 B( 18-C , 19-C ) :   1.2357 B( 18-C , 21-H ) :   0.9793
B( 19-C , 20-C ) :   1.5947 B( 19-C , 22-C ) :   1.0222 B( 22-C , 23-H ) :   0.9379
B( 22-C , 24-H ) :   0.9435 B( 22-C , 25-C ) :   1.0670 B( 25-C , 26-H ) :   0.9595
B( 25-C , 27-H ) :   0.9549 B( 25-C , 28-C ) :   1.0638 B( 28-C , 29-H ) :   0.9667
B( 28-C , 30-H ) :   0.9728 B( 28-C , 31-H ) :   0.9773

Dispersion correction           -0.015142708
FINAL SINGLE POINT ENERGY     -1339.879007895177

DIPOLE MOMENT
-------------
                                X             Y             Z
Electronic contribution:    -22.91713     -16.53195      -4.00218
Nuclear contribution   :     23.26241      17.24854       4.02702
                        -----------------------------------------
Total Dipole Moment    :      0.34528       0.71659       0.02484
                        -----------------------------------------
Magnitude (a.u.)       :      0.79583
Magnitude (Debye)      :      2.02283

Rotational constants in cm-1:     0.017178     0.010063     0.007475
Rotational constants in MHz :   514.975914   301.692528   224.093933

                             ****ORCA TERMINATED NORMALLY****
TOTAL RUN TIME: 0 days 0 hours 0 minutes 22 seconds 184 msec
