                         Program Version 4.2.1 -  RELEASE  -
|  1> ! wB97X-D3 SP def2-SVP
|  2> %pal
|  3> nprocs 24
|  4> end
|  5>
|  6> * xyz 0 1
|  7> S 	 -98.1211 	 2.65921 	 -108.09
|  8> C 	 -99.2457 	 3.76113 	 -108.85
|  9> C 	 -98.9478 	 5.06262 	 -108.554
| 10> C 	 -97.9666 	 5.19099 	 -107.484
| 11> C 	 -97.449 	 3.95803 	 -107.128
| 12> H 	 -97.6453 	 6.1294 	 -107.03
| 13> C 	 -99.6476 	 6.32966 	 -108.972
| 14> H 	 -99.834 	 6.19274 	 -110.03
| 15> H 	 -99.0418 	 7.22438 	 -108.868
| 16> C 	 -101.065 	 6.43208 	 -108.306
| 17> H 	 -101.699 	 5.64572 	 -108.651
| 18> H 	 -101.015 	 6.36882 	 -107.208
| 19> C 	 -101.833 	 7.70008 	 -108.576
| 20> H 	 -101.452 	 8.53184 	 -107.907
| 21> H 	 -101.726 	 7.92775 	 -109.639
| 22> H 	 -102.923 	 7.50761 	 -108.307
| 23> S 	 -94.8003 	 3.28161 	 -106.729
| 24> C 	 -94.1364 	 3.25195 	 -105.123
| 25> C 	 -95.1948 	 3.06029 	 -104.23
| 26> C 	 -96.5045 	 3.27744 	 -104.816
| 27> C 	 -96.4042 	 3.67997 	 -106.123
| 28> H 	 -95.1871 	 2.78989 	 -103.198
| 29> C 	 -97.8259 	 2.9653 	 -104.138
| 30> H 	 -97.6111 	 2.17575 	 -103.37
| 31> H 	 -98.4114 	 2.44747 	 -104.847
| 32> C 	 -98.544 	 4.14696 	 -103.426
| 33> H 	 -98.4937 	 5.00998 	 -104.112
| 34> H 	 -97.8661 	 4.42397 	 -102.605
| 35> C 	 -99.9644 	 3.77512 	 -102.944
| 36> H 	 -100.492 	 4.51785 	 -102.366
| 37> H 	 -99.9787 	 3.03385 	 -102.209
| 38> H 	 -100.614 	 3.49283 	 -103.862
| 39> H 	 -100.081 	 3.4941 	 -109.467
| 40> H 	 -93.0708 	 3.14383 	 -104.738
| 41> *
| 42>
| 43>                          ****END OF INPUT****

CARTESIAN COORDINATES (ANGSTROEM)
---------------------------------
  S    -98.121100    2.659210  -108.090000
  C    -99.245700    3.761130  -108.850000
  C    -98.947800    5.062620  -108.554000
  C    -97.966600    5.190990  -107.484000
  C    -97.449000    3.958030  -107.128000
  H    -97.645300    6.129400  -107.030000
  C    -99.647600    6.329660  -108.972000
  H    -99.834000    6.192740  -110.030000
  H    -99.041800    7.224380  -108.868000
  C    -101.065000    6.432080  -108.306000
  H    -101.699000    5.645720  -108.651000
  H    -101.015000    6.368820  -107.208000
  C    -101.833000    7.700080  -108.576000
  H    -101.452000    8.531840  -107.907000
  H    -101.726000    7.927750  -109.639000
  H    -102.923000    7.507610  -108.307000
  S    -94.800300    3.281610  -106.729000
  C    -94.136400    3.251950  -105.123000
  C    -95.194800    3.060290  -104.230000
  C    -96.504500    3.277440  -104.816000
  C    -96.404200    3.679970  -106.123000
  H    -95.187100    2.789890  -103.198000
  C    -97.825900    2.965300  -104.138000
  H    -97.611100    2.175750  -103.370000
  H    -98.411400    2.447470  -104.847000
  C    -98.544000    4.146960  -103.426000
  H    -98.493700    5.009980  -104.112000
  H    -97.866100    4.423970  -102.605000
  C    -99.964400    3.775120  -102.944000
  H    -100.492000    4.517850  -102.366000
  H    -99.978700    3.033850  -102.209000
  H    -100.614000    3.492830  -103.862000
  H    -100.081000    3.494100  -109.467000
  H    -93.070800    3.143830  -104.738000

 Total Charge           Charge          ....    0
 Multiplicity           Mult            ....    1
 Number of Electrons    NEL             ....  134
 Basis Dimension        Dim             ....  322

ORBITAL ENERGIES
----------------

  NO   OCC          E(Eh)            E(eV)
   0   2.0000     -88.967624     -2420.9321
   1   2.0000     -88.962518     -2420.7932
   2   2.0000     -10.329089      -281.0688
   3   2.0000     -10.324240      -280.9368
   4   2.0000     -10.321527      -280.8630
   5   2.0000     -10.312599      -280.6201
   6   2.0000     -10.300722      -280.2969
   7   2.0000     -10.299851      -280.2732
   8   2.0000     -10.296617      -280.1852
   9   2.0000     -10.293348      -280.0962
  10   2.0000     -10.293117      -280.0899
  11   2.0000     -10.290592      -280.0212
  12   2.0000     -10.289280      -279.9855
  13   2.0000     -10.285234      -279.8755
  14   2.0000     -10.284851      -279.8650
  15   2.0000     -10.280440      -279.7450
  16   2.0000      -8.082146      -219.9264
  17   2.0000      -8.077377      -219.7966
  18   2.0000      -6.040714      -164.3762
  19   2.0000      -6.036700      -164.2670
  20   2.0000      -6.036039      -164.2490
  21   2.0000      -6.032843      -164.1620
  22   2.0000      -6.032125      -164.1425
  23   2.0000      -6.027685      -164.0216
  24   2.0000      -1.005585       -27.3634
  25   2.0000      -0.983966       -26.7751
  26   2.0000      -0.911603       -24.8060
  27   2.0000      -0.902718       -24.5642
  28   2.0000      -0.866603       -23.5815
  29   2.0000      -0.849532       -23.1170
  30   2.0000      -0.845455       -23.0060
  31   2.0000      -0.812579       -22.1114
  32   2.0000      -0.779966       -21.2240
  33   2.0000      -0.770001       -20.9528
  34   2.0000      -0.705901       -19.2085
  35   2.0000      -0.695151       -18.9160
  36   2.0000      -0.690019       -18.7764
  37   2.0000      -0.661547       -18.0016
  38   2.0000      -0.643342       -17.5062
  39   2.0000      -0.615144       -16.7389
  40   2.0000      -0.590219       -16.0607
  41   2.0000      -0.570839       -15.5333
  42   2.0000      -0.560583       -15.2542
  43   2.0000      -0.557791       -15.1783
  44   2.0000      -0.527713       -14.3598
  45   2.0000      -0.518948       -14.1213
  46   2.0000      -0.515614       -14.0306
  47   2.0000      -0.509382       -13.8610
  48   2.0000      -0.506878       -13.7929
  49   2.0000      -0.502131       -13.6637
  50   2.0000      -0.494241       -13.4490
  51   2.0000      -0.475059       -12.9270
  52   2.0000      -0.470323       -12.7981
  53   2.0000      -0.464252       -12.6329
  54   2.0000      -0.453755       -12.3473
  55   2.0000      -0.447964       -12.1897
  56   2.0000      -0.444578       -12.0976
  57   2.0000      -0.431941       -11.7537
  58   2.0000      -0.429562       -11.6890
  59   2.0000      -0.427973       -11.6457
  60   2.0000      -0.423501       -11.5241
  61   2.0000      -0.415091       -11.2952
  62   2.0000      -0.412810       -11.2331
  63   2.0000      -0.332931        -9.0595
  64   2.0000      -0.324403        -8.8275
  65   2.0000      -0.321415        -8.7461
  66   2.0000      -0.306702        -8.3458
  67   0.0000       0.040531         1.1029
  68   0.0000       0.049666         1.3515
  69   0.0000       0.100697         2.7401
  70   0.0000       0.113660         3.0928
  71   0.0000       0.128710         3.5024

MULLIKEN ATOMIC CHARGES
-----------------------
   0 S :    0.122561
   1 C :   -0.124688
   2 C :   -0.081525
   3 C :    0.040067
   4 C :   -0.169238
   5 H :    0.020853
   6 C :    0.076744
   7 H :    0.021009
   8 H :    0.029105
   9 C :   -0.082924
  10 H :    0.019299
  11 H :    0.030274
  12 C :   -0.072639
  13 H :    0.044193
  14 H :    0.032400
  15 H :    0.046557
  16 S :    0.107468
  17 C :   -0.091496
  18 C :   -0.022512
  19 C :   -0.056106
  20 C :   -0.180605
  21 H :    0.004012
  22 C :    0.076789
  23 H :    0.018247
  24 H :    0.011812
  25 C :   -0.058368
  26 H :    0.032206
  27 H :    0.023328
  28 C :   -0.031858
  29 H :    0.024566
  30 H :    0.013219
  31 H :    0.052652
  32 H :    0.040385
  33 H :    0.084213
Sum of atomic charges:   -0.0000000

LOEWDIN ATOMIC CHARGES
----------------------
   0 S :    0.405209
   1 C :   -0.197702
   2 C :   -0.058855
   3 C :   -0.053670
   4 C :   -0.196616
   5 H :    0.035338
   6 C :   -0.031407
   7 H :    0.030524
   8 H :    0.030054
   9 C :   -0.042112
  10 H :    0.019019
  11 H :    0.024771
  12 C :   -0.073188
  13 H :    0.029614
  14 H :    0.021775
  15 H :    0.035272
  16 S :    0.404624
  17 C :   -0.201917
  18 C :   -0.071425
  19 C :   -0.053725
  20 C :   -0.202185
  21 H :    0.023370
  22 C :   -0.029604
  23 H :    0.033410
  24 H :    0.019486
  25 C :   -0.038318
  26 H :    0.024355
  27 H :    0.024541
  28 C :   -0.071015
  29 H :    0.025825
  30 H :    0.017090
  31 H :    0.040774
  32 H :    0.026380
  33 H :    0.050309

  Mayer bond orders larger than 0.100000
B(  0-S ,  1-C ) :   1.1241 B(  0-S ,  4-C ) :   1.1505 B(  1-C ,  2-C ) :   1.6354
B(  1-C , 32-H ) :   0.9704 B(  2-C ,  3-C ) :   1.2088 B(  2-C ,  6-C ) :   1.0396
B(  3-C ,  4-C ) :   1.6104 B(  3-C ,  5-H ) :   0.9933 B(  4-C , 20-C ) :   1.0110
B(  6-C ,  7-H ) :   0.9253 B(  6-C ,  8-H ) :   0.9484 B(  6-C ,  9-C ) :   1.0605
B(  9-C , 10-H ) :   0.9559 B(  9-C , 11-H ) :   0.9601 B(  9-C , 12-C ) :   1.0859
B( 12-C , 13-H ) :   0.9771 B( 12-C , 14-H ) :   0.9726 B( 12-C , 15-H ) :   0.9732
B( 16-S , 17-C ) :   1.1509 B( 16-S , 20-C ) :   1.1412 B( 17-C , 18-C ) :   1.5843
B( 17-C , 20-C ) :   0.1003 B( 17-C , 33-H ) :   0.9608 B( 18-C , 19-C ) :   1.2605
B( 18-C , 21-H ) :   0.9864 B( 19-C , 20-C ) :   1.6003 B( 19-C , 22-C ) :   1.0392
B( 22-C , 23-H ) :   0.9345 B( 22-C , 24-H ) :   0.9296 B( 22-C , 25-C ) :   1.0493
B( 25-C , 26-H ) :   0.9613 B( 25-C , 27-H ) :   0.9538 B( 25-C , 28-C ) :   1.0754
B( 28-C , 29-H ) :   0.9720 B( 28-C , 30-H ) :   0.9717 B( 28-C , 31-H ) :   0.9747

Dispersion correction           -0.014232029
FINAL SINGLE POINT ENERGY     -1339.861913787946

DIPOLE MOMENT
-------------
                                X             Y             Z
Electronic contribution:     24.18174     -14.67757      -9.22997
Nuclear contribution   :    -24.66305      14.89366       9.56463
                        -----------------------------------------
Total Dipole Moment    :     -0.48131       0.21610       0.33466
                        -----------------------------------------
Magnitude (a.u.)       :      0.62479
Magnitude (Debye)      :      1.58808

Rotational constants in cm-1:     0.018610     0.008470     0.006793
Rotational constants in MHz :   557.919605   253.916495   203.650367

                             ****ORCA TERMINATED NORMALLY****
TOTAL RUN TIME: 0 days 0 hours 0 minutes 21 seconds 447 msec
