                         Program Version 4.2.1 -  RELEASE  -
|  1> ! wB97X-D3 SP def2-SVP
|  2> %pal
|  3> nprocs 24
|  4> end
|  5>
|  6> * xyz 0 1
|  7> S 	 -65.3308 	 13.9511 	 -106.521
|  8> C 	 -66.1224 	 15.592 	 -106.394
|  9> C 	 -65.3978 	 16.4561 	 -105.597
| 10> C 	 -64.2534 	 15.8577 	 -105.044
| 11> C 	 -64.0947 	 14.5525 	 -105.421
| 12> H 	 -63.5101 	 16.2846 	 -104.41
| 13> C 	 -65.7396 	 17.9147 	 -105.38
| 14> H 	 -65.4447 	 18.1886 	 -104.308
| 15> H 	 -66.8181 	 18.1021 	 -105.35
| 16> C 	 -65.2198 	 18.7767 	 -106.508
| 17> H 	 -64.1082 	 18.6389 	 -106.671
| 18> H 	 -65.6463 	 18.356 	 -107.448
| 19> C 	 -65.5041 	 20.2403 	 -106.298
| 20> H 	 -66.5959 	 20.4531 	 -106.301
| 21> H 	 -65.1678 	 20.5336 	 -105.327
| 22> H 	 -64.9612 	 20.883 	 -106.978
| 23> S 	 -63.468 	 12.2499 	 -103.862
| 24> C 	 -61.8195 	 11.668 	 -103.912
| 25> C 	 -60.9739 	 12.6448 	 -104.497
| 26> C 	 -61.719 	 13.8078 	 -104.962
| 27> C 	 -63.1003 	 13.6953 	 -104.85
| 28> H 	 -59.9264 	 12.462 	 -104.612
| 29> C 	 -60.9899 	 14.8776 	 -105.768
| 30> H 	 -61.6825 	 15.561 	 -106.228
| 31> H 	 -60.4891 	 14.4561 	 -106.633
| 32> C 	 -60.0608 	 15.7599 	 -104.957
| 33> H 	 -59.1763 	 15.0286 	 -104.726
| 34> H 	 -60.5301 	 16.0602 	 -104.03
| 35> C 	 -59.4961 	 17.0253 	 -105.627
| 36> H 	 -58.701 	 16.836 	 -106.346
| 37> H 	 -59.1055 	 17.7195 	 -104.893
| 38> H 	 -60.3799 	 17.5121 	 -106.086
| 39> H 	 -66.9502 	 15.892 	 -107.08
| 40> H 	 -61.5175 	 10.7557 	 -103.499
| 41> *
| 42>
| 43>                          ****END OF INPUT****

CARTESIAN COORDINATES (ANGSTROEM)
---------------------------------
  S    -65.330800   13.951100  -106.521000
  C    -66.122400   15.592000  -106.394000
  C    -65.397800   16.456100  -105.597000
  C    -64.253400   15.857700  -105.044000
  C    -64.094700   14.552500  -105.421000
  H    -63.510100   16.284600  -104.410000
  C    -65.739600   17.914700  -105.380000
  H    -65.444700   18.188600  -104.308000
  H    -66.818100   18.102100  -105.350000
  C    -65.219800   18.776700  -106.508000
  H    -64.108200   18.638900  -106.671000
  H    -65.646300   18.356000  -107.448000
  C    -65.504100   20.240300  -106.298000
  H    -66.595900   20.453100  -106.301000
  H    -65.167800   20.533600  -105.327000
  H    -64.961200   20.883000  -106.978000
  S    -63.468000   12.249900  -103.862000
  C    -61.819500   11.668000  -103.912000
  C    -60.973900   12.644800  -104.497000
  C    -61.719000   13.807800  -104.962000
  C    -63.100300   13.695300  -104.850000
  H    -59.926400   12.462000  -104.612000
  C    -60.989900   14.877600  -105.768000
  H    -61.682500   15.561000  -106.228000
  H    -60.489100   14.456100  -106.633000
  C    -60.060800   15.759900  -104.957000
  H    -59.176300   15.028600  -104.726000
  H    -60.530100   16.060200  -104.030000
  C    -59.496100   17.025300  -105.627000
  H    -58.701000   16.836000  -106.346000
  H    -59.105500   17.719500  -104.893000
  H    -60.379900   17.512100  -106.086000
  H    -66.950200   15.892000  -107.080000
  H    -61.517500   10.755700  -103.499000

 Total Charge           Charge          ....    0
 Multiplicity           Mult            ....    1
 Number of Electrons    NEL             ....  134
 Basis Dimension        Dim             ....  322

ORBITAL ENERGIES
----------------

  NO   OCC          E(Eh)            E(eV)
   0   2.0000     -88.970078     -2420.9989
   1   2.0000     -88.964289     -2420.8414
   2   2.0000     -10.327235      -281.0183
   3   2.0000     -10.326432      -280.9965
   4   2.0000     -10.322916      -280.9008
   5   2.0000     -10.319129      -280.7978
   6   2.0000     -10.305836      -280.4361
   7   2.0000     -10.303232      -280.3652
   8   2.0000     -10.298592      -280.2389
   9   2.0000     -10.298378      -280.2331
  10   2.0000     -10.292548      -280.0745
  11   2.0000     -10.291453      -280.0447
  12   2.0000     -10.290117      -280.0083
  13   2.0000     -10.284431      -279.8536
  14   2.0000     -10.280935      -279.7585
  15   2.0000     -10.278280      -279.6862
  16   2.0000      -8.083478      -219.9626
  17   2.0000      -8.078382      -219.8240
  18   2.0000      -6.041967      -164.4103
  19   2.0000      -6.038396      -164.3131
  20   2.0000      -6.036978      -164.2745
  21   2.0000      -6.034111      -164.1965
  22   2.0000      -6.032920      -164.1641
  23   2.0000      -6.029145      -164.0614
  24   2.0000      -1.003045       -27.2943
  25   2.0000      -0.977153       -26.5897
  26   2.0000      -0.917552       -24.9679
  27   2.0000      -0.907757       -24.7013
  28   2.0000      -0.870478       -23.6869
  29   2.0000      -0.852670       -23.2023
  30   2.0000      -0.843083       -22.9415
  31   2.0000      -0.812288       -22.1035
  32   2.0000      -0.784187       -21.3388
  33   2.0000      -0.771737       -21.0000
  34   2.0000      -0.703890       -19.1538
  35   2.0000      -0.700124       -19.0513
  36   2.0000      -0.691146       -18.8070
  37   2.0000      -0.659318       -17.9410
  38   2.0000      -0.644593       -17.5403
  39   2.0000      -0.621402       -16.9092
  40   2.0000      -0.597924       -16.2703
  41   2.0000      -0.568202       -15.4616
  42   2.0000      -0.566440       -15.4136
  43   2.0000      -0.558371       -15.1940
  44   2.0000      -0.529887       -14.4190
  45   2.0000      -0.525366       -14.2959
  46   2.0000      -0.519528       -14.1371
  47   2.0000      -0.513129       -13.9630
  48   2.0000      -0.507743       -13.8164
  49   2.0000      -0.506123       -13.7723
  50   2.0000      -0.490181       -13.3385
  51   2.0000      -0.474503       -12.9119
  52   2.0000      -0.467678       -12.7262
  53   2.0000      -0.465193       -12.6586
  54   2.0000      -0.458640       -12.4802
  55   2.0000      -0.451852       -12.2955
  56   2.0000      -0.447572       -12.1791
  57   2.0000      -0.441971       -12.0266
  58   2.0000      -0.432102       -11.7581
  59   2.0000      -0.425980       -11.5915
  60   2.0000      -0.417621       -11.3641
  61   2.0000      -0.412116       -11.2142
  62   2.0000      -0.402778       -10.9601
  63   2.0000      -0.340442        -9.2639
  64   2.0000      -0.337090        -9.1727
  65   2.0000      -0.326359        -8.8807
  66   2.0000      -0.295226        -8.0335
  67   0.0000       0.027449         0.7469
  68   0.0000       0.062527         1.7014
  69   0.0000       0.103753         2.8233
  70   0.0000       0.114578         3.1178
  71   0.0000       0.125864         3.4249

MULLIKEN ATOMIC CHARGES
-----------------------
   0 S :    0.110371
   1 C :   -0.146146
   2 C :   -0.049590
   3 C :    0.042807
   4 C :   -0.176414
   5 H :    0.004784
   6 C :    0.036096
   7 H :    0.035364
   8 H :    0.021882
   9 C :   -0.093562
  10 H :    0.030532
  11 H :    0.028785
  12 C :    0.000175
  13 H :    0.032240
  14 H :    0.012996
  15 H :    0.034190
  16 S :    0.107654
  17 C :   -0.085889
  18 C :   -0.019278
  19 C :   -0.022205
  20 C :   -0.153936
  21 H :    0.020215
  22 C :    0.080414
  23 H :    0.000223
  24 H :    0.030934
  25 C :   -0.129282
  26 H :    0.032079
  27 H :    0.030866
  28 C :   -0.029522
  29 H :    0.039130
  30 H :    0.035664
  31 H :    0.027092
  32 H :    0.066693
  33 H :    0.044636
Sum of atomic charges:    0.0000000

LOEWDIN ATOMIC CHARGES
----------------------
   0 S :    0.376698
   1 C :   -0.178689
   2 C :   -0.060117
   3 C :   -0.051477
   4 C :   -0.184327
   5 H :    0.031349
   6 C :   -0.037999
   7 H :    0.035932
   8 H :    0.030244
   9 C :   -0.047593
  10 H :    0.027389
  11 H :    0.027533
  12 C :   -0.064106
  13 H :    0.028929
  14 H :    0.021403
  15 H :    0.026917
  16 S :    0.388985
  17 C :   -0.173586
  18 C :   -0.064968
  19 C :   -0.049710
  20 C :   -0.194189
  21 H :    0.027681
  22 C :   -0.037137
  23 H :    0.019807
  24 H :    0.031097
  25 C :   -0.046879
  26 H :    0.027858
  27 H :    0.021241
  28 C :   -0.065934
  29 H :    0.025820
  30 H :    0.027834
  31 H :    0.026752
  32 H :    0.035031
  33 H :    0.018210

  Mayer bond orders larger than 0.100000
B(  0-S ,  1-C ) :   1.1154 B(  0-S ,  4-C ) :   1.1420 B(  1-C ,  2-C ) :   1.6260
B(  1-C , 32-H ) :   0.9611 B(  2-C ,  3-C ) :   1.2282 B(  2-C ,  6-C ) :   1.0205
B(  3-C ,  4-C ) :   1.5799 B(  3-C ,  5-H ) :   1.0007 B(  4-C , 20-C ) :   1.0636
B(  6-C ,  7-H ) :   0.9422 B(  6-C ,  8-H ) :   0.9392 B(  6-C ,  9-C ) :   1.0545
B(  9-C , 10-H ) :   0.9545 B(  9-C , 11-H ) :   0.9514 B(  9-C , 12-C ) :   1.0832
B( 12-C , 13-H ) :   0.9715 B( 12-C , 14-H ) :   0.9693 B( 12-C , 15-H ) :   0.9728
B( 16-S , 17-C ) :   1.1588 B( 16-S , 20-C ) :   1.1209 B( 17-C , 18-C ) :   1.5942
B( 17-C , 33-H ) :   0.9772 B( 18-C , 19-C ) :   1.2258 B( 18-C , 21-H ) :   0.9951
B( 19-C , 20-C ) :   1.5966 B( 19-C , 22-C ) :   1.0525 B( 22-C , 23-H ) :   0.9255
B( 22-C , 24-H ) :   0.9404 B( 22-C , 25-C ) :   1.0524 B( 25-C , 26-H ) :   0.9549
B( 25-C , 27-H ) :   0.9581 B( 25-C , 28-C ) :   1.0839 B( 28-C , 29-H ) :   0.9751
B( 28-C , 30-H ) :   0.9756 B( 28-C , 31-H ) :   0.9713

Dispersion correction           -0.014170863
FINAL SINGLE POINT ENERGY     -1339.880013370734

DIPOLE MOMENT
-------------
                                X             Y             Z
Electronic contribution:    -10.67175     -29.85345       4.33789
Nuclear contribution   :     10.98527      30.49020      -4.46454
                        -----------------------------------------
Total Dipole Moment    :      0.31353       0.63674      -0.12665
                        -----------------------------------------
Magnitude (a.u.)       :      0.72096
Magnitude (Debye)      :      1.83253

Rotational constants in cm-1:     0.017507     0.008954     0.006443
Rotational constants in MHz :   524.833992   268.434381   193.147435

                             ****ORCA TERMINATED NORMALLY****
TOTAL RUN TIME: 0 days 0 hours 0 minutes 20 seconds 493 msec
