                         Program Version 4.2.1 -  RELEASE  -
|  1> ! wB97X-D3 SP def2-SVP
|  2> %pal
|  3> nprocs 24
|  4> end
|  5>
|  6> * xyz 0 1
|  7> S 	 -101.69 	 10.6391 	 -6.04105
|  8> C 	 -101.122 	 12.2784 	 -5.73824
|  9> C 	 -102.047 	 12.9381 	 -4.94876
| 10> C 	 -103.081 	 12.0355 	 -4.49139
| 11> C 	 -103.032 	 10.766 	 -4.91717
| 12> H 	 -103.944 	 12.3902 	 -3.94306
| 13> C 	 -101.943 	 14.392 	 -4.61275
| 14> H 	 -102.948 	 14.6046 	 -4.19333
| 15> H 	 -101.62 	 15.0162 	 -5.5316
| 16> C 	 -100.774 	 14.6451 	 -3.63827
| 17> H 	 -99.8609 	 14.1857 	 -4.02991
| 18> H 	 -100.64 	 15.7301 	 -3.65188
| 19> C 	 -101.044 	 14.001 	 -2.29929
| 20> H 	 -101.184 	 12.9401 	 -2.40483
| 21> H 	 -100.202 	 14.189 	 -1.65177
| 22> H 	 -101.925 	 14.3795 	 -1.75778
| 23> S 	 -104.62 	 8.94591 	 -6.14245
| 24> C 	 -105.793 	 8.11773 	 -5.2046
| 25> C 	 -105.749 	 8.47529 	 -3.87206
| 26> C 	 -104.725 	 9.42133 	 -3.61696
| 27> C 	 -103.891 	 9.63408 	 -4.72633
| 28> H 	 -106.375 	 8.10877 	 -3.13642
| 29> C 	 -104.354 	 9.9667 	 -2.19943
| 30> H 	 -104.586 	 11.0026 	 -2.17833
| 31> H 	 -103.227 	 9.99682 	 -2.16179
| 32> C 	 -104.842 	 9.19976 	 -0.916675
| 33> H 	 -104.298 	 8.19889 	 -0.953342
| 34> H 	 -105.869 	 9.18768 	 -1.00179
| 35> C 	 -104.384 	 9.98854 	 0.335621
| 36> H 	 -105.035 	 10.8316 	 0.392354
| 37> H 	 -103.357 	 10.3161 	 0.394681
| 38> H 	 -104.547 	 9.4046 	 1.24183
| 39> H 	 -100.174 	 12.8508 	 -6.07036
| 40> H 	 -106.675 	 7.61537 	 -5.51187
| 41> *
| 42>
| 43>                          ****END OF INPUT****

CARTESIAN COORDINATES (ANGSTROEM)
---------------------------------
  S    -101.690000   10.639100   -6.041050
  C    -101.122000   12.278400   -5.738240
  C    -102.047000   12.938100   -4.948760
  C    -103.081000   12.035500   -4.491390
  C    -103.032000   10.766000   -4.917170
  H    -103.944000   12.390200   -3.943060
  C    -101.943000   14.392000   -4.612750
  H    -102.948000   14.604600   -4.193330
  H    -101.620000   15.016200   -5.531600
  C    -100.774000   14.645100   -3.638270
  H    -99.860900   14.185700   -4.029910
  H    -100.640000   15.730100   -3.651880
  C    -101.044000   14.001000   -2.299290
  H    -101.184000   12.940100   -2.404830
  H    -100.202000   14.189000   -1.651770
  H    -101.925000   14.379500   -1.757780
  S    -104.620000    8.945910   -6.142450
  C    -105.793000    8.117730   -5.204600
  C    -105.749000    8.475290   -3.872060
  C    -104.725000    9.421330   -3.616960
  C    -103.891000    9.634080   -4.726330
  H    -106.375000    8.108770   -3.136420
  C    -104.354000    9.966700   -2.199430
  H    -104.586000   11.002600   -2.178330
  H    -103.227000    9.996820   -2.161790
  C    -104.842000    9.199760   -0.916675
  H    -104.298000    8.198890   -0.953342
  H    -105.869000    9.187680   -1.001790
  C    -104.384000    9.988540    0.335621
  H    -105.035000   10.831600    0.392354
  H    -103.357000   10.316100    0.394681
  H    -104.547000    9.404600    1.241830
  H    -100.174000   12.850800   -6.070360
  H    -106.675000    7.615370   -5.511870

 Total Charge           Charge          ....    0
 Multiplicity           Mult            ....    1
 Number of Electrons    NEL             ....  134
 Basis Dimension        Dim             ....  322

ORBITAL ENERGIES
----------------

  NO   OCC          E(Eh)            E(eV)
   0   2.0000     -88.970449     -2421.0090
   1   2.0000     -88.959914     -2420.7223
   2   2.0000     -10.325136      -280.9612
   3   2.0000     -10.322437      -280.8878
   4   2.0000     -10.317514      -280.7538
   5   2.0000     -10.314711      -280.6775
   6   2.0000     -10.306384      -280.4510
   7   2.0000     -10.298013      -280.2232
   8   2.0000     -10.296524      -280.1826
   9   2.0000     -10.294492      -280.1274
  10   2.0000     -10.293952      -280.1127
  11   2.0000     -10.289763      -279.9987
  12   2.0000     -10.288887      -279.9748
  13   2.0000     -10.287115      -279.9266
  14   2.0000     -10.278382      -279.6890
  15   2.0000     -10.271704      -279.5073
  16   2.0000      -8.085796      -220.0257
  17   2.0000      -8.074618      -219.7215
  18   2.0000      -6.044213      -164.4714
  19   2.0000      -6.040125      -164.3601
  20   2.0000      -6.036680      -164.2664
  21   2.0000      -6.033320      -164.1750
  22   2.0000      -6.029044      -164.0586
  23   2.0000      -6.025251      -163.9554
  24   2.0000      -1.013612       -27.5818
  25   2.0000      -0.987206       -26.8632
  26   2.0000      -0.917571       -24.9684
  27   2.0000      -0.905491       -24.6396
  28   2.0000      -0.873588       -23.7715
  29   2.0000      -0.854741       -23.2587
  30   2.0000      -0.839876       -22.8542
  31   2.0000      -0.817746       -22.2520
  32   2.0000      -0.782782       -21.3006
  33   2.0000      -0.769709       -20.9449
  34   2.0000      -0.709990       -19.3198
  35   2.0000      -0.703967       -19.1559
  36   2.0000      -0.701328       -19.0841
  37   2.0000      -0.658954       -17.9310
  38   2.0000      -0.630214       -17.1490
  39   2.0000      -0.617159       -16.7937
  40   2.0000      -0.595441       -16.2028
  41   2.0000      -0.577063       -15.7027
  42   2.0000      -0.575778       -15.6677
  43   2.0000      -0.548972       -14.9383
  44   2.0000      -0.541014       -14.7217
  45   2.0000      -0.520876       -14.1737
  46   2.0000      -0.517178       -14.0731
  47   2.0000      -0.515370       -14.0239
  48   2.0000      -0.508421       -13.8349
  49   2.0000      -0.498869       -13.5749
  50   2.0000      -0.488804       -13.3010
  51   2.0000      -0.485011       -13.1978
  52   2.0000      -0.471667       -12.8347
  53   2.0000      -0.466601       -12.6969
  54   2.0000      -0.456608       -12.4249
  55   2.0000      -0.452080       -12.3017
  56   2.0000      -0.439646       -11.9634
  57   2.0000      -0.437775       -11.9125
  58   2.0000      -0.433852       -11.8057
  59   2.0000      -0.425727       -11.5846
  60   2.0000      -0.422789       -11.5047
  61   2.0000      -0.415648       -11.3104
  62   2.0000      -0.409146       -11.1334
  63   2.0000      -0.355657        -9.6779
  64   2.0000      -0.333192        -9.0666
  65   2.0000      -0.324087        -8.8189
  66   2.0000      -0.287297        -7.8178
  67   0.0000       0.025202         0.6858
  68   0.0000       0.067723         1.8428
  69   0.0000       0.110281         3.0009
  70   0.0000       0.125426         3.4130
  71   0.0000       0.128317         3.4917

MULLIKEN ATOMIC CHARGES
-----------------------
   0 S :    0.088819
   1 C :   -0.138922
   2 C :   -0.129235
   3 C :    0.011516
   4 C :   -0.133501
   5 H :    0.007246
   6 C :    0.034166
   7 H :    0.029887
   8 H :    0.049090
   9 C :   -0.057946
  10 H :    0.023516
  11 H :    0.031087
  12 C :   -0.048555
  13 H :    0.043202
  14 H :    0.029913
  15 H :    0.024831
  16 S :    0.123380
  17 C :   -0.047546
  18 C :   -0.030698
  19 C :   -0.053891
  20 C :   -0.104408
  21 H :   -0.010914
  22 C :   -0.004285
  23 H :    0.015299
  24 H :    0.045570
  25 C :   -0.058934
  26 H :    0.054754
  27 H :    0.028584
  28 C :   -0.034514
  29 H :    0.022363
  30 H :    0.035587
  31 H :    0.032255
  32 H :    0.076579
  33 H :    0.045704
Sum of atomic charges:    0.0000000

LOEWDIN ATOMIC CHARGES
----------------------
   0 S :    0.388620
   1 C :   -0.211990
   2 C :   -0.073025
   3 C :   -0.074516
   4 C :   -0.187771
   5 H :    0.027403
   6 C :   -0.038359
   7 H :    0.032561
   8 H :    0.043751
   9 C :   -0.037747
  10 H :    0.024197
  11 H :    0.022382
  12 C :   -0.066755
  13 H :    0.026662
  14 H :    0.024755
  15 H :    0.024293
  16 S :    0.443894
  17 C :   -0.189838
  18 C :   -0.065454
  19 C :   -0.044402
  20 C :   -0.219439
  21 H :    0.018810
  22 C :   -0.037901
  23 H :    0.018690
  24 H :    0.039398
  25 C :   -0.031628
  26 H :    0.037374
  27 H :    0.012107
  28 C :   -0.060560
  29 H :    0.022210
  30 H :    0.025877
  31 H :    0.027426
  32 H :    0.050678
  33 H :    0.028295

  Mayer bond orders larger than 0.100000
B(  0-S ,  1-C ) :   1.1312 B(  0-S ,  4-C ) :   1.1275 B(  1-C ,  2-C ) :   1.6230
B(  1-C , 32-H ) :   0.9527 B(  2-C ,  3-C ) :   1.2300 B(  2-C ,  6-C ) :   1.0203
B(  3-C ,  4-C ) :   1.6089 B(  3-C ,  5-H ) :   0.9860 B(  4-C , 20-C ) :   1.0224
B(  6-C ,  7-H ) :   0.9427 B(  6-C ,  8-H ) :   0.9403 B(  6-C ,  9-C ) :   1.0675
B(  9-C , 10-H ) :   0.9542 B(  9-C , 11-H ) :   0.9579 B(  9-C , 12-C ) :   1.0735
B( 12-C , 13-H ) :   0.9718 B( 12-C , 14-H ) :   0.9715 B( 12-C , 15-H ) :   0.9752
B( 16-S , 17-C ) :   1.1873 B( 16-S , 20-C ) :   1.1495 B( 17-C , 18-C ) :   1.5582
B( 17-C , 33-H ) :   0.9634 B( 18-C , 19-C ) :   1.2984 B( 18-C , 21-H ) :   1.0010
B( 19-C , 20-C ) :   1.5659 B( 19-C , 22-C ) :   1.0028 B( 22-C , 23-H ) :   0.9325
B( 22-C , 24-H ) :   0.9496 B( 22-C , 25-C ) :   1.0632 B( 25-C , 26-H ) :   0.9579
B( 25-C , 27-H ) :   0.9518 B( 25-C , 28-C ) :   1.0845 B( 28-C , 29-H ) :   0.9746
B( 28-C , 30-H ) :   0.9774 B( 28-C , 31-H ) :   0.9738

Dispersion correction           -0.014350066
FINAL SINGLE POINT ENERGY     -1339.858549545557

DIPOLE MOMENT
-------------
                                X             Y             Z
Electronic contribution:     -2.70998     -14.59595     -26.82981
Nuclear contribution   :      2.38883      15.04313      27.47619
                        -----------------------------------------
Total Dipole Moment    :     -0.32116       0.44718       0.64638
                        -----------------------------------------
Magnitude (a.u.)       :      0.84907
Magnitude (Debye)      :      2.15816

Rotational constants in cm-1:     0.016742     0.009877     0.006667
Rotational constants in MHz :   501.918757   296.110976   199.884181

                             ****ORCA TERMINATED NORMALLY****
TOTAL RUN TIME: 0 days 0 hours 0 minutes 22 seconds 151 msec
