                         Program Version 4.2.1 -  RELEASE  -
|  1> ! wB97X-D3 SP def2-SVP
|  2> %pal
|  3> nprocs 24
|  4> end
|  5>
|  6> * xyz 0 1
|  7> S 	 -143.96 	 8.92914 	 -3.31856
|  8> C 	 -144.067 	 10.3778 	 -2.3069
|  9> C 	 -144.286 	 10.0242 	 -0.977247
| 10> C 	 -144.445 	 8.61315 	 -0.780787
| 11> C 	 -144.075 	 7.86247 	 -1.89912
| 12> H 	 -144.746 	 8.1567 	 0.123464
| 13> C 	 -144.459 	 11.0417 	 0.152141
| 14> H 	 -143.875 	 11.8684 	 -0.071727
| 15> H 	 -144.087 	 10.6257 	 1.06615
| 16> C 	 -145.878 	 11.5824 	 0.320679
| 17> H 	 -146.171 	 11.873 	 -0.698401
| 18> H 	 -146.429 	 10.7412 	 0.686375
| 19> C 	 -145.986 	 12.8527 	 1.20937
| 20> H 	 -145.717 	 12.6031 	 2.19954
| 21> H 	 -145.315 	 13.6178 	 0.855246
| 22> H 	 -147.091 	 13.0851 	 1.23975
| 23> S 	 -145.616 	 5.75667 	 -2.69503
| 24> C 	 -144.869 	 4.13768 	 -2.86407
| 25> C 	 -143.631 	 4.09245 	 -2.29045
| 26> C 	 -143.142 	 5.41047 	 -1.94883
| 27> C 	 -144.096 	 6.40267 	 -2.06497
| 28> H 	 -143.067 	 3.21592 	 -2.20801
| 29> C 	 -141.698 	 5.70489 	 -1.45152
| 30> H 	 -141.458 	 5.05435 	 -0.586164
| 31> H 	 -141.643 	 6.71623 	 -1.06677
| 32> C 	 -140.554 	 5.52832 	 -2.41318
| 33> H 	 -140.62 	 4.53995 	 -2.88019
| 34> H 	 -139.549 	 5.54056 	 -1.9208
| 35> C 	 -140.557 	 6.60665 	 -3.55719
| 36> H 	 -140.257 	 7.58504 	 -3.02788
| 37> H 	 -141.429 	 6.64745 	 -4.16178
| 38> H 	 -139.861 	 6.27458 	 -4.3247
| 39> H 	 -143.973 	 11.3962 	 -2.55615
| 40> H 	 -145.361 	 3.22981 	 -3.06297
| 41> *
| 42>
| 43>                          ****END OF INPUT****

CARTESIAN COORDINATES (ANGSTROEM)
---------------------------------
  S    -143.960000    8.929140   -3.318560
  C    -144.067000   10.377800   -2.306900
  C    -144.286000   10.024200   -0.977247
  C    -144.445000    8.613150   -0.780787
  C    -144.075000    7.862470   -1.899120
  H    -144.746000    8.156700    0.123464
  C    -144.459000   11.041700    0.152141
  H    -143.875000   11.868400   -0.071727
  H    -144.087000   10.625700    1.066150
  C    -145.878000   11.582400    0.320679
  H    -146.171000   11.873000   -0.698401
  H    -146.429000   10.741200    0.686375
  C    -145.986000   12.852700    1.209370
  H    -145.717000   12.603100    2.199540
  H    -145.315000   13.617800    0.855246
  H    -147.091000   13.085100    1.239750
  S    -145.616000    5.756670   -2.695030
  C    -144.869000    4.137680   -2.864070
  C    -143.631000    4.092450   -2.290450
  C    -143.142000    5.410470   -1.948830
  C    -144.096000    6.402670   -2.064970
  H    -143.067000    3.215920   -2.208010
  C    -141.698000    5.704890   -1.451520
  H    -141.458000    5.054350   -0.586164
  H    -141.643000    6.716230   -1.066770
  C    -140.554000    5.528320   -2.413180
  H    -140.620000    4.539950   -2.880190
  H    -139.549000    5.540560   -1.920800
  C    -140.557000    6.606650   -3.557190
  H    -140.257000    7.585040   -3.027880
  H    -141.429000    6.647450   -4.161780
  H    -139.861000    6.274580   -4.324700
  H    -143.973000   11.396200   -2.556150
  H    -145.361000    3.229810   -3.062970

 Total Charge           Charge          ....    0
 Multiplicity           Mult            ....    1
 Number of Electrons    NEL             ....  134
 Basis Dimension        Dim             ....  322

ORBITAL ENERGIES
----------------

  NO   OCC          E(Eh)            E(eV)
   0   2.0000     -88.968001     -2420.9424
   1   2.0000     -88.964075     -2420.8356
   2   2.0000     -10.333966      -281.2015
   3   2.0000     -10.328101      -281.0419
   4   2.0000     -10.316787      -280.7340
   5   2.0000     -10.314386      -280.6687
   6   2.0000     -10.308463      -280.5075
   7   2.0000     -10.301347      -280.3139
   8   2.0000     -10.296437      -280.1803
   9   2.0000     -10.293218      -280.0927
  10   2.0000     -10.289761      -279.9986
  11   2.0000     -10.286026      -279.8970
  12   2.0000     -10.283775      -279.8357
  13   2.0000     -10.282101      -279.7902
  14   2.0000     -10.281097      -279.7629
  15   2.0000     -10.274082      -279.5720
  16   2.0000      -8.081495      -219.9087
  17   2.0000      -8.078112      -219.8166
  18   2.0000      -6.040167      -164.3613
  19   2.0000      -6.036834      -164.2706
  20   2.0000      -6.036161      -164.2523
  21   2.0000      -6.032758      -164.1597
  22   2.0000      -6.032144      -164.1430
  23   2.0000      -6.028624      -164.0472
  24   2.0000      -1.000247       -27.2181
  25   2.0000      -0.978186       -26.6178
  26   2.0000      -0.912550       -24.8317
  27   2.0000      -0.901718       -24.5370
  28   2.0000      -0.869434       -23.6585
  29   2.0000      -0.845244       -23.0003
  30   2.0000      -0.838584       -22.8190
  31   2.0000      -0.817355       -22.2414
  32   2.0000      -0.782176       -21.2841
  33   2.0000      -0.771289       -20.9878
  34   2.0000      -0.707166       -19.2430
  35   2.0000      -0.698219       -18.9995
  36   2.0000      -0.689402       -18.7596
  37   2.0000      -0.661984       -18.0135
  38   2.0000      -0.642703       -17.4888
  39   2.0000      -0.619651       -16.8616
  40   2.0000      -0.594168       -16.1681
  41   2.0000      -0.577027       -15.7017
  42   2.0000      -0.567234       -15.4352
  43   2.0000      -0.548010       -14.9121
  44   2.0000      -0.541092       -14.7239
  45   2.0000      -0.523579       -14.2473
  46   2.0000      -0.514032       -13.9875
  47   2.0000      -0.510105       -13.8807
  48   2.0000      -0.503506       -13.7011
  49   2.0000      -0.502180       -13.6650
  50   2.0000      -0.488597       -13.2954
  51   2.0000      -0.473546       -12.8859
  52   2.0000      -0.472197       -12.8491
  53   2.0000      -0.462636       -12.5890
  54   2.0000      -0.458919       -12.4878
  55   2.0000      -0.446117       -12.1395
  56   2.0000      -0.444300       -12.0900
  57   2.0000      -0.432409       -11.7665
  58   2.0000      -0.427129       -11.6228
  59   2.0000      -0.425829       -11.5874
  60   2.0000      -0.416595       -11.3361
  61   2.0000      -0.414807       -11.2875
  62   2.0000      -0.409605       -11.1459
  63   2.0000      -0.337686        -9.1889
  64   2.0000      -0.327476        -8.9111
  65   2.0000      -0.321667        -8.7530
  66   2.0000      -0.310520        -8.4497
  67   0.0000       0.040941         1.1141
  68   0.0000       0.047472         1.2918
  69   0.0000       0.110728         3.0131
  70   0.0000       0.118380         3.2213
  71   0.0000       0.124496         3.3877

MULLIKEN ATOMIC CHARGES
-----------------------
   0 S :    0.119265
   1 C :   -0.086837
   2 C :   -0.121325
   3 C :    0.065103
   4 C :   -0.160212
   5 H :    0.003202
   6 C :    0.104206
   7 H :   -0.010392
   8 H :    0.013861
   9 C :   -0.083584
  10 H :    0.025367
  11 H :    0.023991
  12 C :   -0.023183
  13 H :    0.017234
  14 H :    0.035076
  15 H :    0.050755
  16 S :    0.100122
  17 C :   -0.058265
  18 C :   -0.013871
  19 C :   -0.027456
  20 C :   -0.186614
  21 H :    0.003311
  22 C :    0.084119
  23 H :    0.029794
  24 H :    0.020024
  25 C :   -0.094964
  26 H :    0.017737
  27 H :    0.037805
  28 C :   -0.060261
  29 H :    0.050912
  30 H :    0.030501
  31 H :    0.024138
  32 H :    0.027273
  33 H :    0.043167
Sum of atomic charges:   -0.0000000

LOEWDIN ATOMIC CHARGES
----------------------
   0 S :    0.397729
   1 C :   -0.186469
   2 C :   -0.058216
   3 C :   -0.048462
   4 C :   -0.191313
   5 H :    0.026304
   6 C :   -0.027607
   7 H :    0.016688
   8 H :    0.023616
   9 C :   -0.034822
  10 H :    0.023558
  11 H :    0.019550
  12 C :   -0.060369
  13 H :    0.016481
  14 H :    0.024420
  15 H :    0.039205
  16 S :    0.381259
  17 C :   -0.161308
  18 C :   -0.059103
  19 C :   -0.046739
  20 C :   -0.198706
  21 H :    0.023918
  22 C :   -0.034452
  23 H :    0.034246
  24 H :    0.027901
  25 C :   -0.046983
  26 H :    0.017572
  27 H :    0.030079
  28 C :   -0.071427
  29 H :    0.036575
  30 H :    0.018529
  31 H :    0.025138
  32 H :    0.021382
  33 H :    0.021829

  Mayer bond orders larger than 0.100000
B(  0-S ,  1-C ) :   1.1337 B(  0-S ,  4-C ) :   1.1470 B(  1-C ,  2-C ) :   1.6152
B(  1-C ,  4-C ) :   0.1018 B(  1-C , 32-H ) :   0.9704 B(  2-C ,  3-C ) :   1.2385
B(  2-C ,  6-C ) :   1.0342 B(  3-C ,  4-C ) :   1.5801 B(  3-C ,  5-H ) :   0.9974
B(  4-C , 20-C ) :   1.0086 B(  6-C ,  7-H ) :   0.9307 B(  6-C ,  8-H ) :   0.9385
B(  6-C ,  9-C ) :   1.0614 B(  9-C , 10-H ) :   0.9575 B(  9-C , 11-H ) :   0.9574
B(  9-C , 12-C ) :   1.0806 B( 12-C , 13-H ) :   0.9747 B( 12-C , 14-H ) :   0.9740
B( 12-C , 15-H ) :   0.9740 B( 16-S , 17-C ) :   1.1317 B( 16-S , 20-C ) :   1.1341
B( 17-C , 18-C ) :   1.6511 B( 17-C , 33-H ) :   0.9653 B( 18-C , 19-C ) :   1.2092
B( 18-C , 21-H ) :   0.9941 B( 19-C , 20-C ) :   1.6439 B( 19-C , 22-C ) :   1.0350
B( 22-C , 23-H ) :   0.9354 B( 22-C , 24-H ) :   0.9351 B( 22-C , 25-C ) :   1.0742
B( 25-C , 26-H ) :   0.9555 B( 25-C , 27-H ) :   0.9558 B( 25-C , 28-C ) :   1.0705
B( 28-C , 29-H ) :   0.9758 B( 28-C , 30-H ) :   0.9766 B( 28-C , 31-H ) :   0.9726

Dispersion correction           -0.014470311
FINAL SINGLE POINT ENERGY     -1339.869672324351

DIPOLE MOMENT
-------------
                                X             Y             Z
Electronic contribution:     -9.67031     -11.91146     -11.73114
Nuclear contribution   :      9.88531      11.92688      12.22621
                        -----------------------------------------
Total Dipole Moment    :      0.21501       0.01542       0.49507
                        -----------------------------------------
Magnitude (a.u.)       :      0.53996
Magnitude (Debye)      :      1.37248

Rotational constants in cm-1:     0.022819     0.007298     0.006508
Rotational constants in MHz :   684.093990   218.778679   195.112670

                             ****ORCA TERMINATED NORMALLY****
TOTAL RUN TIME: 0 days 0 hours 0 minutes 21 seconds 318 msec
