                         Program Version 4.2.1 -  RELEASE  -
|  1> ! wB97X-D3 SP def2-SVP
|  2> %pal
|  3> nprocs 24
|  4> end
|  5>
|  6> * xyz 0 1
|  7> S 	 -129.179 	 2.95546 	 6.03585
|  8> C 	 -128.037 	 2.63128 	 4.71308
|  9> C 	 -126.704 	 2.72177 	 5.11031
| 10> C 	 -126.591 	 2.9496 	 6.52432
| 11> C 	 -127.819 	 3.18834 	 7.11442
| 12> H 	 -125.677 	 2.97721 	 7.12646
| 13> C 	 -125.457 	 2.64149 	 4.20971
| 14> H 	 -124.617 	 2.83631 	 4.84549
| 15> H 	 -125.5 	 3.5252 	 3.56372
| 16> C 	 -125.324 	 1.34788 	 3.47966
| 17> H 	 -125.715 	 0.560335 	 4.06593
| 18> H 	 -125.908 	 1.49123 	 2.56863
| 19> C 	 -123.868 	 0.938731 	 3.2718
| 20> H 	 -123.882 	 0.0355639 	 2.65942
| 21> H 	 -123.284 	 1.66985 	 2.76671
| 22> H 	 -123.31 	 0.708868 	 4.18264
| 23> S 	 -129.075 	 5.00794 	 8.70679
| 24> C 	 -128.675 	 5.00479 	 10.3917
| 25> C 	 -127.784 	 3.97743 	 10.8125
| 26> C 	 -127.538 	 3.11233 	 9.67582
| 27> C 	 -128.014 	 3.63558 	 8.47619
| 28> H 	 -127.433 	 3.82766 	 11.8278
| 29> C 	 -126.728 	 1.8349 	 9.91918
| 30> H 	 -125.92 	 1.89191 	 10.7022
| 31> H 	 -126.129 	 1.58455 	 9.04265
| 32> C 	 -127.587 	 0.545052 	 10.1563
| 33> H 	 -126.876 	 -0.295486 	 10.3339
| 34> H 	 -128.035 	 0.324375 	 9.27345
| 35> C 	 -128.53 	 0.557366 	 11.4014
| 36> H 	 -127.944 	 0.835751 	 12.3371
| 37> H 	 -129.095 	 -0.396784 	 11.5271
| 38> H 	 -129.335 	 1.32178 	 11.275
| 39> H 	 -128.318 	 2.48677 	 3.67909
| 40> H 	 -129.189 	 5.61647 	 11.0885
| 41> *
| 42>
| 43>                          ****END OF INPUT****

CARTESIAN COORDINATES (ANGSTROEM)
---------------------------------
  S    -129.179000    2.955460    6.035850
  C    -128.037000    2.631280    4.713080
  C    -126.704000    2.721770    5.110310
  C    -126.591000    2.949600    6.524320
  C    -127.819000    3.188340    7.114420
  H    -125.677000    2.977210    7.126460
  C    -125.457000    2.641490    4.209710
  H    -124.617000    2.836310    4.845490
  H    -125.500000    3.525200    3.563720
  C    -125.324000    1.347880    3.479660
  H    -125.715000    0.560335    4.065930
  H    -125.908000    1.491230    2.568630
  C    -123.868000    0.938731    3.271800
  H    -123.882000    0.035564    2.659420
  H    -123.284000    1.669850    2.766710
  H    -123.310000    0.708868    4.182640
  S    -129.075000    5.007940    8.706790
  C    -128.675000    5.004790   10.391700
  C    -127.784000    3.977430   10.812500
  C    -127.538000    3.112330    9.675820
  C    -128.014000    3.635580    8.476190
  H    -127.433000    3.827660   11.827800
  C    -126.728000    1.834900    9.919180
  H    -125.920000    1.891910   10.702200
  H    -126.129000    1.584550    9.042650
  C    -127.587000    0.545052   10.156300
  H    -126.876000   -0.295486   10.333900
  H    -128.035000    0.324375    9.273450
  C    -128.530000    0.557366   11.401400
  H    -127.944000    0.835751   12.337100
  H    -129.095000   -0.396784   11.527100
  H    -129.335000    1.321780   11.275000
  H    -128.318000    2.486770    3.679090
  H    -129.189000    5.616470   11.088500

 Total Charge           Charge          ....    0
 Multiplicity           Mult            ....    1
 Number of Electrons    NEL             ....  134
 Basis Dimension        Dim             ....  322

ORBITAL ENERGIES
----------------

  NO   OCC          E(Eh)            E(eV)
   0   2.0000     -88.969588     -2420.9856
   1   2.0000     -88.968979     -2420.9690
   2   2.0000     -10.326459      -280.9972
   3   2.0000     -10.323982      -280.9298
   4   2.0000     -10.316951      -280.7385
   5   2.0000     -10.313873      -280.6548
   6   2.0000     -10.306607      -280.4570
   7   2.0000     -10.302806      -280.3536
   8   2.0000     -10.299993      -280.2771
   9   2.0000     -10.296460      -280.1809
  10   2.0000     -10.294319      -280.1227
  11   2.0000     -10.287695      -279.9424
  12   2.0000     -10.285085      -279.8714
  13   2.0000     -10.282107      -279.7904
  14   2.0000     -10.280596      -279.7492
  15   2.0000     -10.275927      -279.6222
  16   2.0000      -8.084536      -219.9914
  17   2.0000      -8.083083      -219.9519
  18   2.0000      -6.042865      -164.4347
  19   2.0000      -6.041641      -164.4014
  20   2.0000      -6.039110      -164.3325
  21   2.0000      -6.037786      -164.2965
  22   2.0000      -6.035381      -164.2311
  23   2.0000      -6.033737      -164.1863
  24   2.0000      -1.004304       -27.3285
  25   2.0000      -0.978427       -26.6243
  26   2.0000      -0.917700       -24.9719
  27   2.0000      -0.899992       -24.4900
  28   2.0000      -0.865542       -23.5526
  29   2.0000      -0.849819       -23.1247
  30   2.0000      -0.843006       -22.9394
  31   2.0000      -0.807727       -21.9794
  32   2.0000      -0.782836       -21.3021
  33   2.0000      -0.770030       -20.9536
  34   2.0000      -0.709020       -19.2934
  35   2.0000      -0.701933       -19.1006
  36   2.0000      -0.684519       -18.6267
  37   2.0000      -0.666384       -18.1332
  38   2.0000      -0.638640       -17.3783
  39   2.0000      -0.614275       -16.7153
  40   2.0000      -0.593355       -16.1460
  41   2.0000      -0.570214       -15.5163
  42   2.0000      -0.561709       -15.2849
  43   2.0000      -0.548281       -14.9195
  44   2.0000      -0.536544       -14.6001
  45   2.0000      -0.530282       -14.4297
  46   2.0000      -0.518730       -14.1154
  47   2.0000      -0.507818       -13.8184
  48   2.0000      -0.496047       -13.4981
  49   2.0000      -0.492818       -13.4103
  50   2.0000      -0.483010       -13.1434
  51   2.0000      -0.475382       -12.9358
  52   2.0000      -0.470381       -12.7997
  53   2.0000      -0.467967       -12.7340
  54   2.0000      -0.460560       -12.5325
  55   2.0000      -0.452579       -12.3153
  56   2.0000      -0.445982       -12.1358
  57   2.0000      -0.439197       -11.9512
  58   2.0000      -0.432381       -11.7657
  59   2.0000      -0.427412       -11.6305
  60   2.0000      -0.421514       -11.4700
  61   2.0000      -0.413231       -11.2446
  62   2.0000      -0.409812       -11.1516
  63   2.0000      -0.341518        -9.2932
  64   2.0000      -0.332743        -9.0544
  65   2.0000      -0.331286        -9.0148
  66   2.0000      -0.286413        -7.7937
  67   0.0000       0.028271         0.7693
  68   0.0000       0.066733         1.8159
  69   0.0000       0.106014         2.8848
  70   0.0000       0.119453         3.2505
  71   0.0000       0.130515         3.5515

MULLIKEN ATOMIC CHARGES
-----------------------
   0 S :    0.111746
   1 C :   -0.123118
   2 C :   -0.114568
   3 C :    0.019202
   4 C :   -0.154088
   5 H :    0.025540
   6 C :    0.097772
   7 H :   -0.000510
   8 H :    0.040658
   9 C :   -0.047079
  10 H :    0.028753
  11 H :    0.034367
  12 C :   -0.054065
  13 H :    0.031771
  14 H :    0.021530
  15 H :    0.034908
  16 S :    0.125482
  17 C :   -0.087074
  18 C :   -0.030541
  19 C :   -0.024893
  20 C :   -0.162848
  21 H :    0.027869
  22 C :    0.026359
  23 H :    0.033746
  24 H :    0.012783
  25 C :   -0.035634
  26 H :    0.026923
  27 H :    0.013594
  28 C :   -0.094993
  29 H :    0.038039
  30 H :    0.045325
  31 H :    0.044755
  32 H :    0.041653
  33 H :    0.046637
Sum of atomic charges:    0.0000000

LOEWDIN ATOMIC CHARGES
----------------------
   0 S :    0.392067
   1 C :   -0.197796
   2 C :   -0.053596
   3 C :   -0.064446
   4 C :   -0.193324
   5 H :    0.034906
   6 C :   -0.028864
   7 H :    0.022633
   8 H :    0.036329
   9 C :   -0.039032
  10 H :    0.024209
  11 H :    0.028185
  12 C :   -0.061392
  13 H :    0.028304
  14 H :    0.017312
  15 H :    0.027168
  16 S :    0.420602
  17 C :   -0.186219
  18 C :   -0.061908
  19 C :   -0.053172
  20 C :   -0.206413
  21 H :    0.033784
  22 C :   -0.037806
  23 H :    0.033064
  24 H :    0.028218
  25 C :   -0.029751
  26 H :    0.027739
  27 H :    0.009494
  28 C :   -0.079465
  29 H :    0.029534
  30 H :    0.030674
  31 H :    0.027412
  32 H :    0.024258
  33 H :    0.017290

  Mayer bond orders larger than 0.100000
B(  0-S ,  1-C ) :   1.1177 B(  0-S ,  4-C ) :   1.1467 B(  1-C ,  2-C ) :   1.6271
B(  1-C , 32-H ) :   0.9706 B(  2-C ,  3-C ) :   1.2354 B(  2-C ,  6-C ) :   1.0131
B(  3-C ,  4-C ) :   1.5880 B(  3-C ,  5-H ) :   0.9854 B(  4-C , 20-C ) :   1.0478
B(  6-C ,  7-H ) :   0.9430 B(  6-C ,  8-H ) :   0.9326 B(  6-C ,  9-C ) :   1.0567
B(  9-C , 10-H ) :   0.9617 B(  9-C , 11-H ) :   0.9511 B(  9-C , 12-C ) :   1.0924
B( 12-C , 13-H ) :   0.9741 B( 12-C , 14-H ) :   0.9749 B( 12-C , 15-H ) :   0.9745
B( 16-S , 17-C ) :   1.1711 B( 16-S , 20-C ) :   1.1370 B( 17-C , 18-C ) :   1.5850
B( 17-C , 20-C ) :   0.1004 B( 17-C , 33-H ) :   0.9702 B( 18-C , 19-C ) :   1.2397
B( 18-C , 21-H ) :   0.9903 B( 19-C , 20-C ) :   1.5926 B( 19-C , 22-C ) :   1.0343
B( 22-C , 23-H ) :   0.9482 B( 22-C , 24-H ) :   0.9315 B( 22-C , 25-C ) :   1.0728
B( 25-C , 26-H ) :   0.9554 B( 25-C , 27-H ) :   0.9590 B( 25-C , 28-C ) :   1.0705
B( 28-C , 29-H ) :   0.9746 B( 28-C , 30-H ) :   0.9748 B( 28-C , 31-H ) :   0.9744

Dispersion correction           -0.014238914
FINAL SINGLE POINT ENERGY     -1339.875036770088

DIPOLE MOMENT
-------------
                                X             Y             Z
Electronic contribution:    -17.87319      18.43791       1.48117
Nuclear contribution   :     18.37725     -18.72525      -1.50269
                        -----------------------------------------
Total Dipole Moment    :      0.50406      -0.28734      -0.02152
                        -----------------------------------------
Magnitude (a.u.)       :      0.58060
Magnitude (Debye)      :      1.47577

Rotational constants in cm-1:     0.020772     0.007665     0.006508
Rotational constants in MHz :   622.737424   229.791910   195.119163

                             ****ORCA TERMINATED NORMALLY****
TOTAL RUN TIME: 0 days 0 hours 0 minutes 21 seconds 338 msec
