                         Program Version 4.2.1 -  RELEASE  -
|  1> ! wB97X-D3 SP def2-SVP
|  2> %pal
|  3> nprocs 24
|  4> end
|  5>
|  6> * xyz 0 1
|  7> S 	 -45.6174 	 -1.5787 	 -22.3282
|  8> C 	 -46.9676 	 -2.52632 	 -21.7702
|  9> C 	 -46.5503 	 -3.46075 	 -20.8303
| 10> C 	 -45.1073 	 -3.35842 	 -20.6446
| 11> C 	 -44.4681 	 -2.34914 	 -21.3185
| 12> H 	 -44.675 	 -4.14401 	 -20.012
| 13> C 	 -47.3944 	 -4.47253 	 -20.0889
| 14> H 	 -48.1652 	 -3.94388 	 -19.6009
| 15> H 	 -46.8122 	 -4.87187 	 -19.2492
| 16> C 	 -47.7368 	 -5.72422 	 -20.9
| 17> H 	 -48.5781 	 -6.19925 	 -20.361
| 18> H 	 -47.9937 	 -5.48137 	 -21.9407
| 19> C 	 -46.5345 	 -6.67913 	 -20.9398
| 20> H 	 -46.2618 	 -6.79952 	 -19.9084
| 21> H 	 -46.918 	 -7.60441 	 -21.5157
| 22> H 	 -45.6417 	 -6.33579 	 -21.4788
| 23> S 	 -42.1719 	 -1.54641 	 -22.6933
| 24> C 	 -40.7303 	 -1.3962 	 -21.8409
| 25> C 	 -40.8704 	 -1.79509 	 -20.512
| 26> C 	 -42.1617 	 -2.13177 	 -20.2027
| 27> C 	 -43.0374 	 -1.99758 	 -21.2594
| 28> H 	 -40.0754 	 -1.77901 	 -19.7954
| 29> C 	 -42.6297 	 -2.16831 	 -18.6811
| 30> H 	 -43.5434 	 -2.76608 	 -18.5344
| 31> H 	 -42.9687 	 -1.09803 	 -18.5328
| 32> C 	 -41.5874 	 -2.46306 	 -17.5964
| 33> H 	 -40.7759 	 -1.80043 	 -17.5481
| 34> H 	 -41.1703 	 -3.45907 	 -17.9283
| 35> C 	 -42.1518 	 -2.45581 	 -16.0738
| 36> H 	 -43.0541 	 -3.15554 	 -15.9853
| 37> H 	 -42.4968 	 -1.50778 	 -15.7385
| 38> H 	 -41.4993 	 -2.77377 	 -15.1993
| 39> H 	 -48.0265 	 -2.42065 	 -22.0748
| 40> H 	 -39.7345 	 -1.06051 	 -22.0784
| 41> *
| 42>
| 43>                          ****END OF INPUT****

CARTESIAN COORDINATES (ANGSTROEM)
---------------------------------
  S    -45.617400   -1.578700  -22.328200
  C    -46.967600   -2.526320  -21.770200
  C    -46.550300   -3.460750  -20.830300
  C    -45.107300   -3.358420  -20.644600
  C    -44.468100   -2.349140  -21.318500
  H    -44.675000   -4.144010  -20.012000
  C    -47.394400   -4.472530  -20.088900
  H    -48.165200   -3.943880  -19.600900
  H    -46.812200   -4.871870  -19.249200
  C    -47.736800   -5.724220  -20.900000
  H    -48.578100   -6.199250  -20.361000
  H    -47.993700   -5.481370  -21.940700
  C    -46.534500   -6.679130  -20.939800
  H    -46.261800   -6.799520  -19.908400
  H    -46.918000   -7.604410  -21.515700
  H    -45.641700   -6.335790  -21.478800
  S    -42.171900   -1.546410  -22.693300
  C    -40.730300   -1.396200  -21.840900
  C    -40.870400   -1.795090  -20.512000
  C    -42.161700   -2.131770  -20.202700
  C    -43.037400   -1.997580  -21.259400
  H    -40.075400   -1.779010  -19.795400
  C    -42.629700   -2.168310  -18.681100
  H    -43.543400   -2.766080  -18.534400
  H    -42.968700   -1.098030  -18.532800
  C    -41.587400   -2.463060  -17.596400
  H    -40.775900   -1.800430  -17.548100
  H    -41.170300   -3.459070  -17.928300
  C    -42.151800   -2.455810  -16.073800
  H    -43.054100   -3.155540  -15.985300
  H    -42.496800   -1.507780  -15.738500
  H    -41.499300   -2.773770  -15.199300
  H    -48.026500   -2.420650  -22.074800
  H    -39.734500   -1.060510  -22.078400

 Total Charge           Charge          ....    0
 Multiplicity           Mult            ....    1
 Number of Electrons    NEL             ....  134
 Basis Dimension        Dim             ....  322

ORBITAL ENERGIES
----------------

  NO   OCC          E(Eh)            E(eV)
   0   2.0000     -88.973507     -2421.0922
   1   2.0000     -88.966036     -2420.8889
   2   2.0000     -10.329474      -281.0793
   3   2.0000     -10.325305      -280.9658
   4   2.0000     -10.315677      -280.7038
   5   2.0000     -10.312956      -280.6298
   6   2.0000     -10.300869      -280.3009
   7   2.0000     -10.300239      -280.2838
   8   2.0000     -10.300202      -280.2827
   9   2.0000     -10.297859      -280.2190
  10   2.0000     -10.293481      -280.0999
  11   2.0000     -10.292261      -280.0667
  12   2.0000     -10.289724      -279.9976
  13   2.0000     -10.288654      -279.9685
  14   2.0000     -10.285396      -279.8799
  15   2.0000     -10.283208      -279.8203
  16   2.0000      -8.089118      -220.1161
  17   2.0000      -8.081394      -219.9059
  18   2.0000      -6.047465      -164.5599
  19   2.0000      -6.043371      -164.4485
  20   2.0000      -6.040135      -164.3604
  21   2.0000      -6.040049      -164.3581
  22   2.0000      -6.035637      -164.2380
  23   2.0000      -6.032150      -164.1431
  24   2.0000      -1.016630       -27.6639
  25   2.0000      -0.992922       -27.0188
  26   2.0000      -0.916998       -24.9528
  27   2.0000      -0.900281       -24.4979
  28   2.0000      -0.869198       -23.6521
  29   2.0000      -0.851399       -23.1677
  30   2.0000      -0.842539       -22.9267
  31   2.0000      -0.811553       -22.0835
  32   2.0000      -0.781679       -21.2706
  33   2.0000      -0.773777       -21.0555
  34   2.0000      -0.706394       -19.2220
  35   2.0000      -0.702419       -19.1138
  36   2.0000      -0.696472       -18.9520
  37   2.0000      -0.658535       -17.9196
  38   2.0000      -0.634757       -17.2726
  39   2.0000      -0.622900       -16.9500
  40   2.0000      -0.595320       -16.1995
  41   2.0000      -0.580833       -15.8053
  42   2.0000      -0.560897       -15.2628
  43   2.0000      -0.555714       -15.1218
  44   2.0000      -0.543456       -14.7882
  45   2.0000      -0.516463       -14.0537
  46   2.0000      -0.511694       -13.9239
  47   2.0000      -0.508055       -13.8249
  48   2.0000      -0.502286       -13.6679
  49   2.0000      -0.499677       -13.5969
  50   2.0000      -0.483872       -13.1668
  51   2.0000      -0.481977       -13.1153
  52   2.0000      -0.472495       -12.8573
  53   2.0000      -0.468729       -12.7548
  54   2.0000      -0.457936       -12.4611
  55   2.0000      -0.452790       -12.3210
  56   2.0000      -0.446620       -12.1532
  57   2.0000      -0.435723       -11.8566
  58   2.0000      -0.428000       -11.6465
  59   2.0000      -0.422144       -11.4871
  60   2.0000      -0.418259       -11.3814
  61   2.0000      -0.416913       -11.3448
  62   2.0000      -0.414131       -11.2691
  63   2.0000      -0.353801        -9.6274
  64   2.0000      -0.339001        -9.2247
  65   2.0000      -0.327168        -8.9027
  66   2.0000      -0.287217        -7.8156
  67   0.0000       0.026085         0.7098
  68   0.0000       0.081898         2.2286
  69   0.0000       0.113184         3.0799
  70   0.0000       0.122088         3.3222
  71   0.0000       0.131894         3.5890

MULLIKEN ATOMIC CHARGES
-----------------------
   0 S :    0.107109
   1 C :   -0.132297
   2 C :   -0.135336
   3 C :   -0.000490
   4 C :   -0.110163
   5 H :    0.015173
   6 C :    0.082748
   7 H :    0.025406
   8 H :    0.002732
   9 C :   -0.060427
  10 H :    0.038627
  11 H :    0.034611
  12 C :   -0.080252
  13 H :    0.021707
  14 H :    0.051885
  15 H :    0.050797
  16 S :    0.146232
  17 C :   -0.057578
  18 C :   -0.067994
  19 C :   -0.009380
  20 C :   -0.148740
  21 H :    0.007248
  22 C :    0.015330
  23 H :    0.027919
  24 H :    0.051126
  25 C :   -0.070311
  26 H :    0.030935
  27 H :    0.040311
  28 C :   -0.090105
  29 H :    0.034743
  30 H :    0.028541
  31 H :    0.047363
  32 H :    0.058378
  33 H :    0.044152
Sum of atomic charges:    0.0000000

LOEWDIN ATOMIC CHARGES
----------------------
   0 S :    0.422752
   1 C :   -0.208990
   2 C :   -0.062530
   3 C :   -0.072900
   4 C :   -0.206944
   5 H :    0.028360
   6 C :   -0.034653
   7 H :    0.026225
   8 H :    0.028405
   9 C :   -0.037905
  10 H :    0.028620
  11 H :    0.023862
  12 C :   -0.068626
  13 H :    0.017526
  14 H :    0.039330
  15 H :    0.028144
  16 S :    0.457502
  17 C :   -0.210015
  18 C :   -0.073888
  19 C :   -0.058847
  20 C :   -0.209479
  21 H :    0.027073
  22 C :   -0.031943
  23 H :    0.027749
  24 H :    0.041974
  25 C :   -0.042418
  26 H :    0.014185
  27 H :    0.030881
  28 C :   -0.077466
  29 H :    0.029224
  30 H :    0.018051
  31 H :    0.036095
  32 H :    0.037091
  33 H :    0.033560

  Mayer bond orders larger than 0.100000
B(  0-S ,  1-C ) :   1.1440 B(  0-S ,  4-C ) :   1.1564 B(  1-C ,  2-C ) :   1.6010
B(  1-C , 32-H ) :   0.9657 B(  2-C ,  3-C ) :   1.2814 B(  2-C ,  6-C ) :   1.0191
B(  3-C ,  4-C ) :   1.5448 B(  3-C ,  5-H ) :   0.9814 B(  4-C , 20-C ) :   1.0328
B(  6-C ,  7-H ) :   0.9385 B(  6-C ,  8-H ) :   0.9408 B(  6-C ,  9-C ) :   1.0576
B(  9-C , 10-H ) :   0.9553 B(  9-C , 11-H ) :   0.9592 B(  9-C , 12-C ) :   1.0714
B( 12-C , 13-H ) :   0.9756 B( 12-C , 14-H ) :   0.9724 B( 12-C , 15-H ) :   0.9755
B( 16-S , 17-C ) :   1.1875 B( 16-S , 20-C ) :   1.1604 B( 17-C , 18-C ) :   1.5483
B( 17-C , 20-C ) :   0.1098 B( 17-C , 33-H ) :   0.9634 B( 18-C , 19-C ) :   1.3232
B( 18-C , 21-H ) :   0.9879 B( 19-C , 20-C ) :   1.5635 B( 19-C , 22-C ) :   1.0143
B( 22-C , 23-H ) :   0.9414 B( 22-C , 24-H ) :   0.9409 B( 22-C , 25-C ) :   1.0616
B( 25-C , 26-H ) :   0.9501 B( 25-C , 27-H ) :   0.9633 B( 25-C , 28-C ) :   1.0559
B( 28-C , 29-H ) :   0.9790 B( 28-C , 30-H ) :   0.9783 B( 28-C , 31-H ) :   0.9786

Dispersion correction           -0.013845594
FINAL SINGLE POINT ENERGY     -1339.860926233210

DIPOLE MOMENT
-------------
                                X             Y             Z
Electronic contribution:      4.41297      16.73326     -23.42866
Nuclear contribution   :     -4.46663     -16.97829      24.00672
                        -----------------------------------------
Total Dipole Moment    :     -0.05366      -0.24503       0.57806
                        -----------------------------------------
Magnitude (a.u.)       :      0.63014
Magnitude (Debye)      :      1.60168

Rotational constants in cm-1:     0.016226     0.008904     0.006651
Rotational constants in MHz :   486.438750   266.934336   199.380903

                             ****ORCA TERMINATED NORMALLY****
TOTAL RUN TIME: 0 days 0 hours 0 minutes 21 seconds 348 msec
