                         Program Version 4.2.1 -  RELEASE  -
|  1> ! wB97X-D3 SP def2-SVP
|  2> %pal
|  3> nprocs 24
|  4> end
|  5>
|  6> * xyz 0 1
|  7> S 	 31.419 	 -33.5978 	 -113.972
|  8> C 	 31.2739 	 -32.5361 	 -112.634
|  9> C 	 32.1841 	 -31.5062 	 -112.763
| 10> C 	 33.0925 	 -31.6848 	 -113.809
| 11> C 	 32.86 	 -32.8089 	 -114.574
| 12> H 	 33.8431 	 -30.9436 	 -114.062
| 13> C 	 32.3219 	 -30.4686 	 -111.646
| 14> H 	 31.8489 	 -30.9453 	 -110.779
| 15> H 	 31.7686 	 -29.5939 	 -112.028
| 16> C 	 33.6538 	 -29.9365 	 -111.289
| 17> H 	 34.1518 	 -29.3715 	 -112.115
| 18> H 	 33.4401 	 -29.2306 	 -110.483
| 19> C 	 34.5315 	 -31.0589 	 -110.669
| 20> H 	 33.953 	 -31.5649 	 -110.012
| 21> H 	 34.6969 	 -31.7819 	 -111.481
| 22> H 	 35.3606 	 -30.6029 	 -110.135
| 23> S 	 32.7419 	 -33.1826 	 -117.276
| 24> C 	 34.1317 	 -33.6149 	 -118.146
| 25> C 	 35.1812 	 -33.8551 	 -117.371
| 26> C 	 34.9141 	 -33.5682 	 -115.992
| 27> C 	 33.5711 	 -33.251 	 -115.786
| 28> H 	 36.1567 	 -34.2331 	 -117.8
| 29> C 	 35.8871 	 -33.8733 	 -114.837
| 30> H 	 35.9207 	 -33.0592 	 -114.127
| 31> H 	 36.8802 	 -33.802 	 -115.185
| 32> C 	 35.6367 	 -35.295 	 -114.167
| 33> H 	 35.555 	 -36.0215 	 -114.99
| 34> H 	 34.6203 	 -35.2779 	 -113.774
| 35> C 	 36.672 	 -35.7223 	 -113.077
| 36> H 	 37.6837 	 -35.6826 	 -113.349
| 37> H 	 36.3647 	 -36.8162 	 -112.778
| 38> H 	 36.6859 	 -35.0249 	 -112.222
| 39> H 	 30.6137 	 -32.6119 	 -111.876
| 40> H 	 33.999 	 -33.8941 	 -119.162
| 41> *
| 42>
| 43>                          ****END OF INPUT****

CARTESIAN COORDINATES (ANGSTROEM)
---------------------------------
  S     31.419000  -33.597800  -113.972000
  C     31.273900  -32.536100  -112.634000
  C     32.184100  -31.506200  -112.763000
  C     33.092500  -31.684800  -113.809000
  C     32.860000  -32.808900  -114.574000
  H     33.843100  -30.943600  -114.062000
  C     32.321900  -30.468600  -111.646000
  H     31.848900  -30.945300  -110.779000
  H     31.768600  -29.593900  -112.028000
  C     33.653800  -29.936500  -111.289000
  H     34.151800  -29.371500  -112.115000
  H     33.440100  -29.230600  -110.483000
  C     34.531500  -31.058900  -110.669000
  H     33.953000  -31.564900  -110.012000
  H     34.696900  -31.781900  -111.481000
  H     35.360600  -30.602900  -110.135000
  S     32.741900  -33.182600  -117.276000
  C     34.131700  -33.614900  -118.146000
  C     35.181200  -33.855100  -117.371000
  C     34.914100  -33.568200  -115.992000
  C     33.571100  -33.251000  -115.786000
  H     36.156700  -34.233100  -117.800000
  C     35.887100  -33.873300  -114.837000
  H     35.920700  -33.059200  -114.127000
  H     36.880200  -33.802000  -115.185000
  C     35.636700  -35.295000  -114.167000
  H     35.555000  -36.021500  -114.990000
  H     34.620300  -35.277900  -113.774000
  C     36.672000  -35.722300  -113.077000
  H     37.683700  -35.682600  -113.349000
  H     36.364700  -36.816200  -112.778000
  H     36.685900  -35.024900  -112.222000
  H     30.613700  -32.611900  -111.876000
  H     33.999000  -33.894100  -119.162000

 Total Charge           Charge          ....    0
 Multiplicity           Mult            ....    1
 Number of Electrons    NEL             ....  134
 Basis Dimension        Dim             ....  322

ORBITAL ENERGIES
----------------

  NO   OCC          E(Eh)            E(eV)
   0   2.0000     -88.965963     -2420.8869
   1   2.0000     -88.960631     -2420.7418
   2   2.0000     -10.330084      -281.0959
   3   2.0000     -10.322860      -280.8993
   4   2.0000     -10.304394      -280.3968
   5   2.0000     -10.304025      -280.3868
   6   2.0000     -10.303493      -280.3723
   7   2.0000     -10.293953      -280.1127
   8   2.0000     -10.293829      -280.1093
   9   2.0000     -10.290808      -280.0271
  10   2.0000     -10.289319      -279.9866
  11   2.0000     -10.289231      -279.9842
  12   2.0000     -10.287512      -279.9374
  13   2.0000     -10.285904      -279.8937
  14   2.0000     -10.284829      -279.8644
  15   2.0000     -10.268362      -279.4163
  16   2.0000      -8.081143      -219.8991
  17   2.0000      -8.077777      -219.8075
  18   2.0000      -6.039478      -164.3426
  19   2.0000      -6.036089      -164.2503
  20   2.0000      -6.035437      -164.2326
  21   2.0000      -6.032215      -164.1449
  22   2.0000      -6.031899      -164.1363
  23   2.0000      -6.028646      -164.0478
  24   2.0000      -1.016158       -27.6511
  25   2.0000      -0.996356       -27.1122
  26   2.0000      -0.919600       -25.0236
  27   2.0000      -0.896550       -24.3964
  28   2.0000      -0.874098       -23.7854
  29   2.0000      -0.848171       -23.0799
  30   2.0000      -0.844254       -22.9733
  31   2.0000      -0.821218       -22.3465
  32   2.0000      -0.784409       -21.3449
  33   2.0000      -0.773262       -21.0415
  34   2.0000      -0.711743       -19.3675
  35   2.0000      -0.700144       -19.0519
  36   2.0000      -0.692525       -18.8446
  37   2.0000      -0.658458       -17.9176
  38   2.0000      -0.641580       -17.4583
  39   2.0000      -0.627320       -17.0702
  40   2.0000      -0.600231       -16.3331
  41   2.0000      -0.570340       -15.5197
  42   2.0000      -0.559722       -15.2308
  43   2.0000      -0.547270       -14.8920
  44   2.0000      -0.543736       -14.7958
  45   2.0000      -0.526394       -14.3239
  46   2.0000      -0.518933       -14.1209
  47   2.0000      -0.508653       -13.8412
  48   2.0000      -0.507872       -13.8199
  49   2.0000      -0.498658       -13.5692
  50   2.0000      -0.490530       -13.3480
  51   2.0000      -0.486499       -13.2383
  52   2.0000      -0.469615       -12.7789
  53   2.0000      -0.464557       -12.6412
  54   2.0000      -0.457113       -12.4387
  55   2.0000      -0.452349       -12.3090
  56   2.0000      -0.446970       -12.1627
  57   2.0000      -0.437091       -11.8939
  58   2.0000      -0.432333       -11.7644
  59   2.0000      -0.428305       -11.6548
  60   2.0000      -0.419716       -11.4211
  61   2.0000      -0.414002       -11.2656
  62   2.0000      -0.403032       -10.9671
  63   2.0000      -0.347779        -9.4635
  64   2.0000      -0.330848        -9.0028
  65   2.0000      -0.327350        -8.9076
  66   2.0000      -0.299447        -8.1484
  67   0.0000       0.039107         1.0641
  68   0.0000       0.068040         1.8515
  69   0.0000       0.124681         3.3928
  70   0.0000       0.128958         3.5091
  71   0.0000       0.134316         3.6549

MULLIKEN ATOMIC CHARGES
-----------------------
   0 S :    0.117672
   1 C :   -0.082580
   2 C :   -0.110286
   3 C :    0.043784
   4 C :   -0.155448
   5 H :    0.013888
   6 C :    0.058033
   7 H :    0.023199
   8 H :    0.041346
   9 C :   -0.104574
  10 H :    0.038718
  11 H :    0.027808
  12 C :    0.006116
  13 H :   -0.009953
  14 H :    0.038728
  15 H :    0.040884
  16 S :    0.115706
  17 C :   -0.078620
  18 C :   -0.046486
  19 C :   -0.058605
  20 C :   -0.165968
  21 H :    0.039929
  22 C :    0.104085
  23 H :    0.010727
  24 H :   -0.007870
  25 C :   -0.066277
  26 H :    0.027909
  27 H :    0.032093
  28 C :   -0.054301
  29 H :    0.021210
  30 H :    0.055781
  31 H :    0.033280
  32 H :    0.001209
  33 H :    0.048862
Sum of atomic charges:   -0.0000000

LOEWDIN ATOMIC CHARGES
----------------------
   0 S :    0.425410
   1 C :   -0.192367
   2 C :   -0.067581
   3 C :   -0.066188
   4 C :   -0.195496
   5 H :    0.033588
   6 C :   -0.035129
   7 H :    0.030949
   8 H :    0.038516
   9 C :   -0.047270
  10 H :    0.025728
  11 H :    0.027988
  12 C :   -0.055225
  13 H :    0.008138
  14 H :    0.031262
  15 H :    0.028185
  16 S :    0.444558
  17 C :   -0.197406
  18 C :   -0.079035
  19 C :   -0.054740
  20 C :   -0.216958
  21 H :    0.044562
  22 C :   -0.032121
  23 H :    0.025667
  24 H :    0.018839
  25 C :   -0.036148
  26 H :    0.024684
  27 H :    0.024878
  28 C :   -0.071738
  29 H :    0.014493
  30 H :    0.043747
  31 H :    0.028053
  32 H :    0.005377
  33 H :    0.022780

  Mayer bond orders larger than 0.100000
B(  0-S ,  1-C ) :   1.1561 B(  0-S ,  4-C ) :   1.1697 B(  1-C ,  2-C ) :   1.5732
B(  1-C ,  4-C ) :   0.1075 B(  1-C , 32-H ) :   0.9862 B(  2-C ,  3-C ) :   1.2864
B(  2-C ,  6-C ) :   1.0060 B(  3-C ,  4-C ) :   1.5473 B(  3-C ,  5-H ) :   0.9937
B(  4-C , 20-C ) :   0.9994 B(  6-C ,  7-H ) :   0.9492 B(  6-C ,  8-H ) :   0.9207
B(  6-C ,  9-C ) :   1.1071 B(  9-C , 10-H ) :   0.9453 B(  9-C , 11-H ) :   0.9466
B(  9-C , 12-C ) :   1.0743 B( 12-C , 13-H ) :   0.9682 B( 12-C , 14-H ) :   0.9723
B( 12-C , 15-H ) :   0.9752 B( 16-S , 17-C ) :   1.1723 B( 16-S , 20-C ) :   1.1770
B( 17-C , 18-C ) :   1.6059 B( 17-C , 33-H ) :   0.9671 B( 18-C , 19-C ) :   1.2511
B( 18-C , 21-H ) :   0.9844 B( 19-C , 20-C ) :   1.5821 B( 19-C , 22-C ) :   1.0600
B( 22-C , 23-H ) :   0.9290 B( 22-C , 24-H ) :   0.9273 B( 22-C , 25-C ) :   1.0463
B( 25-C , 26-H ) :   0.9586 B( 25-C , 27-H ) :   0.9578 B( 25-C , 28-C ) :   1.0676
B( 28-C , 29-H ) :   0.9776 B( 28-C , 30-H ) :   0.9739 B( 28-C , 31-H ) :   0.9747

Dispersion correction           -0.015005273
FINAL SINGLE POINT ENERGY     -1339.869095952580

DIPOLE MOMENT
-------------
                                X             Y             Z
Electronic contribution:    -18.12568      -2.33001     -21.00200
Nuclear contribution   :     18.50149       2.51065      21.32091
                        -----------------------------------------
Total Dipole Moment    :      0.37582       0.18064       0.31891
                        -----------------------------------------
Magnitude (a.u.)       :      0.52495
Magnitude (Debye)      :      1.33432

Rotational constants in cm-1:     0.017294     0.009719     0.007672
Rotational constants in MHz :   518.460007   291.380325   229.986856

                             ****ORCA TERMINATED NORMALLY****
TOTAL RUN TIME: 0 days 0 hours 0 minutes 22 seconds 302 msec
