                         Program Version 4.2.1 -  RELEASE  -
|  1> ! wB97X-D3 SP def2-SVP
|  2> %pal
|  3> nprocs 24
|  4> end
|  5>
|  6> * xyz 0 1
|  7> S 	 32.5267 	 -35.612 	 -129.267
|  8> C 	 32.9534 	 -34.0731 	 -128.52
|  9> C 	 32.7286 	 -33.0277 	 -129.406
| 10> C 	 32.0732 	 -33.4263 	 -130.624
| 11> C 	 31.8608 	 -34.7781 	 -130.706
| 12> H 	 31.8467 	 -32.7095 	 -131.333
| 13> C 	 33.0639 	 -31.5717 	 -129.151
| 14> H 	 32.1612 	 -31.113 	 -128.874
| 15> H 	 33.246 	 -31.0939 	 -130.107
| 16> C 	 34.1877 	 -31.2757 	 -128.059
| 17> H 	 34.2966 	 -30.2283 	 -127.961
| 18> H 	 33.7954 	 -31.5603 	 -127.044
| 19> C 	 35.5579 	 -31.8853 	 -128.383
| 20> H 	 36.3032 	 -31.6781 	 -127.532
| 21> H 	 35.5128 	 -32.9345 	 -128.35
| 22> H 	 35.8994 	 -31.5962 	 -129.309
| 23> S 	 29.8698 	 -36.5804 	 -131.467
| 24> C 	 29.5704 	 -36.7555 	 -133.162
| 25> C 	 30.5698 	 -36.1513 	 -133.867
| 26> C 	 31.468 	 -35.384 	 -133.082
| 27> C 	 31.1645 	 -35.4721 	 -131.773
| 28> H 	 30.4628 	 -36.0578 	 -134.93
| 29> C 	 32.5307 	 -34.5538 	 -133.684
| 30> H 	 32.8492 	 -33.9543 	 -132.928
| 31> H 	 32.1732 	 -33.9774 	 -134.481
| 32> C 	 33.8486 	 -35.3258 	 -134.144
| 33> H 	 33.5259 	 -36.3143 	 -134.541
| 34> H 	 34.4265 	 -35.6458 	 -133.291
| 35> C 	 34.8497 	 -34.634 	 -135.086
| 36> H 	 34.3075 	 -34.3619 	 -136.033
| 37> H 	 35.7632 	 -35.208 	 -135.248
| 38> H 	 35.0497 	 -33.6755 	 -134.555
| 39> H 	 33.4961 	 -33.9637 	 -127.611
| 40> H 	 28.8127 	 -37.3851 	 -133.655
| 41> *
| 42>
| 43>                          ****END OF INPUT****

CARTESIAN COORDINATES (ANGSTROEM)
---------------------------------
  S     32.526700  -35.612000  -129.267000
  C     32.953400  -34.073100  -128.520000
  C     32.728600  -33.027700  -129.406000
  C     32.073200  -33.426300  -130.624000
  C     31.860800  -34.778100  -130.706000
  H     31.846700  -32.709500  -131.333000
  C     33.063900  -31.571700  -129.151000
  H     32.161200  -31.113000  -128.874000
  H     33.246000  -31.093900  -130.107000
  C     34.187700  -31.275700  -128.059000
  H     34.296600  -30.228300  -127.961000
  H     33.795400  -31.560300  -127.044000
  C     35.557900  -31.885300  -128.383000
  H     36.303200  -31.678100  -127.532000
  H     35.512800  -32.934500  -128.350000
  H     35.899400  -31.596200  -129.309000
  S     29.869800  -36.580400  -131.467000
  C     29.570400  -36.755500  -133.162000
  C     30.569800  -36.151300  -133.867000
  C     31.468000  -35.384000  -133.082000
  C     31.164500  -35.472100  -131.773000
  H     30.462800  -36.057800  -134.930000
  C     32.530700  -34.553800  -133.684000
  H     32.849200  -33.954300  -132.928000
  H     32.173200  -33.977400  -134.481000
  C     33.848600  -35.325800  -134.144000
  H     33.525900  -36.314300  -134.541000
  H     34.426500  -35.645800  -133.291000
  C     34.849700  -34.634000  -135.086000
  H     34.307500  -34.361900  -136.033000
  H     35.763200  -35.208000  -135.248000
  H     35.049700  -33.675500  -134.555000
  H     33.496100  -33.963700  -127.611000
  H     28.812700  -37.385100  -133.655000

 Total Charge           Charge          ....    0
 Multiplicity           Mult            ....    1
 Number of Electrons    NEL             ....  134
 Basis Dimension        Dim             ....  322

ORBITAL ENERGIES
----------------

  NO   OCC          E(Eh)            E(eV)
   0   2.0000     -88.965565     -2420.8761
   1   2.0000     -88.965421     -2420.8722
   2   2.0000     -10.332342      -281.1573
   3   2.0000     -10.319625      -280.8113
   4   2.0000     -10.315770      -280.7064
   5   2.0000     -10.311393      -280.5873
   6   2.0000     -10.300578      -280.2930
   7   2.0000     -10.294100      -280.1167
   8   2.0000     -10.293534      -280.1013
   9   2.0000     -10.292012      -280.0599
  10   2.0000     -10.289892      -280.0022
  11   2.0000     -10.286134      -279.8999
  12   2.0000     -10.284922      -279.8670
  13   2.0000     -10.284727      -279.8616
  14   2.0000     -10.278902      -279.7031
  15   2.0000     -10.274562      -279.5850
  16   2.0000      -8.080955      -219.8940
  17   2.0000      -8.079360      -219.8506
  18   2.0000      -6.039418      -164.3409
  19   2.0000      -6.038031      -164.3032
  20   2.0000      -6.035418      -164.2321
  21   2.0000      -6.034051      -164.1949
  22   2.0000      -6.031623      -164.1288
  23   2.0000      -6.029966      -164.0837
  24   2.0000      -1.013670       -27.5834
  25   2.0000      -0.983875       -26.7726
  26   2.0000      -0.908887       -24.7321
  27   2.0000      -0.905791       -24.6478
  28   2.0000      -0.869669       -23.6649
  29   2.0000      -0.854331       -23.2475
  30   2.0000      -0.848861       -23.0987
  31   2.0000      -0.816257       -22.2115
  32   2.0000      -0.786919       -21.4132
  33   2.0000      -0.775532       -21.1033
  34   2.0000      -0.712309       -19.3829
  35   2.0000      -0.703830       -19.1522
  36   2.0000      -0.694350       -18.8942
  37   2.0000      -0.664851       -18.0915
  38   2.0000      -0.641483       -17.4556
  39   2.0000      -0.618706       -16.8358
  40   2.0000      -0.597827       -16.2677
  41   2.0000      -0.573923       -15.6172
  42   2.0000      -0.561896       -15.2900
  43   2.0000      -0.552967       -15.0470
  44   2.0000      -0.534295       -14.5389
  45   2.0000      -0.527624       -14.3574
  46   2.0000      -0.521604       -14.1936
  47   2.0000      -0.518266       -14.1027
  48   2.0000      -0.510391       -13.8884
  49   2.0000      -0.498124       -13.5547
  50   2.0000      -0.492425       -13.3996
  51   2.0000      -0.481347       -13.0981
  52   2.0000      -0.475757       -12.9460
  53   2.0000      -0.464393       -12.6368
  54   2.0000      -0.458676       -12.4812
  55   2.0000      -0.453037       -12.3278
  56   2.0000      -0.445027       -12.1098
  57   2.0000      -0.437789       -11.9128
  58   2.0000      -0.429748       -11.6940
  59   2.0000      -0.427702       -11.6384
  60   2.0000      -0.423131       -11.5140
  61   2.0000      -0.418251       -11.3812
  62   2.0000      -0.407188       -11.0802
  63   2.0000      -0.349871        -9.5205
  64   2.0000      -0.331783        -9.0283
  65   2.0000      -0.326680        -8.8894
  66   2.0000      -0.294799        -8.0219
  67   0.0000       0.034210         0.9309
  68   0.0000       0.070275         1.9123
  69   0.0000       0.110449         3.0055
  70   0.0000       0.126319         3.4373
  71   0.0000       0.132040         3.5930

MULLIKEN ATOMIC CHARGES
-----------------------
   0 S :    0.101562
   1 C :   -0.119796
   2 C :   -0.114174
   3 C :    0.058036
   4 C :   -0.156479
   5 H :   -0.010375
   6 C :    0.086453
   7 H :    0.027339
   8 H :    0.014507
   9 C :   -0.081950
  10 H :    0.021010
  11 H :    0.031392
  12 C :   -0.013430
  13 H :    0.039883
  14 H :    0.014460
  15 H :    0.021798
  16 S :    0.121570
  17 C :   -0.100878
  18 C :   -0.024084
  19 C :   -0.068443
  20 C :   -0.148167
  21 H :    0.013924
  22 C :    0.186328
  23 H :   -0.023236
  24 H :    0.010802
  25 C :   -0.113587
  26 H :    0.020386
  27 H :    0.023388
  28 C :   -0.047205
  29 H :    0.036620
  30 H :    0.052488
  31 H :    0.030619
  32 H :    0.043240
  33 H :    0.065997
Sum of atomic charges:   -0.0000000

LOEWDIN ATOMIC CHARGES
----------------------
   0 S :    0.379790
   1 C :   -0.196387
   2 C :   -0.056540
   3 C :   -0.054221
   4 C :   -0.167910
   5 H :    0.019811
   6 C :   -0.029904
   7 H :    0.030335
   8 H :    0.027886
   9 C :   -0.038172
  10 H :    0.019869
  11 H :    0.027455
  12 C :   -0.057718
  13 H :    0.038487
  14 H :    0.016046
  15 H :    0.015128
  16 S :    0.419129
  17 C :   -0.190971
  18 C :   -0.070635
  19 C :   -0.053762
  20 C :   -0.205890
  21 H :    0.028030
  22 C :   -0.016848
  23 H :    0.015823
  24 H :    0.024012
  25 C :   -0.042201
  26 H :    0.018287
  27 H :    0.022026
  28 C :   -0.068481
  29 H :    0.027250
  30 H :    0.031318
  31 H :    0.028324
  32 H :    0.021783
  33 H :    0.038853

  Mayer bond orders larger than 0.100000
B(  0-S ,  1-C ) :   1.1174 B(  0-S ,  4-C ) :   1.1375 B(  1-C ,  2-C ) :   1.6289
B(  1-C , 32-H ) :   0.9642 B(  2-C ,  3-C ) :   1.2419 B(  2-C ,  6-C ) :   1.0087
B(  3-C ,  4-C ) :   1.5755 B(  3-C ,  5-H ) :   1.0005 B(  4-C , 20-C ) :   1.0387
B(  6-C ,  7-H ) :   0.9319 B(  6-C ,  8-H ) :   0.9400 B(  6-C ,  9-C ) :   1.0727
B(  9-C , 10-H ) :   0.9551 B(  9-C , 11-H ) :   0.9517 B(  9-C , 12-C ) :   1.0749
B( 12-C , 13-H ) :   0.9719 B( 12-C , 14-H ) :   0.9740 B( 12-C , 15-H ) :   0.9754
B( 16-S , 17-C ) :   1.1498 B( 16-S , 20-C ) :   1.1349 B( 17-C , 18-C ) :   1.6293
B( 17-C , 33-H ) :   0.9632 B( 18-C , 19-C ) :   1.2326 B( 18-C , 21-H ) :   0.9860
B( 19-C , 20-C ) :   1.6093 B( 19-C , 22-C ) :   1.0630 B( 22-C , 23-H ) :   0.8995
B( 22-C , 24-H ) :   0.9302 B( 22-C , 25-C ) :   1.0446 B( 25-C , 26-H ) :   0.9632
B( 25-C , 27-H ) :   0.9552 B( 25-C , 28-C ) :   1.0771 B( 28-C , 29-H ) :   0.9759
B( 28-C , 30-H ) :   0.9724 B( 28-C , 31-H ) :   0.9743

Dispersion correction           -0.014239634
FINAL SINGLE POINT ENERGY     -1339.868768215644

DIPOLE MOMENT
-------------
                                X             Y             Z
Electronic contribution:    -20.76847     -17.86532       6.39482
Nuclear contribution   :     21.00846      18.45802      -6.72157
                        -----------------------------------------
Total Dipole Moment    :      0.23999       0.59269      -0.32675
                        -----------------------------------------
Magnitude (a.u.)       :      0.71808
Magnitude (Debye)      :      1.82522

Rotational constants in cm-1:     0.018974     0.008557     0.006632
Rotational constants in MHz :   568.823245   256.531309   198.825019

                             ****ORCA TERMINATED NORMALLY****
TOTAL RUN TIME: 0 days 0 hours 0 minutes 20 seconds 689 msec
