                         Program Version 4.2.1 -  RELEASE  -
|  1> ! wB97X-D3 SP def2-SVP
|  2> %pal
|  3> nprocs 24
|  4> end
|  5>
|  6> * xyz 0 1
|  7> S 	 -41.1815 	 -8.99298 	 4.86322
|  8> C 	 -42.3977 	 -9.87601 	 5.79726
|  9> C 	 -43.0572 	 -9.01337 	 6.63382
| 10> C 	 -42.4838 	 -7.68165 	 6.64653
| 11> C 	 -41.4998 	 -7.46304 	 5.68678
| 12> H 	 -42.7464 	 -6.9071 	 7.40478
| 13> C 	 -44.2736 	 -9.29601 	 7.41508
| 14> H 	 -44.7804 	 -9.99039 	 6.80459
| 15> H 	 -44.9107 	 -8.38711 	 7.55991
| 16> C 	 -43.9375 	 -9.85649 	 8.81572
| 17> H 	 -44.9032 	 -10.0455 	 9.35126
| 18> H 	 -43.3836 	 -10.854 	 8.83834
| 19> C 	 -43.0135 	 -8.87135 	 9.61537
| 20> H 	 -43.3714 	 -7.87609 	 9.93033
| 21> H 	 -42.7003 	 -9.40083 	 10.4867
| 22> H 	 -42.057 	 -8.77734 	 9.09436
| 23> S 	 -40.7238 	 -5.76577 	 3.64496
| 24> C 	 -39.7942 	 -4.35859 	 4.04439
| 25> C 	 -39.7908 	 -4.09209 	 5.39027
| 26> C 	 -40.4686 	 -5.13004 	 6.14013
| 27> C 	 -40.9044 	 -6.17226 	 5.33868
| 28> H 	 -39.2765 	 -3.20443 	 5.79849
| 29> C 	 -40.3796 	 -5.10148 	 7.63846
| 30> H 	 -39.8347 	 -5.99008 	 8.02888
| 31> H 	 -41.3813 	 -5.21545 	 8.04524
| 32> C 	 -39.9792 	 -3.76895 	 8.35015
| 33> H 	 -40.5762 	 -2.9389 	 8.02151
| 34> H 	 -38.9535 	 -3.49835 	 8.16848
| 35> C 	 -40.0753 	 -3.95629 	 9.90975
| 36> H 	 -39.4161 	 -4.63418 	 10.3402
| 37> H 	 -41.0179 	 -4.33799 	 10.347
| 38> H 	 -39.9096 	 -3.05093 	 10.5703
| 39> H 	 -42.9047 	 -10.8092 	 5.52078
| 40> H 	 -39.3628 	 -3.63615 	 3.30216
| 41> *
| 42>
| 43>                          ****END OF INPUT****

CARTESIAN COORDINATES (ANGSTROEM)
---------------------------------
  S    -41.181500   -8.992980    4.863220
  C    -42.397700   -9.876010    5.797260
  C    -43.057200   -9.013370    6.633820
  C    -42.483800   -7.681650    6.646530
  C    -41.499800   -7.463040    5.686780
  H    -42.746400   -6.907100    7.404780
  C    -44.273600   -9.296010    7.415080
  H    -44.780400   -9.990390    6.804590
  H    -44.910700   -8.387110    7.559910
  C    -43.937500   -9.856490    8.815720
  H    -44.903200  -10.045500    9.351260
  H    -43.383600  -10.854000    8.838340
  C    -43.013500   -8.871350    9.615370
  H    -43.371400   -7.876090    9.930330
  H    -42.700300   -9.400830   10.486700
  H    -42.057000   -8.777340    9.094360
  S    -40.723800   -5.765770    3.644960
  C    -39.794200   -4.358590    4.044390
  C    -39.790800   -4.092090    5.390270
  C    -40.468600   -5.130040    6.140130
  C    -40.904400   -6.172260    5.338680
  H    -39.276500   -3.204430    5.798490
  C    -40.379600   -5.101480    7.638460
  H    -39.834700   -5.990080    8.028880
  H    -41.381300   -5.215450    8.045240
  C    -39.979200   -3.768950    8.350150
  H    -40.576200   -2.938900    8.021510
  H    -38.953500   -3.498350    8.168480
  C    -40.075300   -3.956290    9.909750
  H    -39.416100   -4.634180   10.340200
  H    -41.017900   -4.337990   10.347000
  H    -39.909600   -3.050930   10.570300
  H    -42.904700  -10.809200    5.520780
  H    -39.362800   -3.636150    3.302160

 Total Charge           Charge          ....    0
 Multiplicity           Mult            ....    1
 Number of Electrons    NEL             ....  134
 Basis Dimension        Dim             ....  322

ORBITAL ENERGIES
----------------

  NO   OCC          E(Eh)            E(eV)
   0   2.0000     -88.967087     -2420.9175
   1   2.0000     -88.966282     -2420.8956
   2   2.0000     -10.334146      -281.2064
   3   2.0000     -10.328883      -281.0632
   4   2.0000     -10.318934      -280.7925
   5   2.0000     -10.313537      -280.6456
   6   2.0000     -10.306145      -280.4445
   7   2.0000     -10.299847      -280.2731
   8   2.0000     -10.297494      -280.2091
   9   2.0000     -10.296705      -280.1876
  10   2.0000     -10.296384      -280.1789
  11   2.0000     -10.296336      -280.1776
  12   2.0000     -10.295991      -280.1682
  13   2.0000     -10.290089      -280.0076
  14   2.0000     -10.282538      -279.8021
  15   2.0000     -10.277182      -279.6563
  16   2.0000      -8.082092      -219.9249
  17   2.0000      -8.080120      -219.8712
  18   2.0000      -6.040596      -164.3730
  19   2.0000      -6.038934      -164.3278
  20   2.0000      -6.036603      -164.2643
  21   2.0000      -6.034672      -164.2118
  22   2.0000      -6.032793      -164.1606
  23   2.0000      -6.030666      -164.1028
  24   2.0000      -1.005860       -27.3708
  25   2.0000      -0.983971       -26.7752
  26   2.0000      -0.913368       -24.8540
  27   2.0000      -0.907756       -24.7013
  28   2.0000      -0.867905       -23.6169
  29   2.0000      -0.849739       -23.1226
  30   2.0000      -0.837670       -22.7942
  31   2.0000      -0.815051       -22.1787
  32   2.0000      -0.783885       -21.3306
  33   2.0000      -0.773639       -21.0518
  34   2.0000      -0.718012       -19.5381
  35   2.0000      -0.700876       -19.0718
  36   2.0000      -0.697228       -18.9725
  37   2.0000      -0.653837       -17.7918
  38   2.0000      -0.630935       -17.1686
  39   2.0000      -0.617005       -16.7896
  40   2.0000      -0.597654       -16.2630
  41   2.0000      -0.573553       -15.6072
  42   2.0000      -0.568128       -15.4595
  43   2.0000      -0.549595       -14.9552
  44   2.0000      -0.538810       -14.6618
  45   2.0000      -0.520305       -14.1582
  46   2.0000      -0.513149       -13.9635
  47   2.0000      -0.505623       -13.7587
  48   2.0000      -0.503313       -13.6958
  49   2.0000      -0.500814       -13.6278
  50   2.0000      -0.483824       -13.1655
  51   2.0000      -0.479165       -13.0387
  52   2.0000      -0.467647       -12.7253
  53   2.0000      -0.461695       -12.5634
  54   2.0000      -0.460207       -12.5229
  55   2.0000      -0.455926       -12.4064
  56   2.0000      -0.439360       -11.9556
  57   2.0000      -0.438554       -11.9337
  58   2.0000      -0.433415       -11.7938
  59   2.0000      -0.428004       -11.6466
  60   2.0000      -0.421342       -11.4653
  61   2.0000      -0.420521       -11.4429
  62   2.0000      -0.414600       -11.2818
  63   2.0000      -0.351932        -9.5765
  64   2.0000      -0.331455        -9.0193
  65   2.0000      -0.324942        -8.8421
  66   2.0000      -0.290878        -7.9152
  67   0.0000       0.022812         0.6208
  68   0.0000       0.076336         2.0772
  69   0.0000       0.111662         3.0385
  70   0.0000       0.118061         3.2126
  71   0.0000       0.127749         3.4762

MULLIKEN ATOMIC CHARGES
-----------------------
   0 S :    0.101581
   1 C :   -0.107093
   2 C :   -0.136556
   3 C :    0.004375
   4 C :   -0.140311
   5 H :    0.025343
   6 C :    0.094761
   7 H :    0.012154
   8 H :    0.041357
   9 C :   -0.104407
  10 H :    0.039861
  11 H :    0.043483
  12 C :   -0.064240
  13 H :    0.038973
  14 H :    0.019762
  15 H :    0.045310
  16 S :    0.116734
  17 C :   -0.097849
  18 C :   -0.059673
  19 C :   -0.009503
  20 C :   -0.148329
  21 H :    0.034500
  22 C :    0.011748
  23 H :    0.054493
  24 H :    0.026445
  25 C :   -0.046489
  26 H :    0.037379
  27 H :    0.033276
  28 C :   -0.061139
  29 H :    0.013331
  30 H :    0.018071
  31 H :    0.033884
  32 H :    0.057027
  33 H :    0.071740
Sum of atomic charges:    0.0000000

LOEWDIN ATOMIC CHARGES
----------------------
   0 S :    0.389447
   1 C :   -0.207087
   2 C :   -0.062109
   3 C :   -0.067652
   4 C :   -0.188545
   5 H :    0.033899
   6 C :   -0.034876
   7 H :    0.024472
   8 H :    0.040025
   9 C :   -0.038894
  10 H :    0.025041
  11 H :    0.033504
  12 C :   -0.074343
  13 H :    0.023890
  14 H :    0.023229
  15 H :    0.030268
  16 S :    0.413595
  17 C :   -0.196236
  18 C :   -0.078148
  19 C :   -0.055120
  20 C :   -0.198609
  21 H :    0.038639
  22 C :   -0.038267
  23 H :    0.041942
  24 H :    0.030482
  25 C :   -0.030555
  26 H :    0.025276
  27 H :    0.021295
  28 C :   -0.075874
  29 H :    0.015627
  30 H :    0.024514
  31 H :    0.033880
  32 H :    0.036526
  33 H :    0.040764

  Mayer bond orders larger than 0.100000
B(  0-S ,  1-C ) :   1.1138 B(  0-S ,  4-C ) :   1.1413 B(  1-C ,  2-C ) :   1.6458
B(  1-C , 32-H ) :   0.9532 B(  2-C ,  3-C ) :   1.2294 B(  2-C ,  6-C ) :   1.0219
B(  3-C ,  4-C ) :   1.5684 B(  3-C ,  5-H ) :   0.9818 B(  4-C , 20-C ) :   1.0684
B(  6-C ,  7-H ) :   0.9333 B(  6-C ,  8-H ) :   0.9450 B(  6-C ,  9-C ) :   1.0663
B(  9-C , 10-H ) :   0.9600 B(  9-C , 11-H ) :   0.9568 B(  9-C , 12-C ) :   1.0746
B( 12-C , 13-H ) :   0.9754 B( 12-C , 14-H ) :   0.9702 B( 12-C , 15-H ) :   0.9652
B( 16-S , 17-C ) :   1.1563 B( 16-S , 20-C ) :   1.1340 B( 17-C , 18-C ) :   1.6157
B( 17-C , 33-H ) :   0.9553 B( 18-C , 19-C ) :   1.2446 B( 18-C , 21-H ) :   0.9823
B( 19-C , 20-C ) :   1.5972 B( 19-C , 22-C ) :   1.0389 B( 22-C , 23-H ) :   0.9372
B( 22-C , 24-H ) :   0.9257 B( 22-C , 25-C ) :   1.0728 B( 25-C , 26-H ) :   0.9581
B( 25-C , 27-H ) :   0.9472 B( 25-C , 28-C ) :   1.0661 B( 28-C , 29-H ) :   0.9763
B( 28-C , 30-H ) :   0.9751 B( 28-C , 31-H ) :   0.9755

Dispersion correction           -0.014368819
FINAL SINGLE POINT ENERGY     -1339.870081135015

DIPOLE MOMENT
-------------
                                X             Y             Z
Electronic contribution:      5.23115      -4.27889     -30.62150
Nuclear contribution   :     -5.44359       4.55346      31.27078
                        -----------------------------------------
Total Dipole Moment    :     -0.21244       0.27456       0.64927
                        -----------------------------------------
Magnitude (a.u.)       :      0.73626
Magnitude (Debye)      :      1.87142

Rotational constants in cm-1:     0.016385     0.009900     0.006539
Rotational constants in MHz :   491.195192   296.780155   196.039798

                             ****ORCA TERMINATED NORMALLY****
TOTAL RUN TIME: 0 days 0 hours 0 minutes 21 seconds 879 msec
