                         Program Version 4.2.1 -  RELEASE  -
|  1> ! wB97X-D3 SP def2-SVP
|  2> %pal
|  3> nprocs 24
|  4> end
|  5>
|  6> * xyz 0 1
|  7> S 	 -123.138 	 34.1901 	 -112.775
|  8> C 	 -123.542 	 32.5699 	 -113.35
|  9> C 	 -123.342 	 31.6706 	 -112.318
| 10> C 	 -123.038 	 32.3059 	 -111.065
| 11> C 	 -123.005 	 33.671 	 -111.129
| 12> H 	 -122.754 	 31.8083 	 -110.161
| 13> C 	 -123.346 	 30.2154 	 -112.607
| 14> H 	 -122.619 	 29.9771 	 -113.376
| 15> H 	 -124.354 	 30.0343 	 -113.016
| 16> C 	 -123.052 	 29.2011 	 -111.476
| 17> H 	 -122.241 	 29.6901 	 -110.952
| 18> H 	 -123.813 	 29.2572 	 -110.67
| 19> C 	 -122.76 	 27.8069 	 -111.981
| 20> H 	 -123.536 	 27.503 	 -112.664
| 21> H 	 -121.797 	 27.6873 	 -112.51
| 22> H 	 -122.737 	 27.0382 	 -111.244
| 23> S 	 -121.192 	 35.3069 	 -110.055
| 24> C 	 -121.594 	 36.2419 	 -108.592
| 25> C 	 -122.875 	 36.044 	 -108.173
| 26> C 	 -123.526 	 34.985 	 -108.938
| 27> C 	 -122.787 	 34.6065 	 -110.036
| 28> H 	 -123.278 	 36.5829 	 -107.285
| 29> C 	 -124.999 	 34.7599 	 -108.828
| 30> H 	 -125.172 	 34.4564 	 -107.87
| 31> H 	 -125.344 	 33.9807 	 -109.513
| 32> C 	 -125.861 	 36.019 	 -109.062
| 33> H 	 -125.794 	 36.2946 	 -110.155
| 34> H 	 -125.475 	 36.859 	 -108.486
| 35> C 	 -127.313 	 35.7703 	 -108.662
| 36> H 	 -127.778 	 35.0085 	 -109.255
| 37> H 	 -127.945 	 36.5864 	 -108.891
| 38> H 	 -127.6 	 35.4019 	 -107.615
| 39> H 	 -123.821 	 32.2943 	 -114.387
| 40> H 	 -120.885 	 36.9428 	 -108.227
| 41> *
| 42>
| 43>                          ****END OF INPUT****

CARTESIAN COORDINATES (ANGSTROEM)
---------------------------------
  S    -123.138000   34.190100  -112.775000
  C    -123.542000   32.569900  -113.350000
  C    -123.342000   31.670600  -112.318000
  C    -123.038000   32.305900  -111.065000
  C    -123.005000   33.671000  -111.129000
  H    -122.754000   31.808300  -110.161000
  C    -123.346000   30.215400  -112.607000
  H    -122.619000   29.977100  -113.376000
  H    -124.354000   30.034300  -113.016000
  C    -123.052000   29.201100  -111.476000
  H    -122.241000   29.690100  -110.952000
  H    -123.813000   29.257200  -110.670000
  C    -122.760000   27.806900  -111.981000
  H    -123.536000   27.503000  -112.664000
  H    -121.797000   27.687300  -112.510000
  H    -122.737000   27.038200  -111.244000
  S    -121.192000   35.306900  -110.055000
  C    -121.594000   36.241900  -108.592000
  C    -122.875000   36.044000  -108.173000
  C    -123.526000   34.985000  -108.938000
  C    -122.787000   34.606500  -110.036000
  H    -123.278000   36.582900  -107.285000
  C    -124.999000   34.759900  -108.828000
  H    -125.172000   34.456400  -107.870000
  H    -125.344000   33.980700  -109.513000
  C    -125.861000   36.019000  -109.062000
  H    -125.794000   36.294600  -110.155000
  H    -125.475000   36.859000  -108.486000
  C    -127.313000   35.770300  -108.662000
  H    -127.778000   35.008500  -109.255000
  H    -127.945000   36.586400  -108.891000
  H    -127.600000   35.401900  -107.615000
  H    -123.821000   32.294300  -114.387000
  H    -120.885000   36.942800  -108.227000

 Total Charge           Charge          ....    0
 Multiplicity           Mult            ....    1
 Number of Electrons    NEL             ....  134
 Basis Dimension        Dim             ....  322

ORBITAL ENERGIES
----------------

  NO   OCC          E(Eh)            E(eV)
   0   2.0000     -88.964225     -2420.8396
   1   2.0000     -88.960263     -2420.7318
   2   2.0000     -10.325459      -280.9700
   3   2.0000     -10.323490      -280.9164
   4   2.0000     -10.316258      -280.7197
   5   2.0000     -10.315204      -280.6910
   6   2.0000     -10.302813      -280.3538
   7   2.0000     -10.300325      -280.2861
   8   2.0000     -10.300162      -280.2817
   9   2.0000     -10.291594      -280.0485
  10   2.0000     -10.289651      -279.9956
  11   2.0000     -10.289043      -279.9791
  12   2.0000     -10.287930      -279.9488
  13   2.0000     -10.279106      -279.7087
  14   2.0000     -10.278441      -279.6906
  15   2.0000     -10.275164      -279.6014
  16   2.0000      -8.079017      -219.8412
  17   2.0000      -8.075349      -219.7414
  18   2.0000      -6.037546      -164.2900
  19   2.0000      -6.033837      -164.1890
  20   2.0000      -6.033478      -164.1793
  21   2.0000      -6.029924      -164.0826
  22   2.0000      -6.029780      -164.0787
  23   2.0000      -6.025994      -163.9756
  24   2.0000      -1.008194       -27.4344
  25   2.0000      -0.983580       -26.7646
  26   2.0000      -0.914554       -24.8863
  27   2.0000      -0.908972       -24.7344
  28   2.0000      -0.872925       -23.7535
  29   2.0000      -0.848086       -23.0776
  30   2.0000      -0.845671       -23.0119
  31   2.0000      -0.820163       -22.3178
  32   2.0000      -0.781721       -21.2717
  33   2.0000      -0.770961       -20.9789
  34   2.0000      -0.716168       -19.4879
  35   2.0000      -0.700951       -19.0739
  36   2.0000      -0.688345       -18.7308
  37   2.0000      -0.661524       -18.0010
  38   2.0000      -0.641966       -17.4688
  39   2.0000      -0.619796       -16.8655
  40   2.0000      -0.599603       -16.3160
  41   2.0000      -0.570856       -15.5338
  42   2.0000      -0.565813       -15.3966
  43   2.0000      -0.560766       -15.2592
  44   2.0000      -0.528264       -14.3748
  45   2.0000      -0.519585       -14.1386
  46   2.0000      -0.517177       -14.0731
  47   2.0000      -0.508681       -13.8419
  48   2.0000      -0.503882       -13.7113
  49   2.0000      -0.501634       -13.6501
  50   2.0000      -0.495146       -13.4736
  51   2.0000      -0.480715       -13.0809
  52   2.0000      -0.474632       -12.9154
  53   2.0000      -0.461665       -12.5625
  54   2.0000      -0.457685       -12.4542
  55   2.0000      -0.456600       -12.4247
  56   2.0000      -0.447247       -12.1702
  57   2.0000      -0.432173       -11.7600
  58   2.0000      -0.430918       -11.7259
  59   2.0000      -0.422512       -11.4971
  60   2.0000      -0.419381       -11.4119
  61   2.0000      -0.418465       -11.3870
  62   2.0000      -0.412277       -11.2186
  63   2.0000      -0.340081        -9.2541
  64   2.0000      -0.327592        -8.9142
  65   2.0000      -0.324863        -8.8400
  66   2.0000      -0.301121        -8.1939
  67   0.0000       0.040965         1.1147
  68   0.0000       0.060050         1.6341
  69   0.0000       0.113079         3.0770
  70   0.0000       0.123395         3.3577
  71   0.0000       0.125071         3.4034

MULLIKEN ATOMIC CHARGES
-----------------------
   0 S :    0.113608
   1 C :   -0.142006
   2 C :   -0.075827
   3 C :    0.047843
   4 C :   -0.158862
   5 H :    0.007218
   6 C :    0.026749
   7 H :    0.038727
   8 H :    0.036813
   9 C :   -0.080972
  10 H :    0.020134
  11 H :    0.027504
  12 C :   -0.012020
  13 H :    0.024619
  14 H :    0.036203
  15 H :    0.022726
  16 S :    0.090662
  17 C :   -0.081518
  18 C :   -0.047511
  19 C :   -0.013099
  20 C :   -0.173888
  21 H :    0.044564
  22 C :    0.098026
  23 H :   -0.007590
  24 H :    0.032436
  25 C :   -0.080244
  26 H :    0.044618
  27 H :    0.027836
  28 C :   -0.045760
  29 H :    0.012722
  30 H :    0.021647
  31 H :    0.036393
  32 H :    0.059869
  33 H :    0.048377
Sum of atomic charges:   -0.0000000

LOEWDIN ATOMIC CHARGES
----------------------
   0 S :    0.409054
   1 C :   -0.198994
   2 C :   -0.064096
   3 C :   -0.066185
   4 C :   -0.206101
   5 H :    0.029787
   6 C :   -0.037887
   7 H :    0.033491
   8 H :    0.035751
   9 C :   -0.048471
  10 H :    0.020477
  11 H :    0.025696
  12 C :   -0.062931
  13 H :    0.025866
  14 H :    0.031494
  15 H :    0.024179
  16 S :    0.387291
  17 C :   -0.162542
  18 C :   -0.070172
  19 C :   -0.054446
  20 C :   -0.197435
  21 H :    0.042104
  22 C :   -0.025337
  23 H :    0.015352
  24 H :    0.034050
  25 C :   -0.033717
  26 H :    0.035882
  27 H :    0.020763
  28 C :   -0.076701
  29 H :    0.021635
  30 H :    0.021539
  31 H :    0.033308
  32 H :    0.037370
  33 H :    0.019926

  Mayer bond orders larger than 0.100000
B(  0-S ,  1-C ) :   1.1333 B(  0-S ,  4-C ) :   1.1657 B(  1-C ,  2-C ) :   1.6025
B(  1-C ,  4-C ) :   0.1021 B(  1-C , 32-H ) :   0.9735 B(  2-C ,  3-C ) :   1.2414
B(  2-C ,  6-C ) :   1.0084 B(  3-C ,  4-C ) :   1.5718 B(  3-C ,  5-H ) :   0.9999
B(  4-C , 20-C ) :   0.9881 B(  6-C ,  7-H ) :   0.9493 B(  6-C ,  8-H ) :   0.9282
B(  6-C ,  9-C ) :   1.0755 B(  9-C , 10-H ) :   0.9496 B(  9-C , 11-H ) :   0.9523
B(  9-C , 12-C ) :   1.0825 B( 12-C , 13-H ) :   0.9737 B( 12-C , 14-H ) :   0.9718
B( 12-C , 15-H ) :   0.9711 B( 16-S , 17-C ) :   1.1343 B( 16-S , 20-C ) :   1.1449
B( 17-C , 18-C ) :   1.6537 B( 17-C , 33-H ) :   0.9731 B( 18-C , 19-C ) :   1.1778
B( 18-C , 21-H ) :   0.9801 B( 19-C , 20-C ) :   1.6442 B( 19-C , 22-C ) :   1.0721
B( 22-C , 23-H ) :   0.9150 B( 22-C , 24-H ) :   0.9408 B( 22-C , 25-C ) :   1.0655
B( 25-C , 26-H ) :   0.9521 B( 25-C , 27-H ) :   0.9539 B( 25-C , 28-C ) :   1.0801
B( 28-C , 29-H ) :   0.9700 B( 28-C , 30-H ) :   0.9713 B( 28-C , 31-H ) :   0.9742

Dispersion correction           -0.013615398
FINAL SINGLE POINT ENERGY     -1339.875905272712

DIPOLE MOMENT
-------------
                                X             Y             Z
Electronic contribution:     16.02335      16.15590      -5.53285
Nuclear contribution   :    -16.31982     -16.49982       5.73402
                        -----------------------------------------
Total Dipole Moment    :     -0.29647      -0.34392       0.20117
                        -----------------------------------------
Magnitude (a.u.)       :      0.49663
Magnitude (Debye)      :      1.26234

Rotational constants in cm-1:     0.018659     0.007498     0.006702
Rotational constants in MHz :   559.371816   224.781230   200.907216

                             ****ORCA TERMINATED NORMALLY****
TOTAL RUN TIME: 0 days 0 hours 0 minutes 21 seconds 202 msec
