                         Program Version 4.2.1 -  RELEASE  -
|  1> ! wB97X-D3 SP def2-SVP
|  2> %pal
|  3> nprocs 24
|  4> end
|  5>
|  6> * xyz 0 1
|  7> S 	 -64.4269 	 14.6554 	 -120.51
|  8> C 	 -62.868 	 13.9934 	 -120.948
|  9> C 	 -62.9406 	 13.0357 	 -121.933
| 10> C 	 -64.3047 	 12.7712 	 -122.215
| 11> C 	 -65.2302 	 13.5191 	 -121.574
| 12> H 	 -64.677 	 12.0364 	 -122.879
| 13> C 	 -61.8313 	 12.2141 	 -122.553
| 14> H 	 -62.1693 	 11.1652 	 -122.532
| 15> H 	 -60.8577 	 12.1954 	 -121.976
| 16> C 	 -61.4909 	 12.485 	 -124.088
| 17> H 	 -62.3512 	 12.5437 	 -124.762
| 18> H 	 -61.043 	 13.5036 	 -124.15
| 19> C 	 -60.4954 	 11.4569 	 -124.58
| 20> H 	 -59.7276 	 11.1644 	 -123.785
| 21> H 	 -61.0472 	 10.543 	 -124.887
| 22> H 	 -59.9992 	 11.8337 	 -125.461
| 23> S 	 -67.1897 	 14.0033 	 -123.449
| 24> C 	 -68.8663 	 14.2682 	 -122.986
| 25> C 	 -69.013 	 13.8435 	 -121.681
| 26> C 	 -67.7769 	 13.377 	 -121.056
| 27> C 	 -66.6547 	 13.5434 	 -121.834
| 28> H 	 -69.9908 	 13.8073 	 -121.235
| 29> C 	 -67.7807 	 12.9722 	 -119.574
| 30> H 	 -68.5011 	 13.5046 	 -118.957
| 31> H 	 -66.8224 	 13.1855 	 -119.1
| 32> C 	 -68.1386 	 11.5157 	 -119.299
| 33> H 	 -67.2448 	 10.9195 	 -119.485
| 34> H 	 -69.0315 	 11.1467 	 -119.849
| 35> C 	 -68.6408 	 11.3187 	 -117.831
| 36> H 	 -69.6312 	 11.658 	 -117.737
| 37> H 	 -68.1746 	 11.9126 	 -117.118
| 38> H 	 -68.5614 	 10.2912 	 -117.536
| 39> H 	 -61.9668 	 14.4238 	 -120.508
| 40> H 	 -69.6676 	 14.5221 	 -123.615
| 41> *
| 42>
| 43>                          ****END OF INPUT****

CARTESIAN COORDINATES (ANGSTROEM)
---------------------------------
  S    -64.426900   14.655400  -120.510000
  C    -62.868000   13.993400  -120.948000
  C    -62.940600   13.035700  -121.933000
  C    -64.304700   12.771200  -122.215000
  C    -65.230200   13.519100  -121.574000
  H    -64.677000   12.036400  -122.879000
  C    -61.831300   12.214100  -122.553000
  H    -62.169300   11.165200  -122.532000
  H    -60.857700   12.195400  -121.976000
  C    -61.490900   12.485000  -124.088000
  H    -62.351200   12.543700  -124.762000
  H    -61.043000   13.503600  -124.150000
  C    -60.495400   11.456900  -124.580000
  H    -59.727600   11.164400  -123.785000
  H    -61.047200   10.543000  -124.887000
  H    -59.999200   11.833700  -125.461000
  S    -67.189700   14.003300  -123.449000
  C    -68.866300   14.268200  -122.986000
  C    -69.013000   13.843500  -121.681000
  C    -67.776900   13.377000  -121.056000
  C    -66.654700   13.543400  -121.834000
  H    -69.990800   13.807300  -121.235000
  C    -67.780700   12.972200  -119.574000
  H    -68.501100   13.504600  -118.957000
  H    -66.822400   13.185500  -119.100000
  C    -68.138600   11.515700  -119.299000
  H    -67.244800   10.919500  -119.485000
  H    -69.031500   11.146700  -119.849000
  C    -68.640800   11.318700  -117.831000
  H    -69.631200   11.658000  -117.737000
  H    -68.174600   11.912600  -117.118000
  H    -68.561400   10.291200  -117.536000
  H    -61.966800   14.423800  -120.508000
  H    -69.667600   14.522100  -123.615000

 Total Charge           Charge          ....    0
 Multiplicity           Mult            ....    1
 Number of Electrons    NEL             ....  134
 Basis Dimension        Dim             ....  322

ORBITAL ENERGIES
----------------

  NO   OCC          E(Eh)            E(eV)
   0   2.0000     -88.965877     -2420.8846
   1   2.0000     -88.960493     -2420.7381
   2   2.0000     -10.327315      -281.0205
   3   2.0000     -10.325345      -280.9669
   4   2.0000     -10.317393      -280.7505
   5   2.0000     -10.316722      -280.7323
   6   2.0000     -10.306990      -280.4675
   7   2.0000     -10.303469      -280.3716
   8   2.0000     -10.303148      -280.3629
   9   2.0000     -10.295884      -280.1653
  10   2.0000     -10.292035      -280.0605
  11   2.0000     -10.287760      -279.9442
  12   2.0000     -10.287140      -279.9273
  13   2.0000     -10.284295      -279.8499
  14   2.0000     -10.284071      -279.8438
  15   2.0000     -10.264426      -279.3092
  16   2.0000      -8.080610      -219.8846
  17   2.0000      -8.075115      -219.7351
  18   2.0000      -6.039077      -164.3316
  19   2.0000      -6.035147      -164.2247
  20   2.0000      -6.033771      -164.1873
  21   2.0000      -6.031384      -164.1223
  22   2.0000      -6.029560      -164.0727
  23   2.0000      -6.025770      -163.9695
  24   2.0000      -1.008856       -27.4524
  25   2.0000      -0.984552       -26.7910
  26   2.0000      -0.906690       -24.6723
  27   2.0000      -0.905282       -24.6340
  28   2.0000      -0.873919       -23.7806
  29   2.0000      -0.852751       -23.2045
  30   2.0000      -0.843196       -22.9445
  31   2.0000      -0.816403       -22.2154
  32   2.0000      -0.780592       -21.2410
  33   2.0000      -0.770950       -20.9786
  34   2.0000      -0.705602       -19.2004
  35   2.0000      -0.696303       -18.9474
  36   2.0000      -0.691913       -18.8279
  37   2.0000      -0.667009       -18.1502
  38   2.0000      -0.647126       -17.6092
  39   2.0000      -0.621712       -16.9176
  40   2.0000      -0.597263       -16.2524
  41   2.0000      -0.572267       -15.5722
  42   2.0000      -0.565428       -15.3861
  43   2.0000      -0.557008       -15.1569
  44   2.0000      -0.529294       -14.4028
  45   2.0000      -0.521243       -14.1837
  46   2.0000      -0.516884       -14.0651
  47   2.0000      -0.511142       -13.9089
  48   2.0000      -0.506860       -13.7924
  49   2.0000      -0.506109       -13.7719
  50   2.0000      -0.488952       -13.3051
  51   2.0000      -0.481550       -13.1036
  52   2.0000      -0.466597       -12.6967
  53   2.0000      -0.462780       -12.5929
  54   2.0000      -0.458562       -12.4781
  55   2.0000      -0.451162       -12.2767
  56   2.0000      -0.442114       -12.0305
  57   2.0000      -0.439738       -11.9659
  58   2.0000      -0.431198       -11.7335
  59   2.0000      -0.424551       -11.5526
  60   2.0000      -0.418655       -11.3922
  61   2.0000      -0.415926       -11.3179
  62   2.0000      -0.406749       -11.0682
  63   2.0000      -0.342398        -9.3171
  64   2.0000      -0.332526        -9.0485
  65   2.0000      -0.323954        -8.8152
  66   2.0000      -0.303623        -8.2620
  67   0.0000       0.036401         0.9905
  68   0.0000       0.063734         1.7343
  69   0.0000       0.110592         3.0094
  70   0.0000       0.117654         3.2015
  71   0.0000       0.127902         3.4804

MULLIKEN ATOMIC CHARGES
-----------------------
   0 S :    0.114263
   1 C :   -0.146573
   2 C :   -0.005029
   3 C :    0.014728
   4 C :   -0.138676
   5 H :   -0.004540
   6 C :    0.007674
   7 H :    0.031964
   8 H :    0.037122
   9 C :   -0.084825
  10 H :    0.036683
  11 H :    0.033489
  12 C :   -0.065159
  13 H :    0.043021
  14 H :    0.038536
  15 H :    0.036804
  16 S :    0.094897
  17 C :   -0.071136
  18 C :   -0.030834
  19 C :   -0.010965
  20 C :   -0.157586
  21 H :    0.018530
  22 C :    0.054388
  23 H :    0.013406
  24 H :    0.022408
  25 C :   -0.091601
  26 H :    0.037975
  27 H :    0.038343
  28 C :   -0.021047
  29 H :    0.014683
  30 H :    0.006064
  31 H :    0.033288
  32 H :    0.052917
  33 H :    0.046787
Sum of atomic charges:    0.0000000

LOEWDIN ATOMIC CHARGES
----------------------
   0 S :    0.405653
   1 C :   -0.186702
   2 C :   -0.067278
   3 C :   -0.055173
   4 C :   -0.197224
   5 H :    0.025485
   6 C :   -0.036107
   7 H :    0.033034
   8 H :    0.036106
   9 C :   -0.044021
  10 H :    0.025408
  11 H :    0.025048
  12 C :   -0.071937
  13 H :    0.032562
  14 H :    0.028431
  15 H :    0.025705
  16 S :    0.393734
  17 C :   -0.171930
  18 C :   -0.067438
  19 C :   -0.051897
  20 C :   -0.195585
  21 H :    0.028421
  22 C :   -0.035272
  23 H :    0.026724
  24 H :    0.027221
  25 C :   -0.036241
  26 H :    0.023528
  27 H :    0.028533
  28 C :   -0.059786
  29 H :    0.018805
  30 H :    0.012943
  31 H :    0.026448
  32 H :    0.028340
  33 H :    0.024461

  Mayer bond orders larger than 0.100000
B(  0-S ,  1-C ) :   1.1509 B(  0-S ,  4-C ) :   1.1282 B(  1-C ,  2-C ) :   1.6050
B(  1-C , 32-H ) :   0.9682 B(  2-C ,  3-C ) :   1.2179 B(  2-C ,  6-C ) :   1.0202
B(  3-C ,  4-C ) :   1.6045 B(  3-C ,  5-H ) :   1.0050 B(  4-C , 20-C ) :   1.0421
B(  6-C ,  7-H ) :   0.9464 B(  6-C ,  8-H ) :   0.9475 B(  6-C ,  9-C ) :   1.0459
B(  9-C , 10-H ) :   0.9587 B(  9-C , 11-H ) :   0.9582 B(  9-C , 12-C ) :   1.0777
B( 12-C , 13-H ) :   0.9724 B( 12-C , 14-H ) :   0.9746 B( 12-C , 15-H ) :   0.9735
B( 16-S , 17-C ) :   1.1471 B( 16-S , 20-C ) :   1.1209 B( 17-C , 18-C ) :   1.6156
B( 17-C , 33-H ) :   0.9754 B( 18-C , 19-C ) :   1.2258 B( 18-C , 21-H ) :   0.9915
B( 19-C , 20-C ) :   1.6029 B( 19-C , 22-C ) :   1.0445 B( 22-C , 23-H ) :   0.9490
B( 22-C , 24-H ) :   0.9298 B( 22-C , 25-C ) :   1.0603 B( 25-C , 26-H ) :   0.9592
B( 25-C , 27-H ) :   0.9637 B( 25-C , 28-C ) :   1.0726 B( 28-C , 29-H ) :   0.9740
B( 28-C , 30-H ) :   0.9727 B( 28-C , 31-H ) :   0.9752

Dispersion correction           -0.013367531
FINAL SINGLE POINT ENERGY     -1339.880466195807

DIPOLE MOMENT
-------------
                                X             Y             Z
Electronic contribution:     -7.07880      16.00436      -4.22196
Nuclear contribution   :      7.12432     -16.32010       4.26688
                        -----------------------------------------
Total Dipole Moment    :      0.04552      -0.31574       0.04492
                        -----------------------------------------
Magnitude (a.u.)       :      0.32215
Magnitude (Debye)      :      0.81884

Rotational constants in cm-1:     0.019925     0.007181     0.006293
Rotational constants in MHz :   597.348553   215.285331   188.674360

                             ****ORCA TERMINATED NORMALLY****
TOTAL RUN TIME: 0 days 0 hours 0 minutes 19 seconds 549 msec
