                         Program Version 4.2.1 -  RELEASE  -
|  1> ! wB97X-D3 SP def2-SVP
|  2> %pal
|  3> nprocs 24
|  4> end
|  5>
|  6> * xyz 0 1
|  7> S 	 -130.614 	 74.5132 	 -46.281
|  8> C 	 -131.98 	 75.1697 	 -47.244
|  9> C 	 -131.762 	 76.4892 	 -47.5051
| 10> C 	 -130.371 	 76.8356 	 -47.3241
| 11> C 	 -129.666 	 75.8857 	 -46.6764
| 12> H 	 -129.92 	 77.7924 	 -47.5308
| 13> C 	 -132.652 	 77.4858 	 -48.1521
| 14> H 	 -132.403 	 78.4332 	 -47.7702
| 15> H 	 -133.613 	 77.2818 	 -47.7418
| 16> C 	 -132.773 	 77.5123 	 -49.6944
| 17> H 	 -133.126 	 76.5562 	 -50.0298
| 18> H 	 -133.636 	 78.1592 	 -49.9494
| 19> C 	 -131.637 	 78.1109 	 -50.4853
| 20> H 	 -131.518 	 79.1134 	 -50.2082
| 21> H 	 -130.75 	 77.596 	 -50.2487
| 22> H 	 -131.713 	 78.0756 	 -51.5452
| 23> S 	 -127.669 	 75.7697 	 -44.8739
| 24> C 	 -126.019 	 75.9043 	 -45.4431
| 25> C 	 -125.948 	 75.9975 	 -46.82
| 26> C 	 -127.217 	 76.1107 	 -47.4544
| 27> C 	 -128.221 	 75.9314 	 -46.5508
| 28> H 	 -125.013 	 76.0292 	 -47.304
| 29> C 	 -127.374 	 76.3329 	 -48.9323
| 30> H 	 -126.445 	 76.813 	 -49.2502
| 31> H 	 -128.186 	 77.03 	 -49.1601
| 32> C 	 -127.577 	 74.9778 	 -49.7859
| 33> H 	 -127.971 	 74.1235 	 -49.2855
| 34> H 	 -126.641 	 74.6909 	 -50.2073
| 35> C 	 -128.613 	 75.3133 	 -50.9014
| 36> H 	 -128.808 	 74.3534 	 -51.5547
| 37> H 	 -128.399 	 76.2055 	 -51.5684
| 38> H 	 -129.619 	 75.5698 	 -50.5619
| 39> H 	 -132.962 	 74.7026 	 -47.2105
| 40> H 	 -125.082 	 75.9402 	 -44.8709
| 41> *
| 42>
| 43>                          ****END OF INPUT****

CARTESIAN COORDINATES (ANGSTROEM)
---------------------------------
  S    -130.614000   74.513200  -46.281000
  C    -131.980000   75.169700  -47.244000
  C    -131.762000   76.489200  -47.505100
  C    -130.371000   76.835600  -47.324100
  C    -129.666000   75.885700  -46.676400
  H    -129.920000   77.792400  -47.530800
  C    -132.652000   77.485800  -48.152100
  H    -132.403000   78.433200  -47.770200
  H    -133.613000   77.281800  -47.741800
  C    -132.773000   77.512300  -49.694400
  H    -133.126000   76.556200  -50.029800
  H    -133.636000   78.159200  -49.949400
  C    -131.637000   78.110900  -50.485300
  H    -131.518000   79.113400  -50.208200
  H    -130.750000   77.596000  -50.248700
  H    -131.713000   78.075600  -51.545200
  S    -127.669000   75.769700  -44.873900
  C    -126.019000   75.904300  -45.443100
  C    -125.948000   75.997500  -46.820000
  C    -127.217000   76.110700  -47.454400
  C    -128.221000   75.931400  -46.550800
  H    -125.013000   76.029200  -47.304000
  C    -127.374000   76.332900  -48.932300
  H    -126.445000   76.813000  -49.250200
  H    -128.186000   77.030000  -49.160100
  C    -127.577000   74.977800  -49.785900
  H    -127.971000   74.123500  -49.285500
  H    -126.641000   74.690900  -50.207300
  C    -128.613000   75.313300  -50.901400
  H    -128.808000   74.353400  -51.554700
  H    -128.399000   76.205500  -51.568400
  H    -129.619000   75.569800  -50.561900
  H    -132.962000   74.702600  -47.210500
  H    -125.082000   75.940200  -44.870900

 Total Charge           Charge          ....    0
 Multiplicity           Mult            ....    1
 Number of Electrons    NEL             ....  134
 Basis Dimension        Dim             ....  322

ORBITAL ENERGIES
----------------

  NO   OCC          E(Eh)            E(eV)
   0   2.0000     -88.964689     -2420.8523
   1   2.0000     -88.963393     -2420.8170
   2   2.0000     -10.320654      -280.8393
   3   2.0000     -10.319393      -280.8050
   4   2.0000     -10.316060      -280.7143
   5   2.0000     -10.314839      -280.6810
   6   2.0000     -10.299351      -280.2596
   7   2.0000     -10.299337      -280.2592
   8   2.0000     -10.296494      -280.1818
   9   2.0000     -10.288578      -279.9664
  10   2.0000     -10.288089      -279.9531
  11   2.0000     -10.288043      -279.9519
  12   2.0000     -10.287492      -279.9369
  13   2.0000     -10.285648      -279.8867
  14   2.0000     -10.285523      -279.8833
  15   2.0000     -10.267434      -279.3911
  16   2.0000      -8.079164      -219.8452
  17   2.0000      -8.078417      -219.8249
  18   2.0000      -6.037721      -164.2947
  19   2.0000      -6.037051      -164.2765
  20   2.0000      -6.033802      -164.1881
  21   2.0000      -6.033047      -164.1675
  22   2.0000      -6.029812      -164.0795
  23   2.0000      -6.028858      -164.0536
  24   2.0000      -1.010151       -27.4876
  25   2.0000      -0.984757       -26.7966
  26   2.0000      -0.917021       -24.9534
  27   2.0000      -0.899871       -24.4867
  28   2.0000      -0.871938       -23.7266
  29   2.0000      -0.851052       -23.1583
  30   2.0000      -0.846870       -23.0445
  31   2.0000      -0.815094       -22.1798
  32   2.0000      -0.788501       -21.4562
  33   2.0000      -0.768688       -20.9171
  34   2.0000      -0.712180       -19.3794
  35   2.0000      -0.706598       -19.2275
  36   2.0000      -0.695107       -18.9148
  37   2.0000      -0.665296       -18.1036
  38   2.0000      -0.642309       -17.4781
  39   2.0000      -0.615672       -16.7533
  40   2.0000      -0.592461       -16.1217
  41   2.0000      -0.574697       -15.6383
  42   2.0000      -0.555880       -15.1263
  43   2.0000      -0.552296       -15.0287
  44   2.0000      -0.541696       -14.7403
  45   2.0000      -0.521423       -14.1887
  46   2.0000      -0.521113       -14.1802
  47   2.0000      -0.509434       -13.8624
  48   2.0000      -0.503257       -13.6943
  49   2.0000      -0.493815       -13.4374
  50   2.0000      -0.487212       -13.2577
  51   2.0000      -0.487087       -13.2543
  52   2.0000      -0.473850       -12.8941
  53   2.0000      -0.464177       -12.6309
  54   2.0000      -0.460787       -12.5387
  55   2.0000      -0.448961       -12.2168
  56   2.0000      -0.443622       -12.0716
  57   2.0000      -0.440570       -11.9885
  58   2.0000      -0.438094       -11.9211
  59   2.0000      -0.426797       -11.6137
  60   2.0000      -0.423468       -11.5231
  61   2.0000      -0.412652       -11.2288
  62   2.0000      -0.409398       -11.1403
  63   2.0000      -0.342321        -9.3150
  64   2.0000      -0.331132        -9.0106
  65   2.0000      -0.329164        -8.9570
  66   2.0000      -0.295643        -8.0449
  67   0.0000       0.036729         0.9994
  68   0.0000       0.064356         1.7512
  69   0.0000       0.102672         2.7939
  70   0.0000       0.120841         3.2882
  71   0.0000       0.126226         3.4348

MULLIKEN ATOMIC CHARGES
-----------------------
   0 S :    0.101677
   1 C :   -0.139784
   2 C :   -0.078329
   3 C :   -0.019268
   4 C :   -0.093317
   5 H :    0.014275
   6 C :    0.109343
   7 H :    0.004540
   8 H :    0.007882
   9 C :   -0.055620
  10 H :    0.014834
  11 H :    0.023185
  12 C :    0.020286
  13 H :    0.010667
  14 H :   -0.002001
  15 H :    0.028472
  16 S :    0.102811
  17 C :   -0.081143
  18 C :   -0.037986
  19 C :   -0.023679
  20 C :   -0.188247
  21 H :   -0.002207
  22 C :    0.065045
  23 H :    0.021642
  24 H :    0.032526
  25 C :    0.001975
  26 H :    0.041464
  27 H :    0.027180
  28 C :   -0.143704
  29 H :    0.041454
  30 H :    0.040047
  31 H :    0.043453
  32 H :    0.054389
  33 H :    0.058140
Sum of atomic charges:   -0.0000000

LOEWDIN ATOMIC CHARGES
----------------------
   0 S :    0.393842
   1 C :   -0.185469
   2 C :   -0.056489
   3 C :   -0.066992
   4 C :   -0.206219
   5 H :    0.030040
   6 C :   -0.026797
   7 H :    0.024628
   8 H :    0.030224
   9 C :   -0.031393
  10 H :    0.019060
  11 H :    0.027739
  12 C :   -0.055757
  13 H :    0.020082
  14 H :    0.014182
  15 H :    0.027226
  16 S :    0.392055
  17 C :   -0.187921
  18 C :   -0.066454
  19 C :   -0.057808
  20 C :   -0.183803
  21 H :    0.023358
  22 C :   -0.023973
  23 H :    0.032903
  24 H :    0.029550
  25 C :   -0.022980
  26 H :    0.026509
  27 H :    0.020576
  28 C :   -0.083645
  29 H :    0.033875
  30 H :    0.026436
  31 H :    0.020857
  32 H :    0.027605
  33 H :    0.034955

  Mayer bond orders larger than 0.100000
B(  0-S ,  1-C ) :   1.1119 B(  0-S ,  4-C ) :   1.1441 B(  1-C ,  2-C ) :   1.6420
B(  1-C , 32-H ) :   0.9654 B(  2-C ,  3-C ) :   1.1807 B(  2-C ,  6-C ) :   1.0381
B(  3-C ,  4-C ) :   1.6135 B(  3-C ,  5-H ) :   1.0002 B(  4-C , 20-C ) :   1.0008
B(  6-C ,  7-H ) :   0.9342 B(  6-C ,  8-H ) :   0.9235 B(  6-C ,  9-C ) :   1.0787
B(  9-C , 10-H ) :   0.9539 B(  9-C , 11-H ) :   0.9521 B(  9-C , 12-C ) :   1.0805
B( 12-C , 13-H ) :   0.9667 B( 12-C , 14-H ) :   0.9719 B( 12-C , 15-H ) :   0.9683
B( 16-S , 17-C ) :   1.1392 B( 16-S , 20-C ) :   1.1307 B( 17-C , 18-C ) :   1.6419
B( 17-C , 33-H ) :   0.9621 B( 18-C , 19-C ) :   1.2162 B( 18-C , 21-H ) :   0.9921
B( 19-C , 20-C ) :   1.6382 B( 19-C , 22-C ) :   1.0510 B( 22-C , 23-H ) :   0.9220
B( 22-C , 24-H ) :   0.9489 B( 22-C , 25-C ) :   1.0297 B( 25-C , 26-H ) :   0.9671
B( 25-C , 27-H ) :   0.9587 B( 25-C , 28-C ) :   1.0673 B( 28-C , 29-H ) :   0.9699
B( 28-C , 30-H ) :   0.9762 B( 28-C , 31-H ) :   0.9742

Dispersion correction           -0.016198730
FINAL SINGLE POINT ENERGY     -1339.866287777009

DIPOLE MOMENT
-------------
                                X             Y             Z
Electronic contribution:      6.65706      -9.17522      28.38255
Nuclear contribution   :     -6.70859       9.58435     -28.94448
                        -----------------------------------------
Total Dipole Moment    :     -0.05153       0.40912      -0.56193
                        -----------------------------------------
Magnitude (a.u.)       :      0.69700
Magnitude (Debye)      :      1.77162

Rotational constants in cm-1:     0.019194     0.010149     0.007902
Rotational constants in MHz :   575.415492   304.262523   236.903744

                             ****ORCA TERMINATED NORMALLY****
TOTAL RUN TIME: 0 days 0 hours 0 minutes 23 seconds 546 msec
