                         Program Version 4.2.1 -  RELEASE  -
|  1> ! wB97X-D3 SP def2-SVP
|  2> %pal
|  3> nprocs 24
|  4> end
|  5>
|  6> * xyz 0 1
|  7> S 	 -106.466 	 60.9467 	 -10.985
|  8> C 	 -105.764 	 62.1071 	 -12.1093
|  9> C 	 -104.884 	 61.4132 	 -12.9739
| 10> C 	 -104.714 	 60.0401 	 -12.5925
| 11> C 	 -105.53 	 59.6024 	 -11.6838
| 12> H 	 -104.162 	 59.2889 	 -13.1371
| 13> C 	 -104.077 	 62.1356 	 -14.0673
| 14> H 	 -103.127 	 61.6994 	 -14.1162
| 15> H 	 -104.161 	 63.175 	 -13.8786
| 16> C 	 -104.764 	 62.0187 	 -15.4266
| 17> H 	 -104.023 	 62.2557 	 -16.1444
| 18> H 	 -105.142 	 60.975 	 -15.6124
| 19> C 	 -105.941 	 62.9586 	 -15.5385
| 20> H 	 -106.422 	 62.6501 	 -16.4088
| 21> H 	 -106.561 	 62.9579 	 -14.6447
| 22> H 	 -105.585 	 63.963 	 -15.5699
| 23> S 	 -105.353 	 58.0203 	 -9.48925
| 24> C 	 -105.763 	 56.3302 	 -9.62623
| 25> C 	 -106.258 	 55.9851 	 -10.916
| 26> C 	 -106.282 	 57.1254 	 -11.7847
| 27> C 	 -105.746 	 58.2583 	 -11.1962
| 28> H 	 -106.671 	 55.0317 	 -11.137
| 29> C 	 -106.784 	 57.1098 	 -13.2105
| 30> H 	 -106.693 	 58.0887 	 -13.6271
| 31> H 	 -107.849 	 56.9254 	 -13.0403
| 32> C 	 -106.185 	 56.0404 	 -14.093
| 33> H 	 -106.693 	 55.9084 	 -15.0309
| 34> H 	 -106.306 	 55.1019 	 -13.5913
| 35> C 	 -104.714 	 56.3412 	 -14.5212
| 36> H 	 -104.704 	 57.1925 	 -15.17
| 37> H 	 -104.291 	 55.3729 	 -14.9177
| 38> H 	 -104.142 	 56.5032 	 -13.5521
| 39> H 	 -106.025 	 63.1376 	 -11.9892
| 40> H 	 -105.638 	 55.5244 	 -8.94232
| 41> *
| 42>
| 43>                          ****END OF INPUT****

CARTESIAN COORDINATES (ANGSTROEM)
---------------------------------
  S    -106.466000   60.946700  -10.985000
  C    -105.764000   62.107100  -12.109300
  C    -104.884000   61.413200  -12.973900
  C    -104.714000   60.040100  -12.592500
  C    -105.530000   59.602400  -11.683800
  H    -104.162000   59.288900  -13.137100
  C    -104.077000   62.135600  -14.067300
  H    -103.127000   61.699400  -14.116200
  H    -104.161000   63.175000  -13.878600
  C    -104.764000   62.018700  -15.426600
  H    -104.023000   62.255700  -16.144400
  H    -105.142000   60.975000  -15.612400
  C    -105.941000   62.958600  -15.538500
  H    -106.422000   62.650100  -16.408800
  H    -106.561000   62.957900  -14.644700
  H    -105.585000   63.963000  -15.569900
  S    -105.353000   58.020300   -9.489250
  C    -105.763000   56.330200   -9.626230
  C    -106.258000   55.985100  -10.916000
  C    -106.282000   57.125400  -11.784700
  C    -105.746000   58.258300  -11.196200
  H    -106.671000   55.031700  -11.137000
  C    -106.784000   57.109800  -13.210500
  H    -106.693000   58.088700  -13.627100
  H    -107.849000   56.925400  -13.040300
  C    -106.185000   56.040400  -14.093000
  H    -106.693000   55.908400  -15.030900
  H    -106.306000   55.101900  -13.591300
  C    -104.714000   56.341200  -14.521200
  H    -104.704000   57.192500  -15.170000
  H    -104.291000   55.372900  -14.917700
  H    -104.142000   56.503200  -13.552100
  H    -106.025000   63.137600  -11.989200
  H    -105.638000   55.524400   -8.942320

 Total Charge           Charge          ....    0
 Multiplicity           Mult            ....    1
 Number of Electrons    NEL             ....  134
 Basis Dimension        Dim             ....  322

ORBITAL ENERGIES
----------------

  NO   OCC          E(Eh)            E(eV)
   0   2.0000     -88.969448     -2420.9818
   1   2.0000     -88.956372     -2420.6259
   2   2.0000     -10.322681      -280.8944
   3   2.0000     -10.321375      -280.8589
   4   2.0000     -10.320531      -280.8359
   5   2.0000     -10.318043      -280.7682
   6   2.0000     -10.306736      -280.4606
   7   2.0000     -10.304972      -280.4125
   8   2.0000     -10.297316      -280.2042
   9   2.0000     -10.287322      -279.9323
  10   2.0000     -10.286525      -279.9106
  11   2.0000     -10.285849      -279.8922
  12   2.0000     -10.283599      -279.8309
  13   2.0000     -10.283057      -279.8162
  14   2.0000     -10.280300      -279.7412
  15   2.0000     -10.265525      -279.3391
  16   2.0000      -8.083689      -219.9684
  17   2.0000      -8.071275      -219.6306
  18   2.0000      -6.042189      -164.4163
  19   2.0000      -6.038257      -164.3093
  20   2.0000      -6.034484      -164.2067
  21   2.0000      -6.029845      -164.0804
  22   2.0000      -6.025748      -163.9689
  23   2.0000      -6.021974      -163.8662
  24   2.0000      -1.007178       -27.4067
  25   2.0000      -0.981228       -26.7006
  26   2.0000      -0.918232       -24.9864
  27   2.0000      -0.913167       -24.8485
  28   2.0000      -0.870024       -23.6746
  29   2.0000      -0.850093       -23.1322
  30   2.0000      -0.845078       -22.9958
  31   2.0000      -0.818368       -22.2689
  32   2.0000      -0.784379       -21.3440
  33   2.0000      -0.771668       -20.9982
  34   2.0000      -0.707126       -19.2419
  35   2.0000      -0.699137       -19.0245
  36   2.0000      -0.691050       -18.8044
  37   2.0000      -0.660311       -17.9680
  38   2.0000      -0.653291       -17.7769
  39   2.0000      -0.622755       -16.9460
  40   2.0000      -0.596240       -16.2245
  41   2.0000      -0.571516       -15.5517
  42   2.0000      -0.562989       -15.3197
  43   2.0000      -0.553774       -15.0690
  44   2.0000      -0.549599       -14.9553
  45   2.0000      -0.536956       -14.6113
  46   2.0000      -0.528474       -14.3805
  47   2.0000      -0.523869       -14.2552
  48   2.0000      -0.510645       -13.8954
  49   2.0000      -0.494612       -13.4591
  50   2.0000      -0.481191       -13.0939
  51   2.0000      -0.478849       -13.0302
  52   2.0000      -0.471908       -12.8413
  53   2.0000      -0.465250       -12.6601
  54   2.0000      -0.460170       -12.5219
  55   2.0000      -0.444556       -12.0970
  56   2.0000      -0.440553       -11.9881
  57   2.0000      -0.436360       -11.8740
  58   2.0000      -0.432101       -11.7581
  59   2.0000      -0.430831       -11.7235
  60   2.0000      -0.428261       -11.6536
  61   2.0000      -0.410307       -11.1650
  62   2.0000      -0.406763       -11.0686
  63   2.0000      -0.343533        -9.3480
  64   2.0000      -0.332060        -9.0358
  65   2.0000      -0.323772        -8.8103
  66   2.0000      -0.298422        -8.1205
  67   0.0000       0.038319         1.0427
  68   0.0000       0.059436         1.6173
  69   0.0000       0.115346         3.1387
  70   0.0000       0.121146         3.2966
  71   0.0000       0.128336         3.4922

MULLIKEN ATOMIC CHARGES
-----------------------
   0 S :    0.082173
   1 C :   -0.129060
   2 C :   -0.123674
   3 C :    0.058504
   4 C :   -0.151162
   5 H :    0.002294
   6 C :    0.137698
   7 H :    0.014816
   8 H :    0.004734
   9 C :   -0.088973
  10 H :    0.022100
  11 H :    0.026230
  12 C :   -0.013686
  13 H :    0.028230
  14 H :    0.027909
  15 H :    0.015431
  16 S :    0.126113
  17 C :   -0.066056
  18 C :   -0.056418
  19 C :   -0.032793
  20 C :   -0.192372
  21 H :    0.012838
  22 C :    0.102720
  23 H :    0.019627
  24 H :    0.036385
  25 C :   -0.061543
  26 H :    0.023581
  27 H :    0.015550
  28 C :   -0.082520
  29 H :    0.042057
  30 H :    0.046329
  31 H :    0.050168
  32 H :    0.056172
  33 H :    0.046597
Sum of atomic charges:   -0.0000000

LOEWDIN ATOMIC CHARGES
----------------------
   0 S :    0.370365
   1 C :   -0.189639
   2 C :   -0.053016
   3 C :   -0.068082
   4 C :   -0.183471
   5 H :    0.034346
   6 C :   -0.017751
   7 H :    0.023545
   8 H :    0.026100
   9 C :   -0.035342
  10 H :    0.017362
  11 H :    0.022982
  12 C :   -0.057015
  13 H :    0.021297
  14 H :    0.025148
  15 H :    0.019513
  16 S :    0.413413
  17 C :   -0.180421
  18 C :   -0.069672
  19 C :   -0.046346
  20 C :   -0.202769
  21 H :    0.025035
  22 C :   -0.028506
  23 H :    0.025938
  24 H :    0.040286
  25 C :   -0.040404
  26 H :    0.022145
  27 H :    0.017658
  28 C :   -0.068349
  29 H :    0.020660
  30 H :    0.034785
  31 H :    0.031482
  32 H :    0.023458
  33 H :    0.025268

  Mayer bond orders larger than 0.100000
B(  0-S ,  1-C ) :   1.1351 B(  0-S ,  4-C ) :   1.1219 B(  1-C ,  2-C ) :   1.5990
B(  1-C , 32-H ) :   0.9754 B(  2-C ,  3-C ) :   1.2040 B(  2-C ,  6-C ) :   1.0382
B(  3-C ,  4-C ) :   1.6630 B(  3-C ,  5-H ) :   0.9913 B(  4-C , 20-C ) :   1.0030
B(  6-C ,  7-H ) :   0.9372 B(  6-C ,  8-H ) :   0.9392 B(  6-C ,  9-C ) :   1.0655
B(  9-C , 10-H ) :   0.9543 B(  9-C , 11-H ) :   0.9596 B(  9-C , 12-C ) :   1.0786
B( 12-C , 13-H ) :   0.9723 B( 12-C , 14-H ) :   0.9744 B( 12-C , 15-H ) :   0.9705
B( 16-S , 17-C ) :   1.1642 B( 16-S , 20-C ) :   1.1368 B( 17-C , 18-C ) :   1.6055
B( 17-C , 20-C ) :   0.1051 B( 17-C , 33-H ) :   0.9677 B( 18-C , 19-C ) :   1.2333
B( 18-C , 21-H ) :   0.9896 B( 19-C , 20-C ) :   1.6011 B( 19-C , 22-C ) :   1.0369
B( 22-C , 23-H ) :   0.9368 B( 22-C , 24-H ) :   0.9206 B( 22-C , 25-C ) :   1.0758
B( 25-C , 26-H ) :   0.9533 B( 25-C , 27-H ) :   0.9557 B( 25-C , 28-C ) :   1.0683
B( 28-C , 29-H ) :   0.9749 B( 28-C , 30-H ) :   0.9722 B( 28-C , 31-H ) :   0.9754

Dispersion correction           -0.015176676
FINAL SINGLE POINT ENERGY     -1339.867092858831

DIPOLE MOMENT
-------------
                                X             Y             Z
Electronic contribution:     -2.76662      -0.21178      27.62559
Nuclear contribution   :      2.81673      -0.02930     -28.26102
                        -----------------------------------------
Total Dipole Moment    :      0.05011      -0.24108      -0.63544
                        -----------------------------------------
Magnitude (a.u.)       :      0.68148
Magnitude (Debye)      :      1.73218

Rotational constants in cm-1:     0.019984     0.009317     0.007057
Rotational constants in MHz :   599.117434   279.305070   211.571329

                             ****ORCA TERMINATED NORMALLY****
TOTAL RUN TIME: 0 days 0 hours 0 minutes 22 seconds 458 msec
