                         Program Version 4.2.1 -  RELEASE  -
|  1> ! wB97X-D3 SP def2-SVP
|  2> %pal
|  3> nprocs 24
|  4> end
|  5>
|  6> * xyz 0 1
|  7> S 	 46.6297 	 -17.0958 	 -107.725
|  8> C 	 45.3757 	 -16.5883 	 -108.769
|  9> C 	 45.3487 	 -15.1757 	 -108.84
| 10> C 	 46.389 	 -14.5303 	 -108.05
| 11> C 	 47.1429 	 -15.4805 	 -107.359
| 12> H 	 46.5217 	 -13.533 	 -107.713
| 13> C 	 44.4199 	 -14.391 	 -109.76
| 14> H 	 43.9283 	 -13.6638 	 -109.12
| 15> H 	 43.6043 	 -15.1266 	 -109.925
| 16> C 	 45.0453 	 -13.6245 	 -111.023
| 17> H 	 45.599 	 -12.6866 	 -110.669
| 18> H 	 45.8392 	 -14.1727 	 -111.511
| 19> C 	 44.0727 	 -13.112 	 -112.04
| 20> H 	 44.7944 	 -12.8496 	 -112.852
| 21> H 	 43.3384 	 -13.8631 	 -112.405
| 22> H 	 43.5536 	 -12.164 	 -111.827
| 23> S 	 48.1775 	 -16.1873 	 -104.857
| 24> C 	 49.7888 	 -15.6196 	 -104.349
| 25> C 	 50.1703 	 -14.6539 	 -105.266
| 26> C 	 49.3601 	 -14.418 	 -106.408
| 27> C 	 48.2506 	 -15.272 	 -106.374
| 28> H 	 51.1265 	 -14.0737 	 -105.196
| 29> C 	 49.883 	 -13.5465 	 -107.518
| 30> H 	 50.2554 	 -12.6326 	 -107.08
| 31> H 	 49.0329 	 -13.2284 	 -108.135
| 32> C 	 50.9804 	 -14.2106 	 -108.414
| 33> H 	 51.7114 	 -14.8173 	 -107.713
| 34> H 	 51.6178 	 -13.4965 	 -108.862
| 35> C 	 50.3665 	 -15.1221 	 -109.48
| 36> H 	 49.493 	 -14.57 	 -110.046
| 37> H 	 49.9794 	 -16.0493 	 -109.02
| 38> H 	 51.1937 	 -15.369 	 -110.14
| 39> H 	 44.6749 	 -17.313 	 -109.171
| 40> H 	 50.3797 	 -16.0032 	 -103.478
| 41> *
| 42>
| 43>                          ****END OF INPUT****

CARTESIAN COORDINATES (ANGSTROEM)
---------------------------------
  S     46.629700  -17.095800  -107.725000
  C     45.375700  -16.588300  -108.769000
  C     45.348700  -15.175700  -108.840000
  C     46.389000  -14.530300  -108.050000
  C     47.142900  -15.480500  -107.359000
  H     46.521700  -13.533000  -107.713000
  C     44.419900  -14.391000  -109.760000
  H     43.928300  -13.663800  -109.120000
  H     43.604300  -15.126600  -109.925000
  C     45.045300  -13.624500  -111.023000
  H     45.599000  -12.686600  -110.669000
  H     45.839200  -14.172700  -111.511000
  C     44.072700  -13.112000  -112.040000
  H     44.794400  -12.849600  -112.852000
  H     43.338400  -13.863100  -112.405000
  H     43.553600  -12.164000  -111.827000
  S     48.177500  -16.187300  -104.857000
  C     49.788800  -15.619600  -104.349000
  C     50.170300  -14.653900  -105.266000
  C     49.360100  -14.418000  -106.408000
  C     48.250600  -15.272000  -106.374000
  H     51.126500  -14.073700  -105.196000
  C     49.883000  -13.546500  -107.518000
  H     50.255400  -12.632600  -107.080000
  H     49.032900  -13.228400  -108.135000
  C     50.980400  -14.210600  -108.414000
  H     51.711400  -14.817300  -107.713000
  H     51.617800  -13.496500  -108.862000
  C     50.366500  -15.122100  -109.480000
  H     49.493000  -14.570000  -110.046000
  H     49.979400  -16.049300  -109.020000
  H     51.193700  -15.369000  -110.140000
  H     44.674900  -17.313000  -109.171000
  H     50.379700  -16.003200  -103.478000

 Total Charge           Charge          ....    0
 Multiplicity           Mult            ....    1
 Number of Electrons    NEL             ....  134
 Basis Dimension        Dim             ....  322

ORBITAL ENERGIES
----------------

  NO   OCC          E(Eh)            E(eV)
   0   2.0000     -88.965900     -2420.8852
   1   2.0000     -88.965436     -2420.8726
   2   2.0000     -10.334204      -281.2080
   3   2.0000     -10.331716      -281.1403
   4   2.0000     -10.324944      -280.9560
   5   2.0000     -10.315497      -280.6989
   6   2.0000     -10.309882      -280.5462
   7   2.0000     -10.302955      -280.3577
   8   2.0000     -10.297091      -280.1981
   9   2.0000     -10.296091      -280.1709
  10   2.0000     -10.295783      -280.1625
  11   2.0000     -10.295669      -280.1594
  12   2.0000     -10.292975      -280.0861
  13   2.0000     -10.292436      -280.0714
  14   2.0000     -10.283509      -279.8285
  15   2.0000     -10.282038      -279.7885
  16   2.0000      -8.081062      -219.8969
  17   2.0000      -8.079635      -219.8581
  18   2.0000      -6.039346      -164.3390
  19   2.0000      -6.038283      -164.3100
  20   2.0000      -6.035252      -164.2276
  21   2.0000      -6.034225      -164.1996
  22   2.0000      -6.032192      -164.1443
  23   2.0000      -6.030344      -164.0940
  24   2.0000      -1.003486       -27.3062
  25   2.0000      -0.981373       -26.7045
  26   2.0000      -0.904994       -24.6261
  27   2.0000      -0.901639       -24.5349
  28   2.0000      -0.865356       -23.5475
  29   2.0000      -0.853049       -23.2126
  30   2.0000      -0.844385       -22.9769
  31   2.0000      -0.813235       -22.1293
  32   2.0000      -0.777645       -21.1608
  33   2.0000      -0.766206       -20.8495
  34   2.0000      -0.700626       -19.0650
  35   2.0000      -0.692050       -18.8316
  36   2.0000      -0.689206       -18.7542
  37   2.0000      -0.657327       -17.8868
  38   2.0000      -0.647833       -17.6284
  39   2.0000      -0.610146       -16.6029
  40   2.0000      -0.593300       -16.1445
  41   2.0000      -0.562394       -15.3035
  42   2.0000      -0.555633       -15.1195
  43   2.0000      -0.548973       -14.9383
  44   2.0000      -0.531962       -14.4754
  45   2.0000      -0.526896       -14.3376
  46   2.0000      -0.517065       -14.0700
  47   2.0000      -0.512245       -13.9389
  48   2.0000      -0.504200       -13.7200
  49   2.0000      -0.494415       -13.4537
  50   2.0000      -0.489978       -13.3330
  51   2.0000      -0.477420       -12.9912
  52   2.0000      -0.468963       -12.7611
  53   2.0000      -0.464714       -12.6455
  54   2.0000      -0.454662       -12.3720
  55   2.0000      -0.444997       -12.1090
  56   2.0000      -0.438588       -11.9346
  57   2.0000      -0.435211       -11.8427
  58   2.0000      -0.427343       -11.6286
  59   2.0000      -0.425116       -11.5680
  60   2.0000      -0.417841       -11.3700
  61   2.0000      -0.412532       -11.2256
  62   2.0000      -0.409143       -11.1333
  63   2.0000      -0.347825        -9.4648
  64   2.0000      -0.330524        -8.9940
  65   2.0000      -0.325803        -8.8655
  66   2.0000      -0.291723        -7.9382
  67   0.0000       0.025909         0.7050
  68   0.0000       0.075783         2.0622
  69   0.0000       0.109087         2.9684
  70   0.0000       0.118703         3.2301
  71   0.0000       0.128596         3.4993

MULLIKEN ATOMIC CHARGES
-----------------------
   0 S :    0.115194
   1 C :   -0.125323
   2 C :   -0.120070
   3 C :    0.048006
   4 C :   -0.169974
   5 H :    0.016874
   6 C :    0.083147
   7 H :    0.023601
   8 H :    0.015608
   9 C :   -0.076449
  10 H :    0.032719
  11 H :    0.036668
  12 C :   -0.071883
  13 H :    0.035108
  14 H :    0.044090
  15 H :    0.041772
  16 S :    0.096104
  17 C :   -0.115964
  18 C :   -0.041895
  19 C :   -0.038139
  20 C :   -0.162102
  21 H :    0.027531
  22 C :    0.085635
  23 H :    0.021427
  24 H :    0.011089
  25 C :   -0.085566
  26 H :    0.038513
  27 H :    0.022263
  28 C :   -0.071253
  29 H :    0.049998
  30 H :    0.051433
  31 H :    0.037369
  32 H :    0.060401
  33 H :    0.084069
Sum of atomic charges:    0.0000000

LOEWDIN ATOMIC CHARGES
----------------------
   0 S :    0.433315
   1 C :   -0.218271
   2 C :   -0.059442
   3 C :   -0.067586
   4 C :   -0.195385
   5 H :    0.030216
   6 C :   -0.042261
   7 H :    0.030441
   8 H :    0.030853
   9 C :   -0.043988
  10 H :    0.034807
  11 H :    0.023407
  12 C :   -0.075238
  13 H :    0.036990
  14 H :    0.027392
  15 H :    0.026289
  16 S :    0.383186
  17 C :   -0.191667
  18 C :   -0.073330
  19 C :   -0.065125
  20 C :   -0.189935
  21 H :    0.033888
  22 C :   -0.032516
  23 H :    0.030176
  24 H :    0.028343
  25 C :   -0.041523
  26 H :    0.034412
  27 H :    0.014720
  28 C :   -0.071579
  29 H :    0.037227
  30 H :    0.029782
  31 H :    0.025227
  32 H :    0.031020
  33 H :    0.046158

  Mayer bond orders larger than 0.100000
B(  0-S ,  1-C ) :   1.1552 B(  0-S ,  4-C ) :   1.1789 B(  1-C ,  2-C ) :   1.5774
B(  1-C , 32-H ) :   0.9718 B(  2-C ,  3-C ) :   1.2329 B(  2-C ,  6-C ) :   1.0361
B(  3-C ,  4-C ) :   1.5688 B(  3-C ,  5-H ) :   0.9923 B(  4-C , 20-C ) :   1.0145
B(  6-C ,  7-H ) :   0.9338 B(  6-C ,  8-H ) :   0.9462 B(  6-C ,  9-C ) :   1.0311
B(  9-C , 10-H ) :   0.9492 B(  9-C , 11-H ) :   0.9685 B(  9-C , 12-C ) :   1.0826
B( 12-C , 13-H ) :   0.9728 B( 12-C , 14-H ) :   0.9752 B( 12-C , 15-H ) :   0.9764
B( 16-S , 17-C ) :   1.1299 B( 16-S , 20-C ) :   1.1554 B( 17-C , 18-C ) :   1.5939
B( 17-C , 20-C ) :   0.1024 B( 17-C , 33-H ) :   0.9667 B( 18-C , 19-C ) :   1.2625
B( 18-C , 21-H ) :   0.9718 B( 19-C , 20-C ) :   1.5716 B( 19-C , 22-C ) :   1.0571
B( 22-C , 23-H ) :   0.9254 B( 22-C , 24-H ) :   0.9319 B( 22-C , 25-C ) :   1.0599
B( 25-C , 26-H ) :   0.9542 B( 25-C , 27-H ) :   0.9586 B( 25-C , 28-C ) :   1.0695
B( 28-C , 29-H ) :   0.9730 B( 28-C , 30-H ) :   0.9755 B( 28-C , 31-H ) :   0.9726

Dispersion correction           -0.014646924
FINAL SINGLE POINT ENERGY     -1339.872653303272

DIPOLE MOMENT
-------------
                                X             Y             Z
Electronic contribution:     -0.40749     -15.78429      23.91298
Nuclear contribution   :      0.56504      16.25760     -24.29131
                        -----------------------------------------
Total Dipole Moment    :      0.15756       0.47330      -0.37833
                        -----------------------------------------
Magnitude (a.u.)       :      0.62608
Magnitude (Debye)      :      1.59136

Rotational constants in cm-1:     0.020719     0.008228     0.006746
Rotational constants in MHz :   621.131032   246.660762   202.225939

                             ****ORCA TERMINATED NORMALLY****
TOTAL RUN TIME: 0 days 0 hours 0 minutes 20 seconds 623 msec
