                         Program Version 4.2.1 -  RELEASE  -
|  1> ! wB97X-D3 SP def2-SVP
|  2> %pal
|  3> nprocs 24
|  4> end
|  5>
|  6> * xyz 0 1
|  7> S 	 -122.857 	 56.8336 	 -34.6673
|  8> C 	 -121.766 	 55.4735 	 -34.5532
|  9> C 	 -120.935 	 55.5382 	 -33.4272
| 10> C 	 -121.406 	 56.5688 	 -32.5611
| 11> C 	 -122.588 	 57.149 	 -33.0169
| 12> H 	 -120.859 	 57.0436 	 -31.7291
| 13> C 	 -119.677 	 54.7122 	 -33.2317
| 14> H 	 -118.876 	 55.3394 	 -32.7243
| 15> H 	 -119.348 	 54.4592 	 -34.306
| 16> C 	 -119.893 	 53.3681 	 -32.603
| 17> H 	 -120.594 	 52.7618 	 -33.1557
| 18> H 	 -118.965 	 52.7077 	 -32.4925
| 19> C 	 -120.532 	 53.5579 	 -31.2862
| 20> H 	 -120.572 	 52.7035 	 -30.661
| 21> H 	 -119.963 	 54.2529 	 -30.6478
| 22> H 	 -121.486 	 53.9245 	 -31.3916
| 23> S 	 -123.442 	 59.7265 	 -33.2228
| 24> C 	 -123.891 	 60.6006 	 -31.8837
| 25> C 	 -123.781 	 59.8299 	 -30.7118
| 26> C 	 -123.324 	 58.5087 	 -30.9346
| 27> C 	 -123.152 	 58.2878 	 -32.3173
| 28> H 	 -123.909 	 60.2469 	 -29.721
| 29> C 	 -123.336 	 57.5199 	 -29.7943
| 30> H 	 -122.898 	 56.6207 	 -30.2397
| 31> H 	 -124.31 	 57.3102 	 -29.3836
| 32> C 	 -122.421 	 57.773 	 -28.638
| 33> H 	 -122.868 	 58.6148 	 -28.1276
| 34> H 	 -121.459 	 58.1991 	 -29.0497
| 35> C 	 -122.202 	 56.4287 	 -27.835
| 36> H 	 -121.134 	 56.4586 	 -27.4021
| 37> H 	 -122.233 	 55.4623 	 -28.3641
| 38> H 	 -122.786 	 56.3308 	 -27.0164
| 39> H 	 -121.65 	 54.7307 	 -35.3788
| 40> H 	 -124.087 	 61.6683 	 -31.8975
| 41> *
| 42>
| 43>                          ****END OF INPUT****

CARTESIAN COORDINATES (ANGSTROEM)
---------------------------------
  S    -122.857000   56.833600  -34.667300
  C    -121.766000   55.473500  -34.553200
  C    -120.935000   55.538200  -33.427200
  C    -121.406000   56.568800  -32.561100
  C    -122.588000   57.149000  -33.016900
  H    -120.859000   57.043600  -31.729100
  C    -119.677000   54.712200  -33.231700
  H    -118.876000   55.339400  -32.724300
  H    -119.348000   54.459200  -34.306000
  C    -119.893000   53.368100  -32.603000
  H    -120.594000   52.761800  -33.155700
  H    -118.965000   52.707700  -32.492500
  C    -120.532000   53.557900  -31.286200
  H    -120.572000   52.703500  -30.661000
  H    -119.963000   54.252900  -30.647800
  H    -121.486000   53.924500  -31.391600
  S    -123.442000   59.726500  -33.222800
  C    -123.891000   60.600600  -31.883700
  C    -123.781000   59.829900  -30.711800
  C    -123.324000   58.508700  -30.934600
  C    -123.152000   58.287800  -32.317300
  H    -123.909000   60.246900  -29.721000
  C    -123.336000   57.519900  -29.794300
  H    -122.898000   56.620700  -30.239700
  H    -124.310000   57.310200  -29.383600
  C    -122.421000   57.773000  -28.638000
  H    -122.868000   58.614800  -28.127600
  H    -121.459000   58.199100  -29.049700
  C    -122.202000   56.428700  -27.835000
  H    -121.134000   56.458600  -27.402100
  H    -122.233000   55.462300  -28.364100
  H    -122.786000   56.330800  -27.016400
  H    -121.650000   54.730700  -35.378800
  H    -124.087000   61.668300  -31.897500

 Total Charge           Charge          ....    0
 Multiplicity           Mult            ....    1
 Number of Electrons    NEL             ....  134
 Basis Dimension        Dim             ....  322

ORBITAL ENERGIES
----------------

  NO   OCC          E(Eh)            E(eV)
   0   2.0000     -88.970520     -2421.0109
   1   2.0000     -88.967215     -2420.9210
   2   2.0000     -10.324346      -280.9397
   3   2.0000     -10.323561      -280.9184
   4   2.0000     -10.317932      -280.7652
   5   2.0000     -10.311323      -280.5854
   6   2.0000     -10.305055      -280.4148
   7   2.0000     -10.302845      -280.3547
   8   2.0000     -10.299203      -280.2556
   9   2.0000     -10.294807      -280.1359
  10   2.0000     -10.290429      -280.0168
  11   2.0000     -10.289696      -279.9969
  12   2.0000     -10.284704      -279.8610
  13   2.0000     -10.281695      -279.7791
  14   2.0000     -10.281554      -279.7753
  15   2.0000     -10.259033      -279.1625
  16   2.0000      -8.086154      -220.0354
  17   2.0000      -8.084047      -219.9781
  18   2.0000      -6.044497      -164.4791
  19   2.0000      -6.042266      -164.4184
  20   2.0000      -6.040919      -164.3818
  21   2.0000      -6.038122      -164.3056
  22   2.0000      -6.036665      -164.2660
  23   2.0000      -6.035148      -164.2247
  24   2.0000      -1.017097       -27.6766
  25   2.0000      -0.992386       -27.0042
  26   2.0000      -0.923674       -25.1344
  27   2.0000      -0.915146       -24.9024
  28   2.0000      -0.869776       -23.6678
  29   2.0000      -0.855529       -23.2801
  30   2.0000      -0.846795       -23.0425
  31   2.0000      -0.808177       -21.9916
  32   2.0000      -0.785427       -21.3726
  33   2.0000      -0.773031       -21.0352
  34   2.0000      -0.705198       -19.1894
  35   2.0000      -0.700848       -19.0710
  36   2.0000      -0.691800       -18.8248
  37   2.0000      -0.659995       -17.9594
  38   2.0000      -0.634496       -17.2655
  39   2.0000      -0.614993       -16.7348
  40   2.0000      -0.600235       -16.3332
  41   2.0000      -0.575997       -15.6737
  42   2.0000      -0.571402       -15.5486
  43   2.0000      -0.557206       -15.1624
  44   2.0000      -0.541818       -14.7436
  45   2.0000      -0.518197       -14.1009
  46   2.0000      -0.510632       -13.8950
  47   2.0000      -0.509379       -13.8609
  48   2.0000      -0.508240       -13.8299
  49   2.0000      -0.498840       -13.5741
  50   2.0000      -0.493463       -13.4278
  51   2.0000      -0.482123       -13.1192
  52   2.0000      -0.476312       -12.9611
  53   2.0000      -0.467036       -12.7087
  54   2.0000      -0.462020       -12.5722
  55   2.0000      -0.453926       -12.3520
  56   2.0000      -0.440464       -11.9856
  57   2.0000      -0.434210       -11.8155
  58   2.0000      -0.427456       -11.6317
  59   2.0000      -0.422568       -11.4987
  60   2.0000      -0.421345       -11.4654
  61   2.0000      -0.417541       -11.3619
  62   2.0000      -0.412617       -11.2279
  63   2.0000      -0.349602        -9.5132
  64   2.0000      -0.333229        -9.0676
  65   2.0000      -0.330192        -8.9850
  66   2.0000      -0.280530        -7.6336
  67   0.0000       0.022603         0.6151
  68   0.0000       0.070869         1.9285
  69   0.0000       0.097345         2.6489
  70   0.0000       0.119219         3.2441
  71   0.0000       0.131214         3.5705

MULLIKEN ATOMIC CHARGES
-----------------------
   0 S :    0.117417
   1 C :   -0.134593
   2 C :   -0.092859
   3 C :   -0.015866
   4 C :   -0.127399
   5 H :    0.037715
   6 C :    0.032813
   7 H :    0.053821
   8 H :    0.034515
   9 C :   -0.052212
  10 H :    0.019839
  11 H :    0.040148
  12 C :   -0.026584
  13 H :    0.013804
  14 H :    0.009357
  15 H :    0.031721
  16 S :    0.124865
  17 C :   -0.096033
  18 C :   -0.041382
  19 C :   -0.050382
  20 C :   -0.152853
  21 H :    0.014259
  22 C :    0.074271
  23 H :    0.007768
  24 H :    0.039982
  25 C :   -0.096842
  26 H :    0.026643
  27 H :    0.032112
  28 C :   -0.040147
  29 H :    0.035604
  30 H :    0.044169
  31 H :    0.016186
  32 H :    0.059254
  33 H :    0.060885
Sum of atomic charges:    0.0000000

LOEWDIN ATOMIC CHARGES
----------------------
   0 S :    0.427624
   1 C :   -0.204030
   2 C :   -0.062684
   3 C :   -0.064795
   4 C :   -0.209461
   5 H :    0.037381
   6 C :   -0.036301
   7 H :    0.041073
   8 H :    0.039227
   9 C :   -0.047734
  10 H :    0.023456
  11 H :    0.032247
  12 C :   -0.061487
  13 H :    0.019423
  14 H :    0.021986
  15 H :    0.015196
  16 S :    0.458078
  17 C :   -0.221984
  18 C :   -0.072234
  19 C :   -0.062807
  20 C :   -0.206263
  21 H :    0.027087
  22 C :   -0.035580
  23 H :    0.026063
  24 H :    0.030959
  25 C :   -0.039871
  26 H :    0.019320
  27 H :    0.026265
  28 C :   -0.063690
  29 H :    0.038819
  30 H :    0.032340
  31 H :    0.009534
  32 H :    0.031903
  33 H :    0.030938

  Mayer bond orders larger than 0.100000
B(  0-S ,  1-C ) :   1.1487 B(  0-S ,  4-C ) :   1.1733 B(  1-C ,  2-C ) :   1.5884
B(  1-C , 32-H ) :   0.9628 B(  2-C ,  3-C ) :   1.2578 B(  2-C ,  6-C ) :   1.0085
B(  3-C ,  4-C ) :   1.5203 B(  3-C ,  5-H ) :   0.9896 B(  4-C , 20-C ) :   1.0610
B(  6-C ,  7-H ) :   0.9490 B(  6-C ,  8-H ) :   0.9379 B(  6-C ,  9-C ) :   1.0750
B(  9-C , 10-H ) :   0.9503 B(  9-C , 11-H ) :   0.9538 B(  9-C , 12-C ) :   1.0883
B( 12-C , 13-H ) :   0.9667 B( 12-C , 14-H ) :   0.9701 B( 12-C , 15-H ) :   0.9682
B( 16-S , 17-C ) :   1.1955 B( 16-S , 20-C ) :   1.1758 B( 17-C , 18-C ) :   1.5419
B( 17-C , 33-H ) :   0.9696 B( 18-C , 19-C ) :   1.2933 B( 18-C , 21-H ) :   0.9920
B( 19-C , 20-C ) :   1.5405 B( 19-C , 22-C ) :   1.0457 B( 22-C , 23-H ) :   0.9315
B( 22-C , 24-H ) :   0.9439 B( 22-C , 25-C ) :   1.0493 B( 25-C , 26-H ) :   0.9581
B( 25-C , 27-H ) :   0.9624 B( 25-C , 28-C ) :   1.0564 B( 28-C , 29-H ) :   0.9773
B( 28-C , 30-H ) :   0.9784 B( 28-C , 31-H ) :   0.9772

Dispersion correction           -0.014919454
FINAL SINGLE POINT ENERGY     -1339.848642373946

DIPOLE MOMENT
-------------
                                X             Y             Z
Electronic contribution:    -12.33821      18.20500     -23.31090
Nuclear contribution   :     12.71573     -18.36479      23.71259
                        -----------------------------------------
Total Dipole Moment    :      0.37753      -0.15979       0.40169
                        -----------------------------------------
Magnitude (a.u.)       :      0.57395
Magnitude (Debye)      :      1.45886

Rotational constants in cm-1:     0.016728     0.010823     0.006921
Rotational constants in MHz :   501.495720   324.463223   207.484370

                             ****ORCA TERMINATED NORMALLY****
TOTAL RUN TIME: 0 days 0 hours 0 minutes 22 seconds 515 msec
