                         Program Version 4.2.1 -  RELEASE  -
|  1> ! wB97X-D3 SP def2-SVP
|  2> %pal
|  3> nprocs 24
|  4> end
|  5>
|  6> * xyz 0 1
|  7> S 	 -85.3173 	 -44.241 	 -83.8011
|  8> C 	 -87.0189 	 -43.8423 	 -83.8189
|  9> C 	 -87.7909 	 -44.8491 	 -83.2542
| 10> C 	 -87.0246 	 -45.9631 	 -82.8488
| 11> C 	 -85.6899 	 -45.8527 	 -83.1529
| 12> H 	 -87.4686 	 -46.8179 	 -82.4567
| 13> C 	 -89.304 	 -44.8627 	 -83.1271
| 14> H 	 -89.7376 	 -45.638 	 -83.8287
| 15> H 	 -89.6579 	 -43.9189 	 -83.5099
| 16> C 	 -89.8687 	 -45.2202 	 -81.7291
| 17> H 	 -89.8799 	 -46.3011 	 -81.8129
| 18> H 	 -89.3629 	 -44.9164 	 -80.8623
| 19> C 	 -91.3134 	 -44.7165 	 -81.6585
| 20> H 	 -91.1931 	 -43.6271 	 -81.5141
| 21> H 	 -91.9285 	 -44.9332 	 -82.5637
| 22> H 	 -91.8447 	 -45.192 	 -80.8657
| 23> S 	 -83.537 	 -47.1211 	 -84.2311
| 24> C 	 -82.5963 	 -48.1917 	 -83.3674
| 25> C 	 -83.2681 	 -48.5418 	 -82.2321
| 26> C 	 -84.4272 	 -47.729 	 -81.9493
| 27> C 	 -84.6311 	 -46.8323 	 -82.934
| 28> H 	 -82.8895 	 -49.2626 	 -81.4516
| 29> C 	 -85.2357 	 -47.7275 	 -80.6668
| 30> H 	 -85.5871 	 -48.7479 	 -80.6072
| 31> H 	 -86.1726 	 -47.0908 	 -80.728
| 32> C 	 -84.403 	 -47.5033 	 -79.4004
| 33> H 	 -83.9064 	 -46.5025 	 -79.4441
| 34> H 	 -83.6508 	 -48.2813 	 -79.2339
| 35> C 	 -85.4139 	 -47.5049 	 -78.2137
| 36> H 	 -86.3333 	 -46.8322 	 -78.4505
| 37> H 	 -85.0212 	 -47.1818 	 -77.2617
| 38> H 	 -85.7699 	 -48.485 	 -77.8814
| 39> H 	 -87.3524 	 -42.9881 	 -84.2803
| 40> H 	 -81.7242 	 -48.6653 	 -83.716
| 41> *
| 42>
| 43>                          ****END OF INPUT****

CARTESIAN COORDINATES (ANGSTROEM)
---------------------------------
  S    -85.317300  -44.241000  -83.801100
  C    -87.018900  -43.842300  -83.818900
  C    -87.790900  -44.849100  -83.254200
  C    -87.024600  -45.963100  -82.848800
  C    -85.689900  -45.852700  -83.152900
  H    -87.468600  -46.817900  -82.456700
  C    -89.304000  -44.862700  -83.127100
  H    -89.737600  -45.638000  -83.828700
  H    -89.657900  -43.918900  -83.509900
  C    -89.868700  -45.220200  -81.729100
  H    -89.879900  -46.301100  -81.812900
  H    -89.362900  -44.916400  -80.862300
  C    -91.313400  -44.716500  -81.658500
  H    -91.193100  -43.627100  -81.514100
  H    -91.928500  -44.933200  -82.563700
  H    -91.844700  -45.192000  -80.865700
  S    -83.537000  -47.121100  -84.231100
  C    -82.596300  -48.191700  -83.367400
  C    -83.268100  -48.541800  -82.232100
  C    -84.427200  -47.729000  -81.949300
  C    -84.631100  -46.832300  -82.934000
  H    -82.889500  -49.262600  -81.451600
  C    -85.235700  -47.727500  -80.666800
  H    -85.587100  -48.747900  -80.607200
  H    -86.172600  -47.090800  -80.728000
  C    -84.403000  -47.503300  -79.400400
  H    -83.906400  -46.502500  -79.444100
  H    -83.650800  -48.281300  -79.233900
  C    -85.413900  -47.504900  -78.213700
  H    -86.333300  -46.832200  -78.450500
  H    -85.021200  -47.181800  -77.261700
  H    -85.769900  -48.485000  -77.881400
  H    -87.352400  -42.988100  -84.280300
  H    -81.724200  -48.665300  -83.716000

 Total Charge           Charge          ....    0
 Multiplicity           Mult            ....    1
 Number of Electrons    NEL             ....  134
 Basis Dimension        Dim             ....  322

ORBITAL ENERGIES
----------------

  NO   OCC          E(Eh)            E(eV)
   0   2.0000     -88.964819     -2420.8558
   1   2.0000     -88.957153     -2420.6472
   2   2.0000     -10.329474      -281.0793
   3   2.0000     -10.315179      -280.6903
   4   2.0000     -10.308428      -280.5066
   5   2.0000     -10.307900      -280.4922
   6   2.0000     -10.298257      -280.2298
   7   2.0000     -10.295713      -280.1606
   8   2.0000     -10.295682      -280.1597
   9   2.0000     -10.294866      -280.1375
  10   2.0000     -10.293522      -280.1010
  11   2.0000     -10.293074      -280.0888
  12   2.0000     -10.286523      -279.9105
  13   2.0000     -10.285150      -279.8732
  14   2.0000     -10.284104      -279.8447
  15   2.0000     -10.281063      -279.7619
  16   2.0000      -8.079244      -219.8474
  17   2.0000      -8.074599      -219.7210
  18   2.0000      -6.037748      -164.2955
  19   2.0000      -6.033820      -164.1886
  20   2.0000      -6.032925      -164.1642
  21   2.0000      -6.030018      -164.0851
  22   2.0000      -6.028652      -164.0480
  23   2.0000      -6.025436      -163.9605
  24   2.0000      -1.017314       -27.6825
  25   2.0000      -0.988949       -26.9107
  26   2.0000      -0.913516       -24.8580
  27   2.0000      -0.910657       -24.7802
  28   2.0000      -0.873047       -23.7568
  29   2.0000      -0.853935       -23.2368
  30   2.0000      -0.844347       -22.9758
  31   2.0000      -0.815599       -22.1936
  32   2.0000      -0.777930       -21.1686
  33   2.0000      -0.769875       -20.9494
  34   2.0000      -0.710175       -19.3248
  35   2.0000      -0.702018       -19.1029
  36   2.0000      -0.695556       -18.9270
  37   2.0000      -0.659820       -17.9546
  38   2.0000      -0.646929       -17.6038
  39   2.0000      -0.628130       -17.0923
  40   2.0000      -0.602109       -16.3842
  41   2.0000      -0.581006       -15.8100
  42   2.0000      -0.562767       -15.3137
  43   2.0000      -0.559736       -15.2312
  44   2.0000      -0.528108       -14.3705
  45   2.0000      -0.525320       -14.2947
  46   2.0000      -0.515347       -14.0233
  47   2.0000      -0.509654       -13.8684
  48   2.0000      -0.509067       -13.8524
  49   2.0000      -0.499120       -13.5817
  50   2.0000      -0.490843       -13.3565
  51   2.0000      -0.479146       -13.0382
  52   2.0000      -0.470846       -12.8124
  53   2.0000      -0.461794       -12.5661
  54   2.0000      -0.457674       -12.4539
  55   2.0000      -0.451687       -12.2910
  56   2.0000      -0.445831       -12.1317
  57   2.0000      -0.443146       -12.0586
  58   2.0000      -0.436396       -11.8749
  59   2.0000      -0.423055       -11.5119
  60   2.0000      -0.419426       -11.4132
  61   2.0000      -0.417207       -11.3528
  62   2.0000      -0.411530       -11.1983
  63   2.0000      -0.351649        -9.5688
  64   2.0000      -0.331689        -9.0257
  65   2.0000      -0.324373        -8.8266
  66   2.0000      -0.292511        -7.9596
  67   0.0000       0.031331         0.8526
  68   0.0000       0.082376         2.2416
  69   0.0000       0.116850         3.1797
  70   0.0000       0.118269         3.2183
  71   0.0000       0.131226         3.5708

MULLIKEN ATOMIC CHARGES
-----------------------
   0 S :    0.105848
   1 C :   -0.101580
   2 C :   -0.056159
   3 C :    0.027896
   4 C :   -0.130522
   5 H :   -0.007667
   6 C :    0.039874
   7 H :    0.047700
   8 H :    0.005624
   9 C :   -0.065848
  10 H :    0.027463
  11 H :    0.032297
  12 C :   -0.058525
  13 H :    0.044324
  14 H :    0.034046
  15 H :    0.029202
  16 S :    0.107759
  17 C :   -0.055397
  18 C :   -0.056759
  19 C :   -0.043176
  20 C :   -0.149415
  21 H :    0.027535
  22 C :    0.047052
  23 H :    0.020600
  24 H :    0.034159
  25 C :   -0.065902
  26 H :    0.049261
  27 H :    0.036494
  28 C :   -0.073006
  29 H :    0.041496
  30 H :    0.022080
  31 H :    0.025827
  32 H :    0.013614
  33 H :    0.043809
Sum of atomic charges:   -0.0000000

LOEWDIN ATOMIC CHARGES
----------------------
   0 S :    0.396309
   1 C :   -0.184909
   2 C :   -0.060263
   3 C :   -0.058961
   4 C :   -0.174966
   5 H :    0.020187
   6 C :   -0.029856
   7 H :    0.041301
   8 H :    0.019554
   9 C :   -0.035976
  10 H :    0.022029
  11 H :    0.018595
  12 C :   -0.062277
  13 H :    0.030610
  14 H :    0.028471
  15 H :    0.020070
  16 S :    0.442143
  17 C :   -0.199823
  18 C :   -0.079956
  19 C :   -0.062604
  20 C :   -0.211810
  21 H :    0.034312
  22 C :   -0.036323
  23 H :    0.031960
  24 H :    0.037563
  25 C :   -0.037047
  26 H :    0.032411
  27 H :    0.025301
  28 C :   -0.077051
  29 H :    0.034416
  30 H :    0.020100
  31 H :    0.023007
  32 H :    0.008350
  33 H :    0.025132

  Mayer bond orders larger than 0.100000
B(  0-S ,  1-C ) :   1.1338 B(  0-S ,  4-C ) :   1.1541 B(  1-C ,  2-C ) :   1.6009
B(  1-C ,  4-C ) :   0.1013 B(  1-C , 32-H ) :   0.9811 B(  2-C ,  3-C ) :   1.2437
B(  2-C ,  6-C ) :   1.0267 B(  3-C ,  4-C ) :   1.5692 B(  3-C ,  5-H ) :   1.0011
B(  4-C , 20-C ) :   1.0200 B(  6-C ,  7-H ) :   0.9392 B(  6-C ,  8-H ) :   0.9497
B(  6-C ,  9-C ) :   1.0362 B(  9-C , 10-H ) :   0.9515 B(  9-C , 11-H ) :   0.9691
B(  9-C , 12-C ) :   1.0874 B( 12-C , 13-H ) :   0.9788 B( 12-C , 14-H ) :   0.9718
B( 12-C , 15-H ) :   0.9740 B( 16-S , 17-C ) :   1.1727 B( 16-S , 20-C ) :   1.1512
B( 17-C , 18-C ) :   1.5790 B( 17-C , 33-H ) :   0.9782 B( 18-C , 19-C ) :   1.2489
B( 18-C , 21-H ) :   0.9810 B( 19-C , 20-C ) :   1.6189 B( 19-C , 22-C ) :   1.0358
B( 22-C , 23-H ) :   0.9197 B( 22-C , 24-H ) :   0.9392 B( 22-C , 25-C ) :   1.0651
B( 25-C , 26-H ) :   0.9575 B( 25-C , 27-H ) :   0.9515 B( 25-C , 28-C ) :   1.0755
B( 28-C , 29-H ) :   0.9741 B( 28-C , 30-H ) :   0.9737 B( 28-C , 31-H ) :   0.9749

Dispersion correction           -0.013649107
FINAL SINGLE POINT ENERGY     -1339.875226591582

DIPOLE MOMENT
-------------
                                X             Y             Z
Electronic contribution:     21.89942       3.19370     -22.14484
Nuclear contribution   :    -22.34894      -3.51042      22.60852
                        -----------------------------------------
Total Dipole Moment    :     -0.44952      -0.31672       0.46368
                        -----------------------------------------
Magnitude (a.u.)       :      0.71929
Magnitude (Debye)      :      1.82829

Rotational constants in cm-1:     0.017327     0.008937     0.006532
Rotational constants in MHz :   519.458193   267.917815   195.827291

                             ****ORCA TERMINATED NORMALLY****
TOTAL RUN TIME: 0 days 0 hours 0 minutes 21 seconds 465 msec
