                         Program Version 4.2.1 -  RELEASE  -
|  1> ! wB97X-D3 SP def2-SVP
|  2> %pal
|  3> nprocs 24
|  4> end
|  5>
|  6> * xyz 0 1
|  7> S 	 -69.9394 	 9.23535 	 -73.7823
|  8> C 	 -69.0859 	 10.6121 	 -74.4371
|  9> C 	 -68.7562 	 11.5326 	 -73.4434
| 10> C 	 -68.9205 	 10.9623 	 -72.1647
| 11> C 	 -69.5108 	 9.72219 	 -72.1282
| 12> H 	 -68.6529 	 11.4697 	 -71.2599
| 13> C 	 -68.6115 	 13.0215 	 -73.8261
| 14> H 	 -69.0603 	 13.0739 	 -74.8077
| 15> H 	 -67.4943 	 13.1226 	 -73.8882
| 16> C 	 -69.1557 	 14.1519 	 -72.98
| 17> H 	 -68.6512 	 14.3199 	 -71.9956
| 18> H 	 -68.8914 	 15.0206 	 -73.463
| 19> C 	 -70.7 	 14.1816 	 -72.733
| 20> H 	 -70.9962 	 15.0227 	 -72.1247
| 21> H 	 -71.229 	 14.2042 	 -73.6657
| 22> H 	 -71.0948 	 13.4093 	 -72.0837
| 23> S 	 -71.6294 	 8.74314 	 -70.5848
| 24> C 	 -71.2977 	 7.94079 	 -69.0795
| 25> C 	 -69.9136 	 7.79095 	 -68.9021
| 26> C 	 -69.1373 	 8.33245 	 -69.9741
| 27> C 	 -69.8982 	 8.87436 	 -71.0188
| 28> H 	 -69.5776 	 7.32795 	 -68.0038
| 29> C 	 -67.5936 	 8.16284 	 -70.0199
| 30> H 	 -67.2543 	 7.39868 	 -69.2865
| 31> H 	 -67.258 	 9.13037 	 -69.637
| 32> C 	 -67.0085 	 7.81739 	 -71.4348
| 33> H 	 -65.9241 	 7.61048 	 -71.2509
| 34> H 	 -67.0581 	 8.69253 	 -72.1454
| 35> C 	 -67.5848 	 6.54796 	 -72.0107
| 36> H 	 -67.4012 	 5.69962 	 -71.2521
| 37> H 	 -67.0717 	 6.34274 	 -72.9042
| 38> H 	 -68.6418 	 6.68626 	 -72.1999
| 39> H 	 -69.168 	 10.973 	 -75.4464
| 40> H 	 -72.0426 	 7.73021 	 -68.299
| 41> *
| 42>
| 43>                          ****END OF INPUT****

CARTESIAN COORDINATES (ANGSTROEM)
---------------------------------
  S    -69.939400    9.235350  -73.782300
  C    -69.085900   10.612100  -74.437100
  C    -68.756200   11.532600  -73.443400
  C    -68.920500   10.962300  -72.164700
  C    -69.510800    9.722190  -72.128200
  H    -68.652900   11.469700  -71.259900
  C    -68.611500   13.021500  -73.826100
  H    -69.060300   13.073900  -74.807700
  H    -67.494300   13.122600  -73.888200
  C    -69.155700   14.151900  -72.980000
  H    -68.651200   14.319900  -71.995600
  H    -68.891400   15.020600  -73.463000
  C    -70.700000   14.181600  -72.733000
  H    -70.996200   15.022700  -72.124700
  H    -71.229000   14.204200  -73.665700
  H    -71.094800   13.409300  -72.083700
  S    -71.629400    8.743140  -70.584800
  C    -71.297700    7.940790  -69.079500
  C    -69.913600    7.790950  -68.902100
  C    -69.137300    8.332450  -69.974100
  C    -69.898200    8.874360  -71.018800
  H    -69.577600    7.327950  -68.003800
  C    -67.593600    8.162840  -70.019900
  H    -67.254300    7.398680  -69.286500
  H    -67.258000    9.130370  -69.637000
  C    -67.008500    7.817390  -71.434800
  H    -65.924100    7.610480  -71.250900
  H    -67.058100    8.692530  -72.145400
  C    -67.584800    6.547960  -72.010700
  H    -67.401200    5.699620  -71.252100
  H    -67.071700    6.342740  -72.904200
  H    -68.641800    6.686260  -72.199900
  H    -69.168000   10.973000  -75.446400
  H    -72.042600    7.730210  -68.299000

 Total Charge           Charge          ....    0
 Multiplicity           Mult            ....    1
 Number of Electrons    NEL             ....  134
 Basis Dimension        Dim             ....  322

ORBITAL ENERGIES
----------------

  NO   OCC          E(Eh)            E(eV)
   0   2.0000     -88.965861     -2420.8841
   1   2.0000     -88.965528     -2420.8751
   2   2.0000     -10.331696      -281.1397
   3   2.0000     -10.327827      -281.0345
   4   2.0000     -10.321991      -280.8757
   5   2.0000     -10.310088      -280.5518
   6   2.0000     -10.308328      -280.5039
   7   2.0000     -10.300322      -280.2860
   8   2.0000     -10.299722      -280.2697
   9   2.0000     -10.295810      -280.1632
  10   2.0000     -10.294069      -280.1159
  11   2.0000     -10.293350      -280.0963
  12   2.0000     -10.288885      -279.9748
  13   2.0000     -10.285089      -279.8715
  14   2.0000     -10.274553      -279.5848
  15   2.0000     -10.267263      -279.3864
  16   2.0000      -8.079971      -219.8672
  17   2.0000      -8.079742      -219.8610
  18   2.0000      -6.038476      -164.3153
  19   2.0000      -6.038236      -164.3087
  20   2.0000      -6.034621      -164.2104
  21   2.0000      -6.034182      -164.1984
  22   2.0000      -6.030717      -164.1041
  23   2.0000      -6.030687      -164.1033
  24   2.0000      -1.002933       -27.2912
  25   2.0000      -0.980496       -26.6807
  26   2.0000      -0.909979       -24.7618
  27   2.0000      -0.899614       -24.4797
  28   2.0000      -0.867850       -23.6154
  29   2.0000      -0.846527       -23.0352
  30   2.0000      -0.842438       -22.9239
  31   2.0000      -0.815736       -22.1973
  32   2.0000      -0.784672       -21.3520
  33   2.0000      -0.770545       -20.9676
  34   2.0000      -0.715110       -19.4591
  35   2.0000      -0.695650       -18.9296
  36   2.0000      -0.677119       -18.4253
  37   2.0000      -0.658810       -17.9271
  38   2.0000      -0.639926       -17.4133
  39   2.0000      -0.621063       -16.9000
  40   2.0000      -0.581829       -15.8324
  41   2.0000      -0.566935       -15.4271
  42   2.0000      -0.555138       -15.1061
  43   2.0000      -0.550874       -14.9901
  44   2.0000      -0.546588       -14.8734
  45   2.0000      -0.539557       -14.6821
  46   2.0000      -0.518923       -14.1206
  47   2.0000      -0.506461       -13.7815
  48   2.0000      -0.496751       -13.5173
  49   2.0000      -0.493608       -13.4318
  50   2.0000      -0.485435       -13.2094
  51   2.0000      -0.478588       -13.0230
  52   2.0000      -0.473618       -12.8878
  53   2.0000      -0.463720       -12.6185
  54   2.0000      -0.460478       -12.5303
  55   2.0000      -0.442049       -12.0288
  56   2.0000      -0.436209       -11.8698
  57   2.0000      -0.433365       -11.7925
  58   2.0000      -0.428748       -11.6668
  59   2.0000      -0.427497       -11.6328
  60   2.0000      -0.418381       -11.3847
  61   2.0000      -0.415310       -11.3012
  62   2.0000      -0.405817       -11.0428
  63   2.0000      -0.339977        -9.2513
  64   2.0000      -0.328342        -8.9346
  65   2.0000      -0.326696        -8.8899
  66   2.0000      -0.294341        -8.0094
  67   0.0000       0.030566         0.8318
  68   0.0000       0.054796         1.4911
  69   0.0000       0.107015         2.9120
  70   0.0000       0.124254         3.3811
  71   0.0000       0.132048         3.5932

MULLIKEN ATOMIC CHARGES
-----------------------
   0 S :    0.107939
   1 C :   -0.106994
   2 C :   -0.122058
   3 C :    0.062780
   4 C :   -0.188863
   5 H :    0.000482
   6 C :    0.055461
   7 H :    0.021532
   8 H :    0.050168
   9 C :   -0.035851
  10 H :    0.024904
  11 H :    0.010648
  12 C :   -0.047261
  13 H :    0.022252
  14 H :    0.030718
  15 H :    0.035983
  16 S :    0.106704
  17 C :   -0.105756
  18 C :   -0.040916
  19 C :   -0.030930
  20 C :   -0.158204
  21 H :    0.010241
  22 C :    0.067227
  23 H :    0.027858
  24 H :    0.034349
  25 C :   -0.116888
  26 H :    0.031100
  27 H :    0.058710
  28 C :   -0.018619
  29 H :    0.031294
  30 H :    0.026386
  31 H :    0.039337
  32 H :    0.043800
  33 H :    0.072465
Sum of atomic charges:    0.0000000

LOEWDIN ATOMIC CHARGES
----------------------
   0 S :    0.401237
   1 C :   -0.202732
   2 C :   -0.065770
   3 C :   -0.056947
   4 C :   -0.186166
   5 H :    0.029097
   6 C :   -0.028947
   7 H :    0.029625
   8 H :    0.043699
   9 C :   -0.041014
  10 H :    0.029125
  11 H :    0.019395
  12 C :   -0.065955
  13 H :    0.026914
  14 H :    0.022170
  15 H :    0.027900
  16 S :    0.401380
  17 C :   -0.189600
  18 C :   -0.075954
  19 C :   -0.047876
  20 C :   -0.209445
  21 H :    0.026933
  22 C :   -0.032096
  23 H :    0.031963
  24 H :    0.033411
  25 C :   -0.049668
  26 H :    0.027048
  27 H :    0.031542
  28 C :   -0.061339
  29 H :    0.032396
  30 H :    0.019689
  31 H :    0.020546
  32 H :    0.021916
  33 H :    0.037523

  Mayer bond orders larger than 0.100000
B(  0-S ,  1-C ) :   1.1497 B(  0-S ,  4-C ) :   1.1470 B(  1-C ,  2-C ) :   1.6110
B(  1-C ,  4-C ) :   0.1073 B(  1-C , 32-H ) :   0.9618 B(  2-C ,  3-C ) :   1.2576
B(  2-C ,  6-C ) :   0.9939 B(  3-C ,  4-C ) :   1.5746 B(  3-C ,  5-H ) :   1.0041
B(  4-C , 20-C ) :   1.0302 B(  6-C ,  7-H ) :   0.9483 B(  6-C ,  8-H ) :   0.9305
B(  6-C ,  9-C ) :   1.0940 B(  9-C , 10-H ) :   0.9477 B(  9-C , 11-H ) :   0.9443
B(  9-C , 12-C ) :   1.0766 B( 12-C , 13-H ) :   0.9717 B( 12-C , 14-H ) :   0.9772
B( 12-C , 15-H ) :   0.9755 B( 16-S , 17-C ) :   1.1769 B( 16-S , 20-C ) :   1.1315
B( 17-C , 18-C ) :   1.5809 B( 17-C , 20-C ) :   0.1055 B( 17-C , 33-H ) :   0.9635
B( 18-C , 19-C ) :   1.2584 B( 18-C , 21-H ) :   0.9969 B( 19-C , 20-C ) :   1.5803
B( 19-C , 22-C ) :   1.0120 B( 22-C , 23-H ) :   0.9483 B( 22-C , 24-H ) :   0.9279
B( 22-C , 25-C ) :   1.0737 B( 25-C , 26-H ) :   0.9543 B( 25-C , 27-H ) :   0.9457
B( 25-C , 28-C ) :   1.0818 B( 28-C , 29-H ) :   0.9726 B( 28-C , 30-H ) :   0.9710
B( 28-C , 31-H ) :   0.9696

Dispersion correction           -0.015940583
FINAL SINGLE POINT ENERGY     -1339.869809486525

DIPOLE MOMENT
-------------
                                X             Y             Z
Electronic contribution:    -12.40481     -10.43130       0.62784
Nuclear contribution   :     12.68573      10.99317      -0.31412
                        -----------------------------------------
Total Dipole Moment    :      0.28092       0.56187       0.31372
                        -----------------------------------------
Magnitude (a.u.)       :      0.70216
Magnitude (Debye)      :      1.78476

Rotational constants in cm-1:     0.020019     0.009201     0.007960
Rotational constants in MHz :   600.147700   275.853287   238.636094

                             ****ORCA TERMINATED NORMALLY****
TOTAL RUN TIME: 0 days 0 hours 0 minutes 21 seconds 403 msec
