                         Program Version 4.2.1 -  RELEASE  -
|  1> ! wB97X-D3 SP def2-SVP
|  2> %pal
|  3> nprocs 24
|  4> end
|  5>
|  6> * xyz 0 1
|  7> S 	 -50.2094 	 4.6118 	 -17.901
|  8> C 	 -50.6883 	 2.95438 	 -18.2321
|  9> C 	 -50.4279 	 2.13759 	 -17.1057
| 10> C 	 -49.8325 	 2.87469 	 -16.044
| 11> C 	 -49.5666 	 4.21905 	 -16.3151
| 12> H 	 -49.5457 	 2.54099 	 -15.0995
| 13> C 	 -50.6584 	 0.676574 	 -17.0545
| 14> H 	 -51.5032 	 0.485599 	 -17.7277
| 15> H 	 -50.9941 	 0.457813 	 -16.057
| 16> C 	 -49.6067 	 -0.216488 	 -17.5583
| 17> H 	 -49.9511 	 -1.24573 	 -17.3333
| 18> H 	 -49.5748 	 -0.0501939 	 -18.6404
| 19> C 	 -48.2195 	 -0.0550152 	 -17.0141
| 20> H 	 -47.651 	 -0.922386 	 -17.1401
| 21> H 	 -47.8611 	 0.867193 	 -17.4892
| 22> H 	 -48.2571 	 0.0111459 	 -15.9776
| 23> S 	 -50.0118 	 6.69523 	 -15.3321
| 24> C 	 -49.1866 	 7.23929 	 -13.9198
| 25> C 	 -48.1939 	 6.36217 	 -13.5712
| 26> C 	 -48.1393 	 5.16882 	 -14.3868
| 27> C 	 -49.1551 	 5.18378 	 -15.3269
| 28> H 	 -47.4374 	 6.63056 	 -12.8209
| 29> C 	 -47.0046 	 4.16593 	 -14.221
| 30> H 	 -47.3276 	 3.23962 	 -13.829
| 31> H 	 -46.362 	 4.58556 	 -13.4743
| 32> C 	 -46.1045 	 3.85926 	 -15.3822
| 33> H 	 -46.6338 	 3.43261 	 -16.2327
| 34> H 	 -45.3948 	 3.10153 	 -15.044
| 35> C 	 -45.2907 	 5.15184 	 -15.8144
| 36> H 	 -45.9101 	 5.95048 	 -16.3705
| 37> H 	 -44.5024 	 4.8803 	 -16.5009
| 38> H 	 -44.7144 	 5.59797 	 -15.0131
| 39> H 	 -51.0443 	 2.58697 	 -19.1758
| 40> H 	 -49.184 	 8.24285 	 -13.4728
| 41> *
| 42>
| 43>                          ****END OF INPUT****

CARTESIAN COORDINATES (ANGSTROEM)
---------------------------------
  S    -50.209400    4.611800  -17.901000
  C    -50.688300    2.954380  -18.232100
  C    -50.427900    2.137590  -17.105700
  C    -49.832500    2.874690  -16.044000
  C    -49.566600    4.219050  -16.315100
  H    -49.545700    2.540990  -15.099500
  C    -50.658400    0.676574  -17.054500
  H    -51.503200    0.485599  -17.727700
  H    -50.994100    0.457813  -16.057000
  C    -49.606700   -0.216488  -17.558300
  H    -49.951100   -1.245730  -17.333300
  H    -49.574800   -0.050194  -18.640400
  C    -48.219500   -0.055015  -17.014100
  H    -47.651000   -0.922386  -17.140100
  H    -47.861100    0.867193  -17.489200
  H    -48.257100    0.011146  -15.977600
  S    -50.011800    6.695230  -15.332100
  C    -49.186600    7.239290  -13.919800
  C    -48.193900    6.362170  -13.571200
  C    -48.139300    5.168820  -14.386800
  C    -49.155100    5.183780  -15.326900
  H    -47.437400    6.630560  -12.820900
  C    -47.004600    4.165930  -14.221000
  H    -47.327600    3.239620  -13.829000
  H    -46.362000    4.585560  -13.474300
  C    -46.104500    3.859260  -15.382200
  H    -46.633800    3.432610  -16.232700
  H    -45.394800    3.101530  -15.044000
  C    -45.290700    5.151840  -15.814400
  H    -45.910100    5.950480  -16.370500
  H    -44.502400    4.880300  -16.500900
  H    -44.714400    5.597970  -15.013100
  H    -51.044300    2.586970  -19.175800
  H    -49.184000    8.242850  -13.472800

 Total Charge           Charge          ....    0
 Multiplicity           Mult            ....    1
 Number of Electrons    NEL             ....  134
 Basis Dimension        Dim             ....  322

ORBITAL ENERGIES
----------------

  NO   OCC          E(Eh)            E(eV)
   0   2.0000     -88.969673     -2420.9879
   1   2.0000     -88.965238     -2420.8672
   2   2.0000     -10.329985      -281.0932
   3   2.0000     -10.325915      -280.9824
   4   2.0000     -10.318512      -280.7810
   5   2.0000     -10.313211      -280.6367
   6   2.0000     -10.303658      -280.3768
   7   2.0000     -10.302616      -280.3484
   8   2.0000     -10.293157      -280.0910
   9   2.0000     -10.290027      -280.0059
  10   2.0000     -10.285815      -279.8913
  11   2.0000     -10.284654      -279.8597
  12   2.0000     -10.282875      -279.8112
  13   2.0000     -10.280799      -279.7548
  14   2.0000     -10.278551      -279.6936
  15   2.0000     -10.264093      -279.3002
  16   2.0000      -8.083759      -219.9703
  17   2.0000      -8.080741      -219.8881
  18   2.0000      -6.042292      -164.4191
  19   2.0000      -6.039281      -164.3372
  20   2.0000      -6.038202      -164.3078
  21   2.0000      -6.035184      -164.2257
  22   2.0000      -6.034703      -164.2126
  23   2.0000      -6.031363      -164.1217
  24   2.0000      -1.009792       -27.4778
  25   2.0000      -0.984697       -26.7950
  26   2.0000      -0.926213       -25.2035
  27   2.0000      -0.910192       -24.7676
  28   2.0000      -0.872660       -23.7463
  29   2.0000      -0.851848       -23.1800
  30   2.0000      -0.842135       -22.9157
  31   2.0000      -0.816761       -22.2252
  32   2.0000      -0.787677       -21.4338
  33   2.0000      -0.777249       -21.1500
  34   2.0000      -0.711432       -19.3591
  35   2.0000      -0.701539       -19.0898
  36   2.0000      -0.689122       -18.7520
  37   2.0000      -0.662561       -18.0292
  38   2.0000      -0.641784       -17.4638
  39   2.0000      -0.613408       -16.6917
  40   2.0000      -0.594669       -16.1818
  41   2.0000      -0.585060       -15.9203
  42   2.0000      -0.555462       -15.1149
  43   2.0000      -0.552881       -15.0447
  44   2.0000      -0.545363       -14.8401
  45   2.0000      -0.541676       -14.7397
  46   2.0000      -0.521783       -14.1984
  47   2.0000      -0.512777       -13.9534
  48   2.0000      -0.508627       -13.8404
  49   2.0000      -0.493847       -13.4383
  50   2.0000      -0.487595       -13.2681
  51   2.0000      -0.482327       -13.1248
  52   2.0000      -0.473340       -12.8802
  53   2.0000      -0.465583       -12.6692
  54   2.0000      -0.464036       -12.6271
  55   2.0000      -0.444457       -12.0943
  56   2.0000      -0.442098       -12.0301
  57   2.0000      -0.434935       -11.8352
  58   2.0000      -0.430836       -11.7236
  59   2.0000      -0.423844       -11.5334
  60   2.0000      -0.420850       -11.4519
  61   2.0000      -0.414475       -11.2784
  62   2.0000      -0.411761       -11.2046
  63   2.0000      -0.353834        -9.6283
  64   2.0000      -0.332308        -9.0426
  65   2.0000      -0.328643        -8.9428
  66   2.0000      -0.286691        -7.8013
  67   0.0000       0.023249         0.6326
  68   0.0000       0.073618         2.0033
  69   0.0000       0.109987         2.9929
  70   0.0000       0.121573         3.3082
  71   0.0000       0.129583         3.5261

MULLIKEN ATOMIC CHARGES
-----------------------
   0 S :    0.106750
   1 C :   -0.116634
   2 C :   -0.103325
   3 C :    0.042538
   4 C :   -0.141438
   5 H :   -0.019694
   6 C :    0.095862
   7 H :    0.017535
   8 H :    0.018431
   9 C :   -0.082053
  10 H :    0.026737
  11 H :    0.021123
  12 C :    0.007492
  13 H :    0.019404
  14 H :    0.053656
  15 H :   -0.001099
  16 S :    0.111349
  17 C :   -0.086293
  18 C :   -0.056027
  19 C :   -0.050620
  20 C :   -0.157222
  21 H :    0.025762
  22 C :    0.114178
  23 H :    0.018665
  24 H :   -0.001201
  25 C :   -0.065059
  26 H :    0.043902
  27 H :    0.028132
  28 C :   -0.086655
  29 H :    0.060386
  30 H :    0.024215
  31 H :    0.022436
  32 H :    0.044730
  33 H :    0.064036
Sum of atomic charges:   -0.0000000

LOEWDIN ATOMIC CHARGES
----------------------
   0 S :    0.403765
   1 C :   -0.196574
   2 C :   -0.059510
   3 C :   -0.054053
   4 C :   -0.194067
   5 H :    0.018883
   6 C :   -0.037512
   7 H :    0.036912
   8 H :    0.027748
   9 C :   -0.040558
  10 H :    0.026723
  11 H :    0.023506
  12 C :   -0.058128
  13 H :    0.022357
  14 H :    0.034352
  15 H :    0.014355
  16 S :    0.421428
  17 C :   -0.204831
  18 C :   -0.072945
  19 C :   -0.057336
  20 C :   -0.196927
  21 H :    0.033375
  22 C :   -0.030249
  23 H :    0.024206
  24 H :    0.027889
  25 C :   -0.033944
  26 H :    0.025013
  27 H :    0.027639
  28 C :   -0.076417
  29 H :    0.038759
  30 H :    0.021829
  31 H :    0.020126
  32 H :    0.025711
  33 H :    0.038477

  Mayer bond orders larger than 0.100000
B(  0-S ,  1-C ) :   1.1449 B(  0-S ,  4-C ) :   1.1504 B(  1-C ,  2-C ) :   1.5622
B(  1-C ,  4-C ) :   0.1042 B(  1-C , 32-H ) :   0.9727 B(  2-C ,  3-C ) :   1.2577
B(  2-C ,  6-C ) :   1.0326 B(  3-C ,  4-C ) :   1.5368 B(  3-C ,  5-H ) :   1.0057
B(  4-C , 20-C ) :   1.0744 B(  6-C ,  7-H ) :   0.9301 B(  6-C ,  8-H ) :   0.9308
B(  6-C ,  9-C ) :   1.0892 B(  9-C , 10-H ) :   0.9495 B(  9-C , 11-H ) :   0.9542
B(  9-C , 12-C ) :   1.0931 B( 12-C , 13-H ) :   0.9672 B( 12-C , 14-H ) :   0.9690
B( 12-C , 15-H ) :   0.9688 B( 16-S , 17-C ) :   1.1483 B( 16-S , 20-C ) :   1.1419
B( 17-C , 18-C ) :   1.6251 B( 17-C , 33-H ) :   0.9604 B( 18-C , 19-C ) :   1.2565
B( 18-C , 21-H ) :   0.9791 B( 19-C , 20-C ) :   1.5800 B( 19-C , 22-C ) :   1.0348
B( 22-C , 23-H ) :   0.9233 B( 22-C , 24-H ) :   0.9289 B( 22-C , 25-C ) :   1.0894
B( 25-C , 26-H ) :   0.9523 B( 25-C , 27-H ) :   0.9510 B( 25-C , 28-C ) :   1.0699
B( 28-C , 29-H ) :   0.9756 B( 28-C , 30-H ) :   0.9760 B( 28-C , 31-H ) :   0.9753

Dispersion correction           -0.015581656
FINAL SINGLE POINT ENERGY     -1339.877215945121

DIPOLE MOMENT
-------------
                                X             Y             Z
Electronic contribution:    -17.07736      20.42935      -1.35787
Nuclear contribution   :     17.48083     -20.96090       1.55792
                        -----------------------------------------
Total Dipole Moment    :      0.40348      -0.53155       0.20005
                        -----------------------------------------
Magnitude (a.u.)       :      0.69668
Magnitude (Debye)      :      1.77081

Rotational constants in cm-1:     0.019930     0.009683     0.007585
Rotational constants in MHz :   597.473414   290.274352   227.378428

                             ****ORCA TERMINATED NORMALLY****
TOTAL RUN TIME: 0 days 0 hours 0 minutes 21 seconds 543 msec
