                         Program Version 4.2.1 -  RELEASE  -
|  1> ! wB97X-D3 SP def2-SVP
|  2> %pal
|  3> nprocs 24
|  4> end
|  5>
|  6> * xyz 0 1
|  7> S 	 -135.29 	 25.7721 	 -15.8089
|  8> C 	 -135.832 	 24.0671 	 -15.7906
|  9> C 	 -135.375 	 23.4879 	 -16.9497
| 10> C 	 -134.719 	 24.3973 	 -17.8375
| 11> C 	 -134.628 	 25.7055 	 -17.4045
| 12> H 	 -134.301 	 24.1799 	 -18.8097
| 13> C 	 -135.63 	 22.0106 	 -17.2098
| 14> H 	 -135.469 	 21.813 	 -18.3369
| 15> H 	 -136.649 	 21.8127 	 -16.9671
| 16> C 	 -134.769 	 20.9694 	 -16.4315
| 17> H 	 -134.749 	 20.0918 	 -16.9694
| 18> H 	 -133.733 	 21.2912 	 -16.5469
| 19> C 	 -135.224 	 20.7315 	 -15.0259
| 20> H 	 -135.782 	 21.5206 	 -14.5146
| 21> H 	 -135.892 	 19.7998 	 -15.0445
| 22> H 	 -134.425 	 20.3765 	 -14.3886
| 23> S 	 -133.196 	 28.0965 	 -17.0578
| 24> C 	 -132.321 	 28.7854 	 -18.3824
| 25> C 	 -132.861 	 28.3447 	 -19.5626
| 26> C 	 -133.609 	 27.1142 	 -19.4182
| 27> C 	 -133.916 	 26.8214 	 -18.0779
| 28> H 	 -132.478 	 28.8208 	 -20.458
| 29> C 	 -134.043 	 26.3029 	 -20.6565
| 30> H 	 -133.787 	 25.2709 	 -20.4455
| 31> H 	 -133.363 	 26.5345 	 -21.49
| 32> C 	 -135.582 	 26.5829 	 -21.03
| 33> H 	 -135.74 	 27.623 	 -21.0057
| 34> H 	 -136.227 	 26.1345 	 -20.2635
| 35> C 	 -135.895 	 26.0639 	 -22.4252
| 36> H 	 -135.327 	 26.5941 	 -23.2102
| 37> H 	 -136.927 	 26.4793 	 -22.5327
| 38> H 	 -135.878 	 24.9889 	 -22.5121
| 39> H 	 -136.405 	 23.5259 	 -14.9989
| 40> H 	 -131.616 	 29.6101 	 -18.2752
| 41> *
| 42>
| 43>                          ****END OF INPUT****

CARTESIAN COORDINATES (ANGSTROEM)
---------------------------------
  S    -135.290000   25.772100  -15.808900
  C    -135.832000   24.067100  -15.790600
  C    -135.375000   23.487900  -16.949700
  C    -134.719000   24.397300  -17.837500
  C    -134.628000   25.705500  -17.404500
  H    -134.301000   24.179900  -18.809700
  C    -135.630000   22.010600  -17.209800
  H    -135.469000   21.813000  -18.336900
  H    -136.649000   21.812700  -16.967100
  C    -134.769000   20.969400  -16.431500
  H    -134.749000   20.091800  -16.969400
  H    -133.733000   21.291200  -16.546900
  C    -135.224000   20.731500  -15.025900
  H    -135.782000   21.520600  -14.514600
  H    -135.892000   19.799800  -15.044500
  H    -134.425000   20.376500  -14.388600
  S    -133.196000   28.096500  -17.057800
  C    -132.321000   28.785400  -18.382400
  C    -132.861000   28.344700  -19.562600
  C    -133.609000   27.114200  -19.418200
  C    -133.916000   26.821400  -18.077900
  H    -132.478000   28.820800  -20.458000
  C    -134.043000   26.302900  -20.656500
  H    -133.787000   25.270900  -20.445500
  H    -133.363000   26.534500  -21.490000
  C    -135.582000   26.582900  -21.030000
  H    -135.740000   27.623000  -21.005700
  H    -136.227000   26.134500  -20.263500
  C    -135.895000   26.063900  -22.425200
  H    -135.327000   26.594100  -23.210200
  H    -136.927000   26.479300  -22.532700
  H    -135.878000   24.988900  -22.512100
  H    -136.405000   23.525900  -14.998900
  H    -131.616000   29.610100  -18.275200

 Total Charge           Charge          ....    0
 Multiplicity           Mult            ....    1
 Number of Electrons    NEL             ....  134
 Basis Dimension        Dim             ....  322

ORBITAL ENERGIES
----------------

  NO   OCC          E(Eh)            E(eV)
   0   2.0000     -88.964086     -2420.8358
   1   2.0000     -88.962352     -2420.7887
   2   2.0000     -10.336064      -281.2586
   3   2.0000     -10.334132      -281.2060
   4   2.0000     -10.318475      -280.7800
   5   2.0000     -10.318235      -280.7734
   6   2.0000     -10.311916      -280.6015
   7   2.0000     -10.301252      -280.3113
   8   2.0000     -10.297314      -280.2042
   9   2.0000     -10.295664      -280.1593
  10   2.0000     -10.295353      -280.1508
  11   2.0000     -10.291757      -280.0529
  12   2.0000     -10.288085      -279.9530
  13   2.0000     -10.282703      -279.8066
  14   2.0000     -10.280991      -279.7600
  15   2.0000     -10.279405      -279.7168
  16   2.0000      -8.078483      -219.8267
  17   2.0000      -8.077228      -219.7926
  18   2.0000      -6.037154      -164.2793
  19   2.0000      -6.035815      -164.2429
  20   2.0000      -6.032987      -164.1659
  21   2.0000      -6.031782      -164.1331
  22   2.0000      -6.029113      -164.0605
  23   2.0000      -6.027824      -164.0254
  24   2.0000      -1.004463       -27.3328
  25   2.0000      -0.984172       -26.7807
  26   2.0000      -0.912216       -24.8227
  27   2.0000      -0.902354       -24.5543
  28   2.0000      -0.869356       -23.6564
  29   2.0000      -0.851656       -23.1747
  30   2.0000      -0.840761       -22.8783
  31   2.0000      -0.816081       -22.2067
  32   2.0000      -0.780693       -21.2437
  33   2.0000      -0.771718       -20.9995
  34   2.0000      -0.709808       -19.3148
  35   2.0000      -0.701039       -19.0762
  36   2.0000      -0.693955       -18.8835
  37   2.0000      -0.659116       -17.9355
  38   2.0000      -0.636776       -17.3276
  39   2.0000      -0.618450       -16.8289
  40   2.0000      -0.590892       -16.0790
  41   2.0000      -0.570515       -15.5245
  42   2.0000      -0.562838       -15.3156
  43   2.0000      -0.547394       -14.8954
  44   2.0000      -0.539485       -14.6801
  45   2.0000      -0.529093       -14.3973
  46   2.0000      -0.522185       -14.2094
  47   2.0000      -0.513696       -13.9784
  48   2.0000      -0.509095       -13.8532
  49   2.0000      -0.495844       -13.4926
  50   2.0000      -0.488827       -13.3017
  51   2.0000      -0.486346       -13.2341
  52   2.0000      -0.473773       -12.8920
  53   2.0000      -0.465935       -12.6787
  54   2.0000      -0.459034       -12.4910
  55   2.0000      -0.450397       -12.2559
  56   2.0000      -0.446418       -12.1477
  57   2.0000      -0.435399       -11.8478
  58   2.0000      -0.431980       -11.7548
  59   2.0000      -0.428626       -11.6635
  60   2.0000      -0.415882       -11.3167
  61   2.0000      -0.406679       -11.0663
  62   2.0000      -0.401759       -10.9324
  63   2.0000      -0.359257        -9.7759
  64   2.0000      -0.330597        -8.9960
  65   2.0000      -0.323438        -8.8012
  66   2.0000      -0.285082        -7.7575
  67   0.0000       0.022256         0.6056
  68   0.0000       0.074897         2.0380
  69   0.0000       0.104877         2.8538
  70   0.0000       0.121007         3.2928
  71   0.0000       0.138783         3.7765

MULLIKEN ATOMIC CHARGES
-----------------------
   0 S :    0.091558
   1 C :   -0.147970
   2 C :   -0.053868
   3 C :   -0.001751
   4 C :   -0.094071
   5 H :   -0.011390
   6 C :    0.010031
   7 H :    0.032260
   8 H :    0.024560
   9 C :   -0.001185
  10 H :    0.008016
  11 H :    0.021451
  12 C :   -0.065920
  13 H :    0.028495
  14 H :    0.032821
  15 H :    0.034725
  16 S :    0.087890
  17 C :   -0.102517
  18 C :   -0.019164
  19 C :   -0.084254
  20 C :   -0.118811
  21 H :    0.022300
  22 C :    0.048509
  23 H :    0.024510
  24 H :    0.016143
  25 C :   -0.056575
  26 H :    0.023132
  27 H :    0.045683
  28 C :   -0.047009
  29 H :    0.036014
  30 H :    0.034081
  31 H :    0.042498
  32 H :    0.072747
  33 H :    0.067060
Sum of atomic charges:   -0.0000000

LOEWDIN ATOMIC CHARGES
----------------------
   0 S :    0.395344
   1 C :   -0.196386
   2 C :   -0.065321
   3 C :   -0.077771
   4 C :   -0.190407
   5 H :    0.025171
   6 C :   -0.029498
   7 H :    0.037017
   8 H :    0.024206
   9 C :   -0.038822
  10 H :    0.016212
  11 H :    0.025696
  12 C :   -0.071891
  13 H :    0.021358
  14 H :    0.035583
  15 H :    0.028994
  16 S :    0.390778
  17 C :   -0.182281
  18 C :   -0.076256
  19 C :   -0.052085
  20 C :   -0.185713
  21 H :    0.031863
  22 C :   -0.033620
  23 H :    0.024346
  24 H :    0.029038
  25 C :   -0.027931
  26 H :    0.020023
  27 H :    0.030589
  28 C :   -0.067924
  29 H :    0.027216
  30 H :    0.034752
  31 H :    0.023473
  32 H :    0.040940
  33 H :    0.033305

  Mayer bond orders larger than 0.100000
B(  0-S ,  1-C ) :   1.1206 B(  0-S ,  4-C ) :   1.1561 B(  1-C ,  2-C ) :   1.6019
B(  1-C , 32-H ) :   0.9631 B(  2-C ,  3-C ) :   1.2576 B(  2-C ,  6-C ) :   1.0228
B(  3-C ,  4-C ) :   1.5540 B(  3-C ,  5-H ) :   0.9957 B(  4-C , 20-C ) :   1.0630
B(  6-C ,  7-H ) :   0.9451 B(  6-C ,  8-H ) :   0.9467 B(  6-C ,  9-C ) :   1.0667
B(  9-C , 10-H ) :   0.9552 B(  9-C , 11-H ) :   0.9547 B(  9-C , 12-C ) :   1.0689
B( 12-C , 13-H ) :   0.9796 B( 12-C , 14-H ) :   0.9723 B( 12-C , 15-H ) :   0.9710
B( 16-S , 17-C ) :   1.1638 B( 16-S , 20-C ) :   1.1241 B( 17-C , 18-C ) :   1.6155
B( 17-C , 33-H ) :   0.9663 B( 18-C , 19-C ) :   1.2340 B( 18-C , 21-H ) :   0.9863
B( 19-C , 20-C ) :   1.5878 B( 19-C , 22-C ) :   1.0380 B( 22-C , 23-H ) :   0.9375
B( 22-C , 24-H ) :   0.9375 B( 22-C , 25-C ) :   1.0416 B( 25-C , 26-H ) :   0.9590
B( 25-C , 27-H ) :   0.9551 B( 25-C , 28-C ) :   1.0874 B( 28-C , 29-H ) :   0.9738
B( 28-C , 30-H ) :   0.9730 B( 28-C , 31-H ) :   0.9760

Dispersion correction           -0.013836502
FINAL SINGLE POINT ENERGY     -1339.863276299398

DIPOLE MOMENT
-------------
                                X             Y             Z
Electronic contribution:      6.79035      20.93165      13.94881
Nuclear contribution   :     -6.73316     -21.34409     -14.56459
                        -----------------------------------------
Total Dipole Moment    :      0.05719      -0.41244      -0.61579
                        -----------------------------------------
Magnitude (a.u.)       :      0.74335
Magnitude (Debye)      :      1.88944

Rotational constants in cm-1:     0.019147     0.008095     0.006299
Rotational constants in MHz :   574.026194   242.667235   188.848287

                             ****ORCA TERMINATED NORMALLY****
TOTAL RUN TIME: 0 days 0 hours 0 minutes 21 seconds 246 msec
