                         Program Version 4.2.1 -  RELEASE  -
|  1> ! wB97X-D3 SP def2-SVP
|  2> %pal
|  3> nprocs 24
|  4> end
|  5>
|  6> * xyz 0 1
|  7> S 	 -64.4002 	 20.251 	 -118.446
|  8> C 	 -62.6657 	 20.4326 	 -118.589
|  9> C 	 -62.021 	 20.3271 	 -117.367
| 10> C 	 -62.9817 	 20.1302 	 -116.297
| 11> C 	 -64.3187 	 20.1619 	 -116.683
| 12> H 	 -62.7121 	 19.941 	 -115.281
| 13> C 	 -60.5328 	 20.4006 	 -117.152
| 14> H 	 -60.1912 	 19.9331 	 -118.08
| 15> H 	 -60.2371 	 19.7108 	 -116.26
| 16> C 	 -59.9926 	 21.8027 	 -116.937
| 17> H 	 -60.6129 	 22.3114 	 -116.099
| 18> H 	 -58.9997 	 21.661 	 -116.39
| 19> C 	 -59.5293 	 22.5901 	 -118.194
| 20> H 	 -60.4646 	 22.6486 	 -118.807
| 21> H 	 -59.1512 	 23.6423 	 -118.025
| 22> H 	 -58.729 	 22.0752 	 -118.727
| 23> S 	 -66.5948 	 18.5695 	 -116.48
| 24> C 	 -67.674 	 18.8246 	 -115.178
| 25> C 	 -67.1523 	 19.7207 	 -114.276
| 26> C 	 -65.8643 	 20.2989 	 -114.597
| 27> C 	 -65.4689 	 19.7993 	 -115.863
| 28> H 	 -67.6068 	 19.9144 	 -113.365
| 29> C 	 -65.0731 	 21.3196 	 -113.765
| 30> H 	 -64.3033 	 20.8731 	 -113.155
| 31> H 	 -65.7483 	 21.7088 	 -112.949
| 32> C 	 -64.5585 	 22.5496 	 -114.522
| 33> H 	 -65.3318 	 22.8942 	 -115.219
| 34> H 	 -63.6266 	 22.257 	 -115.04
| 35> C 	 -64.2114 	 23.7496 	 -113.638
| 36> H 	 -64.9495 	 23.9594 	 -112.819
| 37> H 	 -64.0957 	 24.6497 	 -114.237
| 38> H 	 -63.264 	 23.6127 	 -113.164
| 39> H 	 -62.2047 	 20.3542 	 -119.568
| 40> H 	 -68.6291 	 18.3183 	 -115.14
| 41> *
| 42>
| 43>                          ****END OF INPUT****

CARTESIAN COORDINATES (ANGSTROEM)
---------------------------------
  S    -64.400200   20.251000  -118.446000
  C    -62.665700   20.432600  -118.589000
  C    -62.021000   20.327100  -117.367000
  C    -62.981700   20.130200  -116.297000
  C    -64.318700   20.161900  -116.683000
  H    -62.712100   19.941000  -115.281000
  C    -60.532800   20.400600  -117.152000
  H    -60.191200   19.933100  -118.080000
  H    -60.237100   19.710800  -116.260000
  C    -59.992600   21.802700  -116.937000
  H    -60.612900   22.311400  -116.099000
  H    -58.999700   21.661000  -116.390000
  C    -59.529300   22.590100  -118.194000
  H    -60.464600   22.648600  -118.807000
  H    -59.151200   23.642300  -118.025000
  H    -58.729000   22.075200  -118.727000
  S    -66.594800   18.569500  -116.480000
  C    -67.674000   18.824600  -115.178000
  C    -67.152300   19.720700  -114.276000
  C    -65.864300   20.298900  -114.597000
  C    -65.468900   19.799300  -115.863000
  H    -67.606800   19.914400  -113.365000
  C    -65.073100   21.319600  -113.765000
  H    -64.303300   20.873100  -113.155000
  H    -65.748300   21.708800  -112.949000
  C    -64.558500   22.549600  -114.522000
  H    -65.331800   22.894200  -115.219000
  H    -63.626600   22.257000  -115.040000
  C    -64.211400   23.749600  -113.638000
  H    -64.949500   23.959400  -112.819000
  H    -64.095700   24.649700  -114.237000
  H    -63.264000   23.612700  -113.164000
  H    -62.204700   20.354200  -119.568000
  H    -68.629100   18.318300  -115.140000

 Total Charge           Charge          ....    0
 Multiplicity           Mult            ....    1
 Number of Electrons    NEL             ....  134
 Basis Dimension        Dim             ....  322

ORBITAL ENERGIES
----------------

  NO   OCC          E(Eh)            E(eV)
   0   2.0000     -88.965477     -2420.8737
   1   2.0000     -88.965133     -2420.8643
   2   2.0000     -10.330251      -281.1004
   3   2.0000     -10.329709      -281.0857
   4   2.0000     -10.315460      -280.6979
   5   2.0000     -10.315206      -280.6910
   6   2.0000     -10.310267      -280.5566
   7   2.0000     -10.303583      -280.3748
   8   2.0000     -10.302012      -280.3320
   9   2.0000     -10.301087      -280.3068
  10   2.0000     -10.298269      -280.2301
  11   2.0000     -10.294401      -280.1249
  12   2.0000     -10.290690      -280.0239
  13   2.0000     -10.290570      -280.0206
  14   2.0000     -10.283028      -279.8154
  15   2.0000     -10.275413      -279.6082
  16   2.0000      -8.080564      -219.8833
  17   2.0000      -8.079608      -219.8573
  18   2.0000      -6.038960      -164.3285
  19   2.0000      -6.038148      -164.3064
  20   2.0000      -6.034997      -164.2206
  21   2.0000      -6.034144      -164.1974
  22   2.0000      -6.031448      -164.1241
  23   2.0000      -6.030365      -164.0946
  24   2.0000      -1.002706       -27.2850
  25   2.0000      -0.981359       -26.7041
  26   2.0000      -0.911139       -24.7934
  27   2.0000      -0.906821       -24.6759
  28   2.0000      -0.865611       -23.5545
  29   2.0000      -0.850846       -23.1527
  30   2.0000      -0.842863       -22.9355
  31   2.0000      -0.811310       -22.0769
  32   2.0000      -0.783798       -21.3282
  33   2.0000      -0.771828       -21.0025
  34   2.0000      -0.706368       -19.2212
  35   2.0000      -0.695009       -18.9121
  36   2.0000      -0.685341       -18.6491
  37   2.0000      -0.661943       -18.0124
  38   2.0000      -0.641243       -17.4491
  39   2.0000      -0.617263       -16.7966
  40   2.0000      -0.600145       -16.3308
  41   2.0000      -0.566368       -15.4117
  42   2.0000      -0.564312       -15.3557
  43   2.0000      -0.543271       -14.7832
  44   2.0000      -0.534796       -14.5525
  45   2.0000      -0.522887       -14.2285
  46   2.0000      -0.518502       -14.1092
  47   2.0000      -0.514984       -14.0134
  48   2.0000      -0.503033       -13.6882
  49   2.0000      -0.494133       -13.4460
  50   2.0000      -0.486874       -13.2485
  51   2.0000      -0.484004       -13.1704
  52   2.0000      -0.478907       -13.0317
  53   2.0000      -0.459926       -12.5152
  54   2.0000      -0.457527       -12.4500
  55   2.0000      -0.448297       -12.1988
  56   2.0000      -0.441090       -12.0027
  57   2.0000      -0.436927       -11.8894
  58   2.0000      -0.431606       -11.7446
  59   2.0000      -0.428304       -11.6547
  60   2.0000      -0.423471       -11.5232
  61   2.0000      -0.413999       -11.2655
  62   2.0000      -0.395724       -10.7682
  63   2.0000      -0.346225        -9.4213
  64   2.0000      -0.331934        -9.0324
  65   2.0000      -0.326908        -8.8956
  66   2.0000      -0.289244        -7.8707
  67   0.0000       0.022933         0.6240
  68   0.0000       0.073067         1.9882
  69   0.0000       0.111156         3.0247
  70   0.0000       0.119380         3.2485
  71   0.0000       0.123982         3.3737

MULLIKEN ATOMIC CHARGES
-----------------------
   0 S :    0.100451
   1 C :   -0.131387
   2 C :   -0.092458
   3 C :    0.032116
   4 C :   -0.143896
   5 H :    0.004471
   6 C :    0.032848
   7 H :    0.026326
   8 H :    0.050178
   9 C :   -0.095686
  10 H :    0.048138
  11 H :    0.030506
  12 C :   -0.069310
  13 H :    0.040513
  14 H :    0.051736
  15 H :    0.041112
  16 S :    0.112021
  17 C :   -0.091746
  18 C :    0.003410
  19 C :   -0.027317
  20 C :   -0.171629
  21 H :   -0.013301
  22 C :    0.050624
  23 H :    0.035070
  24 H :    0.012579
  25 C :   -0.089452
  26 H :    0.043189
  27 H :    0.048114
  28 C :   -0.041208
  29 H :    0.030917
  30 H :    0.035172
  31 H :    0.016814
  32 H :    0.057639
  33 H :    0.063448
Sum of atomic charges:    0.0000000

LOEWDIN ATOMIC CHARGES
----------------------
   0 S :    0.398575
   1 C :   -0.201010
   2 C :   -0.065549
   3 C :   -0.057834
   4 C :   -0.189638
   5 H :    0.024469
   6 C :   -0.041563
   7 H :    0.032411
   8 H :    0.045582
   9 C :   -0.058956
  10 H :    0.035350
  11 H :    0.027992
  12 C :   -0.073623
  13 H :    0.027887
  14 H :    0.035845
  15 H :    0.026837
  16 S :    0.412007
  17 C :   -0.196651
  18 C :   -0.064791
  19 C :   -0.049375
  20 C :   -0.190499
  21 H :    0.017107
  22 C :   -0.037676
  23 H :    0.029506
  24 H :    0.033786
  25 C :   -0.043892
  26 H :    0.030415
  27 H :    0.029018
  28 C :   -0.067205
  29 H :    0.025671
  30 H :    0.028483
  31 H :    0.017832
  32 H :    0.027745
  33 H :    0.031744

  Mayer bond orders larger than 0.100000
B(  0-S ,  1-C ) :   1.1435 B(  0-S ,  4-C ) :   1.1445 B(  1-C ,  2-C ) :   1.6006
B(  1-C , 32-H ) :   0.9641 B(  2-C ,  3-C ) :   1.2529 B(  2-C ,  6-C ) :   1.0179
B(  3-C ,  4-C ) :   1.5576 B(  3-C ,  5-H ) :   0.9907 B(  4-C , 20-C ) :   1.0706
B(  6-C ,  7-H ) :   0.9391 B(  6-C ,  8-H ) :   0.9448 B(  6-C ,  9-C ) :   1.0583
B(  9-C , 10-H ) :   0.9545 B(  9-C , 11-H ) :   0.9550 B(  9-C , 12-C ) :   1.0601
B( 12-C , 13-H ) :   0.9773 B( 12-C , 14-H ) :   0.9742 B( 12-C , 15-H ) :   0.9743
B( 16-S , 17-C ) :   1.1570 B( 16-S , 20-C ) :   1.1544 B( 17-C , 18-C ) :   1.5808
B( 17-C , 33-H ) :   0.9704 B( 18-C , 19-C ) :   1.2704 B( 18-C , 21-H ) :   0.9975
B( 19-C , 20-C ) :   1.5607 B( 19-C , 22-C ) :   1.0345 B( 22-C , 23-H ) :   0.9302
B( 22-C , 24-H ) :   0.9342 B( 22-C , 25-C ) :   1.0605 B( 25-C , 26-H ) :   0.9613
B( 25-C , 27-H ) :   0.9420 B( 25-C , 28-C ) :   1.0916 B( 28-C , 29-H ) :   0.9732
B( 28-C , 30-H ) :   0.9743 B( 28-C , 31-H ) :   0.9735

Dispersion correction           -0.014724664
FINAL SINGLE POINT ENERGY     -1339.879038667683

DIPOLE MOMENT
-------------
                                X             Y             Z
Electronic contribution:    -21.28189     -19.19564     -10.16663
Nuclear contribution   :     21.74972      19.32030      10.56835
                        -----------------------------------------
Total Dipole Moment    :      0.46783       0.12465       0.40173
                        -----------------------------------------
Magnitude (a.u.)       :      0.62912
Magnitude (Debye)      :      1.59909

Rotational constants in cm-1:     0.019985     0.008950     0.006789
Rotational constants in MHz :   599.149262   268.315986   203.531802

                             ****ORCA TERMINATED NORMALLY****
TOTAL RUN TIME: 0 days 0 hours 0 minutes 22 seconds 32 msec
