                         Program Version 4.2.1 -  RELEASE  -
|  1> ! wB97X-D3 SP def2-SVP
|  2> %pal
|  3> nprocs 24
|  4> end
|  5>
|  6> * xyz 0 1
|  7> S 	 17.4543 	 -9.04626 	 -115.324
|  8> C 	 17.8483 	 -8.23956 	 -113.813
|  9> C 	 17.2593 	 -6.95775 	 -113.861
| 10> C 	 16.4268 	 -6.75983 	 -115.027
| 11> C 	 16.4177 	 -7.81025 	 -115.88
| 12> H 	 16.1129 	 -5.84953 	 -115.385
| 13> C 	 17.3967 	 -5.9379 	 -112.745
| 14> H 	 18.1698 	 -6.27236 	 -112.093
| 15> H 	 16.5193 	 -5.99774 	 -112.098
| 16> C 	 17.6412 	 -4.47941 	 -113.208
| 17> H 	 16.9565 	 -4.10379 	 -113.953
| 18> H 	 17.6919 	 -3.84963 	 -112.316
| 19> C 	 19.009 	 -4.48355 	 -113.918
| 20> H 	 19.7696 	 -4.76542 	 -113.235
| 21> H 	 19.1309 	 -5.1647 	 -114.797
| 22> H 	 19.1365 	 -3.43214 	 -114.165
| 23> S 	 16.992 	 -8.59687 	 -118.464
| 24> C 	 15.9389 	 -8.12935 	 -119.776
| 25> C 	 14.7746 	 -7.50864 	 -119.318
| 26> C 	 14.8147 	 -7.27724 	 -117.877
| 27> C 	 16.0126 	 -7.7633 	 -117.266
| 28> H 	 13.9548 	 -7.29646 	 -119.929
| 29> C 	 13.6364 	 -6.68089 	 -117.117
| 30> H 	 13.2579 	 -5.81161 	 -117.661
| 31> H 	 13.8967 	 -6.17084 	 -116.178
| 32> C 	 12.4006 	 -7.49512 	 -116.941
| 33> H 	 12.7058 	 -8.32562 	 -116.373
| 34> H 	 12.1957 	 -7.89176 	 -117.944
| 35> C 	 11.264 	 -6.57501 	 -116.327
| 36> H 	 10.4985 	 -7.21723 	 -116.141
| 37> H 	 10.8841 	 -5.80316 	 -117.019
| 38> H 	 11.6217 	 -6.14599 	 -115.336
| 39> H 	 18.5447 	 -8.47716 	 -113.019
| 40> H 	 16.1476 	 -8.45695 	 -120.845
| 41> *
| 42>
| 43>                          ****END OF INPUT****

CARTESIAN COORDINATES (ANGSTROEM)
---------------------------------
  S     17.454300   -9.046260  -115.324000
  C     17.848300   -8.239560  -113.813000
  C     17.259300   -6.957750  -113.861000
  C     16.426800   -6.759830  -115.027000
  C     16.417700   -7.810250  -115.880000
  H     16.112900   -5.849530  -115.385000
  C     17.396700   -5.937900  -112.745000
  H     18.169800   -6.272360  -112.093000
  H     16.519300   -5.997740  -112.098000
  C     17.641200   -4.479410  -113.208000
  H     16.956500   -4.103790  -113.953000
  H     17.691900   -3.849630  -112.316000
  C     19.009000   -4.483550  -113.918000
  H     19.769600   -4.765420  -113.235000
  H     19.130900   -5.164700  -114.797000
  H     19.136500   -3.432140  -114.165000
  S     16.992000   -8.596870  -118.464000
  C     15.938900   -8.129350  -119.776000
  C     14.774600   -7.508640  -119.318000
  C     14.814700   -7.277240  -117.877000
  C     16.012600   -7.763300  -117.266000
  H     13.954800   -7.296460  -119.929000
  C     13.636400   -6.680890  -117.117000
  H     13.257900   -5.811610  -117.661000
  H     13.896700   -6.170840  -116.178000
  C     12.400600   -7.495120  -116.941000
  H     12.705800   -8.325620  -116.373000
  H     12.195700   -7.891760  -117.944000
  C     11.264000   -6.575010  -116.327000
  H     10.498500   -7.217230  -116.141000
  H     10.884100   -5.803160  -117.019000
  H     11.621700   -6.145990  -115.336000
  H     18.544700   -8.477160  -113.019000
  H     16.147600   -8.456950  -120.845000

 Total Charge           Charge          ....    0
 Multiplicity           Mult            ....    1
 Number of Electrons    NEL             ....  134
 Basis Dimension        Dim             ....  322

ORBITAL ENERGIES
----------------

  NO   OCC          E(Eh)            E(eV)
   0   2.0000     -88.968096     -2420.9450
   1   2.0000     -88.966401     -2420.8989
   2   2.0000     -10.332305      -281.1563
   3   2.0000     -10.326226      -280.9909
   4   2.0000     -10.324882      -280.9543
   5   2.0000     -10.316459      -280.7251
   6   2.0000     -10.311561      -280.5918
   7   2.0000     -10.304805      -280.4080
   8   2.0000     -10.298530      -280.2372
   9   2.0000     -10.288550      -279.9657
  10   2.0000     -10.288483      -279.9638
  11   2.0000     -10.284183      -279.8468
  12   2.0000     -10.284080      -279.8441
  13   2.0000     -10.283334      -279.8238
  14   2.0000     -10.281393      -279.7709
  15   2.0000     -10.271546      -279.5030
  16   2.0000      -8.082635      -219.9397
  17   2.0000      -8.081612      -219.9119
  18   2.0000      -6.041253      -164.3908
  19   2.0000      -6.040225      -164.3629
  20   2.0000      -6.037070      -164.2770
  21   2.0000      -6.035970      -164.2471
  22   2.0000      -6.033390      -164.1769
  23   2.0000      -6.032291      -164.1470
  24   2.0000      -1.010619       -27.5003
  25   2.0000      -0.980753       -26.6876
  26   2.0000      -0.914304       -24.8795
  27   2.0000      -0.911985       -24.8164
  28   2.0000      -0.870873       -23.6977
  29   2.0000      -0.850008       -23.1299
  30   2.0000      -0.840312       -22.8661
  31   2.0000      -0.816326       -22.2134
  32   2.0000      -0.782257       -21.2863
  33   2.0000      -0.770473       -20.9656
  34   2.0000      -0.711098       -19.3500
  35   2.0000      -0.697925       -18.9915
  36   2.0000      -0.691908       -18.8278
  37   2.0000      -0.661501       -18.0004
  38   2.0000      -0.641349       -17.4520
  39   2.0000      -0.626981       -17.0610
  40   2.0000      -0.601446       -16.3662
  41   2.0000      -0.571114       -15.5408
  42   2.0000      -0.562358       -15.3025
  43   2.0000      -0.550697       -14.9852
  44   2.0000      -0.540632       -14.7113
  45   2.0000      -0.521336       -14.1863
  46   2.0000      -0.519190       -14.1279
  47   2.0000      -0.511807       -13.9270
  48   2.0000      -0.507340       -13.8054
  49   2.0000      -0.503438       -13.6992
  50   2.0000      -0.487457       -13.2644
  51   2.0000      -0.482758       -13.1365
  52   2.0000      -0.467852       -12.7309
  53   2.0000      -0.463148       -12.6029
  54   2.0000      -0.458668       -12.4810
  55   2.0000      -0.454634       -12.3712
  56   2.0000      -0.446711       -12.1556
  57   2.0000      -0.439512       -11.9597
  58   2.0000      -0.434982       -11.8365
  59   2.0000      -0.422327       -11.4921
  60   2.0000      -0.417588       -11.3632
  61   2.0000      -0.414953       -11.2914
  62   2.0000      -0.408052       -11.1037
  63   2.0000      -0.357927        -9.7397
  64   2.0000      -0.331029        -9.0078
  65   2.0000      -0.324617        -8.8333
  66   2.0000      -0.285564        -7.7706
  67   0.0000       0.022821         0.6210
  68   0.0000       0.073469         1.9992
  69   0.0000       0.112207         3.0533
  70   0.0000       0.113514         3.0889
  71   0.0000       0.133263         3.6263

MULLIKEN ATOMIC CHARGES
-----------------------
   0 S :    0.095979
   1 C :   -0.100997
   2 C :   -0.146820
   3 C :    0.042243
   4 C :   -0.095696
   5 H :   -0.007044
   6 C :    0.088153
   7 H :   -0.002549
   8 H :    0.039065
   9 C :   -0.077677
  10 H :    0.039881
  11 H :    0.036653
  12 C :   -0.066854
  13 H :    0.015292
  14 H :    0.060345
  15 H :    0.029771
  16 S :    0.101951
  17 C :   -0.119038
  18 C :    0.001278
  19 C :   -0.036658
  20 C :   -0.147434
  21 H :    0.004745
  22 C :    0.030644
  23 H :    0.005654
  24 H :    0.008049
  25 C :   -0.051452
  26 H :    0.023006
  27 H :    0.016714
  28 C :   -0.032593
  29 H :    0.017116
  30 H :    0.045793
  31 H :    0.046153
  32 H :    0.049338
  33 H :    0.086987
Sum of atomic charges:   -0.0000000

LOEWDIN ATOMIC CHARGES
----------------------
   0 S :    0.419445
   1 C :   -0.208262
   2 C :   -0.051674
   3 C :   -0.063652
   4 C :   -0.199077
   5 H :    0.015690
   6 C :   -0.033783
   7 H :    0.022464
   8 H :    0.031728
   9 C :   -0.035139
  10 H :    0.022541
  11 H :    0.029037
  12 C :   -0.065367
  13 H :    0.015741
  14 H :    0.034488
  15 H :    0.024340
  16 S :    0.405391
  17 C :   -0.196619
  18 C :   -0.063017
  19 C :   -0.050522
  20 C :   -0.195160
  21 H :    0.022926
  22 C :   -0.047516
  23 H :    0.027326
  24 H :    0.025333
  25 C :   -0.031941
  26 H :    0.018886
  27 H :    0.022960
  28 C :   -0.055529
  29 H :    0.012672
  30 H :    0.031832
  31 H :    0.036877
  32 H :    0.033335
  33 H :    0.044248

  Mayer bond orders larger than 0.100000
B(  0-S ,  1-C ) :   1.1244 B(  0-S ,  4-C ) :   1.1534 B(  1-C ,  2-C ) :   1.6012
B(  1-C , 32-H ) :   0.9686 B(  2-C ,  3-C ) :   1.2432 B(  2-C ,  6-C ) :   1.0279
B(  3-C ,  4-C ) :   1.5663 B(  3-C ,  5-H ) :   0.9944 B(  4-C , 20-C ) :   1.0767
B(  6-C ,  7-H ) :   0.9380 B(  6-C ,  8-H ) :   0.9380 B(  6-C ,  9-C ) :   1.0696
B(  9-C , 10-H ) :   0.9602 B(  9-C , 11-H ) :   0.9540 B(  9-C , 12-C ) :   1.0688
B( 12-C , 13-H ) :   0.9768 B( 12-C , 14-H ) :   0.9738 B( 12-C , 15-H ) :   0.9757
B( 16-S , 17-C ) :   1.1624 B( 16-S , 20-C ) :   1.1369 B( 17-C , 18-C ) :   1.5794
B( 17-C , 33-H ) :   0.9594 B( 18-C , 19-C ) :   1.2567 B( 18-C , 21-H ) :   0.9994
B( 19-C , 20-C ) :   1.5579 B( 19-C , 22-C ) :   1.0427 B( 22-C , 23-H ) :   0.9304
B( 22-C , 24-H ) :   0.9345 B( 22-C , 25-C ) :   1.0618 B( 25-C , 26-H ) :   0.9554
B( 25-C , 27-H ) :   0.9523 B( 25-C , 28-C ) :   1.0678 B( 28-C , 29-H ) :   0.9746
B( 28-C , 30-H ) :   0.9738 B( 28-C , 31-H ) :   0.9738

Dispersion correction           -0.014079792
FINAL SINGLE POINT ENERGY     -1339.859833415468

DIPOLE MOMENT
-------------
                                X             Y             Z
Electronic contribution:     11.87997     -18.95923     -11.28346
Nuclear contribution   :    -12.19661      19.44803      11.43713
                        -----------------------------------------
Total Dipole Moment    :     -0.31664       0.48880       0.15367
                        -----------------------------------------
Magnitude (a.u.)       :      0.60233
Magnitude (Debye)      :      1.53100

Rotational constants in cm-1:     0.016989     0.009048     0.007184
Rotational constants in MHz :   509.332154   271.252113   215.379298

                             ****ORCA TERMINATED NORMALLY****
TOTAL RUN TIME: 0 days 0 hours 0 minutes 20 seconds 539 msec
