                         Program Version 4.2.1 -  RELEASE  -
|  1> ! wB97X-D3 SP def2-SVP
|  2> %pal
|  3> nprocs 24
|  4> end
|  5>
|  6> * xyz 0 1
|  7> S 	 -133.525 	 61.0397 	 -60.0223
|  8> C 	 -133.209 	 62.5901 	 -60.8225
|  9> C 	 -132.003 	 63.1577 	 -60.4246
| 10> C 	 -131.225 	 62.2833 	 -59.6274
| 11> C 	 -131.868 	 61.0168 	 -59.461
| 12> H 	 -130.185 	 62.4849 	 -59.1966
| 13> C 	 -131.541 	 64.5312 	 -60.9072
| 14> H 	 -131.916 	 64.6507 	 -61.8491
| 15> H 	 -130.437 	 64.6592 	 -60.9217
| 16> C 	 -132.152 	 65.6701 	 -60.0296
| 17> H 	 -131.725 	 65.5323 	 -59.0285
| 18> H 	 -131.859 	 66.6114 	 -60.4317
| 19> C 	 -133.71 	 65.706 	 -59.8428
| 20> H 	 -134.019 	 66.6281 	 -59.3629
| 21> H 	 -134.239 	 65.6642 	 -60.8157
| 22> H 	 -134.005 	 64.942 	 -59.2006
| 23> S 	 -132.447 	 58.8961 	 -57.8641
| 24> C 	 -131.144 	 57.912 	 -57.2954
| 25> C 	 -129.932 	 58.3087 	 -57.7964
| 26> C 	 -129.926 	 59.5468 	 -58.4631
| 27> C 	 -131.271 	 59.9692 	 -58.6336
| 28> H 	 -129.017 	 57.7348 	 -57.6171
| 29> C 	 -128.596 	 60.1855 	 -58.8714
| 30> H 	 -127.836 	 60.319 	 -58.0288
| 31> H 	 -128.777 	 61.2366 	 -59.172
| 32> C 	 -127.936 	 59.4897 	 -60.0184
| 33> H 	 -127.678 	 58.4791 	 -59.7992
| 34> H 	 -126.94 	 59.9502 	 -60.1125
| 35> C 	 -128.726 	 59.4129 	 -61.3439
| 36> H 	 -128.05 	 59.004 	 -62.1222
| 37> H 	 -128.907 	 60.5374 	 -61.5982
| 38> H 	 -129.561 	 58.7317 	 -61.1805
| 39> H 	 -133.96 	 63.1723 	 -61.3144
| 40> H 	 -131.17 	 57.1853 	 -56.5429
| 41> *
| 42>
| 43>                          ****END OF INPUT****

CARTESIAN COORDINATES (ANGSTROEM)
---------------------------------
  S    -133.525000   61.039700  -60.022300
  C    -133.209000   62.590100  -60.822500
  C    -132.003000   63.157700  -60.424600
  C    -131.225000   62.283300  -59.627400
  C    -131.868000   61.016800  -59.461000
  H    -130.185000   62.484900  -59.196600
  C    -131.541000   64.531200  -60.907200
  H    -131.916000   64.650700  -61.849100
  H    -130.437000   64.659200  -60.921700
  C    -132.152000   65.670100  -60.029600
  H    -131.725000   65.532300  -59.028500
  H    -131.859000   66.611400  -60.431700
  C    -133.710000   65.706000  -59.842800
  H    -134.019000   66.628100  -59.362900
  H    -134.239000   65.664200  -60.815700
  H    -134.005000   64.942000  -59.200600
  S    -132.447000   58.896100  -57.864100
  C    -131.144000   57.912000  -57.295400
  C    -129.932000   58.308700  -57.796400
  C    -129.926000   59.546800  -58.463100
  C    -131.271000   59.969200  -58.633600
  H    -129.017000   57.734800  -57.617100
  C    -128.596000   60.185500  -58.871400
  H    -127.836000   60.319000  -58.028800
  H    -128.777000   61.236600  -59.172000
  C    -127.936000   59.489700  -60.018400
  H    -127.678000   58.479100  -59.799200
  H    -126.940000   59.950200  -60.112500
  C    -128.726000   59.412900  -61.343900
  H    -128.050000   59.004000  -62.122200
  H    -128.907000   60.537400  -61.598200
  H    -129.561000   58.731700  -61.180500
  H    -133.960000   63.172300  -61.314400
  H    -131.170000   57.185300  -56.542900

 Total Charge           Charge          ....    0
 Multiplicity           Mult            ....    1
 Number of Electrons    NEL             ....  134
 Basis Dimension        Dim             ....  322

ORBITAL ENERGIES
----------------

  NO   OCC          E(Eh)            E(eV)
   0   2.0000     -88.972374     -2421.0614
   1   2.0000     -88.968756     -2420.9629
   2   2.0000     -10.333222      -281.1813
   3   2.0000     -10.333000      -281.1752
   4   2.0000     -10.310481      -280.5624
   5   2.0000     -10.309154      -280.5264
   6   2.0000     -10.306799      -280.4623
   7   2.0000     -10.301851      -280.3276
   8   2.0000     -10.301392      -280.3151
   9   2.0000     -10.299427      -280.2616
  10   2.0000     -10.290164      -280.0096
  11   2.0000     -10.289826      -280.0004
  12   2.0000     -10.286261      -279.9034
  13   2.0000     -10.283391      -279.8253
  14   2.0000     -10.280436      -279.7449
  15   2.0000     -10.274241      -279.5763
  16   2.0000      -8.086222      -220.0373
  17   2.0000      -8.083598      -219.9659
  18   2.0000      -6.044752      -164.4861
  19   2.0000      -6.042007      -164.4114
  20   2.0000      -6.041063      -164.3857
  21   2.0000      -6.038224      -164.3084
  22   2.0000      -6.036831      -164.2705
  23   2.0000      -6.034344      -164.2029
  24   2.0000      -1.005245       -27.3541
  25   2.0000      -0.981627       -26.7114
  26   2.0000      -0.914358       -24.8809
  27   2.0000      -0.907861       -24.7041
  28   2.0000      -0.863302       -23.4916
  29   2.0000      -0.850936       -23.1551
  30   2.0000      -0.842896       -22.9364
  31   2.0000      -0.806194       -21.9377
  32   2.0000      -0.786616       -21.4049
  33   2.0000      -0.776462       -21.1286
  34   2.0000      -0.707364       -19.2483
  35   2.0000      -0.695319       -18.9206
  36   2.0000      -0.690677       -18.7943
  37   2.0000      -0.657020       -17.8784
  38   2.0000      -0.631465       -17.1830
  39   2.0000      -0.619136       -16.8476
  40   2.0000      -0.601330       -16.3630
  41   2.0000      -0.566305       -15.4099
  42   2.0000      -0.552455       -15.0331
  43   2.0000      -0.550521       -14.9804
  44   2.0000      -0.543909       -14.8005
  45   2.0000      -0.532600       -14.4928
  46   2.0000      -0.518633       -14.1127
  47   2.0000      -0.505012       -13.7421
  48   2.0000      -0.503307       -13.6957
  49   2.0000      -0.492854       -13.4112
  50   2.0000      -0.486455       -13.2371
  51   2.0000      -0.481525       -13.1029
  52   2.0000      -0.469866       -12.7857
  53   2.0000      -0.461552       -12.5595
  54   2.0000      -0.458977       -12.4894
  55   2.0000      -0.451963       -12.2985
  56   2.0000      -0.442229       -12.0337
  57   2.0000      -0.438439       -11.9305
  58   2.0000      -0.436128       -11.8676
  59   2.0000      -0.427537       -11.6339
  60   2.0000      -0.418567       -11.3898
  61   2.0000      -0.415952       -11.3186
  62   2.0000      -0.405851       -11.0438
  63   2.0000      -0.354502        -9.6465
  64   2.0000      -0.337797        -9.1919
  65   2.0000      -0.330690        -8.9985
  66   2.0000      -0.273171        -7.4333
  67   0.0000       0.015875         0.4320
  68   0.0000       0.073549         2.0014
  69   0.0000       0.097263         2.6467
  70   0.0000       0.113919         3.0999
  71   0.0000       0.140580         3.8254

MULLIKEN ATOMIC CHARGES
-----------------------
   0 S :    0.108744
   1 C :   -0.106353
   2 C :   -0.098196
   3 C :   -0.041915
   4 C :   -0.104875
   5 H :    0.049430
   6 C :    0.113133
   7 H :    0.001954
   8 H :    0.034374
   9 C :   -0.084624
  10 H :    0.028298
  11 H :    0.024926
  12 C :   -0.050871
  13 H :    0.030478
  14 H :    0.030225
  15 H :    0.036550
  16 S :    0.104021
  17 C :   -0.057148
  18 C :   -0.049438
  19 C :   -0.042735
  20 C :   -0.162479
  21 H :    0.021477
  22 C :    0.061951
  23 H :    0.049849
  24 H :    0.002197
  25 C :   -0.087988
  26 H :    0.010959
  27 H :    0.021799
  28 C :   -0.063492
  29 H :    0.039975
  30 H :    0.047496
  31 H :    0.060692
  32 H :    0.037567
  33 H :    0.034022
Sum of atomic charges:   -0.0000000

LOEWDIN ATOMIC CHARGES
----------------------
   0 S :    0.399195
   1 C :   -0.196551
   2 C :   -0.055974
   3 C :   -0.077976
   4 C :   -0.190817
   5 H :    0.041638
   6 C :   -0.020733
   7 H :    0.016146
   8 H :    0.036099
   9 C :   -0.031723
  10 H :    0.024468
  11 H :    0.016116
  12 C :   -0.063102
  13 H :    0.027868
  14 H :    0.023691
  15 H :    0.017444
  16 S :    0.404896
  17 C :   -0.189431
  18 C :   -0.066559
  19 C :   -0.058436
  20 C :   -0.181516
  21 H :    0.032550
  22 C :   -0.036535
  23 H :    0.044062
  24 H :    0.025373
  25 C :   -0.050572
  26 H :    0.013688
  27 H :    0.024057
  28 C :   -0.066058
  29 H :    0.029121
  30 H :    0.037324
  31 H :    0.031463
  32 H :    0.020966
  33 H :    0.019815

  Mayer bond orders larger than 0.100000
B(  0-S ,  1-C ) :   1.1200 B(  0-S ,  4-C ) :   1.1642 B(  1-C ,  2-C ) :   1.5980
B(  1-C ,  4-C ) :   0.1007 B(  1-C , 32-H ) :   0.9634 B(  2-C ,  3-C ) :   1.2812
B(  2-C ,  6-C ) :   1.0187 B(  3-C ,  4-C ) :   1.5167 B(  3-C ,  5-H ) :   0.9731
B(  4-C , 20-C ) :   1.0952 B(  6-C ,  7-H ) :   0.9352 B(  6-C ,  8-H ) :   0.9483
B(  6-C ,  9-C ) :   1.0660 B(  9-C , 10-H ) :   0.9580 B(  9-C , 11-H ) :   0.9618
B(  9-C , 12-C ) :   1.0818 B( 12-C , 13-H ) :   0.9719 B( 12-C , 14-H ) :   0.9747
B( 12-C , 15-H ) :   0.9727 B( 16-S , 17-C ) :   1.1436 B( 16-S , 20-C ) :   1.1475
B( 17-C , 18-C ) :   1.6079 B( 17-C , 33-H ) :   0.9728 B( 18-C , 19-C ) :   1.2691
B( 18-C , 21-H ) :   0.9819 B( 19-C , 20-C ) :   1.5484 B( 19-C , 22-C ) :   1.0266
B( 22-C , 23-H ) :   0.9367 B( 22-C , 24-H ) :   0.9295 B( 22-C , 25-C ) :   1.0812
B( 25-C , 26-H ) :   0.9536 B( 25-C , 27-H ) :   0.9506 B( 25-C , 28-C ) :   1.0667
B( 28-C , 29-H ) :   0.9722 B( 28-C , 30-H ) :   0.9758 B( 28-C , 31-H ) :   0.9722

Dispersion correction           -0.015106194
FINAL SINGLE POINT ENERGY     -1339.862023531159

DIPOLE MOMENT
-------------
                                X             Y             Z
Electronic contribution:    -14.19007     -16.49907       8.39144
Nuclear contribution   :     14.77760      16.83531      -8.34734
                        -----------------------------------------
Total Dipole Moment    :      0.58753       0.33624       0.04410
                        -----------------------------------------
Magnitude (a.u.)       :      0.67837
Magnitude (Debye)      :      1.72428

Rotational constants in cm-1:     0.021314     0.008620     0.007018
Rotational constants in MHz :   638.964299   258.422694   210.381461

                             ****ORCA TERMINATED NORMALLY****
TOTAL RUN TIME: 0 days 0 hours 0 minutes 22 seconds 218 msec
