                         Program Version 4.2.1 -  RELEASE  -
|  1> ! wB97X-D3 SP def2-SVP
|  2> %pal
|  3> nprocs 24
|  4> end
|  5>
|  6> * xyz 0 1
|  7> S 	 -148.54 	 6.45839 	 10.2714
|  8> C 	 -149.319 	 7.73469 	 9.48183
|  9> C 	 -149.652 	 8.79819 	 10.3078
| 10> C 	 -149.021 	 8.63784 	 11.5726
| 11> C 	 -148.191 	 7.5603 	 11.6625
| 12> H 	 -149.043 	 9.39808 	 12.4358
| 13> C 	 -150.483 	 10.021 	 9.98996
| 14> H 	 -150.682 	 10.1256 	 8.93327
| 15> H 	 -149.906 	 10.8616 	 10.2814
| 16> C 	 -151.888 	 10.0729 	 10.6514
| 17> H 	 -152.321 	 9.1257 	 10.6106
| 18> H 	 -151.89 	 10.2485 	 11.6879
| 19> C 	 -152.684 	 11.1773 	 9.94059
| 20> H 	 -152.274 	 12.2045 	 10.0339
| 21> H 	 -152.834 	 10.9525 	 8.89778
| 22> H 	 -153.726 	 11.1697 	 10.3537
| 23> S 	 -147.78 	 5.91954 	 13.7353
| 24> C 	 -146.386 	 6.13696 	 14.7716
| 25> C 	 -145.636 	 7.20128 	 14.4654
| 26> C 	 -146.283 	 7.97147 	 13.4112
| 27> C 	 -147.281 	 7.24895 	 12.7277
| 28> H 	 -144.816 	 7.55577 	 15.0803
| 29> C 	 -145.771 	 9.33816 	 12.9199
| 30> H 	 -146.62 	 9.80682 	 12.4393
| 31> H 	 -144.995 	 9.22947 	 12.2478
| 32> C 	 -145.344 	 10.1986 	 14.0684
| 33> H 	 -144.45 	 9.85436 	 14.4849
| 34> H 	 -146.069 	 10.1494 	 14.8055
| 35> C 	 -145.102 	 11.6939 	 13.7219
| 36> H 	 -144.543 	 12.2277 	 14.4621
| 37> H 	 -146.093 	 12.1188 	 13.4916
| 38> H 	 -144.422 	 11.7074 	 12.8041
| 39> H 	 -149.771 	 7.59843 	 8.54584
| 40> H 	 -146.359 	 5.6216 	 15.6783
| 41> *
| 42>
| 43>                          ****END OF INPUT****

CARTESIAN COORDINATES (ANGSTROEM)
---------------------------------
  S    -148.540000    6.458390   10.271400
  C    -149.319000    7.734690    9.481830
  C    -149.652000    8.798190   10.307800
  C    -149.021000    8.637840   11.572600
  C    -148.191000    7.560300   11.662500
  H    -149.043000    9.398080   12.435800
  C    -150.483000   10.021000    9.989960
  H    -150.682000   10.125600    8.933270
  H    -149.906000   10.861600   10.281400
  C    -151.888000   10.072900   10.651400
  H    -152.321000    9.125700   10.610600
  H    -151.890000   10.248500   11.687900
  C    -152.684000   11.177300    9.940590
  H    -152.274000   12.204500   10.033900
  H    -152.834000   10.952500    8.897780
  H    -153.726000   11.169700   10.353700
  S    -147.780000    5.919540   13.735300
  C    -146.386000    6.136960   14.771600
  C    -145.636000    7.201280   14.465400
  C    -146.283000    7.971470   13.411200
  C    -147.281000    7.248950   12.727700
  H    -144.816000    7.555770   15.080300
  C    -145.771000    9.338160   12.919900
  H    -146.620000    9.806820   12.439300
  H    -144.995000    9.229470   12.247800
  C    -145.344000   10.198600   14.068400
  H    -144.450000    9.854360   14.484900
  H    -146.069000   10.149400   14.805500
  C    -145.102000   11.693900   13.721900
  H    -144.543000   12.227700   14.462100
  H    -146.093000   12.118800   13.491600
  H    -144.422000   11.707400   12.804100
  H    -149.771000    7.598430    8.545840
  H    -146.359000    5.621600   15.678300

 Total Charge           Charge          ....    0
 Multiplicity           Mult            ....    1
 Number of Electrons    NEL             ....  134
 Basis Dimension        Dim             ....  322

ORBITAL ENERGIES
----------------

  NO   OCC          E(Eh)            E(eV)
   0   2.0000     -88.963714     -2420.8257
   1   2.0000     -88.959018     -2420.6979
   2   2.0000     -10.327090      -281.0144
   3   2.0000     -10.323025      -280.9038
   4   2.0000     -10.309593      -280.5383
   5   2.0000     -10.308674      -280.5133
   6   2.0000     -10.306281      -280.4482
   7   2.0000     -10.298588      -280.2388
   8   2.0000     -10.297441      -280.2076
   9   2.0000     -10.294106      -280.1169
  10   2.0000     -10.288293      -279.9587
  11   2.0000     -10.283261      -279.8218
  12   2.0000     -10.283007      -279.8148
  13   2.0000     -10.280491      -279.7464
  14   2.0000     -10.279617      -279.7226
  15   2.0000     -10.272126      -279.5188
  16   2.0000      -8.078999      -219.8407
  17   2.0000      -8.074589      -219.7207
  18   2.0000      -6.037459      -164.2876
  19   2.0000      -6.033693      -164.1851
  20   2.0000      -6.033031      -164.1671
  21   2.0000      -6.029507      -164.0712
  22   2.0000      -6.029103      -164.0602
  23   2.0000      -6.025241      -163.9551
  24   2.0000      -1.008560       -27.4443
  25   2.0000      -0.987215       -26.8635
  26   2.0000      -0.915075       -24.9005
  27   2.0000      -0.912178       -24.8216
  28   2.0000      -0.877553       -23.8794
  29   2.0000      -0.851724       -23.1766
  30   2.0000      -0.843349       -22.9487
  31   2.0000      -0.817264       -22.2389
  32   2.0000      -0.779773       -21.2187
  33   2.0000      -0.767800       -20.8929
  34   2.0000      -0.713159       -19.4060
  35   2.0000      -0.705052       -19.1854
  36   2.0000      -0.700262       -19.0551
  37   2.0000      -0.655834       -17.8462
  38   2.0000      -0.643401       -17.5078
  39   2.0000      -0.620586       -16.8870
  40   2.0000      -0.601415       -16.3653
  41   2.0000      -0.583284       -15.8720
  42   2.0000      -0.571042       -15.5389
  43   2.0000      -0.562362       -15.3027
  44   2.0000      -0.526007       -14.3134
  45   2.0000      -0.522578       -14.2201
  46   2.0000      -0.516405       -14.0521
  47   2.0000      -0.509211       -13.8563
  48   2.0000      -0.505577       -13.7575
  49   2.0000      -0.501869       -13.6566
  50   2.0000      -0.494199       -13.4478
  51   2.0000      -0.472539       -12.8584
  52   2.0000      -0.468892       -12.7592
  53   2.0000      -0.467870       -12.7314
  54   2.0000      -0.464165       -12.6306
  55   2.0000      -0.455333       -12.3903
  56   2.0000      -0.444146       -12.0858
  57   2.0000      -0.442057       -12.0290
  58   2.0000      -0.431176       -11.7329
  59   2.0000      -0.428521       -11.6607
  60   2.0000      -0.426803       -11.6139
  61   2.0000      -0.419276       -11.4091
  62   2.0000      -0.411894       -11.2082
  63   2.0000      -0.349177        -9.5016
  64   2.0000      -0.329391        -8.9632
  65   2.0000      -0.322582        -8.7779
  66   2.0000      -0.291467        -7.9312
  67   0.0000       0.033081         0.9002
  68   0.0000       0.059268         1.6128
  69   0.0000       0.110067         2.9951
  70   0.0000       0.125460         3.4139
  71   0.0000       0.125891         3.4257

MULLIKEN ATOMIC CHARGES
-----------------------
   0 S :    0.113887
   1 C :   -0.082229
   2 C :   -0.098286
   3 C :    0.019217
   4 C :   -0.184416
   5 H :    0.045064
   6 C :    0.079726
   7 H :    0.009752
   8 H :    0.021072
   9 C :   -0.026367
  10 H :    0.015165
  11 H :    0.015637
  12 C :   -0.076630
  13 H :    0.043638
  14 H :    0.029909
  15 H :    0.035270
  16 S :    0.085648
  17 C :   -0.061956
  18 C :   -0.005789
  19 C :   -0.107760
  20 C :   -0.129794
  21 H :    0.027921
  22 C :    0.143812
  23 H :    0.004473
  24 H :    0.023745
  25 C :   -0.086315
  26 H :    0.011640
  27 H :    0.011023
  28 C :   -0.047564
  29 H :    0.034276
  30 H :    0.038769
  31 H :    0.030330
  32 H :    0.026080
  33 H :    0.041053
Sum of atomic charges:    0.0000000

LOEWDIN ATOMIC CHARGES
----------------------
   0 S :    0.401251
   1 C :   -0.200893
   2 C :   -0.068204
   3 C :   -0.063383
   4 C :   -0.187201
   5 H :    0.043914
   6 C :   -0.024656
   7 H :    0.028034
   8 H :    0.026380
   9 C :   -0.030051
  10 H :    0.019098
  11 H :    0.017743
  12 C :   -0.067731
  13 H :    0.030024
  14 H :    0.020758
  15 H :    0.031078
  16 S :    0.402319
  17 C :   -0.165958
  18 C :   -0.071199
  19 C :   -0.042258
  20 C :   -0.205328
  21 H :    0.035740
  22 C :   -0.019314
  23 H :    0.027388
  24 H :    0.022875
  25 C :   -0.036165
  26 H :    0.012697
  27 H :    0.013487
  28 C :   -0.061162
  29 H :    0.021929
  30 H :    0.026057
  31 H :    0.030590
  32 H :    0.015593
  33 H :    0.016550

  Mayer bond orders larger than 0.100000
B(  0-S ,  1-C ) :   1.1506 B(  0-S ,  4-C ) :   1.1248 B(  1-C ,  2-C ) :   1.6156
B(  1-C , 32-H ) :   0.9680 B(  2-C ,  3-C ) :   1.2284 B(  2-C ,  6-C ) :   1.0326
B(  3-C ,  4-C ) :   1.6031 B(  3-C ,  5-H ) :   0.9746 B(  4-C , 20-C ) :   1.0428
B(  6-C ,  7-H ) :   0.9462 B(  6-C ,  8-H ) :   0.9358 B(  6-C ,  9-C ) :   1.0553
B(  9-C , 10-H ) :   0.9542 B(  9-C , 11-H ) :   0.9512 B(  9-C , 12-C ) :   1.0881
B( 12-C , 13-H ) :   0.9750 B( 12-C , 14-H ) :   0.9757 B( 12-C , 15-H ) :   0.9730
B( 16-S , 17-C ) :   1.1593 B( 16-S , 20-C ) :   1.1432 B( 17-C , 18-C ) :   1.6249
B( 17-C , 33-H ) :   0.9702 B( 18-C , 19-C ) :   1.2153 B( 18-C , 21-H ) :   0.9866
B( 19-C , 20-C ) :   1.6070 B( 19-C , 22-C ) :   1.0419 B( 22-C , 23-H ) :   0.9317
B( 22-C , 24-H ) :   0.9306 B( 22-C , 25-C ) :   1.0697 B( 25-C , 26-H ) :   0.9465
B( 25-C , 27-H ) :   0.9616 B( 25-C , 28-C ) :   1.0886 B( 28-C , 29-H ) :   0.9751
B( 28-C , 30-H ) :   0.9770 B( 28-C , 31-H ) :   0.9730

Dispersion correction           -0.013532194
FINAL SINGLE POINT ENERGY     -1339.855043520389

DIPOLE MOMENT
-------------
                                X             Y             Z
Electronic contribution:      4.29078     -28.98433       0.50759
Nuclear contribution   :     -4.39212      29.68809      -0.27202
                        -----------------------------------------
Total Dipole Moment    :     -0.10134       0.70376       0.23556
                        -----------------------------------------
Magnitude (a.u.)       :      0.74902
Magnitude (Debye)      :      1.90387

Rotational constants in cm-1:     0.017043     0.008239     0.006361
Rotational constants in MHz :   510.935554   246.984079   190.684979

                             ****ORCA TERMINATED NORMALLY****
TOTAL RUN TIME: 0 days 0 hours 0 minutes 21 seconds 204 msec
