                         Program Version 4.2.1 -  RELEASE  -
|  1> ! wB97X-D3 SP def2-SVP
|  2> %pal
|  3> nprocs 24
|  4> end
|  5>
|  6> * xyz 0 1
|  7> S 	 20.7431 	 -6.79074 	 -112.282
|  8> C 	 21.1502 	 -7.54657 	 -110.725
|  9> C 	 20.3302 	 -8.66782 	 -110.475
| 10> C 	 19.4372 	 -8.92405 	 -111.528
| 11> C 	 19.5154 	 -8.03437 	 -112.55
| 12> H 	 18.8436 	 -9.81069 	 -111.655
| 13> C 	 20.429 	 -9.51245 	 -109.226
| 14> H 	 19.4562 	 -9.94997 	 -108.992
| 15> H 	 20.4966 	 -8.79233 	 -108.418
| 16> C 	 21.5503 	 -10.5923 	 -109.126
| 17> H 	 22.4232 	 -9.98357 	 -109.188
| 18> H 	 21.4541 	 -11.0047 	 -108.109
| 19> C 	 21.4928 	 -11.6502 	 -110.26
| 20> H 	 21.8356 	 -12.5832 	 -109.866
| 21> H 	 20.4812 	 -11.8799 	 -110.581
| 22> H 	 21.9758 	 -11.2748 	 -111.144
| 23> S 	 19.7116 	 -8.06619 	 -115.294
| 24> C 	 18.3677 	 -8.04051 	 -116.382
| 25> C 	 17.2372 	 -8.29568 	 -115.627
| 26> C 	 17.4801 	 -8.19962 	 -114.218
| 27> C 	 18.8182 	 -8.0916 	 -113.843
| 28> H 	 16.2739 	 -8.42429 	 -116.147
| 29> C 	 16.3467 	 -8.33223 	 -113.21
| 30> H 	 16.6613 	 -8.31302 	 -112.138
| 31> H 	 15.8095 	 -9.28105 	 -113.305
| 32> C 	 15.181 	 -7.24572 	 -113.352
| 33> H 	 14.7231 	 -7.3444 	 -114.319
| 34> H 	 15.6588 	 -6.26516 	 -113.218
| 35> C 	 14.0734 	 -7.34028 	 -112.302
| 36> H 	 13.3688 	 -6.45152 	 -112.421
| 37> H 	 14.4994 	 -7.40732 	 -111.307
| 38> H 	 13.4369 	 -8.26998 	 -112.545
| 39> H 	 21.9125 	 -7.29006 	 -110.008
| 40> H 	 18.4581 	 -8.2572 	 -117.447
| 41> *
| 42>
| 43>                          ****END OF INPUT****

CARTESIAN COORDINATES (ANGSTROEM)
---------------------------------
  S     20.743100   -6.790740  -112.282000
  C     21.150200   -7.546570  -110.725000
  C     20.330200   -8.667820  -110.475000
  C     19.437200   -8.924050  -111.528000
  C     19.515400   -8.034370  -112.550000
  H     18.843600   -9.810690  -111.655000
  C     20.429000   -9.512450  -109.226000
  H     19.456200   -9.949970  -108.992000
  H     20.496600   -8.792330  -108.418000
  C     21.550300  -10.592300  -109.126000
  H     22.423200   -9.983570  -109.188000
  H     21.454100  -11.004700  -108.109000
  C     21.492800  -11.650200  -110.260000
  H     21.835600  -12.583200  -109.866000
  H     20.481200  -11.879900  -110.581000
  H     21.975800  -11.274800  -111.144000
  S     19.711600   -8.066190  -115.294000
  C     18.367700   -8.040510  -116.382000
  C     17.237200   -8.295680  -115.627000
  C     17.480100   -8.199620  -114.218000
  C     18.818200   -8.091600  -113.843000
  H     16.273900   -8.424290  -116.147000
  C     16.346700   -8.332230  -113.210000
  H     16.661300   -8.313020  -112.138000
  H     15.809500   -9.281050  -113.305000
  C     15.181000   -7.245720  -113.352000
  H     14.723100   -7.344400  -114.319000
  H     15.658800   -6.265160  -113.218000
  C     14.073400   -7.340280  -112.302000
  H     13.368800   -6.451520  -112.421000
  H     14.499400   -7.407320  -111.307000
  H     13.436900   -8.269980  -112.545000
  H     21.912500   -7.290060  -110.008000
  H     18.458100   -8.257200  -117.447000

 Total Charge           Charge          ....    0
 Multiplicity           Mult            ....    1
 Number of Electrons    NEL             ....  134
 Basis Dimension        Dim             ....  322

ORBITAL ENERGIES
----------------

  NO   OCC          E(Eh)            E(eV)
   0   2.0000     -88.972504     -2421.0649
   1   2.0000     -88.961021     -2420.7525
   2   2.0000     -10.332570      -281.1635
   3   2.0000     -10.327191      -281.0172
   4   2.0000     -10.318998      -280.7942
   5   2.0000     -10.317253      -280.7467
   6   2.0000     -10.305559      -280.4285
   7   2.0000     -10.301983      -280.3312
   8   2.0000     -10.298506      -280.2366
   9   2.0000     -10.292918      -280.0845
  10   2.0000     -10.291623      -280.0493
  11   2.0000     -10.289944      -280.0036
  12   2.0000     -10.289828      -280.0005
  13   2.0000     -10.286628      -279.9134
  14   2.0000     -10.283258      -279.8217
  15   2.0000     -10.275657      -279.6149
  16   2.0000      -8.086080      -220.0334
  17   2.0000      -8.077149      -219.7904
  18   2.0000      -6.044604      -164.4820
  19   2.0000      -6.040777      -164.3779
  20   2.0000      -6.036849      -164.2710
  21   2.0000      -6.035543      -164.2355
  22   2.0000      -6.031235      -164.1182
  23   2.0000      -6.028125      -164.0336
  24   2.0000      -1.012136       -27.5416
  25   2.0000      -0.987545       -26.8725
  26   2.0000      -0.909454       -24.7475
  27   2.0000      -0.898244       -24.4425
  28   2.0000      -0.869547       -23.6616
  29   2.0000      -0.851541       -23.1716
  30   2.0000      -0.843743       -22.9594
  31   2.0000      -0.820563       -22.3286
  32   2.0000      -0.782292       -21.2872
  33   2.0000      -0.765721       -20.8363
  34   2.0000      -0.707527       -19.2528
  35   2.0000      -0.702717       -19.1219
  36   2.0000      -0.688756       -18.7420
  37   2.0000      -0.656486       -17.8639
  38   2.0000      -0.640297       -17.4234
  39   2.0000      -0.620107       -16.8740
  40   2.0000      -0.595518       -16.2049
  41   2.0000      -0.578302       -15.7364
  42   2.0000      -0.563394       -15.3307
  43   2.0000      -0.551915       -15.0184
  44   2.0000      -0.540695       -14.7131
  45   2.0000      -0.520899       -14.1744
  46   2.0000      -0.513581       -13.9753
  47   2.0000      -0.506432       -13.7807
  48   2.0000      -0.504358       -13.7243
  49   2.0000      -0.503026       -13.6880
  50   2.0000      -0.488304       -13.2874
  51   2.0000      -0.477204       -12.9854
  52   2.0000      -0.472303       -12.8520
  53   2.0000      -0.467695       -12.7266
  54   2.0000      -0.463185       -12.6039
  55   2.0000      -0.450483       -12.2583
  56   2.0000      -0.443370       -12.0647
  57   2.0000      -0.428916       -11.6714
  58   2.0000      -0.428166       -11.6510
  59   2.0000      -0.426378       -11.6023
  60   2.0000      -0.420210       -11.4345
  61   2.0000      -0.412329       -11.2200
  62   2.0000      -0.410378       -11.1670
  63   2.0000      -0.350877        -9.5478
  64   2.0000      -0.334375        -9.0988
  65   2.0000      -0.325050        -8.8451
  66   2.0000      -0.295817        -8.0496
  67   0.0000       0.028101         0.7647
  68   0.0000       0.066966         1.8222
  69   0.0000       0.110441         3.0052
  70   0.0000       0.114707         3.1213
  71   0.0000       0.135444         3.6856

MULLIKEN ATOMIC CHARGES
-----------------------
   0 S :    0.125489
   1 C :   -0.108761
   2 C :   -0.103262
   3 C :    0.042756
   4 C :   -0.150777
   5 H :    0.015408
   6 C :    0.031490
   7 H :    0.014940
   8 H :    0.020596
   9 C :   -0.041033
  10 H :    0.019427
  11 H :    0.036961
  12 C :   -0.025444
  13 H :    0.031993
  14 H :    0.015269
  15 H :    0.047324
  16 S :    0.093582
  17 C :   -0.099030
  18 C :   -0.049870
  19 C :   -0.022014
  20 C :   -0.137424
  21 H :    0.037313
  22 C :    0.026051
  23 H :    0.025987
  24 H :    0.024111
  25 C :   -0.097813
  26 H :    0.026843
  27 H :    0.037942
  28 C :   -0.079418
  29 H :    0.051204
  30 H :    0.038116
  31 H :    0.035773
  32 H :    0.041450
  33 H :    0.074822
Sum of atomic charges:   -0.0000000

LOEWDIN ATOMIC CHARGES
----------------------
   0 S :    0.399598
   1 C :   -0.190689
   2 C :   -0.062460
   3 C :   -0.059993
   4 C :   -0.183057
   5 H :    0.034075
   6 C :   -0.039396
   7 H :    0.025744
   8 H :    0.030248
   9 C :   -0.030763
  10 H :    0.018899
  11 H :    0.027863
  12 C :   -0.061433
  13 H :    0.026487
  14 H :    0.022595
  15 H :    0.031079
  16 S :    0.433702
  17 C :   -0.199772
  18 C :   -0.072292
  19 C :   -0.065012
  20 C :   -0.215492
  21 H :    0.036753
  22 C :   -0.039553
  23 H :    0.029624
  24 H :    0.027466
  25 C :   -0.042812
  26 H :    0.016570
  27 H :    0.024920
  28 C :   -0.074013
  29 H :    0.035996
  30 H :    0.021784
  31 H :    0.029578
  32 H :    0.027220
  33 H :    0.036535

  Mayer bond orders larger than 0.100000
B(  0-S ,  1-C ) :   1.1337 B(  0-S ,  4-C ) :   1.1467 B(  1-C ,  2-C ) :   1.6054
B(  1-C ,  4-C ) :   0.1030 B(  1-C , 32-H ) :   0.9673 B(  2-C ,  3-C ) :   1.2479
B(  2-C ,  6-C ) :   1.0168 B(  3-C ,  4-C ) :   1.5840 B(  3-C ,  5-H ) :   0.9945
B(  4-C , 20-C ) :   1.0188 B(  6-C ,  7-H ) :   0.9424 B(  6-C ,  8-H ) :   0.9387
B(  6-C ,  9-C ) :   1.0672 B(  9-C , 10-H ) :   0.9596 B(  9-C , 11-H ) :   0.9583
B(  9-C , 12-C ) :   1.0638 B( 12-C , 13-H ) :   0.9752 B( 12-C , 14-H ) :   0.9789
B( 12-C , 15-H ) :   0.9739 B( 16-S , 17-C ) :   1.1765 B( 16-S , 20-C ) :   1.1656
B( 17-C , 18-C ) :   1.5734 B( 17-C , 20-C ) :   0.1006 B( 17-C , 33-H ) :   0.9631
B( 18-C , 19-C ) :   1.2698 B( 18-C , 21-H ) :   0.9853 B( 19-C , 20-C ) :   1.5577
B( 19-C , 22-C ) :   1.0497 B( 22-C , 23-H ) :   0.9418 B( 22-C , 24-H ) :   0.9389
B( 22-C , 25-C ) :   1.0508 B( 25-C , 26-H ) :   0.9578 B( 25-C , 27-H ) :   0.9588
B( 25-C , 28-C ) :   1.0877 B( 28-C , 29-H ) :   0.9735 B( 28-C , 30-H ) :   0.9745
B( 28-C , 31-H ) :   0.9733

Dispersion correction           -0.013940991
FINAL SINGLE POINT ENERGY     -1339.879405545109

DIPOLE MOMENT
-------------
                                X             Y             Z
Electronic contribution:     13.73512      11.34287     -15.90850
Nuclear contribution   :    -14.04190     -11.83165      16.22152
                        -----------------------------------------
Total Dipole Moment    :     -0.30678      -0.48878       0.31302
                        -----------------------------------------
Magnitude (a.u.)       :      0.65651
Magnitude (Debye)      :      1.66872

Rotational constants in cm-1:     0.017923     0.008128     0.006840
Rotational constants in MHz :   537.310875   243.660059   205.059757

                             ****ORCA TERMINATED NORMALLY****
TOTAL RUN TIME: 0 days 0 hours 0 minutes 21 seconds 27 msec
