                         Program Version 4.2.1 -  RELEASE  -
|  1> ! wB97X-D3 SP def2-SVP
|  2> %pal
|  3> nprocs 24
|  4> end
|  5>
|  6> * xyz 0 1
|  7> S 	 -118.21 	 18.8875 	 -113.638
|  8> C 	 -118.43 	 20.5616 	 -114.142
|  9> C 	 -117.367 	 21.3355 	 -113.737
| 10> C 	 -116.382 	 20.5792 	 -112.954
| 11> C 	 -116.698 	 19.2267 	 -112.774
| 12> H 	 -115.538 	 21.0639 	 -112.484
| 13> C 	 -117.185 	 22.8305 	 -113.999
| 14> H 	 -116.864 	 23.241 	 -113.061
| 15> H 	 -118.104 	 23.3552 	 -114.315
| 16> C 	 -116.057 	 23.2003 	 -114.972
| 17> H 	 -116.016 	 24.2797 	 -114.797
| 18> H 	 -115.085 	 22.7122 	 -114.738
| 19> C 	 -116.382 	 22.8139 	 -116.332
| 20> H 	 -117.387 	 23.095 	 -116.524
| 21> H 	 -115.775 	 23.2782 	 -117.149
| 22> H 	 -116.468 	 21.7322 	 -116.463
| 23> S 	 -117.02 	 16.977 	 -111.312
| 24> C 	 -115.725 	 16.2905 	 -110.493
| 25> C 	 -114.552 	 16.9273 	 -110.701
| 26> C 	 -114.752 	 18.1407 	 -111.439
| 27> C 	 -116.03 	 18.2508 	 -111.939
| 28> H 	 -113.653 	 16.5488 	 -110.356
| 29> C 	 -113.554 	 19.0695 	 -111.629
| 30> H 	 -113.708 	 19.8265 	 -112.419
| 31> H 	 -112.601 	 18.6512 	 -111.865
| 32> C 	 -113.265 	 19.8535 	 -110.373
| 33> H 	 -112.994 	 19.1859 	 -109.603
| 34> H 	 -114.207 	 20.372 	 -110.235
| 35> C 	 -112.152 	 20.8987 	 -110.488
| 36> H 	 -111.179 	 20.4501 	 -110.457
| 37> H 	 -112.101 	 21.6402 	 -109.717
| 38> H 	 -112.144 	 21.3706 	 -111.48
| 39> H 	 -119.121 	 20.9572 	 -114.9
| 40> H 	 -115.793 	 15.4067 	 -109.869
| 41> *
| 42>
| 43>                          ****END OF INPUT****

CARTESIAN COORDINATES (ANGSTROEM)
---------------------------------
  S    -118.210000   18.887500  -113.638000
  C    -118.430000   20.561600  -114.142000
  C    -117.367000   21.335500  -113.737000
  C    -116.382000   20.579200  -112.954000
  C    -116.698000   19.226700  -112.774000
  H    -115.538000   21.063900  -112.484000
  C    -117.185000   22.830500  -113.999000
  H    -116.864000   23.241000  -113.061000
  H    -118.104000   23.355200  -114.315000
  C    -116.057000   23.200300  -114.972000
  H    -116.016000   24.279700  -114.797000
  H    -115.085000   22.712200  -114.738000
  C    -116.382000   22.813900  -116.332000
  H    -117.387000   23.095000  -116.524000
  H    -115.775000   23.278200  -117.149000
  H    -116.468000   21.732200  -116.463000
  S    -117.020000   16.977000  -111.312000
  C    -115.725000   16.290500  -110.493000
  C    -114.552000   16.927300  -110.701000
  C    -114.752000   18.140700  -111.439000
  C    -116.030000   18.250800  -111.939000
  H    -113.653000   16.548800  -110.356000
  C    -113.554000   19.069500  -111.629000
  H    -113.708000   19.826500  -112.419000
  H    -112.601000   18.651200  -111.865000
  C    -113.265000   19.853500  -110.373000
  H    -112.994000   19.185900  -109.603000
  H    -114.207000   20.372000  -110.235000
  C    -112.152000   20.898700  -110.488000
  H    -111.179000   20.450100  -110.457000
  H    -112.101000   21.640200  -109.717000
  H    -112.144000   21.370600  -111.480000
  H    -119.121000   20.957200  -114.900000
  H    -115.793000   15.406700  -109.869000

 Total Charge           Charge          ....    0
 Multiplicity           Mult            ....    1
 Number of Electrons    NEL             ....  134
 Basis Dimension        Dim             ....  322

ORBITAL ENERGIES
----------------

  NO   OCC          E(Eh)            E(eV)
   0   2.0000     -88.966978     -2420.9146
   1   2.0000     -88.965923     -2420.8858
   2   2.0000     -10.338132      -281.3149
   3   2.0000     -10.328447      -281.0513
   4   2.0000     -10.315607      -280.7019
   5   2.0000     -10.310836      -280.5721
   6   2.0000     -10.307029      -280.4685
   7   2.0000     -10.304374      -280.3963
   8   2.0000     -10.298597      -280.2391
   9   2.0000     -10.293696      -280.1057
  10   2.0000     -10.289539      -279.9926
  11   2.0000     -10.286939      -279.9219
  12   2.0000     -10.284025      -279.8426
  13   2.0000     -10.279185      -279.7109
  14   2.0000     -10.275580      -279.6128
  15   2.0000     -10.268781      -279.4277
  16   2.0000      -8.082699      -219.9414
  17   2.0000      -8.080971      -219.8944
  18   2.0000      -6.041102      -164.3868
  19   2.0000      -6.039755      -164.3501
  20   2.0000      -6.036912      -164.2727
  21   2.0000      -6.035589      -164.2367
  22   2.0000      -6.033435      -164.1781
  23   2.0000      -6.031468      -164.1246
  24   2.0000      -1.017380       -27.6843
  25   2.0000      -0.984543       -26.7908
  26   2.0000      -0.921715       -25.0811
  27   2.0000      -0.919555       -25.0224
  28   2.0000      -0.877197       -23.8698
  29   2.0000      -0.856568       -23.3084
  30   2.0000      -0.843658       -22.9571
  31   2.0000      -0.816305       -22.2128
  32   2.0000      -0.787756       -21.4359
  33   2.0000      -0.779681       -21.2162
  34   2.0000      -0.710912       -19.3449
  35   2.0000      -0.695581       -18.9277
  36   2.0000      -0.692534       -18.8448
  37   2.0000      -0.669560       -18.2196
  38   2.0000      -0.634106       -17.2549
  39   2.0000      -0.626615       -17.0511
  40   2.0000      -0.608765       -16.5653
  41   2.0000      -0.580262       -15.7897
  42   2.0000      -0.574990       -15.6463
  43   2.0000      -0.553712       -15.0673
  44   2.0000      -0.544612       -14.8196
  45   2.0000      -0.527123       -14.3438
  46   2.0000      -0.521827       -14.1996
  47   2.0000      -0.518670       -14.1137
  48   2.0000      -0.507790       -13.8177
  49   2.0000      -0.501144       -13.6368
  50   2.0000      -0.491983       -13.3875
  51   2.0000      -0.485820       -13.2198
  52   2.0000      -0.474116       -12.9014
  53   2.0000      -0.464865       -12.6496
  54   2.0000      -0.460440       -12.5292
  55   2.0000      -0.454431       -12.3657
  56   2.0000      -0.443865       -12.0782
  57   2.0000      -0.438367       -11.9286
  58   2.0000      -0.427404       -11.6303
  59   2.0000      -0.425180       -11.5697
  60   2.0000      -0.422471       -11.4960
  61   2.0000      -0.417276       -11.3547
  62   2.0000      -0.409263       -11.1366
  63   2.0000      -0.366519        -9.9735
  64   2.0000      -0.334756        -9.1092
  65   2.0000      -0.325974        -8.8702
  66   2.0000      -0.286975        -7.8090
  67   0.0000       0.023918         0.6508
  68   0.0000       0.082831         2.2540
  69   0.0000       0.110077         2.9954
  70   0.0000       0.115485         3.1425
  71   0.0000       0.129124         3.5136

MULLIKEN ATOMIC CHARGES
-----------------------
   0 S :    0.093836
   1 C :   -0.117857
   2 C :   -0.098459
   3 C :   -0.007484
   4 C :   -0.100671
   5 H :    0.007070
   6 C :    0.044900
   7 H :    0.022291
   8 H :    0.031087
   9 C :   -0.067878
  10 H :    0.031920
  11 H :    0.033539
  12 C :   -0.025236
  13 H :   -0.010077
  14 H :    0.043079
  15 H :    0.035890
  16 S :    0.114449
  17 C :   -0.071328
  18 C :   -0.000712
  19 C :   -0.043991
  20 C :   -0.115544
  21 H :   -0.011786
  22 C :    0.051462
  23 H :    0.012300
  24 H :    0.011064
  25 C :   -0.073375
  26 H :    0.024152
  27 H :    0.027879
  28 C :   -0.019090
  29 H :    0.013075
  30 H :    0.034646
  31 H :    0.017895
  32 H :    0.058171
  33 H :    0.054783
Sum of atomic charges:   -0.0000000

LOEWDIN ATOMIC CHARGES
----------------------
   0 S :    0.383228
   1 C :   -0.206319
   2 C :   -0.060584
   3 C :   -0.069865
   4 C :   -0.175043
   5 H :    0.024904
   6 C :   -0.027697
   7 H :    0.029675
   8 H :    0.032151
   9 C :   -0.044686
  10 H :    0.027345
  11 H :    0.027132
  12 C :   -0.072028
  13 H :    0.014039
  14 H :    0.032079
  15 H :    0.030539
  16 S :    0.441604
  17 C :   -0.197163
  18 C :   -0.060746
  19 C :   -0.046652
  20 C :   -0.201306
  21 H :    0.020614
  22 C :   -0.030875
  23 H :    0.025235
  24 H :    0.023306
  25 C :   -0.035043
  26 H :    0.017607
  27 H :    0.023157
  28 C :   -0.065459
  29 H :    0.021342
  30 H :    0.025525
  31 H :    0.024824
  32 H :    0.037687
  33 H :    0.031472

  Mayer bond orders larger than 0.100000
B(  0-S ,  1-C ) :   1.1110 B(  0-S ,  4-C ) :   1.1356 B(  1-C ,  2-C ) :   1.6424
B(  1-C , 32-H ) :   0.9599 B(  2-C ,  3-C ) :   1.2264 B(  2-C ,  6-C ) :   1.0257
B(  3-C ,  4-C ) :   1.5720 B(  3-C ,  5-H ) :   0.9860 B(  4-C , 20-C ) :   1.0799
B(  6-C ,  7-H ) :   0.9353 B(  6-C ,  8-H ) :   0.9480 B(  6-C ,  9-C ) :   1.0729
B(  9-C , 10-H ) :   0.9528 B(  9-C , 11-H ) :   0.9524 B(  9-C , 12-C ) :   1.0846
B( 12-C , 13-H ) :   0.9655 B( 12-C , 14-H ) :   0.9696 B( 12-C , 15-H ) :   0.9683
B( 16-S , 17-C ) :   1.1731 B( 16-S , 20-C ) :   1.1355 B( 17-C , 18-C ) :   1.6034
B( 17-C , 33-H ) :   0.9645 B( 18-C , 19-C ) :   1.2325 B( 18-C , 21-H ) :   1.0069
B( 19-C , 20-C ) :   1.6004 B( 19-C , 22-C ) :   1.0468 B( 22-C , 23-H ) :   0.9345
B( 22-C , 24-H ) :   0.9401 B( 22-C , 25-C ) :   1.0588 B( 25-C , 26-H ) :   0.9574
B( 25-C , 27-H ) :   0.9545 B( 25-C , 28-C ) :   1.0887 B( 28-C , 29-H ) :   0.9694
B( 28-C , 30-H ) :   0.9754 B( 28-C , 31-H ) :   0.9708

Dispersion correction           -0.014167391
FINAL SINGLE POINT ENERGY     -1339.876213528371

DIPOLE MOMENT
-------------
                                X             Y             Z
Electronic contribution:    -18.83486     -23.58940       4.18012
Nuclear contribution   :     19.40456      23.98959      -4.05278
                        -----------------------------------------
Total Dipole Moment    :      0.56970       0.40019       0.12734
                        -----------------------------------------
Magnitude (a.u.)       :      0.70776
Magnitude (Debye)      :      1.79899

Rotational constants in cm-1:     0.017643     0.009449     0.006498
Rotational constants in MHz :   528.915348   283.282372   194.808299

                             ****ORCA TERMINATED NORMALLY****
TOTAL RUN TIME: 0 days 0 hours 0 minutes 21 seconds 695 msec
