                         Program Version 4.2.1 -  RELEASE  -
|  1> ! wB97X-D3 SP def2-SVP
|  2> %pal
|  3> nprocs 24
|  4> end
|  5>
|  6> * xyz 0 1
|  7> S 	 -104.87 	 47.6509 	 -96.7173
|  8> C 	 -104.132 	 49.0067 	 -95.7977
|  9> C 	 -105.027 	 49.2705 	 -94.7097
| 10> C 	 -106.101 	 48.3256 	 -94.4854
| 11> C 	 -106.197 	 47.4971 	 -95.5431
| 12> H 	 -106.723 	 48.3179 	 -93.6215
| 13> C 	 -104.574 	 50.0775 	 -93.5323
| 14> H 	 -103.484 	 50.0853 	 -93.5844
| 15> H 	 -104.692 	 49.3817 	 -92.6002
| 16> C 	 -105.164 	 51.5403 	 -93.3316
| 17> H 	 -104.587 	 52.1114 	 -92.5905
| 18> H 	 -105.08 	 52.131 	 -94.2791
| 19> C 	 -106.667 	 51.6194 	 -92.7025
| 20> H 	 -107.496 	 51.0799 	 -93.1854
| 21> H 	 -106.739 	 51.0858 	 -91.7532
| 22> H 	 -107.041 	 52.6942 	 -92.6684
| 23> S 	 -106.328 	 44.8688 	 -95.7181
| 24> C 	 -107.869 	 44.0792 	 -95.6595
| 25> C 	 -108.887 	 44.9773 	 -95.4351
| 26> C 	 -108.457 	 46.3382 	 -95.5108
| 27> C 	 -107.118 	 46.406 	 -95.6473
| 28> H 	 -109.883 	 44.5918 	 -95.1895
| 29> C 	 -109.463 	 47.5156 	 -95.2616
| 30> H 	 -109.218 	 48.2557 	 -94.5164
| 31> H 	 -110.33 	 47.0501 	 -94.7866
| 32> C 	 -110.14 	 48.1665 	 -96.5
| 33> H 	 -111.02 	 48.8734 	 -96.222
| 34> H 	 -110.512 	 47.377 	 -97.2685
| 35> C 	 -109.237 	 49.1696 	 -97.1254
| 36> H 	 -108.853 	 49.9232 	 -96.4177
| 37> H 	 -109.684 	 49.802 	 -97.9043
| 38> H 	 -108.423 	 48.6699 	 -97.6666
| 39> H 	 -103.221 	 49.4437 	 -95.9367
| 40> H 	 -107.964 	 42.997 	 -95.4654
| 41> *
| 42>
| 43>                          ****END OF INPUT****

CARTESIAN COORDINATES (ANGSTROEM)
---------------------------------
  S    -104.870000   47.650900  -96.717300
  C    -104.132000   49.006700  -95.797700
  C    -105.027000   49.270500  -94.709700
  C    -106.101000   48.325600  -94.485400
  C    -106.197000   47.497100  -95.543100
  H    -106.723000   48.317900  -93.621500
  C    -104.574000   50.077500  -93.532300
  H    -103.484000   50.085300  -93.584400
  H    -104.692000   49.381700  -92.600200
  C    -105.164000   51.540300  -93.331600
  H    -104.587000   52.111400  -92.590500
  H    -105.080000   52.131000  -94.279100
  C    -106.667000   51.619400  -92.702500
  H    -107.496000   51.079900  -93.185400
  H    -106.739000   51.085800  -91.753200
  H    -107.041000   52.694200  -92.668400
  S    -106.328000   44.868800  -95.718100
  C    -107.869000   44.079200  -95.659500
  C    -108.887000   44.977300  -95.435100
  C    -108.457000   46.338200  -95.510800
  C    -107.118000   46.406000  -95.647300
  H    -109.883000   44.591800  -95.189500
  C    -109.463000   47.515600  -95.261600
  H    -109.218000   48.255700  -94.516400
  H    -110.330000   47.050100  -94.786600
  C    -110.140000   48.166500  -96.500000
  H    -111.020000   48.873400  -96.222000
  H    -110.512000   47.377000  -97.268500
  C    -109.237000   49.169600  -97.125400
  H    -108.853000   49.923200  -96.417700
  H    -109.684000   49.802000  -97.904300
  H    -108.423000   48.669900  -97.666600
  H    -103.221000   49.443700  -95.936700
  H    -107.964000   42.997000  -95.465400

 Total Charge           Charge          ....    0
 Multiplicity           Mult            ....    1
 Number of Electrons    NEL             ....  134
 Basis Dimension        Dim             ....  322

ORBITAL ENERGIES
----------------

  NO   OCC          E(Eh)            E(eV)
   0   2.0000     -88.967232     -2420.9215
   1   2.0000     -88.964846     -2420.8565
   2   2.0000     -10.326658      -281.0026
   3   2.0000     -10.319602      -280.8106
   4   2.0000     -10.318689      -280.7858
   5   2.0000     -10.315931      -280.7108
   6   2.0000     -10.306901      -280.4650
   7   2.0000     -10.305118      -280.4165
   8   2.0000     -10.304438      -280.3980
   9   2.0000     -10.300135      -280.2809
  10   2.0000     -10.297407      -280.2067
  11   2.0000     -10.297073      -280.1976
  12   2.0000     -10.296736      -280.1884
  13   2.0000     -10.291993      -280.0594
  14   2.0000     -10.290174      -280.0099
  15   2.0000     -10.266633      -279.3693
  16   2.0000      -8.080747      -219.8883
  17   2.0000      -8.080581      -219.8838
  18   2.0000      -6.039286      -164.3373
  19   2.0000      -6.039161      -164.3339
  20   2.0000      -6.035228      -164.2269
  21   2.0000      -6.035175      -164.2255
  22   2.0000      -6.031402      -164.1228
  23   2.0000      -6.031260      -164.1189
  24   2.0000      -1.014587       -27.6083
  25   2.0000      -0.980862       -26.6906
  26   2.0000      -0.905148       -24.6303
  27   2.0000      -0.897908       -24.4333
  28   2.0000      -0.867310       -23.6007
  29   2.0000      -0.853426       -23.2229
  30   2.0000      -0.839872       -22.8541
  31   2.0000      -0.815514       -22.1913
  32   2.0000      -0.783017       -21.3070
  33   2.0000      -0.767036       -20.8721
  34   2.0000      -0.706137       -19.2150
  35   2.0000      -0.705241       -19.1906
  36   2.0000      -0.680711       -18.5231
  37   2.0000      -0.664068       -18.0702
  38   2.0000      -0.644334       -17.5332
  39   2.0000      -0.618933       -16.8420
  40   2.0000      -0.598773       -16.2934
  41   2.0000      -0.560261       -15.2455
  42   2.0000      -0.549144       -14.9430
  43   2.0000      -0.541230       -14.7276
  44   2.0000      -0.536062       -14.5870
  45   2.0000      -0.532655       -14.4943
  46   2.0000      -0.517868       -14.0919
  47   2.0000      -0.506321       -13.7777
  48   2.0000      -0.506072       -13.7709
  49   2.0000      -0.499647       -13.5961
  50   2.0000      -0.486495       -13.2382
  51   2.0000      -0.478261       -13.0141
  52   2.0000      -0.471176       -12.8214
  53   2.0000      -0.463750       -12.6193
  54   2.0000      -0.462010       -12.5719
  55   2.0000      -0.442743       -12.0477
  56   2.0000      -0.436895       -11.8885
  57   2.0000      -0.432324       -11.7641
  58   2.0000      -0.429201       -11.6792
  59   2.0000      -0.418538       -11.3890
  60   2.0000      -0.415304       -11.3010
  61   2.0000      -0.408894       -11.1266
  62   2.0000      -0.401855       -10.9350
  63   2.0000      -0.347472        -9.4552
  64   2.0000      -0.335936        -9.1413
  65   2.0000      -0.326839        -8.8937
  66   2.0000      -0.296543        -8.0693
  67   0.0000       0.029129         0.7926
  68   0.0000       0.065398         1.7796
  69   0.0000       0.102096         2.7782
  70   0.0000       0.116076         3.1586
  71   0.0000       0.118724         3.2306

MULLIKEN ATOMIC CHARGES
-----------------------
   0 S :    0.096496
   1 C :   -0.086511
   2 C :   -0.049670
   3 C :    0.037653
   4 C :   -0.124981
   5 H :    0.014998
   6 C :   -0.030046
   7 H :    0.020876
   8 H :    0.042451
   9 C :   -0.046614
  10 H :    0.039227
  11 H :    0.045143
  12 C :   -0.103119
  13 H :    0.024902
  14 H :    0.028731
  15 H :    0.052560
  16 S :    0.113908
  17 C :   -0.093647
  18 C :   -0.060896
  19 C :   -0.000735
  20 C :   -0.165271
  21 H :    0.028003
  22 C :    0.084612
  23 H :    0.023668
  24 H :    0.011352
  25 C :   -0.115223
  26 H :    0.039574
  27 H :    0.050190
  28 C :   -0.056479
  29 H :    0.030615
  30 H :    0.023200
  31 H :    0.032904
  32 H :    0.023960
  33 H :    0.068167
Sum of atomic charges:    0.0000000

LOEWDIN ATOMIC CHARGES
----------------------
   0 S :    0.373616
   1 C :   -0.172016
   2 C :   -0.055541
   3 C :   -0.052969
   4 C :   -0.178646
   5 H :    0.031509
   6 C :   -0.048707
   7 H :    0.028372
   8 H :    0.041367
   9 C :   -0.038762
  10 H :    0.027094
  11 H :    0.030760
  12 C :   -0.087173
  13 H :    0.020566
  14 H :    0.023811
  15 H :    0.035988
  16 S :    0.423312
  17 C :   -0.197265
  18 C :   -0.067936
  19 C :   -0.057946
  20 C :   -0.199456
  21 H :    0.034772
  22 C :   -0.030069
  23 H :    0.027273
  24 H :    0.033031
  25 C :   -0.052820
  26 H :    0.034657
  27 H :    0.035925
  28 C :   -0.080195
  29 H :    0.026535
  30 H :    0.022499
  31 H :    0.023649
  32 H :    0.010431
  33 H :    0.034334

  Mayer bond orders larger than 0.100000
B(  0-S ,  1-C ) :   1.1126 B(  0-S ,  4-C ) :   1.1319 B(  1-C ,  2-C ) :   1.6037
B(  1-C , 32-H ) :   0.9860 B(  2-C ,  3-C ) :   1.2117 B(  2-C ,  6-C ) :   1.0195
B(  3-C ,  4-C ) :   1.6024 B(  3-C ,  5-H ) :   0.9986 B(  4-C , 20-C ) :   1.0213
B(  6-C ,  7-H ) :   0.9512 B(  6-C ,  8-H ) :   0.9532 B(  6-C ,  9-C ) :   1.0439
B(  9-C , 10-H ) :   0.9593 B(  9-C , 11-H ) :   0.9608 B(  9-C , 12-C ) :   1.0518
B( 12-C , 13-H ) :   0.9787 B( 12-C , 14-H ) :   0.9758 B( 12-C , 15-H ) :   0.9771
B( 16-S , 17-C ) :   1.1466 B( 16-S , 20-C ) :   1.1599 B( 17-C , 18-C ) :   1.6353
B( 17-C , 33-H ) :   0.9613 B( 18-C , 19-C ) :   1.2286 B( 18-C , 21-H ) :   0.9839
B( 19-C , 20-C ) :   1.6305 B( 19-C , 22-C ) :   1.0141 B( 22-C , 23-H ) :   0.9461
B( 22-C , 24-H ) :   0.9290 B( 22-C , 25-C ) :   1.0692 B( 25-C , 26-H ) :   0.9545
B( 25-C , 27-H ) :   0.9514 B( 25-C , 28-C ) :   1.0821 B( 28-C , 29-H ) :   0.9716
B( 28-C , 30-H ) :   0.9727 B( 28-C , 31-H ) :   0.9722

Dispersion correction           -0.015045871
FINAL SINGLE POINT ENERGY     -1339.841972101334

DIPOLE MOMENT
-------------
                                X             Y             Z
Electronic contribution:     12.82688     -23.10903      -9.49032
Nuclear contribution   :    -13.07481      23.28983      10.10113
                        -----------------------------------------
Total Dipole Moment    :     -0.24793       0.18080       0.61082
                        -----------------------------------------
Magnitude (a.u.)       :      0.68356
Magnitude (Debye)      :      1.73747

Rotational constants in cm-1:     0.018114     0.009633     0.007696
Rotational constants in MHz :   543.033253   288.784307   230.715743

                             ****ORCA TERMINATED NORMALLY****
TOTAL RUN TIME: 0 days 0 hours 0 minutes 22 seconds 314 msec
