                         Program Version 4.2.1 -  RELEASE  -
|  1> ! wB97X-D3 SP def2-SVP
|  2> %pal
|  3> nprocs 24
|  4> end
|  5>
|  6> * xyz 0 1
|  7> S 	 -100.741 	 45.8876 	 -84.415
|  8> C 	 -100.525 	 44.6663 	 -85.6155
|  9> C 	 -101.239 	 44.8658 	 -86.7597
| 10> C 	 -101.958 	 46.0611 	 -86.7076
| 11> C 	 -101.876 	 46.7599 	 -85.5508
| 12> H 	 -102.694 	 46.4758 	 -87.4236
| 13> C 	 -101.398 	 43.8737 	 -87.8838
| 14> H 	 -100.389 	 43.72 	 -88.3339
| 15> H 	 -102.044 	 44.2208 	 -88.5865
| 16> C 	 -101.879 	 42.4803 	 -87.402
| 17> H 	 -101.269 	 42.1746 	 -86.5461
| 18> H 	 -102.943 	 42.5567 	 -87.097
| 19> C 	 -101.829 	 41.4124 	 -88.5327
| 20> H 	 -100.796 	 41.3866 	 -88.941
| 21> H 	 -101.992 	 40.3768 	 -88.2762
| 22> H 	 -102.607 	 41.6431 	 -89.3076
| 23> S 	 -101.416 	 49.453 	 -85.1472
| 24> C 	 -102.779 	 50.5184 	 -84.8106
| 25> C 	 -103.962 	 49.783 	 -84.7819
| 26> C 	 -103.79 	 48.4019 	 -85.0749
| 27> C 	 -102.457 	 48.0725 	 -85.2784
| 28> H 	 -104.846 	 50.3547 	 -84.493
| 29> C 	 -104.998 	 47.4982 	 -85.0789
| 30> H 	 -104.665 	 46.5722 	 -85.3798
| 31> H 	 -105.689 	 47.7866 	 -85.8905
| 32> C 	 -105.813 	 47.241 	 -83.832
| 33> H 	 -106.813 	 47.0149 	 -84.0345
| 34> H 	 -105.82 	 48.1154 	 -83.1807
| 35> C 	 -105.541 	 45.8924 	 -83.0741
| 36> H 	 -105.781 	 44.9457 	 -83.5811
| 37> H 	 -106.15 	 46.0381 	 -82.2266
| 38> H 	 -104.461 	 45.8361 	 -82.8811
| 39> H 	 -100.087 	 43.7169 	 -85.3484
| 40> H 	 -102.778 	 51.4958 	 -84.3561
| 41> *
| 42>
| 43>                          ****END OF INPUT****

CARTESIAN COORDINATES (ANGSTROEM)
---------------------------------
  S    -100.741000   45.887600  -84.415000
  C    -100.525000   44.666300  -85.615500
  C    -101.239000   44.865800  -86.759700
  C    -101.958000   46.061100  -86.707600
  C    -101.876000   46.759900  -85.550800
  H    -102.694000   46.475800  -87.423600
  C    -101.398000   43.873700  -87.883800
  H    -100.389000   43.720000  -88.333900
  H    -102.044000   44.220800  -88.586500
  C    -101.879000   42.480300  -87.402000
  H    -101.269000   42.174600  -86.546100
  H    -102.943000   42.556700  -87.097000
  C    -101.829000   41.412400  -88.532700
  H    -100.796000   41.386600  -88.941000
  H    -101.992000   40.376800  -88.276200
  H    -102.607000   41.643100  -89.307600
  S    -101.416000   49.453000  -85.147200
  C    -102.779000   50.518400  -84.810600
  C    -103.962000   49.783000  -84.781900
  C    -103.790000   48.401900  -85.074900
  C    -102.457000   48.072500  -85.278400
  H    -104.846000   50.354700  -84.493000
  C    -104.998000   47.498200  -85.078900
  H    -104.665000   46.572200  -85.379800
  H    -105.689000   47.786600  -85.890500
  C    -105.813000   47.241000  -83.832000
  H    -106.813000   47.014900  -84.034500
  H    -105.820000   48.115400  -83.180700
  C    -105.541000   45.892400  -83.074100
  H    -105.781000   44.945700  -83.581100
  H    -106.150000   46.038100  -82.226600
  H    -104.461000   45.836100  -82.881100
  H    -100.087000   43.716900  -85.348400
  H    -102.778000   51.495800  -84.356100

 Total Charge           Charge          ....    0
 Multiplicity           Mult            ....    1
 Number of Electrons    NEL             ....  134
 Basis Dimension        Dim             ....  322

ORBITAL ENERGIES
----------------

  NO   OCC          E(Eh)            E(eV)
   0   2.0000     -88.966647     -2420.9056
   1   2.0000     -88.965969     -2420.8871
   2   2.0000     -10.329032      -281.0673
   3   2.0000     -10.326333      -280.9938
   4   2.0000     -10.315325      -280.6943
   5   2.0000     -10.311819      -280.5989
   6   2.0000     -10.303216      -280.3648
   7   2.0000     -10.296705      -280.1876
   8   2.0000     -10.293659      -280.1047
   9   2.0000     -10.292707      -280.0788
  10   2.0000     -10.292560      -280.0748
  11   2.0000     -10.289081      -279.9801
  12   2.0000     -10.285074      -279.8711
  13   2.0000     -10.280533      -279.7475
  14   2.0000     -10.279256      -279.7128
  15   2.0000     -10.273255      -279.5495
  16   2.0000      -8.081241      -219.9017
  17   2.0000      -8.080150      -219.8721
  18   2.0000      -6.039813      -164.3517
  19   2.0000      -6.038566      -164.3177
  20   2.0000      -6.035687      -164.2394
  21   2.0000      -6.034811      -164.2155
  22   2.0000      -6.032016      -164.1395
  23   2.0000      -6.030961      -164.1108
  24   2.0000      -1.007115       -27.4050
  25   2.0000      -0.986766       -26.8513
  26   2.0000      -0.910979       -24.7890
  27   2.0000      -0.909318       -24.7438
  28   2.0000      -0.870295       -23.6819
  29   2.0000      -0.852478       -23.1971
  30   2.0000      -0.848793       -23.0968
  31   2.0000      -0.816963       -22.2307
  32   2.0000      -0.783825       -21.3290
  33   2.0000      -0.771595       -20.9962
  34   2.0000      -0.709454       -19.3052
  35   2.0000      -0.701518       -19.0893
  36   2.0000      -0.695112       -18.9150
  37   2.0000      -0.655226       -17.8296
  38   2.0000      -0.646541       -17.5933
  39   2.0000      -0.617324       -16.7982
  40   2.0000      -0.597481       -16.2583
  41   2.0000      -0.580660       -15.8006
  42   2.0000      -0.561278       -15.2731
  43   2.0000      -0.557953       -15.1827
  44   2.0000      -0.532737       -14.4965
  45   2.0000      -0.523325       -14.2404
  46   2.0000      -0.517476       -14.0812
  47   2.0000      -0.512796       -13.9539
  48   2.0000      -0.506948       -13.7948
  49   2.0000      -0.500329       -13.6146
  50   2.0000      -0.488539       -13.2938
  51   2.0000      -0.482186       -13.1209
  52   2.0000      -0.474564       -12.9135
  53   2.0000      -0.467476       -12.7207
  54   2.0000      -0.458657       -12.4807
  55   2.0000      -0.448487       -12.2039
  56   2.0000      -0.442769       -12.0484
  57   2.0000      -0.433111       -11.7856
  58   2.0000      -0.431535       -11.7427
  59   2.0000      -0.429485       -11.6869
  60   2.0000      -0.425582       -11.5807
  61   2.0000      -0.421912       -11.4808
  62   2.0000      -0.394021       -10.7218
  63   2.0000      -0.345722        -9.4076
  64   2.0000      -0.330878        -9.0037
  65   2.0000      -0.326719        -8.8905
  66   2.0000      -0.301359        -8.2004
  67   0.0000       0.035326         0.9613
  68   0.0000       0.056785         1.5452
  69   0.0000       0.113325         3.0837
  70   0.0000       0.124309         3.3826
  71   0.0000       0.128566         3.4985

MULLIKEN ATOMIC CHARGES
-----------------------
   0 S :    0.106677
   1 C :   -0.129667
   2 C :   -0.063597
   3 C :    0.035612
   4 C :   -0.193774
   5 H :    0.026901
   6 C :    0.125285
   7 H :    0.038029
   8 H :   -0.007911
   9 C :   -0.102121
  10 H :    0.029912
  11 H :    0.037787
  12 C :   -0.064176
  13 H :    0.030339
  14 H :    0.032337
  15 H :    0.040766
  16 S :    0.121568
  17 C :   -0.098958
  18 C :   -0.059615
  19 C :   -0.019536
  20 C :   -0.177626
  21 H :    0.026793
  22 C :    0.135023
  23 H :   -0.023543
  24 H :    0.031727
  25 C :   -0.067394
  26 H :    0.009686
  27 H :    0.027265
  28 C :   -0.062272
  29 H :    0.039599
  30 H :    0.029336
  31 H :    0.036154
  32 H :    0.050163
  33 H :    0.059229
Sum of atomic charges:   -0.0000000

LOEWDIN ATOMIC CHARGES
----------------------
   0 S :    0.382042
   1 C :   -0.191031
   2 C :   -0.069965
   3 C :   -0.057745
   4 C :   -0.176619
   5 H :    0.041583
   6 C :   -0.019087
   7 H :    0.039120
   8 H :    0.013579
   9 C :   -0.037283
  10 H :    0.020145
  11 H :    0.027542
  12 C :   -0.074705
  13 H :    0.026360
  14 H :    0.023448
  15 H :    0.030785
  16 S :    0.414899
  17 C :   -0.191813
  18 C :   -0.069452
  19 C :   -0.054646
  20 C :   -0.208390
  21 H :    0.034281
  22 C :   -0.033491
  23 H :    0.016509
  24 H :    0.039889
  25 C :   -0.037134
  26 H :    0.020188
  27 H :    0.022701
  28 C :   -0.059424
  29 H :    0.026288
  30 H :    0.022064
  31 H :    0.023572
  32 H :    0.024047
  33 H :    0.031744

  Mayer bond orders larger than 0.100000
B(  0-S ,  1-C ) :   1.1530 B(  0-S ,  4-C ) :   1.1207 B(  1-C ,  2-C ) :   1.6124
B(  1-C , 32-H ) :   0.9616 B(  2-C ,  3-C ) :   1.2405 B(  2-C ,  6-C ) :   1.0209
B(  3-C ,  4-C ) :   1.6196 B(  3-C ,  5-H ) :   0.9843 B(  4-C , 20-C ) :   1.0248
B(  6-C ,  7-H ) :   0.9316 B(  6-C ,  8-H ) :   0.9412 B(  6-C ,  9-C ) :   1.0607
B(  9-C , 10-H ) :   0.9599 B(  9-C , 11-H ) :   0.9572 B(  9-C , 12-C ) :   1.0763
B( 12-C , 13-H ) :   0.9746 B( 12-C , 14-H ) :   0.9762 B( 12-C , 15-H ) :   0.9758
B( 16-S , 17-C ) :   1.1484 B( 16-S , 20-C ) :   1.1541 B( 17-C , 18-C ) :   1.6300
B( 17-C , 33-H ) :   0.9618 B( 18-C , 19-C ) :   1.2334 B( 18-C , 21-H ) :   0.9862
B( 19-C , 20-C ) :   1.5903 B( 19-C , 22-C ) :   1.0498 B( 22-C , 23-H ) :   0.9173
B( 22-C , 24-H ) :   0.9286 B( 22-C , 25-C ) :   1.0667 B( 25-C , 26-H ) :   0.9518
B( 25-C , 27-H ) :   0.9619 B( 25-C , 28-C ) :   1.0743 B( 28-C , 29-H ) :   0.9763
B( 28-C , 30-H ) :   0.9763 B( 28-C , 31-H ) :   0.9789

Dispersion correction           -0.013966398
FINAL SINGLE POINT ENERGY     -1339.862354971807

DIPOLE MOMENT
-------------
                                X             Y             Z
Electronic contribution:     16.19476      21.56074       6.21720
Nuclear contribution   :    -16.78047     -21.95230      -6.40063
                        -----------------------------------------
Total Dipole Moment    :     -0.58571      -0.39157      -0.18342
                        -----------------------------------------
Magnitude (a.u.)       :      0.72803
Magnitude (Debye)      :      1.85050

Rotational constants in cm-1:     0.019848     0.007860     0.006615
Rotational constants in MHz :   595.026606   235.634986   198.313242

                             ****ORCA TERMINATED NORMALLY****
TOTAL RUN TIME: 0 days 0 hours 0 minutes 21 seconds 266 msec
