                         Program Version 4.2.1 -  RELEASE  -
|  1> ! wB97X-D3 SP def2-SVP
|  2> %pal
|  3> nprocs 24
|  4> end
|  5>
|  6> * xyz 0 1
|  7> S 	 -67.6642 	 7.36985 	 17.1692
|  8> C 	 -67.2843 	 8.92247 	 17.8519
|  9> C 	 -67.0972 	 8.84667 	 19.2513
| 10> C 	 -67.5574 	 7.61415 	 19.7248
| 11> C 	 -68.056 	 6.74791 	 18.7261
| 12> H 	 -67.5935 	 7.2601 	 20.7529
| 13> C 	 -66.5359 	 9.89417 	 20.1756
| 14> H 	 -66.7116 	 9.56357 	 21.2038
| 15> H 	 -67.2273 	 10.7494 	 20.0506
| 16> C 	 -65.1186 	 10.2937 	 19.9618
| 17> H 	 -64.607 	 9.38657 	 19.8397
| 18> H 	 -65.0788 	 10.9145 	 19.0269
| 19> C 	 -64.5166 	 11.26 	 21.0026
| 20> H 	 -63.5499 	 11.6195 	 20.6043
| 21> H 	 -65.1683 	 12.03 	 21.2776
| 22> H 	 -64.213 	 10.8223 	 21.9968
| 23> S 	 -70.1382 	 5.26109 	 19.7174
| 24> C 	 -70.1585 	 3.4814 	 19.4589
| 25> C 	 -68.9978 	 3.08505 	 18.8371
| 26> C 	 -68.0667 	 4.15247 	 18.5546
| 27> C 	 -68.6077 	 5.39213 	 18.9316
| 28> H 	 -68.7858 	 2.02254 	 18.51
| 29> C 	 -66.7304 	 4.01097 	 17.8037
| 30> H 	 -66.722 	 4.76705 	 17.0844
| 31> H 	 -66.6795 	 3.05397 	 17.2576
| 32> C 	 -65.4855 	 4.0984 	 18.804
| 33> H 	 -65.4057 	 3.17461 	 19.3507
| 34> H 	 -65.7278 	 4.91679 	 19.557
| 35> C 	 -64.213 	 4.34435 	 18.0105
| 36> H 	 -63.979 	 3.60362 	 17.2071
| 37> H 	 -63.3096 	 4.54024 	 18.7131
| 38> H 	 -64.2861 	 5.30268 	 17.5137
| 39> H 	 -66.9524 	 9.83447 	 17.3165
| 40> H 	 -70.9745 	 2.81551 	 19.7061
| 41> *
| 42>
| 43>                          ****END OF INPUT****

CARTESIAN COORDINATES (ANGSTROEM)
---------------------------------
  S    -67.664200    7.369850   17.169200
  C    -67.284300    8.922470   17.851900
  C    -67.097200    8.846670   19.251300
  C    -67.557400    7.614150   19.724800
  C    -68.056000    6.747910   18.726100
  H    -67.593500    7.260100   20.752900
  C    -66.535900    9.894170   20.175600
  H    -66.711600    9.563570   21.203800
  H    -67.227300   10.749400   20.050600
  C    -65.118600   10.293700   19.961800
  H    -64.607000    9.386570   19.839700
  H    -65.078800   10.914500   19.026900
  C    -64.516600   11.260000   21.002600
  H    -63.549900   11.619500   20.604300
  H    -65.168300   12.030000   21.277600
  H    -64.213000   10.822300   21.996800
  S    -70.138200    5.261090   19.717400
  C    -70.158500    3.481400   19.458900
  C    -68.997800    3.085050   18.837100
  C    -68.066700    4.152470   18.554600
  C    -68.607700    5.392130   18.931600
  H    -68.785800    2.022540   18.510000
  C    -66.730400    4.010970   17.803700
  H    -66.722000    4.767050   17.084400
  H    -66.679500    3.053970   17.257600
  C    -65.485500    4.098400   18.804000
  H    -65.405700    3.174610   19.350700
  H    -65.727800    4.916790   19.557000
  C    -64.213000    4.344350   18.010500
  H    -63.979000    3.603620   17.207100
  H    -63.309600    4.540240   18.713100
  H    -64.286100    5.302680   17.513700
  H    -66.952400    9.834470   17.316500
  H    -70.974500    2.815510   19.706100

 Total Charge           Charge          ....    0
 Multiplicity           Mult            ....    1
 Number of Electrons    NEL             ....  134
 Basis Dimension        Dim             ....  322

ORBITAL ENERGIES
----------------

  NO   OCC          E(Eh)            E(eV)
   0   2.0000     -88.973754     -2421.0989
   1   2.0000     -88.966735     -2420.9079
   2   2.0000     -10.328640      -281.0566
   3   2.0000     -10.325944      -280.9832
   4   2.0000     -10.319508      -280.8081
   5   2.0000     -10.317614      -280.7566
   6   2.0000     -10.303757      -280.3795
   7   2.0000     -10.301330      -280.3134
   8   2.0000     -10.300206      -280.2828
   9   2.0000     -10.293806      -280.1087
  10   2.0000     -10.291550      -280.0473
  11   2.0000     -10.290543      -280.0199
  12   2.0000     -10.290116      -280.0083
  13   2.0000     -10.286440      -279.9083
  14   2.0000     -10.282890      -279.8117
  15   2.0000     -10.282109      -279.7904
  16   2.0000      -8.088146      -220.0896
  17   2.0000      -8.080952      -219.8939
  18   2.0000      -6.046498      -164.5336
  19   2.0000      -6.042719      -164.4307
  20   2.0000      -6.039544      -164.3443
  21   2.0000      -6.039103      -164.3323
  22   2.0000      -6.035514      -164.2347
  23   2.0000      -6.031665      -164.1300
  24   2.0000      -1.006612       -27.3913
  25   2.0000      -0.982208       -26.7272
  26   2.0000      -0.918900       -25.0045
  27   2.0000      -0.898921       -24.4609
  28   2.0000      -0.865511       -23.5517
  29   2.0000      -0.854394       -23.2492
  30   2.0000      -0.842689       -22.9307
  31   2.0000      -0.810781       -22.0625
  32   2.0000      -0.783715       -21.3260
  33   2.0000      -0.764969       -20.8159
  34   2.0000      -0.706958       -19.2373
  35   2.0000      -0.699025       -19.0214
  36   2.0000      -0.690709       -18.7952
  37   2.0000      -0.658901       -17.9296
  38   2.0000      -0.638164       -17.3653
  39   2.0000      -0.613800       -16.7023
  40   2.0000      -0.589941       -16.0531
  41   2.0000      -0.571366       -15.5477
  42   2.0000      -0.565321       -15.3832
  43   2.0000      -0.559613       -15.2279
  44   2.0000      -0.530700       -14.4411
  45   2.0000      -0.524036       -14.2598
  46   2.0000      -0.512082       -13.9345
  47   2.0000      -0.508011       -13.8237
  48   2.0000      -0.505571       -13.7573
  49   2.0000      -0.492498       -13.4016
  50   2.0000      -0.487687       -13.2706
  51   2.0000      -0.478733       -13.0270
  52   2.0000      -0.469009       -12.7624
  53   2.0000      -0.465656       -12.6711
  54   2.0000      -0.460572       -12.5328
  55   2.0000      -0.450236       -12.2515
  56   2.0000      -0.443966       -12.0809
  57   2.0000      -0.438823       -11.9410
  58   2.0000      -0.432153       -11.7595
  59   2.0000      -0.429886       -11.6978
  60   2.0000      -0.420775       -11.4499
  61   2.0000      -0.413793       -11.2599
  62   2.0000      -0.412149       -11.2151
  63   2.0000      -0.339452        -9.2370
  64   2.0000      -0.335072        -9.1178
  65   2.0000      -0.325278        -8.8513
  66   2.0000      -0.293135        -7.9766
  67   0.0000       0.031503         0.8572
  68   0.0000       0.057764         1.5718
  69   0.0000       0.105719         2.8768
  70   0.0000       0.116571         3.1721
  71   0.0000       0.130223         3.5436

MULLIKEN ATOMIC CHARGES
-----------------------
   0 S :    0.135863
   1 C :   -0.124880
   2 C :   -0.097648
   3 C :    0.026071
   4 C :   -0.178449
   5 H :    0.014467
   6 C :    0.074012
   7 H :    0.015680
   8 H :    0.033071
   9 C :   -0.063881
  10 H :    0.027214
  11 H :    0.032375
  12 C :   -0.041687
  13 H :    0.038506
  14 H :    0.023100
  15 H :    0.028852
  16 S :    0.114570
  17 C :   -0.101835
  18 C :   -0.039322
  19 C :   -0.053354
  20 C :   -0.178360
  21 H :    0.038680
  22 C :    0.094822
  23 H :    0.001755
  24 H :    0.021531
  25 C :   -0.077818
  26 H :    0.030164
  27 H :    0.048969
  28 C :   -0.070394
  29 H :    0.043581
  30 H :    0.043073
  31 H :    0.026587
  32 H :    0.055387
  33 H :    0.059298
Sum of atomic charges:    0.0000000

LOEWDIN ATOMIC CHARGES
----------------------
   0 S :    0.445318
   1 C :   -0.212976
   2 C :   -0.063396
   3 C :   -0.064140
   4 C :   -0.210932
   5 H :    0.031620
   6 C :   -0.037585
   7 H :    0.028962
   8 H :    0.036526
   9 C :   -0.039673
  10 H :    0.020476
  11 H :    0.031372
  12 C :   -0.064890
  13 H :    0.031794
  14 H :    0.017512
  15 H :    0.027833
  16 S :    0.404636
  17 C :   -0.180708
  18 C :   -0.073896
  19 C :   -0.060497
  20 C :   -0.211232
  21 H :    0.041141
  22 C :   -0.024917
  23 H :    0.008429
  24 H :    0.030757
  25 C :   -0.037830
  26 H :    0.020357
  27 H :    0.034057
  28 C :   -0.080126
  29 H :    0.029683
  30 H :    0.035569
  31 H :    0.022376
  32 H :    0.033123
  33 H :    0.031256

  Mayer bond orders larger than 0.100000
B(  0-S ,  1-C ) :   1.1656 B(  0-S ,  4-C ) :   1.1821 B(  1-C ,  2-C ) :   1.5501
B(  1-C ,  4-C ) :   0.1111 B(  1-C , 32-H ) :   0.9653 B(  2-C ,  3-C ) :   1.2934
B(  2-C ,  6-C ) :   1.0206 B(  3-C ,  4-C ) :   1.5225 B(  3-C ,  5-H ) :   0.9945
B(  4-C , 20-C ) :   1.0146 B(  6-C ,  7-H ) :   0.9436 B(  6-C ,  8-H ) :   0.9258
B(  6-C ,  9-C ) :   1.0672 B(  9-C , 10-H ) :   0.9599 B(  9-C , 11-H ) :   0.9514
B(  9-C , 12-C ) :   1.0809 B( 12-C , 13-H ) :   0.9760 B( 12-C , 14-H ) :   0.9736
B( 12-C , 15-H ) :   0.9736 B( 16-S , 17-C ) :   1.1330 B( 16-S , 20-C ) :   1.1603
B( 17-C , 18-C ) :   1.6171 B( 17-C , 33-H ) :   0.9701 B( 18-C , 19-C ) :   1.2558
B( 18-C , 21-H ) :   0.9733 B( 19-C , 20-C ) :   1.5796 B( 19-C , 22-C ) :   1.0377
B( 22-C , 23-H ) :   0.9396 B( 22-C , 24-H ) :   0.9342 B( 22-C , 25-C ) :   1.0406
B( 25-C , 26-H ) :   0.9565 B( 25-C , 27-H ) :   0.9609 B( 25-C , 28-C ) :   1.0777
B( 28-C , 29-H ) :   0.9718 B( 28-C , 30-H ) :   0.9715 B( 28-C , 31-H ) :   0.9744

Dispersion correction           -0.014598782
FINAL SINGLE POINT ENERGY     -1339.875580230719

DIPOLE MOMENT
-------------
                                X             Y             Z
Electronic contribution:    -24.73409      -7.97007      -5.76212
Nuclear contribution   :     25.20900       8.04498       5.87268
                        -----------------------------------------
Total Dipole Moment    :      0.47491       0.07490       0.11056
                        -----------------------------------------
Magnitude (a.u.)       :      0.49333
Magnitude (Debye)      :      1.25395

Rotational constants in cm-1:     0.019901     0.008052     0.006851
Rotational constants in MHz :   596.606909   241.384881   205.387144

                             ****ORCA TERMINATED NORMALLY****
TOTAL RUN TIME: 0 days 0 hours 0 minutes 21 seconds 498 msec
