                         Program Version 4.2.1 -  RELEASE  -
|  1> ! wB97X-D3 SP def2-SVP
|  2> %pal
|  3> nprocs 24
|  4> end
|  5>
|  6> * xyz 0 1
|  7> S 	 41.9282 	 -18.1495 	 -111.388
|  8> C 	 42.87 	 -16.9472 	 -110.557
|  9> C 	 44.1383 	 -17.4459 	 -110.425
| 10> C 	 44.3471 	 -18.7476 	 -110.925
| 11> C 	 43.292 	 -19.247 	 -111.611
| 12> H 	 45.2857 	 -19.2954 	 -110.932
| 13> C 	 45.1979 	 -16.7582 	 -109.638
| 14> H 	 45.0113 	 -15.6072 	 -109.869
| 15> H 	 46.1527 	 -17.0021 	 -110.08
| 16> C 	 45.2559 	 -17.1307 	 -108.149
| 17> H 	 45.9912 	 -17.8902 	 -107.973
| 18> H 	 45.6403 	 -16.2519 	 -107.62
| 19> C 	 43.9477 	 -17.2723 	 -107.469
| 20> H 	 44.235 	 -17.5454 	 -106.44
| 21> H 	 43.2706 	 -16.4275 	 -107.483
| 22> H 	 43.2767 	 -18.0389 	 -107.757
| 23> S 	 42.6837 	 -20.6112 	 -113.957
| 24> C 	 42.8549 	 -22.3513 	 -113.964
| 25> C 	 43.1793 	 -22.8352 	 -112.741
| 26> C 	 43.3472 	 -21.8332 	 -111.772
| 27> C 	 43.1207 	 -20.5354 	 -112.268
| 28> H 	 43.4033 	 -23.8554 	 -112.632
| 29> C 	 43.7948 	 -22.2218 	 -110.329
| 30> H 	 43.1385 	 -22.9959 	 -109.967
| 31> H 	 43.6869 	 -21.3095 	 -109.674
| 32> C 	 45.2047 	 -22.6734 	 -110.204
| 33> H 	 45.7611 	 -21.8296 	 -110.614
| 34> H 	 45.3187 	 -23.4618 	 -110.968
| 35> C 	 45.4403 	 -23.2685 	 -108.813
| 36> H 	 45.5723 	 -22.4672 	 -108.099
| 37> H 	 46.373 	 -23.8497 	 -108.915
| 38> H 	 44.6755 	 -23.9841 	 -108.546
| 39> H 	 42.4597 	 -16.0017 	 -110.103
| 40> H 	 42.7589 	 -23.128 	 -114.731
| 41> *
| 42>
| 43>                          ****END OF INPUT****

CARTESIAN COORDINATES (ANGSTROEM)
---------------------------------
  S     41.928200  -18.149500  -111.388000
  C     42.870000  -16.947200  -110.557000
  C     44.138300  -17.445900  -110.425000
  C     44.347100  -18.747600  -110.925000
  C     43.292000  -19.247000  -111.611000
  H     45.285700  -19.295400  -110.932000
  C     45.197900  -16.758200  -109.638000
  H     45.011300  -15.607200  -109.869000
  H     46.152700  -17.002100  -110.080000
  C     45.255900  -17.130700  -108.149000
  H     45.991200  -17.890200  -107.973000
  H     45.640300  -16.251900  -107.620000
  C     43.947700  -17.272300  -107.469000
  H     44.235000  -17.545400  -106.440000
  H     43.270600  -16.427500  -107.483000
  H     43.276700  -18.038900  -107.757000
  S     42.683700  -20.611200  -113.957000
  C     42.854900  -22.351300  -113.964000
  C     43.179300  -22.835200  -112.741000
  C     43.347200  -21.833200  -111.772000
  C     43.120700  -20.535400  -112.268000
  H     43.403300  -23.855400  -112.632000
  C     43.794800  -22.221800  -110.329000
  H     43.138500  -22.995900  -109.967000
  H     43.686900  -21.309500  -109.674000
  C     45.204700  -22.673400  -110.204000
  H     45.761100  -21.829600  -110.614000
  H     45.318700  -23.461800  -110.968000
  C     45.440300  -23.268500  -108.813000
  H     45.572300  -22.467200  -108.099000
  H     46.373000  -23.849700  -108.915000
  H     44.675500  -23.984100  -108.546000
  H     42.459700  -16.001700  -110.103000
  H     42.758900  -23.128000  -114.731000

 Total Charge           Charge          ....    0
 Multiplicity           Mult            ....    1
 Number of Electrons    NEL             ....  134
 Basis Dimension        Dim             ....  322

ORBITAL ENERGIES
----------------

  NO   OCC          E(Eh)            E(eV)
   0   2.0000     -88.970119     -2421.0000
   1   2.0000     -88.960138     -2420.7284
   2   2.0000     -10.328431      -281.0509
   3   2.0000     -10.327984      -281.0387
   4   2.0000     -10.315945      -280.7111
   5   2.0000     -10.315709      -280.7047
   6   2.0000     -10.303519      -280.3730
   7   2.0000     -10.292803      -280.0814
   8   2.0000     -10.292607      -280.0761
   9   2.0000     -10.290145      -280.0091
  10   2.0000     -10.287862      -279.9470
  11   2.0000     -10.283993      -279.8417
  12   2.0000     -10.283979      -279.8413
  13   2.0000     -10.283602      -279.8310
  14   2.0000     -10.282607      -279.8040
  15   2.0000     -10.269700      -279.4527
  16   2.0000      -8.084552      -219.9919
  17   2.0000      -8.075157      -219.7362
  18   2.0000      -6.043118      -164.4416
  19   2.0000      -6.039083      -164.3318
  20   2.0000      -6.035273      -164.2281
  21   2.0000      -6.033675      -164.1847
  22   2.0000      -6.029510      -164.0713
  23   2.0000      -6.025981      -163.9753
  24   2.0000      -1.010255       -27.4904
  25   2.0000      -0.990300       -26.9474
  26   2.0000      -0.916871       -24.9493
  27   2.0000      -0.915659       -24.9163
  28   2.0000      -0.874234       -23.7891
  29   2.0000      -0.851657       -23.1748
  30   2.0000      -0.848470       -23.0880
  31   2.0000      -0.820275       -22.3208
  32   2.0000      -0.783511       -21.3204
  33   2.0000      -0.772399       -21.0181
  34   2.0000      -0.711739       -19.3674
  35   2.0000      -0.696904       -18.9637
  36   2.0000      -0.692001       -18.8303
  37   2.0000      -0.659967       -17.9586
  38   2.0000      -0.640732       -17.4352
  39   2.0000      -0.620433       -16.8828
  40   2.0000      -0.593201       -16.1418
  41   2.0000      -0.574233       -15.6257
  42   2.0000      -0.565102       -15.3772
  43   2.0000      -0.558841       -15.2068
  44   2.0000      -0.550622       -14.9832
  45   2.0000      -0.522500       -14.2180
  46   2.0000      -0.518255       -14.1024
  47   2.0000      -0.513715       -13.9789
  48   2.0000      -0.507755       -13.8167
  49   2.0000      -0.506594       -13.7851
  50   2.0000      -0.496009       -13.4971
  51   2.0000      -0.480339       -13.0707
  52   2.0000      -0.472915       -12.8687
  53   2.0000      -0.465921       -12.6784
  54   2.0000      -0.455871       -12.4049
  55   2.0000      -0.451500       -12.2859
  56   2.0000      -0.447890       -12.1877
  57   2.0000      -0.436100       -11.8669
  58   2.0000      -0.429238       -11.6802
  59   2.0000      -0.419489       -11.4149
  60   2.0000      -0.415038       -11.2938
  61   2.0000      -0.411146       -11.1879
  62   2.0000      -0.402353       -10.9486
  63   2.0000      -0.347379        -9.4527
  64   2.0000      -0.333521        -9.0756
  65   2.0000      -0.328285        -8.9331
  66   2.0000      -0.298043        -8.1102
  67   0.0000       0.034746         0.9455
  68   0.0000       0.066545         1.8108
  69   0.0000       0.120528         3.2797
  70   0.0000       0.124326         3.3831
  71   0.0000       0.127302         3.4641

MULLIKEN ATOMIC CHARGES
-----------------------
   0 S :    0.095254
   1 C :   -0.144531
   2 C :   -0.096460
   3 C :    0.021592
   4 C :   -0.135745
   5 H :    0.011816
   6 C :    0.035057
   7 H :    0.040775
   8 H :    0.016399
   9 C :   -0.035418
  10 H :    0.026916
  11 H :    0.027861
  12 C :   -0.038169
  13 H :    0.028362
  14 H :    0.021404
  15 H :    0.025964
  16 S :    0.130798
  17 C :   -0.073900
  18 C :   -0.040140
  19 C :   -0.015836
  20 C :   -0.179637
  21 H :    0.002541
  22 C :    0.048493
  23 H :    0.017195
  24 H :    0.032158
  25 C :   -0.091884
  26 H :    0.023999
  27 H :    0.013434
  28 C :   -0.005575
  29 H :    0.039974
  30 H :    0.036326
  31 H :    0.033844
  32 H :    0.074048
  33 H :    0.053087
Sum of atomic charges:    0.0000000

LOEWDIN ATOMIC CHARGES
----------------------
   0 S :    0.400103
   1 C :   -0.206731
   2 C :   -0.077039
   3 C :   -0.066620
   4 C :   -0.183799
   5 H :    0.033120
   6 C :   -0.041011
   7 H :    0.041359
   8 H :    0.025581
   9 C :   -0.043470
  10 H :    0.023854
  11 H :    0.035094
  12 C :   -0.067970
  13 H :    0.032754
  14 H :    0.024042
  15 H :    0.017717
  16 S :    0.419549
  17 C :   -0.187903
  18 C :   -0.073212
  19 C :   -0.048573
  20 C :   -0.211613
  21 H :    0.024518
  22 C :   -0.032779
  23 H :    0.023017
  24 H :    0.031276
  25 C :   -0.048785
  26 H :    0.024136
  27 H :    0.019520
  28 C :   -0.056489
  29 H :    0.026881
  30 H :    0.031884
  31 H :    0.027989
  32 H :    0.044354
  33 H :    0.039246

  Mayer bond orders larger than 0.100000
B(  0-S ,  1-C ) :   1.1363 B(  0-S ,  4-C ) :   1.1576 B(  1-C ,  2-C ) :   1.5859
B(  1-C , 32-H ) :   0.9669 B(  2-C ,  3-C ) :   1.2378 B(  2-C ,  6-C ) :   1.0384
B(  3-C ,  4-C ) :   1.5804 B(  3-C ,  5-H ) :   1.0023 B(  4-C , 20-C ) :   1.0209
B(  6-C ,  7-H ) :   0.9431 B(  6-C ,  8-H ) :   0.9382 B(  6-C ,  9-C ) :   1.0651
B(  9-C , 10-H ) :   0.9556 B(  9-C , 11-H ) :   0.9504 B(  9-C , 12-C ) :   1.0869
B( 12-C , 13-H ) :   0.9693 B( 12-C , 14-H ) :   0.9727 B( 12-C , 15-H ) :   0.9646
B( 16-S , 17-C ) :   1.1496 B( 16-S , 20-C ) :   1.1451 B( 17-C , 18-C ) :   1.6283
B( 17-C , 33-H ) :   0.9581 B( 18-C , 19-C ) :   1.2542 B( 18-C , 21-H ) :   0.9916
B( 19-C , 20-C ) :   1.5808 B( 19-C , 22-C ) :   1.0346 B( 22-C , 23-H ) :   0.9355
B( 22-C , 24-H ) :   0.9342 B( 22-C , 25-C ) :   1.0676 B( 25-C , 26-H ) :   0.9513
B( 25-C , 27-H ) :   0.9549 B( 25-C , 28-C ) :   1.0683 B( 28-C , 29-H ) :   0.9760
B( 28-C , 30-H ) :   0.9741 B( 28-C , 31-H ) :   0.9704

Dispersion correction           -0.014925783
FINAL SINGLE POINT ENERGY     -1339.868120672197

DIPOLE MOMENT
-------------
                                X             Y             Z
Electronic contribution:    -15.60322       3.77579     -24.91302
Nuclear contribution   :     16.11972      -4.11668      25.43947
                        -----------------------------------------
Total Dipole Moment    :      0.51650      -0.34088       0.52645
                        -----------------------------------------
Magnitude (a.u.)       :      0.81248
Magnitude (Debye)      :      2.06515

Rotational constants in cm-1:     0.017823     0.009883     0.006965
Rotational constants in MHz :   534.310862   296.283045   208.802020

                             ****ORCA TERMINATED NORMALLY****
TOTAL RUN TIME: 0 days 0 hours 0 minutes 22 seconds 339 msec
