                         Program Version 4.2.1 -  RELEASE  -
|  1> ! wB97X-D3 SP def2-SVP
|  2> %pal
|  3> nprocs 24
|  4> end
|  5>
|  6> * xyz 0 1
|  7> S 	 -68.7464 	 19.9554 	 -77.0173
|  8> C 	 -69.1134 	 20.956 	 -75.7086
|  9> C 	 -68.5051 	 20.49 	 -74.526
| 10> C 	 -67.7938 	 19.2643 	 -74.7211
| 11> C 	 -67.8294 	 18.8625 	 -76.0992
| 12> H 	 -67.213 	 18.6125 	 -74.0819
| 13> C 	 -68.6077 	 21.2221 	 -73.1947
| 14> H 	 -69.666 	 21.3702 	 -72.9892
| 15> H 	 -68.2085 	 22.2453 	 -73.3159
| 16> C 	 -67.8177 	 20.6859 	 -71.9991
| 17> H 	 -68.2207 	 19.6938 	 -71.733
| 18> H 	 -66.7761 	 20.4573 	 -72.2695
| 19> C 	 -67.6392 	 21.6817 	 -70.7854
| 20> H 	 -66.7394 	 22.2939 	 -70.8334
| 21> H 	 -68.4266 	 22.427 	 -70.6286
| 22> H 	 -67.6628 	 21.1075 	 -69.8784
| 23> S 	 -67.9591 	 16.0875 	 -76.4533
| 24> C 	 -66.7108 	 15.2939 	 -77.3221
| 25> C 	 -65.8892 	 16.1498 	 -78.0135
| 26> C 	 -66.2417 	 17.5333 	 -77.7236
| 27> C 	 -67.2826 	 17.6849 	 -76.7717
| 28> H 	 -65.0536 	 15.8042 	 -78.6214
| 29> C 	 -65.5101 	 18.6596 	 -78.3757
| 30> H 	 -65.8984 	 19.7132 	 -78.3873
| 31> H 	 -65.5443 	 18.34 	 -79.4177
| 32> C 	 -64.0733 	 18.9361 	 -78.0203
| 33> H 	 -63.6144 	 19.5097 	 -78.786
| 34> H 	 -63.4579 	 17.9345 	 -78.1313
| 35> C 	 -63.8682 	 19.6328 	 -76.6949
| 36> H 	 -64.4634 	 19.2189 	 -75.887
| 37> H 	 -64.0661 	 20.7184 	 -76.7604
| 38> H 	 -62.7735 	 19.4691 	 -76.4496
| 39> H 	 -69.8669 	 21.6817 	 -75.7278
| 40> H 	 -66.6747 	 14.2198 	 -77.3914
| 41> *
| 42>
| 43>                          ****END OF INPUT****

CARTESIAN COORDINATES (ANGSTROEM)
---------------------------------
  S    -68.746400   19.955400  -77.017300
  C    -69.113400   20.956000  -75.708600
  C    -68.505100   20.490000  -74.526000
  C    -67.793800   19.264300  -74.721100
  C    -67.829400   18.862500  -76.099200
  H    -67.213000   18.612500  -74.081900
  C    -68.607700   21.222100  -73.194700
  H    -69.666000   21.370200  -72.989200
  H    -68.208500   22.245300  -73.315900
  C    -67.817700   20.685900  -71.999100
  H    -68.220700   19.693800  -71.733000
  H    -66.776100   20.457300  -72.269500
  C    -67.639200   21.681700  -70.785400
  H    -66.739400   22.293900  -70.833400
  H    -68.426600   22.427000  -70.628600
  H    -67.662800   21.107500  -69.878400
  S    -67.959100   16.087500  -76.453300
  C    -66.710800   15.293900  -77.322100
  C    -65.889200   16.149800  -78.013500
  C    -66.241700   17.533300  -77.723600
  C    -67.282600   17.684900  -76.771700
  H    -65.053600   15.804200  -78.621400
  C    -65.510100   18.659600  -78.375700
  H    -65.898400   19.713200  -78.387300
  H    -65.544300   18.340000  -79.417700
  C    -64.073300   18.936100  -78.020300
  H    -63.614400   19.509700  -78.786000
  H    -63.457900   17.934500  -78.131300
  C    -63.868200   19.632800  -76.694900
  H    -64.463400   19.218900  -75.887000
  H    -64.066100   20.718400  -76.760400
  H    -62.773500   19.469100  -76.449600
  H    -69.866900   21.681700  -75.727800
  H    -66.674700   14.219800  -77.391400

 Total Charge           Charge          ....    0
 Multiplicity           Mult            ....    1
 Number of Electrons    NEL             ....  134
 Basis Dimension        Dim             ....  322

ORBITAL ENERGIES
----------------

  NO   OCC          E(Eh)            E(eV)
   0   2.0000     -88.967220     -2420.9211
   1   2.0000     -88.963004     -2420.8064
   2   2.0000     -10.327930      -281.0373
   3   2.0000     -10.327703      -281.0311
   4   2.0000     -10.315645      -280.7030
   5   2.0000     -10.309478      -280.5352
   6   2.0000     -10.306846      -280.4635
   7   2.0000     -10.306088      -280.4429
   8   2.0000     -10.300551      -280.2922
   9   2.0000     -10.297262      -280.2028
  10   2.0000     -10.292702      -280.0787
  11   2.0000     -10.292441      -280.0716
  12   2.0000     -10.286033      -279.8972
  13   2.0000     -10.284546      -279.8567
  14   2.0000     -10.281061      -279.7619
  15   2.0000     -10.276089      -279.6266
  16   2.0000      -8.083421      -219.9611
  17   2.0000      -8.078238      -219.8200
  18   2.0000      -6.041530      -164.3984
  19   2.0000      -6.037300      -164.2833
  20   2.0000      -6.036681      -164.2664
  21   2.0000      -6.034946      -164.2192
  22   2.0000      -6.032610      -164.1557
  23   2.0000      -6.029111      -164.0605
  24   2.0000      -1.008485       -27.4423
  25   2.0000      -0.986641       -26.8479
  26   2.0000      -0.911508       -24.8034
  27   2.0000      -0.907290       -24.6886
  28   2.0000      -0.867986       -23.6191
  29   2.0000      -0.848333       -23.0843
  30   2.0000      -0.845048       -22.9949
  31   2.0000      -0.813795       -22.1445
  32   2.0000      -0.784279       -21.3413
  33   2.0000      -0.771095       -20.9825
  34   2.0000      -0.712899       -19.3990
  35   2.0000      -0.694089       -18.8871
  36   2.0000      -0.682606       -18.5747
  37   2.0000      -0.658312       -17.9136
  38   2.0000      -0.644660       -17.5421
  39   2.0000      -0.613964       -16.7068
  40   2.0000      -0.599969       -16.3260
  41   2.0000      -0.571000       -15.5377
  42   2.0000      -0.563148       -15.3240
  43   2.0000      -0.553029       -15.0487
  44   2.0000      -0.538563       -14.6550
  45   2.0000      -0.523202       -14.2370
  46   2.0000      -0.511584       -13.9209
  47   2.0000      -0.510648       -13.8955
  48   2.0000      -0.498665       -13.5694
  49   2.0000      -0.498356       -13.5610
  50   2.0000      -0.492790       -13.4095
  51   2.0000      -0.481887       -13.1128
  52   2.0000      -0.473794       -12.8926
  53   2.0000      -0.469456       -12.7745
  54   2.0000      -0.460693       -12.5361
  55   2.0000      -0.448148       -12.1947
  56   2.0000      -0.444494       -12.0953
  57   2.0000      -0.432844       -11.7783
  58   2.0000      -0.430319       -11.7096
  59   2.0000      -0.427669       -11.6375
  60   2.0000      -0.413529       -11.2527
  61   2.0000      -0.410917       -11.1816
  62   2.0000      -0.401637       -10.9291
  63   2.0000      -0.334536        -9.1032
  64   2.0000      -0.332793        -9.0558
  65   2.0000      -0.324216        -8.8224
  66   2.0000      -0.296022        -8.0552
  67   0.0000       0.037741         1.0270
  68   0.0000       0.062208         1.6928
  69   0.0000       0.112758         3.0683
  70   0.0000       0.119093         3.2407
  71   0.0000       0.140517         3.8237

MULLIKEN ATOMIC CHARGES
-----------------------
   0 S :    0.150228
   1 C :   -0.102628
   2 C :   -0.090231
   3 C :    0.042431
   4 C :   -0.206512
   5 H :    0.013105
   6 C :    0.058245
   7 H :    0.036010
   8 H :    0.035107
   9 C :   -0.100992
  10 H :    0.034261
  11 H :    0.035515
  12 C :   -0.043076
  13 H :    0.040029
  14 H :    0.024114
  15 H :    0.031662
  16 S :    0.114938
  17 C :   -0.089551
  18 C :   -0.030137
  19 C :   -0.003893
  20 C :   -0.166426
  21 H :    0.029760
  22 C :    0.034925
  23 H :    0.028124
  24 H :    0.025266
  25 C :   -0.089187
  26 H :    0.018024
  27 H :    0.019290
  28 C :   -0.051891
  29 H :    0.037977
  30 H :    0.039667
  31 H :    0.039635
  32 H :    0.029952
  33 H :    0.056258
Sum of atomic charges:   -0.0000000

LOEWDIN ATOMIC CHARGES
----------------------
   0 S :    0.481154
   1 C :   -0.220212
   2 C :   -0.058362
   3 C :   -0.063725
   4 C :   -0.222145
   5 H :    0.033020
   6 C :   -0.040202
   7 H :    0.032655
   8 H :    0.036217
   9 C :   -0.045305
  10 H :    0.023316
  11 H :    0.028417
  12 C :   -0.067209
  13 H :    0.027689
  14 H :    0.023981
  15 H :    0.027932
  16 S :    0.414022
  17 C :   -0.187064
  18 C :   -0.074256
  19 C :   -0.046858
  20 C :   -0.215459
  21 H :    0.036214
  22 C :   -0.050429
  23 H :    0.033967
  24 H :    0.036215
  25 C :   -0.049259
  26 H :    0.019157
  27 H :    0.023169
  28 C :   -0.069396
  29 H :    0.024528
  30 H :    0.028466
  31 H :    0.035534
  32 H :    0.017309
  33 H :    0.026919

  Mayer bond orders larger than 0.100000
B(  0-S ,  1-C ) :   1.1885 B(  0-S ,  4-C ) :   1.2232 B(  1-C ,  2-C ) :   1.5376
B(  1-C ,  4-C ) :   0.1137 B(  1-C , 32-H ) :   0.9823 B(  2-C ,  3-C ) :   1.2900
B(  2-C ,  6-C ) :   1.0065 B(  3-C ,  4-C ) :   1.5019 B(  3-C ,  5-H ) :   0.9980
B(  4-C , 20-C ) :   1.0154 B(  6-C ,  7-H ) :   0.9326 B(  6-C ,  8-H ) :   0.9449
B(  6-C ,  9-C ) :   1.0838 B(  9-C , 10-H ) :   0.9564 B(  9-C , 11-H ) :   0.9548
B(  9-C , 12-C ) :   1.0605 B( 12-C , 13-H ) :   0.9792 B( 12-C , 14-H ) :   0.9797
B( 12-C , 15-H ) :   0.9752 B( 16-S , 17-C ) :   1.1762 B( 16-S , 20-C ) :   1.1353
B( 17-C , 18-C ) :   1.5960 B( 17-C , 33-H ) :   0.9669 B( 18-C , 19-C ) :   1.2375
B( 18-C , 21-H ) :   0.9904 B( 19-C , 20-C ) :   1.5772 B( 19-C , 22-C ) :   1.0441
B( 22-C , 23-H ) :   0.9405 B( 22-C , 24-H ) :   0.9199 B( 22-C , 25-C ) :   1.0927
B( 25-C , 26-H ) :   0.9483 B( 25-C , 27-H ) :   0.9527 B( 25-C , 28-C ) :   1.0713
B( 28-C , 29-H ) :   0.9784 B( 28-C , 30-H ) :   0.9714 B( 28-C , 31-H ) :   0.9720

Dispersion correction           -0.014441174
FINAL SINGLE POINT ENERGY     -1339.874698193217

DIPOLE MOMENT
-------------
                                X             Y             Z
Electronic contribution:    -14.89025     -14.37128     -14.36073
Nuclear contribution   :     15.16645      14.57985      14.49185
                        -----------------------------------------
Total Dipole Moment    :      0.27620       0.20857       0.13112
                        -----------------------------------------
Magnitude (a.u.)       :      0.37011
Magnitude (Debye)      :      0.94074

Rotational constants in cm-1:     0.019313     0.007794     0.007213
Rotational constants in MHz :   578.975304   233.656243   216.240477

                             ****ORCA TERMINATED NORMALLY****
TOTAL RUN TIME: 0 days 0 hours 0 minutes 21 seconds 342 msec
