                         Program Version 4.2.1 -  RELEASE  -
|  1> ! wB97X-D3 SP def2-SVP
|  2> %pal
|  3> nprocs 24
|  4> end
|  5>
|  6> * xyz 0 1
|  7> S 	 15.652 	 -12.2985 	 -122.659
|  8> C 	 14.7055 	 -11.3999 	 -123.737
|  9> C 	 14.2678 	 -10.1693 	 -123.236
| 10> C 	 14.601 	 -10.0641 	 -121.873
| 11> C 	 15.4637 	 -11.0343 	 -121.386
| 12> H 	 14.3014 	 -9.22416 	 -121.261
| 13> C 	 13.401 	 -9.16832 	 -123.981
| 14> H 	 13.406 	 -9.3386 	 -125.104
| 15> H 	 14.0182 	 -8.2797 	 -123.919
| 16> C 	 11.9212 	 -8.92921 	 -123.499
| 17> H 	 11.4086 	 -9.92272 	 -123.788
| 18> H 	 11.9836 	 -8.84859 	 -122.431
| 19> C 	 11.2464 	 -7.8217 	 -124.172
| 20> H 	 11.6614 	 -6.88754 	 -123.838
| 21> H 	 11.4213 	 -7.97123 	 -125.234
| 22> H 	 10.2207 	 -8.0292 	 -123.947
| 23> S 	 15.552 	 -12.8336 	 -119.326
| 24> C 	 15.9589 	 -12.2414 	 -117.761
| 25> C 	 16.4403 	 -10.9459 	 -117.741
| 26> C 	 16.3942 	 -10.3767 	 -119.073
| 27> C 	 15.8602 	 -11.2759 	 -119.998
| 28> H 	 16.8856 	 -10.465 	 -116.883
| 29> C 	 16.805 	 -8.96852 	 -119.401
| 30> H 	 17.1275 	 -8.46192 	 -118.475
| 31> H 	 15.8891 	 -8.41221 	 -119.7
| 32> C 	 17.8703 	 -8.82446 	 -120.483
| 33> H 	 17.8082 	 -7.76362 	 -120.693
| 34> H 	 17.5283 	 -9.43918 	 -121.381
| 35> C 	 19.3019 	 -9.23824 	 -120.004
| 36> H 	 19.7193 	 -8.30151 	 -119.544
| 37> H 	 19.979 	 -9.54431 	 -120.815
| 38> H 	 19.0967 	 -9.9117 	 -119.178
| 39> H 	 14.4668 	 -11.7865 	 -124.769
| 40> H 	 16.0834 	 -12.8581 	 -116.89
| 41> *
| 42>
| 43>                          ****END OF INPUT****

CARTESIAN COORDINATES (ANGSTROEM)
---------------------------------
  S     15.652000  -12.298500  -122.659000
  C     14.705500  -11.399900  -123.737000
  C     14.267800  -10.169300  -123.236000
  C     14.601000  -10.064100  -121.873000
  C     15.463700  -11.034300  -121.386000
  H     14.301400   -9.224160  -121.261000
  C     13.401000   -9.168320  -123.981000
  H     13.406000   -9.338600  -125.104000
  H     14.018200   -8.279700  -123.919000
  C     11.921200   -8.929210  -123.499000
  H     11.408600   -9.922720  -123.788000
  H     11.983600   -8.848590  -122.431000
  C     11.246400   -7.821700  -124.172000
  H     11.661400   -6.887540  -123.838000
  H     11.421300   -7.971230  -125.234000
  H     10.220700   -8.029200  -123.947000
  S     15.552000  -12.833600  -119.326000
  C     15.958900  -12.241400  -117.761000
  C     16.440300  -10.945900  -117.741000
  C     16.394200  -10.376700  -119.073000
  C     15.860200  -11.275900  -119.998000
  H     16.885600  -10.465000  -116.883000
  C     16.805000   -8.968520  -119.401000
  H     17.127500   -8.461920  -118.475000
  H     15.889100   -8.412210  -119.700000
  C     17.870300   -8.824460  -120.483000
  H     17.808200   -7.763620  -120.693000
  H     17.528300   -9.439180  -121.381000
  C     19.301900   -9.238240  -120.004000
  H     19.719300   -8.301510  -119.544000
  H     19.979000   -9.544310  -120.815000
  H     19.096700   -9.911700  -119.178000
  H     14.466800  -11.786500  -124.769000
  H     16.083400  -12.858100  -116.890000

 Total Charge           Charge          ....    0
 Multiplicity           Mult            ....    1
 Number of Electrons    NEL             ....  134
 Basis Dimension        Dim             ....  322

ORBITAL ENERGIES
----------------

  NO   OCC          E(Eh)            E(eV)
   0   2.0000     -88.968040     -2420.9435
   1   2.0000     -88.966480     -2420.9010
   2   2.0000     -10.331251      -281.1276
   3   2.0000     -10.322743      -280.8961
   4   2.0000     -10.316410      -280.7238
   5   2.0000     -10.313154      -280.6352
   6   2.0000     -10.301317      -280.3131
   7   2.0000     -10.300266      -280.2845
   8   2.0000     -10.295687      -280.1599
   9   2.0000     -10.295181      -280.1461
  10   2.0000     -10.294301      -280.1222
  11   2.0000     -10.291427      -280.0440
  12   2.0000     -10.290009      -280.0054
  13   2.0000     -10.283263      -279.8218
  14   2.0000     -10.278602      -279.6950
  15   2.0000     -10.274313      -279.5783
  16   2.0000      -8.083552      -219.9646
  17   2.0000      -8.081496      -219.9087
  18   2.0000      -6.041983      -164.4107
  19   2.0000      -6.039905      -164.3542
  20   2.0000      -6.037989      -164.3020
  21   2.0000      -6.035871      -164.2444
  22   2.0000      -6.034325      -164.2023
  23   2.0000      -6.032461      -164.1516
  24   2.0000      -1.008368       -27.4391
  25   2.0000      -0.986692       -26.8493
  26   2.0000      -0.914592       -24.8873
  27   2.0000      -0.908584       -24.7238
  28   2.0000      -0.870925       -23.6991
  29   2.0000      -0.858356       -23.3571
  30   2.0000      -0.845241       -23.0002
  31   2.0000      -0.813762       -22.1436
  32   2.0000      -0.780893       -21.2492
  33   2.0000      -0.766376       -20.8542
  34   2.0000      -0.705313       -19.1925
  35   2.0000      -0.692580       -18.8461
  36   2.0000      -0.679536       -18.4911
  37   2.0000      -0.665136       -18.0993
  38   2.0000      -0.638554       -17.3759
  39   2.0000      -0.623158       -16.9570
  40   2.0000      -0.593032       -16.1372
  41   2.0000      -0.572274       -15.5724
  42   2.0000      -0.563140       -15.3238
  43   2.0000      -0.553015       -15.0483
  44   2.0000      -0.538618       -14.6565
  45   2.0000      -0.535358       -14.5678
  46   2.0000      -0.512658       -13.9501
  47   2.0000      -0.507912       -13.8210
  48   2.0000      -0.501720       -13.6525
  49   2.0000      -0.496896       -13.5212
  50   2.0000      -0.486391       -13.2354
  51   2.0000      -0.475592       -12.9415
  52   2.0000      -0.470898       -12.8138
  53   2.0000      -0.467911       -12.7325
  54   2.0000      -0.461037       -12.5455
  55   2.0000      -0.452505       -12.3133
  56   2.0000      -0.442852       -12.0506
  57   2.0000      -0.440254       -11.9799
  58   2.0000      -0.431100       -11.7308
  59   2.0000      -0.424509       -11.5515
  60   2.0000      -0.414638       -11.2829
  61   2.0000      -0.413321       -11.2470
  62   2.0000      -0.410133       -11.1603
  63   2.0000      -0.350533        -9.5385
  64   2.0000      -0.333662        -9.0794
  65   2.0000      -0.326123        -8.8742
  66   2.0000      -0.286098        -7.7851
  67   0.0000       0.027412         0.7459
  68   0.0000       0.071311         1.9405
  69   0.0000       0.109638         2.9834
  70   0.0000       0.120357         3.2751
  71   0.0000       0.136620         3.7176

MULLIKEN ATOMIC CHARGES
-----------------------
   0 S :    0.105732
   1 C :   -0.141409
   2 C :   -0.065992
   3 C :    0.022039
   4 C :   -0.170427
   5 H :    0.012525
   6 C :    0.017550
   7 H :    0.020832
   8 H :    0.022788
   9 C :   -0.105278
  10 H :    0.039591
  11 H :    0.025891
  12 C :    0.021219
  13 H :    0.033064
  14 H :    0.024674
  15 H :    0.038687
  16 S :    0.130952
  17 C :   -0.081043
  18 C :   -0.033242
  19 C :   -0.062447
  20 C :   -0.144833
  21 H :    0.019407
  22 C :    0.033189
  23 H :    0.011534
  24 H :    0.035564
  25 C :   -0.086393
  26 H :    0.024034
  27 H :    0.061381
  28 C :   -0.046805
  29 H :    0.027297
  30 H :    0.054770
  31 H :    0.036791
  32 H :    0.068144
  33 H :    0.050210
Sum of atomic charges:   -0.0000000

LOEWDIN ATOMIC CHARGES
----------------------
   0 S :    0.403465
   1 C :   -0.215343
   2 C :   -0.072758
   3 C :   -0.054827
   4 C :   -0.185216
   5 H :    0.029223
   6 C :   -0.044446
   7 H :    0.031367
   8 H :    0.027087
   9 C :   -0.040283
  10 H :    0.033689
  11 H :    0.017407
  12 C :   -0.057341
  13 H :    0.025605
  14 H :    0.027798
  15 H :    0.032140
  16 S :    0.433765
  17 C :   -0.193486
  18 C :   -0.069469
  19 C :   -0.058828
  20 C :   -0.212565
  21 H :    0.031753
  22 C :   -0.041545
  23 H :    0.027268
  24 H :    0.034860
  25 C :   -0.044440
  26 H :    0.020118
  27 H :    0.033496
  28 C :   -0.069126
  29 H :    0.029313
  30 H :    0.031804
  31 H :    0.026059
  32 H :    0.038016
  33 H :    0.025440

  Mayer bond orders larger than 0.100000
B(  0-S ,  1-C ) :   1.1706 B(  0-S ,  4-C ) :   1.1344 B(  1-C ,  2-C ) :   1.5746
B(  1-C , 32-H ) :   0.9566 B(  2-C ,  3-C ) :   1.2781 B(  2-C ,  6-C ) :   1.0198
B(  3-C ,  4-C ) :   1.5592 B(  3-C ,  5-H ) :   0.9841 B(  4-C , 20-C ) :   1.0486
B(  6-C ,  7-H ) :   0.9418 B(  6-C ,  8-H ) :   0.9347 B(  6-C ,  9-C ) :   1.0501
B(  9-C , 10-H ) :   0.9555 B(  9-C , 11-H ) :   0.9555 B(  9-C , 12-C ) :   1.0809
B( 12-C , 13-H ) :   0.9727 B( 12-C , 14-H ) :   0.9695 B( 12-C , 15-H ) :   0.9702
B( 16-S , 17-C ) :   1.1663 B( 16-S , 20-C ) :   1.1494 B( 17-C , 18-C ) :   1.6010
B( 17-C , 33-H ) :   0.9636 B( 18-C , 19-C ) :   1.2518 B( 18-C , 21-H ) :   0.9895
B( 19-C , 20-C ) :   1.5785 B( 19-C , 22-C ) :   1.0438 B( 22-C , 23-H ) :   0.9344
B( 22-C , 24-H ) :   0.9281 B( 22-C , 25-C ) :   1.0682 B( 25-C , 26-H ) :   0.9582
B( 25-C , 27-H ) :   0.9553 B( 25-C , 28-C ) :   1.0507 B( 28-C , 29-H ) :   0.9749
B( 28-C , 30-H ) :   0.9763 B( 28-C , 31-H ) :   0.9826

Dispersion correction           -0.014486324
FINAL SINGLE POINT ENERGY     -1339.877497331146

DIPOLE MOMENT
-------------
                                X             Y             Z
Electronic contribution:      3.23198     -23.66732       6.69247
Nuclear contribution   :     -3.43365      24.24425      -6.71365
                        -----------------------------------------
Total Dipole Moment    :     -0.20167       0.57692      -0.02118
                        -----------------------------------------
Magnitude (a.u.)       :      0.61152
Magnitude (Debye)      :      1.55437

Rotational constants in cm-1:     0.019462     0.007999     0.007221
Rotational constants in MHz :   583.448414   239.790827   216.478850

                             ****ORCA TERMINATED NORMALLY****
TOTAL RUN TIME: 0 days 0 hours 0 minutes 22 seconds 660 msec
