                         Program Version 4.2.1 -  RELEASE  -
|  1> ! wB97X-D3 SP def2-SVP
|  2> %pal
|  3> nprocs 24
|  4> end
|  5>
|  6> * xyz 0 1
|  7> S 	 -128.681 	 9.71723 	 -11.2514
|  8> C 	 -127.302 	 9.92258 	 -10.2414
|  9> C 	 -126.317 	 10.7177 	 -10.8107
| 10> C 	 -126.636 	 10.9269 	 -12.208
| 11> C 	 -127.797 	 10.2839 	 -12.6336
| 12> H 	 -126.173 	 11.6284 	 -12.8651
| 13> C 	 -125.105 	 11.4601 	 -10.1275
| 14> H 	 -125.337 	 12.5356 	 -10.2198
| 15> H 	 -124.176 	 11.2709 	 -10.6696
| 16> C 	 -124.955 	 11.0705 	 -8.63451
| 17> H 	 -125.964 	 11.3774 	 -8.18375
| 18> H 	 -124.948 	 9.91046 	 -8.68679
| 19> C 	 -123.758 	 11.712 	 -7.93903
| 20> H 	 -123.856 	 12.7959 	 -8.04885
| 21> H 	 -123.767 	 11.4265 	 -6.85354
| 22> H 	 -122.8 	 11.5474 	 -8.43273
| 23> S 	 -129.758 	 11.6089 	 -13.8196
| 24> C 	 -130.254 	 11.2981 	 -15.4643
| 25> C 	 -129.343 	 10.4018 	 -16.0193
| 26> C 	 -128.254 	 9.98914 	 -15.1769
| 27> C 	 -128.397 	 10.5324 	 -13.919
| 28> H 	 -129.417 	 10.1026 	 -17.0846
| 29> C 	 -127.172 	 9.05912 	 -15.5862
| 30> H 	 -126.286 	 9.27454 	 -14.9114
| 31> H 	 -126.838 	 9.29357 	 -16.6081
| 32> C 	 -127.502 	 7.53942 	 -15.542
| 33> H 	 -127.822 	 7.27351 	 -14.5082
| 34> H 	 -126.594 	 6.89814 	 -15.6294
| 35> C 	 -128.528 	 7.03421 	 -16.6019
| 36> H 	 -128.716 	 5.9614 	 -16.5667
| 37> H 	 -128.172 	 7.26286 	 -17.5929
| 38> H 	 -129.508 	 7.53493 	 -16.5635
| 39> H 	 -127.359 	 9.71877 	 -9.1695
| 40> H 	 -131.135 	 11.7893 	 -15.8604
| 41> *
| 42>
| 43>                          ****END OF INPUT****

CARTESIAN COORDINATES (ANGSTROEM)
---------------------------------
  S    -128.681000    9.717230  -11.251400
  C    -127.302000    9.922580  -10.241400
  C    -126.317000   10.717700  -10.810700
  C    -126.636000   10.926900  -12.208000
  C    -127.797000   10.283900  -12.633600
  H    -126.173000   11.628400  -12.865100
  C    -125.105000   11.460100  -10.127500
  H    -125.337000   12.535600  -10.219800
  H    -124.176000   11.270900  -10.669600
  C    -124.955000   11.070500   -8.634510
  H    -125.964000   11.377400   -8.183750
  H    -124.948000    9.910460   -8.686790
  C    -123.758000   11.712000   -7.939030
  H    -123.856000   12.795900   -8.048850
  H    -123.767000   11.426500   -6.853540
  H    -122.800000   11.547400   -8.432730
  S    -129.758000   11.608900  -13.819600
  C    -130.254000   11.298100  -15.464300
  C    -129.343000   10.401800  -16.019300
  C    -128.254000    9.989140  -15.176900
  C    -128.397000   10.532400  -13.919000
  H    -129.417000   10.102600  -17.084600
  C    -127.172000    9.059120  -15.586200
  H    -126.286000    9.274540  -14.911400
  H    -126.838000    9.293570  -16.608100
  C    -127.502000    7.539420  -15.542000
  H    -127.822000    7.273510  -14.508200
  H    -126.594000    6.898140  -15.629400
  C    -128.528000    7.034210  -16.601900
  H    -128.716000    5.961400  -16.566700
  H    -128.172000    7.262860  -17.592900
  H    -129.508000    7.534930  -16.563500
  H    -127.359000    9.718770   -9.169500
  H    -131.135000   11.789300  -15.860400

 Total Charge           Charge          ....    0
 Multiplicity           Mult            ....    1
 Number of Electrons    NEL             ....  134
 Basis Dimension        Dim             ....  322

ORBITAL ENERGIES
----------------

  NO   OCC          E(Eh)            E(eV)
   0   2.0000     -88.967631     -2420.9323
   1   2.0000     -88.959608     -2420.7140
   2   2.0000     -10.324336      -280.9395
   3   2.0000     -10.320536      -280.8361
   4   2.0000     -10.318857      -280.7904
   5   2.0000     -10.314242      -280.6648
   6   2.0000     -10.307780      -280.4890
   7   2.0000     -10.301927      -280.3297
   8   2.0000     -10.301710      -280.3238
   9   2.0000     -10.301210      -280.3102
  10   2.0000     -10.298110      -280.2258
  11   2.0000     -10.295618      -280.1580
  12   2.0000     -10.293291      -280.0947
  13   2.0000     -10.291362      -280.0422
  14   2.0000     -10.287285      -279.9313
  15   2.0000     -10.275877      -279.6208
  16   2.0000      -8.082963      -219.9486
  17   2.0000      -8.075135      -219.7356
  18   2.0000      -6.041393      -164.3947
  19   2.0000      -6.037634      -164.2924
  20   2.0000      -6.033584      -164.1822
  21   2.0000      -6.033500      -164.1799
  22   2.0000      -6.029333      -164.0665
  23   2.0000      -6.026105      -163.9787
  24   2.0000      -1.011009       -27.5110
  25   2.0000      -0.984773       -26.7970
  26   2.0000      -0.907569       -24.6962
  27   2.0000      -0.902584       -24.5606
  28   2.0000      -0.869810       -23.6687
  29   2.0000      -0.849145       -23.1064
  30   2.0000      -0.843078       -22.9413
  31   2.0000      -0.808732       -22.0067
  32   2.0000      -0.781921       -21.2772
  33   2.0000      -0.772032       -21.0081
  34   2.0000      -0.707750       -19.2588
  35   2.0000      -0.697857       -18.9896
  36   2.0000      -0.683098       -18.5880
  37   2.0000      -0.663689       -18.0599
  38   2.0000      -0.644744       -17.5444
  39   2.0000      -0.606119       -16.4933
  40   2.0000      -0.592240       -16.1157
  41   2.0000      -0.567104       -15.4317
  42   2.0000      -0.561622       -15.2825
  43   2.0000      -0.547019       -14.8851
  44   2.0000      -0.539683       -14.6855
  45   2.0000      -0.525660       -14.3039
  46   2.0000      -0.512684       -13.9508
  47   2.0000      -0.510575       -13.8935
  48   2.0000      -0.500842       -13.6286
  49   2.0000      -0.493601       -13.4316
  50   2.0000      -0.487750       -13.2723
  51   2.0000      -0.482712       -13.1353
  52   2.0000      -0.474956       -12.9242
  53   2.0000      -0.471249       -12.8234
  54   2.0000      -0.456945       -12.4341
  55   2.0000      -0.449222       -12.2240
  56   2.0000      -0.439409       -11.9569
  57   2.0000      -0.432961       -11.7815
  58   2.0000      -0.427510       -11.6331
  59   2.0000      -0.424228       -11.5438
  60   2.0000      -0.419809       -11.4236
  61   2.0000      -0.418330       -11.3833
  62   2.0000      -0.411424       -11.1954
  63   2.0000      -0.336766        -9.1639
  64   2.0000      -0.331136        -9.0107
  65   2.0000      -0.322552        -8.7771
  66   2.0000      -0.300948        -8.1892
  67   0.0000       0.037511         1.0207
  68   0.0000       0.056609         1.5404
  69   0.0000       0.110854         3.0165
  70   0.0000       0.118973         3.2374
  71   0.0000       0.137578         3.7437

MULLIKEN ATOMIC CHARGES
-----------------------
   0 S :    0.130842
   1 C :   -0.142661
   2 C :   -0.081497
   3 C :    0.026273
   4 C :   -0.142070
   5 H :    0.013190
   6 C :    0.048107
   7 H :    0.043843
   8 H :    0.038554
   9 C :   -0.166243
  10 H :    0.045882
  11 H :    0.051451
  12 C :   -0.011582
  13 H :    0.025061
  14 H :    0.055049
  15 H :    0.032624
  16 S :    0.093459
  17 C :   -0.100353
  18 C :   -0.047539
  19 C :   -0.006289
  20 C :   -0.202686
  21 H :    0.029298
  22 C :    0.053092
  23 H :    0.037792
  24 H :    0.025004
  25 C :   -0.069341
  26 H :    0.030352
  27 H :    0.033428
  28 C :   -0.058067
  29 H :    0.039002
  30 H :    0.015119
  31 H :    0.037715
  32 H :    0.057115
  33 H :    0.066074
Sum of atomic charges:    0.0000000

LOEWDIN ATOMIC CHARGES
----------------------
   0 S :    0.429120
   1 C :   -0.212475
   2 C :   -0.061530
   3 C :   -0.052907
   4 C :   -0.213948
   5 H :    0.026924
   6 C :   -0.031093
   7 H :    0.034706
   8 H :    0.028814
   9 C :   -0.058979
  10 H :    0.030713
  11 H :    0.031746
  12 C :   -0.070756
  13 H :    0.027890
  14 H :    0.037393
  15 H :    0.027147
  16 S :    0.409538
  17 C :   -0.189243
  18 C :   -0.074771
  19 C :   -0.061308
  20 C :   -0.200059
  21 H :    0.033409
  22 C :   -0.036792
  23 H :    0.042130
  24 H :    0.030674
  25 C :   -0.041868
  26 H :    0.026554
  27 H :    0.028297
  28 C :   -0.071665
  29 H :    0.028556
  30 H :    0.018758
  31 H :    0.026716
  32 H :    0.027545
  33 H :    0.030763

  Mayer bond orders larger than 0.100000
B(  0-S ,  1-C ) :   1.1534 B(  0-S ,  4-C ) :   1.1528 B(  1-C ,  2-C ) :   1.6074
B(  1-C , 32-H ) :   0.9602 B(  2-C ,  3-C ) :   1.2556 B(  2-C ,  6-C ) :   0.9976
B(  3-C ,  4-C ) :   1.5654 B(  3-C ,  5-H ) :   0.9961 B(  4-C , 20-C ) :   1.0282
B(  6-C ,  7-H ) :   0.9397 B(  6-C ,  8-H ) :   0.9457 B(  6-C ,  9-C ) :   1.0693
B(  9-C , 10-H ) :   0.9498 B(  9-C , 11-H ) :   0.9545 B(  9-C , 12-C ) :   1.0750
B( 12-C , 13-H ) :   0.9689 B( 12-C , 14-H ) :   0.9719 B( 12-C , 15-H ) :   0.9730
B( 16-S , 17-C ) :   1.1535 B( 16-S , 20-C ) :   1.1671 B( 17-C , 18-C ) :   1.5781
B( 17-C , 20-C ) :   0.1014 B( 17-C , 33-H ) :   0.9757 B( 18-C , 19-C ) :   1.2442
B( 18-C , 21-H ) :   0.9811 B( 19-C , 20-C ) :   1.5947 B( 19-C , 22-C ) :   1.0528
B( 22-C , 23-H ) :   0.9284 B( 22-C , 24-H ) :   0.9346 B( 22-C , 25-C ) :   1.0705
B( 25-C , 26-H ) :   0.9549 B( 25-C , 27-H ) :   0.9565 B( 25-C , 28-C ) :   1.0701
B( 28-C , 29-H ) :   0.9743 B( 28-C , 30-H ) :   0.9747 B( 28-C , 31-H ) :   0.9736

Dispersion correction           -0.013925323
FINAL SINGLE POINT ENERGY     -1339.882693168583

DIPOLE MOMENT
-------------
                                X             Y             Z
Electronic contribution:    -18.18167       6.74316      -1.92840
Nuclear contribution   :     18.58053      -6.55511       1.91376
                        -----------------------------------------
Total Dipole Moment    :      0.39886       0.18805      -0.01464
                        -----------------------------------------
Magnitude (a.u.)       :      0.44121
Magnitude (Debye)      :      1.12146

Rotational constants in cm-1:     0.024951     0.006743     0.006067
Rotational constants in MHz :   748.024486   202.139381   181.891924

                             ****ORCA TERMINATED NORMALLY****
TOTAL RUN TIME: 0 days 0 hours 0 minutes 19 seconds 980 msec
