                         Program Version 4.2.1 -  RELEASE  -
|  1> ! wB97X-D3 SP def2-SVP
|  2> %pal
|  3> nprocs 24
|  4> end
|  5>
|  6> * xyz 0 1
|  7> S 	 -102.598 	 8.21613 	 -4.61933
|  8> C 	 -101.352 	 9.43577 	 -4.2148
|  9> C 	 -101.783 	 10.6681 	 -4.46799
| 10> C 	 -103.188 	 10.5923 	 -4.65899
| 11> C 	 -103.8 	 9.39343 	 -4.80263
| 12> H 	 -103.848 	 11.4151 	 -4.86246
| 13> C 	 -101.08 	 11.9635 	 -4.46907
| 14> H 	 -101.608 	 12.6011 	 -5.1947
| 15> H 	 -100.029 	 11.7883 	 -4.87074
| 16> C 	 -101.035 	 12.7278 	 -3.13478
| 17> H 	 -100.481 	 12.2508 	 -2.34262
| 18> H 	 -100.435 	 13.6208 	 -3.36937
| 19> C 	 -102.434 	 13.2657 	 -2.68033
| 20> H 	 -103.116 	 12.4992 	 -2.44724
| 21> H 	 -102.267 	 13.8919 	 -1.7681
| 22> H 	 -102.894 	 14.0051 	 -3.39641
| 23> S 	 -105.525 	 7.93152 	 -6.37561
| 24> C 	 -107.153 	 8.51971 	 -6.49221
| 25> C 	 -107.46 	 9.40909 	 -5.52871
| 26> C 	 -106.365 	 9.70723 	 -4.60744
| 27> C 	 -105.215 	 9.06091 	 -5.06783
| 28> H 	 -108.42 	 9.81915 	 -5.52662
| 29> C 	 -106.348 	 10.6227 	 -3.43579
| 30> H 	 -105.293 	 10.7827 	 -3.07661
| 31> H 	 -106.863 	 9.96168 	 -2.69262
| 32> C 	 -107.206 	 11.8601 	 -3.59617
| 33> H 	 -108.235 	 11.493 	 -3.78555
| 34> H 	 -106.968 	 12.4213 	 -4.44097
| 35> C 	 -107.215 	 12.7288 	 -2.37323
| 36> H 	 -106.199 	 13.1975 	 -2.30641
| 37> H 	 -107.484 	 12.2914 	 -1.39111
| 38> H 	 -107.902 	 13.5382 	 -2.50912
| 39> H 	 -100.326 	 9.14506 	 -4.09256
| 40> H 	 -107.847 	 8.12401 	 -7.22348
| 41> *
| 42>
| 43>                          ****END OF INPUT****

CARTESIAN COORDINATES (ANGSTROEM)
---------------------------------
  S    -102.598000    8.216130   -4.619330
  C    -101.352000    9.435770   -4.214800
  C    -101.783000   10.668100   -4.467990
  C    -103.188000   10.592300   -4.658990
  C    -103.800000    9.393430   -4.802630
  H    -103.848000   11.415100   -4.862460
  C    -101.080000   11.963500   -4.469070
  H    -101.608000   12.601100   -5.194700
  H    -100.029000   11.788300   -4.870740
  C    -101.035000   12.727800   -3.134780
  H    -100.481000   12.250800   -2.342620
  H    -100.435000   13.620800   -3.369370
  C    -102.434000   13.265700   -2.680330
  H    -103.116000   12.499200   -2.447240
  H    -102.267000   13.891900   -1.768100
  H    -102.894000   14.005100   -3.396410
  S    -105.525000    7.931520   -6.375610
  C    -107.153000    8.519710   -6.492210
  C    -107.460000    9.409090   -5.528710
  C    -106.365000    9.707230   -4.607440
  C    -105.215000    9.060910   -5.067830
  H    -108.420000    9.819150   -5.526620
  C    -106.348000   10.622700   -3.435790
  H    -105.293000   10.782700   -3.076610
  H    -106.863000    9.961680   -2.692620
  C    -107.206000   11.860100   -3.596170
  H    -108.235000   11.493000   -3.785550
  H    -106.968000   12.421300   -4.440970
  C    -107.215000   12.728800   -2.373230
  H    -106.199000   13.197500   -2.306410
  H    -107.484000   12.291400   -1.391110
  H    -107.902000   13.538200   -2.509120
  H    -100.326000    9.145060   -4.092560
  H    -107.847000    8.124010   -7.223480

 Total Charge           Charge          ....    0
 Multiplicity           Mult            ....    1
 Number of Electrons    NEL             ....  134
 Basis Dimension        Dim             ....  322

ORBITAL ENERGIES
----------------

  NO   OCC          E(Eh)            E(eV)
   0   2.0000     -88.962111     -2420.7821
   1   2.0000     -88.955251     -2420.5954
   2   2.0000     -10.325460      -280.9700
   3   2.0000     -10.320538      -280.8361
   4   2.0000     -10.314387      -280.6687
   5   2.0000     -10.307885      -280.4918
   6   2.0000     -10.307351      -280.4773
   7   2.0000     -10.297994      -280.2227
   8   2.0000     -10.295300      -280.1494
   9   2.0000     -10.292731      -280.0795
  10   2.0000     -10.292428      -280.0712
  11   2.0000     -10.291796      -280.0540
  12   2.0000     -10.284749      -279.8623
  13   2.0000     -10.284107      -279.8448
  14   2.0000     -10.280385      -279.7435
  15   2.0000     -10.280156      -279.7373
  16   2.0000      -8.077567      -219.8018
  17   2.0000      -8.071214      -219.6289
  18   2.0000      -6.036037      -164.2489
  19   2.0000      -6.032122      -164.1424
  20   2.0000      -6.029796      -164.0791
  21   2.0000      -6.028179      -164.0351
  22   2.0000      -6.025580      -163.9644
  23   2.0000      -6.021790      -163.8612
  24   2.0000      -1.012915       -27.5628
  25   2.0000      -0.990122       -26.9426
  26   2.0000      -0.919228       -25.0135
  27   2.0000      -0.915505       -24.9122
  28   2.0000      -0.871828       -23.7236
  29   2.0000      -0.856089       -23.2954
  30   2.0000      -0.840003       -22.8577
  31   2.0000      -0.818018       -22.2594
  32   2.0000      -0.786950       -21.4140
  33   2.0000      -0.775419       -21.1002
  34   2.0000      -0.709569       -19.3084
  35   2.0000      -0.706284       -19.2190
  36   2.0000      -0.696849       -18.9622
  37   2.0000      -0.657369       -17.8879
  38   2.0000      -0.641525       -17.4568
  39   2.0000      -0.615401       -16.7459
  40   2.0000      -0.599645       -16.3172
  41   2.0000      -0.577367       -15.7109
  42   2.0000      -0.572920       -15.5900
  43   2.0000      -0.545366       -14.8402
  44   2.0000      -0.542836       -14.7713
  45   2.0000      -0.531939       -14.4748
  46   2.0000      -0.517109       -14.0713
  47   2.0000      -0.513950       -13.9853
  48   2.0000      -0.508296       -13.8314
  49   2.0000      -0.493158       -13.4195
  50   2.0000      -0.491538       -13.3754
  51   2.0000      -0.483455       -13.1555
  52   2.0000      -0.475232       -12.9317
  53   2.0000      -0.468419       -12.7463
  54   2.0000      -0.456475       -12.4213
  55   2.0000      -0.454379       -12.3643
  56   2.0000      -0.441266       -12.0075
  57   2.0000      -0.437672       -11.9097
  58   2.0000      -0.434105       -11.8126
  59   2.0000      -0.429164       -11.6781
  60   2.0000      -0.420949       -11.4546
  61   2.0000      -0.417776       -11.3683
  62   2.0000      -0.410352       -11.1662
  63   2.0000      -0.352406        -9.5895
  64   2.0000      -0.327880        -8.9221
  65   2.0000      -0.325339        -8.8529
  66   2.0000      -0.291181        -7.9234
  67   0.0000       0.034765         0.9460
  68   0.0000       0.076993         2.0951
  69   0.0000       0.108368         2.9489
  70   0.0000       0.118482         3.2241
  71   0.0000       0.126366         3.4386

MULLIKEN ATOMIC CHARGES
-----------------------
   0 S :    0.075005
   1 C :   -0.134448
   2 C :   -0.031831
   3 C :   -0.026247
   4 C :   -0.122882
   5 H :   -0.006712
   6 C :    0.049975
   7 H :    0.027896
   8 H :    0.036926
   9 C :   -0.051068
  10 H :    0.033053
  11 H :    0.029802
  12 C :   -0.084240
  13 H :    0.045794
  14 H :    0.037914
  15 H :    0.037051
  16 S :    0.099837
  17 C :   -0.080730
  18 C :   -0.022019
  19 C :   -0.029635
  20 C :   -0.143705
  21 H :   -0.004397
  22 C :    0.044912
  23 H :    0.048471
  24 H :    0.044911
  25 C :   -0.072655
  26 H :    0.026855
  27 H :    0.019022
  28 C :   -0.034456
  29 H :    0.032230
  30 H :    0.036652
  31 H :    0.023849
  32 H :    0.037821
  33 H :    0.057049
Sum of atomic charges:    0.0000000

LOEWDIN ATOMIC CHARGES
----------------------
   0 S :    0.395460
   1 C :   -0.173131
   2 C :   -0.069877
   3 C :   -0.078310
   4 C :   -0.206457
   5 H :    0.021528
   6 C :   -0.034811
   7 H :    0.035882
   8 H :    0.039194
   9 C :   -0.035104
  10 H :    0.023293
  11 H :    0.028414
  12 C :   -0.069802
  13 H :    0.015340
  14 H :    0.032928
  15 H :    0.030602
  16 S :    0.397830
  17 C :   -0.178051
  18 C :   -0.070257
  19 C :   -0.044585
  20 C :   -0.198603
  21 H :    0.021663
  22 C :   -0.039645
  23 H :    0.037977
  24 H :    0.046779
  25 C :   -0.040657
  26 H :    0.026368
  27 H :    0.017412
  28 C :   -0.065429
  29 H :    0.030485
  30 H :    0.028820
  31 H :    0.022682
  32 H :    0.021664
  33 H :    0.030395

  Mayer bond orders larger than 0.100000
B(  0-S ,  1-C ) :   1.1292 B(  0-S ,  4-C ) :   1.1444 B(  1-C ,  2-C ) :   1.6308
B(  1-C , 32-H ) :   0.9700 B(  2-C ,  3-C ) :   1.2091 B(  2-C ,  6-C ) :   1.0296
B(  3-C ,  4-C ) :   1.6182 B(  3-C ,  5-H ) :   0.9918 B(  4-C , 20-C ) :   0.9978
B(  6-C ,  7-H ) :   0.9349 B(  6-C ,  8-H ) :   0.9340 B(  6-C ,  9-C ) :   1.0798
B(  9-C , 10-H ) :   0.9577 B(  9-C , 11-H ) :   0.9529 B(  9-C , 12-C ) :   1.0749
B( 12-C , 13-H ) :   0.9766 B( 12-C , 14-H ) :   0.9714 B( 12-C , 15-H ) :   0.9738
B( 16-S , 17-C ) :   1.1428 B( 16-S , 20-C ) :   1.1350 B( 17-C , 18-C ) :   1.6440
B( 17-C , 33-H ) :   0.9657 B( 18-C , 19-C ) :   1.1886 B( 18-C , 21-H ) :   1.0037
B( 19-C , 20-C ) :   1.6100 B( 19-C , 22-C ) :   1.0398 B( 22-C , 23-H ) :   0.9394
B( 22-C , 24-H ) :   0.9155 B( 22-C , 25-C ) :   1.0614 B( 25-C , 26-H ) :   0.9417
B( 25-C , 27-H ) :   0.9587 B( 25-C , 28-C ) :   1.0993 B( 28-C , 29-H ) :   0.9711
B( 28-C , 30-H ) :   0.9735 B( 28-C , 31-H ) :   0.9710

Dispersion correction           -0.014823952
FINAL SINGLE POINT ENERGY     -1339.874034199245

DIPOLE MOMENT
-------------
                                X             Y             Z
Electronic contribution:      2.11564     -28.14289     -15.07186
Nuclear contribution   :     -2.33430      28.96652      15.22372
                        -----------------------------------------
Total Dipole Moment    :     -0.21866       0.82363       0.15186
                        -----------------------------------------
Magnitude (a.u.)       :      0.86559
Magnitude (Debye)      :      2.20016

Rotational constants in cm-1:     0.016316     0.010774     0.006960
Rotational constants in MHz :   489.139085   323.007539   208.647116

                             ****ORCA TERMINATED NORMALLY****
TOTAL RUN TIME: 0 days 0 hours 0 minutes 22 seconds 483 msec
