                         Program Version 4.2.1 -  RELEASE  -
|  1> ! wB97X-D3 SP def2-SVP
|  2> %pal
|  3> nprocs 24
|  4> end
|  5>
|  6> * xyz 0 1
|  7> S 	 -29.5811 	 -34.0586 	 -90.8179
|  8> C 	 -30.9578 	 -35.1693 	 -90.929
|  9> C 	 -30.4839 	 -36.449 	 -91.3082
| 10> C 	 -29.0886 	 -36.5377 	 -91.5877
| 11> C 	 -28.4257 	 -35.3128 	 -91.3786
| 12> H 	 -28.562 	 -37.3099 	 -91.9924
| 13> C 	 -31.4035 	 -37.6338 	 -91.4219
| 14> H 	 -32.292 	 -37.3686 	 -90.8943
| 15> H 	 -31.1378 	 -38.4906 	 -90.8528
| 16> C 	 -31.6085 	 -37.9906 	 -92.937
| 17> H 	 -32.2407 	 -37.2355 	 -93.368
| 18> H 	 -30.6014 	 -38.0638 	 -93.3986
| 19> C 	 -32.3703 	 -39.2925 	 -93.0525
| 20> H 	 -33.1494 	 -39.4371 	 -92.3206
| 21> H 	 -32.8933 	 -39.3306 	 -93.9641
| 22> H 	 -31.5819 	 -40.0784 	 -93.0548
| 23> S 	 -26.3958 	 -35.9309 	 -93.0172
| 24> C 	 -24.9041 	 -35.0564 	 -92.9189
| 25> C 	 -24.7983 	 -34.4565 	 -91.6881
| 26> C 	 -26.0062 	 -34.3356 	 -90.9547
| 27> C 	 -27.0209 	 -35.0389 	 -91.6274
| 28> H 	 -23.9594 	 -33.9425 	 -91.4775
| 29> C 	 -26.1261 	 -33.4915 	 -89.6311
| 30> H 	 -25.2423 	 -33.6006 	 -88.963
| 31> H 	 -26.9473 	 -33.9118 	 -89.0826
| 32> C 	 -26.4571 	 -32.0292 	 -90.0051
| 33> H 	 -27.37 	 -31.9045 	 -90.566
| 34> H 	 -25.6663 	 -31.5674 	 -90.6017
| 35> C 	 -26.7884 	 -31.1746 	 -88.7033
| 36> H 	 -26.5635 	 -30.1656 	 -88.9405
| 37> H 	 -26.0802 	 -31.5474 	 -87.9994
| 38> H 	 -27.8569 	 -31.047 	 -88.4964
| 39> H 	 -31.9512 	 -34.8956 	 -90.7252
| 40> H 	 -24.1349 	 -35.0915 	 -93.6575
| 41> *
| 42>
| 43>                          ****END OF INPUT****

CARTESIAN COORDINATES (ANGSTROEM)
---------------------------------
  S    -29.581100  -34.058600  -90.817900
  C    -30.957800  -35.169300  -90.929000
  C    -30.483900  -36.449000  -91.308200
  C    -29.088600  -36.537700  -91.587700
  C    -28.425700  -35.312800  -91.378600
  H    -28.562000  -37.309900  -91.992400
  C    -31.403500  -37.633800  -91.421900
  H    -32.292000  -37.368600  -90.894300
  H    -31.137800  -38.490600  -90.852800
  C    -31.608500  -37.990600  -92.937000
  H    -32.240700  -37.235500  -93.368000
  H    -30.601400  -38.063800  -93.398600
  C    -32.370300  -39.292500  -93.052500
  H    -33.149400  -39.437100  -92.320600
  H    -32.893300  -39.330600  -93.964100
  H    -31.581900  -40.078400  -93.054800
  S    -26.395800  -35.930900  -93.017200
  C    -24.904100  -35.056400  -92.918900
  C    -24.798300  -34.456500  -91.688100
  C    -26.006200  -34.335600  -90.954700
  C    -27.020900  -35.038900  -91.627400
  H    -23.959400  -33.942500  -91.477500
  C    -26.126100  -33.491500  -89.631100
  H    -25.242300  -33.600600  -88.963000
  H    -26.947300  -33.911800  -89.082600
  C    -26.457100  -32.029200  -90.005100
  H    -27.370000  -31.904500  -90.566000
  H    -25.666300  -31.567400  -90.601700
  C    -26.788400  -31.174600  -88.703300
  H    -26.563500  -30.165600  -88.940500
  H    -26.080200  -31.547400  -87.999400
  H    -27.856900  -31.047000  -88.496400
  H    -31.951200  -34.895600  -90.725200
  H    -24.134900  -35.091500  -93.657500

 Total Charge           Charge          ....    0
 Multiplicity           Mult            ....    1
 Number of Electrons    NEL             ....  134
 Basis Dimension        Dim             ....  322

ORBITAL ENERGIES
----------------

  NO   OCC          E(Eh)            E(eV)
   0   2.0000     -88.967235     -2420.9215
   1   2.0000     -88.965104     -2420.8636
   2   2.0000     -10.335425      -281.2412
   3   2.0000     -10.329315      -281.0750
   4   2.0000     -10.314408      -280.6693
   5   2.0000     -10.313661      -280.6490
   6   2.0000     -10.309645      -280.5397
   7   2.0000     -10.303054      -280.3603
   8   2.0000     -10.300392      -280.2879
   9   2.0000     -10.288647      -279.9683
  10   2.0000     -10.285901      -279.8936
  11   2.0000     -10.284745      -279.8622
  12   2.0000     -10.284302      -279.8501
  13   2.0000     -10.282278      -279.7950
  14   2.0000     -10.272135      -279.5190
  15   2.0000     -10.270910      -279.4857
  16   2.0000      -8.080198      -219.8734
  17   2.0000      -8.080122      -219.8713
  18   2.0000      -6.038866      -164.3259
  19   2.0000      -6.038585      -164.3183
  20   2.0000      -6.034865      -164.2170
  21   2.0000      -6.034779      -164.2147
  22   2.0000      -6.031026      -164.1126
  23   2.0000      -6.030736      -164.1047
  24   2.0000      -1.003652       -27.3108
  25   2.0000      -0.976962       -26.5845
  26   2.0000      -0.909622       -24.7521
  27   2.0000      -0.902414       -24.5559
  28   2.0000      -0.870486       -23.6871
  29   2.0000      -0.850949       -23.1555
  30   2.0000      -0.844182       -22.9714
  31   2.0000      -0.813464       -22.1355
  32   2.0000      -0.782804       -21.3012
  33   2.0000      -0.766319       -20.8526
  34   2.0000      -0.707195       -19.2438
  35   2.0000      -0.697092       -18.9688
  36   2.0000      -0.693329       -18.8664
  37   2.0000      -0.673291       -18.3212
  38   2.0000      -0.644224       -17.5302
  39   2.0000      -0.617183       -16.7944
  40   2.0000      -0.600291       -16.3347
  41   2.0000      -0.572993       -15.5919
  42   2.0000      -0.566512       -15.4156
  43   2.0000      -0.560952       -15.2643
  44   2.0000      -0.530387       -14.4326
  45   2.0000      -0.525852       -14.3092
  46   2.0000      -0.518440       -14.1075
  47   2.0000      -0.512949       -13.9580
  48   2.0000      -0.508121       -13.8267
  49   2.0000      -0.499248       -13.5852
  50   2.0000      -0.493820       -13.4375
  51   2.0000      -0.477131       -12.9834
  52   2.0000      -0.472746       -12.8641
  53   2.0000      -0.466520       -12.6947
  54   2.0000      -0.463187       -12.6040
  55   2.0000      -0.442288       -12.0353
  56   2.0000      -0.440428       -11.9847
  57   2.0000      -0.438098       -11.9213
  58   2.0000      -0.427474       -11.6322
  59   2.0000      -0.424074       -11.5396
  60   2.0000      -0.419392       -11.4122
  61   2.0000      -0.413522       -11.2525
  62   2.0000      -0.406435       -11.0596
  63   2.0000      -0.353071        -9.6075
  64   2.0000      -0.332040        -9.0353
  65   2.0000      -0.327456        -8.9105
  66   2.0000      -0.279022        -7.5926
  67   0.0000       0.021906         0.5961
  68   0.0000       0.069711         1.8969
  69   0.0000       0.098132         2.6703
  70   0.0000       0.117964         3.2100
  71   0.0000       0.135708         3.6928

MULLIKEN ATOMIC CHARGES
-----------------------
   0 S :    0.090183
   1 C :   -0.105043
   2 C :   -0.080465
   3 C :    0.042783
   4 C :   -0.124417
   5 H :   -0.017894
   6 C :    0.080823
   7 H :   -0.001927
   8 H :    0.019712
   9 C :   -0.091469
  10 H :    0.028481
  11 H :    0.044769
  12 C :   -0.014670
  13 H :    0.026412
  14 H :    0.017380
  15 H :    0.035104
  16 S :    0.090071
  17 C :   -0.077938
  18 C :    0.016473
  19 C :   -0.038649
  20 C :   -0.162108
  21 H :   -0.028542
  22 C :    0.075585
  23 H :    0.041623
  24 H :    0.023078
  25 C :   -0.102589
  26 H :    0.030527
  27 H :    0.032792
  28 C :   -0.019815
  29 H :    0.012084
  30 H :    0.029872
  31 H :    0.045495
  32 H :    0.033468
  33 H :    0.048810
Sum of atomic charges:    0.0000000

LOEWDIN ATOMIC CHARGES
----------------------
   0 S :    0.383152
   1 C :   -0.194676
   2 C :   -0.047871
   3 C :   -0.065409
   4 C :   -0.168798
   5 H :    0.008931
   6 C :   -0.032490
   7 H :    0.023656
   8 H :    0.025000
   9 C :   -0.031523
  10 H :    0.022648
  11 H :    0.029637
  12 C :   -0.064652
  13 H :    0.023188
  14 H :    0.018612
  15 H :    0.030873
  16 S :    0.409890
  17 C :   -0.177210
  18 C :   -0.059183
  19 C :   -0.045400
  20 C :   -0.189034
  21 H :    0.009636
  22 C :   -0.027733
  23 H :    0.035960
  24 H :    0.025754
  25 C :   -0.038533
  26 H :    0.019809
  27 H :    0.022309
  28 C :   -0.065079
  29 H :    0.021548
  30 H :    0.021142
  31 H :    0.032552
  32 H :    0.018483
  33 H :    0.024811

  Mayer bond orders larger than 0.100000
B(  0-S ,  1-C ) :   1.1209 B(  0-S ,  4-C ) :   1.1473 B(  1-C ,  2-C ) :   1.5899
B(  1-C ,  4-C ) :   0.1011 B(  1-C , 32-H ) :   0.9775 B(  2-C ,  3-C ) :   1.2426
B(  2-C ,  6-C ) :   1.0370 B(  3-C ,  4-C ) :   1.5447 B(  3-C ,  5-H ) :   0.9978
B(  4-C , 20-C ) :   1.0703 B(  6-C ,  7-H ) :   0.9320 B(  6-C ,  8-H ) :   0.9453
B(  6-C ,  9-C ) :   1.0444 B(  9-C , 10-H ) :   0.9573 B(  9-C , 11-H ) :   0.9667
B(  9-C , 12-C ) :   1.0810 B( 12-C , 13-H ) :   0.9717 B( 12-C , 14-H ) :   0.9740
B( 12-C , 15-H ) :   0.9770 B( 16-S , 17-C ) :   1.1527 B( 16-S , 20-C ) :   1.1466
B( 17-C , 18-C ) :   1.6014 B( 17-C , 20-C ) :   0.1014 B( 17-C , 33-H ) :   0.9747
B( 18-C , 19-C ) :   1.2458 B( 18-C , 21-H ) :   0.9992 B( 19-C , 20-C ) :   1.5610
B( 19-C , 22-C ) :   1.0356 B( 22-C , 23-H ) :   0.9399 B( 22-C , 24-H ) :   0.9320
B( 22-C , 25-C ) :   1.0637 B( 25-C , 26-H ) :   0.9562 B( 25-C , 27-H ) :   0.9640
B( 25-C , 28-C ) :   1.0681 B( 28-C , 29-H ) :   0.9717 B( 28-C , 30-H ) :   0.9766
B( 28-C , 31-H ) :   0.9781

Dispersion correction           -0.013954857
FINAL SINGLE POINT ENERGY     -1339.849393132293

DIPOLE MOMENT
-------------
                                X             Y             Z
Electronic contribution:      8.87352       1.15439      -5.26517
Nuclear contribution   :     -8.85368      -1.16172       5.30140
                        -----------------------------------------
Total Dipole Moment    :      0.01984      -0.00733       0.03623
                        -----------------------------------------
Magnitude (a.u.)       :      0.04195
Magnitude (Debye)      :      0.10662

Rotational constants in cm-1:     0.022037     0.007878     0.006036
Rotational constants in MHz :   660.653108   236.162315   180.941891

                             ****ORCA TERMINATED NORMALLY****
TOTAL RUN TIME: 0 days 0 hours 0 minutes 19 seconds 946 msec
