                         Program Version 4.2.1 -  RELEASE  -
|  1> ! wB97X-D3 SP def2-SVP
|  2> %pal
|  3> nprocs 24
|  4> end
|  5>
|  6> * xyz 0 1
|  7> S 	 32.2341 	 -6.77196 	 -115.318
|  8> C 	 33.8506 	 -7.08433 	 -115.54
|  9> C 	 34.2796 	 -8.11717 	 -114.766
| 10> C 	 33.2775 	 -8.67173 	 -113.926
| 11> C 	 32.1652 	 -7.8162 	 -113.867
| 12> H 	 33.2516 	 -9.57288 	 -113.316
| 13> C 	 35.7007 	 -8.73033 	 -114.764
| 14> H 	 36.0758 	 -8.72958 	 -113.749
| 15> H 	 36.3067 	 -8.11057 	 -115.436
| 16> C 	 35.8436 	 -10.2063 	 -115.209
| 17> H 	 36.9157 	 -10.4981 	 -115.171
| 18> H 	 35.3608 	 -10.8577 	 -114.472
| 19> C 	 35.2269 	 -10.4018 	 -116.65
| 20> H 	 35.4039 	 -11.3374 	 -117.135
| 21> H 	 34.1753 	 -10.1192 	 -116.646
| 22> H 	 35.7143 	 -9.71376 	 -117.291
| 23> S 	 29.4356 	 -7.47484 	 -113.904
| 24> C 	 28.5133 	 -8.17381 	 -112.632
| 25> C 	 29.2582 	 -8.4912 	 -111.556
| 26> C 	 30.659 	 -8.26918 	 -111.769
| 27> C 	 30.9429 	 -7.84177 	 -113.035
| 28> H 	 28.8653 	 -8.96511 	 -110.639
| 29> C 	 31.7366 	 -8.78148 	 -110.803
| 30> H 	 32.6816 	 -8.44275 	 -111.228
| 31> H 	 31.7743 	 -9.89941 	 -110.726
| 32> C 	 31.6214 	 -8.18855 	 -109.429
| 33> H 	 30.8235 	 -8.65807 	 -108.823
| 34> H 	 31.1137 	 -7.1944 	 -109.401
| 35> C 	 33.0162 	 -8.09687 	 -108.724
| 36> H 	 33.4668 	 -9.03792 	 -108.812
| 37> H 	 32.9651 	 -8.01764 	 -107.667
| 38> H 	 33.5956 	 -7.25858 	 -109.094
| 39> H 	 34.5618 	 -6.55289 	 -116.201
| 40> H 	 27.4816 	 -8.34731 	 -112.748
| 41> *
| 42>
| 43>                          ****END OF INPUT****

CARTESIAN COORDINATES (ANGSTROEM)
---------------------------------
  S     32.234100   -6.771960  -115.318000
  C     33.850600   -7.084330  -115.540000
  C     34.279600   -8.117170  -114.766000
  C     33.277500   -8.671730  -113.926000
  C     32.165200   -7.816200  -113.867000
  H     33.251600   -9.572880  -113.316000
  C     35.700700   -8.730330  -114.764000
  H     36.075800   -8.729580  -113.749000
  H     36.306700   -8.110570  -115.436000
  C     35.843600  -10.206300  -115.209000
  H     36.915700  -10.498100  -115.171000
  H     35.360800  -10.857700  -114.472000
  C     35.226900  -10.401800  -116.650000
  H     35.403900  -11.337400  -117.135000
  H     34.175300  -10.119200  -116.646000
  H     35.714300   -9.713760  -117.291000
  S     29.435600   -7.474840  -113.904000
  C     28.513300   -8.173810  -112.632000
  C     29.258200   -8.491200  -111.556000
  C     30.659000   -8.269180  -111.769000
  C     30.942900   -7.841770  -113.035000
  H     28.865300   -8.965110  -110.639000
  C     31.736600   -8.781480  -110.803000
  H     32.681600   -8.442750  -111.228000
  H     31.774300   -9.899410  -110.726000
  C     31.621400   -8.188550  -109.429000
  H     30.823500   -8.658070  -108.823000
  H     31.113700   -7.194400  -109.401000
  C     33.016200   -8.096870  -108.724000
  H     33.466800   -9.037920  -108.812000
  H     32.965100   -8.017640  -107.667000
  H     33.595600   -7.258580  -109.094000
  H     34.561800   -6.552890  -116.201000
  H     27.481600   -8.347310  -112.748000

 Total Charge           Charge          ....    0
 Multiplicity           Mult            ....    1
 Number of Electrons    NEL             ....  134
 Basis Dimension        Dim             ....  322

ORBITAL ENERGIES
----------------

  NO   OCC          E(Eh)            E(eV)
   0   2.0000     -88.963023     -2420.8069
   1   2.0000     -88.961575     -2420.7675
   2   2.0000     -10.336693      -281.2757
   3   2.0000     -10.328994      -281.0662
   4   2.0000     -10.312860      -280.6272
   5   2.0000     -10.308571      -280.5105
   6   2.0000     -10.303740      -280.3790
   7   2.0000     -10.298041      -280.2239
   8   2.0000     -10.297728      -280.2154
   9   2.0000     -10.294932      -280.1393
  10   2.0000     -10.294593      -280.1301
  11   2.0000     -10.292739      -280.0797
  12   2.0000     -10.292576      -280.0752
  13   2.0000     -10.287446      -279.9356
  14   2.0000     -10.273002      -279.5426
  15   2.0000     -10.269962      -279.4599
  16   2.0000      -8.079196      -219.8461
  17   2.0000      -8.077274      -219.7938
  18   2.0000      -6.037642      -164.2926
  19   2.0000      -6.035841      -164.2436
  20   2.0000      -6.033726      -164.1860
  21   2.0000      -6.031801      -164.1336
  22   2.0000      -6.029708      -164.0767
  23   2.0000      -6.027758      -164.0236
  24   2.0000      -1.012762       -27.5586
  25   2.0000      -0.993727       -27.0407
  26   2.0000      -0.910803       -24.7842
  27   2.0000      -0.904215       -24.6049
  28   2.0000      -0.871589       -23.7171
  29   2.0000      -0.851608       -23.1734
  30   2.0000      -0.843118       -22.9424
  31   2.0000      -0.814581       -22.1659
  32   2.0000      -0.783775       -21.3276
  33   2.0000      -0.774954       -21.0876
  34   2.0000      -0.709926       -19.3181
  35   2.0000      -0.703489       -19.1429
  36   2.0000      -0.691843       -18.8260
  37   2.0000      -0.660613       -17.9762
  38   2.0000      -0.639946       -17.4138
  39   2.0000      -0.619949       -16.8697
  40   2.0000      -0.604287       -16.4435
  41   2.0000      -0.564751       -15.3676
  42   2.0000      -0.561033       -15.2665
  43   2.0000      -0.551983       -15.0202
  44   2.0000      -0.538094       -14.6423
  45   2.0000      -0.526311       -14.3216
  46   2.0000      -0.517411       -14.0795
  47   2.0000      -0.514095       -13.9892
  48   2.0000      -0.504528       -13.7289
  49   2.0000      -0.501305       -13.6412
  50   2.0000      -0.490481       -13.3467
  51   2.0000      -0.484896       -13.1947
  52   2.0000      -0.470783       -12.8107
  53   2.0000      -0.465648       -12.6709
  54   2.0000      -0.458940       -12.4884
  55   2.0000      -0.452183       -12.3045
  56   2.0000      -0.447059       -12.1651
  57   2.0000      -0.437904       -11.9160
  58   2.0000      -0.430455       -11.7133
  59   2.0000      -0.428065       -11.6482
  60   2.0000      -0.416620       -11.3368
  61   2.0000      -0.414421       -11.2770
  62   2.0000      -0.405012       -11.0209
  63   2.0000      -0.361996        -9.8504
  64   2.0000      -0.334665        -9.1067
  65   2.0000      -0.325141        -8.8475
  66   2.0000      -0.283685        -7.7195
  67   0.0000       0.022903         0.6232
  68   0.0000       0.074783         2.0349
  69   0.0000       0.097737         2.6596
  70   0.0000       0.117301         3.1919
  71   0.0000       0.137276         3.7355

MULLIKEN ATOMIC CHARGES
-----------------------
   0 S :    0.097784
   1 C :   -0.092424
   2 C :   -0.117835
   3 C :    0.013469
   4 C :   -0.148137
   5 H :    0.030585
   6 C :    0.074448
   7 H :    0.033790
   8 H :    0.015224
   9 C :   -0.098642
  10 H :    0.038256
  11 H :    0.029403
  12 C :   -0.032244
  13 H :    0.029830
  14 H :    0.049523
  15 H :    0.006656
  16 S :    0.081308
  17 C :   -0.063989
  18 C :   -0.027345
  19 C :   -0.067272
  20 C :   -0.123731
  21 H :    0.030300
  22 C :    0.062668
  23 H :    0.025196
  24 H :    0.052491
  25 C :   -0.120597
  26 H :    0.021000
  27 H :    0.031217
  28 C :   -0.013569
  29 H :    0.015928
  30 H :    0.015165
  31 H :    0.052112
  32 H :    0.054771
  33 H :    0.044659
Sum of atomic charges:    0.0000000

LOEWDIN ATOMIC CHARGES
----------------------
   0 S :    0.414357
   1 C :   -0.227874
   2 C :   -0.073922
   3 C :   -0.064341
   4 C :   -0.169221
   5 H :    0.035259
   6 C :   -0.026473
   7 H :    0.030212
   8 H :    0.025049
   9 C :   -0.039548
  10 H :    0.028258
  11 H :    0.018399
  12 C :   -0.064477
  13 H :    0.021535
  14 H :    0.030517
  15 H :    0.018053
  16 S :    0.390347
  17 C :   -0.172143
  18 C :   -0.074993
  19 C :   -0.056531
  20 C :   -0.184852
  21 H :    0.037704
  22 C :   -0.033879
  23 H :    0.029629
  24 H :    0.037164
  25 C :   -0.054291
  26 H :    0.021597
  27 H :    0.028275
  28 C :   -0.057722
  29 H :    0.018824
  30 H :    0.022672
  31 H :    0.031380
  32 H :    0.039517
  33 H :    0.021520

  Mayer bond orders larger than 0.100000
B(  0-S ,  1-C ) :   1.1457 B(  0-S ,  4-C ) :   1.1531 B(  1-C ,  2-C ) :   1.6251
B(  1-C , 32-H ) :   0.9570 B(  2-C ,  3-C ) :   1.2205 B(  2-C ,  6-C ) :   1.0193
B(  3-C ,  4-C ) :   1.5590 B(  3-C ,  5-H ) :   0.9927 B(  4-C , 20-C ) :   1.0503
B(  6-C ,  7-H ) :   0.9416 B(  6-C ,  8-H ) :   0.9438 B(  6-C ,  9-C ) :   1.0732
B(  9-C , 10-H ) :   0.9579 B(  9-C , 11-H ) :   0.9566 B(  9-C , 12-C ) :   1.0621
B( 12-C , 13-H ) :   0.9774 B( 12-C , 14-H ) :   0.9743 B( 12-C , 15-H ) :   0.9751
B( 16-S , 17-C ) :   1.1549 B( 16-S , 20-C ) :   1.1123 B( 17-C , 18-C ) :   1.6279
B( 17-C , 33-H ) :   0.9743 B( 18-C , 19-C ) :   1.2046 B( 18-C , 21-H ) :   0.9915
B( 19-C , 20-C ) :   1.6532 B( 19-C , 22-C ) :   1.0441 B( 22-C , 23-H ) :   0.9387
B( 22-C , 24-H ) :   0.9329 B( 22-C , 25-C ) :   1.0397 B( 25-C , 26-H ) :   0.9522
B( 25-C , 27-H ) :   0.9616 B( 25-C , 28-C ) :   1.0792 B( 28-C , 29-H ) :   0.9731
B( 28-C , 30-H ) :   0.9713 B( 28-C , 31-H ) :   0.9767

Dispersion correction           -0.014095087
FINAL SINGLE POINT ENERGY     -1339.864941243932

DIPOLE MOMENT
-------------
                                X             Y             Z
Electronic contribution:    -19.61765      12.85112     -11.90095
Nuclear contribution   :     19.91140     -13.35221      12.31568
                        -----------------------------------------
Total Dipole Moment    :      0.29376      -0.50109       0.41473
                        -----------------------------------------
Magnitude (a.u.)       :      0.71372
Magnitude (Debye)      :      1.81413

Rotational constants in cm-1:     0.017715     0.008809     0.006723
Rotational constants in MHz :   531.082001   264.092139   201.557212

                             ****ORCA TERMINATED NORMALLY****
TOTAL RUN TIME: 0 days 0 hours 0 minutes 21 seconds 556 msec
