                         Program Version 4.2.1 -  RELEASE  -
|  1> ! wB97X-D3 SP def2-SVP
|  2> %pal
|  3> nprocs 24
|  4> end
|  5>
|  6> * xyz 0 1
|  7> S 	 -44.1018 	 -4.02709 	 -11.9466
|  8> C 	 -45.6376 	 -4.06468 	 -11.1355
|  9> C 	 -46.1027 	 -2.81188 	 -10.9829
| 10> C 	 -45.355 	 -1.819 	 -11.6625
| 11> C 	 -44.2335 	 -2.37066 	 -12.314
| 12> H 	 -45.5699 	 -0.779622 	 -11.8003
| 13> C 	 -47.357 	 -2.37959 	 -10.2259
| 14> H 	 -47.3063 	 -1.34725 	 -9.91537
| 15> H 	 -47.2179 	 -2.92054 	 -9.27708
| 16> C 	 -48.7785 	 -2.6808 	 -10.8587
| 17> H 	 -49.0555 	 -3.7291 	 -10.8911
| 18> H 	 -49.4943 	 -2.34414 	 -10.0975
| 19> C 	 -48.8355 	 -1.94455 	 -12.2442
| 20> H 	 -47.9628 	 -2.12944 	 -12.9366
| 21> H 	 -49.5742 	 -2.32602 	 -12.8943
| 22> H 	 -49.0118 	 -0.871855 	 -12.1309
| 23> S 	 -42.4355 	 -0.392123 	 -12.3818
| 24> C 	 -41.4929 	 -0.197107 	 -13.8521
| 25> C 	 -41.7892 	 -1.10061 	 -14.8569
| 26> C 	 -42.7867 	 -1.99438 	 -14.3719
| 27> C 	 -43.3119 	 -1.68287 	 -13.1091
| 28> H 	 -41.2609 	 -1.06541 	 -15.7858
| 29> C 	 -43.3336 	 -3.16744 	 -15.2778
| 30> H 	 -44.3908 	 -3.18226 	 -15.1518
| 31> H 	 -42.9832 	 -4.1389 	 -14.8917
| 32> C 	 -42.9941 	 -2.99046 	 -16.7537
| 33> H 	 -41.884 	 -3.09882 	 -17.0586
| 34> H 	 -43.3753 	 -2.08056 	 -17.0812
| 35> C 	 -43.6437 	 -4.02578 	 -17.7196
| 36> H 	 -43.0325 	 -4.23924 	 -18.6404
| 37> H 	 -44.6925 	 -3.86677 	 -18.03
| 38> H 	 -43.7241 	 -5.0158 	 -17.2108
| 39> H 	 -46.1925 	 -4.99503 	 -10.9348
| 40> H 	 -40.7091 	 0.537042 	 -14.0559
| 41> *
| 42>
| 43>                          ****END OF INPUT****

CARTESIAN COORDINATES (ANGSTROEM)
---------------------------------
  S    -44.101800   -4.027090  -11.946600
  C    -45.637600   -4.064680  -11.135500
  C    -46.102700   -2.811880  -10.982900
  C    -45.355000   -1.819000  -11.662500
  C    -44.233500   -2.370660  -12.314000
  H    -45.569900   -0.779622  -11.800300
  C    -47.357000   -2.379590  -10.225900
  H    -47.306300   -1.347250   -9.915370
  H    -47.217900   -2.920540   -9.277080
  C    -48.778500   -2.680800  -10.858700
  H    -49.055500   -3.729100  -10.891100
  H    -49.494300   -2.344140  -10.097500
  C    -48.835500   -1.944550  -12.244200
  H    -47.962800   -2.129440  -12.936600
  H    -49.574200   -2.326020  -12.894300
  H    -49.011800   -0.871855  -12.130900
  S    -42.435500   -0.392123  -12.381800
  C    -41.492900   -0.197107  -13.852100
  C    -41.789200   -1.100610  -14.856900
  C    -42.786700   -1.994380  -14.371900
  C    -43.311900   -1.682870  -13.109100
  H    -41.260900   -1.065410  -15.785800
  C    -43.333600   -3.167440  -15.277800
  H    -44.390800   -3.182260  -15.151800
  H    -42.983200   -4.138900  -14.891700
  C    -42.994100   -2.990460  -16.753700
  H    -41.884000   -3.098820  -17.058600
  H    -43.375300   -2.080560  -17.081200
  C    -43.643700   -4.025780  -17.719600
  H    -43.032500   -4.239240  -18.640400
  H    -44.692500   -3.866770  -18.030000
  H    -43.724100   -5.015800  -17.210800
  H    -46.192500   -4.995030  -10.934800
  H    -40.709100    0.537042  -14.055900

 Total Charge           Charge          ....    0
 Multiplicity           Mult            ....    1
 Number of Electrons    NEL             ....  134
 Basis Dimension        Dim             ....  322

ORBITAL ENERGIES
----------------

  NO   OCC          E(Eh)            E(eV)
   0   2.0000     -88.968907     -2420.9671
   1   2.0000     -88.963214     -2420.8121
   2   2.0000     -10.319965      -280.8205
   3   2.0000     -10.317501      -280.7535
   4   2.0000     -10.317034      -280.7408
   5   2.0000     -10.308154      -280.4991
   6   2.0000     -10.306738      -280.4606
   7   2.0000     -10.295060      -280.1428
   8   2.0000     -10.294868      -280.1376
   9   2.0000     -10.292697      -280.0785
  10   2.0000     -10.292045      -280.0608
  11   2.0000     -10.290738      -280.0252
  12   2.0000     -10.289332      -279.9870
  13   2.0000     -10.288495      -279.9642
  14   2.0000     -10.282897      -279.8119
  15   2.0000     -10.278428      -279.6902
  16   2.0000      -8.083699      -219.9686
  17   2.0000      -8.078944      -219.8392
  18   2.0000      -6.042144      -164.4151
  19   2.0000      -6.038157      -164.3066
  20   2.0000      -6.037357      -164.2848
  21   2.0000      -6.034549      -164.2084
  22   2.0000      -6.033211      -164.1720
  23   2.0000      -6.029840      -164.0803
  24   2.0000      -1.014324       -27.6012
  25   2.0000      -0.987578       -26.8734
  26   2.0000      -0.904514       -24.6131
  27   2.0000      -0.903226       -24.5780
  28   2.0000      -0.873937       -23.7810
  29   2.0000      -0.848323       -23.0841
  30   2.0000      -0.839960       -22.8565
  31   2.0000      -0.812135       -22.0993
  32   2.0000      -0.781828       -21.2746
  33   2.0000      -0.768084       -20.9006
  34   2.0000      -0.709923       -19.3180
  35   2.0000      -0.706126       -19.2147
  36   2.0000      -0.697637       -18.9837
  37   2.0000      -0.656392       -17.8613
  38   2.0000      -0.640751       -17.4357
  39   2.0000      -0.606629       -16.5072
  40   2.0000      -0.592116       -16.1123
  41   2.0000      -0.573320       -15.6008
  42   2.0000      -0.566543       -15.4164
  43   2.0000      -0.549174       -14.9438
  44   2.0000      -0.534633       -14.5481
  45   2.0000      -0.526530       -14.3276
  46   2.0000      -0.514378       -13.9969
  47   2.0000      -0.507563       -13.8115
  48   2.0000      -0.505123       -13.7451
  49   2.0000      -0.494914       -13.4673
  50   2.0000      -0.482443       -13.1280
  51   2.0000      -0.478415       -13.0183
  52   2.0000      -0.472022       -12.8444
  53   2.0000      -0.468014       -12.7353
  54   2.0000      -0.457007       -12.4358
  55   2.0000      -0.452889       -12.3237
  56   2.0000      -0.440673       -11.9913
  57   2.0000      -0.428850       -11.6696
  58   2.0000      -0.424665       -11.5557
  59   2.0000      -0.423653       -11.5282
  60   2.0000      -0.421304       -11.4643
  61   2.0000      -0.415679       -11.3112
  62   2.0000      -0.413423       -11.2498
  63   2.0000      -0.344244        -9.3674
  64   2.0000      -0.331476        -9.0199
  65   2.0000      -0.328212        -8.9311
  66   2.0000      -0.290931        -7.9166
  67   0.0000       0.027608         0.7513
  68   0.0000       0.075791         2.0624
  69   0.0000       0.111604         3.0369
  70   0.0000       0.126349         3.4381
  71   0.0000       0.130409         3.5486

MULLIKEN ATOMIC CHARGES
-----------------------
   0 S :    0.124033
   1 C :   -0.153374
   2 C :   -0.056147
   3 C :    0.018307
   4 C :   -0.174745
   5 H :    0.004082
   6 C :    0.045295
   7 H :    0.022049
   8 H :    0.028537
   9 C :   -0.043385
  10 H :    0.024283
  11 H :    0.031886
  12 C :   -0.066018
  13 H :    0.050777
  14 H :    0.016803
  15 H :    0.039629
  16 S :    0.133768
  17 C :   -0.075971
  18 C :   -0.050714
  19 C :   -0.055271
  20 C :   -0.155663
  21 H :    0.019626
  22 C :    0.104340
  23 H :    0.028704
  24 H :    0.036048
  25 C :   -0.093946
  26 H :    0.049503
  27 H :    0.023148
  28 C :   -0.082968
  29 H :    0.040740
  30 H :    0.035923
  31 H :    0.022152
  32 H :    0.059003
  33 H :    0.049566
Sum of atomic charges:   -0.0000000

LOEWDIN ATOMIC CHARGES
----------------------
   0 S :    0.438130
   1 C :   -0.209209
   2 C :   -0.067958
   3 C :   -0.064989
   4 C :   -0.214004
   5 H :    0.027103
   6 C :   -0.032956
   7 H :    0.028022
   8 H :    0.032868
   9 C :   -0.036864
  10 H :    0.020929
  11 H :    0.028387
  12 C :   -0.074817
  13 H :    0.038465
  14 H :    0.018415
  15 H :    0.027843
  16 S :    0.429543
  17 C :   -0.182553
  18 C :   -0.071007
  19 C :   -0.045700
  20 C :   -0.225684
  21 H :    0.033947
  22 C :   -0.030263
  23 H :    0.028927
  24 H :    0.030301
  25 C :   -0.046995
  26 H :    0.036676
  27 H :    0.016592
  28 C :   -0.078472
  29 H :    0.030708
  30 H :    0.023690
  31 H :    0.024841
  32 H :    0.036121
  33 H :    0.029963

  Mayer bond orders larger than 0.100000
B(  0-S ,  1-C ) :   1.1372 B(  0-S ,  4-C ) :   1.1757 B(  1-C ,  2-C ) :   1.6037
B(  1-C , 32-H ) :   0.9702 B(  2-C ,  3-C ) :   1.2422 B(  2-C ,  6-C ) :   1.0090
B(  3-C ,  4-C ) :   1.5163 B(  3-C ,  5-H ) :   1.0083 B(  4-C , 20-C ) :   1.0811
B(  6-C ,  7-H ) :   0.9492 B(  6-C ,  8-H ) :   0.9377 B(  6-C ,  9-C ) :   1.0665
B(  9-C , 10-H ) :   0.9623 B(  9-C , 11-H ) :   0.9574 B(  9-C , 12-C ) :   1.0566
B( 12-C , 13-H ) :   0.9735 B( 12-C , 14-H ) :   0.9746 B( 12-C , 15-H ) :   0.9782
B( 16-S , 17-C ) :   1.1642 B( 16-S , 20-C ) :   1.1419 B( 17-C , 18-C ) :   1.6013
B( 17-C , 20-C ) :   0.1015 B( 17-C , 33-H ) :   0.9563 B( 18-C , 19-C ) :   1.2560
B( 18-C , 21-H ) :   0.9931 B( 19-C , 20-C ) :   1.5712 B( 19-C , 22-C ) :   1.0143
B( 22-C , 23-H ) :   0.9381 B( 22-C , 24-H ) :   0.9233 B( 22-C , 25-C ) :   1.0927
B( 25-C , 26-H ) :   0.9506 B( 25-C , 27-H ) :   0.9554 B( 25-C , 28-C ) :   1.0664
B( 28-C , 29-H ) :   0.9791 B( 28-C , 30-H ) :   0.9763 B( 28-C , 31-H ) :   0.9741

Dispersion correction           -0.014270396
FINAL SINGLE POINT ENERGY     -1339.864377634819

DIPOLE MOMENT
-------------
                                X             Y             Z
Electronic contribution:     17.21556       4.93133      13.50863
Nuclear contribution   :    -17.54463      -4.95472     -13.80257
                        -----------------------------------------
Total Dipole Moment    :     -0.32907      -0.02339      -0.29394
                        -----------------------------------------
Magnitude (a.u.)       :      0.44186
Magnitude (Debye)      :      1.12311

Rotational constants in cm-1:     0.018510     0.008268     0.006930
Rotational constants in MHz :   554.924450   247.867229   207.770539

                             ****ORCA TERMINATED NORMALLY****
TOTAL RUN TIME: 0 days 0 hours 0 minutes 21 seconds 333 msec
