                         Program Version 4.2.1 -  RELEASE  -
|  1> ! wB97X-D3 SP def2-SVP
|  2> %pal
|  3> nprocs 24
|  4> end
|  5>
|  6> * xyz 0 1
|  7> S 	 -53.8781 	 -49.2866 	 -82.3651
|  8> C 	 -53.2245 	 -47.9727 	 -81.4253
|  9> C 	 -51.8834 	 -47.8048 	 -81.6619
| 10> C 	 -51.2883 	 -48.9662 	 -82.2816
| 11> C 	 -52.2478 	 -49.8886 	 -82.6873
| 12> H 	 -50.2161 	 -49.1759 	 -82.4812
| 13> C 	 -51.0912 	 -46.7041 	 -80.9957
| 14> H 	 -51.3104 	 -46.9677 	 -80.0159
| 15> H 	 -51.5395 	 -45.7307 	 -81.2164
| 16> C 	 -49.5951 	 -46.4455 	 -81.1413
| 17> H 	 -49.1064 	 -46.2427 	 -80.2502
| 18> H 	 -49.1502 	 -47.3892 	 -81.3603
| 19> C 	 -49.2512 	 -45.4498 	 -82.2894
| 20> H 	 -48.2118 	 -45.4342 	 -82.4391
| 21> H 	 -49.6272 	 -45.8641 	 -83.2619
| 22> H 	 -49.6032 	 -44.4138 	 -82.1524
| 23> S 	 -52.8256 	 -52.5399 	 -82.5075
| 24> C 	 -52.3496 	 -53.6774 	 -83.7319
| 25> C 	 -51.5409 	 -53.0055 	 -84.6603
| 26> C 	 -51.2628 	 -51.621 	 -84.4111
| 27> C 	 -52.0321 	 -51.1687 	 -83.2969
| 28> H 	 -51.1829 	 -53.6105 	 -85.5241
| 29> C 	 -50.4809 	 -50.719 	 -85.3245
| 30> H 	 -49.4558 	 -51.0441 	 -85.5936
| 31> H 	 -50.2594 	 -49.782 	 -84.8959
| 32> C 	 -51.0367 	 -50.4927 	 -86.7523
| 33> H 	 -52.0575 	 -50.053 	 -86.5789
| 34> H 	 -51.2105 	 -51.5038 	 -87.2659
| 35> C 	 -50.1587 	 -49.5535 	 -87.5631
| 36> H 	 -49.2949 	 -50.2006 	 -87.8691
| 37> H 	 -49.7496 	 -48.7054 	 -87.0244
| 38> H 	 -50.7075 	 -49.1639 	 -88.4474
| 39> H 	 -53.843 	 -47.1408 	 -81.077
| 40> H 	 -52.5633 	 -54.6893 	 -83.6267
| 41> *
| 42>
| 43>                          ****END OF INPUT****

CARTESIAN COORDINATES (ANGSTROEM)
---------------------------------
  S    -53.878100  -49.286600  -82.365100
  C    -53.224500  -47.972700  -81.425300
  C    -51.883400  -47.804800  -81.661900
  C    -51.288300  -48.966200  -82.281600
  C    -52.247800  -49.888600  -82.687300
  H    -50.216100  -49.175900  -82.481200
  C    -51.091200  -46.704100  -80.995700
  H    -51.310400  -46.967700  -80.015900
  H    -51.539500  -45.730700  -81.216400
  C    -49.595100  -46.445500  -81.141300
  H    -49.106400  -46.242700  -80.250200
  H    -49.150200  -47.389200  -81.360300
  C    -49.251200  -45.449800  -82.289400
  H    -48.211800  -45.434200  -82.439100
  H    -49.627200  -45.864100  -83.261900
  H    -49.603200  -44.413800  -82.152400
  S    -52.825600  -52.539900  -82.507500
  C    -52.349600  -53.677400  -83.731900
  C    -51.540900  -53.005500  -84.660300
  C    -51.262800  -51.621000  -84.411100
  C    -52.032100  -51.168700  -83.296900
  H    -51.182900  -53.610500  -85.524100
  C    -50.480900  -50.719000  -85.324500
  H    -49.455800  -51.044100  -85.593600
  H    -50.259400  -49.782000  -84.895900
  C    -51.036700  -50.492700  -86.752300
  H    -52.057500  -50.053000  -86.578900
  H    -51.210500  -51.503800  -87.265900
  C    -50.158700  -49.553500  -87.563100
  H    -49.294900  -50.200600  -87.869100
  H    -49.749600  -48.705400  -87.024400
  H    -50.707500  -49.163900  -88.447400
  H    -53.843000  -47.140800  -81.077000
  H    -52.563300  -54.689300  -83.626700

 Total Charge           Charge          ....    0
 Multiplicity           Mult            ....    1
 Number of Electrons    NEL             ....  134
 Basis Dimension        Dim             ....  322

ORBITAL ENERGIES
----------------

  NO   OCC          E(Eh)            E(eV)
   0   2.0000     -88.965792     -2420.8823
   1   2.0000     -88.963221     -2420.8123
   2   2.0000     -10.331118      -281.1240
   3   2.0000     -10.329923      -281.0915
   4   2.0000     -10.315939      -280.7110
   5   2.0000     -10.313075      -280.6330
   6   2.0000     -10.308260      -280.5020
   7   2.0000     -10.304220      -280.3921
   8   2.0000     -10.301335      -280.3136
   9   2.0000     -10.299276      -280.2575
  10   2.0000     -10.292838      -280.0824
  11   2.0000     -10.289799      -279.9997
  12   2.0000     -10.284273      -279.8493
  13   2.0000     -10.284050      -279.8432
  14   2.0000     -10.282746      -279.8077
  15   2.0000     -10.281745      -279.7805
  16   2.0000      -8.080274      -219.8754
  17   2.0000      -8.077991      -219.8133
  18   2.0000      -6.038776      -164.3235
  19   2.0000      -6.036381      -164.2583
  20   2.0000      -6.034942      -164.2191
  21   2.0000      -6.032305      -164.1474
  22   2.0000      -6.030919      -164.1097
  23   2.0000      -6.029039      -164.0585
  24   2.0000      -1.004447       -27.3324
  25   2.0000      -0.981225       -26.7005
  26   2.0000      -0.914031       -24.8721
  27   2.0000      -0.909964       -24.7614
  28   2.0000      -0.872052       -23.7297
  29   2.0000      -0.851322       -23.1656
  30   2.0000      -0.843653       -22.9570
  31   2.0000      -0.814348       -22.1595
  32   2.0000      -0.783487       -21.3198
  33   2.0000      -0.772575       -21.0228
  34   2.0000      -0.717926       -19.5358
  35   2.0000      -0.695923       -18.9370
  36   2.0000      -0.693497       -18.8710
  37   2.0000      -0.656304       -17.8589
  38   2.0000      -0.638112       -17.3639
  39   2.0000      -0.620732       -16.8910
  40   2.0000      -0.603924       -16.4336
  41   2.0000      -0.571238       -15.5442
  42   2.0000      -0.564423       -15.3587
  43   2.0000      -0.558531       -15.1984
  44   2.0000      -0.534992       -14.5579
  45   2.0000      -0.525951       -14.3118
  46   2.0000      -0.516336       -14.0502
  47   2.0000      -0.511624       -13.9220
  48   2.0000      -0.500599       -13.6220
  49   2.0000      -0.497121       -13.5274
  50   2.0000      -0.490538       -13.3482
  51   2.0000      -0.483265       -13.1503
  52   2.0000      -0.473392       -12.8816
  53   2.0000      -0.464518       -12.6402
  54   2.0000      -0.458187       -12.4679
  55   2.0000      -0.449084       -12.2202
  56   2.0000      -0.447173       -12.1682
  57   2.0000      -0.439701       -11.9649
  58   2.0000      -0.430607       -11.7174
  59   2.0000      -0.429836       -11.6964
  60   2.0000      -0.422006       -11.4834
  61   2.0000      -0.411667       -11.2020
  62   2.0000      -0.406477       -11.0608
  63   2.0000      -0.346290        -9.4230
  64   2.0000      -0.330246        -8.9864
  65   2.0000      -0.323765        -8.8101
  66   2.0000      -0.289141        -7.8679
  67   0.0000       0.023027         0.6266
  68   0.0000       0.067522         1.8374
  69   0.0000       0.111042         3.0216
  70   0.0000       0.114940         3.1277
  71   0.0000       0.135798         3.6953

MULLIKEN ATOMIC CHARGES
-----------------------
   0 S :    0.123103
   1 C :   -0.135045
   2 C :   -0.075139
   3 C :    0.009188
   4 C :   -0.153371
   5 H :    0.038309
   6 C :    0.033554
   7 H :    0.033349
   8 H :    0.025663
   9 C :   -0.002076
  10 H :    0.011247
  11 H :   -0.001585
  12 C :   -0.062058
  13 H :    0.021550
  14 H :    0.034317
  15 H :    0.045612
  16 S :    0.104447
  17 C :   -0.080115
  18 C :   -0.063453
  19 C :    0.041067
  20 C :   -0.189515
  21 H :    0.035424
  22 C :    0.070564
  23 H :    0.012931
  24 H :   -0.007428
  25 C :   -0.127132
  26 H :    0.038065
  27 H :    0.044559
  28 C :   -0.050112
  29 H :    0.036709
  30 H :    0.033673
  31 H :    0.049573
  32 H :    0.059299
  33 H :    0.044826
Sum of atomic charges:   -0.0000000

LOEWDIN ATOMIC CHARGES
----------------------
   0 S :    0.404919
   1 C :   -0.212040
   2 C :   -0.054042
   3 C :   -0.069920
   4 C :   -0.190867
   5 H :    0.037340
   6 C :   -0.035971
   7 H :    0.033930
   8 H :    0.032695
   9 C :   -0.034675
  10 H :    0.019523
  11 H :    0.020474
  12 C :   -0.063543
  13 H :    0.018399
  14 H :    0.031857
  15 H :    0.027265
  16 S :    0.412483
  17 C :   -0.183548
  18 C :   -0.073583
  19 C :   -0.050832
  20 C :   -0.193892
  21 H :    0.035983
  22 C :   -0.039283
  23 H :    0.031941
  24 H :    0.019638
  25 C :   -0.047276
  26 H :    0.024352
  27 H :    0.029760
  28 C :   -0.070606
  29 H :    0.031576
  30 H :    0.024237
  31 H :    0.034463
  32 H :    0.031291
  33 H :    0.017951

  Mayer bond orders larger than 0.100000
B(  0-S ,  1-C ) :   1.1272 B(  0-S ,  4-C ) :   1.1561 B(  1-C ,  2-C ) :   1.6240
B(  1-C , 32-H ) :   0.9643 B(  2-C ,  3-C ) :   1.2214 B(  2-C ,  6-C ) :   0.9996
B(  3-C ,  4-C ) :   1.5763 B(  3-C ,  5-H ) :   0.9804 B(  4-C , 20-C ) :   1.0681
B(  6-C ,  7-H ) :   0.9425 B(  6-C ,  8-H ) :   0.9417 B(  6-C ,  9-C ) :   1.0776
B(  9-C , 10-H ) :   0.9493 B(  9-C , 11-H ) :   0.9445 B(  9-C , 12-C ) :   1.0802
B( 12-C , 13-H ) :   0.9746 B( 12-C , 14-H ) :   0.9769 B( 12-C , 15-H ) :   0.9757
B( 16-S , 17-C ) :   1.1623 B( 16-S , 20-C ) :   1.1689 B( 17-C , 18-C ) :   1.5693
B( 17-C , 20-C ) :   0.1119 B( 17-C , 33-H ) :   0.9823 B( 18-C , 19-C ) :   1.2548
B( 18-C , 21-H ) :   0.9837 B( 19-C , 20-C ) :   1.5240 B( 19-C , 22-C ) :   1.0610
B( 22-C , 23-H ) :   0.9296 B( 22-C , 24-H ) :   0.9299 B( 22-C , 25-C ) :   1.0501
B( 25-C , 26-H ) :   0.9561 B( 25-C , 27-H ) :   0.9560 B( 25-C , 28-C ) :   1.0729
B( 28-C , 29-H ) :   0.9722 B( 28-C , 30-H ) :   0.9749 B( 28-C , 31-H ) :   0.9733

Dispersion correction           -0.013601847
FINAL SINGLE POINT ENERGY     -1339.861171620258

DIPOLE MOMENT
-------------
                                X             Y             Z
Electronic contribution:    -20.21780     -18.32287      12.10054
Nuclear contribution   :     20.80629      18.63958     -12.30622
                        -----------------------------------------
Total Dipole Moment    :      0.58849       0.31671      -0.20568
                        -----------------------------------------
Magnitude (a.u.)       :      0.69923
Magnitude (Debye)      :      1.77731

Rotational constants in cm-1:     0.016331     0.009067     0.006716
Rotational constants in MHz :   489.589121   271.810506   201.336142

                             ****ORCA TERMINATED NORMALLY****
TOTAL RUN TIME: 0 days 0 hours 0 minutes 20 seconds 16 msec
