                         Program Version 4.2.1 -  RELEASE  -
|  1> ! wB97X-D3 SP def2-SVP
|  2> %pal
|  3> nprocs 24
|  4> end
|  5>
|  6> * xyz 0 1
|  7> S 	 -133.974 	 66.6259 	 -56.1628
|  8> C 	 -133.451 	 65.7197 	 -57.6027
|  9> C 	 -133.906 	 66.3029 	 -58.7895
| 10> C 	 -134.889 	 67.3056 	 -58.4864
| 11> C 	 -134.85 	 67.7434 	 -57.1599
| 12> H 	 -135.592 	 67.6876 	 -59.2034
| 13> C 	 -133.636 	 65.7856 	 -60.1557
| 14> H 	 -133.591 	 64.7326 	 -60.034
| 15> H 	 -132.626 	 66.0564 	 -60.4035
| 16> C 	 -134.683 	 66.2784 	 -61.272
| 17> H 	 -134.877 	 67.373 	 -61.4685
| 18> H 	 -134.245 	 66.1003 	 -62.3527
| 19> C 	 -136.081 	 65.7099 	 -61.2804
| 20> H 	 -136.148 	 64.645 	 -60.968
| 21> H 	 -136.624 	 66.3644 	 -60.6589
| 22> H 	 -136.415 	 65.8157 	 -62.2574
| 23> S 	 -134.956 	 70.5187 	 -56.4425
| 24> C 	 -136.453 	 71.0722 	 -55.826
| 25> C 	 -137.376 	 70.0988 	 -55.6209
| 26> C 	 -136.898 	 68.8137 	 -55.9916
| 27> C 	 -135.665 	 68.8327 	 -56.6162
| 28> H 	 -138.275 	 70.3368 	 -55.1441
| 29> C 	 -137.699 	 67.5472 	 -55.7878
| 30> H 	 -138.553 	 67.8121 	 -55.172
| 31> H 	 -136.983 	 66.7593 	 -55.2918
| 32> C 	 -138.239 	 66.9063 	 -57.0905
| 33> H 	 -137.445 	 66.2759 	 -57.5648
| 34> H 	 -138.412 	 67.6895 	 -57.8161
| 35> C 	 -139.445 	 65.9702 	 -56.9303
| 36> H 	 -140.161 	 66.2431 	 -56.1506
| 37> H 	 -139.063 	 64.9504 	 -56.6699
| 38> H 	 -139.983 	 65.923 	 -57.8803
| 39> H 	 -132.615 	 64.9234 	 -57.5713
| 40> H 	 -136.528 	 72.1305 	 -55.4689
| 41> *
| 42>
| 43>                          ****END OF INPUT****

CARTESIAN COORDINATES (ANGSTROEM)
---------------------------------
  S    -133.974000   66.625900  -56.162800
  C    -133.451000   65.719700  -57.602700
  C    -133.906000   66.302900  -58.789500
  C    -134.889000   67.305600  -58.486400
  C    -134.850000   67.743400  -57.159900
  H    -135.592000   67.687600  -59.203400
  C    -133.636000   65.785600  -60.155700
  H    -133.591000   64.732600  -60.034000
  H    -132.626000   66.056400  -60.403500
  C    -134.683000   66.278400  -61.272000
  H    -134.877000   67.373000  -61.468500
  H    -134.245000   66.100300  -62.352700
  C    -136.081000   65.709900  -61.280400
  H    -136.148000   64.645000  -60.968000
  H    -136.624000   66.364400  -60.658900
  H    -136.415000   65.815700  -62.257400
  S    -134.956000   70.518700  -56.442500
  C    -136.453000   71.072200  -55.826000
  C    -137.376000   70.098800  -55.620900
  C    -136.898000   68.813700  -55.991600
  C    -135.665000   68.832700  -56.616200
  H    -138.275000   70.336800  -55.144100
  C    -137.699000   67.547200  -55.787800
  H    -138.553000   67.812100  -55.172000
  H    -136.983000   66.759300  -55.291800
  C    -138.239000   66.906300  -57.090500
  H    -137.445000   66.275900  -57.564800
  H    -138.412000   67.689500  -57.816100
  C    -139.445000   65.970200  -56.930300
  H    -140.161000   66.243100  -56.150600
  H    -139.063000   64.950400  -56.669900
  H    -139.983000   65.923000  -57.880300
  H    -132.615000   64.923400  -57.571300
  H    -136.528000   72.130500  -55.468900

 Total Charge           Charge          ....    0
 Multiplicity           Mult            ....    1
 Number of Electrons    NEL             ....  134
 Basis Dimension        Dim             ....  322

ORBITAL ENERGIES
----------------

  NO   OCC          E(Eh)            E(eV)
   0   2.0000     -88.968890     -2420.9666
   1   2.0000     -88.960251     -2420.7315
   2   2.0000     -10.327594      -281.0281
   3   2.0000     -10.324631      -280.9475
   4   2.0000     -10.321673      -280.8670
   5   2.0000     -10.316159      -280.7170
   6   2.0000     -10.304458      -280.3985
   7   2.0000     -10.302789      -280.3531
   8   2.0000     -10.301666      -280.3226
   9   2.0000     -10.298020      -280.2234
  10   2.0000     -10.295882      -280.1652
  11   2.0000     -10.294578      -280.1297
  12   2.0000     -10.285572      -279.8846
  13   2.0000     -10.282753      -279.8079
  14   2.0000     -10.278712      -279.6980
  15   2.0000     -10.272391      -279.5260
  16   2.0000      -8.082885      -219.9465
  17   2.0000      -8.074908      -219.7294
  18   2.0000      -6.041401      -164.3949
  19   2.0000      -6.037456      -164.2875
  20   2.0000      -6.033726      -164.1860
  21   2.0000      -6.033303      -164.1745
  22   2.0000      -6.029543      -164.0722
  23   2.0000      -6.025682      -163.9671
  24   2.0000      -1.001200       -27.2440
  25   2.0000      -0.982022       -26.7222
  26   2.0000      -0.911371       -24.7997
  27   2.0000      -0.902448       -24.5568
  28   2.0000      -0.868608       -23.6360
  29   2.0000      -0.849017       -23.1029
  30   2.0000      -0.847422       -23.0595
  31   2.0000      -0.814767       -22.1709
  32   2.0000      -0.785885       -21.3850
  33   2.0000      -0.767424       -20.8827
  34   2.0000      -0.706232       -19.2175
  35   2.0000      -0.692684       -18.8489
  36   2.0000      -0.680916       -18.5287
  37   2.0000      -0.657536       -17.8925
  38   2.0000      -0.634097       -17.2547
  39   2.0000      -0.621638       -16.9156
  40   2.0000      -0.592828       -16.1317
  41   2.0000      -0.566629       -15.4187
  42   2.0000      -0.558141       -15.1878
  43   2.0000      -0.555702       -15.1214
  44   2.0000      -0.535908       -14.5828
  45   2.0000      -0.528727       -14.3874
  46   2.0000      -0.519725       -14.1424
  47   2.0000      -0.512517       -13.9463
  48   2.0000      -0.502640       -13.6775
  49   2.0000      -0.494577       -13.4581
  50   2.0000      -0.485619       -13.2144
  51   2.0000      -0.478670       -13.0253
  52   2.0000      -0.469791       -12.7837
  53   2.0000      -0.459825       -12.5125
  54   2.0000      -0.459357       -12.4997
  55   2.0000      -0.447766       -12.1843
  56   2.0000      -0.444319       -12.0905
  57   2.0000      -0.440471       -11.9858
  58   2.0000      -0.432722       -11.7750
  59   2.0000      -0.431145       -11.7321
  60   2.0000      -0.416763       -11.3407
  61   2.0000      -0.409157       -11.1337
  62   2.0000      -0.402492       -10.9524
  63   2.0000      -0.330840        -9.0026
  64   2.0000      -0.327252        -8.9050
  65   2.0000      -0.315531        -8.5860
  66   2.0000      -0.309412        -8.4195
  67   0.0000       0.039906         1.0859
  68   0.0000       0.049347         1.3428
  69   0.0000       0.112201         3.0532
  70   0.0000       0.112856         3.0710
  71   0.0000       0.122412         3.3310

MULLIKEN ATOMIC CHARGES
-----------------------
   0 S :    0.124003
   1 C :   -0.170439
   2 C :   -0.107325
   3 C :    0.034840
   4 C :   -0.163097
   5 H :    0.011727
   6 C :    0.153107
   7 H :    0.025269
   8 H :    0.036496
   9 C :   -0.189351
  10 H :    0.040790
  11 H :    0.030285
  12 C :    0.014445
  13 H :    0.042383
  14 H :    0.013778
  15 H :    0.020127
  16 S :    0.095861
  17 C :   -0.101070
  18 C :   -0.010961
  19 C :   -0.027470
  20 C :   -0.185126
  21 H :   -0.004876
  22 C :    0.076283
  23 H :    0.014068
  24 H :    0.051875
  25 C :   -0.103880
  26 H :    0.049105
  27 H :    0.026678
  28 C :   -0.054000
  29 H :    0.029554
  30 H :    0.038081
  31 H :    0.037742
  32 H :    0.076543
  33 H :    0.074554
Sum of atomic charges:   -0.0000000

LOEWDIN ATOMIC CHARGES
----------------------
   0 S :    0.409239
   1 C :   -0.212656
   2 C :   -0.062314
   3 C :   -0.050875
   4 C :   -0.206009
   5 H :    0.027344
   6 C :   -0.025267
   7 H :    0.033299
   8 H :    0.038120
   9 C :   -0.058523
  10 H :    0.033146
  11 H :    0.030365
  12 C :   -0.058160
  13 H :    0.030919
  14 H :    0.015419
  15 H :    0.022487
  16 S :    0.382104
  17 C :   -0.187436
  18 C :   -0.078424
  19 C :   -0.047647
  20 C :   -0.186920
  21 H :    0.024066
  22 C :   -0.035221
  23 H :    0.025407
  24 H :    0.043847
  25 C :   -0.048831
  26 H :    0.032480
  27 H :    0.018024
  28 C :   -0.069534
  29 H :    0.021192
  30 H :    0.030694
  31 H :    0.029498
  32 H :    0.042092
  33 H :    0.038076

  Mayer bond orders larger than 0.100000
B(  0-S ,  1-C ) :   1.1387 B(  0-S ,  4-C ) :   1.1578 B(  1-C ,  2-C ) :   1.6042
B(  1-C ,  4-C ) :   0.1043 B(  1-C , 32-H ) :   0.9552 B(  2-C ,  3-C ) :   1.2545
B(  2-C ,  6-C ) :   1.0070 B(  3-C ,  4-C ) :   1.5686 B(  3-C ,  5-H ) :   0.9822
B(  4-C , 20-C ) :   1.0417 B(  6-C ,  7-H ) :   0.9418 B(  6-C ,  8-H ) :   0.9244
B(  6-C ,  9-C ) :   1.0538 B(  9-C , 10-H ) :   0.9565 B(  9-C , 11-H ) :   0.9632
B(  9-C , 12-C ) :   1.0703 B( 12-C , 13-H ) :   0.9745 B( 12-C , 14-H ) :   0.9783
B( 12-C , 15-H ) :   0.9682 B( 16-S , 17-C ) :   1.1782 B( 16-S , 20-C ) :   1.1128
B( 17-C , 18-C ) :   1.6079 B( 17-C , 33-H ) :   0.9547 B( 18-C , 19-C ) :   1.2295
B( 18-C , 21-H ) :   1.0032 B( 19-C , 20-C ) :   1.6083 B( 19-C , 22-C ) :   1.0552
B( 22-C , 23-H ) :   0.9339 B( 22-C , 24-H ) :   0.9231 B( 22-C , 25-C ) :   1.0592
B( 25-C , 26-H ) :   0.9493 B( 25-C , 27-H ) :   0.9641 B( 25-C , 28-C ) :   1.0790
B( 28-C , 29-H ) :   0.9775 B( 28-C , 30-H ) :   0.9782 B( 28-C , 31-H ) :   0.9751

Dispersion correction           -0.015471559
FINAL SINGLE POINT ENERGY     -1339.854446796945

DIPOLE MOMENT
-------------
                                X             Y             Z
Electronic contribution:     15.80378      15.15129      16.78311
Nuclear contribution   :    -16.11461     -15.41870     -17.17872
                        -----------------------------------------
Total Dipole Moment    :     -0.31083      -0.26741      -0.39561
                        -----------------------------------------
Magnitude (a.u.)       :      0.56976
Magnitude (Debye)      :      1.44822

Rotational constants in cm-1:     0.016762     0.009633     0.008079
Rotational constants in MHz :   502.525216   288.781786   242.210232

                             ****ORCA TERMINATED NORMALLY****
TOTAL RUN TIME: 0 days 0 hours 0 minutes 22 seconds 512 msec
