                         Program Version 4.2.1 -  RELEASE  -
|  1> ! wB97X-D3 SP def2-SVP
|  2> %pal
|  3> nprocs 24
|  4> end
|  5>
|  6> * xyz 0 1
|  7> S 	 -89.228 	 -49.7621 	 -74.5656
|  8> C 	 -87.735 	 -49.0123 	 -74.0808
|  9> C 	 -87.0949 	 -48.5233 	 -75.1806
| 10> C 	 -87.8358 	 -48.6404 	 -76.4054
| 11> C 	 -89.0062 	 -49.3392 	 -76.2569
| 12> H 	 -87.5531 	 -48.4966 	 -77.3896
| 13> C 	 -85.7885 	 -47.8415 	 -75.2637
| 14> H 	 -85.0893 	 -48.2979 	 -75.9978
| 15> H 	 -85.2861 	 -48.123 	 -74.3356
| 16> C 	 -85.7482 	 -46.3108 	 -75.4589
| 17> H 	 -84.7097 	 -46.0026 	 -75.7035
| 18> H 	 -86.286 	 -46.1651 	 -76.3893
| 19> C 	 -86.3053 	 -45.6641 	 -74.1512
| 20> H 	 -85.7389 	 -45.9223 	 -73.3253
| 21> H 	 -86.1986 	 -44.5804 	 -74.2186
| 22> H 	 -87.3143 	 -45.9776 	 -73.9128
| 23> S 	 -90.8271 	 -51.3653 	 -76.9578
| 24> C 	 -91.898 	 -51.068 	 -78.2855
| 25> C 	 -91.5702 	 -49.9166 	 -78.9566
| 26> C 	 -90.4613 	 -49.2292 	 -78.398
| 27> C 	 -89.948 	 -49.856 	 -77.2779
| 28> H 	 -92.1874 	 -49.6842 	 -79.8386
| 29> C 	 -89.9848 	 -47.8507 	 -78.8087
| 30> H 	 -90.0826 	 -47.692 	 -79.9222
| 31> H 	 -88.9078 	 -47.8225 	 -78.6681
| 32> C 	 -90.6523 	 -46.7201 	 -77.9368
| 33> H 	 -90.6327 	 -47.0206 	 -76.8803
| 34> H 	 -91.6763 	 -46.4988 	 -78.3621
| 35> C 	 -89.8024 	 -45.4545 	 -78.1371
| 36> H 	 -89.0225 	 -45.3933 	 -77.3435
| 37> H 	 -90.3825 	 -44.5075 	 -78.0791
| 38> H 	 -89.2092 	 -45.4581 	 -79.0485
| 39> H 	 -87.2588 	 -48.9605 	 -73.1093
| 40> H 	 -92.7174 	 -51.7869 	 -78.5823
| 41> *
| 42>
| 43>                          ****END OF INPUT****

CARTESIAN COORDINATES (ANGSTROEM)
---------------------------------
  S    -89.228000  -49.762100  -74.565600
  C    -87.735000  -49.012300  -74.080800
  C    -87.094900  -48.523300  -75.180600
  C    -87.835800  -48.640400  -76.405400
  C    -89.006200  -49.339200  -76.256900
  H    -87.553100  -48.496600  -77.389600
  C    -85.788500  -47.841500  -75.263700
  H    -85.089300  -48.297900  -75.997800
  H    -85.286100  -48.123000  -74.335600
  C    -85.748200  -46.310800  -75.458900
  H    -84.709700  -46.002600  -75.703500
  H    -86.286000  -46.165100  -76.389300
  C    -86.305300  -45.664100  -74.151200
  H    -85.738900  -45.922300  -73.325300
  H    -86.198600  -44.580400  -74.218600
  H    -87.314300  -45.977600  -73.912800
  S    -90.827100  -51.365300  -76.957800
  C    -91.898000  -51.068000  -78.285500
  C    -91.570200  -49.916600  -78.956600
  C    -90.461300  -49.229200  -78.398000
  C    -89.948000  -49.856000  -77.277900
  H    -92.187400  -49.684200  -79.838600
  C    -89.984800  -47.850700  -78.808700
  H    -90.082600  -47.692000  -79.922200
  H    -88.907800  -47.822500  -78.668100
  C    -90.652300  -46.720100  -77.936800
  H    -90.632700  -47.020600  -76.880300
  H    -91.676300  -46.498800  -78.362100
  C    -89.802400  -45.454500  -78.137100
  H    -89.022500  -45.393300  -77.343500
  H    -90.382500  -44.507500  -78.079100
  H    -89.209200  -45.458100  -79.048500
  H    -87.258800  -48.960500  -73.109300
  H    -92.717400  -51.786900  -78.582300

 Total Charge           Charge          ....    0
 Multiplicity           Mult            ....    1
 Number of Electrons    NEL             ....  134
 Basis Dimension        Dim             ....  322

ORBITAL ENERGIES
----------------

  NO   OCC          E(Eh)            E(eV)
   0   2.0000     -88.966659     -2420.9059
   1   2.0000     -88.966009     -2420.8882
   2   2.0000     -10.333191      -281.1804
   3   2.0000     -10.329321      -281.0751
   4   2.0000     -10.321403      -280.8596
   5   2.0000     -10.313897      -280.6554
   6   2.0000     -10.304001      -280.3861
   7   2.0000     -10.298096      -280.2254
   8   2.0000     -10.297146      -280.1996
   9   2.0000     -10.295896      -280.1656
  10   2.0000     -10.293277      -280.0943
  11   2.0000     -10.292027      -280.0603
  12   2.0000     -10.286328      -279.9052
  13   2.0000     -10.286278      -279.9039
  14   2.0000     -10.278359      -279.6884
  15   2.0000     -10.273051      -279.5439
  16   2.0000      -8.081355      -219.9049
  17   2.0000      -8.080752      -219.8884
  18   2.0000      -6.039788      -164.3510
  19   2.0000      -6.039411      -164.3407
  20   2.0000      -6.035866      -164.2443
  21   2.0000      -6.035192      -164.2259
  22   2.0000      -6.032197      -164.1444
  23   2.0000      -6.031395      -164.1226
  24   2.0000      -1.009766       -27.4771
  25   2.0000      -0.988689       -26.9036
  26   2.0000      -0.912815       -24.8390
  27   2.0000      -0.906191       -24.6587
  28   2.0000      -0.868920       -23.6445
  29   2.0000      -0.851649       -23.1745
  30   2.0000      -0.844012       -22.9667
  31   2.0000      -0.818010       -22.2592
  32   2.0000      -0.781117       -21.2553
  33   2.0000      -0.769501       -20.9392
  34   2.0000      -0.712000       -19.3745
  35   2.0000      -0.699899       -19.0452
  36   2.0000      -0.693059       -18.8591
  37   2.0000      -0.659605       -17.9488
  38   2.0000      -0.644252       -17.5310
  39   2.0000      -0.623203       -16.9582
  40   2.0000      -0.594329       -16.1725
  41   2.0000      -0.571033       -15.5386
  42   2.0000      -0.562461       -15.3053
  43   2.0000      -0.547562       -14.8999
  44   2.0000      -0.536265       -14.5925
  45   2.0000      -0.521760       -14.1978
  46   2.0000      -0.515523       -14.0281
  47   2.0000      -0.510133       -13.8814
  48   2.0000      -0.507695       -13.8151
  49   2.0000      -0.496279       -13.5044
  50   2.0000      -0.494910       -13.4672
  51   2.0000      -0.486532       -13.2392
  52   2.0000      -0.469879       -12.7861
  53   2.0000      -0.462776       -12.5928
  54   2.0000      -0.458807       -12.4848
  55   2.0000      -0.449613       -12.2346
  56   2.0000      -0.443508       -12.0685
  57   2.0000      -0.436890       -11.8884
  58   2.0000      -0.427865       -11.6428
  59   2.0000      -0.422182       -11.4882
  60   2.0000      -0.418888       -11.3985
  61   2.0000      -0.416277       -11.3275
  62   2.0000      -0.413180       -11.2432
  63   2.0000      -0.358757        -9.7623
  64   2.0000      -0.333899        -9.0858
  65   2.0000      -0.328962        -8.9515
  66   2.0000      -0.290081        -7.8935
  67   0.0000       0.024099         0.6558
  68   0.0000       0.077888         2.1194
  69   0.0000       0.111389         3.0310
  70   0.0000       0.119655         3.2560
  71   0.0000       0.128371         3.4931

MULLIKEN ATOMIC CHARGES
-----------------------
   0 S :    0.100912
   1 C :   -0.098224
   2 C :   -0.082499
   3 C :    0.024400
   4 C :   -0.132523
   5 H :   -0.004323
   6 C :    0.019181
   7 H :    0.032819
   8 H :   -0.001003
   9 C :   -0.043912
  10 H :    0.030817
  11 H :    0.024505
  12 C :   -0.018298
  13 H :    0.005487
  14 H :    0.032505
  15 H :    0.043052
  16 S :    0.103209
  17 C :   -0.126470
  18 C :   -0.035130
  19 C :   -0.037994
  20 C :   -0.138699
  21 H :    0.027592
  22 C :    0.030144
  23 H :    0.036493
  24 H :    0.005997
  25 C :   -0.060514
  26 H :    0.060040
  27 H :    0.046408
  28 C :   -0.072983
  29 H :    0.036313
  30 H :    0.039204
  31 H :    0.028861
  32 H :    0.043321
  33 H :    0.081312
Sum of atomic charges:    0.0000000

LOEWDIN ATOMIC CHARGES
----------------------
   0 S :    0.401976
   1 C :   -0.202682
   2 C :   -0.063845
   3 C :   -0.066073
   4 C :   -0.174779
   5 H :    0.018175
   6 C :   -0.044011
   7 H :    0.034099
   8 H :    0.021870
   9 C :   -0.032943
  10 H :    0.028004
  11 H :    0.020000
  12 C :   -0.057945
  13 H :    0.015355
  14 H :    0.027022
  15 H :    0.028751
  16 S :    0.399731
  17 C :   -0.195005
  18 C :   -0.079368
  19 C :   -0.057903
  20 C :   -0.193519
  21 H :    0.038619
  22 C :   -0.035617
  23 H :    0.035863
  24 H :    0.022620
  25 C :   -0.034167
  26 H :    0.032985
  27 H :    0.032128
  28 C :   -0.075144
  29 H :    0.028529
  30 H :    0.027802
  31 H :    0.021163
  32 H :    0.034604
  33 H :    0.043707

  Mayer bond orders larger than 0.100000
B(  0-S ,  1-C ) :   1.1159 B(  0-S ,  4-C ) :   1.1404 B(  1-C ,  2-C ) :   1.6330
B(  1-C , 32-H ) :   0.9648 B(  2-C ,  3-C ) :   1.2023 B(  2-C ,  6-C ) :   1.0422
B(  3-C ,  4-C ) :   1.5902 B(  3-C ,  5-H ) :   0.9990 B(  4-C , 20-C ) :   1.0504
B(  6-C ,  7-H ) :   0.9369 B(  6-C ,  8-H ) :   0.9355 B(  6-C ,  9-C ) :   1.0676
B(  9-C , 10-H ) :   0.9532 B(  9-C , 11-H ) :   0.9570 B(  9-C , 12-C ) :   1.0620
B( 12-C , 13-H ) :   0.9729 B( 12-C , 14-H ) :   0.9750 B( 12-C , 15-H ) :   0.9773
B( 16-S , 17-C ) :   1.1633 B( 16-S , 20-C ) :   1.1322 B( 17-C , 18-C ) :   1.6055
B( 17-C , 33-H ) :   0.9579 B( 18-C , 19-C ) :   1.2488 B( 18-C , 21-H ) :   0.9928
B( 19-C , 20-C ) :   1.5820 B( 19-C , 22-C ) :   1.0478 B( 22-C , 23-H ) :   0.9296
B( 22-C , 24-H ) :   0.9395 B( 22-C , 25-C ) :   1.0471 B( 25-C , 26-H ) :   0.9617
B( 25-C , 27-H ) :   0.9588 B( 25-C , 28-C ) :   1.0641 B( 28-C , 29-H ) :   0.9748
B( 28-C , 30-H ) :   0.9748 B( 28-C , 31-H ) :   0.9745

Dispersion correction           -0.015501976
FINAL SINGLE POINT ENERGY     -1339.881487005269

DIPOLE MOMENT
-------------
                                X             Y             Z
Electronic contribution:    -12.73703     -27.12473       3.56399
Nuclear contribution   :     12.96130      27.54943      -3.89427
                        -----------------------------------------
Total Dipole Moment    :      0.22428       0.42470      -0.33028
                        -----------------------------------------
Magnitude (a.u.)       :      0.58289
Magnitude (Debye)      :      1.48159

Rotational constants in cm-1:     0.020839     0.009610     0.007239
Rotational constants in MHz :   624.746949   288.114397   217.016339

                             ****ORCA TERMINATED NORMALLY****
TOTAL RUN TIME: 0 days 0 hours 0 minutes 22 seconds 954 msec
