                         Program Version 4.2.1 -  RELEASE  -
|  1> ! wB97X-D3 SP def2-SVP
|  2> %pal
|  3> nprocs 24
|  4> end
|  5>
|  6> * xyz 0 1
|  7> S 	 -99.3155 	 -23.0236 	 -63.1337
|  8> C 	 -100.737 	 -22.0256 	 -62.8054
|  9> C 	 -100.326 	 -20.7195 	 -62.5989
| 10> C 	 -98.9913 	 -20.4916 	 -62.792
| 11> C 	 -98.3107 	 -21.6385 	 -62.996
| 12> H 	 -98.473 	 -19.5329 	 -62.7797
| 13> C 	 -101.13 	 -19.531 	 -62.258
| 14> H 	 -102.13 	 -19.7876 	 -62.6535
| 15> H 	 -100.888 	 -18.6213 	 -62.7495
| 16> C 	 -101.114 	 -19.1502 	 -60.7344
| 17> H 	 -101.483 	 -20.0305 	 -60.1951
| 18> H 	 -100.107 	 -18.8883 	 -60.4033
| 19> C 	 -102.196 	 -18.0389 	 -60.3978
| 20> H 	 -102.087 	 -17.6004 	 -59.3681
| 21> H 	 -102.142 	 -17.2768 	 -61.0805
| 22> H 	 -103.134 	 -18.5369 	 -60.4858
| 23> S 	 -96.4671 	 -22.8733 	 -64.573
| 24> C 	 -94.7745 	 -22.6245 	 -64.3717
| 25> C 	 -94.5242 	 -21.7076 	 -63.4154
| 26> C 	 -95.7131 	 -21.2655 	 -62.7456
| 27> C 	 -96.8957 	 -21.7422 	 -63.2616
| 28> H 	 -93.5017 	 -21.3922 	 -63.1535
| 29> C 	 -95.6134 	 -20.4576 	 -61.5039
| 30> H 	 -96.4684 	 -19.9528 	 -61.4075
| 31> H 	 -94.7878 	 -19.6965 	 -61.5673
| 32> C 	 -95.3493 	 -21.1242 	 -60.1624
| 33> H 	 -94.3049 	 -21.3603 	 -60.1562
| 34> H 	 -95.9367 	 -22.0712 	 -60.1673
| 35> C 	 -95.6255 	 -20.2309 	 -58.9809
| 36> H 	 -94.9318 	 -19.3702 	 -58.8223
| 37> H 	 -95.6462 	 -20.753 	 -58.0333
| 38> H 	 -96.5789 	 -19.6227 	 -59.0891
| 39> H 	 -101.836 	 -22.3647 	 -62.6818
| 40> H 	 -93.9458 	 -23.0871 	 -64.8886
| 41> *
| 42>
| 43>                          ****END OF INPUT****

CARTESIAN COORDINATES (ANGSTROEM)
---------------------------------
  S    -99.315500  -23.023600  -63.133700
  C    -100.737000  -22.025600  -62.805400
  C    -100.326000  -20.719500  -62.598900
  C    -98.991300  -20.491600  -62.792000
  C    -98.310700  -21.638500  -62.996000
  H    -98.473000  -19.532900  -62.779700
  C    -101.130000  -19.531000  -62.258000
  H    -102.130000  -19.787600  -62.653500
  H    -100.888000  -18.621300  -62.749500
  C    -101.114000  -19.150200  -60.734400
  H    -101.483000  -20.030500  -60.195100
  H    -100.107000  -18.888300  -60.403300
  C    -102.196000  -18.038900  -60.397800
  H    -102.087000  -17.600400  -59.368100
  H    -102.142000  -17.276800  -61.080500
  H    -103.134000  -18.536900  -60.485800
  S    -96.467100  -22.873300  -64.573000
  C    -94.774500  -22.624500  -64.371700
  C    -94.524200  -21.707600  -63.415400
  C    -95.713100  -21.265500  -62.745600
  C    -96.895700  -21.742200  -63.261600
  H    -93.501700  -21.392200  -63.153500
  C    -95.613400  -20.457600  -61.503900
  H    -96.468400  -19.952800  -61.407500
  H    -94.787800  -19.696500  -61.567300
  C    -95.349300  -21.124200  -60.162400
  H    -94.304900  -21.360300  -60.156200
  H    -95.936700  -22.071200  -60.167300
  C    -95.625500  -20.230900  -58.980900
  H    -94.931800  -19.370200  -58.822300
  H    -95.646200  -20.753000  -58.033300
  H    -96.578900  -19.622700  -59.089100
  H    -101.836000  -22.364700  -62.681800
  H    -93.945800  -23.087100  -64.888600

 Total Charge           Charge          ....    0
 Multiplicity           Mult            ....    1
 Number of Electrons    NEL             ....  134
 Basis Dimension        Dim             ....  322

ORBITAL ENERGIES
----------------

  NO   OCC          E(Eh)            E(eV)
   0   2.0000     -88.971765     -2421.0448
   1   2.0000     -88.960485     -2420.7379
   2   2.0000     -10.326569      -281.0002
   3   2.0000     -10.324991      -280.9573
   4   2.0000     -10.322256      -280.8829
   5   2.0000     -10.311967      -280.6029
   6   2.0000     -10.300285      -280.2850
   7   2.0000     -10.293225      -280.0929
   8   2.0000     -10.292087      -280.0619
   9   2.0000     -10.290084      -280.0074
  10   2.0000     -10.287916      -279.9484
  11   2.0000     -10.283799      -279.8364
  12   2.0000     -10.282626      -279.8045
  13   2.0000     -10.282343      -279.7968
  14   2.0000     -10.276887      -279.6483
  15   2.0000     -10.276116      -279.6273
  16   2.0000      -8.086542      -220.0460
  17   2.0000      -8.075616      -219.7487
  18   2.0000      -6.045074      -164.4948
  19   2.0000      -6.041056      -164.3855
  20   2.0000      -6.037227      -164.2813
  21   2.0000      -6.034265      -164.2007
  22   2.0000      -6.029991      -164.0844
  23   2.0000      -6.026249      -163.9826
  24   2.0000      -1.018149       -27.7052
  25   2.0000      -0.992001       -26.9937
  26   2.0000      -0.915742       -24.9186
  27   2.0000      -0.913245       -24.8507
  28   2.0000      -0.871920       -23.7262
  29   2.0000      -0.857707       -23.3394
  30   2.0000      -0.847513       -23.0620
  31   2.0000      -0.818379       -22.2692
  32   2.0000      -0.782207       -21.2849
  33   2.0000      -0.772340       -21.0164
  34   2.0000      -0.709737       -19.3129
  35   2.0000      -0.702645       -19.1199
  36   2.0000      -0.697339       -18.9756
  37   2.0000      -0.662756       -18.0345
  38   2.0000      -0.641084       -17.4448
  39   2.0000      -0.626118       -17.0375
  40   2.0000      -0.599967       -16.3259
  41   2.0000      -0.577039       -15.7020
  42   2.0000      -0.567666       -15.4470
  43   2.0000      -0.558281       -15.1916
  44   2.0000      -0.526004       -14.3133
  45   2.0000      -0.523950       -14.2574
  46   2.0000      -0.519744       -14.1429
  47   2.0000      -0.508661       -13.8414
  48   2.0000      -0.507174       -13.8009
  49   2.0000      -0.503241       -13.6939
  50   2.0000      -0.496779       -13.5180
  51   2.0000      -0.485305       -13.2058
  52   2.0000      -0.472605       -12.8602
  53   2.0000      -0.465063       -12.6550
  54   2.0000      -0.461110       -12.5474
  55   2.0000      -0.453469       -12.3395
  56   2.0000      -0.443395       -12.0654
  57   2.0000      -0.438936       -11.9441
  58   2.0000      -0.429187       -11.6788
  59   2.0000      -0.425843       -11.5878
  60   2.0000      -0.419872       -11.4253
  61   2.0000      -0.414843       -11.2885
  62   2.0000      -0.409565       -11.1448
  63   2.0000      -0.354183        -9.6378
  64   2.0000      -0.336953        -9.1689
  65   2.0000      -0.327765        -8.9189
  66   2.0000      -0.290283        -7.8990
  67   0.0000       0.027052         0.7361
  68   0.0000       0.076997         2.0952
  69   0.0000       0.106097         2.8870
  70   0.0000       0.120511         3.2793
  71   0.0000       0.131566         3.5801

MULLIKEN ATOMIC CHARGES
-----------------------
   0 S :    0.126219
   1 C :   -0.158312
   2 C :   -0.047196
   3 C :    0.002775
   4 C :   -0.123144
   5 H :    0.026227
   6 C :    0.045453
   7 H :    0.012464
   8 H :    0.016166
   9 C :   -0.085345
  10 H :    0.031218
  11 H :    0.034040
  12 C :   -0.021027
  13 H :    0.045777
  14 H :    0.010324
  15 H :    0.026342
  16 S :    0.081295
  17 C :   -0.064344
  18 C :   -0.040111
  19 C :   -0.058566
  20 C :   -0.133582
  21 H :    0.022852
  22 C :    0.094933
  23 H :   -0.045213
  24 H :    0.018079
  25 C :   -0.029371
  26 H :    0.018322
  27 H :    0.039392
  28 C :   -0.072428
  29 H :    0.027023
  30 H :    0.041490
  31 H :    0.027844
  32 H :    0.077691
  33 H :    0.052712
Sum of atomic charges:    0.0000000

LOEWDIN ATOMIC CHARGES
----------------------
   0 S :    0.422619
   1 C :   -0.214691
   2 C :   -0.068230
   3 C :   -0.063532
   4 C :   -0.198346
   5 H :    0.038553
   6 C :   -0.033159
   7 H :    0.029265
   8 H :    0.023988
   9 C :   -0.030515
  10 H :    0.024289
  11 H :    0.020096
  12 C :   -0.056823
  13 H :    0.034186
  14 H :    0.007592
  15 H :    0.023341
  16 S :    0.391598
  17 C :   -0.187779
  18 C :   -0.076183
  19 C :   -0.058580
  20 C :   -0.179943
  21 H :    0.035355
  22 C :   -0.030253
  23 H :    0.003415
  24 H :    0.034067
  25 C :   -0.036839
  26 H :    0.020582
  27 H :    0.031018
  28 C :   -0.074934
  29 H :    0.028050
  30 H :    0.028007
  31 H :    0.028877
  32 H :    0.050601
  33 H :    0.034307

  Mayer bond orders larger than 0.100000
B(  0-S ,  1-C ) :   1.1211 B(  0-S ,  4-C ) :   1.1637 B(  1-C ,  2-C ) :   1.5937
B(  1-C ,  4-C ) :   0.1007 B(  1-C , 32-H ) :   0.9570 B(  2-C ,  3-C ) :   1.2537
B(  2-C ,  6-C ) :   1.0346 B(  3-C ,  4-C ) :   1.5567 B(  3-C ,  5-H ) :   0.9973
B(  4-C , 20-C ) :   1.0422 B(  6-C ,  7-H ) :   0.9384 B(  6-C ,  8-H ) :   0.9417
B(  6-C ,  9-C ) :   1.0499 B(  9-C , 10-H ) :   0.9623 B(  9-C , 11-H ) :   0.9602
B(  9-C , 12-C ) :   1.0670 B( 12-C , 13-H ) :   0.9764 B( 12-C , 14-H ) :   0.9779
B( 12-C , 15-H ) :   0.9799 B( 16-S , 17-C ) :   1.1476 B( 16-S , 20-C ) :   1.1106
B( 17-C , 18-C ) :   1.6283 B( 17-C , 33-H ) :   0.9621 B( 18-C , 19-C ) :   1.2253
B( 18-C , 21-H ) :   0.9888 B( 19-C , 20-C ) :   1.6155 B( 19-C , 22-C ) :   1.0711
B( 22-C , 23-H ) :   0.9184 B( 22-C , 24-H ) :   0.9279 B( 22-C , 25-C ) :   1.0651
B( 25-C , 26-H ) :   0.9502 B( 25-C , 27-H ) :   0.9532 B( 25-C , 28-C ) :   1.0837
B( 28-C , 29-H ) :   0.9716 B( 28-C , 30-H ) :   0.9733 B( 28-C , 31-H ) :   0.9731

Dispersion correction           -0.013768648
FINAL SINGLE POINT ENERGY     -1339.862095897198

DIPOLE MOMENT
-------------
                                X             Y             Z
Electronic contribution:      4.91411     -21.09066     -22.71692
Nuclear contribution   :     -4.85359      21.59919      23.12367
                        -----------------------------------------
Total Dipole Moment    :      0.06053       0.50853       0.40675
                        -----------------------------------------
Magnitude (a.u.)       :      0.65399
Magnitude (Debye)      :      1.66232

Rotational constants in cm-1:     0.017990     0.009020     0.006623
Rotational constants in MHz :   539.340728   270.427534   198.560259

                             ****ORCA TERMINATED NORMALLY****
TOTAL RUN TIME: 0 days 0 hours 0 minutes 20 seconds 527 msec
