                         Program Version 4.2.1 -  RELEASE  -
|  1> ! wB97X-D3 SP def2-SVP
|  2> %pal
|  3> nprocs 24
|  4> end
|  5>
|  6> * xyz 0 1
|  7> S 	 -125.597 	 62.4524 	 -59.779
|  8> C 	 -126.699 	 61.8415 	 -60.9902
|  9> C 	 -127.829 	 61.2577 	 -60.431
| 10> C 	 -127.777 	 61.2475 	 -59.0493
| 11> C 	 -126.627 	 61.8364 	 -58.5133
| 12> H 	 -128.516 	 60.8866 	 -58.404
| 13> C 	 -128.94 	 60.5111 	 -61.1824
| 14> H 	 -129.339 	 59.7637 	 -60.5169
| 15> H 	 -128.533 	 59.9967 	 -62.1113
| 16> C 	 -130.025 	 61.5788 	 -61.5717
| 17> H 	 -131.005 	 61.0564 	 -61.8847
| 18> H 	 -130.256 	 62.0442 	 -60.6505
| 19> C 	 -129.75 	 62.5777 	 -62.6729
| 20> H 	 -129.743 	 61.9027 	 -63.5259
| 21> H 	 -130.521 	 63.2957 	 -62.9077
| 22> H 	 -128.792 	 63.1295 	 -62.5477
| 23> S 	 -126.768 	 63.3996 	 -56.2604
| 24> C 	 -126.194 	 62.7472 	 -54.7371
| 25> C 	 -125.693 	 61.4449 	 -54.8839
| 26> C 	 -125.73 	 61.0373 	 -56.2365
| 27> C 	 -126.381 	 61.9441 	 -57.0672
| 28> H 	 -125.474 	 60.7435 	 -54.0641
| 29> C 	 -125.187 	 59.678 	 -56.6725
| 30> H 	 -125.993 	 59.1766 	 -57.2379
| 31> H 	 -125.025 	 59.0736 	 -55.7749
| 32> C 	 -123.762 	 59.6226 	 -57.2394
| 33> H 	 -123.885 	 60.4689 	 -57.8875
| 34> H 	 -123.558 	 58.8374 	 -57.9639
| 35> C 	 -122.729 	 59.8084 	 -56.1396
| 36> H 	 -122.722 	 58.8829 	 -55.5861
| 37> H 	 -123.165 	 60.5416 	 -55.5063
| 38> H 	 -121.767 	 59.9882 	 -56.4963
| 39> H 	 -126.487 	 61.7004 	 -62.0543
| 40> H 	 -126.245 	 63.1073 	 -53.7194
| 41> *
| 42>
| 43>                          ****END OF INPUT****

CARTESIAN COORDINATES (ANGSTROEM)
---------------------------------
  S    -125.597000   62.452400  -59.779000
  C    -126.699000   61.841500  -60.990200
  C    -127.829000   61.257700  -60.431000
  C    -127.777000   61.247500  -59.049300
  C    -126.627000   61.836400  -58.513300
  H    -128.516000   60.886600  -58.404000
  C    -128.940000   60.511100  -61.182400
  H    -129.339000   59.763700  -60.516900
  H    -128.533000   59.996700  -62.111300
  C    -130.025000   61.578800  -61.571700
  H    -131.005000   61.056400  -61.884700
  H    -130.256000   62.044200  -60.650500
  C    -129.750000   62.577700  -62.672900
  H    -129.743000   61.902700  -63.525900
  H    -130.521000   63.295700  -62.907700
  H    -128.792000   63.129500  -62.547700
  S    -126.768000   63.399600  -56.260400
  C    -126.194000   62.747200  -54.737100
  C    -125.693000   61.444900  -54.883900
  C    -125.730000   61.037300  -56.236500
  C    -126.381000   61.944100  -57.067200
  H    -125.474000   60.743500  -54.064100
  C    -125.187000   59.678000  -56.672500
  H    -125.993000   59.176600  -57.237900
  H    -125.025000   59.073600  -55.774900
  C    -123.762000   59.622600  -57.239400
  H    -123.885000   60.468900  -57.887500
  H    -123.558000   58.837400  -57.963900
  C    -122.729000   59.808400  -56.139600
  H    -122.722000   58.882900  -55.586100
  H    -123.165000   60.541600  -55.506300
  H    -121.767000   59.988200  -56.496300
  H    -126.487000   61.700400  -62.054300
  H    -126.245000   63.107300  -53.719400

 Total Charge           Charge          ....    0
 Multiplicity           Mult            ....    1
 Number of Electrons    NEL             ....  134
 Basis Dimension        Dim             ....  322

ORBITAL ENERGIES
----------------

  NO   OCC          E(Eh)            E(eV)
   0   2.0000     -88.973860     -2421.1018
   1   2.0000     -88.972868     -2421.0748
   2   2.0000     -10.328997      -281.0663
   3   2.0000     -10.322680      -280.8944
   4   2.0000     -10.319475      -280.8072
   5   2.0000     -10.315213      -280.6912
   6   2.0000     -10.302573      -280.3473
   7   2.0000     -10.299591      -280.2661
   8   2.0000     -10.298071      -280.2248
   9   2.0000     -10.295267      -280.1485
  10   2.0000     -10.289341      -279.9872
  11   2.0000     -10.288090      -279.9532
  12   2.0000     -10.286953      -279.9222
  13   2.0000     -10.276862      -279.6476
  14   2.0000     -10.274344      -279.5791
  15   2.0000     -10.265809      -279.3469
  16   2.0000      -8.087851      -220.0816
  17   2.0000      -8.087661      -220.0764
  18   2.0000      -6.046300      -164.5282
  19   2.0000      -6.046170      -164.5246
  20   2.0000      -6.042323      -164.4200
  21   2.0000      -6.041998      -164.4111
  22   2.0000      -6.038860      -164.3257
  23   2.0000      -6.038586      -164.3183
  24   2.0000      -1.010262       -27.4906
  25   2.0000      -0.988894       -26.9092
  26   2.0000      -0.912230       -24.8231
  27   2.0000      -0.909708       -24.7544
  28   2.0000      -0.866490       -23.5784
  29   2.0000      -0.854306       -23.2469
  30   2.0000      -0.850444       -23.1418
  31   2.0000      -0.811696       -22.0874
  32   2.0000      -0.784701       -21.3528
  33   2.0000      -0.772188       -21.0123
  34   2.0000      -0.708758       -19.2863
  35   2.0000      -0.691273       -18.8105
  36   2.0000      -0.690155       -18.7801
  37   2.0000      -0.663417       -18.0525
  38   2.0000      -0.644497       -17.5377
  39   2.0000      -0.619501       -16.8575
  40   2.0000      -0.590573       -16.0703
  41   2.0000      -0.572451       -15.5772
  42   2.0000      -0.566282       -15.4093
  43   2.0000      -0.551156       -14.9977
  44   2.0000      -0.544212       -14.8088
  45   2.0000      -0.538794       -14.6613
  46   2.0000      -0.514683       -14.0052
  47   2.0000      -0.506803       -13.7908
  48   2.0000      -0.498436       -13.5631
  49   2.0000      -0.491950       -13.3866
  50   2.0000      -0.485377       -13.2078
  51   2.0000      -0.478959       -13.0331
  52   2.0000      -0.470477       -12.8023
  53   2.0000      -0.466916       -12.7054
  54   2.0000      -0.462324       -12.5805
  55   2.0000      -0.455566       -12.3966
  56   2.0000      -0.453394       -12.3375
  57   2.0000      -0.443377       -12.0649
  58   2.0000      -0.437487       -11.9046
  59   2.0000      -0.419727       -11.4213
  60   2.0000      -0.416302       -11.3281
  61   2.0000      -0.412415       -11.2224
  62   2.0000      -0.394954       -10.7472
  63   2.0000      -0.341682        -9.2976
  64   2.0000      -0.334100        -9.0913
  65   2.0000      -0.319194        -8.6857
  66   2.0000      -0.308530        -8.3955
  67   0.0000       0.042464         1.1555
  68   0.0000       0.046446         1.2638
  69   0.0000       0.115824         3.1517
  70   0.0000       0.119072         3.2401
  71   0.0000       0.126004         3.4287

MULLIKEN ATOMIC CHARGES
-----------------------
   0 S :    0.142770
   1 C :   -0.130652
   2 C :   -0.088418
   3 C :    0.057120
   4 C :   -0.180120
   5 H :   -0.008560
   6 C :    0.068729
   7 H :    0.028731
   8 H :    0.037761
   9 C :   -0.085481
  10 H :    0.032412
  11 H :    0.013879
  12 C :   -0.040571
  13 H :    0.019760
  14 H :    0.038290
  15 H :    0.043880
  16 S :    0.142920
  17 C :   -0.084816
  18 C :   -0.054068
  19 C :   -0.059058
  20 C :   -0.191822
  21 H :    0.038081
  22 C :    0.056234
  23 H :    0.038510
  24 H :   -0.004037
  25 C :   -0.044346
  26 H :    0.001250
  27 H :    0.025682
  28 C :    0.007902
  29 H :    0.018981
  30 H :    0.023945
  31 H :    0.028793
  32 H :    0.054276
  33 H :    0.052045
Sum of atomic charges:    0.0000000

LOEWDIN ATOMIC CHARGES
----------------------
   0 S :    0.426252
   1 C :   -0.206641
   2 C :   -0.066052
   3 C :   -0.051972
   4 C :   -0.204074
   5 H :    0.023867
   6 C :   -0.022600
   7 H :    0.030504
   8 H :    0.033590
   9 C :   -0.043234
  10 H :    0.028776
  11 H :    0.012313
  12 C :   -0.069954
  13 H :    0.025557
  14 H :    0.028528
  15 H :    0.028201
  16 S :    0.440591
  17 C :   -0.193014
  18 C :   -0.075991
  19 C :   -0.059554
  20 C :   -0.223236
  21 H :    0.037856
  22 C :   -0.034018
  23 H :    0.035709
  24 H :    0.021505
  25 C :   -0.043367
  26 H :    0.013538
  27 H :    0.023321
  28 C :   -0.049577
  29 H :    0.024442
  30 H :    0.025348
  31 H :    0.019812
  32 H :    0.031676
  33 H :    0.031897

  Mayer bond orders larger than 0.100000
B(  0-S ,  1-C ) :   1.1556 B(  0-S ,  4-C ) :   1.1638 B(  1-C ,  2-C ) :   1.5832
B(  1-C ,  4-C ) :   0.1055 B(  1-C , 32-H ) :   0.9578 B(  2-C ,  3-C ) :   1.2841
B(  2-C ,  6-C ) :   1.0084 B(  3-C ,  4-C ) :   1.5557 B(  3-C ,  5-H ) :   0.9986
B(  4-C , 20-C ) :   1.0098 B(  6-C ,  7-H ) :   0.9438 B(  6-C ,  8-H ) :   0.9490
B(  6-C ,  9-C ) :   1.0539 B(  9-C , 10-H ) :   0.9580 B(  9-C , 11-H ) :   0.9549
B(  9-C , 12-C ) :   1.0750 B( 12-C , 13-H ) :   0.9764 B( 12-C , 14-H ) :   0.9725
B( 12-C , 15-H ) :   0.9696 B( 16-S , 17-C ) :   1.1673 B( 16-S , 20-C ) :   1.1639
B( 17-C , 18-C ) :   1.5880 B( 17-C , 20-C ) :   0.1023 B( 17-C , 33-H ) :   0.9638
B( 18-C , 19-C ) :   1.2877 B( 18-C , 21-H ) :   0.9728 B( 19-C , 20-C ) :   1.5837
B( 19-C , 22-C ) :   1.0468 B( 22-C , 23-H ) :   0.9301 B( 22-C , 24-H ) :   0.9380
B( 22-C , 25-C ) :   1.0379 B( 25-C , 26-H ) :   0.9544 B( 25-C , 27-H ) :   0.9569
B( 25-C , 28-C ) :   1.0683 B( 28-C , 29-H ) :   0.9710 B( 28-C , 30-H ) :   0.9754
B( 28-C , 31-H ) :   0.9725

Dispersion correction           -0.015033213
FINAL SINGLE POINT ENERGY     -1339.862083455038

DIPOLE MOMENT
-------------
                                X             Y             Z
Electronic contribution:      2.76480      13.42025       8.43908
Nuclear contribution   :     -3.01579     -13.90312      -8.48232
                        -----------------------------------------
Total Dipole Moment    :     -0.25100      -0.48288      -0.04324
                        -----------------------------------------
Magnitude (a.u.)       :      0.54593
Magnitude (Debye)      :      1.38764

Rotational constants in cm-1:     0.023677     0.007754     0.006814
Rotational constants in MHz :   709.813357   232.448255   204.267309

                             ****ORCA TERMINATED NORMALLY****
TOTAL RUN TIME: 0 days 0 hours 0 minutes 21 seconds 947 msec
