                         Program Version 4.2.1 -  RELEASE  -
|  1> ! wB97X-D3 SP def2-SVP
|  2> %pal
|  3> nprocs 24
|  4> end
|  5>
|  6> * xyz 0 1
|  7> S 	 20.4741 	 -20.8539 	 -124.029
|  8> C 	 21.7675 	 -20.6929 	 -125.168
|  9> C 	 22.7552 	 -19.8244 	 -124.754
| 10> C 	 22.501 	 -19.4543 	 -123.398
| 11> C 	 21.431 	 -20.0257 	 -122.845
| 12> H 	 23.069 	 -18.7227 	 -122.812
| 13> C 	 23.9824 	 -19.3704 	 -125.546
| 14> H 	 24.8073 	 -19.3074 	 -124.908
| 15> H 	 23.7037 	 -18.332 	 -125.688
| 16> C 	 24.2493 	 -19.9958 	 -126.906
| 17> H 	 24.1447 	 -21.0385 	 -126.807
| 18> H 	 23.4844 	 -19.8042 	 -127.608
| 19> C 	 25.6205 	 -19.6962 	 -127.466
| 20> H 	 25.6405 	 -18.6655 	 -127.789
| 21> H 	 26.5101 	 -19.7965 	 -126.903
| 22> H 	 25.8489 	 -20.2897 	 -128.363
| 23> S 	 20.2372 	 -21.1877 	 -120.608
| 24> C 	 19.7514 	 -20.1939 	 -119.358
| 25> C 	 20.014 	 -18.8716 	 -119.595
| 26> C 	 20.6338 	 -18.5895 	 -120.844
| 27> C 	 20.8736 	 -19.8066 	 -121.499
| 28> H 	 19.6859 	 -18.168 	 -118.917
| 29> C 	 21.0457 	 -17.234 	 -121.345
| 30> H 	 20.2354 	 -16.4826 	 -121.357
| 31> H 	 21.3677 	 -17.2917 	 -122.418
| 32> C 	 22.066 	 -16.5341 	 -120.417
| 33> H 	 22.8952 	 -17.2375 	 -120.183
| 34> H 	 21.707 	 -16.1761 	 -119.444
| 35> C 	 22.7706 	 -15.3713 	 -121.118
| 36> H 	 23.6561 	 -14.9857 	 -120.472
| 37> H 	 22.2531 	 -14.404 	 -121.214
| 38> H 	 23.2265 	 -15.5348 	 -122
| 39> H 	 21.7452 	 -21.0946 	 -126.183
| 40> H 	 19.219 	 -20.498 	 -118.447
| 41> *
| 42>
| 43>                          ****END OF INPUT****

CARTESIAN COORDINATES (ANGSTROEM)
---------------------------------
  S     20.474100  -20.853900  -124.029000
  C     21.767500  -20.692900  -125.168000
  C     22.755200  -19.824400  -124.754000
  C     22.501000  -19.454300  -123.398000
  C     21.431000  -20.025700  -122.845000
  H     23.069000  -18.722700  -122.812000
  C     23.982400  -19.370400  -125.546000
  H     24.807300  -19.307400  -124.908000
  H     23.703700  -18.332000  -125.688000
  C     24.249300  -19.995800  -126.906000
  H     24.144700  -21.038500  -126.807000
  H     23.484400  -19.804200  -127.608000
  C     25.620500  -19.696200  -127.466000
  H     25.640500  -18.665500  -127.789000
  H     26.510100  -19.796500  -126.903000
  H     25.848900  -20.289700  -128.363000
  S     20.237200  -21.187700  -120.608000
  C     19.751400  -20.193900  -119.358000
  C     20.014000  -18.871600  -119.595000
  C     20.633800  -18.589500  -120.844000
  C     20.873600  -19.806600  -121.499000
  H     19.685900  -18.168000  -118.917000
  C     21.045700  -17.234000  -121.345000
  H     20.235400  -16.482600  -121.357000
  H     21.367700  -17.291700  -122.418000
  C     22.066000  -16.534100  -120.417000
  H     22.895200  -17.237500  -120.183000
  H     21.707000  -16.176100  -119.444000
  C     22.770600  -15.371300  -121.118000
  H     23.656100  -14.985700  -120.472000
  H     22.253100  -14.404000  -121.214000
  H     23.226500  -15.534800  -122.000000
  H     21.745200  -21.094600  -126.183000
  H     19.219000  -20.498000  -118.447000

 Total Charge           Charge          ....    0
 Multiplicity           Mult            ....    1
 Number of Electrons    NEL             ....  134
 Basis Dimension        Dim             ....  322

ORBITAL ENERGIES
----------------

  NO   OCC          E(Eh)            E(eV)
   0   2.0000     -88.966650     -2420.9056
   1   2.0000     -88.960335     -2420.7338
   2   2.0000     -10.324544      -280.9451
   3   2.0000     -10.319247      -280.8010
   4   2.0000     -10.310068      -280.5512
   5   2.0000     -10.306896      -280.4649
   6   2.0000     -10.303981      -280.3856
   7   2.0000     -10.299940      -280.2756
   8   2.0000     -10.298242      -280.2294
   9   2.0000     -10.294183      -280.1189
  10   2.0000     -10.289366      -279.9879
  11   2.0000     -10.286857      -279.9196
  12   2.0000     -10.283095      -279.8172
  13   2.0000     -10.282155      -279.7917
  14   2.0000     -10.277119      -279.6546
  15   2.0000     -10.275310      -279.6054
  16   2.0000      -8.082625      -219.9394
  17   2.0000      -8.075996      -219.7590
  18   2.0000      -6.040944      -164.3824
  19   2.0000      -6.036922      -164.2730
  20   2.0000      -6.034484      -164.2066
  21   2.0000      -6.033546      -164.1811
  22   2.0000      -6.030589      -164.1007
  23   2.0000      -6.026515      -163.9898
  24   2.0000      -1.012841       -27.5608
  25   2.0000      -0.991876       -26.9903
  26   2.0000      -0.917370       -24.9629
  27   2.0000      -0.911684       -24.8082
  28   2.0000      -0.868914       -23.6443
  29   2.0000      -0.857467       -23.3329
  30   2.0000      -0.849650       -23.1201
  31   2.0000      -0.816111       -22.2075
  32   2.0000      -0.789001       -21.4698
  33   2.0000      -0.773772       -21.0554
  34   2.0000      -0.723315       -19.6824
  35   2.0000      -0.706072       -19.2132
  36   2.0000      -0.690609       -18.7924
  37   2.0000      -0.660191       -17.9647
  38   2.0000      -0.638455       -17.3732
  39   2.0000      -0.617859       -16.8128
  40   2.0000      -0.601769       -16.3750
  41   2.0000      -0.571692       -15.5565
  42   2.0000      -0.569494       -15.4967
  43   2.0000      -0.563661       -15.3380
  44   2.0000      -0.531117       -14.4524
  45   2.0000      -0.523991       -14.2585
  46   2.0000      -0.519196       -14.1280
  47   2.0000      -0.513614       -13.9762
  48   2.0000      -0.501180       -13.6378
  49   2.0000      -0.500091       -13.6082
  50   2.0000      -0.487647       -13.2695
  51   2.0000      -0.480770       -13.0824
  52   2.0000      -0.476020       -12.9532
  53   2.0000      -0.469646       -12.7797
  54   2.0000      -0.460859       -12.5406
  55   2.0000      -0.456240       -12.4149
  56   2.0000      -0.448276       -12.1982
  57   2.0000      -0.440699       -11.9920
  58   2.0000      -0.438135       -11.9223
  59   2.0000      -0.430781       -11.7221
  60   2.0000      -0.427181       -11.6242
  61   2.0000      -0.414093       -11.2680
  62   2.0000      -0.409750       -11.1499
  63   2.0000      -0.345025        -9.3886
  64   2.0000      -0.332442        -9.0462
  65   2.0000      -0.325704        -8.8628
  66   2.0000      -0.292288        -7.9536
  67   0.0000       0.038670         1.0523
  68   0.0000       0.079493         2.1631
  69   0.0000       0.114538         3.1167
  70   0.0000       0.124302         3.3824
  71   0.0000       0.133346         3.6285

MULLIKEN ATOMIC CHARGES
-----------------------
   0 S :    0.113141
   1 C :   -0.140533
   2 C :   -0.097687
   3 C :   -0.017127
   4 C :   -0.112476
   5 H :    0.008762
   6 C :    0.108891
   7 H :    0.014924
   8 H :    0.026474
   9 C :   -0.038045
  10 H :    0.016070
  11 H :    0.020117
  12 C :   -0.030784
  13 H :    0.019638
  14 H :    0.024178
  15 H :    0.028158
  16 S :    0.132671
  17 C :   -0.084912
  18 C :   -0.018967
  19 C :    0.015497
  20 C :   -0.202443
  21 H :   -0.019935
  22 C :    0.052837
  23 H :    0.031659
  24 H :    0.041323
  25 C :   -0.075369
  26 H :    0.035753
  27 H :    0.039448
  28 C :   -0.055596
  29 H :    0.026096
  30 H :    0.028193
  31 H :    0.005201
  32 H :    0.043658
  33 H :    0.061185
Sum of atomic charges:   -0.0000000

LOEWDIN ATOMIC CHARGES
----------------------
   0 S :    0.408768
   1 C :   -0.212609
   2 C :   -0.057019
   3 C :   -0.072371
   4 C :   -0.194230
   5 H :    0.031548
   6 C :   -0.023588
   7 H :    0.024138
   8 H :    0.038870
   9 C :   -0.037581
  10 H :    0.018792
  11 H :    0.024073
  12 C :   -0.062233
  13 H :    0.024221
  14 H :    0.021242
  15 H :    0.031196
  16 S :    0.439134
  17 C :   -0.212037
  18 C :   -0.067950
  19 C :   -0.046959
  20 C :   -0.201785
  21 H :    0.016128
  22 C :   -0.038469
  23 H :    0.036219
  24 H :    0.038616
  25 C :   -0.039954
  26 H :    0.027755
  27 H :    0.028404
  28 C :   -0.070877
  29 H :    0.036717
  30 H :    0.025240
  31 H :    0.004078
  32 H :    0.025726
  33 H :    0.036795

  Mayer bond orders larger than 0.100000
B(  0-S ,  1-C ) :   1.1259 B(  0-S ,  4-C ) :   1.1511 B(  1-C ,  2-C ) :   1.6422
B(  1-C , 32-H ) :   0.9585 B(  2-C ,  3-C ) :   1.2179 B(  2-C ,  6-C ) :   0.9974
B(  3-C ,  4-C ) :   1.6174 B(  3-C ,  5-H ) :   1.0030 B(  4-C , 20-C ) :   1.0170
B(  6-C ,  7-H ) :   0.9480 B(  6-C ,  8-H ) :   0.9189 B(  6-C ,  9-C ) :   1.0732
B(  9-C , 10-H ) :   0.9531 B(  9-C , 11-H ) :   0.9436 B(  9-C , 12-C ) :   1.0893
B( 12-C , 13-H ) :   0.9731 B( 12-C , 14-H ) :   0.9775 B( 12-C , 15-H ) :   0.9710
B( 16-S , 17-C ) :   1.1695 B( 16-S , 20-C ) :   1.1587 B( 17-C , 18-C ) :   1.5984
B( 17-C , 33-H ) :   0.9624 B( 18-C , 19-C ) :   1.2479 B( 18-C , 21-H ) :   1.0024
B( 19-C , 20-C ) :   1.5618 B( 19-C , 22-C ) :   1.0591 B( 22-C , 23-H ) :   0.9256
B( 22-C , 24-H ) :   0.9381 B( 22-C , 25-C ) :   1.0441 B( 25-C , 26-H ) :   0.9588
B( 25-C , 27-H ) :   0.9527 B( 25-C , 28-C ) :   1.0843 B( 28-C , 29-H ) :   0.9710
B( 28-C , 30-H ) :   0.9733 B( 28-C , 31-H ) :   0.9774

Dispersion correction           -0.013751407
FINAL SINGLE POINT ENERGY     -1339.868464737582

DIPOLE MOMENT
-------------
                                X             Y             Z
Electronic contribution:    -20.63263     -20.24423      10.82600
Nuclear contribution   :     20.97207      20.88557     -10.92106
                        -----------------------------------------
Total Dipole Moment    :      0.33944       0.64135      -0.09505
                        -----------------------------------------
Magnitude (a.u.)       :      0.73183
Magnitude (Debye)      :      1.86017

Rotational constants in cm-1:     0.019146     0.008030     0.005999
Rotational constants in MHz :   573.972678   240.739678   179.848280

                             ****ORCA TERMINATED NORMALLY****
TOTAL RUN TIME: 0 days 0 hours 0 minutes 21 seconds 776 msec
