                         Program Version 4.2.1 -  RELEASE  -
|  1> ! wB97X-D3 SP def2-SVP
|  2> %pal
|  3> nprocs 24
|  4> end
|  5>
|  6> * xyz 0 1
|  7> S 	 -132.237 	 73.9659 	 -65.9631
|  8> C 	 -130.853 	 73.7587 	 -64.8635
|  9> C 	 -131.209 	 73.0738 	 -63.7647
| 10> C 	 -132.612 	 72.8141 	 -63.69
| 11> C 	 -133.293 	 73.4013 	 -64.7093
| 12> H 	 -133.222 	 72.4108 	 -62.9207
| 13> C 	 -130.17 	 72.5489 	 -62.766
| 14> H 	 -129.259 	 73.1561 	 -62.9485
| 15> H 	 -129.944 	 71.481 	 -62.9723
| 16> C 	 -130.569 	 72.6728 	 -61.3056
| 17> H 	 -131.596 	 72.3303 	 -61.2648
| 18> H 	 -129.844 	 72.0482 	 -60.7572
| 19> C 	 -130.569 	 74.0776 	 -60.6859
| 20> H 	 -131.384 	 74.7341 	 -61.1341
| 21> H 	 -130.658 	 74.1276 	 -59.6337
| 22> H 	 -129.587 	 74.5508 	 -60.8148
| 23> S 	 -135.163 	 72.0406 	 -66.0051
| 24> C 	 -136.804 	 72.5201 	 -66.0504
| 25> C 	 -136.992 	 73.5994 	 -65.1986
| 26> C 	 -135.744 	 74.0458 	 -64.6231
| 27> C 	 -134.683 	 73.2484 	 -64.8862
| 28> H 	 -137.909 	 74.0709 	 -65.1421
| 29> C 	 -135.804 	 75.2143 	 -63.6671
| 30> H 	 -136.114 	 76.0641 	 -64.284
| 31> H 	 -134.813 	 75.4439 	 -63.2863
| 32> C 	 -136.78 	 75.2248 	 -62.4571
| 33> H 	 -136.623 	 74.2577 	 -62.1036
| 34> H 	 -137.756 	 75.2699 	 -62.9113
| 35> C 	 -136.597 	 76.2715 	 -61.4915
| 36> H 	 -137.166 	 75.9256 	 -60.6526
| 37> H 	 -137.045 	 77.2662 	 -61.7638
| 38> H 	 -135.595 	 76.4463 	 -61.2529
| 39> H 	 -129.892 	 74.0844 	 -65.0539
| 40> H 	 -137.505 	 72.13 	 -66.7453
| 41> *
| 42>
| 43>                          ****END OF INPUT****

CARTESIAN COORDINATES (ANGSTROEM)
---------------------------------
  S    -132.237000   73.965900  -65.963100
  C    -130.853000   73.758700  -64.863500
  C    -131.209000   73.073800  -63.764700
  C    -132.612000   72.814100  -63.690000
  C    -133.293000   73.401300  -64.709300
  H    -133.222000   72.410800  -62.920700
  C    -130.170000   72.548900  -62.766000
  H    -129.259000   73.156100  -62.948500
  H    -129.944000   71.481000  -62.972300
  C    -130.569000   72.672800  -61.305600
  H    -131.596000   72.330300  -61.264800
  H    -129.844000   72.048200  -60.757200
  C    -130.569000   74.077600  -60.685900
  H    -131.384000   74.734100  -61.134100
  H    -130.658000   74.127600  -59.633700
  H    -129.587000   74.550800  -60.814800
  S    -135.163000   72.040600  -66.005100
  C    -136.804000   72.520100  -66.050400
  C    -136.992000   73.599400  -65.198600
  C    -135.744000   74.045800  -64.623100
  C    -134.683000   73.248400  -64.886200
  H    -137.909000   74.070900  -65.142100
  C    -135.804000   75.214300  -63.667100
  H    -136.114000   76.064100  -64.284000
  H    -134.813000   75.443900  -63.286300
  C    -136.780000   75.224800  -62.457100
  H    -136.623000   74.257700  -62.103600
  H    -137.756000   75.269900  -62.911300
  C    -136.597000   76.271500  -61.491500
  H    -137.166000   75.925600  -60.652600
  H    -137.045000   77.266200  -61.763800
  H    -135.595000   76.446300  -61.252900
  H    -129.892000   74.084400  -65.053900
  H    -137.505000   72.130000  -66.745300

 Total Charge           Charge          ....    0
 Multiplicity           Mult            ....    1
 Number of Electrons    NEL             ....  134
 Basis Dimension        Dim             ....  322

ORBITAL ENERGIES
----------------

  NO   OCC          E(Eh)            E(eV)
   0   2.0000     -88.963124     -2420.8097
   1   2.0000     -88.958224     -2420.6763
   2   2.0000     -10.319732      -280.8142
   3   2.0000     -10.313056      -280.6325
   4   2.0000     -10.312613      -280.6205
   5   2.0000     -10.306224      -280.4466
   6   2.0000     -10.299250      -280.2568
   7   2.0000     -10.297174      -280.2004
   8   2.0000     -10.294935      -280.1394
   9   2.0000     -10.288599      -279.9670
  10   2.0000     -10.287464      -279.9361
  11   2.0000     -10.286116      -279.8994
  12   2.0000     -10.281966      -279.7865
  13   2.0000     -10.277995      -279.6785
  14   2.0000     -10.272684      -279.5339
  15   2.0000     -10.270368      -279.4709
  16   2.0000      -8.078051      -219.8149
  17   2.0000      -8.074865      -219.7283
  18   2.0000      -6.036609      -164.2645
  19   2.0000      -6.033303      -164.1745
  20   2.0000      -6.032740      -164.1592
  21   2.0000      -6.028914      -164.0551
  22   2.0000      -6.028520      -164.0444
  23   2.0000      -6.025749      -163.9690
  24   2.0000      -1.017984       -27.7008
  25   2.0000      -0.990227       -26.9454
  26   2.0000      -0.918434       -24.9919
  27   2.0000      -0.912983       -24.8435
  28   2.0000      -0.878635       -23.9089
  29   2.0000      -0.858998       -23.3745
  30   2.0000      -0.844022       -22.9670
  31   2.0000      -0.820317       -22.3220
  32   2.0000      -0.784444       -21.3458
  33   2.0000      -0.776406       -21.1271
  34   2.0000      -0.713302       -19.4099
  35   2.0000      -0.699386       -19.0313
  36   2.0000      -0.689971       -18.7751
  37   2.0000      -0.666729       -18.1426
  38   2.0000      -0.647563       -17.6211
  39   2.0000      -0.621449       -16.9105
  40   2.0000      -0.600062       -16.3285
  41   2.0000      -0.577120       -15.7042
  42   2.0000      -0.572817       -15.5871
  43   2.0000      -0.550640       -14.9837
  44   2.0000      -0.541236       -14.7278
  45   2.0000      -0.533045       -14.5049
  46   2.0000      -0.524401       -14.2697
  47   2.0000      -0.522110       -14.2073
  48   2.0000      -0.512190       -13.9374
  49   2.0000      -0.503398       -13.6981
  50   2.0000      -0.490855       -13.3568
  51   2.0000      -0.480344       -13.0708
  52   2.0000      -0.474989       -12.9251
  53   2.0000      -0.468406       -12.7460
  54   2.0000      -0.461122       -12.5478
  55   2.0000      -0.451418       -12.2837
  56   2.0000      -0.445446       -12.1212
  57   2.0000      -0.441940       -12.0258
  58   2.0000      -0.421214       -11.4618
  59   2.0000      -0.419057       -11.4031
  60   2.0000      -0.417687       -11.3658
  61   2.0000      -0.410338       -11.1659
  62   2.0000      -0.409214       -11.1353
  63   2.0000      -0.335219        -9.1218
  64   2.0000      -0.326860        -8.8943
  65   2.0000      -0.323170        -8.7939
  66   2.0000      -0.313608        -8.5337
  67   0.0000       0.047213         1.2847
  68   0.0000       0.056472         1.5367
  69   0.0000       0.118538         3.2256
  70   0.0000       0.122292         3.3277
  71   0.0000       0.134002         3.6464

MULLIKEN ATOMIC CHARGES
-----------------------
   0 S :    0.113814
   1 C :   -0.097166
   2 C :   -0.050917
   3 C :    0.015945
   4 C :   -0.138296
   5 H :    0.009003
   6 C :    0.071374
   7 H :    0.014179
   8 H :    0.053122
   9 C :   -0.078611
  10 H :    0.029619
  11 H :    0.033766
  12 C :   -0.059738
  13 H :    0.047708
  14 H :    0.026215
  15 H :    0.019814
  16 S :    0.105044
  17 C :   -0.077306
  18 C :   -0.015195
  19 C :   -0.020262
  20 C :   -0.196538
  21 H :   -0.007090
  22 C :    0.036989
  23 H :    0.020629
  24 H :    0.011250
  25 C :   -0.047866
  26 H :    0.013578
  27 H :    0.018201
  28 C :    0.006501
  29 H :    0.029999
  30 H :    0.031548
  31 H :    0.016537
  32 H :    0.012213
  33 H :    0.051936
Sum of atomic charges:    0.0000000

LOEWDIN ATOMIC CHARGES
----------------------
   0 S :    0.394849
   1 C :   -0.168095
   2 C :   -0.063487
   3 C :   -0.057628
   4 C :   -0.196740
   5 H :    0.028918
   6 C :   -0.028894
   7 H :    0.028585
   8 H :    0.039957
   9 C :   -0.045439
  10 H :    0.022360
  11 H :    0.028446
  12 C :   -0.071311
  13 H :    0.034174
  14 H :    0.020381
  15 H :    0.023469
  16 S :    0.435734
  17 C :   -0.183848
  18 C :   -0.066371
  19 C :   -0.051653
  20 C :   -0.223678
  21 H :    0.017320
  22 C :   -0.034666
  23 H :    0.030064
  24 H :    0.021206
  25 C :   -0.037703
  26 H :    0.016186
  27 H :    0.022480
  28 C :   -0.056079
  29 H :    0.032984
  30 H :    0.032961
  31 H :    0.018040
  32 H :    0.012713
  33 H :    0.024766

  Mayer bond orders larger than 0.100000
B(  0-S ,  1-C ) :   1.1142 B(  0-S ,  4-C ) :   1.1434 B(  1-C ,  2-C ) :   1.6602
B(  1-C , 32-H ) :   0.9783 B(  2-C ,  3-C ) :   1.1766 B(  2-C ,  6-C ) :   1.0165
B(  3-C ,  4-C ) :   1.6104 B(  3-C ,  5-H ) :   0.9999 B(  4-C , 20-C ) :   1.0416
B(  6-C ,  7-H ) :   0.9398 B(  6-C ,  8-H ) :   0.9389 B(  6-C ,  9-C ) :   1.0729
B(  9-C , 10-H ) :   0.9555 B(  9-C , 11-H ) :   0.9536 B(  9-C , 12-C ) :   1.0817
B( 12-C , 13-H ) :   0.9738 B( 12-C , 14-H ) :   0.9747 B( 12-C , 15-H ) :   0.9715
B( 16-S , 17-C ) :   1.1826 B( 16-S , 20-C ) :   1.1409 B( 17-C , 18-C ) :   1.5774
B( 17-C , 33-H ) :   0.9736 B( 18-C , 19-C ) :   1.2326 B( 18-C , 21-H ) :   1.0075
B( 19-C , 20-C ) :   1.6056 B( 19-C , 22-C ) :   1.0587 B( 22-C , 23-H ) :   0.9224
B( 22-C , 24-H ) :   0.9402 B( 22-C , 25-C ) :   1.0603 B( 25-C , 26-H ) :   0.9570
B( 25-C , 27-H ) :   0.9408 B( 25-C , 28-C ) :   1.1073 B( 28-C , 29-H ) :   0.9655
B( 28-C , 30-H ) :   0.9689 B( 28-C , 31-H ) :   0.9705

Dispersion correction           -0.013824182
FINAL SINGLE POINT ENERGY     -1339.859402297764

DIPOLE MOMENT
-------------
                                X             Y             Z
Electronic contribution:     -1.36831     -10.35566     -26.41234
Nuclear contribution   :      1.30838      10.50689      26.89285
                        -----------------------------------------
Total Dipole Moment    :     -0.05993       0.15123       0.48052
                        -----------------------------------------
Magnitude (a.u.)       :      0.50730
Magnitude (Debye)      :      1.28946

Rotational constants in cm-1:     0.016643     0.009476     0.006951
Rotational constants in MHz :   498.941668   284.098287   208.376005

                             ****ORCA TERMINATED NORMALLY****
TOTAL RUN TIME: 0 days 0 hours 0 minutes 20 seconds 389 msec
