                         Program Version 4.2.1 -  RELEASE  -
|  1> ! wB97X-D3 SP def2-SVP
|  2> %pal
|  3> nprocs 24
|  4> end
|  5>
|  6> * xyz 0 1
|  7> S 	 -119.841 	 62.8696 	 -54.6786
|  8> C 	 -119.193 	 64.4702 	 -54.4268
|  9> C 	 -120.082 	 65.4345 	 -54.0247
| 10> C 	 -121.328 	 64.831 	 -53.7272
| 11> C 	 -121.307 	 63.4472 	 -53.8448
| 12> H 	 -122.232 	 65.3398 	 -53.3641
| 13> C 	 -119.683 	 66.8705 	 -53.834
| 14> H 	 -118.577 	 67.0334 	 -53.8919
| 15> H 	 -120.037 	 67.0492 	 -52.825
| 16> C 	 -120.571 	 67.9142 	 -54.61
| 17> H 	 -120.215 	 68.8896 	 -54.2916
| 18> H 	 -120.417 	 67.8545 	 -55.6671
| 19> C 	 -122.119 	 67.9268 	 -54.2296
| 20> H 	 -122.626 	 67.007 	 -54.5356
| 21> H 	 -122.215 	 68.1049 	 -53.1316
| 22> H 	 -122.767 	 68.6871 	 -54.7468
| 23> S 	 -122.831 	 61.223 	 -54.4663
| 24> C 	 -124.057 	 60.5845 	 -53.3776
| 25> C 	 -124.134 	 61.476 	 -52.286
| 26> C 	 -123.178 	 62.5756 	 -52.3743
| 27> C 	 -122.389 	 62.5122 	 -53.4662
| 28> H 	 -124.896 	 61.2124 	 -51.5175
| 29> C 	 -122.968 	 63.4659 	 -51.1008
| 30> H 	 -123.914 	 63.8537 	 -50.7684
| 31> H 	 -122.398 	 64.3513 	 -51.4072
| 32> C 	 -122.3 	 62.7336 	 -49.9329
| 33> H 	 -121.757 	 63.5352 	 -49.41
| 34> H 	 -121.587 	 62.0423 	 -50.3094
| 35> C 	 -123.277 	 61.951 	 -49.038
| 36> H 	 -122.802 	 61.2037 	 -48.3799
| 37> H 	 -124.018 	 61.4593 	 -49.666
| 38> H 	 -123.866 	 62.5871 	 -48.4039
| 39> H 	 -118.156 	 64.7384 	 -54.6235
| 40> H 	 -124.537 	 59.5987 	 -53.4382
| 41> *
| 42>
| 43>                          ****END OF INPUT****

CARTESIAN COORDINATES (ANGSTROEM)
---------------------------------
  S    -119.841000   62.869600  -54.678600
  C    -119.193000   64.470200  -54.426800
  C    -120.082000   65.434500  -54.024700
  C    -121.328000   64.831000  -53.727200
  C    -121.307000   63.447200  -53.844800
  H    -122.232000   65.339800  -53.364100
  C    -119.683000   66.870500  -53.834000
  H    -118.577000   67.033400  -53.891900
  H    -120.037000   67.049200  -52.825000
  C    -120.571000   67.914200  -54.610000
  H    -120.215000   68.889600  -54.291600
  H    -120.417000   67.854500  -55.667100
  C    -122.119000   67.926800  -54.229600
  H    -122.626000   67.007000  -54.535600
  H    -122.215000   68.104900  -53.131600
  H    -122.767000   68.687100  -54.746800
  S    -122.831000   61.223000  -54.466300
  C    -124.057000   60.584500  -53.377600
  C    -124.134000   61.476000  -52.286000
  C    -123.178000   62.575600  -52.374300
  C    -122.389000   62.512200  -53.466200
  H    -124.896000   61.212400  -51.517500
  C    -122.968000   63.465900  -51.100800
  H    -123.914000   63.853700  -50.768400
  H    -122.398000   64.351300  -51.407200
  C    -122.300000   62.733600  -49.932900
  H    -121.757000   63.535200  -49.410000
  H    -121.587000   62.042300  -50.309400
  C    -123.277000   61.951000  -49.038000
  H    -122.802000   61.203700  -48.379900
  H    -124.018000   61.459300  -49.666000
  H    -123.866000   62.587100  -48.403900
  H    -118.156000   64.738400  -54.623500
  H    -124.537000   59.598700  -53.438200

 Total Charge           Charge          ....    0
 Multiplicity           Mult            ....    1
 Number of Electrons    NEL             ....  134
 Basis Dimension        Dim             ....  322

ORBITAL ENERGIES
----------------

  NO   OCC          E(Eh)            E(eV)
   0   2.0000     -88.968744     -2420.9626
   1   2.0000     -88.962008     -2420.7793
   2   2.0000     -10.333967      -281.2015
   3   2.0000     -10.321487      -280.8619
   4   2.0000     -10.321455      -280.8611
   5   2.0000     -10.309986      -280.5490
   6   2.0000     -10.301931      -280.3298
   7   2.0000     -10.301834      -280.3272
   8   2.0000     -10.301341      -280.3138
   9   2.0000     -10.299336      -280.2592
  10   2.0000     -10.297668      -280.2138
  11   2.0000     -10.295617      -280.1580
  12   2.0000     -10.292674      -280.0779
  13   2.0000     -10.289083      -279.9802
  14   2.0000     -10.280671      -279.7513
  15   2.0000     -10.274857      -279.5931
  16   2.0000      -8.083113      -219.9527
  17   2.0000      -8.077849      -219.8094
  18   2.0000      -6.041548      -164.3989
  19   2.0000      -6.038018      -164.3028
  20   2.0000      -6.036405      -164.2589
  21   2.0000      -6.033640      -164.1837
  22   2.0000      -6.032069      -164.1409
  23   2.0000      -6.028607      -164.0467
  24   2.0000      -1.009662       -27.4743
  25   2.0000      -0.986621       -26.8473
  26   2.0000      -0.908634       -24.7252
  27   2.0000      -0.904616       -24.6159
  28   2.0000      -0.866043       -23.5662
  29   2.0000      -0.848460       -23.0878
  30   2.0000      -0.837587       -22.7919
  31   2.0000      -0.816562       -22.2198
  32   2.0000      -0.782912       -21.3041
  33   2.0000      -0.773525       -21.0487
  34   2.0000      -0.707401       -19.2494
  35   2.0000      -0.701373       -19.0853
  36   2.0000      -0.692099       -18.8330
  37   2.0000      -0.663333       -18.0502
  38   2.0000      -0.636353       -17.3160
  39   2.0000      -0.619791       -16.8654
  40   2.0000      -0.592826       -16.1316
  41   2.0000      -0.574813       -15.6415
  42   2.0000      -0.550216       -14.9721
  43   2.0000      -0.544759       -14.8236
  44   2.0000      -0.533206       -14.5093
  45   2.0000      -0.531290       -14.4571
  46   2.0000      -0.519433       -14.1345
  47   2.0000      -0.508657       -13.8412
  48   2.0000      -0.507845       -13.8192
  49   2.0000      -0.496047       -13.4981
  50   2.0000      -0.485622       -13.2144
  51   2.0000      -0.481274       -13.0961
  52   2.0000      -0.470703       -12.8085
  53   2.0000      -0.467390       -12.7183
  54   2.0000      -0.462046       -12.5729
  55   2.0000      -0.449215       -12.2238
  56   2.0000      -0.441988       -12.0271
  57   2.0000      -0.436251       -11.8710
  58   2.0000      -0.433197       -11.7879
  59   2.0000      -0.430570       -11.7164
  60   2.0000      -0.419342       -11.4109
  61   2.0000      -0.417404       -11.3581
  62   2.0000      -0.408354       -11.1119
  63   2.0000      -0.350862        -9.5474
  64   2.0000      -0.332724        -9.0539
  65   2.0000      -0.326733        -8.8908
  66   2.0000      -0.288521        -7.8511
  67   0.0000       0.026503         0.7212
  68   0.0000       0.075292         2.0488
  69   0.0000       0.104088         2.8324
  70   0.0000       0.117642         3.2012
  71   0.0000       0.136447         3.7129

MULLIKEN ATOMIC CHARGES
-----------------------
   0 S :    0.116691
   1 C :   -0.129081
   2 C :   -0.066241
   3 C :   -0.000671
   4 C :   -0.149530
   5 H :    0.035984
   6 C :    0.068325
   7 H :    0.042587
   8 H :    0.021013
   9 C :   -0.052837
  10 H :    0.028796
  11 H :    0.034986
  12 C :   -0.117623
  13 H :    0.052149
  14 H :    0.041825
  15 H :    0.045997
  16 S :    0.096855
  17 C :   -0.120364
  18 C :   -0.070246
  19 C :   -0.072788
  20 C :   -0.115723
  21 H :    0.050908
  22 C :    0.070401
  23 H :    0.013527
  24 H :    0.009600
  25 C :   -0.037624
  26 H :    0.031136
  27 H :    0.030897
  28 C :   -0.034154
  29 H :    0.039480
  30 H :    0.005982
  31 H :    0.018069
  32 H :    0.037120
  33 H :    0.074554
Sum of atomic charges:   -0.0000000

LOEWDIN ATOMIC CHARGES
----------------------
   0 S :    0.389164
   1 C :   -0.195742
   2 C :   -0.065912
   3 C :   -0.061806
   4 C :   -0.170426
   5 H :    0.035582
   6 C :   -0.029968
   7 H :    0.039475
   8 H :    0.032194
   9 C :   -0.030550
  10 H :    0.024220
  11 H :    0.019102
  12 C :   -0.078459
  13 H :    0.025039
  14 H :    0.027934
  15 H :    0.035274
  16 S :    0.417432
  17 C :   -0.195641
  18 C :   -0.074551
  19 C :   -0.067815
  20 C :   -0.219016
  21 H :    0.037269
  22 C :   -0.026235
  23 H :    0.024166
  24 H :    0.025899
  25 C :   -0.035265
  26 H :    0.028355
  27 H :    0.023438
  28 C :   -0.065308
  29 H :    0.029923
  30 H :    0.020655
  31 H :    0.019326
  32 H :    0.023864
  33 H :    0.038379

  Mayer bond orders larger than 0.100000
B(  0-S ,  1-C ) :   1.1266 B(  0-S ,  4-C ) :   1.1404 B(  1-C ,  2-C ) :   1.6410
B(  1-C , 32-H ) :   0.9633 B(  2-C ,  3-C ) :   1.2240 B(  2-C ,  6-C ) :   1.0172
B(  3-C ,  4-C ) :   1.5875 B(  3-C ,  5-H ) :   0.9742 B(  4-C , 20-C ) :   1.0296
B(  6-C ,  7-H ) :   0.9466 B(  6-C ,  8-H ) :   0.9324 B(  6-C ,  9-C ) :   1.0552
B(  9-C , 10-H ) :   0.9589 B(  9-C , 11-H ) :   0.9610 B(  9-C , 12-C ) :   1.0658
B( 12-C , 13-H ) :   0.9687 B( 12-C , 14-H ) :   0.9751 B( 12-C , 15-H ) :   0.9720
B( 16-S , 17-C ) :   1.1488 B( 16-S , 20-C ) :   1.1474 B( 17-C , 18-C ) :   1.6094
B( 17-C , 33-H ) :   0.9674 B( 18-C , 19-C ) :   1.2241 B( 18-C , 21-H ) :   0.9762
B( 19-C , 20-C ) :   1.6204 B( 19-C , 22-C ) :   1.0486 B( 22-C , 23-H ) :   0.9357
B( 22-C , 24-H ) :   0.9321 B( 22-C , 25-C ) :   1.0595 B( 25-C , 26-H ) :   0.9575
B( 25-C , 27-H ) :   0.9589 B( 25-C , 28-C ) :   1.0732 B( 28-C , 29-H ) :   0.9744
B( 28-C , 30-H ) :   0.9717 B( 28-C , 31-H ) :   0.9725

Dispersion correction           -0.014571720
FINAL SINGLE POINT ENERGY     -1339.871273198565

DIPOLE MOMENT
-------------
                                X             Y             Z
Electronic contribution:      4.85962     -18.76639     -16.88073
Nuclear contribution   :     -4.92634      19.29785      17.33020
                        -----------------------------------------
Total Dipole Moment    :     -0.06672       0.53146       0.44947
                        -----------------------------------------
Magnitude (a.u.)       :      0.69923
Magnitude (Debye)      :      1.77730

Rotational constants in cm-1:     0.018784     0.008707     0.007274
Rotational constants in MHz :   563.126406   261.033214   218.083587

                             ****ORCA TERMINATED NORMALLY****
TOTAL RUN TIME: 0 days 0 hours 0 minutes 22 seconds 37 msec
