                         Program Version 4.2.1 -  RELEASE  -
|  1> ! wB97X-D3 SP def2-SVP
|  2> %pal
|  3> nprocs 24
|  4> end
|  5>
|  6> * xyz 0 1
|  7> S 	 -104.767 	 18.7149 	 -109.045
|  8> C 	 -103.079 	 18.8406 	 -108.908
|  9> C 	 -102.489 	 19.3134 	 -110.096
| 10> C 	 -103.52 	 19.5534 	 -111.056
| 11> C 	 -104.795 	 19.2251 	 -110.688
| 12> H 	 -103.388 	 20.0213 	 -111.992
| 13> C 	 -101.039 	 19.6192 	 -110.395
| 14> H 	 -101.05 	 19.9956 	 -111.47
| 15> H 	 -100.551 	 18.6728 	 -110.383
| 16> C 	 -100.367 	 20.6571 	 -109.45
| 17> H 	 -100.393 	 20.2336 	 -108.443
| 18> H 	 -99.3161 	 20.6303 	 -109.617
| 19> C 	 -100.952 	 22.0695 	 -109.308
| 20> H 	 -100.672 	 22.8507 	 -110.064
| 21> H 	 -102.05 	 22.156 	 -109.154
| 22> H 	 -100.636 	 22.5596 	 -108.369
| 23> S 	 -107.58 	 19.9624 	 -110.937
| 24> C 	 -108.39 	 19.5946 	 -112.421
| 25> C 	 -107.522 	 19.0185 	 -113.296
| 26> C 	 -106.208 	 18.7746 	 -112.827
| 27> C 	 -106.012 	 19.156 	 -111.485
| 28> H 	 -108.003 	 18.8472 	 -114.256
| 29> C 	 -105.155 	 17.9233 	 -113.638
| 30> H 	 -105.371 	 16.9024 	 -113.481
| 31> H 	 -104.146 	 18.0649 	 -113.185
| 32> C 	 -105.064 	 18.1008 	 -115.123
| 33> H 	 -106.073 	 18.0724 	 -115.624
| 34> H 	 -104.454 	 17.3131 	 -115.553
| 35> C 	 -104.28 	 19.3841 	 -115.492
| 36> H 	 -104.809 	 20.2548 	 -115.059
| 37> H 	 -104.265 	 19.5077 	 -116.546
| 38> H 	 -103.27 	 19.2683 	 -115.162
| 39> H 	 -102.618 	 18.4414 	 -108.068
| 40> H 	 -109.355 	 20.0225 	 -112.724
| 41> *
| 42>
| 43>                          ****END OF INPUT****

CARTESIAN COORDINATES (ANGSTROEM)
---------------------------------
  S    -104.767000   18.714900  -109.045000
  C    -103.079000   18.840600  -108.908000
  C    -102.489000   19.313400  -110.096000
  C    -103.520000   19.553400  -111.056000
  C    -104.795000   19.225100  -110.688000
  H    -103.388000   20.021300  -111.992000
  C    -101.039000   19.619200  -110.395000
  H    -101.050000   19.995600  -111.470000
  H    -100.551000   18.672800  -110.383000
  C    -100.367000   20.657100  -109.450000
  H    -100.393000   20.233600  -108.443000
  H    -99.316100   20.630300  -109.617000
  C    -100.952000   22.069500  -109.308000
  H    -100.672000   22.850700  -110.064000
  H    -102.050000   22.156000  -109.154000
  H    -100.636000   22.559600  -108.369000
  S    -107.580000   19.962400  -110.937000
  C    -108.390000   19.594600  -112.421000
  C    -107.522000   19.018500  -113.296000
  C    -106.208000   18.774600  -112.827000
  C    -106.012000   19.156000  -111.485000
  H    -108.003000   18.847200  -114.256000
  C    -105.155000   17.923300  -113.638000
  H    -105.371000   16.902400  -113.481000
  H    -104.146000   18.064900  -113.185000
  C    -105.064000   18.100800  -115.123000
  H    -106.073000   18.072400  -115.624000
  H    -104.454000   17.313100  -115.553000
  C    -104.280000   19.384100  -115.492000
  H    -104.809000   20.254800  -115.059000
  H    -104.265000   19.507700  -116.546000
  H    -103.270000   19.268300  -115.162000
  H    -102.618000   18.441400  -108.068000
  H    -109.355000   20.022500  -112.724000

 Total Charge           Charge          ....    0
 Multiplicity           Mult            ....    1
 Number of Electrons    NEL             ....  134
 Basis Dimension        Dim             ....  322

ORBITAL ENERGIES
----------------

  NO   OCC          E(Eh)            E(eV)
   0   2.0000     -88.963598     -2420.8226
   1   2.0000     -88.962537     -2420.7937
   2   2.0000     -10.336958      -281.2829
   3   2.0000     -10.324979      -280.9570
   4   2.0000     -10.316848      -280.7357
   5   2.0000     -10.312557      -280.6190
   6   2.0000     -10.309677      -280.5406
   7   2.0000     -10.303286      -280.3667
   8   2.0000     -10.298496      -280.2363
   9   2.0000     -10.291347      -280.0418
  10   2.0000     -10.291006      -280.0325
  11   2.0000     -10.289748      -279.9983
  12   2.0000     -10.287971      -279.9499
  13   2.0000     -10.286571      -279.9118
  14   2.0000     -10.283910      -279.8394
  15   2.0000     -10.271783      -279.5094
  16   2.0000      -8.080021      -219.8686
  17   2.0000      -8.076474      -219.7720
  18   2.0000      -6.038266      -164.3096
  19   2.0000      -6.035068      -164.2226
  20   2.0000      -6.034126      -164.1969
  21   2.0000      -6.031123      -164.1152
  22   2.0000      -6.031029      -164.1126
  23   2.0000      -6.027240      -164.0095
  24   2.0000      -1.009091       -27.4588
  25   2.0000      -0.983832       -26.7714
  26   2.0000      -0.908973       -24.7344
  27   2.0000      -0.908539       -24.7226
  28   2.0000      -0.870879       -23.6978
  29   2.0000      -0.851056       -23.1584
  30   2.0000      -0.841439       -22.8967
  31   2.0000      -0.814813       -22.1722
  32   2.0000      -0.786208       -21.3938
  33   2.0000      -0.776385       -21.1265
  34   2.0000      -0.710723       -19.3398
  35   2.0000      -0.704522       -19.1710
  36   2.0000      -0.691044       -18.8043
  37   2.0000      -0.656705       -17.8699
  38   2.0000      -0.640570       -17.4308
  39   2.0000      -0.617060       -16.7911
  40   2.0000      -0.596693       -16.2368
  41   2.0000      -0.570098       -15.5131
  42   2.0000      -0.554195       -15.0804
  43   2.0000      -0.551566       -15.0089
  44   2.0000      -0.545493       -14.8436
  45   2.0000      -0.540905       -14.7188
  46   2.0000      -0.519145       -14.1266
  47   2.0000      -0.512288       -13.9401
  48   2.0000      -0.502936       -13.6856
  49   2.0000      -0.492912       -13.4128
  50   2.0000      -0.488792       -13.3007
  51   2.0000      -0.476922       -12.9777
  52   2.0000      -0.473952       -12.8969
  53   2.0000      -0.465515       -12.6673
  54   2.0000      -0.462248       -12.5784
  55   2.0000      -0.446712       -12.1557
  56   2.0000      -0.440310       -11.9814
  57   2.0000      -0.437208       -11.8970
  58   2.0000      -0.428772       -11.6675
  59   2.0000      -0.424044       -11.5388
  60   2.0000      -0.422338       -11.4924
  61   2.0000      -0.411258       -11.1909
  62   2.0000      -0.407818       -11.0973
  63   2.0000      -0.352507        -9.5922
  64   2.0000      -0.330898        -9.0042
  65   2.0000      -0.330767        -9.0006
  66   2.0000      -0.288353        -7.8465
  67   0.0000       0.025799         0.7020
  68   0.0000       0.066272         1.8033
  69   0.0000       0.116509         3.1704
  70   0.0000       0.124878         3.3981
  71   0.0000       0.132697         3.6109

MULLIKEN ATOMIC CHARGES
-----------------------
   0 S :    0.119682
   1 C :   -0.111110
   2 C :   -0.102178
   3 C :    0.021063
   4 C :   -0.162078
   5 H :   -0.003795
   6 C :    0.085681
   7 H :    0.031118
   8 H :    0.034156
   9 C :   -0.039888
  10 H :    0.020013
  11 H :    0.021511
  12 C :   -0.079325
  13 H :    0.039727
  14 H :    0.046107
  15 H :    0.025538
  16 S :    0.080771
  17 C :   -0.098571
  18 C :   -0.059222
  19 C :   -0.010838
  20 C :   -0.125564
  21 H :    0.021177
  22 C :    0.080166
  23 H :    0.033742
  24 H :    0.017524
  25 C :   -0.100705
  26 H :    0.038262
  27 H :    0.026393
  28 C :   -0.040283
  29 H :    0.041233
  30 H :    0.023981
  31 H :    0.024713
  32 H :    0.030092
  33 H :    0.070905
Sum of atomic charges:   -0.0000000

LOEWDIN ATOMIC CHARGES
----------------------
   0 S :    0.448825
   1 C :   -0.202699
   2 C :   -0.062545
   3 C :   -0.062652
   4 C :   -0.209336
   5 H :    0.023463
   6 C :   -0.029782
   7 H :    0.036864
   8 H :    0.032515
   9 C :   -0.042166
  10 H :    0.027151
  11 H :    0.023351
  12 C :   -0.081993
  13 H :    0.028397
  14 H :    0.034083
  15 H :    0.030776
  16 S :    0.369914
  17 C :   -0.188904
  18 C :   -0.086483
  19 C :   -0.049352
  20 C :   -0.172296
  21 H :    0.033908
  22 C :   -0.028750
  23 H :    0.030144
  24 H :    0.032963
  25 C :   -0.045353
  26 H :    0.026243
  27 H :    0.025783
  28 C :   -0.061026
  29 H :    0.028384
  30 H :    0.019120
  31 H :    0.020043
  32 H :    0.012381
  33 H :    0.039031

  Mayer bond orders larger than 0.100000
B(  0-S ,  1-C ) :   1.1833 B(  0-S ,  4-C ) :   1.1721 B(  1-C ,  2-C ) :   1.5398
B(  1-C ,  4-C ) :   0.1006 B(  1-C , 32-H ) :   0.9839 B(  2-C ,  3-C ) :   1.2808
B(  2-C ,  6-C ) :   1.0082 B(  3-C ,  4-C ) :   1.5585 B(  3-C ,  5-H ) :   0.9961
B(  4-C , 20-C ) :   1.0373 B(  6-C ,  7-H ) :   0.9459 B(  6-C ,  8-H ) :   0.9316
B(  6-C ,  9-C ) :   1.0752 B(  9-C , 10-H ) :   0.9541 B(  9-C , 11-H ) :   0.9545
B(  9-C , 12-C ) :   1.0678 B( 12-C , 13-H ) :   0.9773 B( 12-C , 14-H ) :   0.9725
B( 12-C , 15-H ) :   0.9722 B( 16-S , 17-C ) :   1.1559 B( 16-S , 20-C ) :   1.1227
B( 17-C , 18-C ) :   1.6316 B( 17-C , 20-C ) :   0.1031 B( 17-C , 33-H ) :   0.9585
B( 18-C , 19-C ) :   1.2238 B( 18-C , 21-H ) :   0.9900 B( 19-C , 20-C ) :   1.5903
B( 19-C , 22-C ) :   1.0151 B( 22-C , 23-H ) :   0.9366 B( 22-C , 24-H ) :   0.9359
B( 22-C , 25-C ) :   1.0850 B( 25-C , 26-H ) :   0.9509 B( 25-C , 27-H ) :   0.9512
B( 25-C , 28-C ) :   1.0805 B( 28-C , 29-H ) :   0.9779 B( 28-C , 30-H ) :   0.9747
B( 28-C , 31-H ) :   0.9732

Dispersion correction           -0.014358309
FINAL SINGLE POINT ENERGY     -1339.873698402633

DIPOLE MOMENT
-------------
                                X             Y             Z
Electronic contribution:    -21.37735      -4.65845      14.14205
Nuclear contribution   :     21.88963       4.58313     -14.59637
                        -----------------------------------------
Total Dipole Moment    :      0.51227      -0.07533      -0.45432
                        -----------------------------------------
Magnitude (a.u.)       :      0.68884
Magnitude (Debye)      :      1.75089

Rotational constants in cm-1:     0.018906     0.008482     0.006717
Rotational constants in MHz :   566.778898   254.275398   201.371547

                             ****ORCA TERMINATED NORMALLY****
TOTAL RUN TIME: 0 days 0 hours 0 minutes 21 seconds 608 msec
