                         Program Version 4.2.1 -  RELEASE  -
|  1> ! wB97X-D3 SP def2-SVP
|  2> %pal
|  3> nprocs 24
|  4> end
|  5>
|  6> * xyz 0 1
|  7> S 	 -43.7931 	 -50.1566 	 -74.3231
|  8> C 	 -42.3862 	 -50.2837 	 -75.2543
|  9> C 	 -42.522 	 -50.2106 	 -76.6135
| 10> C 	 -43.8865 	 -50.1993 	 -77.0273
| 11> C 	 -44.698 	 -50.1993 	 -75.8724
| 12> H 	 -44.3767 	 -50.1882 	 -77.9388
| 13> C 	 -41.4488 	 -50.1905 	 -77.5804
| 14> H 	 -40.6877 	 -49.7023 	 -77.0147
| 15> H 	 -41.7383 	 -49.583 	 -78.3961
| 16> C 	 -40.9336 	 -51.5063 	 -78.0756
| 17> H 	 -40.1866 	 -52.0548 	 -77.4124
| 18> H 	 -41.8165 	 -52.1785 	 -78.3632
| 19> C 	 -40.0855 	 -51.4532 	 -79.3386
| 20> H 	 -39.1786 	 -50.7656 	 -79.1682
| 21> H 	 -39.621 	 -52.4903 	 -79.333
| 22> H 	 -40.7203 	 -51.3502 	 -80.2993
| 23> S 	 -46.904 	 -48.6221 	 -75.9348
| 24> C 	 -48.4878 	 -49.3345 	 -75.5848
| 25> C 	 -48.4457 	 -50.6877 	 -75.3975
| 26> C 	 -47.0736 	 -51.1854 	 -75.5288
| 27> C 	 -46.1475 	 -50.1441 	 -75.7585
| 28> H 	 -49.3675 	 -51.1734 	 -75.1761
| 29> C 	 -46.7533 	 -52.6661 	 -75.3408
| 30> H 	 -47.655 	 -53.1775 	 -75.0911
| 31> H 	 -46.0579 	 -52.7363 	 -74.5257
| 32> C 	 -46.1521 	 -53.3959 	 -76.5313
| 33> H 	 -45.8621 	 -54.3031 	 -76.0904
| 34> H 	 -45.1956 	 -52.8982 	 -76.9109
| 35> C 	 -46.8634 	 -53.5016 	 -77.8449
| 36> H 	 -47.87 	 -53.9549 	 -77.7673
| 37> H 	 -46.2486 	 -54.0658 	 -78.5536
| 38> H 	 -47.0404 	 -52.5765 	 -78.311
| 39> H 	 -41.416 	 -50.2887 	 -74.792
| 40> H 	 -49.4456 	 -48.8386 	 -75.4784
| 41> *
| 42>
| 43>                          ****END OF INPUT****

CARTESIAN COORDINATES (ANGSTROEM)
---------------------------------
  S    -43.793100  -50.156600  -74.323100
  C    -42.386200  -50.283700  -75.254300
  C    -42.522000  -50.210600  -76.613500
  C    -43.886500  -50.199300  -77.027300
  C    -44.698000  -50.199300  -75.872400
  H    -44.376700  -50.188200  -77.938800
  C    -41.448800  -50.190500  -77.580400
  H    -40.687700  -49.702300  -77.014700
  H    -41.738300  -49.583000  -78.396100
  C    -40.933600  -51.506300  -78.075600
  H    -40.186600  -52.054800  -77.412400
  H    -41.816500  -52.178500  -78.363200
  C    -40.085500  -51.453200  -79.338600
  H    -39.178600  -50.765600  -79.168200
  H    -39.621000  -52.490300  -79.333000
  H    -40.720300  -51.350200  -80.299300
  S    -46.904000  -48.622100  -75.934800
  C    -48.487800  -49.334500  -75.584800
  C    -48.445700  -50.687700  -75.397500
  C    -47.073600  -51.185400  -75.528800
  C    -46.147500  -50.144100  -75.758500
  H    -49.367500  -51.173400  -75.176100
  C    -46.753300  -52.666100  -75.340800
  H    -47.655000  -53.177500  -75.091100
  H    -46.057900  -52.736300  -74.525700
  C    -46.152100  -53.395900  -76.531300
  H    -45.862100  -54.303100  -76.090400
  H    -45.195600  -52.898200  -76.910900
  C    -46.863400  -53.501600  -77.844900
  H    -47.870000  -53.954900  -77.767300
  H    -46.248600  -54.065800  -78.553600
  H    -47.040400  -52.576500  -78.311000
  H    -41.416000  -50.288700  -74.792000
  H    -49.445600  -48.838600  -75.478400

 Total Charge           Charge          ....    0
 Multiplicity           Mult            ....    1
 Number of Electrons    NEL             ....  134
 Basis Dimension        Dim             ....  322

ORBITAL ENERGIES
----------------

  NO   OCC          E(Eh)            E(eV)
   0   2.0000     -88.968292     -2420.9503
   1   2.0000     -88.964665     -2420.8516
   2   2.0000     -10.329701      -281.0855
   3   2.0000     -10.319043      -280.7954
   4   2.0000     -10.312411      -280.6150
   5   2.0000     -10.304867      -280.4097
   6   2.0000     -10.304678      -280.4045
   7   2.0000     -10.294913      -280.1388
   8   2.0000     -10.293967      -280.1131
   9   2.0000     -10.293340      -280.0960
  10   2.0000     -10.293267      -280.0940
  11   2.0000     -10.291040      -280.0334
  12   2.0000     -10.283383      -279.8251
  13   2.0000     -10.277755      -279.6719
  14   2.0000     -10.276074      -279.6262
  15   2.0000     -10.268821      -279.4288
  16   2.0000      -8.083413      -219.9609
  17   2.0000      -8.079595      -219.8570
  18   2.0000      -6.041597      -164.4002
  19   2.0000      -6.038146      -164.3063
  20   2.0000      -6.038107      -164.3052
  21   2.0000      -6.034253      -164.2004
  22   2.0000      -6.034047      -164.1948
  23   2.0000      -6.030344      -164.0940
  24   2.0000      -1.005954       -27.3734
  25   2.0000      -0.983635       -26.7661
  26   2.0000      -0.921380       -25.0720
  27   2.0000      -0.907373       -24.6909
  28   2.0000      -0.870209       -23.6796
  29   2.0000      -0.859075       -23.3766
  30   2.0000      -0.844284       -22.9741
  31   2.0000      -0.820085       -22.3157
  32   2.0000      -0.786395       -21.3989
  33   2.0000      -0.767696       -20.8901
  34   2.0000      -0.707093       -19.2410
  35   2.0000      -0.684051       -18.6140
  36   2.0000      -0.682603       -18.5746
  37   2.0000      -0.657270       -17.8852
  38   2.0000      -0.652975       -17.7684
  39   2.0000      -0.616645       -16.7798
  40   2.0000      -0.586709       -15.9652
  41   2.0000      -0.581065       -15.8116
  42   2.0000      -0.563597       -15.3363
  43   2.0000      -0.551566       -15.0089
  44   2.0000      -0.540126       -14.6976
  45   2.0000      -0.528186       -14.3727
  46   2.0000      -0.521048       -14.1784
  47   2.0000      -0.517109       -14.0713
  48   2.0000      -0.508222       -13.8294
  49   2.0000      -0.492113       -13.3911
  50   2.0000      -0.484986       -13.1971
  51   2.0000      -0.479591       -13.0503
  52   2.0000      -0.474505       -12.9119
  53   2.0000      -0.464436       -12.6379
  54   2.0000      -0.458959       -12.4889
  55   2.0000      -0.452441       -12.3115
  56   2.0000      -0.441289       -12.0081
  57   2.0000      -0.436289       -11.8720
  58   2.0000      -0.431599       -11.7444
  59   2.0000      -0.416692       -11.3388
  60   2.0000      -0.416139       -11.3237
  61   2.0000      -0.412570       -11.2266
  62   2.0000      -0.401350       -10.9213
  63   2.0000      -0.339192        -9.2299
  64   2.0000      -0.333973        -9.0879
  65   2.0000      -0.310886        -8.4596
  66   2.0000      -0.303247        -8.2518
  67   0.0000       0.045228         1.2307
  68   0.0000       0.055308         1.5050
  69   0.0000       0.108923         2.9640
  70   0.0000       0.121150         3.2967
  71   0.0000       0.124274         3.3817

MULLIKEN ATOMIC CHARGES
-----------------------
   0 S :    0.129590
   1 C :   -0.101605
   2 C :   -0.097926
   3 C :    0.086946
   4 C :   -0.209061
   5 H :   -0.010707
   6 C :    0.162094
   7 H :    0.004969
   8 H :    0.009878
   9 C :   -0.119072
  10 H :    0.038703
  11 H :    0.037372
  12 C :   -0.102842
  13 H :    0.046275
  14 H :    0.038109
  15 H :    0.056295
  16 S :    0.126470
  17 C :   -0.093740
  18 C :   -0.036892
  19 C :   -0.040957
  20 C :   -0.193541
  21 H :    0.012721
  22 C :    0.139899
  23 H :    0.003273
  24 H :    0.024815
  25 C :   -0.083083
  26 H :    0.013389
  27 H :    0.033469
  28 C :   -0.024970
  29 H :    0.018618
  30 H :    0.031392
  31 H :    0.021213
  32 H :    0.030847
  33 H :    0.048062
Sum of atomic charges:    0.0000000

LOEWDIN ATOMIC CHARGES
----------------------
   0 S :    0.419586
   1 C :   -0.210492
   2 C :   -0.064628
   3 C :   -0.038668
   4 C :   -0.176530
   5 H :    0.024563
   6 C :   -0.038714
   7 H :    0.031866
   8 H :    0.029850
   9 C :   -0.053228
  10 H :    0.033028
  11 H :    0.030615
  12 C :   -0.085303
  13 H :    0.032060
  14 H :    0.032158
  15 H :    0.032309
  16 S :    0.417163
  17 C :   -0.184026
  18 C :   -0.070630
  19 C :   -0.048841
  20 C :   -0.235586
  21 H :    0.030155
  22 C :   -0.025982
  23 H :    0.024913
  24 H :    0.032787
  25 C :   -0.044976
  26 H :    0.017045
  27 H :    0.034101
  28 C :   -0.063944
  29 H :    0.020156
  30 H :    0.030146
  31 H :    0.018745
  32 H :    0.020736
  33 H :    0.029567

  Mayer bond orders larger than 0.100000
B(  0-S ,  1-C ) :   1.1469 B(  0-S ,  4-C ) :   1.1637 B(  1-C ,  2-C ) :   1.6306
B(  1-C , 32-H ) :   0.9609 B(  2-C ,  3-C ) :   1.1973 B(  2-C ,  6-C ) :   1.0399
B(  3-C ,  4-C ) :   1.5876 B(  3-C ,  5-H ) :   1.0102 B(  4-C , 20-C ) :   1.0175
B(  6-C ,  7-H ) :   0.9116 B(  6-C ,  8-H ) :   0.9289 B(  6-C ,  9-C ) :   1.0700
B(  9-C , 10-H ) :   0.9591 B(  9-C , 11-H ) :   0.9554 B(  9-C , 12-C ) :   1.0749
B( 12-C , 13-H ) :   0.9698 B( 12-C , 14-H ) :   0.9783 B( 12-C , 15-H ) :   0.9715
B( 16-S , 17-C ) :   1.1422 B( 16-S , 20-C ) :   1.1550 B( 17-C , 18-C ) :   1.6528
B( 17-C , 33-H ) :   0.9618 B( 18-C , 19-C ) :   1.2129 B( 18-C , 21-H ) :   0.9924
B( 19-C , 20-C ) :   1.5902 B( 19-C , 22-C ) :   1.0436 B( 22-C , 23-H ) :   0.9286
B( 22-C , 24-H ) :   0.9223 B( 22-C , 25-C ) :   1.0834 B( 25-C , 26-H ) :   0.9535
B( 25-C , 27-H ) :   0.9518 B( 25-C , 28-C ) :   1.0773 B( 28-C , 29-H ) :   0.9714
B( 28-C , 30-H ) :   0.9719 B( 28-C , 31-H ) :   0.9710

Dispersion correction           -0.014930265
FINAL SINGLE POINT ENERGY     -1339.853578987347

DIPOLE MOMENT
-------------
                                X             Y             Z
Electronic contribution:    -11.56176      18.41148      17.04714
Nuclear contribution   :     11.70503     -18.73011     -17.24035
                        -----------------------------------------
Total Dipole Moment    :      0.14327      -0.31863      -0.19320
                        -----------------------------------------
Magnitude (a.u.)       :      0.39922
Magnitude (Debye)      :      1.01474

Rotational constants in cm-1:     0.020364     0.008380     0.007173
Rotational constants in MHz :   610.494403   251.222032   215.032125

                             ****ORCA TERMINATED NORMALLY****
TOTAL RUN TIME: 0 days 0 hours 0 minutes 22 seconds 176 msec
