                         Program Version 4.2.1 -  RELEASE  -
|  1> ! wB97X-D3 SP def2-SVP
|  2> %pal
|  3> nprocs 24
|  4> end
|  5>
|  6> * xyz 0 1
|  7> S 	 -57.1655 	 -2.77055 	 -30.0404
|  8> C 	 -57.213 	 -3.34943 	 -28.3814
|  9> C 	 -57.0261 	 -2.35596 	 -27.4319
| 10> C 	 -56.9263 	 -1.10273 	 -28.0439
| 11> C 	 -56.8931 	 -1.1084 	 -29.4245
| 12> H 	 -56.8184 	 -0.205281 	 -27.5125
| 13> C 	 -56.8719 	 -2.62664 	 -25.9604
| 14> H 	 -56.1493 	 -1.87297 	 -25.5544
| 15> H 	 -56.3809 	 -3.58486 	 -25.9298
| 16> C 	 -58.1561 	 -2.75042 	 -25.0991
| 17> H 	 -58.6987 	 -1.87776 	 -25.3423
| 18> H 	 -58.7097 	 -3.55806 	 -25.465
| 19> C 	 -57.7856 	 -2.86628 	 -23.5722
| 20> H 	 -57.3477 	 -3.80575 	 -23.3067
| 21> H 	 -56.9817 	 -2.22442 	 -23.2445
| 22> H 	 -58.5526 	 -2.59917 	 -22.8173
| 23> S 	 -55.9376 	 -0.27192 	 -31.8876
| 24> C 	 -55.9629 	 1.41874 	 -32.2848
| 25> C 	 -56.5848 	 2.17552 	 -31.3252
| 26> C 	 -56.8919 	 1.43598 	 -30.1529
| 27> C 	 -56.6512 	 0.0551688 	 -30.3153
| 28> H 	 -56.5842 	 3.2349 	 -31.4752
| 29> C 	 -57.179 	 2.26385 	 -28.8739
| 30> H 	 -56.7934 	 3.24867 	 -29.0381
| 31> H 	 -56.4551 	 2.02197 	 -28.0548
| 32> C 	 -58.6488 	 2.2376 	 -28.4284
| 33> H 	 -58.8907 	 2.64949 	 -27.4225
| 34> H 	 -59.0071 	 1.21864 	 -28.4169
| 35> C 	 -59.5753 	 3.21769 	 -29.256
| 36> H 	 -59.6946 	 2.7169 	 -30.113
| 37> H 	 -59.11 	 4.16816 	 -29.3898
| 38> H 	 -60.6137 	 3.28503 	 -28.805
| 39> H 	 -57.2781 	 -4.38436 	 -28.1528
| 40> H 	 -55.536 	 1.88608 	 -33.145
| 41> *
| 42>
| 43>                          ****END OF INPUT****

CARTESIAN COORDINATES (ANGSTROEM)
---------------------------------
  S    -57.165500   -2.770550  -30.040400
  C    -57.213000   -3.349430  -28.381400
  C    -57.026100   -2.355960  -27.431900
  C    -56.926300   -1.102730  -28.043900
  C    -56.893100   -1.108400  -29.424500
  H    -56.818400   -0.205281  -27.512500
  C    -56.871900   -2.626640  -25.960400
  H    -56.149300   -1.872970  -25.554400
  H    -56.380900   -3.584860  -25.929800
  C    -58.156100   -2.750420  -25.099100
  H    -58.698700   -1.877760  -25.342300
  H    -58.709700   -3.558060  -25.465000
  C    -57.785600   -2.866280  -23.572200
  H    -57.347700   -3.805750  -23.306700
  H    -56.981700   -2.224420  -23.244500
  H    -58.552600   -2.599170  -22.817300
  S    -55.937600   -0.271920  -31.887600
  C    -55.962900    1.418740  -32.284800
  C    -56.584800    2.175520  -31.325200
  C    -56.891900    1.435980  -30.152900
  C    -56.651200    0.055169  -30.315300
  H    -56.584200    3.234900  -31.475200
  C    -57.179000    2.263850  -28.873900
  H    -56.793400    3.248670  -29.038100
  H    -56.455100    2.021970  -28.054800
  C    -58.648800    2.237600  -28.428400
  H    -58.890700    2.649490  -27.422500
  H    -59.007100    1.218640  -28.416900
  C    -59.575300    3.217690  -29.256000
  H    -59.694600    2.716900  -30.113000
  H    -59.110000    4.168160  -29.389800
  H    -60.613700    3.285030  -28.805000
  H    -57.278100   -4.384360  -28.152800
  H    -55.536000    1.886080  -33.145000

 Total Charge           Charge          ....    0
 Multiplicity           Mult            ....    1
 Number of Electrons    NEL             ....  134
 Basis Dimension        Dim             ....  322

ORBITAL ENERGIES
----------------

  NO   OCC          E(Eh)            E(eV)
   0   2.0000     -88.969801     -2420.9914
   1   2.0000     -88.969752     -2420.9900
   2   2.0000     -10.335409      -281.2408
   3   2.0000     -10.335082      -281.2319
   4   2.0000     -10.313356      -280.6407
   5   2.0000     -10.311796      -280.5982
   6   2.0000     -10.308589      -280.5110
   7   2.0000     -10.298983      -280.2496
   8   2.0000     -10.297774      -280.2167
   9   2.0000     -10.293052      -280.0882
  10   2.0000     -10.290711      -280.0245
  11   2.0000     -10.287305      -279.9318
  12   2.0000     -10.287220      -279.9295
  13   2.0000     -10.286777      -279.9174
  14   2.0000     -10.281411      -279.7714
  15   2.0000     -10.268897      -279.4309
  16   2.0000      -8.084461      -219.9894
  17   2.0000      -8.083526      -219.9639
  18   2.0000      -6.042963      -164.4374
  19   2.0000      -6.042101      -164.4139
  20   2.0000      -6.038959      -164.3284
  21   2.0000      -6.038291      -164.3102
  22   2.0000      -6.035268      -164.2280
  23   2.0000      -6.034180      -164.1984
  24   2.0000      -1.004718       -27.3398
  25   2.0000      -0.984823       -26.7984
  26   2.0000      -0.909629       -24.7523
  27   2.0000      -0.904070       -24.6010
  28   2.0000      -0.866808       -23.5870
  29   2.0000      -0.852210       -23.1898
  30   2.0000      -0.846243       -23.0274
  31   2.0000      -0.815752       -22.1977
  32   2.0000      -0.784945       -21.3594
  33   2.0000      -0.772685       -21.0258
  34   2.0000      -0.716072       -19.4853
  35   2.0000      -0.708708       -19.2849
  36   2.0000      -0.691826       -18.8255
  37   2.0000      -0.664146       -18.0723
  38   2.0000      -0.640287       -17.4231
  39   2.0000      -0.625996       -17.0342
  40   2.0000      -0.596867       -16.2416
  41   2.0000      -0.568771       -15.4770
  42   2.0000      -0.561964       -15.2918
  43   2.0000      -0.550498       -14.9798
  44   2.0000      -0.542239       -14.7551
  45   2.0000      -0.523892       -14.2558
  46   2.0000      -0.516713       -14.0605
  47   2.0000      -0.504615       -13.7313
  48   2.0000      -0.500026       -13.6064
  49   2.0000      -0.496667       -13.5150
  50   2.0000      -0.494342       -13.4517
  51   2.0000      -0.479438       -13.0462
  52   2.0000      -0.469008       -12.7624
  53   2.0000      -0.468687       -12.7536
  54   2.0000      -0.460643       -12.5347
  55   2.0000      -0.451410       -12.2835
  56   2.0000      -0.447805       -12.1854
  57   2.0000      -0.444184       -12.0869
  58   2.0000      -0.437441       -11.9034
  59   2.0000      -0.428140       -11.6503
  60   2.0000      -0.426533       -11.6066
  61   2.0000      -0.420196       -11.4341
  62   2.0000      -0.396044       -10.7769
  63   2.0000      -0.357181        -9.7194
  64   2.0000      -0.338124        -9.2008
  65   2.0000      -0.332386        -9.0447
  66   2.0000      -0.280456        -7.6316
  67   0.0000       0.020252         0.5511
  68   0.0000       0.073459         1.9989
  69   0.0000       0.103222         2.8088
  70   0.0000       0.120895         3.2897
  71   0.0000       0.128917         3.5080

MULLIKEN ATOMIC CHARGES
-----------------------
   0 S :    0.104904
   1 C :   -0.115191
   2 C :   -0.072596
   3 C :    0.021796
   4 C :   -0.106578
   5 H :   -0.026032
   6 C :    0.025225
   7 H :    0.033141
   8 H :    0.018772
   9 C :    0.008300
  10 H :    0.019770
  11 H :    0.018820
  12 C :   -0.045900
  13 H :    0.021120
  14 H :    0.012739
  15 H :    0.041437
  16 S :    0.109569
  17 C :   -0.084395
  18 C :   -0.029309
  19 C :   -0.040188
  20 C :   -0.134945
  21 H :    0.015597
  22 C :    0.038221
  23 H :    0.006383
  24 H :    0.043705
  25 C :   -0.084511
  26 H :    0.028374
  27 H :    0.038042
  28 C :   -0.022522
  29 H :    0.007843
  30 H :    0.028321
  31 H :    0.040493
  32 H :    0.033502
  33 H :    0.046096
Sum of atomic charges:    0.0000000

LOEWDIN ATOMIC CHARGES
----------------------
   0 S :    0.383238
   1 C :   -0.186548
   2 C :   -0.064001
   3 C :   -0.060080
   4 C :   -0.173089
   5 H :    0.021485
   6 C :   -0.030973
   7 H :    0.034519
   8 H :    0.028158
   9 C :   -0.023050
  10 H :    0.020163
  11 H :    0.018890
  12 C :   -0.073030
  13 H :    0.023080
  14 H :    0.024240
  15 H :    0.032092
  16 S :    0.411429
  17 C :   -0.186491
  18 C :   -0.070132
  19 C :   -0.056892
  20 C :   -0.189805
  21 H :    0.030577
  22 C :   -0.034463
  23 H :    0.025667
  24 H :    0.037099
  25 C :   -0.042470
  26 H :    0.024681
  27 H :    0.023368
  28 C :   -0.053164
  29 H :    0.005632
  30 H :    0.020206
  31 H :    0.034737
  32 H :    0.018424
  33 H :    0.026502

  Mayer bond orders larger than 0.100000
B(  0-S ,  1-C ) :   1.1376 B(  0-S ,  4-C ) :   1.1366 B(  1-C ,  2-C ) :   1.6002
B(  1-C ,  4-C ) :   0.1008 B(  1-C , 32-H ) :   0.9686 B(  2-C ,  3-C ) :   1.2624
B(  2-C ,  6-C ) :   1.0178 B(  3-C ,  4-C ) :   1.5595 B(  3-C ,  5-H ) :   1.0030
B(  4-C , 20-C ) :   1.0635 B(  6-C ,  7-H ) :   0.9446 B(  6-C ,  8-H ) :   0.9383
B(  6-C ,  9-C ) :   1.0561 B(  9-C , 10-H ) :   0.9600 B(  9-C , 11-H ) :   0.9573
B(  9-C , 12-C ) :   1.0612 B( 12-C , 13-H ) :   0.9763 B( 12-C , 14-H ) :   0.9741
B( 12-C , 15-H ) :   0.9776 B( 16-S , 17-C ) :   1.1545 B( 16-S , 20-C ) :   1.1463
B( 17-C , 18-C ) :   1.6204 B( 17-C , 20-C ) :   0.1002 B( 17-C , 33-H ) :   0.9673
B( 18-C , 19-C ) :   1.2558 B( 18-C , 21-H ) :   0.9881 B( 19-C , 20-C ) :   1.5748
B( 19-C , 22-C ) :   1.0154 B( 22-C , 23-H ) :   0.9429 B( 22-C , 24-H ) :   0.9430
B( 22-C , 25-C ) :   1.0490 B( 25-C , 26-H ) :   0.9645 B( 25-C , 27-H ) :   0.9632
B( 25-C , 28-C ) :   1.0612 B( 28-C , 29-H ) :   0.9801 B( 28-C , 30-H ) :   0.9762
B( 28-C , 31-H ) :   0.9777

Dispersion correction           -0.013971295
FINAL SINGLE POINT ENERGY     -1339.858530792975

DIPOLE MOMENT
-------------
                                X             Y             Z
Electronic contribution:     10.37055      -9.25025     -27.09059
Nuclear contribution   :    -10.27375       9.62784      27.64426
                        -----------------------------------------
Total Dipole Moment    :      0.09680       0.37759       0.55367
                        -----------------------------------------
Magnitude (a.u.)       :      0.67712
Magnitude (Debye)      :      1.72111

Rotational constants in cm-1:     0.018909     0.008249     0.006201
Rotational constants in MHz :   566.890526   247.307114   185.912730

                             ****ORCA TERMINATED NORMALLY****
TOTAL RUN TIME: 0 days 0 hours 0 minutes 21 seconds 506 msec
