                         Program Version 4.2.1 -  RELEASE  -
|  1> ! wB97X-D3 SP def2-SVP
|  2> %pal
|  3> nprocs 24
|  4> end
|  5>
|  6> * xyz 0 1
|  7> S 	 -103.198 	 59.8106 	 -99.3419
|  8> C 	 -104.531 	 58.6397 	 -99.2132
|  9> C 	 -105.474 	 58.7349 	 -100.269
| 10> C 	 -105.081 	 59.7829 	 -101.158
| 11> C 	 -104.05 	 60.5723 	 -100.649
| 12> H 	 -105.61 	 60.1152 	 -102.016
| 13> C 	 -106.755 	 58.0023 	 -100.357
| 14> H 	 -107.508 	 58.3898 	 -101.079
| 15> H 	 -107.213 	 58.0022 	 -99.3476
| 16> C 	 -106.618 	 56.5716 	 -100.747
| 17> H 	 -105.932 	 55.974 	 -100.159
| 18> H 	 -107.544 	 56.0151 	 -100.854
| 19> C 	 -106.217 	 56.4469 	 -102.179
| 20> H 	 -105.359 	 57.0667 	 -102.44
| 21> H 	 -105.96 	 55.4179 	 -102.376
| 22> H 	 -107.088 	 56.6489 	 -102.79
| 23> S 	 -104.715 	 63.2975 	 -100.841
| 24> C 	 -103.583 	 64.2921 	 -101.65
| 25> C 	 -102.453 	 63.6531 	 -102.142
| 26> C 	 -102.554 	 62.2797 	 -101.934
| 27> C 	 -103.677 	 61.8975 	 -101.208
| 28> H 	 -101.681 	 64.2637 	 -102.755
| 29> C 	 -101.436 	 61.3978 	 -102.448
| 30> H 	 -101.098 	 61.6015 	 -103.47
| 31> H 	 -101.802 	 60.3969 	 -102.405
| 32> C 	 -100.135 	 61.4488 	 -101.591
| 33> H 	 -100.405 	 61.5121 	 -100.523
| 34> H 	 -99.4344 	 62.2566 	 -101.804
| 35> C 	 -99.2329 	 60.2119 	 -101.691
| 36> H 	 -98.563 	 60.3331 	 -102.476
| 37> H 	 -99.6249 	 59.2295 	 -101.975
| 38> H 	 -98.5794 	 60.1017 	 -100.868
| 39> H 	 -104.587 	 57.935 	 -98.3545
| 40> H 	 -103.716 	 65.3417 	 -101.689
| 41> *
| 42>
| 43>                          ****END OF INPUT****

CARTESIAN COORDINATES (ANGSTROEM)
---------------------------------
  S    -103.198000   59.810600  -99.341900
  C    -104.531000   58.639700  -99.213200
  C    -105.474000   58.734900  -100.269000
  C    -105.081000   59.782900  -101.158000
  C    -104.050000   60.572300  -100.649000
  H    -105.610000   60.115200  -102.016000
  C    -106.755000   58.002300  -100.357000
  H    -107.508000   58.389800  -101.079000
  H    -107.213000   58.002200  -99.347600
  C    -106.618000   56.571600  -100.747000
  H    -105.932000   55.974000  -100.159000
  H    -107.544000   56.015100  -100.854000
  C    -106.217000   56.446900  -102.179000
  H    -105.359000   57.066700  -102.440000
  H    -105.960000   55.417900  -102.376000
  H    -107.088000   56.648900  -102.790000
  S    -104.715000   63.297500  -100.841000
  C    -103.583000   64.292100  -101.650000
  C    -102.453000   63.653100  -102.142000
  C    -102.554000   62.279700  -101.934000
  C    -103.677000   61.897500  -101.208000
  H    -101.681000   64.263700  -102.755000
  C    -101.436000   61.397800  -102.448000
  H    -101.098000   61.601500  -103.470000
  H    -101.802000   60.396900  -102.405000
  C    -100.135000   61.448800  -101.591000
  H    -100.405000   61.512100  -100.523000
  H    -99.434400   62.256600  -101.804000
  C    -99.232900   60.211900  -101.691000
  H    -98.563000   60.333100  -102.476000
  H    -99.624900   59.229500  -101.975000
  H    -98.579400   60.101700  -100.868000
  H    -104.587000   57.935000  -98.354500
  H    -103.716000   65.341700  -101.689000

 Total Charge           Charge          ....    0
 Multiplicity           Mult            ....    1
 Number of Electrons    NEL             ....  134
 Basis Dimension        Dim             ....  322

ORBITAL ENERGIES
----------------

  NO   OCC          E(Eh)            E(eV)
   0   2.0000     -88.970391     -2421.0074
   1   2.0000     -88.968374     -2420.9525
   2   2.0000     -10.327732      -281.0319
   3   2.0000     -10.325492      -280.9709
   4   2.0000     -10.321476      -280.8616
   5   2.0000     -10.311589      -280.5926
   6   2.0000     -10.306269      -280.4478
   7   2.0000     -10.299875      -280.2739
   8   2.0000     -10.295148      -280.1452
   9   2.0000     -10.292414      -280.0708
  10   2.0000     -10.292095      -280.0621
  11   2.0000     -10.288336      -279.9598
  12   2.0000     -10.285147      -279.8731
  13   2.0000     -10.274758      -279.5904
  14   2.0000     -10.265841      -279.3477
  15   2.0000     -10.263298      -279.2785
  16   2.0000      -8.084507      -219.9906
  17   2.0000      -8.083291      -219.9575
  18   2.0000      -6.042849      -164.4343
  19   2.0000      -6.041566      -164.3994
  20   2.0000      -6.039219      -164.3355
  21   2.0000      -6.037829      -164.2977
  22   2.0000      -6.035373      -164.2309
  23   2.0000      -6.034241      -164.2001
  24   2.0000      -1.004043       -27.3214
  25   2.0000      -0.983707       -26.7680
  26   2.0000      -0.925377       -25.1808
  27   2.0000      -0.905422       -24.6378
  28   2.0000      -0.863027       -23.4842
  29   2.0000      -0.855217       -23.2716
  30   2.0000      -0.850083       -23.1319
  31   2.0000      -0.809553       -22.0291
  32   2.0000      -0.786810       -21.4102
  33   2.0000      -0.770037       -20.9538
  34   2.0000      -0.700587       -19.0639
  35   2.0000      -0.695143       -18.9158
  36   2.0000      -0.690310       -18.7843
  37   2.0000      -0.655691       -17.8423
  38   2.0000      -0.641041       -17.4436
  39   2.0000      -0.612787       -16.6748
  40   2.0000      -0.599957       -16.3257
  41   2.0000      -0.581410       -15.8210
  42   2.0000      -0.561682       -15.2842
  43   2.0000      -0.559316       -15.2198
  44   2.0000      -0.544248       -14.8097
  45   2.0000      -0.522077       -14.2064
  46   2.0000      -0.515476       -14.0268
  47   2.0000      -0.508849       -13.8465
  48   2.0000      -0.500325       -13.6145
  49   2.0000      -0.487895       -13.2763
  50   2.0000      -0.483746       -13.1634
  51   2.0000      -0.478728       -13.0269
  52   2.0000      -0.467931       -12.7330
  53   2.0000      -0.465927       -12.6785
  54   2.0000      -0.463211       -12.6046
  55   2.0000      -0.446990       -12.1632
  56   2.0000      -0.444076       -12.0839
  57   2.0000      -0.435727       -11.8567
  58   2.0000      -0.432212       -11.7611
  59   2.0000      -0.423876       -11.5342
  60   2.0000      -0.421927       -11.4812
  61   2.0000      -0.411969       -11.2103
  62   2.0000      -0.410730       -11.1765
  63   2.0000      -0.337588        -9.1862
  64   2.0000      -0.331984        -9.0337
  65   2.0000      -0.321579        -8.7506
  66   2.0000      -0.298908        -8.1337
  67   0.0000       0.036722         0.9993
  68   0.0000       0.053227         1.4484
  69   0.0000       0.103414         2.8140
  70   0.0000       0.111072         3.0224
  71   0.0000       0.126772         3.4497

MULLIKEN ATOMIC CHARGES
-----------------------
   0 S :    0.131234
   1 C :   -0.144854
   2 C :   -0.067654
   3 C :    0.057449
   4 C :   -0.191051
   5 H :    0.004363
   6 C :    0.077181
   7 H :    0.028064
   8 H :    0.040766
   9 C :   -0.070855
  10 H :    0.024077
  11 H :    0.021234
  12 C :   -0.061148
  13 H :    0.036421
  14 H :    0.021996
  15 H :    0.019638
  16 S :    0.129021
  17 C :   -0.089227
  18 C :   -0.060204
  19 C :   -0.013650
  20 C :   -0.190959
  21 H :    0.054469
  22 C :    0.104073
  23 H :    0.030963
  24 H :    0.013576
  25 C :   -0.088100
  26 H :    0.031480
  27 H :    0.031371
  28 C :   -0.024841
  29 H :   -0.002769
  30 H :    0.024494
  31 H :    0.021079
  32 H :    0.061189
  33 H :    0.041174
Sum of atomic charges:    0.0000000

LOEWDIN ATOMIC CHARGES
----------------------
   0 S :    0.408501
   1 C :   -0.194651
   2 C :   -0.056367
   3 C :   -0.054440
   4 C :   -0.202528
   5 H :    0.026783
   6 C :   -0.037082
   7 H :    0.037713
   8 H :    0.040586
   9 C :   -0.047488
  10 H :    0.018590
  11 H :    0.026855
  12 C :   -0.061937
  13 H :    0.021119
  14 H :    0.023571
  15 H :    0.020107
  16 S :    0.420004
  17 C :   -0.185661
  18 C :   -0.083423
  19 C :   -0.054375
  20 C :   -0.203463
  21 H :    0.051323
  22 C :   -0.025802
  23 H :    0.033502
  24 H :    0.025013
  25 C :   -0.038450
  26 H :    0.023164
  27 H :    0.025443
  28 C :   -0.068931
  29 H :    0.014860
  30 H :    0.026329
  31 H :    0.023509
  32 H :    0.030289
  33 H :    0.017336

  Mayer bond orders larger than 0.100000
B(  0-S ,  1-C ) :   1.1431 B(  0-S ,  4-C ) :   1.1580 B(  1-C ,  2-C ) :   1.5891
B(  1-C , 32-H ) :   0.9635 B(  2-C ,  3-C ) :   1.2335 B(  2-C ,  6-C ) :   1.0260
B(  3-C ,  4-C ) :   1.5764 B(  3-C ,  5-H ) :   0.9959 B(  4-C , 20-C ) :   1.0172
B(  6-C ,  7-H ) :   0.9430 B(  6-C ,  8-H ) :   0.9329 B(  6-C ,  9-C ) :   1.0811
B(  9-C , 10-H ) :   0.9581 B(  9-C , 11-H ) :   0.9570 B(  9-C , 12-C ) :   1.0705
B( 12-C , 13-H ) :   0.9751 B( 12-C , 14-H ) :   0.9718 B( 12-C , 15-H ) :   0.9781
B( 16-S , 17-C ) :   1.1851 B( 16-S , 20-C ) :   1.1392 B( 17-C , 18-C ) :   1.5951
B( 17-C , 20-C ) :   0.1010 B( 17-C , 33-H ) :   0.9671 B( 18-C , 19-C ) :   1.2485
B( 18-C , 21-H ) :   0.9781 B( 19-C , 20-C ) :   1.5958 B( 19-C , 22-C ) :   1.0623
B( 22-C , 23-H ) :   0.9374 B( 22-C , 24-H ) :   0.9268 B( 22-C , 25-C ) :   1.0543
B( 25-C , 26-H ) :   0.9636 B( 25-C , 27-H ) :   0.9562 B( 25-C , 28-C ) :   1.0770
B( 28-C , 29-H ) :   0.9719 B( 28-C , 30-H ) :   0.9748 B( 28-C , 31-H ) :   0.9745

Dispersion correction           -0.014486002
FINAL SINGLE POINT ENERGY     -1339.859138206004

DIPOLE MOMENT
-------------
                                X             Y             Z
Electronic contribution:     -5.37440      17.99349       9.29575
Nuclear contribution   :      5.37869     -18.14082      -9.52108
                        -----------------------------------------
Total Dipole Moment    :      0.00428      -0.14733      -0.22533
                        -----------------------------------------
Magnitude (a.u.)       :      0.26926
Magnitude (Debye)      :      0.68440

Rotational constants in cm-1:     0.019217     0.008355     0.006875
Rotational constants in MHz :   576.124140   250.476374   206.096935

                             ****ORCA TERMINATED NORMALLY****
TOTAL RUN TIME: 0 days 0 hours 0 minutes 21 seconds 352 msec
