                         Program Version 4.2.1 -  RELEASE  -
|  1> ! wB97X-D3 SP def2-SVP
|  2> %pal
|  3> nprocs 24
|  4> end
|  5>
|  6> * xyz 0 1
|  7> S 	 -53.542 	 -53.5154 	 -82.8712
|  8> C 	 -53.8706 	 -52.1056 	 -81.9303
|  9> C 	 -53.0623 	 -52.0013 	 -80.8436
| 10> C 	 -51.9407 	 -52.902 	 -80.9259
| 11> C 	 -52.1387 	 -53.7998 	 -81.8784
| 12> H 	 -51.084 	 -52.8676 	 -80.2544
| 13> C 	 -53.2051 	 -50.9964 	 -79.7477
| 14> H 	 -54.0347 	 -50.3499 	 -79.9826
| 15> H 	 -52.2901 	 -50.3256 	 -79.7864
| 16> C 	 -53.5349 	 -51.4082 	 -78.347
| 17> H 	 -54.2964 	 -52.2015 	 -78.4824
| 18> H 	 -52.6336 	 -51.8207 	 -77.868
| 19> C 	 -54.1559 	 -50.2076 	 -77.5732
| 20> H 	 -54.2926 	 -50.4799 	 -76.4842
| 21> H 	 -53.428 	 -49.4199 	 -77.7607
| 22> H 	 -55.1401 	 -49.8399 	 -78.0298
| 23> S 	 -52.2414 	 -56.4825 	 -81.5907
| 24> C 	 -50.8962 	 -57.4321 	 -82.0566
| 25> C 	 -49.751 	 -56.7081 	 -82.4126
| 26> C 	 -50.021 	 -55.2872 	 -82.5083
| 27> C 	 -51.3552 	 -55.0168 	 -82.0998
| 28> H 	 -48.7011 	 -57.1511 	 -82.6465
| 29> C 	 -48.9144 	 -54.2891 	 -82.6566
| 30> H 	 -49.4296 	 -53.3221 	 -82.843
| 31> H 	 -48.3419 	 -54.4951 	 -83.5656
| 32> C 	 -48.0782 	 -54.0012 	 -81.4298
| 33> H 	 -48.8244 	 -53.788 	 -80.6464
| 34> H 	 -47.3921 	 -53.1331 	 -81.5389
| 35> C 	 -47.1241 	 -55.1201 	 -81.1622
| 36> H 	 -46.4005 	 -54.7481 	 -80.5013
| 37> H 	 -46.6311 	 -55.3466 	 -82.1189
| 38> H 	 -47.6133 	 -55.9091 	 -80.736
| 39> H 	 -54.7718 	 -51.5529 	 -82.1756
| 40> H 	 -50.9687 	 -58.4453 	 -82.2588
| 41> *
| 42>
| 43>                          ****END OF INPUT****

CARTESIAN COORDINATES (ANGSTROEM)
---------------------------------
  S    -53.542000  -53.515400  -82.871200
  C    -53.870600  -52.105600  -81.930300
  C    -53.062300  -52.001300  -80.843600
  C    -51.940700  -52.902000  -80.925900
  C    -52.138700  -53.799800  -81.878400
  H    -51.084000  -52.867600  -80.254400
  C    -53.205100  -50.996400  -79.747700
  H    -54.034700  -50.349900  -79.982600
  H    -52.290100  -50.325600  -79.786400
  C    -53.534900  -51.408200  -78.347000
  H    -54.296400  -52.201500  -78.482400
  H    -52.633600  -51.820700  -77.868000
  C    -54.155900  -50.207600  -77.573200
  H    -54.292600  -50.479900  -76.484200
  H    -53.428000  -49.419900  -77.760700
  H    -55.140100  -49.839900  -78.029800
  S    -52.241400  -56.482500  -81.590700
  C    -50.896200  -57.432100  -82.056600
  C    -49.751000  -56.708100  -82.412600
  C    -50.021000  -55.287200  -82.508300
  C    -51.355200  -55.016800  -82.099800
  H    -48.701100  -57.151100  -82.646500
  C    -48.914400  -54.289100  -82.656600
  H    -49.429600  -53.322100  -82.843000
  H    -48.341900  -54.495100  -83.565600
  C    -48.078200  -54.001200  -81.429800
  H    -48.824400  -53.788000  -80.646400
  H    -47.392100  -53.133100  -81.538900
  C    -47.124100  -55.120100  -81.162200
  H    -46.400500  -54.748100  -80.501300
  H    -46.631100  -55.346600  -82.118900
  H    -47.613300  -55.909100  -80.736000
  H    -54.771800  -51.552900  -82.175600
  H    -50.968700  -58.445300  -82.258800

 Total Charge           Charge          ....    0
 Multiplicity           Mult            ....    1
 Number of Electrons    NEL             ....  134
 Basis Dimension        Dim             ....  322

ORBITAL ENERGIES
----------------

  NO   OCC          E(Eh)            E(eV)
   0   2.0000     -88.966544     -2420.9027
   1   2.0000     -88.962255     -2420.7860
   2   2.0000     -10.328017      -281.0396
   3   2.0000     -10.321275      -280.8562
   4   2.0000     -10.310000      -280.5494
   5   2.0000     -10.309150      -280.5262
   6   2.0000     -10.306144      -280.4444
   7   2.0000     -10.301450      -280.3167
   8   2.0000     -10.298004      -280.2229
   9   2.0000     -10.292520      -280.0737
  10   2.0000     -10.291344      -280.0417
  11   2.0000     -10.288880      -279.9747
  12   2.0000     -10.288195      -279.9560
  13   2.0000     -10.287200      -279.9290
  14   2.0000     -10.284745      -279.8621
  15   2.0000     -10.262106      -279.2461
  16   2.0000      -8.081432      -219.9069
  17   2.0000      -8.078252      -219.8204
  18   2.0000      -6.039792      -164.3511
  19   2.0000      -6.036647      -164.2655
  20   2.0000      -6.036011      -164.2482
  21   2.0000      -6.032783      -164.1604
  22   2.0000      -6.032251      -164.1459
  23   2.0000      -6.028850      -164.0533
  24   2.0000      -1.012297       -27.5460
  25   2.0000      -0.983171       -26.7534
  26   2.0000      -0.919576       -25.0229
  27   2.0000      -0.917407       -24.9639
  28   2.0000      -0.868604       -23.6359
  29   2.0000      -0.854672       -23.2568
  30   2.0000      -0.850981       -23.1564
  31   2.0000      -0.811986       -22.0953
  32   2.0000      -0.785178       -21.3658
  33   2.0000      -0.766863       -20.8674
  34   2.0000      -0.704959       -19.1829
  35   2.0000      -0.694365       -18.8946
  36   2.0000      -0.684787       -18.6340
  37   2.0000      -0.657814       -17.9000
  38   2.0000      -0.648814       -17.6551
  39   2.0000      -0.624522       -16.9941
  40   2.0000      -0.595541       -16.2055
  41   2.0000      -0.573207       -15.5978
  42   2.0000      -0.566304       -15.4099
  43   2.0000      -0.553946       -15.0736
  44   2.0000      -0.549607       -14.9556
  45   2.0000      -0.524510       -14.2726
  46   2.0000      -0.521296       -14.1852
  47   2.0000      -0.509080       -13.8528
  48   2.0000      -0.506865       -13.7925
  49   2.0000      -0.494247       -13.4492
  50   2.0000      -0.490700       -13.3526
  51   2.0000      -0.477930       -13.0051
  52   2.0000      -0.468455       -12.7473
  53   2.0000      -0.465099       -12.6560
  54   2.0000      -0.457515       -12.4496
  55   2.0000      -0.450362       -12.2550
  56   2.0000      -0.445010       -12.1093
  57   2.0000      -0.437322       -11.9001
  58   2.0000      -0.434079       -11.8119
  59   2.0000      -0.427496       -11.6327
  60   2.0000      -0.421692       -11.4748
  61   2.0000      -0.415324       -11.3015
  62   2.0000      -0.404507       -11.0072
  63   2.0000      -0.341483        -9.2922
  64   2.0000      -0.330194        -8.9850
  65   2.0000      -0.322328        -8.7710
  66   2.0000      -0.300639        -8.1808
  67   0.0000       0.038956         1.0601
  68   0.0000       0.063173         1.7190
  69   0.0000       0.108977         2.9654
  70   0.0000       0.118124         3.2143
  71   0.0000       0.125053         3.4029

MULLIKEN ATOMIC CHARGES
-----------------------
   0 S :    0.115189
   1 C :   -0.126069
   2 C :   -0.080376
   3 C :    0.041004
   4 C :   -0.143614
   5 H :    0.017642
   6 C :    0.036989
   7 H :   -0.004419
   8 H :    0.037752
   9 C :   -0.062508
  10 H :    0.034146
  11 H :    0.034859
  12 C :   -0.088099
  13 H :    0.057788
  14 H :    0.034329
  15 H :    0.049821
  16 S :    0.120704
  17 C :   -0.065386
  18 C :   -0.079248
  19 C :   -0.025652
  20 C :   -0.197226
  21 H :    0.056073
  22 C :    0.041820
  23 H :    0.026675
  24 H :    0.026983
  25 C :   -0.078704
  26 H :    0.025862
  27 H :    0.031998
  28 C :    0.010764
  29 H :    0.015995
  30 H :    0.022767
  31 H :    0.024596
  32 H :    0.049814
  33 H :    0.037728
Sum of atomic charges:   -0.0000000

LOEWDIN ATOMIC CHARGES
----------------------
   0 S :    0.409983
   1 C :   -0.195199
   2 C :   -0.064724
   3 C :   -0.054392
   4 C :   -0.202105
   5 H :    0.034613
   6 C :   -0.045092
   7 H :    0.025492
   8 H :    0.034731
   9 C :   -0.044233
  10 H :    0.027318
  11 H :    0.023614
  12 C :   -0.071861
  13 H :    0.035393
  14 H :    0.024081
  15 H :    0.033732
  16 S :    0.415636
  17 C :   -0.195119
  18 C :   -0.081405
  19 C :   -0.056081
  20 C :   -0.187423
  21 H :    0.047616
  22 C :   -0.040975
  23 H :    0.035840
  24 H :    0.028384
  25 C :   -0.037392
  26 H :    0.023916
  27 H :    0.029114
  28 C :   -0.053325
  29 H :    0.020016
  30 H :    0.028316
  31 H :    0.012576
  32 H :    0.025347
  33 H :    0.013608

  Mayer bond orders larger than 0.100000
B(  0-S ,  1-C ) :   1.1277 B(  0-S ,  4-C ) :   1.1504 B(  1-C ,  2-C ) :   1.6474
B(  1-C , 32-H ) :   0.9668 B(  2-C ,  3-C ) :   1.1862 B(  2-C ,  6-C ) :   1.0457
B(  3-C ,  4-C ) :   1.6270 B(  3-C ,  5-H ) :   0.9981 B(  4-C , 20-C ) :   0.9938
B(  6-C ,  7-H ) :   0.9378 B(  6-C ,  8-H ) :   0.9250 B(  6-C ,  9-C ) :   1.0576
B(  9-C , 10-H ) :   0.9544 B(  9-C , 11-H ) :   0.9515 B(  9-C , 12-C ) :   1.0754
B( 12-C , 13-H ) :   0.9734 B( 12-C , 14-H ) :   0.9751 B( 12-C , 15-H ) :   0.9712
B( 16-S , 17-C ) :   1.1635 B( 16-S , 20-C ) :   1.1602 B( 17-C , 18-C ) :   1.5981
B( 17-C , 20-C ) :   0.1062 B( 17-C , 33-H ) :   0.9712 B( 18-C , 19-C ) :   1.2466
B( 18-C , 21-H ) :   0.9656 B( 19-C , 20-C ) :   1.5861 B( 19-C , 22-C ) :   1.0663
B( 22-C , 23-H ) :   0.9250 B( 22-C , 24-H ) :   0.9313 B( 22-C , 25-C ) :   1.0732
B( 25-C , 26-H ) :   0.9458 B( 25-C , 27-H ) :   0.9562 B( 25-C , 28-C ) :   1.0904
B( 28-C , 29-H ) :   0.9695 B( 28-C , 30-H ) :   0.9700 B( 28-C , 31-H ) :   0.9685

Dispersion correction           -0.014344648
FINAL SINGLE POINT ENERGY     -1339.858765344775

DIPOLE MOMENT
-------------
                                X             Y             Z
Electronic contribution:    -12.73930     -14.83508     -15.28970
Nuclear contribution   :     13.03132      15.17531      15.62787
                        -----------------------------------------
Total Dipole Moment    :      0.29202       0.34023       0.33817
                        -----------------------------------------
Magnitude (a.u.)       :      0.56160
Magnitude (Debye)      :      1.42747

Rotational constants in cm-1:     0.019786     0.007944     0.006776
Rotational constants in MHz :   593.174593   238.142591   203.129353

                             ****ORCA TERMINATED NORMALLY****
TOTAL RUN TIME: 0 days 0 hours 0 minutes 21 seconds 619 msec
