                         Program Version 4.2.1 -  RELEASE  -
|  1> ! wB97X-D3 SP def2-SVP
|  2> %pal
|  3> nprocs 24
|  4> end
|  5>
|  6> * xyz 0 1
|  7> S 	 -28.7628 	 -35.0809 	 -93.895
|  8> C 	 -28.414 	 -33.5485 	 -94.5187
|  9> C 	 -29.5848 	 -32.9205 	 -94.9765
| 10> C 	 -30.7042 	 -33.7471 	 -94.8367
| 11> C 	 -30.4594 	 -35.0084 	 -94.3177
| 12> H 	 -31.6852 	 -33.5013 	 -95.1935
| 13> C 	 -29.6891 	 -31.4789 	 -95.3813
| 14> H 	 -29.8746 	 -31.5382 	 -96.451
| 15> H 	 -28.6665 	 -31.0651 	 -95.2837
| 16> C 	 -30.7358 	 -30.5713 	 -94.6896
| 17> H 	 -30.8537 	 -29.6526 	 -95.2812
| 18> H 	 -31.7096 	 -31.0879 	 -94.7182
| 19> C 	 -30.463 	 -30.3904 	 -93.2231
| 20> H 	 -31.2593 	 -29.6816 	 -92.845
| 21> H 	 -30.5327 	 -31.3552 	 -92.6803
| 22> H 	 -29.3748 	 -30.0659 	 -92.9209
| 23> S 	 -31.2296 	 -36.8085 	 -92.2375
| 24> C 	 -32.7595 	 -37.629 	 -92.5394
| 25> C 	 -33.3677 	 -37.3092 	 -93.7066
| 26> C 	 -32.6504 	 -36.3578 	 -94.461
| 27> C 	 -31.4423 	 -35.9918 	 -93.8385
| 28> H 	 -34.1853 	 -37.8162 	 -94.1044
| 29> C 	 -33.1563 	 -35.9596 	 -95.8085
| 30> H 	 -33.1985 	 -34.8931 	 -95.6805
| 31> H 	 -34.1731 	 -36.2671 	 -95.7998
| 32> C 	 -32.4455 	 -36.4905 	 -97.0662
| 33> H 	 -31.3659 	 -36.2913 	 -96.9383
| 34> H 	 -32.6971 	 -35.875 	 -97.9658
| 35> C 	 -32.5975 	 -38.0398 	 -97.2317
| 36> H 	 -32.6338 	 -38.6043 	 -96.3114
| 37> H 	 -31.7445 	 -38.3697 	 -97.7797
| 38> H 	 -33.4046 	 -38.1604 	 -97.9256
| 39> H 	 -27.4378 	 -33.0826 	 -94.475
| 40> H 	 -33.2279 	 -38.4057 	 -91.8046
| 41> *
| 42>
| 43>                          ****END OF INPUT****

CARTESIAN COORDINATES (ANGSTROEM)
---------------------------------
  S    -28.762800  -35.080900  -93.895000
  C    -28.414000  -33.548500  -94.518700
  C    -29.584800  -32.920500  -94.976500
  C    -30.704200  -33.747100  -94.836700
  C    -30.459400  -35.008400  -94.317700
  H    -31.685200  -33.501300  -95.193500
  C    -29.689100  -31.478900  -95.381300
  H    -29.874600  -31.538200  -96.451000
  H    -28.666500  -31.065100  -95.283700
  C    -30.735800  -30.571300  -94.689600
  H    -30.853700  -29.652600  -95.281200
  H    -31.709600  -31.087900  -94.718200
  C    -30.463000  -30.390400  -93.223100
  H    -31.259300  -29.681600  -92.845000
  H    -30.532700  -31.355200  -92.680300
  H    -29.374800  -30.065900  -92.920900
  S    -31.229600  -36.808500  -92.237500
  C    -32.759500  -37.629000  -92.539400
  C    -33.367700  -37.309200  -93.706600
  C    -32.650400  -36.357800  -94.461000
  C    -31.442300  -35.991800  -93.838500
  H    -34.185300  -37.816200  -94.104400
  C    -33.156300  -35.959600  -95.808500
  H    -33.198500  -34.893100  -95.680500
  H    -34.173100  -36.267100  -95.799800
  C    -32.445500  -36.490500  -97.066200
  H    -31.365900  -36.291300  -96.938300
  H    -32.697100  -35.875000  -97.965800
  C    -32.597500  -38.039800  -97.231700
  H    -32.633800  -38.604300  -96.311400
  H    -31.744500  -38.369700  -97.779700
  H    -33.404600  -38.160400  -97.925600
  H    -27.437800  -33.082600  -94.475000
  H    -33.227900  -38.405700  -91.804600

 Total Charge           Charge          ....    0
 Multiplicity           Mult            ....    1
 Number of Electrons    NEL             ....  134
 Basis Dimension        Dim             ....  322

ORBITAL ENERGIES
----------------

  NO   OCC          E(Eh)            E(eV)
   0   2.0000     -88.971226     -2421.0301
   1   2.0000     -88.965823     -2420.8831
   2   2.0000     -10.332636      -281.1653
   3   2.0000     -10.329090      -281.0688
   4   2.0000     -10.323141      -280.9069
   5   2.0000     -10.311491      -280.5899
   6   2.0000     -10.299182      -280.2550
   7   2.0000     -10.297362      -280.2055
   8   2.0000     -10.291535      -280.0469
   9   2.0000     -10.290988      -280.0320
  10   2.0000     -10.290797      -280.0268
  11   2.0000     -10.289101      -279.9807
  12   2.0000     -10.287264      -279.9307
  13   2.0000     -10.285851      -279.8922
  14   2.0000     -10.284715      -279.8613
  15   2.0000     -10.273424      -279.5541
  16   2.0000      -8.084646      -219.9944
  17   2.0000      -8.081459      -219.9077
  18   2.0000      -6.043210      -164.4441
  19   2.0000      -6.039746      -164.3499
  20   2.0000      -6.039566      -164.3450
  21   2.0000      -6.035705      -164.2399
  22   2.0000      -6.035216      -164.2266
  23   2.0000      -6.032554      -164.1541
  24   2.0000      -1.007994       -27.4289
  25   2.0000      -0.985697       -26.8222
  26   2.0000      -0.912323       -24.8256
  27   2.0000      -0.908296       -24.7160
  28   2.0000      -0.868180       -23.6244
  29   2.0000      -0.853228       -23.2175
  30   2.0000      -0.847832       -23.0707
  31   2.0000      -0.814646       -22.1676
  32   2.0000      -0.785736       -21.3810
  33   2.0000      -0.767652       -20.8889
  34   2.0000      -0.712960       -19.4006
  35   2.0000      -0.696671       -18.9574
  36   2.0000      -0.684727       -18.6324
  37   2.0000      -0.661866       -18.0103
  38   2.0000      -0.639634       -17.4053
  39   2.0000      -0.623551       -16.9677
  40   2.0000      -0.588741       -16.0204
  41   2.0000      -0.564070       -15.3491
  42   2.0000      -0.556559       -15.1447
  43   2.0000      -0.553061       -15.0496
  44   2.0000      -0.546447       -14.8696
  45   2.0000      -0.535437       -14.5700
  46   2.0000      -0.519500       -14.1363
  47   2.0000      -0.508795       -13.8450
  48   2.0000      -0.497077       -13.5262
  49   2.0000      -0.490994       -13.3606
  50   2.0000      -0.488600       -13.2955
  51   2.0000      -0.486643       -13.2422
  52   2.0000      -0.472315       -12.8523
  53   2.0000      -0.469008       -12.7624
  54   2.0000      -0.454043       -12.3551
  55   2.0000      -0.449488       -12.2312
  56   2.0000      -0.442217       -12.0333
  57   2.0000      -0.437755       -11.9119
  58   2.0000      -0.433134       -11.7862
  59   2.0000      -0.423311       -11.5189
  60   2.0000      -0.421421       -11.4674
  61   2.0000      -0.411792       -11.2054
  62   2.0000      -0.409634       -11.1467
  63   2.0000      -0.355452        -9.6723
  64   2.0000      -0.337158        -9.1745
  65   2.0000      -0.327921        -8.9232
  66   2.0000      -0.280816        -7.6414
  67   0.0000       0.022884         0.6227
  68   0.0000       0.072691         1.9780
  69   0.0000       0.107355         2.9213
  70   0.0000       0.124707         3.3934
  71   0.0000       0.134190         3.6515

MULLIKEN ATOMIC CHARGES
-----------------------
   0 S :    0.107806
   1 C :   -0.120263
   2 C :   -0.110255
   3 C :    0.015760
   4 C :   -0.152932
   5 H :   -0.000682
   6 C :    0.065028
   7 H :    0.033754
   8 H :    0.015217
   9 C :   -0.052703
  10 H :    0.038546
  11 H :    0.028602
  12 C :   -0.098379
  13 H :    0.049831
  14 H :    0.050376
  15 H :    0.038867
  16 S :    0.111181
  17 C :   -0.120374
  18 C :    0.005575
  19 C :   -0.106463
  20 C :   -0.132389
  21 H :   -0.004710
  22 C :    0.117217
  23 H :    0.017104
  24 H :   -0.002784
  25 C :   -0.075315
  26 H :    0.037428
  27 H :    0.037735
  28 C :   -0.029698
  29 H :    0.048690
  30 H :    0.023735
  31 H :    0.029633
  32 H :    0.050273
  33 H :    0.084590
Sum of atomic charges:   -0.0000000

LOEWDIN ATOMIC CHARGES
----------------------
   0 S :    0.432664
   1 C :   -0.219171
   2 C :   -0.070108
   3 C :   -0.065284
   4 C :   -0.196271
   5 H :    0.023951
   6 C :   -0.036201
   7 H :    0.033069
   8 H :    0.029286
   9 C :   -0.045387
  10 H :    0.028327
  11 H :    0.028043
  12 C :   -0.080062
  13 H :    0.034101
  14 H :    0.031704
  15 H :    0.031135
  16 S :    0.377821
  17 C :   -0.189823
  18 C :   -0.072867
  19 C :   -0.052952
  20 C :   -0.180973
  21 H :    0.022968
  22 C :   -0.033736
  23 H :    0.029526
  24 H :    0.023906
  25 C :   -0.038727
  26 H :    0.026695
  27 H :    0.030487
  28 C :   -0.060646
  29 H :    0.029300
  30 H :    0.026277
  31 H :    0.024756
  32 H :    0.029411
  33 H :    0.048780

  Mayer bond orders larger than 0.100000
B(  0-S ,  1-C ) :   1.1724 B(  0-S ,  4-C ) :   1.1666 B(  1-C ,  2-C ) :   1.5436
B(  1-C ,  4-C ) :   0.1007 B(  1-C , 32-H ) :   0.9676 B(  2-C ,  3-C ) :   1.3086
B(  2-C ,  6-C ) :   1.0214 B(  3-C ,  4-C ) :   1.5186 B(  3-C ,  5-H ) :   0.9893
B(  4-C , 20-C ) :   1.0714 B(  6-C ,  7-H ) :   0.9284 B(  6-C ,  8-H ) :   0.9435
B(  6-C ,  9-C ) :   1.0757 B(  9-C , 10-H ) :   0.9545 B(  9-C , 11-H ) :   0.9483
B(  9-C , 12-C ) :   1.0689 B( 12-C , 13-H ) :   0.9720 B( 12-C , 14-H ) :   0.9713
B( 12-C , 15-H ) :   0.9744 B( 16-S , 17-C ) :   1.1416 B( 16-S , 20-C ) :   1.1209
B( 17-C , 18-C ) :   1.6221 B( 17-C , 33-H ) :   0.9478 B( 18-C , 19-C ) :   1.2568
B( 18-C , 21-H ) :   0.9938 B( 19-C , 20-C ) :   1.5913 B( 19-C , 22-C ) :   1.0288
B( 22-C , 23-H ) :   0.9192 B( 22-C , 24-H ) :   0.9240 B( 22-C , 25-C ) :   1.0584
B( 25-C , 26-H ) :   0.9639 B( 25-C , 27-H ) :   0.9576 B( 25-C , 28-C ) :   1.0565
B( 28-C , 29-H ) :   0.9779 B( 28-C , 30-H ) :   0.9753 B( 28-C , 31-H ) :   0.9769

Dispersion correction           -0.015037064
FINAL SINGLE POINT ENERGY     -1339.873973631332

DIPOLE MOMENT
-------------
                                X             Y             Z
Electronic contribution:      9.11069     -12.63438      14.40460
Nuclear contribution   :     -9.50191      12.88273     -14.81296
                        -----------------------------------------
Total Dipole Moment    :     -0.39122       0.24835      -0.40836
                        -----------------------------------------
Magnitude (a.u.)       :      0.61765
Magnitude (Debye)      :      1.56994

Rotational constants in cm-1:     0.019330     0.008673     0.007662
Rotational constants in MHz :   579.490882   260.004745   229.705149

                             ****ORCA TERMINATED NORMALLY****
TOTAL RUN TIME: 0 days 0 hours 0 minutes 22 seconds 248 msec
