                         Program Version 4.2.1 -  RELEASE  -
|  1> ! wB97X-D3 SP def2-SVP
|  2> %pal
|  3> nprocs 24
|  4> end
|  5>
|  6> * xyz 0 1
|  7> S 	 -35.4281 	 4.55975 	 4.49032
|  8> C 	 -34.9162 	 3.13207 	 3.69907
|  9> C 	 -34.6108 	 2.16344 	 4.62888
| 10> C 	 -34.3678 	 2.75156 	 5.9366
| 11> C 	 -34.7172 	 4.05727 	 6.00075
| 12> H 	 -33.9292 	 2.32866 	 6.82912
| 13> C 	 -34.2474 	 0.676088 	 4.31331
| 14> H 	 -34.876 	 0.0420929 	 4.99014
| 15> H 	 -33.2201 	 0.52353 	 4.74413
| 16> C 	 -34.2234 	 0.175039 	 2.86763
| 17> H 	 -35.1952 	 0.250327 	 2.39857
| 18> H 	 -33.694 	 0.893076 	 2.33143
| 19> C 	 -33.7586 	 -1.25211 	 2.58065
| 20> H 	 -32.7432 	 -1.19489 	 2.83807
| 21> H 	 -34.3726 	 -1.90789 	 3.1718
| 22> H 	 -33.9096 	 -1.47581 	 1.58796
| 23> S 	 -33.3267 	 6.33709 	 6.52824
| 24> C 	 -33.0615 	 6.75999 	 8.23137
| 25> C 	 -33.7182 	 5.88072 	 9.06884
| 26> C 	 -34.505 	 4.90579 	 8.3953
| 27> C 	 -34.3661 	 5.02372 	 7.05072
| 28> H 	 -33.6803 	 6.12005 	 10.1653
| 29> C 	 -35.3214 	 3.87196 	 9.12842
| 30> H 	 -35.8603 	 3.18203 	 8.48944
| 31> H 	 -36.0742 	 4.37913 	 9.70447
| 32> C 	 -34.4798 	 3.00723 	 10.1218
| 33> H 	 -35.149 	 2.44396 	 10.7722
| 34> H 	 -33.9137 	 3.68474 	 10.6399
| 35> C 	 -33.5414 	 1.93087 	 9.49783
| 36> H 	 -34.0858 	 1.26155 	 8.85467
| 37> H 	 -32.8985 	 1.33172 	 10.2727
| 38> H 	 -32.7572 	 2.43371 	 8.89612
| 39> H 	 -35.1606 	 2.92968 	 2.70252
| 40> H 	 -32.4567 	 7.58302 	 8.5985
| 41> *
| 42>
| 43>                          ****END OF INPUT****

CARTESIAN COORDINATES (ANGSTROEM)
---------------------------------
  S    -35.428100    4.559750    4.490320
  C    -34.916200    3.132070    3.699070
  C    -34.610800    2.163440    4.628880
  C    -34.367800    2.751560    5.936600
  C    -34.717200    4.057270    6.000750
  H    -33.929200    2.328660    6.829120
  C    -34.247400    0.676088    4.313310
  H    -34.876000    0.042093    4.990140
  H    -33.220100    0.523530    4.744130
  C    -34.223400    0.175039    2.867630
  H    -35.195200    0.250327    2.398570
  H    -33.694000    0.893076    2.331430
  C    -33.758600   -1.252110    2.580650
  H    -32.743200   -1.194890    2.838070
  H    -34.372600   -1.907890    3.171800
  H    -33.909600   -1.475810    1.587960
  S    -33.326700    6.337090    6.528240
  C    -33.061500    6.759990    8.231370
  C    -33.718200    5.880720    9.068840
  C    -34.505000    4.905790    8.395300
  C    -34.366100    5.023720    7.050720
  H    -33.680300    6.120050   10.165300
  C    -35.321400    3.871960    9.128420
  H    -35.860300    3.182030    8.489440
  H    -36.074200    4.379130    9.704470
  C    -34.479800    3.007230   10.121800
  H    -35.149000    2.443960   10.772200
  H    -33.913700    3.684740   10.639900
  C    -33.541400    1.930870    9.497830
  H    -34.085800    1.261550    8.854670
  H    -32.898500    1.331720   10.272700
  H    -32.757200    2.433710    8.896120
  H    -35.160600    2.929680    2.702520
  H    -32.456700    7.583020    8.598500

 Total Charge           Charge          ....    0
 Multiplicity           Mult            ....    1
 Number of Electrons    NEL             ....  134
 Basis Dimension        Dim             ....  322

ORBITAL ENERGIES
----------------

  NO   OCC          E(Eh)            E(eV)
   0   2.0000     -88.966100     -2420.8907
   1   2.0000     -88.957669     -2420.6613
   2   2.0000     -10.323504      -280.9168
   3   2.0000     -10.322159      -280.8802
   4   2.0000     -10.319955      -280.8202
   5   2.0000     -10.307172      -280.4724
   6   2.0000     -10.305430      -280.4250
   7   2.0000     -10.301815      -280.3266
   8   2.0000     -10.301200      -280.3099
   9   2.0000     -10.298236      -280.2293
  10   2.0000     -10.292524      -280.0738
  11   2.0000     -10.290933      -280.0305
  12   2.0000     -10.288838      -279.9735
  13   2.0000     -10.284973      -279.8683
  14   2.0000     -10.278403      -279.6896
  15   2.0000     -10.269746      -279.4540
  16   2.0000      -8.080450      -219.8802
  17   2.0000      -8.073759      -219.6982
  18   2.0000      -6.038947      -164.3281
  19   2.0000      -6.035121      -164.2240
  20   2.0000      -6.032292      -164.1470
  21   2.0000      -6.031098      -164.1145
  22   2.0000      -6.028158      -164.0345
  23   2.0000      -6.024340      -163.9306
  24   2.0000      -1.010948       -27.5093
  25   2.0000      -0.987264       -26.8648
  26   2.0000      -0.910026       -24.7631
  27   2.0000      -0.908572       -24.7235
  28   2.0000      -0.871414       -23.7124
  29   2.0000      -0.851526       -23.1712
  30   2.0000      -0.846310       -23.0293
  31   2.0000      -0.817584       -22.2476
  32   2.0000      -0.784156       -21.3380
  33   2.0000      -0.775051       -21.0902
  34   2.0000      -0.710673       -19.3384
  35   2.0000      -0.704197       -19.1622
  36   2.0000      -0.692875       -18.8541
  37   2.0000      -0.658217       -17.9110
  38   2.0000      -0.646437       -17.5904
  39   2.0000      -0.612045       -16.6546
  40   2.0000      -0.600325       -16.3357
  41   2.0000      -0.573576       -15.6078
  42   2.0000      -0.565919       -15.3994
  43   2.0000      -0.547266       -14.8919
  44   2.0000      -0.546371       -14.8675
  45   2.0000      -0.528110       -14.3706
  46   2.0000      -0.523605       -14.2480
  47   2.0000      -0.512213       -13.9380
  48   2.0000      -0.505676       -13.7602
  49   2.0000      -0.498146       -13.5552
  50   2.0000      -0.489728       -13.3262
  51   2.0000      -0.480910       -13.0862
  52   2.0000      -0.475507       -12.9392
  53   2.0000      -0.465136       -12.6570
  54   2.0000      -0.460870       -12.5409
  55   2.0000      -0.447195       -12.1688
  56   2.0000      -0.443254       -12.0616
  57   2.0000      -0.439572       -11.9614
  58   2.0000      -0.436297       -11.8722
  59   2.0000      -0.431151       -11.7322
  60   2.0000      -0.419529       -11.4160
  61   2.0000      -0.414921       -11.2906
  62   2.0000      -0.411682       -11.2024
  63   2.0000      -0.348845        -9.4926
  64   2.0000      -0.332691        -9.0530
  65   2.0000      -0.320828        -8.7302
  66   2.0000      -0.298656        -8.1268
  67   0.0000       0.035256         0.9594
  68   0.0000       0.073051         1.9878
  69   0.0000       0.111806         3.0424
  70   0.0000       0.117737         3.2038
  71   0.0000       0.130802         3.5593

MULLIKEN ATOMIC CHARGES
-----------------------
   0 S :    0.098561
   1 C :   -0.109942
   2 C :   -0.076282
   3 C :    0.047576
   4 C :   -0.163499
   5 H :   -0.027516
   6 C :    0.029512
   7 H :    0.032679
   8 H :    0.033842
   9 C :   -0.098968
  10 H :    0.016093
  11 H :    0.011314
  12 C :    0.039468
  13 H :    0.026016
  14 H :    0.027381
  15 H :    0.017949
  16 S :    0.116054
  17 C :   -0.096792
  18 C :   -0.069026
  19 C :   -0.025554
  20 C :   -0.141837
  21 H :    0.042878
  22 C :    0.091595
  23 H :    0.021978
  24 H :    0.030767
  25 C :   -0.049265
  26 H :    0.031874
  27 H :    0.008516
  28 C :   -0.102221
  29 H :    0.042035
  30 H :    0.051851
  31 H :    0.048873
  32 H :    0.036971
  33 H :    0.057119
Sum of atomic charges:    0.0000000

LOEWDIN ATOMIC CHARGES
----------------------
   0 S :    0.404462
   1 C :   -0.201767
   2 C :   -0.055895
   3 C :   -0.061156
   4 C :   -0.192498
   5 H :    0.029679
   6 C :   -0.037371
   7 H :    0.032259
   8 H :    0.035161
   9 C :   -0.045620
  10 H :    0.019138
  11 H :    0.013739
  12 C :   -0.038649
  13 H :    0.021807
  14 H :    0.026634
  15 H :    0.019206
  16 S :    0.398489
  17 C :   -0.175591
  18 C :   -0.078375
  19 C :   -0.061581
  20 C :   -0.192796
  21 H :    0.040601
  22 C :   -0.022472
  23 H :    0.027942
  24 H :    0.034455
  25 C :   -0.027065
  26 H :    0.025223
  27 H :    0.007979
  28 C :   -0.076253
  29 H :    0.017219
  30 H :    0.040511
  31 H :    0.025861
  32 H :    0.015868
  33 H :    0.030855

  Mayer bond orders larger than 0.100000
B(  0-S ,  1-C ) :   1.1346 B(  0-S ,  4-C ) :   1.1410 B(  1-C ,  2-C ) :   1.6348
B(  1-C , 32-H ) :   0.9660 B(  2-C ,  3-C ) :   1.1960 B(  2-C ,  6-C ) :   1.0132
B(  3-C ,  4-C ) :   1.6271 B(  3-C ,  5-H ) :   0.9860 B(  4-C , 20-C ) :   0.9991
B(  6-C ,  7-H ) :   0.9356 B(  6-C ,  8-H ) :   0.9457 B(  6-C ,  9-C ) :   1.0707
B(  9-C , 10-H ) :   0.9513 B(  9-C , 11-H ) :   0.9476 B(  9-C , 12-C ) :   1.0845
B( 12-C , 13-H ) :   0.9785 B( 12-C , 14-H ) :   0.9748 B( 12-C , 15-H ) :   0.9699
B( 16-S , 17-C ) :   1.1382 B( 16-S , 20-C ) :   1.1397 B( 17-C , 18-C ) :   1.6481
B( 17-C , 33-H ) :   0.9669 B( 18-C , 19-C ) :   1.2050 B( 18-C , 21-H ) :   0.9753
B( 19-C , 20-C ) :   1.6330 B( 19-C , 22-C ) :   1.0452 B( 22-C , 23-H ) :   0.9378
B( 22-C , 24-H ) :   0.9283 B( 22-C , 25-C ) :   1.0681 B( 25-C , 26-H ) :   0.9578
B( 25-C , 27-H ) :   0.9589 B( 25-C , 28-C ) :   1.0761 B( 28-C , 29-H ) :   0.9662
B( 28-C , 30-H ) :   0.9692 B( 28-C , 31-H ) :   0.9659

Dispersion correction           -0.014538146
FINAL SINGLE POINT ENERGY     -1339.866909356431

DIPOLE MOMENT
-------------
                                X             Y             Z
Electronic contribution:     -2.91832      27.75019      -4.39088
Nuclear contribution   :      3.02341     -28.27189       4.76501
                        -----------------------------------------
Total Dipole Moment    :      0.10509      -0.52171       0.37413
                        -----------------------------------------
Magnitude (a.u.)       :      0.65053
Magnitude (Debye)      :      1.65352

Rotational constants in cm-1:     0.020828     0.008016     0.006394
Rotational constants in MHz :   624.399355   240.306992   191.693455

                             ****ORCA TERMINATED NORMALLY****
TOTAL RUN TIME: 0 days 0 hours 0 minutes 21 seconds 730 msec
