                         Program Version 4.2.1 -  RELEASE  -
|  1> ! wB97X-D3 SP def2-SVP
|  2> %pal
|  3> nprocs 24
|  4> end
|  5>
|  6> * xyz 0 1
|  7> S 	 -52.4897 	 11.5518 	 -98.7838
|  8> C 	 -52.7261 	 9.98544 	 -99.4362
|  9> C 	 -51.5272 	 9.41512 	 -99.8428
| 10> C 	 -50.5013 	 10.3489 	 -99.7871
| 11> C 	 -50.803 	 11.5805 	 -99.1989
| 12> H 	 -49.4308 	 10.1455 	 -99.9695
| 13> C 	 -51.4525 	 7.93996 	 -100.214
| 14> H 	 -52.1763 	 7.41283 	 -99.6972
| 15> H 	 -50.5253 	 7.64599 	 -99.7104
| 16> C 	 -51.2781 	 7.64836 	 -101.688
| 17> H 	 -50.3743 	 8.19933 	 -102.012
| 18> H 	 -51.0971 	 6.56659 	 -101.841
| 19> C 	 -52.3868 	 8.20172 	 -102.55
| 20> H 	 -52.4019 	 7.72383 	 -103.528
| 21> H 	 -53.3808 	 8.20048 	 -102.163
| 22> H 	 -52.1176 	 9.26394 	 -102.611
| 23> S 	 -50.9514 	 14.2249 	 -98.4236
| 24> C 	 -49.4439 	 15.0553 	 -98.2555
| 25> C 	 -48.3169 	 14.29 	 -98.4141
| 26> C 	 -48.6846 	 12.965 	 -98.8872
| 27> C 	 -50.0351 	 12.7561 	 -98.9188
| 28> H 	 -47.3061 	 14.75 	 -98.2272
| 29> C 	 -47.6443 	 11.8459 	 -99.0153
| 30> H 	 -48.0967 	 10.9387 	 -98.6413
| 31> H 	 -46.849 	 12.0841 	 -98.3521
| 32> C 	 -47.1485 	 11.664 	 -100.461
| 33> H 	 -46.6142 	 12.6115 	 -100.791
| 34> H 	 -47.9667 	 11.4912 	 -101.136
| 35> C 	 -46.0791 	 10.6237 	 -100.561
| 36> H 	 -45.6267 	 10.6234 	 -101.501
| 37> H 	 -46.7211 	 9.75649 	 -100.523
| 38> H 	 -45.364 	 10.8 	 -99.7502
| 39> H 	 -53.6401 	 9.48592 	 -99.4832
| 40> H 	 -49.4261 	 16.0337 	 -97.753
| 41> *
| 42>
| 43>                          ****END OF INPUT****

CARTESIAN COORDINATES (ANGSTROEM)
---------------------------------
  S    -52.489700   11.551800  -98.783800
  C    -52.726100    9.985440  -99.436200
  C    -51.527200    9.415120  -99.842800
  C    -50.501300   10.348900  -99.787100
  C    -50.803000   11.580500  -99.198900
  H    -49.430800   10.145500  -99.969500
  C    -51.452500    7.939960  -100.214000
  H    -52.176300    7.412830  -99.697200
  H    -50.525300    7.645990  -99.710400
  C    -51.278100    7.648360  -101.688000
  H    -50.374300    8.199330  -102.012000
  H    -51.097100    6.566590  -101.841000
  C    -52.386800    8.201720  -102.550000
  H    -52.401900    7.723830  -103.528000
  H    -53.380800    8.200480  -102.163000
  H    -52.117600    9.263940  -102.611000
  S    -50.951400   14.224900  -98.423600
  C    -49.443900   15.055300  -98.255500
  C    -48.316900   14.290000  -98.414100
  C    -48.684600   12.965000  -98.887200
  C    -50.035100   12.756100  -98.918800
  H    -47.306100   14.750000  -98.227200
  C    -47.644300   11.845900  -99.015300
  H    -48.096700   10.938700  -98.641300
  H    -46.849000   12.084100  -98.352100
  C    -47.148500   11.664000  -100.461000
  H    -46.614200   12.611500  -100.791000
  H    -47.966700   11.491200  -101.136000
  C    -46.079100   10.623700  -100.561000
  H    -45.626700   10.623400  -101.501000
  H    -46.721100    9.756490  -100.523000
  H    -45.364000   10.800000  -99.750200
  H    -53.640100    9.485920  -99.483200
  H    -49.426100   16.033700  -97.753000

 Total Charge           Charge          ....    0
 Multiplicity           Mult            ....    1
 Number of Electrons    NEL             ....  134
 Basis Dimension        Dim             ....  322

ORBITAL ENERGIES
----------------

  NO   OCC          E(Eh)            E(eV)
   0   2.0000     -88.965580     -2420.8765
   1   2.0000     -88.965284     -2420.8685
   2   2.0000     -10.329412      -281.0776
   3   2.0000     -10.328235      -281.0456
   4   2.0000     -10.317356      -280.7495
   5   2.0000     -10.305938      -280.4388
   6   2.0000     -10.305912      -280.4381
   7   2.0000     -10.301986      -280.3313
   8   2.0000     -10.297706      -280.2148
   9   2.0000     -10.294318      -280.1226
  10   2.0000     -10.291439      -280.0443
  11   2.0000     -10.287046      -279.9248
  12   2.0000     -10.286546      -279.9111
  13   2.0000     -10.285643      -279.8866
  14   2.0000     -10.271675      -279.5065
  15   2.0000     -10.269811      -279.4558
  16   2.0000      -8.080966      -219.8943
  17   2.0000      -8.080365      -219.8779
  18   2.0000      -6.039276      -164.3371
  19   2.0000      -6.038955      -164.3283
  20   2.0000      -6.035309      -164.2291
  21   2.0000      -6.035134      -164.2244
  22   2.0000      -6.031920      -164.1369
  23   2.0000      -6.030766      -164.1055
  24   2.0000      -1.013157       -27.5694
  25   2.0000      -0.987485       -26.8708
  26   2.0000      -0.919071       -25.0092
  27   2.0000      -0.917427       -24.9645
  28   2.0000      -0.873632       -23.7727
  29   2.0000      -0.860921       -23.4269
  30   2.0000      -0.846345       -23.0302
  31   2.0000      -0.816589       -22.2205
  32   2.0000      -0.789752       -21.4902
  33   2.0000      -0.776873       -21.1398
  34   2.0000      -0.709544       -19.3077
  35   2.0000      -0.695238       -18.9184
  36   2.0000      -0.690965       -18.8021
  37   2.0000      -0.664568       -18.0838
  38   2.0000      -0.640737       -17.4353
  39   2.0000      -0.625619       -17.0240
  40   2.0000      -0.596526       -16.2323
  41   2.0000      -0.580215       -15.7884
  42   2.0000      -0.571212       -15.5435
  43   2.0000      -0.549544       -14.9539
  44   2.0000      -0.542082       -14.7508
  45   2.0000      -0.531798       -14.4710
  46   2.0000      -0.528204       -14.3732
  47   2.0000      -0.516508       -14.0549
  48   2.0000      -0.508439       -13.8353
  49   2.0000      -0.503355       -13.6970
  50   2.0000      -0.491810       -13.3828
  51   2.0000      -0.481939       -13.1142
  52   2.0000      -0.475898       -12.9499
  53   2.0000      -0.466982       -12.7072
  54   2.0000      -0.463331       -12.6079
  55   2.0000      -0.454404       -12.3650
  56   2.0000      -0.444474       -12.0948
  57   2.0000      -0.437246       -11.8981
  58   2.0000      -0.434615       -11.8265
  59   2.0000      -0.424751       -11.5581
  60   2.0000      -0.418567       -11.3898
  61   2.0000      -0.408898       -11.1267
  62   2.0000      -0.405836       -11.0434
  63   2.0000      -0.364503        -9.9186
  64   2.0000      -0.338352        -9.2070
  65   2.0000      -0.330344        -8.9891
  66   2.0000      -0.279211        -7.5977
  67   0.0000       0.017802         0.4844
  68   0.0000       0.080202         2.1824
  69   0.0000       0.095826         2.6076
  70   0.0000       0.120640         3.2828
  71   0.0000       0.123137         3.3507

MULLIKEN ATOMIC CHARGES
-----------------------
   0 S :    0.101990
   1 C :   -0.095522
   2 C :   -0.121004
   3 C :    0.000201
   4 C :   -0.134676
   5 H :   -0.005598
   6 C :    0.121269
   7 H :    0.005753
   8 H :    0.019977
   9 C :   -0.072454
  10 H :    0.027107
  11 H :    0.036033
  12 C :   -0.045666
  13 H :    0.037632
  14 H :    0.020153
  15 H :    0.042023
  16 S :    0.092879
  17 C :   -0.091970
  18 C :   -0.042947
  19 C :   -0.079797
  20 C :   -0.084070
  21 H :    0.044985
  22 C :    0.059015
  23 H :    0.024798
  24 H :    0.010682
  25 C :   -0.126012
  26 H :    0.026015
  27 H :    0.034333
  28 C :    0.031372
  29 H :    0.023668
  30 H :    0.013312
  31 H :    0.036632
  32 H :    0.024334
  33 H :    0.065554
Sum of atomic charges:   -0.0000000

LOEWDIN ATOMIC CHARGES
----------------------
   0 S :    0.426701
   1 C :   -0.198854
   2 C :   -0.064093
   3 C :   -0.081888
   4 C :   -0.189352
   5 H :    0.029767
   6 C :   -0.022493
   7 H :    0.019131
   8 H :    0.036449
   9 C :   -0.042082
  10 H :    0.028301
  11 H :    0.024037
  12 C :   -0.068529
  13 H :    0.028014
  14 H :    0.016870
  15 H :    0.033601
  16 S :    0.380110
  17 C :   -0.187408
  18 C :   -0.076735
  19 C :   -0.048736
  20 C :   -0.179833
  21 H :    0.045488
  22 C :   -0.023962
  23 H :    0.025430
  24 H :    0.025558
  25 C :   -0.043091
  26 H :    0.026082
  27 H :    0.018572
  28 C :   -0.056019
  29 H :    0.018601
  30 H :    0.024062
  31 H :    0.029303
  32 H :    0.015301
  33 H :    0.031698

  Mayer bond orders larger than 0.100000
B(  0-S ,  1-C ) :   1.1640 B(  0-S ,  4-C ) :   1.1604 B(  1-C ,  2-C ) :   1.5529
B(  1-C ,  4-C ) :   0.1085 B(  1-C , 32-H ) :   0.9782 B(  2-C ,  3-C ) :   1.3017
B(  2-C ,  6-C ) :   1.0068 B(  3-C ,  4-C ) :   1.5243 B(  3-C ,  5-H ) :   0.9778
B(  4-C , 20-C ) :   1.1069 B(  6-C ,  7-H ) :   0.9436 B(  6-C ,  8-H ) :   0.9324
B(  6-C ,  9-C ) :   1.0755 B(  9-C , 10-H ) :   0.9598 B(  9-C , 11-H ) :   0.9581
B(  9-C , 12-C ) :   1.0633 B( 12-C , 13-H ) :   0.9736 B( 12-C , 14-H ) :   0.9802
B( 12-C , 15-H ) :   0.9731 B( 16-S , 17-C ) :   1.1496 B( 16-S , 20-C ) :   1.1010
B( 17-C , 18-C ) :   1.6541 B( 17-C , 33-H ) :   0.9574 B( 18-C , 19-C ) :   1.2026
B( 18-C , 21-H ) :   0.9807 B( 19-C , 20-C ) :   1.6384 B( 19-C , 22-C ) :   1.0366
B( 22-C , 23-H ) :   0.9387 B( 22-C , 24-H ) :   0.9315 B( 22-C , 25-C ) :   1.0581
B( 25-C , 26-H ) :   0.9528 B( 25-C , 27-H ) :   0.9592 B( 25-C , 28-C ) :   1.0757
B( 28-C , 29-H ) :   0.9717 B( 28-C , 30-H ) :   0.9751 B( 28-C , 31-H ) :   0.9705

Dispersion correction           -0.014515050
FINAL SINGLE POINT ENERGY     -1339.871235819935

DIPOLE MOMENT
-------------
                                X             Y             Z
Electronic contribution:    -14.87553      20.55034      15.01187
Nuclear contribution   :     15.39633     -20.92290     -15.02747
                        -----------------------------------------
Total Dipole Moment    :      0.52080      -0.37256      -0.01561
                        -----------------------------------------
Magnitude (a.u.)       :      0.64053
Magnitude (Debye)      :      1.62809

Rotational constants in cm-1:     0.018259     0.009680     0.006737
Rotational constants in MHz :   547.402338   290.198632   201.957809

                             ****ORCA TERMINATED NORMALLY****
TOTAL RUN TIME: 0 days 0 hours 0 minutes 22 seconds 388 msec
