                         Program Version 4.2.1 -  RELEASE  -
|  1> ! wB97X-D3 SP def2-SVP
|  2> %pal
|  3> nprocs 24
|  4> end
|  5>
|  6> * xyz 0 1
|  7> S 	 -34.8268 	 -5.24001 	 -5.24229
|  8> C 	 -33.2903 	 -5.57068 	 -4.5481
|  9> C 	 -32.4075 	 -4.59717 	 -5.06063
| 10> C 	 -33.0184 	 -3.64099 	 -5.9538
| 11> C 	 -34.3349 	 -3.98178 	 -6.28442
| 12> H 	 -32.5223 	 -2.75562 	 -6.35733
| 13> C 	 -30.9643 	 -4.51129 	 -4.59585
| 14> H 	 -30.4116 	 -5.40577 	 -4.97604
| 15> H 	 -31.0162 	 -4.67596 	 -3.57224
| 16> C 	 -30.093 	 -3.25953 	 -4.87038
| 17> H 	 -29.8838 	 -3.20849 	 -5.96016
| 18> H 	 -30.6939 	 -2.33004 	 -4.58757
| 19> C 	 -28.8204 	 -3.23354 	 -3.9926
| 20> H 	 -27.9999 	 -2.46841 	 -4.29894
| 21> H 	 -29.0913 	 -3.09292 	 -2.92114
| 22> H 	 -28.3676 	 -4.20047 	 -3.87094
| 23> S 	 -36.4241 	 -2.25335 	 -6.27085
| 24> C 	 -37.079 	 -1.75744 	 -7.79212
| 25> C 	 -36.2616 	 -2.08163 	 -8.8535
| 26> C 	 -35.197 	 -2.92083 	 -8.50331
| 27> C 	 -35.1734 	 -3.21807 	 -7.14415
| 28> H 	 -36.5233 	 -1.84408 	 -9.90566
| 29> C 	 -34.3665 	 -3.70358 	 -9.60832
| 30> H 	 -35.1256 	 -4.04398 	 -10.3099
| 31> H 	 -33.8252 	 -4.59596 	 -9.24737
| 32> C 	 -33.4016 	 -2.82565 	 -10.4289
| 33> H 	 -32.5267 	 -2.68474 	 -9.77208
| 34> H 	 -33.8286 	 -1.83925 	 -10.6615
| 35> C 	 -32.837 	 -3.467 	 -11.7552
| 36> H 	 -32.1619 	 -2.8094 	 -12.2658
| 37> H 	 -33.6422 	 -3.7587 	 -12.3836
| 38> H 	 -32.1835 	 -4.3427 	 -11.618
| 39> H 	 -33.0789 	 -6.30415 	 -3.79688
| 40> H 	 -38.0213 	 -1.25578 	 -7.93146
| 41> *
| 42>
| 43>                          ****END OF INPUT****

CARTESIAN COORDINATES (ANGSTROEM)
---------------------------------
  S    -34.826800   -5.240010   -5.242290
  C    -33.290300   -5.570680   -4.548100
  C    -32.407500   -4.597170   -5.060630
  C    -33.018400   -3.640990   -5.953800
  C    -34.334900   -3.981780   -6.284420
  H    -32.522300   -2.755620   -6.357330
  C    -30.964300   -4.511290   -4.595850
  H    -30.411600   -5.405770   -4.976040
  H    -31.016200   -4.675960   -3.572240
  C    -30.093000   -3.259530   -4.870380
  H    -29.883800   -3.208490   -5.960160
  H    -30.693900   -2.330040   -4.587570
  C    -28.820400   -3.233540   -3.992600
  H    -27.999900   -2.468410   -4.298940
  H    -29.091300   -3.092920   -2.921140
  H    -28.367600   -4.200470   -3.870940
  S    -36.424100   -2.253350   -6.270850
  C    -37.079000   -1.757440   -7.792120
  C    -36.261600   -2.081630   -8.853500
  C    -35.197000   -2.920830   -8.503310
  C    -35.173400   -3.218070   -7.144150
  H    -36.523300   -1.844080   -9.905660
  C    -34.366500   -3.703580   -9.608320
  H    -35.125600   -4.043980  -10.309900
  H    -33.825200   -4.595960   -9.247370
  C    -33.401600   -2.825650  -10.428900
  H    -32.526700   -2.684740   -9.772080
  H    -33.828600   -1.839250  -10.661500
  C    -32.837000   -3.467000  -11.755200
  H    -32.161900   -2.809400  -12.265800
  H    -33.642200   -3.758700  -12.383600
  H    -32.183500   -4.342700  -11.618000
  H    -33.078900   -6.304150   -3.796880
  H    -38.021300   -1.255780   -7.931460

 Total Charge           Charge          ....    0
 Multiplicity           Mult            ....    1
 Number of Electrons    NEL             ....  134
 Basis Dimension        Dim             ....  322

ORBITAL ENERGIES
----------------

  NO   OCC          E(Eh)            E(eV)
   0   2.0000     -88.965698     -2420.8797
   1   2.0000     -88.963810     -2420.8283
   2   2.0000     -10.327034      -281.0129
   3   2.0000     -10.323999      -280.9303
   4   2.0000     -10.315747      -280.7057
   5   2.0000     -10.314501      -280.6718
   6   2.0000     -10.308558      -280.5101
   7   2.0000     -10.305143      -280.4172
   8   2.0000     -10.298888      -280.2470
   9   2.0000     -10.298177      -280.2276
  10   2.0000     -10.295572      -280.1568
  11   2.0000     -10.293559      -280.1020
  12   2.0000     -10.290684      -280.0238
  13   2.0000     -10.289040      -279.9790
  14   2.0000     -10.288740      -279.9709
  15   2.0000     -10.277227      -279.6576
  16   2.0000      -8.081341      -219.9045
  17   2.0000      -8.078422      -219.8250
  18   2.0000      -6.039682      -164.3481
  19   2.0000      -6.036839      -164.2707
  20   2.0000      -6.035432      -164.2325
  21   2.0000      -6.033024      -164.1669
  22   2.0000      -6.032481      -164.1522
  23   2.0000      -6.029207      -164.0631
  24   2.0000      -1.009750       -27.4767
  25   2.0000      -0.985664       -26.8213
  26   2.0000      -0.908440       -24.7199
  27   2.0000      -0.899312       -24.4715
  28   2.0000      -0.873064       -23.7573
  29   2.0000      -0.848309       -23.0837
  30   2.0000      -0.843011       -22.9395
  31   2.0000      -0.811344       -22.0778
  32   2.0000      -0.782875       -21.3031
  33   2.0000      -0.769900       -20.9501
  34   2.0000      -0.713337       -19.4109
  35   2.0000      -0.695796       -18.9336
  36   2.0000      -0.690927       -18.8011
  37   2.0000      -0.658304       -17.9134
  38   2.0000      -0.642347       -17.4791
  39   2.0000      -0.615741       -16.7552
  40   2.0000      -0.596088       -16.2204
  41   2.0000      -0.566846       -15.4247
  42   2.0000      -0.563832       -15.3427
  43   2.0000      -0.560577       -15.2541
  44   2.0000      -0.526368       -14.3232
  45   2.0000      -0.515953       -14.0398
  46   2.0000      -0.514327       -13.9955
  47   2.0000      -0.512269       -13.9395
  48   2.0000      -0.504220       -13.7205
  49   2.0000      -0.498749       -13.5717
  50   2.0000      -0.489307       -13.3147
  51   2.0000      -0.482895       -13.1402
  52   2.0000      -0.472177       -12.8486
  53   2.0000      -0.471023       -12.8172
  54   2.0000      -0.456766       -12.4292
  55   2.0000      -0.452125       -12.3030
  56   2.0000      -0.449370       -12.2280
  57   2.0000      -0.431142       -11.7320
  58   2.0000      -0.430155       -11.7051
  59   2.0000      -0.426094       -11.5946
  60   2.0000      -0.417922       -11.3722
  61   2.0000      -0.413237       -11.2447
  62   2.0000      -0.412246       -11.2178
  63   2.0000      -0.336998        -9.1702
  64   2.0000      -0.331644        -9.0245
  65   2.0000      -0.321036        -8.7358
  66   2.0000      -0.299975        -8.1627
  67   0.0000       0.030119         0.8196
  68   0.0000       0.062488         1.7004
  69   0.0000       0.116173         3.1612
  70   0.0000       0.123193         3.3523
  71   0.0000       0.129148         3.5143

MULLIKEN ATOMIC CHARGES
-----------------------
   0 S :    0.126662
   1 C :   -0.117124
   2 C :   -0.097517
   3 C :    0.023972
   4 C :   -0.156046
   5 H :    0.025385
   6 C :    0.048610
   7 H :    0.041618
   8 H :    0.006588
   9 C :   -0.095763
  10 H :    0.045785
  11 H :    0.046952
  12 C :   -0.068241
  13 H :    0.059656
  14 H :    0.030180
  15 H :    0.019317
  16 S :    0.104305
  17 C :   -0.079797
  18 C :   -0.051802
  19 C :    0.025486
  20 C :   -0.200872
  21 H :    0.029211
  22 C :    0.056194
  23 H :    0.024237
  24 H :    0.042971
  25 C :   -0.105314
  26 H :    0.030687
  27 H :    0.036414
  28 C :   -0.039851
  29 H :    0.029573
  30 H :    0.026759
  31 H :    0.027965
  32 H :    0.049191
  33 H :    0.054609
Sum of atomic charges:    0.0000000

LOEWDIN ATOMIC CHARGES
----------------------
   0 S :    0.451306
   1 C :   -0.212819
   2 C :   -0.061226
   3 C :   -0.062829
   4 C :   -0.229107
   5 H :    0.034142
   6 C :   -0.040231
   7 H :    0.038893
   8 H :    0.019741
   9 C :   -0.048788
  10 H :    0.026378
  11 H :    0.032037
  12 C :   -0.078964
  13 H :    0.040641
  14 H :    0.029973
  15 H :    0.019094
  16 S :    0.392267
  17 C :   -0.182878
  18 C :   -0.079964
  19 C :   -0.049018
  20 C :   -0.182407
  21 H :    0.036996
  22 C :   -0.024087
  23 H :    0.027385
  24 H :    0.035154
  25 C :   -0.043610
  26 H :    0.025002
  27 H :    0.023727
  28 C :   -0.065805
  29 H :    0.025355
  30 H :    0.018122
  31 H :    0.027436
  32 H :    0.029942
  33 H :    0.028143

  Mayer bond orders larger than 0.100000
B(  0-S ,  1-C ) :   1.1641 B(  0-S ,  4-C ) :   1.1860 B(  1-C ,  2-C ) :   1.5395
B(  1-C ,  4-C ) :   0.1065 B(  1-C , 32-H ) :   0.9833 B(  2-C ,  3-C ) :   1.2992
B(  2-C ,  6-C ) :   1.0055 B(  3-C ,  4-C ) :   1.4969 B(  3-C ,  5-H ) :   0.9927
B(  4-C , 20-C ) :   1.0500 B(  6-C ,  7-H ) :   0.9293 B(  6-C ,  8-H ) :   0.9445
B(  6-C ,  9-C ) :   1.0753 B(  9-C , 10-H ) :   0.9526 B(  9-C , 11-H ) :   0.9563
B(  9-C , 12-C ) :   1.0705 B( 12-C , 13-H ) :   0.9736 B( 12-C , 14-H ) :   0.9716
B( 12-C , 15-H ) :   0.9741 B( 16-S , 17-C ) :   1.1574 B( 16-S , 20-C ) :   1.1349
B( 17-C , 18-C ) :   1.6151 B( 17-C , 20-C ) :   0.1095 B( 17-C , 33-H ) :   0.9677
B( 18-C , 19-C ) :   1.2446 B( 18-C , 21-H ) :   0.9789 B( 19-C , 20-C ) :   1.6111
B( 19-C , 22-C ) :   1.0174 B( 22-C , 23-H ) :   0.9475 B( 22-C , 24-H ) :   0.9480
B( 22-C , 25-C ) :   1.0509 B( 25-C , 26-H ) :   0.9555 B( 25-C , 27-H ) :   0.9629
B( 25-C , 28-C ) :   1.0762 B( 28-C , 29-H ) :   0.9751 B( 28-C , 30-H ) :   0.9775
B( 28-C , 31-H ) :   0.9751

Dispersion correction           -0.013319264
FINAL SINGLE POINT ENERGY     -1339.870349198731

DIPOLE MOMENT
-------------
                                X             Y             Z
Electronic contribution:    -26.62669      -2.08020      11.42245
Nuclear contribution   :     27.09856       2.09527     -11.65062
                        -----------------------------------------
Total Dipole Moment    :      0.47187       0.01507      -0.22817
                        -----------------------------------------
Magnitude (a.u.)       :      0.52435
Magnitude (Debye)      :      1.33280

Rotational constants in cm-1:     0.015714     0.008339     0.006466
Rotational constants in MHz :   471.083061   250.007491   193.851003

                             ****ORCA TERMINATED NORMALLY****
TOTAL RUN TIME: 0 days 0 hours 0 minutes 19 seconds 481 msec
