                         Program Version 4.2.1 -  RELEASE  -
|  1> ! wB97X-D3 SP def2-SVP
|  2> %pal
|  3> nprocs 24
|  4> end
|  5>
|  6> * xyz 0 1
|  7> S 	 -98.7211 	 18.088 	 -124.109
|  8> C 	 -97.6582 	 18.7354 	 -122.782
|  9> C 	 -98.3977 	 19.1686 	 -121.718
| 10> C 	 -99.7976 	 18.9966 	 -121.979
| 11> C 	 -100.109 	 18.2327 	 -123.103
| 12> H 	 -100.578 	 19.4556 	 -121.398
| 13> C 	 -97.9427 	 19.7576 	 -120.446
| 14> H 	 -98.3705 	 20.7581 	 -120.423
| 15> H 	 -96.8972 	 19.8762 	 -120.526
| 16> C 	 -98.2679 	 18.9557 	 -119.191
| 17> H 	 -99.3328 	 19.1129 	 -119.117
| 18> H 	 -98.1291 	 17.9573 	 -119.312
| 19> C 	 -97.5601 	 19.3659 	 -117.866
| 20> H 	 -97.9246 	 20.3087 	 -117.644
| 21> H 	 -97.8694 	 18.7012 	 -117.037
| 22> H 	 -96.4692 	 19.3093 	 -117.959
| 23> S 	 -101.982 	 18.5882 	 -125.142
| 24> C 	 -103.582 	 17.9109 	 -124.948
| 25> C 	 -103.655 	 17.22 	 -123.755
| 26> C 	 -102.512 	 17.3532 	 -122.954
| 27> C 	 -101.43 	 17.8709 	 -123.648
| 28> H 	 -104.587 	 16.7167 	 -123.527
| 29> C 	 -102.539 	 16.7869 	 -121.558
| 30> H 	 -101.57 	 17.1255 	 -121.156
| 31> H 	 -102.348 	 15.7207 	 -121.632
| 32> C 	 -103.524 	 17.2671 	 -120.461
| 33> H 	 -104.529 	 16.7975 	 -120.458
| 34> H 	 -103.749 	 18.3237 	 -120.59
| 35> C 	 -102.884 	 17.1683 	 -119.028
| 36> H 	 -102.362 	 16.2083 	 -118.821
| 37> H 	 -103.55 	 17.3839 	 -118.244
| 38> H 	 -102.187 	 18.0159 	 -118.893
| 39> H 	 -96.619 	 18.8639 	 -122.885
| 40> H 	 -104.45 	 18.0152 	 -125.553
| 41> *
| 42>
| 43>                          ****END OF INPUT****

CARTESIAN COORDINATES (ANGSTROEM)
---------------------------------
  S    -98.721100   18.088000  -124.109000
  C    -97.658200   18.735400  -122.782000
  C    -98.397700   19.168600  -121.718000
  C    -99.797600   18.996600  -121.979000
  C    -100.109000   18.232700  -123.103000
  H    -100.578000   19.455600  -121.398000
  C    -97.942700   19.757600  -120.446000
  H    -98.370500   20.758100  -120.423000
  H    -96.897200   19.876200  -120.526000
  C    -98.267900   18.955700  -119.191000
  H    -99.332800   19.112900  -119.117000
  H    -98.129100   17.957300  -119.312000
  C    -97.560100   19.365900  -117.866000
  H    -97.924600   20.308700  -117.644000
  H    -97.869400   18.701200  -117.037000
  H    -96.469200   19.309300  -117.959000
  S    -101.982000   18.588200  -125.142000
  C    -103.582000   17.910900  -124.948000
  C    -103.655000   17.220000  -123.755000
  C    -102.512000   17.353200  -122.954000
  C    -101.430000   17.870900  -123.648000
  H    -104.587000   16.716700  -123.527000
  C    -102.539000   16.786900  -121.558000
  H    -101.570000   17.125500  -121.156000
  H    -102.348000   15.720700  -121.632000
  C    -103.524000   17.267100  -120.461000
  H    -104.529000   16.797500  -120.458000
  H    -103.749000   18.323700  -120.590000
  C    -102.884000   17.168300  -119.028000
  H    -102.362000   16.208300  -118.821000
  H    -103.550000   17.383900  -118.244000
  H    -102.187000   18.015900  -118.893000
  H    -96.619000   18.863900  -122.885000
  H    -104.450000   18.015200  -125.553000

 Total Charge           Charge          ....    0
 Multiplicity           Mult            ....    1
 Number of Electrons    NEL             ....  134
 Basis Dimension        Dim             ....  322

ORBITAL ENERGIES
----------------

  NO   OCC          E(Eh)            E(eV)
   0   2.0000     -88.967571     -2420.9307
   1   2.0000     -88.963076     -2420.8084
   2   2.0000     -10.329887      -281.0905
   3   2.0000     -10.326187      -280.9898
   4   2.0000     -10.314417      -280.6695
   5   2.0000     -10.313503      -280.6447
   6   2.0000     -10.300346      -280.2867
   7   2.0000     -10.299259      -280.2571
   8   2.0000     -10.295925      -280.1664
   9   2.0000     -10.292161      -280.0639
  10   2.0000     -10.288549      -279.9657
  11   2.0000     -10.287509      -279.9374
  12   2.0000     -10.286670      -279.9145
  13   2.0000     -10.281721      -279.7798
  14   2.0000     -10.279186      -279.7109
  15   2.0000     -10.278509      -279.6924
  16   2.0000      -8.082104      -219.9252
  17   2.0000      -8.077583      -219.8022
  18   2.0000      -6.040667      -164.3749
  19   2.0000      -6.036622      -164.2648
  20   2.0000      -6.036180      -164.2528
  21   2.0000      -6.032820      -164.1614
  22   2.0000      -6.032250      -164.1459
  23   2.0000      -6.028140      -164.0340
  24   2.0000      -1.008064       -27.4308
  25   2.0000      -0.985100       -26.8059
  26   2.0000      -0.919520       -25.0214
  27   2.0000      -0.903964       -24.5981
  28   2.0000      -0.870761       -23.6946
  29   2.0000      -0.851714       -23.1763
  30   2.0000      -0.844232       -22.9727
  31   2.0000      -0.813436       -22.1347
  32   2.0000      -0.787485       -21.4285
  33   2.0000      -0.774516       -21.0756
  34   2.0000      -0.714334       -19.4380
  35   2.0000      -0.705171       -19.1887
  36   2.0000      -0.700420       -19.0594
  37   2.0000      -0.655906       -17.8481
  38   2.0000      -0.643059       -17.4985
  39   2.0000      -0.622779       -16.9467
  40   2.0000      -0.595988       -16.2177
  41   2.0000      -0.579597       -15.7716
  42   2.0000      -0.564360       -15.3570
  43   2.0000      -0.558018       -15.1844
  44   2.0000      -0.528492       -14.3810
  45   2.0000      -0.524075       -14.2608
  46   2.0000      -0.522837       -14.2271
  47   2.0000      -0.516597       -14.0573
  48   2.0000      -0.506265       -13.7762
  49   2.0000      -0.505534       -13.7563
  50   2.0000      -0.486615       -13.2415
  51   2.0000      -0.479165       -13.0387
  52   2.0000      -0.471889       -12.8407
  53   2.0000      -0.463994       -12.6259
  54   2.0000      -0.460260       -12.5243
  55   2.0000      -0.449900       -12.2424
  56   2.0000      -0.447820       -12.1858
  57   2.0000      -0.440861       -11.9964
  58   2.0000      -0.433735       -11.8025
  59   2.0000      -0.423297       -11.5185
  60   2.0000      -0.422599       -11.4995
  61   2.0000      -0.417793       -11.3687
  62   2.0000      -0.412270       -11.2184
  63   2.0000      -0.344709        -9.3800
  64   2.0000      -0.330714        -8.9992
  65   2.0000      -0.326474        -8.8838
  66   2.0000      -0.293052        -7.9744
  67   0.0000       0.030003         0.8164
  68   0.0000       0.068332         1.8594
  69   0.0000       0.106646         2.9020
  70   0.0000       0.119897         3.2626
  71   0.0000       0.126102         3.4314

MULLIKEN ATOMIC CHARGES
-----------------------
   0 S :    0.087530
   1 C :   -0.108629
   2 C :   -0.097451
   3 C :    0.026668
   4 C :   -0.167843
   5 H :    0.011649
   6 C :    0.117011
   7 H :    0.033399
   8 H :   -0.008953
   9 C :   -0.064554
  10 H :    0.019964
  11 H :    0.013192
  12 C :   -0.023349
  13 H :    0.015586
  14 H :    0.038022
  15 H :    0.039934
  16 S :    0.112953
  17 C :   -0.082080
  18 C :   -0.025294
  19 C :   -0.074351
  20 C :   -0.102443
  21 H :    0.017257
  22 C :    0.070200
  23 H :    0.001315
  24 H :    0.044247
  25 C :   -0.053334
  26 H :    0.036975
  27 H :    0.025102
  28 C :   -0.073267
  29 H :    0.048586
  30 H :    0.019762
  31 H :    0.030081
  32 H :    0.027116
  33 H :    0.045000
Sum of atomic charges:   -0.0000000

LOEWDIN ATOMIC CHARGES
----------------------
   0 S :    0.386427
   1 C :   -0.168828
   2 C :   -0.057266
   3 C :   -0.063146
   4 C :   -0.195684
   5 H :    0.025791
   6 C :   -0.027603
   7 H :    0.036954
   8 H :    0.019839
   9 C :   -0.029492
  10 H :    0.021979
  11 H :    0.011481
  12 C :   -0.053809
  13 H :    0.014153
  14 H :    0.032952
  15 H :    0.027214
  16 S :    0.413615
  17 C :   -0.181660
  18 C :   -0.070128
  19 C :   -0.055983
  20 C :   -0.210072
  21 H :    0.032125
  22 C :   -0.042237
  23 H :    0.032107
  24 H :    0.037604
  25 C :   -0.038170
  26 H :    0.023081
  27 H :    0.026690
  28 C :   -0.068236
  29 H :    0.029997
  30 H :    0.018837
  31 H :    0.026937
  32 H :    0.017354
  33 H :    0.027179

  Mayer bond orders larger than 0.100000
B(  0-S ,  1-C ) :   1.1139 B(  0-S ,  4-C ) :   1.1564 B(  1-C ,  2-C ) :   1.6345
B(  1-C , 32-H ) :   0.9739 B(  2-C ,  3-C ) :   1.2176 B(  2-C ,  6-C ) :   1.0378
B(  3-C ,  4-C ) :   1.5730 B(  3-C ,  5-H ) :   0.9901 B(  4-C , 20-C ) :   1.0128
B(  6-C ,  7-H ) :   0.9289 B(  6-C ,  8-H ) :   0.9288 B(  6-C ,  9-C ) :   1.0534
B(  9-C , 10-H ) :   0.9523 B(  9-C , 11-H ) :   0.9602 B(  9-C , 12-C ) :   1.0892
B( 12-C , 13-H ) :   0.9759 B( 12-C , 14-H ) :   0.9745 B( 12-C , 15-H ) :   0.9765
B( 16-S , 17-C ) :   1.1593 B( 16-S , 20-C ) :   1.1378 B( 17-C , 18-C ) :   1.6017
B( 17-C , 20-C ) :   0.1003 B( 17-C , 33-H ) :   0.9702 B( 18-C , 19-C ) :   1.2470
B( 18-C , 21-H ) :   0.9939 B( 19-C , 20-C ) :   1.5899 B( 19-C , 22-C ) :   1.0519
B( 22-C , 23-H ) :   0.9264 B( 22-C , 24-H ) :   0.9275 B( 22-C , 25-C ) :   1.0437
B( 25-C , 26-H ) :   0.9572 B( 25-C , 27-H ) :   0.9565 B( 25-C , 28-C ) :   1.0843
B( 28-C , 29-H ) :   0.9788 B( 28-C , 30-H ) :   0.9721 B( 28-C , 31-H ) :   0.9729

Dispersion correction           -0.014248653
FINAL SINGLE POINT ENERGY     -1339.859779831144

DIPOLE MOMENT
-------------
                                X             Y             Z
Electronic contribution:      0.28756      -0.12904     -33.82563
Nuclear contribution   :     -0.53542       0.31962      34.61363
                        -----------------------------------------
Total Dipole Moment    :     -0.24785       0.19058       0.78800
                        -----------------------------------------
Magnitude (a.u.)       :      0.84776
Magnitude (Debye)      :      2.15483

Rotational constants in cm-1:     0.017064     0.009622     0.006506
Rotational constants in MHz :   511.566688   288.467451   195.054076

                             ****ORCA TERMINATED NORMALLY****
TOTAL RUN TIME: 0 days 0 hours 0 minutes 22 seconds 61 msec
