                         Program Version 4.2.1 -  RELEASE  -
|  1> ! wB97X-D3 SP def2-SVP
|  2> %pal
|  3> nprocs 24
|  4> end
|  5>
|  6> * xyz 0 1
|  7> S 	 45.0873 	 -17.5927 	 -109.803
|  8> C 	 46.8245 	 -17.234 	 -110.021
|  9> C 	 47.5547 	 -17.9459 	 -109.111
| 10> C 	 46.7913 	 -18.8771 	 -108.378
| 11> C 	 45.4358 	 -18.8422 	 -108.66
| 12> H 	 47.2569 	 -19.5909 	 -107.636
| 13> C 	 49.0506 	 -17.8143 	 -108.909
| 14> H 	 49.3561 	 -18.6423 	 -108.277
| 15> H 	 49.1308 	 -17.0693 	 -108.133
| 16> C 	 50.0156 	 -17.6949 	 -110.135
| 17> H 	 49.8705 	 -16.8086 	 -110.676
| 18> H 	 51.0223 	 -17.5974 	 -109.688
| 19> C 	 49.9309 	 -18.9652 	 -111.137
| 20> H 	 50.3921 	 -18.8308 	 -112.055
| 21> H 	 50.3927 	 -19.7995 	 -110.613
| 22> H 	 48.9378 	 -19.3411 	 -111.495
| 23> S 	 43.0079 	 -19.0436 	 -107.486
| 24> C 	 42.2454 	 -20.6164 	 -107.21
| 25> C 	 43.0916 	 -21.6428 	 -107.647
| 26> C 	 44.3438 	 -21.1698 	 -108.04
| 27> C 	 44.4469 	 -19.7853 	 -108.084
| 28> H 	 42.7079 	 -22.6201 	 -107.434
| 29> C 	 45.44 	 -22.0285 	 -108.6
| 30> H 	 45.7854 	 -22.776 	 -107.911
| 31> H 	 46.3102 	 -21.3831 	 -108.717
| 32> C 	 45.1901 	 -22.6998 	 -109.928
| 33> H 	 44.1781 	 -23.238 	 -109.942
| 34> H 	 45.9766 	 -23.4356 	 -110.096
| 35> C 	 45.4159 	 -21.7886 	 -111.116
| 36> H 	 44.4985 	 -21.1701 	 -111.199
| 37> H 	 45.5098 	 -22.3854 	 -112.08
| 38> H 	 46.1533 	 -21.0586 	 -110.929
| 39> H 	 47.2418 	 -16.4395 	 -110.65
| 40> H 	 41.2317 	 -20.7212 	 -106.785
| 41> *
| 42>
| 43>                          ****END OF INPUT****

CARTESIAN COORDINATES (ANGSTROEM)
---------------------------------
  S     45.087300  -17.592700  -109.803000
  C     46.824500  -17.234000  -110.021000
  C     47.554700  -17.945900  -109.111000
  C     46.791300  -18.877100  -108.378000
  C     45.435800  -18.842200  -108.660000
  H     47.256900  -19.590900  -107.636000
  C     49.050600  -17.814300  -108.909000
  H     49.356100  -18.642300  -108.277000
  H     49.130800  -17.069300  -108.133000
  C     50.015600  -17.694900  -110.135000
  H     49.870500  -16.808600  -110.676000
  H     51.022300  -17.597400  -109.688000
  C     49.930900  -18.965200  -111.137000
  H     50.392100  -18.830800  -112.055000
  H     50.392700  -19.799500  -110.613000
  H     48.937800  -19.341100  -111.495000
  S     43.007900  -19.043600  -107.486000
  C     42.245400  -20.616400  -107.210000
  C     43.091600  -21.642800  -107.647000
  C     44.343800  -21.169800  -108.040000
  C     44.446900  -19.785300  -108.084000
  H     42.707900  -22.620100  -107.434000
  C     45.440000  -22.028500  -108.600000
  H     45.785400  -22.776000  -107.911000
  H     46.310200  -21.383100  -108.717000
  C     45.190100  -22.699800  -109.928000
  H     44.178100  -23.238000  -109.942000
  H     45.976600  -23.435600  -110.096000
  C     45.415900  -21.788600  -111.116000
  H     44.498500  -21.170100  -111.199000
  H     45.509800  -22.385400  -112.080000
  H     46.153300  -21.058600  -110.929000
  H     47.241800  -16.439500  -110.650000
  H     41.231700  -20.721200  -106.785000

 Total Charge           Charge          ....    0
 Multiplicity           Mult            ....    1
 Number of Electrons    NEL             ....  134
 Basis Dimension        Dim             ....  322

ORBITAL ENERGIES
----------------

  NO   OCC          E(Eh)            E(eV)
   0   2.0000     -88.969312     -2420.9781
   1   2.0000     -88.964226     -2420.8397
   2   2.0000     -10.332520      -281.1622
   3   2.0000     -10.326956      -281.0108
   4   2.0000     -10.322057      -280.8774
   5   2.0000     -10.314800      -280.6800
   6   2.0000     -10.301444      -280.3165
   7   2.0000     -10.300277      -280.2848
   8   2.0000     -10.297857      -280.2189
   9   2.0000     -10.295317      -280.1498
  10   2.0000     -10.294559      -280.1292
  11   2.0000     -10.293670      -280.1050
  12   2.0000     -10.281913      -279.7851
  13   2.0000     -10.281236      -279.7667
  14   2.0000     -10.280319      -279.7417
  15   2.0000     -10.268757      -279.4271
  16   2.0000      -8.083522      -219.9638
  17   2.0000      -8.079226      -219.8469
  18   2.0000      -6.042088      -164.4136
  19   2.0000      -6.038117      -164.3055
  20   2.0000      -6.037521      -164.2893
  21   2.0000      -6.034206      -164.1991
  22   2.0000      -6.033585      -164.1822
  23   2.0000      -6.030315      -164.0932
  24   2.0000      -1.009545       -27.4711
  25   2.0000      -0.987087       -26.8600
  26   2.0000      -0.911136       -24.7933
  27   2.0000      -0.905938       -24.6518
  28   2.0000      -0.865331       -23.5468
  29   2.0000      -0.849199       -23.1079
  30   2.0000      -0.844394       -22.9771
  31   2.0000      -0.812409       -22.1068
  32   2.0000      -0.785989       -21.3878
  33   2.0000      -0.772407       -21.0183
  34   2.0000      -0.719146       -19.5689
  35   2.0000      -0.700515       -19.0620
  36   2.0000      -0.690189       -18.7810
  37   2.0000      -0.657795       -17.8995
  38   2.0000      -0.633967       -17.2511
  39   2.0000      -0.615800       -16.7568
  40   2.0000      -0.595449       -16.2030
  41   2.0000      -0.575164       -15.6510
  42   2.0000      -0.554883       -15.0991
  43   2.0000      -0.552058       -15.0223
  44   2.0000      -0.542776       -14.7697
  45   2.0000      -0.528583       -14.3835
  46   2.0000      -0.516707       -14.0603
  47   2.0000      -0.508976       -13.8500
  48   2.0000      -0.502607       -13.6766
  49   2.0000      -0.491196       -13.3661
  50   2.0000      -0.488657       -13.2970
  51   2.0000      -0.479232       -13.0406
  52   2.0000      -0.470328       -12.7983
  53   2.0000      -0.464122       -12.6294
  54   2.0000      -0.456821       -12.4307
  55   2.0000      -0.452333       -12.3086
  56   2.0000      -0.439978       -11.9724
  57   2.0000      -0.435101       -11.8397
  58   2.0000      -0.427954       -11.6452
  59   2.0000      -0.425734       -11.5848
  60   2.0000      -0.423560       -11.5257
  61   2.0000      -0.419747       -11.4219
  62   2.0000      -0.397442       -10.8149
  63   2.0000      -0.345954        -9.4139
  64   2.0000      -0.333873        -9.0852
  65   2.0000      -0.332045        -9.0354
  66   2.0000      -0.292303        -7.9540
  67   0.0000       0.029918         0.8141
  68   0.0000       0.067923         1.8483
  69   0.0000       0.109841         2.9889
  70   0.0000       0.123503         3.3607
  71   0.0000       0.134889         3.6705

MULLIKEN ATOMIC CHARGES
-----------------------
   0 S :    0.119418
   1 C :   -0.148468
   2 C :   -0.086635
   3 C :   -0.004578
   4 C :   -0.128493
   5 H :    0.043295
   6 C :    0.073611
   7 H :   -0.000499
   8 H :    0.033819
   9 C :   -0.033232
  10 H :    0.022349
  11 H :    0.038097
  12 C :   -0.062450
  13 H :    0.020851
  14 H :    0.032035
  15 H :    0.045796
  16 S :    0.096933
  17 C :   -0.129641
  18 C :   -0.030228
  19 C :   -0.005758
  20 C :   -0.165141
  21 H :    0.019372
  22 C :    0.089389
  23 H :    0.019505
  24 H :   -0.009960
  25 C :   -0.090019
  26 H :    0.041003
  27 H :    0.021336
  28 C :   -0.046870
  29 H :    0.026900
  30 H :    0.046326
  31 H :    0.024965
  32 H :    0.054554
  33 H :    0.072417
Sum of atomic charges:    0.0000000

LOEWDIN ATOMIC CHARGES
----------------------
   0 S :    0.405668
   1 C :   -0.195073
   2 C :   -0.066162
   3 C :   -0.077539
   4 C :   -0.202380
   5 H :    0.041250
   6 C :   -0.037881
   7 H :    0.027689
   8 H :    0.036865
   9 C :   -0.025928
  10 H :    0.012780
  11 H :    0.033645
  12 C :   -0.067681
  13 H :    0.015789
  14 H :    0.025927
  15 H :    0.034611
  16 S :    0.409730
  17 C :   -0.181855
  18 C :   -0.068795
  19 C :   -0.059822
  20 C :   -0.199938
  21 H :    0.033443
  22 C :   -0.035176
  23 H :    0.028967
  24 H :    0.027510
  25 C :   -0.046256
  26 H :    0.029682
  27 H :    0.022322
  28 C :   -0.069369
  29 H :    0.027462
  30 H :    0.033625
  31 H :    0.018759
  32 H :    0.033570
  33 H :    0.034559

  Mayer bond orders larger than 0.100000
B(  0-S ,  1-C ) :   1.1181 B(  0-S ,  4-C ) :   1.1643 B(  1-C ,  2-C ) :   1.6097
B(  1-C , 32-H ) :   0.9707 B(  2-C ,  3-C ) :   1.2671 B(  2-C ,  6-C ) :   1.0093
B(  3-C ,  4-C ) :   1.5518 B(  3-C ,  5-H ) :   0.9766 B(  4-C , 20-C ) :   1.0174
B(  6-C ,  7-H ) :   0.9369 B(  6-C ,  8-H ) :   0.9262 B(  6-C ,  9-C ) :   1.0632
B(  9-C , 10-H ) :   0.9618 B(  9-C , 11-H ) :   0.9569 B(  9-C , 12-C ) :   1.0545
B( 12-C , 13-H ) :   0.9785 B( 12-C , 14-H ) :   0.9799 B( 12-C , 15-H ) :   0.9782
B( 16-S , 17-C ) :   1.1693 B( 16-S , 20-C ) :   1.1575 B( 17-C , 18-C ) :   1.5806
B( 17-C , 20-C ) :   0.1087 B( 17-C , 33-H ) :   0.9658 B( 18-C , 19-C ) :   1.2496
B( 18-C , 21-H ) :   0.9980 B( 19-C , 20-C ) :   1.5668 B( 19-C , 22-C ) :   1.0521
B( 22-C , 23-H ) :   0.9208 B( 22-C , 24-H ) :   0.9252 B( 22-C , 25-C ) :   1.0871
B( 25-C , 26-H ) :   0.9546 B( 25-C , 27-H ) :   0.9518 B( 25-C , 28-C ) :   1.0738
B( 28-C , 29-H ) :   0.9736 B( 28-C , 30-H ) :   0.9755 B( 28-C , 31-H ) :   0.9708

Dispersion correction           -0.015673481
FINAL SINGLE POINT ENERGY     -1339.868702343381

DIPOLE MOMENT
-------------
                                X             Y             Z
Electronic contribution:    -22.16369      11.93133      11.52305
Nuclear contribution   :     22.71826     -12.21253     -11.48493
                        -----------------------------------------
Total Dipole Moment    :      0.55457      -0.28120       0.03811
                        -----------------------------------------
Magnitude (a.u.)       :      0.62295
Magnitude (Debye)      :      1.58342

Rotational constants in cm-1:     0.022003     0.008933     0.007333
Rotational constants in MHz :   659.632379   267.798461   219.845497

                             ****ORCA TERMINATED NORMALLY****
TOTAL RUN TIME: 0 days 0 hours 0 minutes 22 seconds 638 msec
