                         Program Version 4.2.1 -  RELEASE  -
|  1> ! wB97X-D3 SP def2-SVP
|  2> %pal
|  3> nprocs 24
|  4> end
|  5>
|  6> * xyz 0 1
|  7> S 	 -57.9346 	 1.12878 	 -29.1106
|  8> C 	 -59.4905 	 1.81056 	 -29.1933
|  9> C 	 -59.9646 	 1.64366 	 -30.5538
| 10> C 	 -58.9303 	 1.146 	 -31.4546
| 11> C 	 -57.7177 	 0.837565 	 -30.844
| 12> H 	 -59.0511 	 0.902074 	 -32.5449
| 13> C 	 -61.3418 	 2.00662 	 -31.0494
| 14> H 	 -62.1517 	 1.69853 	 -30.3891
| 15> H 	 -61.5341 	 1.41472 	 -31.9101
| 16> C 	 -61.6599 	 3.48374 	 -31.3683
| 17> H 	 -61.6799 	 3.95959 	 -30.3931
| 18> H 	 -60.9397 	 3.89272 	 -32.0469
| 19> C 	 -63.0561 	 3.63767 	 -32.1016
| 20> H 	 -63.2579 	 2.79922 	 -32.7906
| 21> H 	 -63.8622 	 3.83134 	 -31.4551
| 22> H 	 -62.9988 	 4.48866 	 -32.7668
| 23> S 	 -55.2791 	 -0.282591 	 -30.1019
| 24> C 	 -53.9903 	 -0.516852 	 -31.275
| 25> C 	 -54.5734 	 -0.44678 	 -32.5502
| 26> C 	 -55.866 	 0.112097 	 -32.6389
| 27> C 	 -56.4093 	 0.320455 	 -31.348
| 28> H 	 -54.0188 	 -0.705284 	 -33.3995
| 29> C 	 -56.4692 	 0.33105 	 -33.9831
| 30> H 	 -57.4016 	 -0.223394 	 -34.001
| 31> H 	 -55.7334 	 0.024543 	 -34.7565
| 32> C 	 -56.8019 	 1.75009 	 -34.2681
| 33> H 	 -55.9429 	 2.41022 	 -34.3509
| 34> H 	 -57.3825 	 2.13721 	 -33.4153
| 35> C 	 -57.557 	 1.96657 	 -35.6361
| 36> H 	 -58.3725 	 1.24881 	 -35.6463
| 37> H 	 -56.7674 	 1.72411 	 -36.4362
| 38> H 	 -57.831 	 2.99948 	 -35.8314
| 39> H 	 -60.0361 	 2.18423 	 -28.3779
| 40> H 	 -53.0776 	 -1.062 	 -31.1354
| 41> *
| 42>
| 43>                          ****END OF INPUT****

CARTESIAN COORDINATES (ANGSTROEM)
---------------------------------
  S    -57.934600    1.128780  -29.110600
  C    -59.490500    1.810560  -29.193300
  C    -59.964600    1.643660  -30.553800
  C    -58.930300    1.146000  -31.454600
  C    -57.717700    0.837565  -30.844000
  H    -59.051100    0.902074  -32.544900
  C    -61.341800    2.006620  -31.049400
  H    -62.151700    1.698530  -30.389100
  H    -61.534100    1.414720  -31.910100
  C    -61.659900    3.483740  -31.368300
  H    -61.679900    3.959590  -30.393100
  H    -60.939700    3.892720  -32.046900
  C    -63.056100    3.637670  -32.101600
  H    -63.257900    2.799220  -32.790600
  H    -63.862200    3.831340  -31.455100
  H    -62.998800    4.488660  -32.766800
  S    -55.279100   -0.282591  -30.101900
  C    -53.990300   -0.516852  -31.275000
  C    -54.573400   -0.446780  -32.550200
  C    -55.866000    0.112097  -32.638900
  C    -56.409300    0.320455  -31.348000
  H    -54.018800   -0.705284  -33.399500
  C    -56.469200    0.331050  -33.983100
  H    -57.401600   -0.223394  -34.001000
  H    -55.733400    0.024543  -34.756500
  C    -56.801900    1.750090  -34.268100
  H    -55.942900    2.410220  -34.350900
  H    -57.382500    2.137210  -33.415300
  C    -57.557000    1.966570  -35.636100
  H    -58.372500    1.248810  -35.646300
  H    -56.767400    1.724110  -36.436200
  H    -57.831000    2.999480  -35.831400
  H    -60.036100    2.184230  -28.377900
  H    -53.077600   -1.062000  -31.135400

 Total Charge           Charge          ....    0
 Multiplicity           Mult            ....    1
 Number of Electrons    NEL             ....  134
 Basis Dimension        Dim             ....  322

ORBITAL ENERGIES
----------------

  NO   OCC          E(Eh)            E(eV)
   0   2.0000     -88.970079     -2420.9989
   1   2.0000     -88.966772     -2420.9089
   2   2.0000     -10.342471      -281.4329
   3   2.0000     -10.340317      -281.3743
   4   2.0000     -10.319392      -280.8049
   5   2.0000     -10.318988      -280.7939
   6   2.0000     -10.313204      -280.6366
   7   2.0000     -10.306885      -280.4646
   8   2.0000     -10.306311      -280.4490
   9   2.0000     -10.294393      -280.1247
  10   2.0000     -10.291991      -280.0593
  11   2.0000     -10.287414      -279.9348
  12   2.0000     -10.287038      -279.9245
  13   2.0000     -10.286080      -279.8985
  14   2.0000     -10.283072      -279.8166
  15   2.0000     -10.277626      -279.6684
  16   2.0000      -8.083717      -219.9691
  17   2.0000      -8.081780      -219.9164
  18   2.0000      -6.042418      -164.4225
  19   2.0000      -6.040281      -164.3644
  20   2.0000      -6.038371      -164.3124
  21   2.0000      -6.036030      -164.2487
  22   2.0000      -6.034341      -164.2028
  23   2.0000      -6.032725      -164.1588
  24   2.0000      -1.003623       -27.3100
  25   2.0000      -0.982723       -26.7413
  26   2.0000      -0.918786       -25.0014
  27   2.0000      -0.906985       -24.6803
  28   2.0000      -0.866531       -23.5795
  29   2.0000      -0.852250       -23.1909
  30   2.0000      -0.844375       -22.9766
  31   2.0000      -0.815032       -22.1781
  32   2.0000      -0.781429       -21.2638
  33   2.0000      -0.770572       -20.9683
  34   2.0000      -0.707613       -19.2551
  35   2.0000      -0.704171       -19.1615
  36   2.0000      -0.688187       -18.7265
  37   2.0000      -0.668596       -18.1934
  38   2.0000      -0.647506       -17.6195
  39   2.0000      -0.618664       -16.8347
  40   2.0000      -0.598635       -16.2897
  41   2.0000      -0.577239       -15.7075
  42   2.0000      -0.568009       -15.4563
  43   2.0000      -0.564555       -15.3623
  44   2.0000      -0.527077       -14.3425
  45   2.0000      -0.521279       -14.1847
  46   2.0000      -0.520640       -14.1673
  47   2.0000      -0.510934       -13.9032
  48   2.0000      -0.508612       -13.8400
  49   2.0000      -0.503948       -13.7131
  50   2.0000      -0.492791       -13.4095
  51   2.0000      -0.482994       -13.1429
  52   2.0000      -0.473172       -12.8757
  53   2.0000      -0.468709       -12.7542
  54   2.0000      -0.459447       -12.5022
  55   2.0000      -0.451150       -12.2764
  56   2.0000      -0.444997       -12.1090
  57   2.0000      -0.435281       -11.8446
  58   2.0000      -0.432270       -11.7627
  59   2.0000      -0.426471       -11.6049
  60   2.0000      -0.419180       -11.4065
  61   2.0000      -0.416540       -11.3346
  62   2.0000      -0.405475       -11.0335
  63   2.0000      -0.362707        -9.8698
  64   2.0000      -0.334661        -9.1066
  65   2.0000      -0.324988        -8.8434
  66   2.0000      -0.280175        -7.6240
  67   0.0000       0.010288         0.2800
  68   0.0000       0.077236         2.1017
  69   0.0000       0.090762         2.4698
  70   0.0000       0.119891         3.2624
  71   0.0000       0.123145         3.3509

MULLIKEN ATOMIC CHARGES
-----------------------
   0 S :    0.099629
   1 C :   -0.078884
   2 C :   -0.108779
   3 C :   -0.010047
   4 C :   -0.118967
   5 H :    0.031357
   6 C :    0.051105
   7 H :    0.022887
   8 H :    0.002170
   9 C :   -0.053191
  10 H :    0.031383
  11 H :    0.029134
  12 C :   -0.050419
  13 H :    0.030890
  14 H :    0.031618
  15 H :    0.025279
  16 S :    0.094803
  17 C :   -0.069258
  18 C :   -0.044833
  19 C :   -0.053888
  20 C :   -0.116208
  21 H :   -0.001501
  22 C :    0.097743
  23 H :    0.032677
  24 H :    0.022092
  25 C :   -0.124055
  26 H :    0.025450
  27 H :    0.035562
  28 C :   -0.046853
  29 H :    0.028175
  30 H :    0.035053
  31 H :    0.044449
  32 H :    0.042941
  33 H :    0.062488
Sum of atomic charges:    0.0000000

LOEWDIN ATOMIC CHARGES
----------------------
   0 S :    0.423938
   1 C :   -0.204124
   2 C :   -0.058992
   3 C :   -0.080489
   4 C :   -0.188495
   5 H :    0.038550
   6 C :   -0.042566
   7 H :    0.031130
   8 H :    0.021435
   9 C :   -0.028190
  10 H :    0.024217
  11 H :    0.020528
  12 C :   -0.064404
  13 H :    0.027715
  14 H :    0.018297
  15 H :    0.026622
  16 S :    0.396253
  17 C :   -0.188650
  18 C :   -0.060062
  19 C :   -0.056221
  20 C :   -0.178495
  21 H :    0.019632
  22 C :   -0.031461
  23 H :    0.032319
  24 H :    0.036272
  25 C :   -0.048141
  26 H :    0.023202
  27 H :    0.022678
  28 C :   -0.064666
  29 H :    0.018642
  30 H :    0.032482
  31 H :    0.026719
  32 H :    0.023236
  33 H :    0.031089

  Mayer bond orders larger than 0.100000
B(  0-S ,  1-C ) :   1.1726 B(  0-S ,  4-C ) :   1.1622 B(  1-C ,  2-C ) :   1.5283
B(  1-C ,  4-C ) :   0.1065 B(  1-C , 32-H ) :   0.9837 B(  2-C ,  3-C ) :   1.2835
B(  2-C ,  6-C ) :   1.0429 B(  3-C ,  4-C ) :   1.5418 B(  3-C ,  5-H ) :   0.9738
B(  4-C , 20-C ) :   1.0640 B(  6-C ,  7-H ) :   0.9423 B(  6-C ,  8-H ) :   0.9368
B(  6-C ,  9-C ) :   1.0637 B(  9-C , 10-H ) :   0.9595 B(  9-C , 11-H ) :   0.9631
B(  9-C , 12-C ) :   1.0686 B( 12-C , 13-H ) :   0.9764 B( 12-C , 14-H ) :   0.9788
B( 12-C , 15-H ) :   0.9787 B( 16-S , 17-C ) :   1.1495 B( 16-S , 20-C ) :   1.1546
B( 17-C , 18-C ) :   1.5826 B( 17-C , 20-C ) :   0.1108 B( 17-C , 33-H ) :   0.9652
B( 18-C , 19-C ) :   1.2970 B( 18-C , 21-H ) :   0.9857 B( 19-C , 20-C ) :   1.5310
B( 19-C , 22-C ) :   1.0502 B( 22-C , 23-H ) :   0.9204 B( 22-C , 24-H ) :   0.9278
B( 22-C , 25-C ) :   1.0726 B( 25-C , 26-H ) :   0.9509 B( 25-C , 27-H ) :   0.9539
B( 25-C , 28-C ) :   1.0742 B( 28-C , 29-H ) :   0.9759 B( 28-C , 30-H ) :   0.9751
B( 28-C , 31-H ) :   0.9751

Dispersion correction           -0.013640888
FINAL SINGLE POINT ENERGY     -1339.861636768159

DIPOLE MOMENT
-------------
                                X             Y             Z
Electronic contribution:     19.99061     -12.85095      23.26873
Nuclear contribution   :    -20.31036      12.91143     -23.85992
                        -----------------------------------------
Total Dipole Moment    :     -0.31975       0.06048      -0.59120
                        -----------------------------------------
Magnitude (a.u.)       :      0.67484
Magnitude (Debye)      :      1.71531

Rotational constants in cm-1:     0.018854     0.008628     0.006090
Rotational constants in MHz :   565.229384   258.648893   182.563001

                             ****ORCA TERMINATED NORMALLY****
TOTAL RUN TIME: 0 days 0 hours 0 minutes 20 seconds 308 msec
