                         Program Version 4.2.1 -  RELEASE  -
|  1> ! wB97X-D3 SP def2-SVP
|  2> %pal
|  3> nprocs 24
|  4> end
|  5>
|  6> * xyz 0 1
|  7> S 	 -109.536 	 55.8204 	 -89.699
|  8> C 	 -108.403 	 55.7329 	 -88.3218
|  9> C 	 -107.128 	 55.8443 	 -88.8152
| 10> C 	 -107.005 	 55.944 	 -90.2359
| 11> C 	 -108.242 	 56.0207 	 -90.8748
| 12> H 	 -106.075 	 55.9326 	 -90.8011
| 13> C 	 -105.921 	 55.8371 	 -87.9073
| 14> H 	 -106.081 	 56.5768 	 -87.1015
| 15> H 	 -105.055 	 56.0668 	 -88.5248
| 16> C 	 -105.574 	 54.5132 	 -87.2284
| 17> H 	 -106.379 	 54.1132 	 -86.515
| 18> H 	 -105.57 	 53.6921 	 -87.9939
| 19> C 	 -104.391 	 54.5739 	 -86.3062
| 20> H 	 -104.103 	 53.4922 	 -85.9759
| 21> H 	 -103.474 	 54.8622 	 -86.8037
| 22> H 	 -104.528 	 55.1947 	 -85.3572
| 23> S 	 -109.568 	 55.2254 	 -93.1103
| 24> C 	 -109.213 	 55.9827 	 -94.6455
| 25> C 	 -108.254 	 56.9979 	 -94.5014
| 26> C 	 -107.82 	 57.202 	 -93.1181
| 27> C 	 -108.451 	 56.3259 	 -92.266
| 28> H 	 -107.926 	 57.5738 	 -95.3848
| 29> C 	 -106.88 	 58.3443 	 -92.7555
| 30> H 	 -106.374 	 58.7112 	 -93.5991
| 31> H 	 -106.114 	 57.9253 	 -92.209
| 32> C 	 -107.607 	 59.4811 	 -91.9478
| 33> H 	 -107.861 	 58.8972 	 -91.057
| 34> H 	 -108.41 	 59.8629 	 -92.4967
| 35> C 	 -106.756 	 60.5999 	 -91.4596
| 36> H 	 -107.441 	 61.4929 	 -91.3705
| 37> H 	 -106.04 	 60.9013 	 -92.2467
| 38> H 	 -106.212 	 60.3627 	 -90.5717
| 39> H 	 -108.69 	 55.7898 	 -87.2464
| 40> H 	 -109.78 	 55.8486 	 -95.5807
| 41> *
| 42>
| 43>                          ****END OF INPUT****

CARTESIAN COORDINATES (ANGSTROEM)
---------------------------------
  S    -109.536000   55.820400  -89.699000
  C    -108.403000   55.732900  -88.321800
  C    -107.128000   55.844300  -88.815200
  C    -107.005000   55.944000  -90.235900
  C    -108.242000   56.020700  -90.874800
  H    -106.075000   55.932600  -90.801100
  C    -105.921000   55.837100  -87.907300
  H    -106.081000   56.576800  -87.101500
  H    -105.055000   56.066800  -88.524800
  C    -105.574000   54.513200  -87.228400
  H    -106.379000   54.113200  -86.515000
  H    -105.570000   53.692100  -87.993900
  C    -104.391000   54.573900  -86.306200
  H    -104.103000   53.492200  -85.975900
  H    -103.474000   54.862200  -86.803700
  H    -104.528000   55.194700  -85.357200
  S    -109.568000   55.225400  -93.110300
  C    -109.213000   55.982700  -94.645500
  C    -108.254000   56.997900  -94.501400
  C    -107.820000   57.202000  -93.118100
  C    -108.451000   56.325900  -92.266000
  H    -107.926000   57.573800  -95.384800
  C    -106.880000   58.344300  -92.755500
  H    -106.374000   58.711200  -93.599100
  H    -106.114000   57.925300  -92.209000
  C    -107.607000   59.481100  -91.947800
  H    -107.861000   58.897200  -91.057000
  H    -108.410000   59.862900  -92.496700
  C    -106.756000   60.599900  -91.459600
  H    -107.441000   61.492900  -91.370500
  H    -106.040000   60.901300  -92.246700
  H    -106.212000   60.362700  -90.571700
  H    -108.690000   55.789800  -87.246400
  H    -109.780000   55.848600  -95.580700

 Total Charge           Charge          ....    0
 Multiplicity           Mult            ....    1
 Number of Electrons    NEL             ....  134
 Basis Dimension        Dim             ....  322

ORBITAL ENERGIES
----------------

  NO   OCC          E(Eh)            E(eV)
   0   2.0000     -88.967054     -2420.9166
   1   2.0000     -88.965371     -2420.8708
   2   2.0000     -10.332876      -281.1718
   3   2.0000     -10.327578      -281.0277
   4   2.0000     -10.321577      -280.8644
   5   2.0000     -10.319237      -280.8007
   6   2.0000     -10.308577      -280.5107
   7   2.0000     -10.300998      -280.3044
   8   2.0000     -10.300872      -280.3010
   9   2.0000     -10.297572      -280.2112
  10   2.0000     -10.292805      -280.0815
  11   2.0000     -10.292701      -280.0786
  12   2.0000     -10.289680      -279.9964
  13   2.0000     -10.282841      -279.8103
  14   2.0000     -10.277044      -279.6526
  15   2.0000     -10.275886      -279.6211
  16   2.0000      -8.081001      -219.8952
  17   2.0000      -8.079763      -219.8615
  18   2.0000      -6.039645      -164.3471
  19   2.0000      -6.038352      -164.3119
  20   2.0000      -6.035497      -164.2342
  21   2.0000      -6.034308      -164.2019
  22   2.0000      -6.031772      -164.1329
  23   2.0000      -6.030469      -164.0974
  24   2.0000      -1.004003       -27.3203
  25   2.0000      -0.979126       -26.6434
  26   2.0000      -0.912534       -24.8313
  27   2.0000      -0.910522       -24.7766
  28   2.0000      -0.869678       -23.6651
  29   2.0000      -0.854687       -23.2572
  30   2.0000      -0.844745       -22.9867
  31   2.0000      -0.812043       -22.0968
  32   2.0000      -0.783735       -21.3265
  33   2.0000      -0.770377       -20.9630
  34   2.0000      -0.705423       -19.1955
  35   2.0000      -0.694080       -18.8869
  36   2.0000      -0.690936       -18.8013
  37   2.0000      -0.662890       -18.0382
  38   2.0000      -0.637882       -17.3577
  39   2.0000      -0.617822       -16.8118
  40   2.0000      -0.591865       -16.1055
  41   2.0000      -0.577479       -15.7140
  42   2.0000      -0.568945       -15.4818
  43   2.0000      -0.557643       -15.1743
  44   2.0000      -0.528331       -14.3766
  45   2.0000      -0.519700       -14.1418
  46   2.0000      -0.517220       -14.0743
  47   2.0000      -0.510971       -13.9042
  48   2.0000      -0.505751       -13.7622
  49   2.0000      -0.502543       -13.6749
  50   2.0000      -0.495908       -13.4943
  51   2.0000      -0.485577       -13.2132
  52   2.0000      -0.475447       -12.9376
  53   2.0000      -0.466340       -12.6898
  54   2.0000      -0.455645       -12.3987
  55   2.0000      -0.448064       -12.1924
  56   2.0000      -0.442751       -12.0479
  57   2.0000      -0.435713       -11.8563
  58   2.0000      -0.426971       -11.6185
  59   2.0000      -0.423438       -11.5223
  60   2.0000      -0.419764       -11.4224
  61   2.0000      -0.407159       -11.0794
  62   2.0000      -0.405458       -11.0331
  63   2.0000      -0.346656        -9.4330
  64   2.0000      -0.331790        -9.0285
  65   2.0000      -0.329975        -8.9791
  66   2.0000      -0.291826        -7.9410
  67   0.0000       0.022745         0.6189
  68   0.0000       0.068952         1.8763
  69   0.0000       0.105521         2.8714
  70   0.0000       0.116998         3.1837
  71   0.0000       0.134326         3.6552

MULLIKEN ATOMIC CHARGES
-----------------------
   0 S :    0.102475
   1 C :   -0.135022
   2 C :   -0.089185
   3 C :    0.017205
   4 C :   -0.137706
   5 H :    0.026312
   6 C :    0.082649
   7 H :    0.032945
   8 H :    0.014578
   9 C :   -0.107030
  10 H :    0.030981
  11 H :    0.036589
  12 C :   -0.079603
  13 H :    0.041308
  14 H :    0.024513
  15 H :    0.052285
  16 S :    0.100905
  17 C :   -0.096718
  18 C :   -0.061901
  19 C :   -0.060261
  20 C :   -0.160259
  21 H :    0.031193
  22 C :    0.161323
  23 H :   -0.010076
  24 H :   -0.016515
  25 C :   -0.076706
  26 H :    0.044625
  27 H :    0.026150
  28 C :   -0.032833
  29 H :    0.040222
  30 H :    0.019924
  31 H :    0.035097
  32 H :    0.071369
  33 H :    0.071167
Sum of atomic charges:   -0.0000000

LOEWDIN ATOMIC CHARGES
----------------------
   0 S :    0.390108
   1 C :   -0.193829
   2 C :   -0.067065
   3 C :   -0.067676
   4 C :   -0.190377
   5 H :    0.034457
   6 C :   -0.034312
   7 H :    0.034651
   8 H :    0.028507
   9 C :   -0.058397
  10 H :    0.029374
  11 H :    0.029101
  12 C :   -0.079988
  13 H :    0.038768
  14 H :    0.016720
  15 H :    0.034657
  16 S :    0.393619
  17 C :   -0.193106
  18 C :   -0.073475
  19 C :   -0.046093
  20 C :   -0.190929
  21 H :    0.035288
  22 C :   -0.020423
  23 H :    0.018054
  24 H :    0.016669
  25 C :   -0.032627
  26 H :    0.033948
  27 H :    0.018547
  28 C :   -0.066591
  29 H :    0.037199
  30 H :    0.022870
  31 H :    0.022419
  32 H :    0.042770
  33 H :    0.037162

  Mayer bond orders larger than 0.100000
B(  0-S ,  1-C ) :   1.1177 B(  0-S ,  4-C ) :   1.1570 B(  1-C ,  2-C ) :   1.6091
B(  1-C , 32-H ) :   0.9675 B(  2-C ,  3-C ) :   1.2445 B(  2-C ,  6-C ) :   1.0293
B(  3-C ,  4-C ) :   1.5525 B(  3-C ,  5-H ) :   0.9914 B(  4-C , 20-C ) :   1.0458
B(  6-C ,  7-H ) :   0.9366 B(  6-C ,  8-H ) :   0.9383 B(  6-C ,  9-C ) :   1.0645
B(  9-C , 10-H ) :   0.9516 B(  9-C , 11-H ) :   0.9534 B(  9-C , 12-C ) :   1.0816
B( 12-C , 13-H ) :   0.9704 B( 12-C , 14-H ) :   0.9733 B( 12-C , 15-H ) :   0.9715
B( 16-S , 17-C ) :   1.1500 B( 16-S , 20-C ) :   1.1267 B( 17-C , 18-C ) :   1.6238
B( 17-C , 33-H ) :   0.9626 B( 18-C , 19-C ) :   1.2221 B( 18-C , 21-H ) :   0.9833
B( 19-C , 20-C ) :   1.6112 B( 19-C , 22-C ) :   1.0478 B( 22-C , 23-H ) :   0.9184
B( 22-C , 24-H ) :   0.9175 B( 22-C , 25-C ) :   1.0581 B( 25-C , 26-H ) :   0.9565
B( 25-C , 27-H ) :   0.9631 B( 25-C , 28-C ) :   1.0931 B( 28-C , 29-H ) :   0.9742
B( 28-C , 30-H ) :   0.9712 B( 28-C , 31-H ) :   0.9745

Dispersion correction           -0.014107340
FINAL SINGLE POINT ENERGY     -1339.872048284778

DIPOLE MOMENT
-------------
                                X             Y             Z
Electronic contribution:    -22.11765     -10.90846     -13.71750
Nuclear contribution   :     22.69297      11.29212      13.78830
                        -----------------------------------------
Total Dipole Moment    :      0.57531       0.38366       0.07080
                        -----------------------------------------
Magnitude (a.u.)       :      0.69512
Magnitude (Debye)      :      1.76685

Rotational constants in cm-1:     0.018978     0.008031     0.006622
Rotational constants in MHz :   568.956802   240.772899   198.517068

                             ****ORCA TERMINATED NORMALLY****
TOTAL RUN TIME: 0 days 0 hours 0 minutes 20 seconds 353 msec
