                         Program Version 4.2.1 -  RELEASE  -
|  1> ! wB97X-D3 SP def2-SVP
|  2> %pal
|  3> nprocs 24
|  4> end
|  5>
|  6> * xyz 0 1
|  7> S 	 -88.4814 	 -31.2386 	 -61.1995
|  8> C 	 -88.2834 	 -29.5551 	 -61.7982
|  9> C 	 -88.545 	 -28.7482 	 -60.7398
| 10> C 	 -88.7693 	 -29.4002 	 -59.5388
| 11> C 	 -88.6875 	 -30.7688 	 -59.5595
| 12> H 	 -88.8766 	 -28.9151 	 -58.6028
| 13> C 	 -88.505 	 -27.2276 	 -60.7012
| 14> H 	 -87.6922 	 -26.9269 	 -61.3711
| 15> H 	 -88.165 	 -26.9282 	 -59.7173
| 16> C 	 -89.7644 	 -26.4559 	 -60.9944
| 17> H 	 -89.4722 	 -25.3957 	 -60.9769
| 18> H 	 -90.121 	 -26.5959 	 -62.0196
| 19> C 	 -90.8044 	 -26.6686 	 -59.8985
| 20> H 	 -90.6023 	 -26.4465 	 -58.859
| 21> H 	 -91.7938 	 -26.2341 	 -60.0864
| 22> H 	 -91.0636 	 -27.7792 	 -59.9525
| 23> S 	 -90.1856 	 -32.6833 	 -58.5215
| 24> C 	 -89.6895 	 -33.5143 	 -57.1102
| 25> C 	 -88.874 	 -32.6953 	 -56.3364
| 26> C 	 -88.3742 	 -31.5372 	 -57.1098
| 27> C 	 -88.849 	 -31.6345 	 -58.4105
| 28> H 	 -88.6849 	 -32.9626 	 -55.3527
| 29> C 	 -87.3577 	 -30.5697 	 -56.6138
| 30> H 	 -87.153 	 -29.7601 	 -57.2478
| 31> H 	 -86.3951 	 -31.0558 	 -56.3583
| 32> C 	 -87.5672 	 -29.8947 	 -55.2611
| 33> H 	 -86.5876 	 -29.5343 	 -54.8766
| 34> H 	 -87.8906 	 -30.4729 	 -54.5091
| 35> C 	 -88.7144 	 -28.8394 	 -55.3493
| 36> H 	 -88.8103 	 -28.2214 	 -54.4333
| 37> H 	 -89.654 	 -29.3069 	 -55.4022
| 38> H 	 -88.7019 	 -27.9758 	 -56.0392
| 39> H 	 -88.1194 	 -29.3282 	 -62.8237
| 40> H 	 -90.1832 	 -34.3905 	 -56.7278
| 41> *
| 42>
| 43>                          ****END OF INPUT****

CARTESIAN COORDINATES (ANGSTROEM)
---------------------------------
  S    -88.481400  -31.238600  -61.199500
  C    -88.283400  -29.555100  -61.798200
  C    -88.545000  -28.748200  -60.739800
  C    -88.769300  -29.400200  -59.538800
  C    -88.687500  -30.768800  -59.559500
  H    -88.876600  -28.915100  -58.602800
  C    -88.505000  -27.227600  -60.701200
  H    -87.692200  -26.926900  -61.371100
  H    -88.165000  -26.928200  -59.717300
  C    -89.764400  -26.455900  -60.994400
  H    -89.472200  -25.395700  -60.976900
  H    -90.121000  -26.595900  -62.019600
  C    -90.804400  -26.668600  -59.898500
  H    -90.602300  -26.446500  -58.859000
  H    -91.793800  -26.234100  -60.086400
  H    -91.063600  -27.779200  -59.952500
  S    -90.185600  -32.683300  -58.521500
  C    -89.689500  -33.514300  -57.110200
  C    -88.874000  -32.695300  -56.336400
  C    -88.374200  -31.537200  -57.109800
  C    -88.849000  -31.634500  -58.410500
  H    -88.684900  -32.962600  -55.352700
  C    -87.357700  -30.569700  -56.613800
  H    -87.153000  -29.760100  -57.247800
  H    -86.395100  -31.055800  -56.358300
  C    -87.567200  -29.894700  -55.261100
  H    -86.587600  -29.534300  -54.876600
  H    -87.890600  -30.472900  -54.509100
  C    -88.714400  -28.839400  -55.349300
  H    -88.810300  -28.221400  -54.433300
  H    -89.654000  -29.306900  -55.402200
  H    -88.701900  -27.975800  -56.039200
  H    -88.119400  -29.328200  -62.823700
  H    -90.183200  -34.390500  -56.727800

 Total Charge           Charge          ....    0
 Multiplicity           Mult            ....    1
 Number of Electrons    NEL             ....  134
 Basis Dimension        Dim             ....  322

ORBITAL ENERGIES
----------------

  NO   OCC          E(Eh)            E(eV)
   0   2.0000     -88.962003     -2420.7792
   1   2.0000     -88.960525     -2420.7390
   2   2.0000     -10.322655      -280.8937
   3   2.0000     -10.322038      -280.8769
   4   2.0000     -10.315025      -280.6861
   5   2.0000     -10.312925      -280.6289
   6   2.0000     -10.309915      -280.5470
   7   2.0000     -10.295593      -280.1573
   8   2.0000     -10.293277      -280.0943
   9   2.0000     -10.288002      -279.9508
  10   2.0000     -10.287357      -279.9332
  11   2.0000     -10.287349      -279.9330
  12   2.0000     -10.285999      -279.8963
  13   2.0000     -10.279718      -279.7254
  14   2.0000     -10.279065      -279.7076
  15   2.0000     -10.276373      -279.6343
  16   2.0000      -8.077369      -219.7964
  17   2.0000      -8.076697      -219.7781
  18   2.0000      -6.035733      -164.2406
  19   2.0000      -6.035215      -164.2265
  20   2.0000      -6.031872      -164.1356
  21   2.0000      -6.031105      -164.1147
  22   2.0000      -6.027841      -164.0259
  23   2.0000      -6.027521      -164.0172
  24   2.0000      -1.015746       -27.6399
  25   2.0000      -0.991455       -26.9789
  26   2.0000      -0.916662       -24.9436
  27   2.0000      -0.914967       -24.8975
  28   2.0000      -0.873461       -23.7681
  29   2.0000      -0.849846       -23.1255
  30   2.0000      -0.842097       -22.9146
  31   2.0000      -0.815838       -22.2001
  32   2.0000      -0.786545       -21.4030
  33   2.0000      -0.778650       -21.1881
  34   2.0000      -0.715821       -19.4785
  35   2.0000      -0.705666       -19.2021
  36   2.0000      -0.697963       -18.9925
  37   2.0000      -0.662077       -18.0160
  38   2.0000      -0.644570       -17.5396
  39   2.0000      -0.621681       -16.9168
  40   2.0000      -0.606344       -16.4995
  41   2.0000      -0.575537       -15.6612
  42   2.0000      -0.559241       -15.2177
  43   2.0000      -0.551127       -14.9969
  44   2.0000      -0.544818       -14.8252
  45   2.0000      -0.534861       -14.5543
  46   2.0000      -0.520325       -14.1588
  47   2.0000      -0.516773       -14.0621
  48   2.0000      -0.505278       -13.7493
  49   2.0000      -0.496122       -13.5002
  50   2.0000      -0.494012       -13.4428
  51   2.0000      -0.485810       -13.2196
  52   2.0000      -0.469881       -12.7861
  53   2.0000      -0.463617       -12.6157
  54   2.0000      -0.462335       -12.5808
  55   2.0000      -0.448037       -12.1917
  56   2.0000      -0.440638       -11.9904
  57   2.0000      -0.435770       -11.8579
  58   2.0000      -0.435460       -11.8495
  59   2.0000      -0.428103       -11.6493
  60   2.0000      -0.419491       -11.4149
  61   2.0000      -0.414555       -11.2806
  62   2.0000      -0.402473       -10.9518
  63   2.0000      -0.342434        -9.3181
  64   2.0000      -0.331773        -9.0280
  65   2.0000      -0.320957        -8.7337
  66   2.0000      -0.296333        -8.0636
  67   0.0000       0.026471         0.7203
  68   0.0000       0.072150         1.9633
  69   0.0000       0.097457         2.6519
  70   0.0000       0.118665         3.2290
  71   0.0000       0.129441         3.5223

MULLIKEN ATOMIC CHARGES
-----------------------
   0 S :    0.098185
   1 C :   -0.134903
   2 C :   -0.046665
   3 C :    0.040105
   4 C :   -0.152390
   5 H :   -0.020928
   6 C :    0.062801
   7 H :    0.021711
   8 H :    0.010253
   9 C :   -0.025203
  10 H :    0.027700
  11 H :    0.029829
  12 C :   -0.088686
  13 H :    0.033541
  14 H :    0.030384
  15 H :    0.043187
  16 S :    0.114860
  17 C :   -0.071543
  18 C :   -0.029020
  19 C :    0.006092
  20 C :   -0.156322
  21 H :   -0.005468
  22 C :    0.079469
  23 H :    0.012124
  24 H :    0.038192
  25 C :   -0.036996
  26 H :    0.030557
  27 H :    0.000005
  28 C :   -0.086086
  29 H :    0.019315
  30 H :    0.032951
  31 H :    0.030713
  32 H :    0.041090
  33 H :    0.051148
Sum of atomic charges:    0.0000000

LOEWDIN ATOMIC CHARGES
----------------------
   0 S :    0.402751
   1 C :   -0.172631
   2 C :   -0.069617
   3 C :   -0.066257
   4 C :   -0.208057
   5 H :    0.021301
   6 C :   -0.028366
   7 H :    0.030781
   8 H :    0.027089
   9 C :   -0.040165
  10 H :    0.026161
  11 H :    0.026746
  12 C :   -0.079212
  13 H :    0.023245
  14 H :    0.026482
  15 H :    0.036052
  16 S :    0.436295
  17 C :   -0.190692
  18 C :   -0.057115
  19 C :   -0.049696
  20 C :   -0.204230
  21 H :    0.017332
  22 C :   -0.032319
  23 H :    0.023774
  24 H :    0.041709
  25 C :   -0.025123
  26 H :    0.030559
  27 H :    0.007675
  28 C :   -0.078733
  29 H :    0.028926
  30 H :    0.021543
  31 H :    0.023029
  32 H :    0.025463
  33 H :    0.025300

  Mayer bond orders larger than 0.100000
B(  0-S ,  1-C ) :   1.1305 B(  0-S ,  4-C ) :   1.1654 B(  1-C ,  2-C ) :   1.5780
B(  1-C ,  4-C ) :   0.1046 B(  1-C , 32-H ) :   0.9869 B(  2-C ,  3-C ) :   1.2692
B(  2-C ,  6-C ) :   1.0042 B(  3-C ,  4-C ) :   1.5362 B(  3-C ,  5-H ) :   1.0021
B(  4-C , 20-C ) :   1.0339 B(  6-C ,  7-H ) :   0.9394 B(  6-C ,  8-H ) :   0.9422
B(  6-C ,  9-C ) :   1.0839 B(  9-C , 10-H ) :   0.9511 B(  9-C , 11-H ) :   0.9547
B(  9-C , 12-C ) :   1.0711 B( 12-C , 13-H ) :   0.9760 B( 12-C , 14-H ) :   0.9723
B( 12-C , 15-H ) :   0.9713 B( 16-S , 17-C ) :   1.1510 B( 16-S , 20-C ) :   1.1771
B( 17-C , 18-C ) :   1.6163 B( 17-C , 33-H ) :   0.9727 B( 18-C , 19-C ) :   1.1857
B( 18-C , 21-H ) :   1.0055 B( 19-C , 20-C ) :   1.5773 B( 19-C , 22-C ) :   1.0704
B( 22-C , 23-H ) :   0.9375 B( 22-C , 24-H ) :   0.9302 B( 22-C , 25-C ) :   1.0672
B( 25-C , 26-H ) :   0.9604 B( 25-C , 27-H ) :   0.9515 B( 25-C , 28-C ) :   1.0597
B( 28-C , 29-H ) :   0.9705 B( 28-C , 30-H ) :   0.9777 B( 28-C , 31-H ) :   0.9743

Dispersion correction           -0.015035831
FINAL SINGLE POINT ENERGY     -1339.843317554981

DIPOLE MOMENT
-------------
                                X             Y             Z
Electronic contribution:     -0.56290     -24.95827     -12.43763
Nuclear contribution   :      0.63113      25.50254      12.93496
                        -----------------------------------------
Total Dipole Moment    :      0.06824       0.54427       0.49733
                        -----------------------------------------
Magnitude (a.u.)       :      0.74042
Magnitude (Debye)      :      1.88201

Rotational constants in cm-1:     0.017835     0.009951     0.007596
Rotational constants in MHz :   534.678552   298.317379   227.709778

                             ****ORCA TERMINATED NORMALLY****
TOTAL RUN TIME: 0 days 0 hours 0 minutes 22 seconds 683 msec
