                         Program Version 4.2.1 -  RELEASE  -
|  1> ! wB97X-D3 SP def2-SVP
|  2> %pal
|  3> nprocs 24
|  4> end
|  5>
|  6> * xyz 0 1
|  7> S 	 -48.8087 	 -48.2386 	 -81.0185
|  8> C 	 -47.6795 	 -49.5072 	 -81.4908
|  9> C 	 -48.1033 	 -50.7274 	 -80.9223
| 10> C 	 -49.3762 	 -50.6188 	 -80.4054
| 11> C 	 -49.8772 	 -49.2948 	 -80.2519
| 12> H 	 -49.9764 	 -51.4692 	 -80.2329
| 13> C 	 -47.3486 	 -51.9754 	 -80.9592
| 14> H 	 -46.2931 	 -51.8097 	 -81.2138
| 15> H 	 -47.757 	 -52.6556 	 -81.6956
| 16> C 	 -47.3244 	 -52.7256 	 -79.6447
| 17> H 	 -46.9814 	 -52.0598 	 -78.7718
| 18> H 	 -48.3077 	 -53.2183 	 -79.6037
| 19> C 	 -46.3681 	 -53.9876 	 -79.8012
| 20> H 	 -46.0393 	 -54.4147 	 -78.8901
| 21> H 	 -46.8658 	 -54.7766 	 -80.3951
| 22> H 	 -45.4389 	 -53.7747 	 -80.3818
| 23> S 	 -50.9422 	 -47.7797 	 -78.334
| 24> C 	 -52.5817 	 -47.9362 	 -77.7735
| 25> C 	 -53.1936 	 -48.86 	 -78.5931
| 26> C 	 -52.3889 	 -49.3442 	 -79.6825
| 27> C 	 -51.1029 	 -48.8504 	 -79.7032
| 28> H 	 -54.228 	 -49.104 	 -78.4487
| 29> C 	 -52.9187 	 -50.3496 	 -80.7402
| 30> H 	 -53.0423 	 -51.3823 	 -80.3673
| 31> H 	 -52.1114 	 -50.469 	 -81.473
| 32> C 	 -54.2319 	 -50.0634 	 -81.4615
| 33> H 	 -54.2585 	 -49.0279 	 -81.8184
| 34> H 	 -55.127 	 -49.9752 	 -80.732
| 35> C 	 -54.6656 	 -50.9851 	 -82.6484
| 36> H 	 -54.608 	 -52.0843 	 -82.3971
| 37> H 	 -53.9895 	 -50.8163 	 -83.4688
| 38> H 	 -55.6499 	 -50.7389 	 -83.0597
| 39> H 	 -46.6706 	 -49.4265 	 -81.8549
| 40> H 	 -52.9732 	 -47.4868 	 -76.9026
| 41> *
| 42>
| 43>                          ****END OF INPUT****

CARTESIAN COORDINATES (ANGSTROEM)
---------------------------------
  S    -48.808700  -48.238600  -81.018500
  C    -47.679500  -49.507200  -81.490800
  C    -48.103300  -50.727400  -80.922300
  C    -49.376200  -50.618800  -80.405400
  C    -49.877200  -49.294800  -80.251900
  H    -49.976400  -51.469200  -80.232900
  C    -47.348600  -51.975400  -80.959200
  H    -46.293100  -51.809700  -81.213800
  H    -47.757000  -52.655600  -81.695600
  C    -47.324400  -52.725600  -79.644700
  H    -46.981400  -52.059800  -78.771800
  H    -48.307700  -53.218300  -79.603700
  C    -46.368100  -53.987600  -79.801200
  H    -46.039300  -54.414700  -78.890100
  H    -46.865800  -54.776600  -80.395100
  H    -45.438900  -53.774700  -80.381800
  S    -50.942200  -47.779700  -78.334000
  C    -52.581700  -47.936200  -77.773500
  C    -53.193600  -48.860000  -78.593100
  C    -52.388900  -49.344200  -79.682500
  C    -51.102900  -48.850400  -79.703200
  H    -54.228000  -49.104000  -78.448700
  C    -52.918700  -50.349600  -80.740200
  H    -53.042300  -51.382300  -80.367300
  H    -52.111400  -50.469000  -81.473000
  C    -54.231900  -50.063400  -81.461500
  H    -54.258500  -49.027900  -81.818400
  H    -55.127000  -49.975200  -80.732000
  C    -54.665600  -50.985100  -82.648400
  H    -54.608000  -52.084300  -82.397100
  H    -53.989500  -50.816300  -83.468800
  H    -55.649900  -50.738900  -83.059700
  H    -46.670600  -49.426500  -81.854900
  H    -52.973200  -47.486800  -76.902600

 Total Charge           Charge          ....    0
 Multiplicity           Mult            ....    1
 Number of Electrons    NEL             ....  134
 Basis Dimension        Dim             ....  322

ORBITAL ENERGIES
----------------

  NO   OCC          E(Eh)            E(eV)
   0   2.0000     -88.969887     -2420.9937
   1   2.0000     -88.960775     -2420.7458
   2   2.0000     -10.328654      -281.0570
   3   2.0000     -10.325454      -280.9699
   4   2.0000     -10.318915      -280.7919
   5   2.0000     -10.313604      -280.6474
   6   2.0000     -10.309270      -280.5295
   7   2.0000     -10.297495      -280.2091
   8   2.0000     -10.296385      -280.1789
   9   2.0000     -10.295277      -280.1487
  10   2.0000     -10.294913      -280.1388
  11   2.0000     -10.293974      -280.1133
  12   2.0000     -10.288904      -279.9753
  13   2.0000     -10.287538      -279.9381
  14   2.0000     -10.285140      -279.8729
  15   2.0000     -10.282074      -279.7895
  16   2.0000      -8.085021      -220.0046
  17   2.0000      -8.076314      -219.7677
  18   2.0000      -6.043365      -164.4483
  19   2.0000      -6.039184      -164.3346
  20   2.0000      -6.036195      -164.2532
  21   2.0000      -6.034829      -164.2160
  22   2.0000      -6.030471      -164.0974
  23   2.0000      -6.027196      -164.0083
  24   2.0000      -1.016058       -27.6483
  25   2.0000      -0.990197       -26.9446
  26   2.0000      -0.923174       -25.1208
  27   2.0000      -0.900881       -24.5142
  28   2.0000      -0.876005       -23.8373
  29   2.0000      -0.850765       -23.1505
  30   2.0000      -0.842095       -22.9146
  31   2.0000      -0.813603       -22.1393
  32   2.0000      -0.783405       -21.3175
  33   2.0000      -0.775500       -21.1024
  34   2.0000      -0.715608       -19.4727
  35   2.0000      -0.698651       -19.0113
  36   2.0000      -0.691532       -18.8175
  37   2.0000      -0.660947       -17.9853
  38   2.0000      -0.640425       -17.4269
  39   2.0000      -0.627299       -17.0697
  40   2.0000      -0.600977       -16.3534
  41   2.0000      -0.582351       -15.8466
  42   2.0000      -0.570109       -15.5135
  43   2.0000      -0.555047       -15.1036
  44   2.0000      -0.528271       -14.3750
  45   2.0000      -0.522888       -14.2285
  46   2.0000      -0.522208       -14.2100
  47   2.0000      -0.513783       -13.9807
  48   2.0000      -0.509091       -13.8531
  49   2.0000      -0.503042       -13.6885
  50   2.0000      -0.494428       -13.4541
  51   2.0000      -0.476892       -12.9769
  52   2.0000      -0.468983       -12.7617
  53   2.0000      -0.466617       -12.6973
  54   2.0000      -0.457338       -12.4448
  55   2.0000      -0.451872       -12.2961
  56   2.0000      -0.447880       -12.1874
  57   2.0000      -0.437924       -11.9165
  58   2.0000      -0.432380       -11.7657
  59   2.0000      -0.422649       -11.5009
  60   2.0000      -0.418663       -11.3924
  61   2.0000      -0.411307       -11.1922
  62   2.0000      -0.403874       -10.9900
  63   2.0000      -0.348087        -9.4719
  64   2.0000      -0.332458        -9.0466
  65   2.0000      -0.326675        -8.8893
  66   2.0000      -0.293511        -7.9868
  67   0.0000       0.025938         0.7058
  68   0.0000       0.066419         1.8074
  69   0.0000       0.114809         3.1241
  70   0.0000       0.123386         3.3575
  71   0.0000       0.129579         3.5260

MULLIKEN ATOMIC CHARGES
-----------------------
   0 S :    0.131491
   1 C :   -0.102271
   2 C :   -0.091484
   3 C :    0.043680
   4 C :   -0.160287
   5 H :   -0.006149
   6 C :    0.062187
   7 H :    0.011033
   8 H :    0.034025
   9 C :   -0.116897
  10 H :    0.064884
  11 H :    0.041511
  12 C :   -0.055605
  13 H :    0.031195
  14 H :    0.028737
  15 H :    0.024890
  16 S :    0.087274
  17 C :   -0.068430
  18 C :   -0.030944
  19 C :   -0.038999
  20 C :   -0.119212
  21 H :    0.015491
  22 C :    0.071256
  23 H :    0.031596
  24 H :    0.024078
  25 C :   -0.118713
  26 H :    0.027312
  27 H :    0.029303
  28 C :   -0.054913
  29 H :    0.039292
  30 H :    0.030148
  31 H :    0.039403
  32 H :    0.043504
  33 H :    0.051615
Sum of atomic charges:    0.0000000

LOEWDIN ATOMIC CHARGES
----------------------
   0 S :    0.450776
   1 C :   -0.205163
   2 C :   -0.064483
   3 C :   -0.056515
   4 C :   -0.222252
   5 H :    0.021446
   6 C :   -0.038585
   7 H :    0.027815
   8 H :    0.034763
   9 C :   -0.040182
  10 H :    0.039292
  11 H :    0.028846
  12 C :   -0.070304
  13 H :    0.019040
  14 H :    0.026595
  15 H :    0.023994
  16 S :    0.415554
  17 C :   -0.175315
  18 C :   -0.070240
  19 C :   -0.053211
  20 C :   -0.205247
  21 H :    0.027723
  22 C :   -0.038262
  23 H :    0.031921
  24 H :    0.030268
  25 C :   -0.054350
  26 H :    0.023512
  27 H :    0.025139
  28 C :   -0.067870
  29 H :    0.029239
  30 H :    0.022538
  31 H :    0.030412
  32 H :    0.026593
  33 H :    0.026512

  Mayer bond orders larger than 0.100000
B(  0-S ,  1-C ) :   1.1573 B(  0-S ,  4-C ) :   1.1975 B(  1-C ,  2-C ) :   1.5442
B(  1-C ,  4-C ) :   0.1201 B(  1-C , 32-H ) :   0.9655 B(  2-C ,  3-C ) :   1.3137
B(  2-C ,  6-C ) :   1.0430 B(  3-C ,  4-C ) :   1.4858 B(  3-C ,  5-H ) :   1.0008
B(  4-C , 20-C ) :   1.0222 B(  6-C ,  7-H ) :   0.9394 B(  6-C ,  8-H ) :   0.9305
B(  6-C ,  9-C ) :   1.0650 B(  9-C , 10-H ) :   0.9607 B(  9-C , 11-H ) :   0.9504
B(  9-C , 12-C ) :   1.0715 B( 12-C , 13-H ) :   0.9775 B( 12-C , 14-H ) :   0.9757
B( 12-C , 15-H ) :   0.9759 B( 16-S , 17-C ) :   1.1659 B( 16-S , 20-C ) :   1.1421
B( 17-C , 18-C ) :   1.5752 B( 17-C , 20-C ) :   0.1013 B( 17-C , 33-H ) :   0.9783
B( 18-C , 19-C ) :   1.2520 B( 18-C , 21-H ) :   0.9967 B( 19-C , 20-C ) :   1.5929
B( 19-C , 22-C ) :   1.0354 B( 22-C , 23-H ) :   0.9328 B( 22-C , 24-H ) :   0.9394
B( 22-C , 25-C ) :   1.0540 B( 25-C , 26-H ) :   0.9548 B( 25-C , 27-H ) :   0.9536
B( 25-C , 28-C ) :   1.0786 B( 28-C , 29-H ) :   0.9760 B( 28-C , 30-H ) :   0.9760
B( 28-C , 31-H ) :   0.9741

Dispersion correction           -0.013388561
FINAL SINGLE POINT ENERGY     -1339.863371899079

DIPOLE MOMENT
-------------
                                X             Y             Z
Electronic contribution:      3.59529      25.29503       8.28168
Nuclear contribution   :     -3.74505     -25.96685      -8.31261
                        -----------------------------------------
Total Dipole Moment    :     -0.14975      -0.67183      -0.03093
                        -----------------------------------------
Magnitude (a.u.)       :      0.68901
Magnitude (Debye)      :      1.75132

Rotational constants in cm-1:     0.016670     0.007949     0.006722
Rotational constants in MHz :   499.762816   238.305955   201.525566

                             ****ORCA TERMINATED NORMALLY****
TOTAL RUN TIME: 0 days 0 hours 0 minutes 20 seconds 876 msec
