                         Program Version 4.2.1 -  RELEASE  -
|  1> ! wB97X-D3 SP def2-SVP
|  2> %pal
|  3> nprocs 24
|  4> end
|  5>
|  6> * xyz 0 1
|  7> S 	 -125.13 	 61.5257 	 -51.6775
|  8> C 	 -123.885 	 62.5887 	 -51.2305
|  9> C 	 -124.405 	 63.8083 	 -50.7466
| 10> C 	 -125.828 	 63.7929 	 -50.5256
| 11> C 	 -126.374 	 62.5721 	 -50.9211
| 12> H 	 -126.491 	 64.6567 	 -50.3146
| 13> C 	 -123.638 	 65.1062 	 -50.5899
| 14> H 	 -122.527 	 64.9932 	 -50.3323
| 15> H 	 -124.037 	 65.601 	 -49.7295
| 16> C 	 -123.754 	 66.1643 	 -51.7175
| 17> H 	 -124.752 	 66.569 	 -51.7224
| 18> H 	 -123.228 	 67.0995 	 -51.4317
| 19> C 	 -123.363 	 65.7178 	 -53.029
| 20> H 	 -123.947 	 64.8412 	 -53.3632
| 21> H 	 -123.426 	 66.4558 	 -53.8773
| 22> H 	 -122.335 	 65.4574 	 -53.0639
| 23> S 	 -128.698 	 63.3129 	 -52.0483
| 24> C 	 -130.068 	 62.3518 	 -52.0456
| 25> C 	 -129.784 	 61.2249 	 -51.3029
| 26> C 	 -128.511 	 61.2028 	 -50.6942
| 27> C 	 -127.754 	 62.2645 	 -51.0752
| 28> H 	 -130.553 	 60.4375 	 -51.2644
| 29> C 	 -128.102 	 60.0562 	 -49.856
| 30> H 	 -127.036 	 60.2895 	 -49.5103
| 31> H 	 -127.926 	 59.0907 	 -50.4127
| 32> C 	 -129.098 	 59.7098 	 -48.7587
| 33> H 	 -130.014 	 59.5833 	 -49.2461
| 34> H 	 -129.25 	 60.6666 	 -48.2417
| 35> C 	 -128.705 	 58.6231 	 -47.8207
| 36> H 	 -129.519 	 58.4725 	 -47.1609
| 37> H 	 -127.898 	 58.9002 	 -47.1718
| 38> H 	 -128.523 	 57.6766 	 -48.2551
| 39> H 	 -122.861 	 62.4437 	 -51.655
| 40> H 	 -130.9 	 62.5901 	 -52.6897
| 41> *
| 42>
| 43>                          ****END OF INPUT****

CARTESIAN COORDINATES (ANGSTROEM)
---------------------------------
  S    -125.130000   61.525700  -51.677500
  C    -123.885000   62.588700  -51.230500
  C    -124.405000   63.808300  -50.746600
  C    -125.828000   63.792900  -50.525600
  C    -126.374000   62.572100  -50.921100
  H    -126.491000   64.656700  -50.314600
  C    -123.638000   65.106200  -50.589900
  H    -122.527000   64.993200  -50.332300
  H    -124.037000   65.601000  -49.729500
  C    -123.754000   66.164300  -51.717500
  H    -124.752000   66.569000  -51.722400
  H    -123.228000   67.099500  -51.431700
  C    -123.363000   65.717800  -53.029000
  H    -123.947000   64.841200  -53.363200
  H    -123.426000   66.455800  -53.877300
  H    -122.335000   65.457400  -53.063900
  S    -128.698000   63.312900  -52.048300
  C    -130.068000   62.351800  -52.045600
  C    -129.784000   61.224900  -51.302900
  C    -128.511000   61.202800  -50.694200
  C    -127.754000   62.264500  -51.075200
  H    -130.553000   60.437500  -51.264400
  C    -128.102000   60.056200  -49.856000
  H    -127.036000   60.289500  -49.510300
  H    -127.926000   59.090700  -50.412700
  C    -129.098000   59.709800  -48.758700
  H    -130.014000   59.583300  -49.246100
  H    -129.250000   60.666600  -48.241700
  C    -128.705000   58.623100  -47.820700
  H    -129.519000   58.472500  -47.160900
  H    -127.898000   58.900200  -47.171800
  H    -128.523000   57.676600  -48.255100
  H    -122.861000   62.443700  -51.655000
  H    -130.900000   62.590100  -52.689700

 Total Charge           Charge          ....    0
 Multiplicity           Mult            ....    1
 Number of Electrons    NEL             ....  134
 Basis Dimension        Dim             ....  322

ORBITAL ENERGIES
----------------

  NO   OCC          E(Eh)            E(eV)
   0   2.0000     -88.968371     -2420.9525
   1   2.0000     -88.959195     -2420.7028
   2   2.0000     -10.330415      -281.1049
   3   2.0000     -10.317923      -280.7650
   4   2.0000     -10.316050      -280.7140
   5   2.0000     -10.312207      -280.6094
   6   2.0000     -10.307132      -280.4713
   7   2.0000     -10.301575      -280.3201
   8   2.0000     -10.294622      -280.1309
   9   2.0000     -10.293349      -280.0963
  10   2.0000     -10.290883      -280.0292
  11   2.0000     -10.288503      -279.9644
  12   2.0000     -10.280730      -279.7529
  13   2.0000     -10.275212      -279.6027
  14   2.0000     -10.268746      -279.4268
  15   2.0000     -10.265943      -279.3505
  16   2.0000      -8.083196      -219.9549
  17   2.0000      -8.076572      -219.7747
  18   2.0000      -6.041621      -164.4009
  19   2.0000      -6.037697      -164.2941
  20   2.0000      -6.034772      -164.2145
  21   2.0000      -6.034019      -164.1940
  22   2.0000      -6.030497      -164.0982
  23   2.0000      -6.027687      -164.0217
  24   2.0000      -1.020184       -27.7606
  25   2.0000      -0.989600       -26.9284
  26   2.0000      -0.916706       -24.9448
  27   2.0000      -0.913916       -24.8689
  28   2.0000      -0.878223       -23.8977
  29   2.0000      -0.859291       -23.3825
  30   2.0000      -0.852150       -23.1882
  31   2.0000      -0.811021       -22.0690
  32   2.0000      -0.785224       -21.3670
  33   2.0000      -0.772821       -21.0295
  34   2.0000      -0.707142       -19.2423
  35   2.0000      -0.704335       -19.1659
  36   2.0000      -0.690570       -18.7914
  37   2.0000      -0.661116       -17.9899
  38   2.0000      -0.640163       -17.4197
  39   2.0000      -0.617112       -16.7925
  40   2.0000      -0.603768       -16.4294
  41   2.0000      -0.566800       -15.4234
  42   2.0000      -0.564228       -15.3534
  43   2.0000      -0.551279       -15.0011
  44   2.0000      -0.544595       -14.8192
  45   2.0000      -0.528911       -14.3924
  46   2.0000      -0.522067       -14.2062
  47   2.0000      -0.512856       -13.9555
  48   2.0000      -0.510330       -13.8868
  49   2.0000      -0.498132       -13.5549
  50   2.0000      -0.493996       -13.4423
  51   2.0000      -0.484332       -13.1793
  52   2.0000      -0.474011       -12.8985
  53   2.0000      -0.465247       -12.6600
  54   2.0000      -0.460731       -12.5371
  55   2.0000      -0.451194       -12.2776
  56   2.0000      -0.446508       -12.1501
  57   2.0000      -0.432534       -11.7699
  58   2.0000      -0.428087       -11.6488
  59   2.0000      -0.420049       -11.4301
  60   2.0000      -0.417991       -11.3741
  61   2.0000      -0.409441       -11.1415
  62   2.0000      -0.406343       -11.0572
  63   2.0000      -0.346232        -9.4215
  64   2.0000      -0.331035        -9.0079
  65   2.0000      -0.326576        -8.8866
  66   2.0000      -0.295012        -8.0277
  67   0.0000       0.032265         0.8780
  68   0.0000       0.064688         1.7602
  69   0.0000       0.102355         2.7852
  70   0.0000       0.116575         3.1722
  71   0.0000       0.135365         3.6835

MULLIKEN ATOMIC CHARGES
-----------------------
   0 S :    0.122782
   1 C :   -0.120146
   2 C :   -0.100457
   3 C :    0.012321
   4 C :   -0.163821
   5 H :    0.041752
   6 C :    0.038415
   7 H :    0.037360
   8 H :    0.015972
   9 C :   -0.048959
  10 H :    0.009983
  11 H :    0.022527
  12 C :   -0.042387
  13 H :    0.042682
  14 H :    0.031551
  15 H :    0.009550
  16 S :    0.111218
  17 C :   -0.095516
  18 C :   -0.060781
  19 C :   -0.005227
  20 C :   -0.159066
  21 H :    0.028597
  22 C :    0.035271
  23 H :    0.024565
  24 H :    0.034044
  25 C :   -0.087549
  26 H :    0.007497
  27 H :    0.023772
  28 C :    0.035172
  29 H :    0.014849
  30 H :    0.027279
  31 H :    0.018832
  32 H :    0.074694
  33 H :    0.063223
Sum of atomic charges:   -0.0000000

LOEWDIN ATOMIC CHARGES
----------------------
   0 S :    0.422438
   1 C :   -0.222458
   2 C :   -0.064720
   3 C :   -0.060921
   4 C :   -0.183282
   5 H :    0.041793
   6 C :   -0.036614
   7 H :    0.036421
   8 H :    0.027704
   9 C :   -0.049257
  10 H :    0.019341
  11 H :    0.029214
  12 C :   -0.073029
  13 H :    0.030501
  14 H :    0.032223
  15 H :    0.017485
  16 S :    0.453694
  17 C :   -0.206446
  18 C :   -0.076750
  19 C :   -0.064439
  20 C :   -0.219396
  21 H :    0.031480
  22 C :   -0.042718
  23 H :    0.029974
  24 H :    0.033419
  25 C :   -0.039918
  26 H :    0.013808
  27 H :    0.028938
  28 C :   -0.054636
  29 H :    0.026554
  30 H :    0.028335
  31 H :    0.020787
  32 H :    0.038973
  33 H :    0.031504

  Mayer bond orders larger than 0.100000
B(  0-S ,  1-C ) :   1.1598 B(  0-S ,  4-C ) :   1.1557 B(  1-C ,  2-C ) :   1.5777
B(  1-C , 32-H ) :   0.9610 B(  2-C ,  3-C ) :   1.2427 B(  2-C ,  6-C ) :   1.0338
B(  3-C ,  4-C ) :   1.5507 B(  3-C ,  5-H ) :   0.9900 B(  4-C , 20-C ) :   1.0599
B(  6-C ,  7-H ) :   0.9481 B(  6-C ,  8-H ) :   0.9332 B(  6-C ,  9-C ) :   1.0770
B(  9-C , 10-H ) :   0.9472 B(  9-C , 11-H ) :   0.9465 B(  9-C , 12-C ) :   1.0949
B( 12-C , 13-H ) :   0.9689 B( 12-C , 14-H ) :   0.9674 B( 12-C , 15-H ) :   0.9695
B( 16-S , 17-C ) :   1.1948 B( 16-S , 20-C ) :   1.1571 B( 17-C , 18-C ) :   1.5561
B( 17-C , 33-H ) :   0.9736 B( 18-C , 19-C ) :   1.2553 B( 18-C , 21-H ) :   0.9888
B( 19-C , 20-C ) :   1.5548 B( 19-C , 22-C ) :   1.0668 B( 22-C , 23-H ) :   0.9275
B( 22-C , 24-H ) :   0.9306 B( 22-C , 25-C ) :   1.0471 B( 25-C , 26-H ) :   0.9527
B( 25-C , 27-H ) :   0.9514 B( 25-C , 28-C ) :   1.1002 B( 28-C , 29-H ) :   0.9651
B( 28-C , 30-H ) :   0.9690 B( 28-C , 31-H ) :   0.9688

Dispersion correction           -0.014280925
FINAL SINGLE POINT ENERGY     -1339.873448760148

DIPOLE MOMENT
-------------
                                X             Y             Z
Electronic contribution:     -5.27508      -0.82999      -8.29711
Nuclear contribution   :      5.18625       0.92206       8.24127
                        -----------------------------------------
Total Dipole Moment    :     -0.08882       0.09207      -0.05584
                        -----------------------------------------
Magnitude (a.u.)       :      0.13959
Magnitude (Debye)      :      0.35481

Rotational constants in cm-1:     0.023822     0.007677     0.006495
Rotational constants in MHz :   714.174870   230.160170   194.722347

                             ****ORCA TERMINATED NORMALLY****
TOTAL RUN TIME: 0 days 0 hours 0 minutes 21 seconds 136 msec
