                         Program Version 4.2.1 -  RELEASE  -
|  1> ! wB97X-D3 SP def2-SVP
|  2> %pal
|  3> nprocs 24
|  4> end
|  5>
|  6> * xyz 0 1
|  7> S 	 -108.51 	 54.378 	 -71.5679
|  8> C 	 -109.412 	 53.4623 	 -72.7435
|  9> C 	 -109.823 	 54.2339 	 -73.8345
| 10> C 	 -109.564 	 55.6156 	 -73.6431
| 11> C 	 -109.014 	 55.8549 	 -72.4224
| 12> H 	 -109.675 	 56.5055 	 -74.3418
| 13> C 	 -110.449 	 53.6878 	 -75.0992
| 14> H 	 -111.558 	 53.5972 	 -75.0024
| 15> H 	 -110.114 	 52.5952 	 -75.2235
| 16> C 	 -110.132 	 54.4842 	 -76.3121
| 17> H 	 -110.546 	 55.4149 	 -76.1686
| 18> H 	 -109.032 	 54.4815 	 -76.5181
| 19> C 	 -110.737 	 53.8729 	 -77.5584
| 20> H 	 -110.671 	 52.749 	 -77.4638
| 21> H 	 -111.821 	 54.0975 	 -77.6189
| 22> H 	 -110.245 	 54.2056 	 -78.492
| 23> S 	 -106.965 	 57.5316 	 -71.9048
| 24> C 	 -107.284 	 59.2105 	 -71.4702
| 25> C 	 -108.668 	 59.4802 	 -71.5852
| 26> C 	 -109.493 	 58.3603 	 -71.8152
| 27> C 	 -108.707 	 57.2107 	 -72.0391
| 28> H 	 -108.925 	 60.5031 	 -71.5057
| 29> C 	 -110.975 	 58.4231 	 -71.9877
| 30> H 	 -111.103 	 58.4815 	 -73.0042
| 31> H 	 -111.189 	 59.4393 	 -71.5921
| 32> C 	 -111.834 	 57.3768 	 -71.3678
| 33> H 	 -111.586 	 57.3981 	 -70.2454
| 34> H 	 -111.518 	 56.3162 	 -71.6421
| 35> C 	 -113.297 	 57.5521 	 -71.6068
| 36> H 	 -113.625 	 57.4681 	 -72.6721
| 37> H 	 -113.63 	 58.503 	 -71.2407
| 38> H 	 -113.834 	 56.7063 	 -71.1464
| 39> H 	 -109.572 	 52.3666 	 -72.674
| 40> H 	 -106.543 	 60.0005 	 -71.2258
| 41> *
| 42>
| 43>                          ****END OF INPUT****

CARTESIAN COORDINATES (ANGSTROEM)
---------------------------------
  S    -108.510000   54.378000  -71.567900
  C    -109.412000   53.462300  -72.743500
  C    -109.823000   54.233900  -73.834500
  C    -109.564000   55.615600  -73.643100
  C    -109.014000   55.854900  -72.422400
  H    -109.675000   56.505500  -74.341800
  C    -110.449000   53.687800  -75.099200
  H    -111.558000   53.597200  -75.002400
  H    -110.114000   52.595200  -75.223500
  C    -110.132000   54.484200  -76.312100
  H    -110.546000   55.414900  -76.168600
  H    -109.032000   54.481500  -76.518100
  C    -110.737000   53.872900  -77.558400
  H    -110.671000   52.749000  -77.463800
  H    -111.821000   54.097500  -77.618900
  H    -110.245000   54.205600  -78.492000
  S    -106.965000   57.531600  -71.904800
  C    -107.284000   59.210500  -71.470200
  C    -108.668000   59.480200  -71.585200
  C    -109.493000   58.360300  -71.815200
  C    -108.707000   57.210700  -72.039100
  H    -108.925000   60.503100  -71.505700
  C    -110.975000   58.423100  -71.987700
  H    -111.103000   58.481500  -73.004200
  H    -111.189000   59.439300  -71.592100
  C    -111.834000   57.376800  -71.367800
  H    -111.586000   57.398100  -70.245400
  H    -111.518000   56.316200  -71.642100
  C    -113.297000   57.552100  -71.606800
  H    -113.625000   57.468100  -72.672100
  H    -113.630000   58.503000  -71.240700
  H    -113.834000   56.706300  -71.146400
  H    -109.572000   52.366600  -72.674000
  H    -106.543000   60.000500  -71.225800

 Total Charge           Charge          ....    0
 Multiplicity           Mult            ....    1
 Number of Electrons    NEL             ....  134
 Basis Dimension        Dim             ....  322

ORBITAL ENERGIES
----------------

  NO   OCC          E(Eh)            E(eV)
   0   2.0000     -88.970418     -2421.0082
   1   2.0000     -88.963856     -2420.8296
   2   2.0000     -10.324039      -280.9314
   3   2.0000     -10.322965      -280.9022
   4   2.0000     -10.320328      -280.8304
   5   2.0000     -10.317512      -280.7538
   6   2.0000     -10.302975      -280.3582
   7   2.0000     -10.302439      -280.3436
   8   2.0000     -10.296679      -280.1869
   9   2.0000     -10.295602      -280.1576
  10   2.0000     -10.291381      -280.0427
  11   2.0000     -10.286831      -279.9189
  12   2.0000     -10.283893      -279.8390
  13   2.0000     -10.282825      -279.8099
  14   2.0000     -10.279994      -279.7329
  15   2.0000     -10.276610      -279.6408
  16   2.0000      -8.084641      -219.9943
  17   2.0000      -8.077882      -219.8103
  18   2.0000      -6.043094      -164.4409
  19   2.0000      -6.039429      -164.3412
  20   2.0000      -6.036345      -164.2573
  21   2.0000      -6.035275      -164.2282
  22   2.0000      -6.032434      -164.1509
  23   2.0000      -6.028801      -164.0520
  24   2.0000      -1.005254       -27.3544
  25   2.0000      -0.979284       -26.6477
  26   2.0000      -0.921313       -25.0702
  27   2.0000      -0.914834       -24.8939
  28   2.0000      -0.869656       -23.6646
  29   2.0000      -0.855022       -23.2663
  30   2.0000      -0.850298       -23.1378
  31   2.0000      -0.810026       -22.0419
  32   2.0000      -0.781268       -21.2594
  33   2.0000      -0.765889       -20.8409
  34   2.0000      -0.710112       -19.3231
  35   2.0000      -0.694588       -18.9007
  36   2.0000      -0.682585       -18.5741
  37   2.0000      -0.658429       -17.9168
  38   2.0000      -0.638909       -17.3856
  39   2.0000      -0.618191       -16.8218
  40   2.0000      -0.591301       -16.0901
  41   2.0000      -0.581471       -15.8226
  42   2.0000      -0.569987       -15.5101
  43   2.0000      -0.560032       -15.2392
  44   2.0000      -0.527745       -14.3607
  45   2.0000      -0.521469       -14.1899
  46   2.0000      -0.512703       -13.9513
  47   2.0000      -0.508344       -13.8328
  48   2.0000      -0.505075       -13.7438
  49   2.0000      -0.501277       -13.6404
  50   2.0000      -0.492459       -13.4005
  51   2.0000      -0.477838       -13.0026
  52   2.0000      -0.468751       -12.7554
  53   2.0000      -0.464204       -12.6316
  54   2.0000      -0.458236       -12.4692
  55   2.0000      -0.450638       -12.2625
  56   2.0000      -0.440950       -11.9989
  57   2.0000      -0.433987       -11.8094
  58   2.0000      -0.431879       -11.7520
  59   2.0000      -0.427400       -11.6302
  60   2.0000      -0.422054       -11.4847
  61   2.0000      -0.420317       -11.4374
  62   2.0000      -0.405074       -11.0226
  63   2.0000      -0.341506        -9.2928
  64   2.0000      -0.329467        -8.9653
  65   2.0000      -0.324353        -8.8261
  66   2.0000      -0.289758        -7.8847
  67   0.0000       0.029478         0.8021
  68   0.0000       0.059112         1.6085
  69   0.0000       0.106092         2.8869
  70   0.0000       0.124559         3.3894
  71   0.0000       0.131553         3.5797

MULLIKEN ATOMIC CHARGES
-----------------------
   0 S :    0.130132
   1 C :   -0.141577
   2 C :   -0.040343
   3 C :   -0.021498
   4 C :   -0.155475
   5 H :    0.057118
   6 C :    0.021143
   7 H :    0.041648
   8 H :    0.026568
   9 C :   -0.069906
  10 H :    0.021816
  11 H :    0.046028
  12 C :   -0.057815
  13 H :    0.029057
  14 H :    0.030312
  15 H :    0.043027
  16 S :    0.102882
  17 C :   -0.110978
  18 C :   -0.056418
  19 C :   -0.008736
  20 C :   -0.204065
  21 H :    0.003385
  22 C :    0.127120
  23 H :    0.008950
  24 H :    0.010991
  25 C :   -0.122447
  26 H :    0.036911
  27 H :    0.057122
  28 C :   -0.020574
  29 H :    0.027441
  30 H :    0.023809
  31 H :    0.036459
  32 H :    0.058012
  33 H :    0.069898
Sum of atomic charges:   -0.0000000

LOEWDIN ATOMIC CHARGES
----------------------
   0 S :    0.399717
   1 C :   -0.204597
   2 C :   -0.065408
   3 C :   -0.066107
   4 C :   -0.197468
   5 H :    0.050325
   6 C :   -0.039829
   7 H :    0.034794
   8 H :    0.033401
   9 C :   -0.044968
  10 H :    0.013537
  11 H :    0.035346
  12 C :   -0.066733
  13 H :    0.028080
  14 H :    0.024768
  15 H :    0.028587
  16 S :    0.393506
  17 C :   -0.194347
  18 C :   -0.071556
  19 C :   -0.053465
  20 C :   -0.188382
  21 H :    0.024271
  22 C :   -0.031099
  23 H :    0.020789
  24 H :    0.035149
  25 C :   -0.053884
  26 H :    0.034217
  27 H :    0.035261
  28 C :   -0.065986
  29 H :    0.027758
  30 H :    0.020014
  31 H :    0.032587
  32 H :    0.034062
  33 H :    0.037661

  Mayer bond orders larger than 0.100000
B(  0-S ,  1-C ) :   1.1343 B(  0-S ,  4-C ) :   1.1340 B(  1-C ,  2-C ) :   1.6186
B(  1-C , 32-H ) :   0.9646 B(  2-C ,  3-C ) :   1.2213 B(  2-C ,  6-C ) :   1.0157
B(  3-C ,  4-C ) :   1.5861 B(  3-C ,  5-H ) :   0.9795 B(  4-C , 20-C ) :   1.0548
B(  6-C ,  7-H ) :   0.9338 B(  6-C ,  8-H ) :   0.9368 B(  6-C ,  9-C ) :   1.0886
B(  9-C , 10-H ) :   0.9391 B(  9-C , 11-H ) :   0.9570 B(  9-C , 12-C ) :   1.0889
B( 12-C , 13-H ) :   0.9728 B( 12-C , 14-H ) :   0.9728 B( 12-C , 15-H ) :   0.9748
B( 16-S , 17-C ) :   1.1531 B( 16-S , 20-C ) :   1.1553 B( 17-C , 18-C ) :   1.5989
B( 17-C , 20-C ) :   0.1138 B( 17-C , 33-H ) :   0.9622 B( 18-C , 19-C ) :   1.2490
B( 18-C , 21-H ) :   0.9930 B( 19-C , 20-C ) :   1.5589 B( 19-C , 22-C ) :   1.0283
B( 22-C , 23-H ) :   0.9199 B( 22-C , 24-H ) :   0.9223 B( 22-C , 25-C ) :   1.0678
B( 25-C , 26-H ) :   0.9509 B( 25-C , 27-H ) :   0.9466 B( 25-C , 28-C ) :   1.0951
B( 28-C , 29-H ) :   0.9707 B( 28-C , 30-H ) :   0.9714 B( 28-C , 31-H ) :   0.9702

Dispersion correction           -0.014473106
FINAL SINGLE POINT ENERGY     -1339.867034851360

DIPOLE MOMENT
-------------
                                X             Y             Z
Electronic contribution:     23.11923       1.35741      15.82989
Nuclear contribution   :    -23.59297      -1.23503     -16.31209
                        -----------------------------------------
Total Dipole Moment    :     -0.47374       0.12238      -0.48220
                        -----------------------------------------
Magnitude (a.u.)       :      0.68697
Magnitude (Debye)      :      1.74613

Rotational constants in cm-1:     0.016749     0.009019     0.007714
Rotational constants in MHz :   502.135791   270.388060   231.257594

                             ****ORCA TERMINATED NORMALLY****
TOTAL RUN TIME: 0 days 0 hours 0 minutes 22 seconds 319 msec
