                         Program Version 4.2.1 -  RELEASE  -
|  1> ! wB97X-D3 SP def2-SVP
|  2> %pal
|  3> nprocs 24
|  4> end
|  5>
|  6> * xyz 0 1
|  7> S 	 -100.708 	 21.1916 	 -122.107
|  8> C 	 -101.682 	 22.6539 	 -122.089
|  9> C 	 -103.013 	 22.3061 	 -122.029
| 10> C 	 -103.187 	 20.9381 	 -122.323
| 11> C 	 -102.045 	 20.1483 	 -122.327
| 12> H 	 -104.095 	 20.386 	 -122.186
| 13> C 	 -104.19 	 23.2565 	 -121.969
| 14> H 	 -104.288 	 23.7328 	 -123.007
| 15> H 	 -103.871 	 24.1911 	 -121.521
| 16> C 	 -105.542 	 22.748 	 -121.505
| 17> H 	 -105.876 	 21.9618 	 -122.115
| 18> H 	 -105.323 	 22.4178 	 -120.478
| 19> C 	 -106.61 	 23.8445 	 -121.398
| 20> H 	 -106.356 	 24.5011 	 -120.583
| 21> H 	 -106.745 	 24.4873 	 -122.273
| 22> H 	 -107.479 	 23.3697 	 -121.018
| 23> S 	 -101.419 	 18.0287 	 -120.697
| 24> C 	 -101.673 	 16.3441 	 -121.179
| 25> C 	 -102.39 	 16.3852 	 -122.374
| 26> C 	 -102.578 	 17.6925 	 -122.925
| 27> C 	 -102.09 	 18.7059 	 -122.145
| 28> H 	 -102.776 	 15.4913 	 -122.82
| 29> C 	 -103.037 	 17.8511 	 -124.329
| 30> H 	 -102.26 	 18.4466 	 -124.757
| 31> H 	 -103.844 	 18.4962 	 -124.398
| 32> C 	 -103.181 	 16.6266 	 -125.199
| 33> H 	 -104.049 	 16.0665 	 -124.962
| 34> H 	 -102.28 	 15.9757 	 -125.189
| 35> C 	 -103.479 	 16.9825 	 -126.611
| 36> H 	 -104.537 	 17.2217 	 -126.652
| 37> H 	 -103.303 	 16.2984 	 -127.434
| 38> H 	 -102.863 	 17.8106 	 -126.881
| 39> H 	 -101.217 	 23.6346 	 -121.92
| 40> H 	 -101.302 	 15.5211 	 -120.573
| 41> *
| 42>
| 43>                          ****END OF INPUT****

CARTESIAN COORDINATES (ANGSTROEM)
---------------------------------
  S    -100.708000   21.191600  -122.107000
  C    -101.682000   22.653900  -122.089000
  C    -103.013000   22.306100  -122.029000
  C    -103.187000   20.938100  -122.323000
  C    -102.045000   20.148300  -122.327000
  H    -104.095000   20.386000  -122.186000
  C    -104.190000   23.256500  -121.969000
  H    -104.288000   23.732800  -123.007000
  H    -103.871000   24.191100  -121.521000
  C    -105.542000   22.748000  -121.505000
  H    -105.876000   21.961800  -122.115000
  H    -105.323000   22.417800  -120.478000
  C    -106.610000   23.844500  -121.398000
  H    -106.356000   24.501100  -120.583000
  H    -106.745000   24.487300  -122.273000
  H    -107.479000   23.369700  -121.018000
  S    -101.419000   18.028700  -120.697000
  C    -101.673000   16.344100  -121.179000
  C    -102.390000   16.385200  -122.374000
  C    -102.578000   17.692500  -122.925000
  C    -102.090000   18.705900  -122.145000
  H    -102.776000   15.491300  -122.820000
  C    -103.037000   17.851100  -124.329000
  H    -102.260000   18.446600  -124.757000
  H    -103.844000   18.496200  -124.398000
  C    -103.181000   16.626600  -125.199000
  H    -104.049000   16.066500  -124.962000
  H    -102.280000   15.975700  -125.189000
  C    -103.479000   16.982500  -126.611000
  H    -104.537000   17.221700  -126.652000
  H    -103.303000   16.298400  -127.434000
  H    -102.863000   17.810600  -126.881000
  H    -101.217000   23.634600  -121.920000
  H    -101.302000   15.521100  -120.573000

 Total Charge           Charge          ....    0
 Multiplicity           Mult            ....    1
 Number of Electrons    NEL             ....  134
 Basis Dimension        Dim             ....  322

ORBITAL ENERGIES
----------------

  NO   OCC          E(Eh)            E(eV)
   0   2.0000     -88.966925     -2420.9131
   1   2.0000     -88.958660     -2420.6882
   2   2.0000     -10.326690      -281.0035
   3   2.0000     -10.322355      -280.8856
   4   2.0000     -10.320330      -280.8304
   5   2.0000     -10.317710      -280.7592
   6   2.0000     -10.302785      -280.3530
   7   2.0000     -10.296698      -280.1874
   8   2.0000     -10.294525      -280.1283
   9   2.0000     -10.292176      -280.0644
  10   2.0000     -10.287443      -279.9356
  11   2.0000     -10.286774      -279.9173
  12   2.0000     -10.279666      -279.7239
  13   2.0000     -10.277529      -279.6658
  14   2.0000     -10.276895      -279.6485
  15   2.0000     -10.268210      -279.4122
  16   2.0000      -8.082036      -219.9234
  17   2.0000      -8.073615      -219.6942
  18   2.0000      -6.040438      -164.3687
  19   2.0000      -6.036337      -164.2571
  20   2.0000      -6.033011      -164.1666
  21   2.0000      -6.032192      -164.1443
  22   2.0000      -6.027903      -164.0276
  23   2.0000      -6.024474      -163.9343
  24   2.0000      -1.012201       -27.5434
  25   2.0000      -0.988002       -26.8849
  26   2.0000      -0.921078       -25.0638
  27   2.0000      -0.915549       -24.9134
  28   2.0000      -0.874471       -23.7956
  29   2.0000      -0.856465       -23.3056
  30   2.0000      -0.848176       -23.0800
  31   2.0000      -0.815421       -22.1887
  32   2.0000      -0.783551       -21.3215
  33   2.0000      -0.774551       -21.0766
  34   2.0000      -0.713232       -19.4080
  35   2.0000      -0.707456       -19.2509
  36   2.0000      -0.693492       -18.8709
  37   2.0000      -0.653934       -17.7945
  38   2.0000      -0.645320       -17.5601
  39   2.0000      -0.620596       -16.8873
  40   2.0000      -0.603548       -16.4234
  41   2.0000      -0.584412       -15.9027
  42   2.0000      -0.572206       -15.5705
  43   2.0000      -0.568242       -15.4627
  44   2.0000      -0.535788       -14.5795
  45   2.0000      -0.531420       -14.4607
  46   2.0000      -0.517666       -14.0864
  47   2.0000      -0.511732       -13.9249
  48   2.0000      -0.506516       -13.7830
  49   2.0000      -0.502676       -13.6785
  50   2.0000      -0.496850       -13.5200
  51   2.0000      -0.478200       -13.0125
  52   2.0000      -0.472158       -12.8481
  53   2.0000      -0.465836       -12.6761
  54   2.0000      -0.459844       -12.5130
  55   2.0000      -0.452218       -12.3055
  56   2.0000      -0.444940       -12.1074
  57   2.0000      -0.437223       -11.8974
  58   2.0000      -0.426083       -11.5943
  59   2.0000      -0.422025       -11.4839
  60   2.0000      -0.420758       -11.4494
  61   2.0000      -0.417050       -11.3485
  62   2.0000      -0.411017       -11.1843
  63   2.0000      -0.343544        -9.3483
  64   2.0000      -0.328737        -8.9454
  65   2.0000      -0.323764        -8.8101
  66   2.0000      -0.295359        -8.0371
  67   0.0000       0.029539         0.8038
  68   0.0000       0.068261         1.8575
  69   0.0000       0.116359         3.1663
  70   0.0000       0.131907         3.5894
  71   0.0000       0.135348         3.6830

MULLIKEN ATOMIC CHARGES
-----------------------
   0 S :    0.116254
   1 C :   -0.139435
   2 C :   -0.057829
   3 C :    0.024745
   4 C :   -0.159021
   5 H :    0.018647
   6 C :    0.027688
   7 H :    0.036147
   8 H :    0.001278
   9 C :   -0.076519
  10 H :    0.037228
  11 H :    0.037496
  12 C :   -0.011138
  13 H :    0.016746
  14 H :    0.039062
  15 H :    0.025379
  16 S :    0.088661
  17 C :   -0.104651
  18 C :   -0.025890
  19 C :   -0.053208
  20 C :   -0.154838
  21 H :    0.017643
  22 C :    0.112858
  23 H :    0.020862
  24 H :   -0.001091
  25 C :   -0.067976
  26 H :    0.022854
  27 H :    0.038404
  28 C :   -0.028702
  29 H :    0.023206
  30 H :    0.028761
  31 H :    0.012609
  32 H :    0.063551
  33 H :    0.070222
Sum of atomic charges:    0.0000000

LOEWDIN ATOMIC CHARGES
----------------------
   0 S :    0.429770
   1 C :   -0.195831
   2 C :   -0.064652
   3 C :   -0.065371
   4 C :   -0.214652
   5 H :    0.027041
   6 C :   -0.045422
   7 H :    0.040921
   8 H :    0.025532
   9 C :   -0.036258
  10 H :    0.017839
  11 H :    0.032949
  12 C :   -0.058811
  13 H :    0.025044
  14 H :    0.027019
  15 H :    0.025757
  16 S :    0.401221
  17 C :   -0.180415
  18 C :   -0.069823
  19 C :   -0.061148
  20 C :   -0.203775
  21 H :    0.027792
  22 C :   -0.028577
  23 H :    0.037895
  24 H :    0.023222
  25 C :   -0.043418
  26 H :    0.020122
  27 H :    0.029515
  28 C :   -0.061300
  29 H :    0.025016
  30 H :    0.026788
  31 H :    0.018805
  32 H :    0.033656
  33 H :    0.033547

  Mayer bond orders larger than 0.100000
B(  0-S ,  1-C ) :   1.1548 B(  0-S ,  4-C ) :   1.1709 B(  1-C ,  2-C ) :   1.5599
B(  1-C ,  4-C ) :   0.1013 B(  1-C , 32-H ) :   0.9707 B(  2-C ,  3-C ) :   1.2904
B(  2-C ,  6-C ) :   1.0311 B(  3-C ,  4-C ) :   1.5394 B(  3-C ,  5-H ) :   0.9747
B(  4-C , 20-C ) :   1.0426 B(  6-C ,  7-H ) :   0.9294 B(  6-C ,  8-H ) :   0.9378
B(  6-C ,  9-C ) :   1.0596 B(  9-C , 10-H ) :   0.9485 B(  9-C , 11-H ) :   0.9577
B(  9-C , 12-C ) :   1.0930 B( 12-C , 13-H ) :   0.9705 B( 12-C , 14-H ) :   0.9755
B( 12-C , 15-H ) :   0.9705 B( 16-S , 17-C ) :   1.1623 B( 16-S , 20-C ) :   1.1437
B( 17-C , 18-C ) :   1.5509 B( 17-C , 20-C ) :   0.1030 B( 17-C , 33-H ) :   0.9732
B( 18-C , 19-C ) :   1.2783 B( 18-C , 21-H ) :   0.9868 B( 19-C , 20-C ) :   1.5918
B( 19-C , 22-C ) :   1.0310 B( 22-C , 23-H ) :   0.9187 B( 22-C , 24-H ) :   0.9129
B( 22-C , 25-C ) :   1.0962 B( 25-C , 26-H ) :   0.9497 B( 25-C , 27-H ) :   0.9455
B( 25-C , 28-C ) :   1.0794 B( 28-C , 29-H ) :   0.9773 B( 28-C , 30-H ) :   0.9723
B( 28-C , 31-H ) :   0.9724

Dispersion correction           -0.013244423
FINAL SINGLE POINT ENERGY     -1339.859309369685

DIPOLE MOMENT
-------------
                                X             Y             Z
Electronic contribution:     21.79626      -4.41034      13.84240
Nuclear contribution   :    -22.35151       4.55013     -14.03222
                        -----------------------------------------
Total Dipole Moment    :     -0.55525       0.13979      -0.18982
                        -----------------------------------------
Magnitude (a.u.)       :      0.60323
Magnitude (Debye)      :      1.53328

Rotational constants in cm-1:     0.016859     0.007842     0.006635
Rotational constants in MHz :   505.431392   235.094561   198.897809

                             ****ORCA TERMINATED NORMALLY****
TOTAL RUN TIME: 0 days 0 hours 0 minutes 19 seconds 936 msec
