                         Program Version 4.2.1 -  RELEASE  -
|  1> ! wB97X-D3 SP def2-SVP
|  2> %pal
|  3> nprocs 24
|  4> end
|  5>
|  6> * xyz 0 1
|  7> S 	 -104.939 	 29.4559 	 -116.772
|  8> C 	 -104.914 	 30.7865 	 -115.743
|  9> C 	 -104.832 	 31.9946 	 -116.531
| 10> C 	 -104.879 	 31.6076 	 -117.899
| 11> C 	 -105.143 	 30.3309 	 -118.265
| 12> H 	 -104.836 	 32.3975 	 -118.634
| 13> C 	 -104.818 	 33.4193 	 -115.968
| 14> H 	 -104.551 	 34.1106 	 -116.794
| 15> H 	 -104.002 	 33.4858 	 -115.266
| 16> C 	 -106.142 	 33.9492 	 -115.231
| 17> H 	 -107.025 	 33.8023 	 -115.976
| 18> H 	 -106.485 	 33.4097 	 -114.372
| 19> C 	 -105.968 	 35.4327 	 -114.883
| 20> H 	 -105.136 	 35.503 	 -114.105
| 21> H 	 -105.77 	 35.9483 	 -115.77
| 22> H 	 -106.934 	 35.953 	 -114.556
| 23> S 	 -103.608 	 28.8854 	 -120.025
| 24> C 	 -104.208 	 28.6726 	 -121.624
| 25> C 	 -105.414 	 29.2722 	 -121.879
| 26> C 	 -105.942 	 29.8407 	 -120.704
| 27> C 	 -105.091 	 29.7464 	 -119.59
| 28> H 	 -105.85 	 29.293 	 -122.838
| 29> C 	 -107.264 	 30.5181 	 -120.67
| 30> H 	 -107.284 	 31.2124 	 -121.546
| 31> H 	 -107.391 	 31.1979 	 -119.825
| 32> C 	 -108.502 	 29.6294 	 -120.865
| 33> H 	 -108.137 	 28.8444 	 -121.471
| 34> H 	 -109.31 	 30.2606 	 -121.372
| 35> C 	 -109.05 	 28.9275 	 -119.593
| 36> H 	 -109.767 	 28.2119 	 -119.915
| 37> H 	 -109.346 	 29.5725 	 -118.801
| 38> H 	 -108.353 	 28.2614 	 -119.102
| 39> H 	 -104.723 	 30.8312 	 -114.673
| 40> H 	 -103.658 	 28.2394 	 -122.393
| 41> *
| 42>
| 43>                          ****END OF INPUT****

CARTESIAN COORDINATES (ANGSTROEM)
---------------------------------
  S    -104.939000   29.455900  -116.772000
  C    -104.914000   30.786500  -115.743000
  C    -104.832000   31.994600  -116.531000
  C    -104.879000   31.607600  -117.899000
  C    -105.143000   30.330900  -118.265000
  H    -104.836000   32.397500  -118.634000
  C    -104.818000   33.419300  -115.968000
  H    -104.551000   34.110600  -116.794000
  H    -104.002000   33.485800  -115.266000
  C    -106.142000   33.949200  -115.231000
  H    -107.025000   33.802300  -115.976000
  H    -106.485000   33.409700  -114.372000
  C    -105.968000   35.432700  -114.883000
  H    -105.136000   35.503000  -114.105000
  H    -105.770000   35.948300  -115.770000
  H    -106.934000   35.953000  -114.556000
  S    -103.608000   28.885400  -120.025000
  C    -104.208000   28.672600  -121.624000
  C    -105.414000   29.272200  -121.879000
  C    -105.942000   29.840700  -120.704000
  C    -105.091000   29.746400  -119.590000
  H    -105.850000   29.293000  -122.838000
  C    -107.264000   30.518100  -120.670000
  H    -107.284000   31.212400  -121.546000
  H    -107.391000   31.197900  -119.825000
  C    -108.502000   29.629400  -120.865000
  H    -108.137000   28.844400  -121.471000
  H    -109.310000   30.260600  -121.372000
  C    -109.050000   28.927500  -119.593000
  H    -109.767000   28.211900  -119.915000
  H    -109.346000   29.572500  -118.801000
  H    -108.353000   28.261400  -119.102000
  H    -104.723000   30.831200  -114.673000
  H    -103.658000   28.239400  -122.393000

 Total Charge           Charge          ....    0
 Multiplicity           Mult            ....    1
 Number of Electrons    NEL             ....  134
 Basis Dimension        Dim             ....  322

ORBITAL ENERGIES
----------------

  NO   OCC          E(Eh)            E(eV)
   0   2.0000     -88.967035     -2420.9161
   1   2.0000     -88.964713     -2420.8529
   2   2.0000     -10.327414      -281.0232
   3   2.0000     -10.323521      -280.9173
   4   2.0000     -10.316358      -280.7224
   5   2.0000     -10.311621      -280.5935
   6   2.0000     -10.303541      -280.3736
   7   2.0000     -10.302969      -280.3580
   8   2.0000     -10.302649      -280.3493
   9   2.0000     -10.297890      -280.2198
  10   2.0000     -10.289261      -279.9850
  11   2.0000     -10.288520      -279.9649
  12   2.0000     -10.287286      -279.9313
  13   2.0000     -10.286673      -279.9146
  14   2.0000     -10.286505      -279.9100
  15   2.0000     -10.265633      -279.3421
  16   2.0000      -8.082055      -219.9239
  17   2.0000      -8.080463      -219.8806
  18   2.0000      -6.040380      -164.3671
  19   2.0000      -6.038762      -164.3231
  20   2.0000      -6.036575      -164.2635
  21   2.0000      -6.034583      -164.2094
  22   2.0000      -6.032939      -164.1646
  23   2.0000      -6.031585      -164.1278
  24   2.0000      -1.012230       -27.5442
  25   2.0000      -0.990750       -26.9597
  26   2.0000      -0.908329       -24.7169
  27   2.0000      -0.902652       -24.5624
  28   2.0000      -0.872929       -23.7536
  29   2.0000      -0.850777       -23.1508
  30   2.0000      -0.847199       -23.0535
  31   2.0000      -0.816881       -22.2285
  32   2.0000      -0.783559       -21.3217
  33   2.0000      -0.767869       -20.8948
  34   2.0000      -0.703902       -19.1541
  35   2.0000      -0.700152       -19.0521
  36   2.0000      -0.695429       -18.9236
  37   2.0000      -0.661692       -18.0056
  38   2.0000      -0.642006       -17.4699
  39   2.0000      -0.622500       -16.9391
  40   2.0000      -0.605052       -16.4643
  41   2.0000      -0.571019       -15.5382
  42   2.0000      -0.561191       -15.2708
  43   2.0000      -0.543512       -14.7897
  44   2.0000      -0.539805       -14.6888
  45   2.0000      -0.527232       -14.3467
  46   2.0000      -0.519292       -14.1307
  47   2.0000      -0.512014       -13.9326
  48   2.0000      -0.503735       -13.7073
  49   2.0000      -0.499743       -13.5987
  50   2.0000      -0.490934       -13.3590
  51   2.0000      -0.479241       -13.0408
  52   2.0000      -0.469850       -12.7853
  53   2.0000      -0.464871       -12.6498
  54   2.0000      -0.456478       -12.4214
  55   2.0000      -0.448366       -12.2007
  56   2.0000      -0.444027       -12.0826
  57   2.0000      -0.434021       -11.8103
  58   2.0000      -0.432024       -11.7560
  59   2.0000      -0.420937       -11.4543
  60   2.0000      -0.419134       -11.4052
  61   2.0000      -0.415237       -11.2992
  62   2.0000      -0.411120       -11.1871
  63   2.0000      -0.344772        -9.3817
  64   2.0000      -0.332123        -9.0375
  65   2.0000      -0.319594        -8.6966
  66   2.0000      -0.298510        -8.1229
  67   0.0000       0.036308         0.9880
  68   0.0000       0.056268         1.5311
  69   0.0000       0.116456         3.1689
  70   0.0000       0.122932         3.3452
  71   0.0000       0.130004         3.5376

MULLIKEN ATOMIC CHARGES
-----------------------
   0 S :    0.116452
   1 C :   -0.099304
   2 C :   -0.126709
   3 C :    0.051115
   4 C :   -0.165687
   5 H :   -0.001808
   6 C :    0.051237
   7 H :    0.027267
   8 H :    0.026703
   9 C :   -0.088921
  10 H :    0.038098
  11 H :    0.031471
  12 C :   -0.061312
  13 H :    0.048170
  14 H :    0.020406
  15 H :    0.045400
  16 S :    0.122356
  17 C :   -0.054461
  18 C :   -0.023634
  19 C :   -0.022670
  20 C :   -0.164304
  21 H :    0.005871
  22 C :    0.055382
  23 H :    0.022979
  24 H :    0.023127
  25 C :   -0.076034
  26 H :    0.015841
  27 H :    0.044595
  28 C :   -0.021251
  29 H :    0.024253
  30 H :    0.029352
  31 H :    0.018144
  32 H :    0.056952
  33 H :    0.030927
Sum of atomic charges:   -0.0000000

LOEWDIN ATOMIC CHARGES
----------------------
   0 S :    0.446229
   1 C :   -0.216382
   2 C :   -0.073793
   3 C :   -0.060838
   4 C :   -0.220946
   5 H :    0.023818
   6 C :   -0.032671
   7 H :    0.034566
   8 H :    0.027061
   9 C :   -0.042793
  10 H :    0.031390
  11 H :    0.017898
  12 C :   -0.072658
  13 H :    0.034157
  14 H :    0.014800
  15 H :    0.036395
  16 S :    0.417072
  17 C :   -0.173205
  18 C :   -0.067393
  19 C :   -0.048122
  20 C :   -0.198809
  21 H :    0.028323
  22 C :   -0.039637
  23 H :    0.036074
  24 H :    0.027434
  25 C :   -0.036361
  26 H :    0.018927
  27 H :    0.033312
  28 C :   -0.065649
  29 H :    0.024607
  30 H :    0.020775
  31 H :    0.027207
  32 H :    0.033878
  33 H :    0.015332

  Mayer bond orders larger than 0.100000
B(  0-S ,  1-C ) :   1.2090 B(  0-S ,  4-C ) :   1.1474 B(  1-C ,  2-C ) :   1.5062
B(  1-C ,  4-C ) :   0.1119 B(  1-C , 32-H ) :   0.9684 B(  2-C ,  3-C ) :   1.3326
B(  2-C ,  6-C ) :   1.0288 B(  3-C ,  4-C ) :   1.5295 B(  3-C ,  5-H ) :   0.9898
B(  4-C , 20-C ) :   1.0370 B(  6-C ,  7-H ) :   0.9468 B(  6-C ,  8-H ) :   0.9377
B(  6-C ,  9-C ) :   1.0410 B(  9-C , 10-H ) :   0.9581 B(  9-C , 11-H ) :   0.9607
B(  9-C , 12-C ) :   1.0729 B( 12-C , 13-H ) :   0.9743 B( 12-C , 14-H ) :   0.9757
B( 12-C , 15-H ) :   0.9720 B( 16-S , 17-C ) :   1.1741 B( 16-S , 20-C ) :   1.1411
B( 17-C , 18-C ) :   1.5974 B( 17-C , 33-H ) :   0.9693 B( 18-C , 19-C ) :   1.2479
B( 18-C , 21-H ) :   0.9989 B( 19-C , 20-C ) :   1.5889 B( 19-C , 22-C ) :   1.0614
B( 22-C , 23-H ) :   0.9295 B( 22-C , 24-H ) :   0.9348 B( 22-C , 25-C ) :   1.0615
B( 25-C , 26-H ) :   0.9562 B( 25-C , 27-H ) :   0.9566 B( 25-C , 28-C ) :   1.0816
B( 28-C , 29-H ) :   0.9716 B( 28-C , 30-H ) :   0.9771 B( 28-C , 31-H ) :   0.9709

Dispersion correction           -0.013779864
FINAL SINGLE POINT ENERGY     -1339.859409109773

DIPOLE MOMENT
-------------
                                X             Y             Z
Electronic contribution:     18.06082     -18.27520      -4.95383
Nuclear contribution   :    -18.20937      18.79662       4.78254
                        -----------------------------------------
Total Dipole Moment    :     -0.14855       0.52141      -0.17129
                        -----------------------------------------
Magnitude (a.u.)       :      0.56858
Magnitude (Debye)      :      1.44521

Rotational constants in cm-1:     0.019892     0.007581     0.006579
Rotational constants in MHz :   596.343310   227.275451   197.237745

                             ****ORCA TERMINATED NORMALLY****
TOTAL RUN TIME: 0 days 0 hours 0 minutes 21 seconds 275 msec
