                         Program Version 4.2.1 -  RELEASE  -
|  1> ! wB97X-D3 SP def2-SVP
|  2> %pal
|  3> nprocs 24
|  4> end
|  5>
|  6> * xyz 0 1
|  7> S 	 -35.3756 	 -38.3451 	 -82.5497
|  8> C 	 -36.0581 	 -36.9436 	 -82.0679
|  9> C 	 -35.5459 	 -35.7908 	 -82.6699
| 10> C 	 -34.7245 	 -36.1747 	 -83.7849
| 11> C 	 -34.4916 	 -37.5354 	 -83.8751
| 12> H 	 -34.1552 	 -35.4617 	 -84.3245
| 13> C 	 -35.6428 	 -34.3836 	 -82.0732
| 14> H 	 -36.6647 	 -34.1862 	 -81.7446
| 15> H 	 -35.5814 	 -33.6035 	 -82.9009
| 16> C 	 -34.5836 	 -33.9357 	 -81.0277
| 17> H 	 -35.0769 	 -33.8335 	 -80.0555
| 18> H 	 -33.8864 	 -34.7575 	 -80.9064
| 19> C 	 -33.8411 	 -32.5929 	 -81.289
| 20> H 	 -32.7852 	 -32.5945 	 -80.9566
| 21> H 	 -33.8645 	 -32.2831 	 -82.348
| 22> H 	 -34.3795 	 -31.8469 	 -80.6978
| 23> S 	 -32.7836 	 -39.5035 	 -83.9883
| 24> C 	 -31.7531 	 -39.7984 	 -85.3699
| 25> C 	 -32.0307 	 -38.8577 	 -86.3357
| 26> C 	 -33.0319 	 -37.9401 	 -86.0172
| 27> C 	 -33.5421 	 -38.1941 	 -84.7499
| 28> H 	 -31.4828 	 -38.9251 	 -87.2966
| 29> C 	 -33.5351 	 -37.0302 	 -87.0905
| 30> H 	 -32.8759 	 -36.9011 	 -87.9477
| 31> H 	 -33.5741 	 -36.0784 	 -86.5912
| 32> C 	 -34.9947 	 -37.2038 	 -87.5014
| 33> H 	 -35.8361 	 -37.181 	 -86.7866
| 34> H 	 -35.164 	 -38.1747 	 -87.8208
| 35> C 	 -35.3038 	 -36.2339 	 -88.7579
| 36> H 	 -35.4918 	 -35.2101 	 -88.4341
| 37> H 	 -35.9994 	 -36.6632 	 -89.4952
| 38> H 	 -34.3849 	 -36.0458 	 -89.3562
| 39> H 	 -36.7016 	 -36.9552 	 -81.215
| 40> H 	 -31.053 	 -40.5784 	 -85.4486
| 41> *
| 42>
| 43>                          ****END OF INPUT****

CARTESIAN COORDINATES (ANGSTROEM)
---------------------------------
  S    -35.375600  -38.345100  -82.549700
  C    -36.058100  -36.943600  -82.067900
  C    -35.545900  -35.790800  -82.669900
  C    -34.724500  -36.174700  -83.784900
  C    -34.491600  -37.535400  -83.875100
  H    -34.155200  -35.461700  -84.324500
  C    -35.642800  -34.383600  -82.073200
  H    -36.664700  -34.186200  -81.744600
  H    -35.581400  -33.603500  -82.900900
  C    -34.583600  -33.935700  -81.027700
  H    -35.076900  -33.833500  -80.055500
  H    -33.886400  -34.757500  -80.906400
  C    -33.841100  -32.592900  -81.289000
  H    -32.785200  -32.594500  -80.956600
  H    -33.864500  -32.283100  -82.348000
  H    -34.379500  -31.846900  -80.697800
  S    -32.783600  -39.503500  -83.988300
  C    -31.753100  -39.798400  -85.369900
  C    -32.030700  -38.857700  -86.335700
  C    -33.031900  -37.940100  -86.017200
  C    -33.542100  -38.194100  -84.749900
  H    -31.482800  -38.925100  -87.296600
  C    -33.535100  -37.030200  -87.090500
  H    -32.875900  -36.901100  -87.947700
  H    -33.574100  -36.078400  -86.591200
  C    -34.994700  -37.203800  -87.501400
  H    -35.836100  -37.181000  -86.786600
  H    -35.164000  -38.174700  -87.820800
  C    -35.303800  -36.233900  -88.757900
  H    -35.491800  -35.210100  -88.434100
  H    -35.999400  -36.663200  -89.495200
  H    -34.384900  -36.045800  -89.356200
  H    -36.701600  -36.955200  -81.215000
  H    -31.053000  -40.578400  -85.448600

 Total Charge           Charge          ....    0
 Multiplicity           Mult            ....    1
 Number of Electrons    NEL             ....  134
 Basis Dimension        Dim             ....  322

ORBITAL ENERGIES
----------------

  NO   OCC          E(Eh)            E(eV)
   0   2.0000     -88.968346     -2420.9518
   1   2.0000     -88.963425     -2420.8179
   2   2.0000     -10.330022      -281.0942
   3   2.0000     -10.323505      -280.9169
   4   2.0000     -10.309320      -280.5309
   5   2.0000     -10.306684      -280.4591
   6   2.0000     -10.302573      -280.3473
   7   2.0000     -10.298526      -280.2372
   8   2.0000     -10.297434      -280.2074
   9   2.0000     -10.292417      -280.0709
  10   2.0000     -10.289822      -280.0003
  11   2.0000     -10.289683      -279.9965
  12   2.0000     -10.287300      -279.9317
  13   2.0000     -10.283330      -279.8236
  14   2.0000     -10.283144      -279.8186
  15   2.0000     -10.282548      -279.8024
  16   2.0000      -8.084871      -220.0005
  17   2.0000      -8.079496      -219.8543
  18   2.0000      -6.043194      -164.4437
  19   2.0000      -6.039077      -164.3316
  20   2.0000      -6.037860      -164.2985
  21   2.0000      -6.035767      -164.2416
  22   2.0000      -6.033723      -164.1860
  23   2.0000      -6.030421      -164.0961
  24   2.0000      -1.017534       -27.6885
  25   2.0000      -0.994423       -27.0596
  26   2.0000      -0.909380       -24.7455
  27   2.0000      -0.902250       -24.5515
  28   2.0000      -0.876616       -23.8539
  29   2.0000      -0.855191       -23.2709
  30   2.0000      -0.844244       -22.9730
  31   2.0000      -0.814004       -22.1502
  32   2.0000      -0.777316       -21.1518
  33   2.0000      -0.768268       -20.9056
  34   2.0000      -0.713394       -19.4124
  35   2.0000      -0.699592       -19.0369
  36   2.0000      -0.696107       -18.9420
  37   2.0000      -0.671727       -18.2786
  38   2.0000      -0.645288       -17.5592
  39   2.0000      -0.622177       -16.9303
  40   2.0000      -0.601140       -16.3578
  41   2.0000      -0.564920       -15.3723
  42   2.0000      -0.557692       -15.1756
  43   2.0000      -0.554220       -15.0811
  44   2.0000      -0.526114       -14.3163
  45   2.0000      -0.522764       -14.2251
  46   2.0000      -0.519756       -14.1433
  47   2.0000      -0.509957       -13.8766
  48   2.0000      -0.501950       -13.6588
  49   2.0000      -0.497012       -13.5244
  50   2.0000      -0.495066       -13.4714
  51   2.0000      -0.485274       -13.2050
  52   2.0000      -0.469619       -12.7790
  53   2.0000      -0.467221       -12.7137
  54   2.0000      -0.457416       -12.4469
  55   2.0000      -0.449972       -12.2443
  56   2.0000      -0.442184       -12.0324
  57   2.0000      -0.440060       -11.9746
  58   2.0000      -0.433746       -11.8028
  59   2.0000      -0.423618       -11.5272
  60   2.0000      -0.418663       -11.3924
  61   2.0000      -0.412743       -11.2313
  62   2.0000      -0.408014       -11.1026
  63   2.0000      -0.364027        -9.9057
  64   2.0000      -0.335775        -9.1369
  65   2.0000      -0.324450        -8.8287
  66   2.0000      -0.278426        -7.5764
  67   0.0000       0.025314         0.6888
  68   0.0000       0.076696         2.0870
  69   0.0000       0.108795         2.9605
  70   0.0000       0.121657         3.3104
  71   0.0000       0.142568         3.8795

MULLIKEN ATOMIC CHARGES
-----------------------
   0 S :    0.128718
   1 C :   -0.095273
   2 C :   -0.109068
   3 C :    0.025885
   4 C :   -0.132217
   5 H :    0.002853
   6 C :    0.035384
   7 H :    0.028166
   8 H :    0.019534
   9 C :   -0.056046
  10 H :    0.030693
  11 H :    0.037000
  12 C :   -0.080908
  13 H :    0.045985
  14 H :    0.038062
  15 H :    0.036213
  16 S :    0.093684
  17 C :   -0.074492
  18 C :   -0.060547
  19 C :   -0.020367
  20 C :   -0.141098
  21 H :    0.025263
  22 C :    0.094462
  23 H :    0.023696
  24 H :    0.010698
  25 C :   -0.043854
  26 H :    0.042517
  27 H :    0.002896
  28 C :   -0.082350
  29 H :    0.035110
  30 H :    0.046675
  31 H :    0.016143
  32 H :    0.041610
  33 H :    0.034974
Sum of atomic charges:    0.0000000

LOEWDIN ATOMIC CHARGES
----------------------
   0 S :    0.442878
   1 C :   -0.224166
   2 C :   -0.069220
   3 C :   -0.055272
   4 C :   -0.192885
   5 H :    0.025177
   6 C :   -0.040483
   7 H :    0.030817
   8 H :    0.032233
   9 C :   -0.045124
  10 H :    0.027379
  11 H :    0.024942
  12 C :   -0.070606
  13 H :    0.032364
  14 H :    0.024496
  15 H :    0.027020
  16 S :    0.431832
  17 C :   -0.186528
  18 C :   -0.070326
  19 C :   -0.067863
  20 C :   -0.204010
  21 H :    0.036684
  22 C :   -0.030032
  23 H :    0.033524
  24 H :    0.031063
  25 C :   -0.035799
  26 H :    0.034128
  27 H :    0.011367
  28 C :   -0.072778
  29 H :    0.024043
  30 H :    0.029746
  31 H :    0.024008
  32 H :    0.022544
  33 H :    0.018846

  Mayer bond orders larger than 0.100000
B(  0-S ,  1-C ) :   1.1915 B(  0-S ,  4-C ) :   1.1466 B(  1-C ,  2-C ) :   1.5578
B(  1-C , 32-H ) :   0.9697 B(  2-C ,  3-C ) :   1.2869 B(  2-C ,  6-C ) :   1.0466
B(  3-C ,  4-C ) :   1.5420 B(  3-C ,  5-H ) :   0.9963 B(  4-C , 20-C ) :   1.0679
B(  6-C ,  7-H ) :   0.9412 B(  6-C ,  8-H ) :   0.9486 B(  6-C ,  9-C ) :   1.0258
B(  9-C , 10-H ) :   0.9625 B(  9-C , 11-H ) :   0.9689 B(  9-C , 12-C ) :   1.0649
B( 12-C , 13-H ) :   0.9774 B( 12-C , 14-H ) :   0.9795 B( 12-C , 15-H ) :   0.9826
B( 16-S , 17-C ) :   1.1538 B( 16-S , 20-C ) :   1.1712 B( 17-C , 18-C ) :   1.5797
B( 17-C , 20-C ) :   0.1052 B( 17-C , 33-H ) :   0.9793 B( 18-C , 19-C ) :   1.2771
B( 18-C , 21-H ) :   0.9875 B( 19-C , 20-C ) :   1.5341 B( 19-C , 22-C ) :   1.0507
B( 22-C , 23-H ) :   0.9389 B( 22-C , 24-H ) :   0.9167 B( 22-C , 25-C ) :   1.0550
B( 25-C , 26-H ) :   0.9547 B( 25-C , 27-H ) :   0.9570 B( 25-C , 28-C ) :   1.0605
B( 28-C , 29-H ) :   0.9794 B( 28-C , 30-H ) :   0.9783 B( 28-C , 31-H ) :   0.9750

Dispersion correction           -0.013825311
FINAL SINGLE POINT ENERGY     -1339.855339814856

DIPOLE MOMENT
-------------
                                X             Y             Z
Electronic contribution:      3.32126     -25.12981       8.49856
Nuclear contribution   :     -3.22298      25.57393      -8.58583
                        -----------------------------------------
Total Dipole Moment    :      0.09828       0.44412      -0.08727
                        -----------------------------------------
Magnitude (a.u.)       :      0.46316
Magnitude (Debye)      :      1.17726

Rotational constants in cm-1:     0.016879     0.008546     0.007045
Rotational constants in MHz :   506.023043   256.201477   211.189981

                             ****ORCA TERMINATED NORMALLY****
TOTAL RUN TIME: 0 days 0 hours 0 minutes 21 seconds 170 msec
