                         Program Version 4.2.1 -  RELEASE  -
|  1> ! wB97X-D3 SP def2-SVP
|  2> %pal
|  3> nprocs 24
|  4> end
|  5>
|  6> * xyz 0 1
|  7> S 	 -133.746 	 13.7651 	 -7.96482
|  8> C 	 -132.696 	 14.1029 	 -6.60338
|  9> C 	 -132.38 	 13.032 	 -5.78355
| 10> C 	 -133.128 	 11.906 	 -6.29392
| 11> C 	 -133.838 	 12.0517 	 -7.49819
| 12> H 	 -133.218 	 10.9649 	 -5.8366
| 13> C 	 -131.464 	 12.8766 	 -4.57213
| 14> H 	 -132.201 	 12.705 	 -3.80378
| 15> H 	 -131.165 	 13.8789 	 -4.41104
| 16> C 	 -130.348 	 11.8179 	 -4.5257
| 17> H 	 -129.882 	 11.7778 	 -3.61556
| 18> H 	 -130.781 	 10.7887 	 -4.65973
| 19> C 	 -129.198 	 12.0274 	 -5.65151
| 20> H 	 -128.544 	 12.8766 	 -5.398
| 21> H 	 -128.702 	 11.0579 	 -5.65764
| 22> H 	 -129.661 	 12.1572 	 -6.64673
| 23> S 	 -136.53 	 11.6496 	 -8.04862
| 24> C 	 -137.029 	 9.99365 	 -8.63507
| 25> C 	 -135.909 	 9.13351 	 -8.58081
| 26> C 	 -134.665 	 9.7286 	 -8.28499
| 27> C 	 -134.818 	 11.0933 	 -8.01132
| 28> H 	 -136.178 	 8.08093 	 -8.84773
| 29> C 	 -133.373 	 8.91396 	 -8.18636
| 30> H 	 -133.659 	 7.90424 	 -8.42747
| 31> H 	 -132.889 	 8.89357 	 -7.18736
| 32> C 	 -132.373 	 9.41937 	 -9.249
| 33> H 	 -132.11 	 10.4375 	 -9.03465
| 34> H 	 -132.769 	 9.32016 	 -10.2151
| 35> C 	 -131.05 	 8.55147 	 -9.1649
| 36> H 	 -130.769 	 8.53433 	 -8.12963
| 37> H 	 -130.19 	 8.92156 	 -9.75326
| 38> H 	 -131.205 	 7.47406 	 -9.48504
| 39> H 	 -132.302 	 15.1184 	 -6.45143
| 40> H 	 -138.003 	 9.74351 	 -8.96137
| 41> *
| 42>
| 43>                          ****END OF INPUT****

CARTESIAN COORDINATES (ANGSTROEM)
---------------------------------
  S    -133.746000   13.765100   -7.964820
  C    -132.696000   14.102900   -6.603380
  C    -132.380000   13.032000   -5.783550
  C    -133.128000   11.906000   -6.293920
  C    -133.838000   12.051700   -7.498190
  H    -133.218000   10.964900   -5.836600
  C    -131.464000   12.876600   -4.572130
  H    -132.201000   12.705000   -3.803780
  H    -131.165000   13.878900   -4.411040
  C    -130.348000   11.817900   -4.525700
  H    -129.882000   11.777800   -3.615560
  H    -130.781000   10.788700   -4.659730
  C    -129.198000   12.027400   -5.651510
  H    -128.544000   12.876600   -5.398000
  H    -128.702000   11.057900   -5.657640
  H    -129.661000   12.157200   -6.646730
  S    -136.530000   11.649600   -8.048620
  C    -137.029000    9.993650   -8.635070
  C    -135.909000    9.133510   -8.580810
  C    -134.665000    9.728600   -8.284990
  C    -134.818000   11.093300   -8.011320
  H    -136.178000    8.080930   -8.847730
  C    -133.373000    8.913960   -8.186360
  H    -133.659000    7.904240   -8.427470
  H    -132.889000    8.893570   -7.187360
  C    -132.373000    9.419370   -9.249000
  H    -132.110000   10.437500   -9.034650
  H    -132.769000    9.320160  -10.215100
  C    -131.050000    8.551470   -9.164900
  H    -130.769000    8.534330   -8.129630
  H    -130.190000    8.921560   -9.753260
  H    -131.205000    7.474060   -9.485040
  H    -132.302000   15.118400   -6.451430
  H    -138.003000    9.743510   -8.961370

 Total Charge           Charge          ....    0
 Multiplicity           Mult            ....    1
 Number of Electrons    NEL             ....  134
 Basis Dimension        Dim             ....  322

ORBITAL ENERGIES
----------------

  NO   OCC          E(Eh)            E(eV)
   0   2.0000     -88.968106     -2420.9452
   1   2.0000     -88.966520     -2420.9021
   2   2.0000     -10.332704      -281.1672
   3   2.0000     -10.330342      -281.1029
   4   2.0000     -10.322473      -280.8888
   5   2.0000     -10.320400      -280.8324
   6   2.0000     -10.307300      -280.4759
   7   2.0000     -10.306379      -280.4508
   8   2.0000     -10.301349      -280.3140
   9   2.0000     -10.296453      -280.1807
  10   2.0000     -10.295808      -280.1632
  11   2.0000     -10.295598      -280.1575
  12   2.0000     -10.292621      -280.0764
  13   2.0000     -10.286331      -279.9053
  14   2.0000     -10.280350      -279.7426
  15   2.0000     -10.280286      -279.7408
  16   2.0000      -8.082220      -219.9284
  17   2.0000      -8.079186      -219.8458
  18   2.0000      -6.040770      -164.3777
  19   2.0000      -6.037789      -164.2966
  20   2.0000      -6.036854      -164.2711
  21   2.0000      -6.034082      -164.1957
  22   2.0000      -6.032930      -164.1644
  23   2.0000      -6.029864      -164.0810
  24   2.0000      -0.997151       -27.1338
  25   2.0000      -0.973551       -26.4917
  26   2.0000      -0.907989       -24.7076
  27   2.0000      -0.902956       -24.5707
  28   2.0000      -0.863667       -23.5016
  29   2.0000      -0.845400       -23.0045
  30   2.0000      -0.840763       -22.8783
  31   2.0000      -0.807232       -21.9659
  32   2.0000      -0.783369       -21.3166
  33   2.0000      -0.769329       -20.9345
  34   2.0000      -0.713896       -19.4261
  35   2.0000      -0.705287       -19.1918
  36   2.0000      -0.691137       -18.8068
  37   2.0000      -0.659117       -17.9355
  38   2.0000      -0.641031       -17.4433
  39   2.0000      -0.616757       -16.7828
  40   2.0000      -0.592251       -16.1160
  41   2.0000      -0.566245       -15.4083
  42   2.0000      -0.558315       -15.1925
  43   2.0000      -0.549447       -14.9512
  44   2.0000      -0.543844       -14.7987
  45   2.0000      -0.520959       -14.1760
  46   2.0000      -0.516276       -14.0486
  47   2.0000      -0.513510       -13.9733
  48   2.0000      -0.495123       -13.4730
  49   2.0000      -0.490099       -13.3363
  50   2.0000      -0.486538       -13.2394
  51   2.0000      -0.482794       -13.1375
  52   2.0000      -0.467672       -12.7260
  53   2.0000      -0.460592       -12.5333
  54   2.0000      -0.456012       -12.4087
  55   2.0000      -0.451083       -12.2746
  56   2.0000      -0.439791       -11.9673
  57   2.0000      -0.435664       -11.8550
  58   2.0000      -0.432344       -11.7647
  59   2.0000      -0.427351       -11.6288
  60   2.0000      -0.424281       -11.5453
  61   2.0000      -0.420929       -11.4541
  62   2.0000      -0.417870       -11.3708
  63   2.0000      -0.342141        -9.3101
  64   2.0000      -0.331467        -9.0197
  65   2.0000      -0.327745        -8.9184
  66   2.0000      -0.290357        -7.9010
  67   0.0000       0.022452         0.6110
  68   0.0000       0.065421         1.7802
  69   0.0000       0.101539         2.7630
  70   0.0000       0.116783         3.1778
  71   0.0000       0.122170         3.3244

MULLIKEN ATOMIC CHARGES
-----------------------
   0 S :    0.108273
   1 C :   -0.144873
   2 C :   -0.098921
   3 C :    0.023584
   4 C :   -0.169991
   5 H :   -0.007263
   6 C :    0.126270
   7 H :    0.035079
   8 H :   -0.001125
   9 C :   -0.046218
  10 H :    0.018564
  11 H :    0.031058
  12 C :   -0.083504
  13 H :    0.049078
  14 H :    0.039272
  15 H :    0.051578
  16 S :    0.092536
  17 C :   -0.101513
  18 C :   -0.060678
  19 C :   -0.011315
  20 C :   -0.147458
  21 H :    0.037778
  22 C :    0.079020
  23 H :    0.008403
  24 H :    0.038266
  25 C :   -0.064435
  26 H :    0.046617
  27 H :    0.026766
  28 C :   -0.067412
  29 H :    0.017139
  30 H :    0.041566
  31 H :    0.033800
  32 H :    0.053397
  33 H :    0.046663
Sum of atomic charges:    0.0000000

LOEWDIN ATOMIC CHARGES
----------------------
   0 S :    0.392408
   1 C :   -0.192633
   2 C :   -0.064504
   3 C :   -0.046984
   4 C :   -0.201593
   5 H :    0.017465
   6 C :   -0.029589
   7 H :    0.038916
   8 H :    0.024293
   9 C :   -0.028766
  10 H :    0.014378
  11 H :    0.028874
  12 C :   -0.065092
  13 H :    0.027839
  14 H :    0.027204
  15 H :    0.029991
  16 S :    0.359656
  17 C :   -0.162695
  18 C :   -0.072537
  19 C :   -0.060438
  20 C :   -0.176069
  21 H :    0.040018
  22 C :   -0.023206
  23 H :    0.026326
  24 H :    0.031621
  25 C :   -0.024673
  26 H :    0.024146
  27 H :    0.018296
  28 C :   -0.072356
  29 H :    0.016581
  30 H :    0.026903
  31 H :    0.027676
  32 H :    0.028087
  33 H :    0.020455

  Mayer bond orders larger than 0.100000
B(  0-S ,  1-C ) :   1.1553 B(  0-S ,  4-C ) :   1.1194 B(  1-C ,  2-C ) :   1.6130
B(  1-C , 32-H ) :   0.9560 B(  2-C ,  3-C ) :   1.2254 B(  2-C ,  6-C ) :   1.0003
B(  3-C ,  4-C ) :   1.5856 B(  3-C ,  5-H ) :   0.9904 B(  4-C , 20-C ) :   1.0580
B(  6-C ,  7-H ) :   0.9301 B(  6-C ,  8-H ) :   0.9342 B(  6-C ,  9-C ) :   1.0684
B(  9-C , 10-H ) :   0.9548 B(  9-C , 11-H ) :   0.9569 B(  9-C , 12-C ) :   1.0617
B( 12-C , 13-H ) :   0.9783 B( 12-C , 14-H ) :   0.9780 B( 12-C , 15-H ) :   0.9801
B( 16-S , 17-C ) :   1.1318 B( 16-S , 20-C ) :   1.1413 B( 17-C , 18-C ) :   1.6157
B( 17-C , 20-C ) :   0.1118 B( 17-C , 33-H ) :   0.9743 B( 18-C , 19-C ) :   1.2458
B( 18-C , 21-H ) :   0.9783 B( 19-C , 20-C ) :   1.5757 B( 19-C , 22-C ) :   1.0326
B( 22-C , 23-H ) :   0.9323 B( 22-C , 24-H ) :   0.9378 B( 22-C , 25-C ) :   1.0603
B( 25-C , 26-H ) :   0.9584 B( 25-C , 27-H ) :   0.9581 B( 25-C , 28-C ) :   1.0766
B( 28-C , 29-H ) :   0.9748 B( 28-C , 30-H ) :   0.9766 B( 28-C , 31-H ) :   0.9762

Dispersion correction           -0.014803087
FINAL SINGLE POINT ENERGY     -1339.863922698421

DIPOLE MOMENT
-------------
                                X             Y             Z
Electronic contribution:    -26.32343      13.97069      -5.95684
Nuclear contribution   :     26.76415     -14.38999       6.39649
                        -----------------------------------------
Total Dipole Moment    :      0.44072      -0.41930       0.43965
                        -----------------------------------------
Magnitude (a.u.)       :      0.75056
Magnitude (Debye)      :      1.90776

Rotational constants in cm-1:     0.017387     0.009803     0.007267
Rotational constants in MHz :   521.239339   293.877063   217.855754

                             ****ORCA TERMINATED NORMALLY****
TOTAL RUN TIME: 0 days 0 hours 0 minutes 22 seconds 89 msec
