                         Program Version 4.2.1 -  RELEASE  -
|  1> ! wB97X-D3 SP def2-SVP
|  2> %pal
|  3> nprocs 24
|  4> end
|  5>
|  6> * xyz 0 1
|  7> S 	 -131.149 	 70.5234 	 -64.6591
|  8> C 	 -131.146 	 69.8499 	 -66.2434
|  9> C 	 -132.237 	 70.167 	 -67.0289
| 10> C 	 -133.174 	 70.9822 	 -66.2863
| 11> C 	 -132.718 	 71.2769 	 -65.0135
| 12> H 	 -134.078 	 71.5022 	 -66.6083
| 13> C 	 -132.493 	 69.7159 	 -68.4205
| 14> H 	 -133.527 	 69.9999 	 -68.6528
| 15> H 	 -132.312 	 68.6065 	 -68.4802
| 16> C 	 -131.593 	 70.3672 	 -69.4236
| 17> H 	 -130.55 	 70.2136 	 -69.1193
| 18> H 	 -131.713 	 69.9425 	 -70.4649
| 19> C 	 -131.855 	 71.86 	 -69.4886
| 20> H 	 -131.211 	 72.3424 	 -70.2046
| 21> H 	 -132.975 	 71.973 	 -69.6032
| 22> H 	 -131.555 	 72.2602 	 -68.5154
| 23> S 	 -134.01 	 71.3075 	 -62.6022
| 24> C 	 -134.749 	 72.8091 	 -62.1097
| 25> C 	 -134.65 	 73.7618 	 -63.0159
| 26> C 	 -133.999 	 73.3605 	 -64.1849
| 27> C 	 -133.421 	 72.1019 	 -64.0598
| 28> H 	 -135.235 	 74.6925 	 -62.8421
| 29> C 	 -133.752 	 74.3239 	 -65.2984
| 30> H 	 -132.91 	 73.9954 	 -65.9234
| 31> H 	 -133.472 	 75.2026 	 -64.7265
| 32> C 	 -135.072 	 74.8006 	 -66.0505
| 33> H 	 -134.78 	 75.7363 	 -66.5851
| 34> H 	 -135.822 	 74.8715 	 -65.3319
| 35> C 	 -135.517 	 73.8786 	 -67.2151
| 36> H 	 -134.704 	 73.5102 	 -67.9218
| 37> H 	 -136.321 	 74.3373 	 -67.7611
| 38> H 	 -135.845 	 73.0411 	 -66.7252
| 39> H 	 -130.302 	 69.2878 	 -66.5976
| 40> H 	 -135.368 	 72.9424 	 -61.1865
| 41> *
| 42>
| 43>                          ****END OF INPUT****

CARTESIAN COORDINATES (ANGSTROEM)
---------------------------------
  S    -131.149000   70.523400  -64.659100
  C    -131.146000   69.849900  -66.243400
  C    -132.237000   70.167000  -67.028900
  C    -133.174000   70.982200  -66.286300
  C    -132.718000   71.276900  -65.013500
  H    -134.078000   71.502200  -66.608300
  C    -132.493000   69.715900  -68.420500
  H    -133.527000   69.999900  -68.652800
  H    -132.312000   68.606500  -68.480200
  C    -131.593000   70.367200  -69.423600
  H    -130.550000   70.213600  -69.119300
  H    -131.713000   69.942500  -70.464900
  C    -131.855000   71.860000  -69.488600
  H    -131.211000   72.342400  -70.204600
  H    -132.975000   71.973000  -69.603200
  H    -131.555000   72.260200  -68.515400
  S    -134.010000   71.307500  -62.602200
  C    -134.749000   72.809100  -62.109700
  C    -134.650000   73.761800  -63.015900
  C    -133.999000   73.360500  -64.184900
  C    -133.421000   72.101900  -64.059800
  H    -135.235000   74.692500  -62.842100
  C    -133.752000   74.323900  -65.298400
  H    -132.910000   73.995400  -65.923400
  H    -133.472000   75.202600  -64.726500
  C    -135.072000   74.800600  -66.050500
  H    -134.780000   75.736300  -66.585100
  H    -135.822000   74.871500  -65.331900
  C    -135.517000   73.878600  -67.215100
  H    -134.704000   73.510200  -67.921800
  H    -136.321000   74.337300  -67.761100
  H    -135.845000   73.041100  -66.725200
  H    -130.302000   69.287800  -66.597600
  H    -135.368000   72.942400  -61.186500

 Total Charge           Charge          ....    0
 Multiplicity           Mult            ....    1
 Number of Electrons    NEL             ....  134
 Basis Dimension        Dim             ....  322

ORBITAL ENERGIES
----------------

  NO   OCC          E(Eh)            E(eV)
   0   2.0000     -88.967951     -2420.9410
   1   2.0000     -88.960866     -2420.7482
   2   2.0000     -10.326149      -280.9888
   3   2.0000     -10.321085      -280.8510
   4   2.0000     -10.312484      -280.6169
   5   2.0000     -10.310877      -280.5732
   6   2.0000     -10.300780      -280.2985
   7   2.0000     -10.298102      -280.2256
   8   2.0000     -10.295828      -280.1637
   9   2.0000     -10.292024      -280.0602
  10   2.0000     -10.291626      -280.0494
  11   2.0000     -10.290252      -280.0120
  12   2.0000     -10.285681      -279.8876
  13   2.0000     -10.285557      -279.8842
  14   2.0000     -10.277368      -279.6614
  15   2.0000     -10.275388      -279.6075
  16   2.0000      -8.082810      -219.9444
  17   2.0000      -8.076045      -219.7604
  18   2.0000      -6.041183      -164.3889
  19   2.0000      -6.037426      -164.2867
  20   2.0000      -6.034457      -164.2059
  21   2.0000      -6.033597      -164.1825
  22   2.0000      -6.030690      -164.1034
  23   2.0000      -6.026674      -163.9941
  24   2.0000      -1.010046       -27.4847
  25   2.0000      -0.988351       -26.8944
  26   2.0000      -0.922696       -25.1078
  27   2.0000      -0.907374       -24.6909
  28   2.0000      -0.873853       -23.7788
  29   2.0000      -0.853083       -23.2136
  30   2.0000      -0.848523       -23.0895
  31   2.0000      -0.816704       -22.2236
  32   2.0000      -0.782745       -21.2996
  33   2.0000      -0.770365       -20.9627
  34   2.0000      -0.707719       -19.2580
  35   2.0000      -0.698896       -19.0179
  36   2.0000      -0.691402       -18.8140
  37   2.0000      -0.656850       -17.8738
  38   2.0000      -0.642267       -17.4770
  39   2.0000      -0.608887       -16.5687
  40   2.0000      -0.596743       -16.2382
  41   2.0000      -0.580394       -15.7933
  42   2.0000      -0.559825       -15.2336
  43   2.0000      -0.554369       -15.0851
  44   2.0000      -0.547907       -14.9093
  45   2.0000      -0.533462       -14.5162
  46   2.0000      -0.519923       -14.1478
  47   2.0000      -0.514220       -13.9926
  48   2.0000      -0.502364       -13.6700
  49   2.0000      -0.492656       -13.4059
  50   2.0000      -0.485957       -13.2236
  51   2.0000      -0.478405       -13.0181
  52   2.0000      -0.471129       -12.8201
  53   2.0000      -0.468631       -12.7521
  54   2.0000      -0.461845       -12.5674
  55   2.0000      -0.449405       -12.2289
  56   2.0000      -0.442396       -12.0382
  57   2.0000      -0.439223       -11.9519
  58   2.0000      -0.437785       -11.9127
  59   2.0000      -0.427901       -11.6438
  60   2.0000      -0.424477       -11.5506
  61   2.0000      -0.416998       -11.3471
  62   2.0000      -0.407948       -11.1008
  63   2.0000      -0.347241        -9.4489
  64   2.0000      -0.330797        -9.0014
  65   2.0000      -0.326274        -8.8784
  66   2.0000      -0.293965        -7.9992
  67   0.0000       0.035458         0.9649
  68   0.0000       0.066906         1.8206
  69   0.0000       0.113920         3.0999
  70   0.0000       0.121783         3.3139
  71   0.0000       0.123245         3.3537

MULLIKEN ATOMIC CHARGES
-----------------------
   0 S :    0.124562
   1 C :   -0.120234
   2 C :   -0.102205
   3 C :    0.053512
   4 C :   -0.190582
   5 H :   -0.011777
   6 C :    0.084655
   7 H :    0.020400
   8 H :    0.048263
   9 C :   -0.094068
  10 H :    0.022735
  11 H :    0.037648
  12 C :   -0.059153
  13 H :    0.036081
  14 H :    0.037184
  15 H :    0.040022
  16 S :    0.099128
  17 C :   -0.093655
  18 C :   -0.048192
  19 C :   -0.028680
  20 C :   -0.157358
  21 H :    0.032413
  22 C :    0.042346
  23 H :    0.039985
  24 H :    0.030549
  25 C :   -0.068267
  26 H :    0.040864
  27 H :    0.020571
  28 C :   -0.049106
  29 H :    0.045535
  30 H :    0.036758
  31 H :    0.024656
  32 H :    0.041176
  33 H :    0.064237
Sum of atomic charges:   -0.0000000

LOEWDIN ATOMIC CHARGES
----------------------
   0 S :    0.408815
   1 C :   -0.200893
   2 C :   -0.065202
   3 C :   -0.055515
   4 C :   -0.193491
   5 H :    0.033497
   6 C :   -0.035647
   7 H :    0.029504
   8 H :    0.042305
   9 C :   -0.046973
  10 H :    0.020749
  11 H :    0.026221
  12 C :   -0.066375
  13 H :    0.024169
  14 H :    0.028057
  15 H :    0.026093
  16 S :    0.394779
  17 C :   -0.183311
  18 C :   -0.089008
  19 C :   -0.060705
  20 C :   -0.200065
  21 H :    0.041270
  22 C :   -0.030896
  23 H :    0.032755
  24 H :    0.036460
  25 C :   -0.023538
  26 H :    0.029345
  27 H :    0.014762
  28 C :   -0.066634
  29 H :    0.032639
  30 H :    0.025836
  31 H :    0.009554
  32 H :    0.022022
  33 H :    0.039421

  Mayer bond orders larger than 0.100000
B(  0-S ,  1-C ) :   1.1456 B(  0-S ,  4-C ) :   1.1454 B(  1-C ,  2-C ) :   1.6170
B(  1-C , 32-H ) :   0.9658 B(  2-C ,  3-C ) :   1.2121 B(  2-C ,  6-C ) :   1.0164
B(  3-C ,  4-C ) :   1.6028 B(  3-C ,  5-H ) :   0.9865 B(  4-C , 20-C ) :   1.0307
B(  6-C ,  7-H ) :   0.9411 B(  6-C ,  8-H ) :   0.9352 B(  6-C ,  9-C ) :   1.0749
B(  9-C , 10-H ) :   0.9536 B(  9-C , 11-H ) :   0.9558 B(  9-C , 12-C ) :   1.0734
B( 12-C , 13-H ) :   0.9704 B( 12-C , 14-H ) :   0.9724 B( 12-C , 15-H ) :   0.9723
B( 16-S , 17-C ) :   1.1437 B( 16-S , 20-C ) :   1.1370 B( 17-C , 18-C ) :   1.6614
B( 17-C , 33-H ) :   0.9542 B( 18-C , 19-C ) :   1.2241 B( 18-C , 21-H ) :   0.9776
B( 19-C , 20-C ) :   1.5973 B( 19-C , 22-C ) :   1.0406 B( 22-C , 23-H ) :   0.9451
B( 22-C , 24-H ) :   0.9346 B( 22-C , 25-C ) :   1.0545 B( 25-C , 26-H ) :   0.9617
B( 25-C , 27-H ) :   0.9589 B( 25-C , 28-C ) :   1.0731 B( 28-C , 29-H ) :   0.9729
B( 28-C , 30-H ) :   0.9686 B( 28-C , 31-H ) :   0.9679

Dispersion correction           -0.015932522
FINAL SINGLE POINT ENERGY     -1339.875128007834

DIPOLE MOMENT
-------------
                                X             Y             Z
Electronic contribution:      5.61543     -10.72016      26.74937
Nuclear contribution   :     -5.85943      11.08448     -27.23276
                        -----------------------------------------
Total Dipole Moment    :     -0.24400       0.36432      -0.48338
                        -----------------------------------------
Magnitude (a.u.)       :      0.65263
Magnitude (Debye)      :      1.65884

Rotational constants in cm-1:     0.019169     0.010215     0.007325
Rotational constants in MHz :   574.684163   306.234083   219.603236

                             ****ORCA TERMINATED NORMALLY****
TOTAL RUN TIME: 0 days 0 hours 0 minutes 23 seconds 218 msec
