                         Program Version 4.2.1 -  RELEASE  -
|  1> ! wB97X-D3 SP def2-SVP
|  2> %pal
|  3> nprocs 24
|  4> end
|  5>
|  6> * xyz 0 1
|  7> S 	 -59.5819 	 -58.1742 	 -79.0641
|  8> C 	 -60.6245 	 -58.8346 	 -77.8386
|  9> C 	 -61.0197 	 -57.8051 	 -76.983
| 10> C 	 -60.4401 	 -56.5229 	 -77.2998
| 11> C 	 -59.5084 	 -56.5146 	 -78.2988
| 12> H 	 -60.6432 	 -55.653 	 -76.7886
| 13> C 	 -61.7383 	 -58.0956 	 -75.701
| 14> H 	 -61.8898 	 -59.1892 	 -75.6591
| 15> H 	 -62.6721 	 -57.6303 	 -75.7672
| 16> C 	 -61.1869 	 -57.6026 	 -74.3778
| 17> H 	 -60.1209 	 -57.7389 	 -74.2266
| 18> H 	 -61.3262 	 -56.5505 	 -74.3686
| 19> C 	 -61.9786 	 -58.2948 	 -73.363
| 20> H 	 -61.8637 	 -59.3866 	 -73.4514
| 21> H 	 -61.7554 	 -57.8935 	 -72.3733
| 22> H 	 -63.0718 	 -58.1605 	 -73.5743
| 23> S 	 -57.5579 	 -55.8371 	 -80.1085
| 24> C 	 -57.1691 	 -54.1633 	 -80.4151
| 25> C 	 -57.9006 	 -53.3432 	 -79.604
| 26> C 	 -58.7969 	 -54.0514 	 -78.7395
| 27> C 	 -58.7934 	 -55.4079 	 -78.9314
| 28> H 	 -57.7182 	 -52.2476 	 -79.6286
| 29> C 	 -59.7964 	 -53.3782 	 -77.8072
| 30> H 	 -60.7344 	 -53.874 	 -77.9128
| 31> H 	 -59.8967 	 -52.3434 	 -78.2209
| 32> C 	 -59.5298 	 -53.3399 	 -76.3569
| 33> H 	 -58.6489 	 -52.7499 	 -76.1208
| 34> H 	 -59.2239 	 -54.3396 	 -75.9545
| 35> C 	 -60.6918 	 -52.7643 	 -75.5873
| 36> H 	 -60.3592 	 -52.5063 	 -74.5601
| 37> H 	 -61.462 	 -53.544 	 -75.572
| 38> H 	 -61.0698 	 -51.7832 	 -75.9795
| 39> H 	 -60.867 	 -59.8725 	 -77.5952
| 40> H 	 -56.3797 	 -53.8374 	 -81.07
| 41> *
| 42>
| 43>                          ****END OF INPUT****

CARTESIAN COORDINATES (ANGSTROEM)
---------------------------------
  S    -59.581900  -58.174200  -79.064100
  C    -60.624500  -58.834600  -77.838600
  C    -61.019700  -57.805100  -76.983000
  C    -60.440100  -56.522900  -77.299800
  C    -59.508400  -56.514600  -78.298800
  H    -60.643200  -55.653000  -76.788600
  C    -61.738300  -58.095600  -75.701000
  H    -61.889800  -59.189200  -75.659100
  H    -62.672100  -57.630300  -75.767200
  C    -61.186900  -57.602600  -74.377800
  H    -60.120900  -57.738900  -74.226600
  H    -61.326200  -56.550500  -74.368600
  C    -61.978600  -58.294800  -73.363000
  H    -61.863700  -59.386600  -73.451400
  H    -61.755400  -57.893500  -72.373300
  H    -63.071800  -58.160500  -73.574300
  S    -57.557900  -55.837100  -80.108500
  C    -57.169100  -54.163300  -80.415100
  C    -57.900600  -53.343200  -79.604000
  C    -58.796900  -54.051400  -78.739500
  C    -58.793400  -55.407900  -78.931400
  H    -57.718200  -52.247600  -79.628600
  C    -59.796400  -53.378200  -77.807200
  H    -60.734400  -53.874000  -77.912800
  H    -59.896700  -52.343400  -78.220900
  C    -59.529800  -53.339900  -76.356900
  H    -58.648900  -52.749900  -76.120800
  H    -59.223900  -54.339600  -75.954500
  C    -60.691800  -52.764300  -75.587300
  H    -60.359200  -52.506300  -74.560100
  H    -61.462000  -53.544000  -75.572000
  H    -61.069800  -51.783200  -75.979500
  H    -60.867000  -59.872500  -77.595200
  H    -56.379700  -53.837400  -81.070000

 Total Charge           Charge          ....    0
 Multiplicity           Mult            ....    1
 Number of Electrons    NEL             ....  134
 Basis Dimension        Dim             ....  322

ORBITAL ENERGIES
----------------

  NO   OCC          E(Eh)            E(eV)
   0   2.0000     -88.964571     -2420.8491
   1   2.0000     -88.963224     -2420.8124
   2   2.0000     -10.338871      -281.3350
   3   2.0000     -10.330232      -281.0999
   4   2.0000     -10.318687      -280.7857
   5   2.0000     -10.315720      -280.7050
   6   2.0000     -10.305011      -280.4136
   7   2.0000     -10.299538      -280.2647
   8   2.0000     -10.299100      -280.2528
   9   2.0000     -10.290891      -280.0294
  10   2.0000     -10.290724      -280.0248
  11   2.0000     -10.287232      -279.9298
  12   2.0000     -10.285271      -279.8764
  13   2.0000     -10.284637      -279.8592
  14   2.0000     -10.279365      -279.7158
  15   2.0000     -10.277977      -279.6780
  16   2.0000      -8.079539      -219.8554
  17   2.0000      -8.076876      -219.7830
  18   2.0000      -6.038048      -164.3037
  19   2.0000      -6.035751      -164.2411
  20   2.0000      -6.034058      -164.1951
  21   2.0000      -6.031523      -164.1261
  22   2.0000      -6.030221      -164.0907
  23   2.0000      -6.027292      -164.0109
  24   2.0000      -1.008002       -27.4291
  25   2.0000      -0.983489       -26.7621
  26   2.0000      -0.926893       -25.2220
  27   2.0000      -0.922805       -25.1108
  28   2.0000      -0.876829       -23.8597
  29   2.0000      -0.856630       -23.3101
  30   2.0000      -0.846011       -23.0211
  31   2.0000      -0.823954       -22.4209
  32   2.0000      -0.782169       -21.2839
  33   2.0000      -0.766107       -20.8468
  34   2.0000      -0.714660       -19.4469
  35   2.0000      -0.699829       -19.0433
  36   2.0000      -0.694109       -18.8877
  37   2.0000      -0.668439       -18.1891
  38   2.0000      -0.642969       -17.4961
  39   2.0000      -0.629309       -17.1244
  40   2.0000      -0.602773       -16.4023
  41   2.0000      -0.583646       -15.8818
  42   2.0000      -0.571751       -15.5581
  43   2.0000      -0.568296       -15.4641
  44   2.0000      -0.531446       -14.4614
  45   2.0000      -0.529356       -14.4045
  46   2.0000      -0.519686       -14.1414
  47   2.0000      -0.514172       -13.9913
  48   2.0000      -0.507980       -13.8228
  49   2.0000      -0.503223       -13.6934
  50   2.0000      -0.498899       -13.5757
  51   2.0000      -0.481874       -13.1125
  52   2.0000      -0.479074       -13.0363
  53   2.0000      -0.470999       -12.8165
  54   2.0000      -0.454832       -12.3766
  55   2.0000      -0.449817       -12.2401
  56   2.0000      -0.446291       -12.1442
  57   2.0000      -0.440318       -11.9817
  58   2.0000      -0.437881       -11.9154
  59   2.0000      -0.423219       -11.5164
  60   2.0000      -0.419523       -11.4158
  61   2.0000      -0.416144       -11.3239
  62   2.0000      -0.404594       -11.0096
  63   2.0000      -0.366583        -9.9752
  64   2.0000      -0.334718        -9.1081
  65   2.0000      -0.324501        -8.8301
  66   2.0000      -0.286334        -7.7915
  67   0.0000       0.017920         0.4876
  68   0.0000       0.085702         2.3321
  69   0.0000       0.098636         2.6840
  70   0.0000       0.118708         3.2302
  71   0.0000       0.123044         3.3482

MULLIKEN ATOMIC CHARGES
-----------------------
   0 S :    0.079043
   1 C :   -0.102408
   2 C :   -0.082684
   3 C :    0.028165
   4 C :   -0.054782
   5 H :   -0.064389
   6 C :    0.037023
   7 H :    0.008048
   8 H :    0.018000
   9 C :   -0.030128
  10 H :    0.032047
  11 H :    0.014616
  12 C :   -0.043449
  13 H :    0.032448
  14 H :    0.034837
  15 H :    0.021873
  16 S :    0.091830
  17 C :   -0.079538
  18 C :   -0.039324
  19 C :   -0.058296
  20 C :   -0.113152
  21 H :    0.032024
  22 C :    0.039968
  23 H :    0.020320
  24 H :    0.025049
  25 C :   -0.076374
  26 H :    0.014076
  27 H :    0.036244
  28 C :   -0.044167
  29 H :    0.038105
  30 H :    0.033041
  31 H :    0.038216
  32 H :    0.056574
  33 H :    0.057145
Sum of atomic charges:   -0.0000000

LOEWDIN ATOMIC CHARGES
----------------------
   0 S :    0.368443
   1 C :   -0.201752
   2 C :   -0.062303
   3 C :   -0.062862
   4 C :   -0.152178
   5 H :    0.011892
   6 C :   -0.030129
   7 H :    0.028223
   8 H :    0.026654
   9 C :   -0.040914
  10 H :    0.024832
  11 H :    0.018777
  12 C :   -0.062176
  13 H :    0.027530
  14 H :    0.025400
  15 H :    0.028646
  16 S :    0.400301
  17 C :   -0.177554
  18 C :   -0.077017
  19 C :   -0.057492
  20 C :   -0.187190
  21 H :    0.039988
  22 C :   -0.034613
  23 H :    0.025651
  24 H :    0.036190
  25 C :   -0.054200
  26 H :    0.021934
  27 H :    0.028285
  28 C :   -0.063790
  29 H :    0.031192
  30 H :    0.021505
  31 H :    0.031023
  32 H :    0.036823
  33 H :    0.030882

  Mayer bond orders larger than 0.100000
B(  0-S ,  1-C ) :   1.1252 B(  0-S ,  4-C ) :   1.1123 B(  1-C ,  2-C ) :   1.6227
B(  1-C , 32-H ) :   0.9593 B(  2-C ,  3-C ) :   1.2198 B(  2-C ,  6-C ) :   1.0337
B(  3-C ,  4-C ) :   1.5865 B(  3-C ,  5-H ) :   1.0040 B(  4-C , 20-C ) :   1.0779
B(  6-C ,  7-H ) :   0.9517 B(  6-C ,  8-H ) :   0.9186 B(  6-C ,  9-C ) :   1.0670
B(  9-C , 10-H ) :   0.9544 B(  9-C , 11-H ) :   0.9388 B(  9-C , 12-C ) :   1.0991
B( 12-C , 13-H ) :   0.9724 B( 12-C , 14-H ) :   0.9678 B( 12-C , 15-H ) :   0.9667
B( 16-S , 17-C ) :   1.1558 B( 16-S , 20-C ) :   1.1232 B( 17-C , 18-C ) :   1.6117
B( 17-C , 33-H ) :   0.9688 B( 18-C , 19-C ) :   1.2473 B( 18-C , 21-H ) :   0.9857
B( 19-C , 20-C ) :   1.6034 B( 19-C , 22-C ) :   1.0307 B( 22-C , 23-H ) :   0.9383
B( 22-C , 24-H ) :   0.9271 B( 22-C , 25-C ) :   1.0712 B( 25-C , 26-H ) :   0.9413
B( 25-C , 27-H ) :   0.9477 B( 25-C , 28-C ) :   1.0854 B( 28-C , 29-H ) :   0.9718
B( 28-C , 30-H ) :   0.9724 B( 28-C , 31-H ) :   0.9695

Dispersion correction           -0.014280541
FINAL SINGLE POINT ENERGY     -1339.877504922565

DIPOLE MOMENT
-------------
                                X             Y             Z
Electronic contribution:     15.17095      -8.30441     -28.28173
Nuclear contribution   :    -15.35742       8.83096      28.91205
                        -----------------------------------------
Total Dipole Moment    :     -0.18647       0.52654       0.63032
                        -----------------------------------------
Magnitude (a.u.)       :      0.84221
Magnitude (Debye)      :      2.14073

Rotational constants in cm-1:     0.018757     0.009504     0.006573
Rotational constants in MHz :   562.327105   284.918156   197.064401

                             ****ORCA TERMINATED NORMALLY****
TOTAL RUN TIME: 0 days 0 hours 0 minutes 21 seconds 143 msec
