                         Program Version 4.2.1 -  RELEASE  -
|  1> ! wB97X-D3 SP def2-SVP
|  2> %pal
|  3> nprocs 24
|  4> end
|  5>
|  6> * xyz 0 1
|  7> S 	 -41.0451 	 13.0718 	 -10.2509
|  8> C 	 -40.6817 	 11.6083 	 -11.1687
|  9> C 	 -40.2578 	 10.5933 	 -10.3473
| 10> C 	 -40.3779 	 10.9559 	 -8.95366
| 11> C 	 -40.6962 	 12.3045 	 -8.75345
| 12> H 	 -40.2182 	 10.4181 	 -8.08584
| 13> C 	 -40.0074 	 9.20458 	 -10.8802
| 14> H 	 -38.9656 	 9.18429 	 -11.1191
| 15> H 	 -40.5585 	 9.02789 	 -11.8378
| 16> C 	 -40.2547 	 7.94621 	 -9.9797
| 17> H 	 -39.6143 	 7.87286 	 -9.11787
| 18> H 	 -41.2425 	 7.87242 	 -9.50475
| 19> C 	 -39.9162 	 6.60151 	 -10.7561
| 20> H 	 -38.7867 	 6.52388 	 -10.7868
| 21> H 	 -40.1697 	 5.75906 	 -10.1313
| 22> H 	 -40.4137 	 6.47375 	 -11.7185
| 23> S 	 -42.3954 	 13.5257 	 -7.00433
| 24> C 	 -41.9515 	 13.6416 	 -5.35449
| 25> C 	 -40.6107 	 13.4245 	 -5.18786
| 26> C 	 -39.9178 	 13.0015 	 -6.39927
| 27> C 	 -40.8016 	 12.8898 	 -7.46222
| 28> H 	 -40.1773 	 13.5741 	 -4.24169
| 29> C 	 -38.4734 	 12.5487 	 -6.42331
| 30> H 	 -38.3264 	 11.6013 	 -6.90003
| 31> H 	 -38.2549 	 12.4018 	 -5.37995
| 32> C 	 -37.4754 	 13.5504 	 -6.94631
| 33> H 	 -37.7314 	 14.517 	 -6.50406
| 34> H 	 -37.4412 	 13.6562 	 -8.02291
| 35> C 	 -36.0814 	 13.2672 	 -6.42427
| 36> H 	 -35.8801 	 12.2773 	 -6.88452
| 37> H 	 -36.0862 	 13.1692 	 -5.35515
| 38> H 	 -35.222 	 13.9835 	 -6.72592
| 39> H 	 -40.7957 	 11.5678 	 -12.2685
| 40> H 	 -42.5358 	 14.0881 	 -4.56124
| 41> *
| 42>
| 43>                          ****END OF INPUT****

CARTESIAN COORDINATES (ANGSTROEM)
---------------------------------
  S    -41.045100   13.071800  -10.250900
  C    -40.681700   11.608300  -11.168700
  C    -40.257800   10.593300  -10.347300
  C    -40.377900   10.955900   -8.953660
  C    -40.696200   12.304500   -8.753450
  H    -40.218200   10.418100   -8.085840
  C    -40.007400    9.204580  -10.880200
  H    -38.965600    9.184290  -11.119100
  H    -40.558500    9.027890  -11.837800
  C    -40.254700    7.946210   -9.979700
  H    -39.614300    7.872860   -9.117870
  H    -41.242500    7.872420   -9.504750
  C    -39.916200    6.601510  -10.756100
  H    -38.786700    6.523880  -10.786800
  H    -40.169700    5.759060  -10.131300
  H    -40.413700    6.473750  -11.718500
  S    -42.395400   13.525700   -7.004330
  C    -41.951500   13.641600   -5.354490
  C    -40.610700   13.424500   -5.187860
  C    -39.917800   13.001500   -6.399270
  C    -40.801600   12.889800   -7.462220
  H    -40.177300   13.574100   -4.241690
  C    -38.473400   12.548700   -6.423310
  H    -38.326400   11.601300   -6.900030
  H    -38.254900   12.401800   -5.379950
  C    -37.475400   13.550400   -6.946310
  H    -37.731400   14.517000   -6.504060
  H    -37.441200   13.656200   -8.022910
  C    -36.081400   13.267200   -6.424270
  H    -35.880100   12.277300   -6.884520
  H    -36.086200   13.169200   -5.355150
  H    -35.222000   13.983500   -6.725920
  H    -40.795700   11.567800  -12.268500
  H    -42.535800   14.088100   -4.561240

 Total Charge           Charge          ....    0
 Multiplicity           Mult            ....    1
 Number of Electrons    NEL             ....  134
 Basis Dimension        Dim             ....  322

ORBITAL ENERGIES
----------------

  NO   OCC          E(Eh)            E(eV)
   0   2.0000     -88.965817     -2420.8830
   1   2.0000     -88.961411     -2420.7631
   2   2.0000     -10.324344      -280.9397
   3   2.0000     -10.323981      -280.9298
   4   2.0000     -10.315838      -280.7082
   5   2.0000     -10.313769      -280.6519
   6   2.0000     -10.307001      -280.4678
   7   2.0000     -10.304662      -280.4041
   8   2.0000     -10.296947      -280.1942
   9   2.0000     -10.293020      -280.0873
  10   2.0000     -10.291596      -280.0486
  11   2.0000     -10.290993      -280.0321
  12   2.0000     -10.287094      -279.9261
  13   2.0000     -10.286391      -279.9069
  14   2.0000     -10.281101      -279.7630
  15   2.0000     -10.279017      -279.7063
  16   2.0000      -8.080787      -219.8894
  17   2.0000      -8.076825      -219.7816
  18   2.0000      -6.039252      -164.3364
  19   2.0000      -6.035288      -164.2285
  20   2.0000      -6.035196      -164.2260
  21   2.0000      -6.031660      -164.1298
  22   2.0000      -6.031266      -164.1191
  23   2.0000      -6.027544      -164.0178
  24   2.0000      -1.008647       -27.4467
  25   2.0000      -0.984407       -26.7871
  26   2.0000      -0.916864       -24.9491
  27   2.0000      -0.906728       -24.6733
  28   2.0000      -0.873184       -23.7605
  29   2.0000      -0.852161       -23.1885
  30   2.0000      -0.844167       -22.9710
  31   2.0000      -0.815055       -22.1788
  32   2.0000      -0.781500       -21.2657
  33   2.0000      -0.770157       -20.9570
  34   2.0000      -0.712950       -19.4004
  35   2.0000      -0.696530       -18.9535
  36   2.0000      -0.689502       -18.7623
  37   2.0000      -0.663718       -18.0607
  38   2.0000      -0.647105       -17.6086
  39   2.0000      -0.616801       -16.7840
  40   2.0000      -0.599229       -16.3058
  41   2.0000      -0.573947       -15.6179
  42   2.0000      -0.566333       -15.4107
  43   2.0000      -0.564527       -15.3616
  44   2.0000      -0.523320       -14.2403
  45   2.0000      -0.521455       -14.1895
  46   2.0000      -0.519360       -14.1325
  47   2.0000      -0.511256       -13.9120
  48   2.0000      -0.506785       -13.7903
  49   2.0000      -0.499205       -13.5841
  50   2.0000      -0.495726       -13.4894
  51   2.0000      -0.482610       -13.1325
  52   2.0000      -0.468177       -12.7397
  53   2.0000      -0.465884       -12.6774
  54   2.0000      -0.454683       -12.3726
  55   2.0000      -0.451306       -12.2807
  56   2.0000      -0.448875       -12.2145
  57   2.0000      -0.435757       -11.8576
  58   2.0000      -0.432724       -11.7750
  59   2.0000      -0.426214       -11.5979
  60   2.0000      -0.419913       -11.4264
  61   2.0000      -0.417059       -11.3488
  62   2.0000      -0.409290       -11.1373
  63   2.0000      -0.341260        -9.2862
  64   2.0000      -0.330647        -8.9974
  65   2.0000      -0.328377        -8.9356
  66   2.0000      -0.296359        -8.0643
  67   0.0000       0.032230         0.8770
  68   0.0000       0.068016         1.8508
  69   0.0000       0.119560         3.2534
  70   0.0000       0.124382         3.3846
  71   0.0000       0.131517         3.5788

MULLIKEN ATOMIC CHARGES
-----------------------
   0 S :    0.117510
   1 C :   -0.157717
   2 C :   -0.026374
   3 C :    0.046576
   4 C :   -0.153805
   5 H :   -0.014233
   6 C :    0.058628
   7 H :    0.030765
   8 H :    0.037464
   9 C :   -0.091474
  10 H :    0.022145
  11 H :    0.037630
  12 C :   -0.077276
  13 H :    0.038714
  14 H :    0.028345
  15 H :    0.045291
  16 S :    0.105673
  17 C :   -0.074706
  18 C :   -0.039341
  19 C :   -0.024618
  20 C :   -0.183378
  21 H :    0.000689
  22 C :    0.097952
  23 H :    0.019378
  24 H :   -0.000415
  25 C :   -0.045621
  26 H :    0.018647
  27 H :    0.040121
  28 C :   -0.081876
  29 H :    0.023693
  30 H :    0.026409
  31 H :    0.054048
  32 H :    0.062963
  33 H :    0.058192
Sum of atomic charges:    0.0000000

LOEWDIN ATOMIC CHARGES
----------------------
   0 S :    0.412477
   1 C :   -0.196533
   2 C :   -0.062254
   3 C :   -0.051359
   4 C :   -0.209792
   5 H :    0.017826
   6 C :   -0.033787
   7 H :    0.033132
   8 H :    0.037225
   9 C :   -0.042980
  10 H :    0.020131
  11 H :    0.023884
  12 C :   -0.067278
  13 H :    0.031720
  14 H :    0.024611
  15 H :    0.023536
  16 S :    0.406649
  17 C :   -0.193693
  18 C :   -0.070296
  19 C :   -0.045741
  20 C :   -0.190732
  21 H :    0.021862
  22 C :   -0.027151
  23 H :    0.026659
  24 H :    0.028809
  25 C :   -0.039669
  26 H :    0.022238
  27 H :    0.025805
  28 C :   -0.071327
  29 H :    0.024639
  30 H :    0.017162
  31 H :    0.036580
  32 H :    0.034642
  33 H :    0.033003

  Mayer bond orders larger than 0.100000
B(  0-S ,  1-C ) :   1.1343 B(  0-S ,  4-C ) :   1.1584 B(  1-C ,  2-C ) :   1.6076
B(  1-C , 32-H ) :   0.9694 B(  2-C ,  3-C ) :   1.2221 B(  2-C ,  6-C ) :   1.0135
B(  3-C ,  4-C ) :   1.5615 B(  3-C ,  5-H ) :   1.0047 B(  4-C , 20-C ) :   1.0598
B(  6-C ,  7-H ) :   0.9248 B(  6-C ,  8-H ) :   0.9548 B(  6-C ,  9-C ) :   1.0654
B(  9-C , 10-H ) :   0.9498 B(  9-C , 11-H ) :   0.9623 B(  9-C , 12-C ) :   1.0785
B( 12-C , 13-H ) :   0.9780 B( 12-C , 14-H ) :   0.9740 B( 12-C , 15-H ) :   0.9789
B( 16-S , 17-C ) :   1.1580 B( 16-S , 20-C ) :   1.1295 B( 17-C , 18-C ) :   1.6272
B( 17-C , 33-H ) :   0.9630 B( 18-C , 19-C ) :   1.2239 B( 18-C , 21-H ) :   0.9944
B( 19-C , 20-C ) :   1.6003 B( 19-C , 22-C ) :   1.0457 B( 22-C , 23-H ) :   0.9280
B( 22-C , 24-H ) :   0.9268 B( 22-C , 25-C ) :   1.0660 B( 25-C , 26-H ) :   0.9527
B( 25-C , 27-H ) :   0.9554 B( 25-C , 28-C ) :   1.0764 B( 28-C , 29-H ) :   0.9738
B( 28-C , 30-H ) :   0.9759 B( 28-C , 31-H ) :   0.9738

Dispersion correction           -0.013583918
FINAL SINGLE POINT ENERGY     -1339.875316873872

DIPOLE MOMENT
-------------
                                X             Y             Z
Electronic contribution:    -20.39363      19.15428      -0.51022
Nuclear contribution   :     20.79950     -19.63255       0.71297
                        -----------------------------------------
Total Dipole Moment    :      0.40587      -0.47827       0.20275
                        -----------------------------------------
Magnitude (a.u.)       :      0.65922
Magnitude (Debye)      :      1.67561

Rotational constants in cm-1:     0.016558     0.008129     0.006923
Rotational constants in MHz :   496.407262   243.700522   207.535821

                             ****ORCA TERMINATED NORMALLY****
TOTAL RUN TIME: 0 days 0 hours 0 minutes 21 seconds 158 msec
