                         Program Version 4.2.1 -  RELEASE  -
|  1> ! wB97X-D3 SP def2-SVP
|  2> %pal
|  3> nprocs 24
|  4> end
|  5>
|  6> * xyz 0 1
|  7> S 	 15.6502 	 -11.5312 	 -127.209
|  8> C 	 14.7091 	 -12.3853 	 -128.386
|  9> C 	 14.5496 	 -13.7332 	 -128.059
| 10> C 	 15.0759 	 -14.0098 	 -126.711
| 11> C 	 15.5617 	 -12.8727 	 -126.088
| 12> H 	 15.1347 	 -14.9498 	 -126.151
| 13> C 	 13.9287 	 -14.7657 	 -129.003
| 14> H 	 14.4792 	 -15.6499 	 -128.921
| 15> H 	 14.1662 	 -14.4672 	 -129.988
| 16> C 	 12.4374 	 -14.9726 	 -128.795
| 17> H 	 12.0571 	 -15.6268 	 -129.524
| 18> H 	 12.4015 	 -15.5518 	 -127.884
| 19> C 	 11.5679 	 -13.6513 	 -128.949
| 20> H 	 11.5657 	 -13.1169 	 -129.898
| 21> H 	 10.6052 	 -14.0746 	 -128.666
| 22> H 	 12.0086 	 -13.0076 	 -128.248
| 23> S 	 18.012 	 -12.3241 	 -124.993
| 24> C 	 18.148 	 -12.4225 	 -123.28
| 25> C 	 16.9412 	 -12.7183 	 -122.665
| 26> C 	 15.8786 	 -12.9051 	 -123.573
| 27> C 	 16.3407 	 -12.8391 	 -124.868
| 28> H 	 16.8812 	 -12.7195 	 -121.565
| 29> C 	 14.4732 	 -13.1224 	 -123.049
| 30> H 	 13.7183 	 -13.0998 	 -123.859
| 31> H 	 14.2391 	 -12.417 	 -122.248
| 32> C 	 14.3179 	 -14.546 	 -122.376
| 33> H 	 13.4153 	 -14.6168 	 -121.866
| 34> H 	 15.1296 	 -14.7272 	 -121.719
| 35> C 	 14.3441 	 -15.6502 	 -123.495
| 36> H 	 15.2828 	 -15.4943 	 -124.076
| 37> H 	 13.4468 	 -15.6554 	 -124.159
| 38> H 	 14.298 	 -16.6821 	 -123.073
| 39> H 	 14.3856 	 -11.9493 	 -129.318
| 40> H 	 18.9888 	 -12.0509 	 -122.782
| 41> *
| 42>
| 43>                          ****END OF INPUT****

CARTESIAN COORDINATES (ANGSTROEM)
---------------------------------
  S     15.650200  -11.531200  -127.209000
  C     14.709100  -12.385300  -128.386000
  C     14.549600  -13.733200  -128.059000
  C     15.075900  -14.009800  -126.711000
  C     15.561700  -12.872700  -126.088000
  H     15.134700  -14.949800  -126.151000
  C     13.928700  -14.765700  -129.003000
  H     14.479200  -15.649900  -128.921000
  H     14.166200  -14.467200  -129.988000
  C     12.437400  -14.972600  -128.795000
  H     12.057100  -15.626800  -129.524000
  H     12.401500  -15.551800  -127.884000
  C     11.567900  -13.651300  -128.949000
  H     11.565700  -13.116900  -129.898000
  H     10.605200  -14.074600  -128.666000
  H     12.008600  -13.007600  -128.248000
  S     18.012000  -12.324100  -124.993000
  C     18.148000  -12.422500  -123.280000
  C     16.941200  -12.718300  -122.665000
  C     15.878600  -12.905100  -123.573000
  C     16.340700  -12.839100  -124.868000
  H     16.881200  -12.719500  -121.565000
  C     14.473200  -13.122400  -123.049000
  H     13.718300  -13.099800  -123.859000
  H     14.239100  -12.417000  -122.248000
  C     14.317900  -14.546000  -122.376000
  H     13.415300  -14.616800  -121.866000
  H     15.129600  -14.727200  -121.719000
  C     14.344100  -15.650200  -123.495000
  H     15.282800  -15.494300  -124.076000
  H     13.446800  -15.655400  -124.159000
  H     14.298000  -16.682100  -123.073000
  H     14.385600  -11.949300  -129.318000
  H     18.988800  -12.050900  -122.782000

 Total Charge           Charge          ....    0
 Multiplicity           Mult            ....    1
 Number of Electrons    NEL             ....  134
 Basis Dimension        Dim             ....  322

ORBITAL ENERGIES
----------------

  NO   OCC          E(Eh)            E(eV)
   0   2.0000     -88.966771     -2420.9089
   1   2.0000     -88.963626     -2420.8233
   2   2.0000     -10.323661      -280.9211
   3   2.0000     -10.321873      -280.8724
   4   2.0000     -10.313064      -280.6327
   5   2.0000     -10.310559      -280.5646
   6   2.0000     -10.305944      -280.4390
   7   2.0000     -10.301108      -280.3074
   8   2.0000     -10.298323      -280.2316
   9   2.0000     -10.296473      -280.1813
  10   2.0000     -10.293161      -280.0911
  11   2.0000     -10.283941      -279.8403
  12   2.0000     -10.283148      -279.8187
  13   2.0000     -10.281183      -279.7652
  14   2.0000     -10.280325      -279.7419
  15   2.0000     -10.274373      -279.5799
  16   2.0000      -8.082105      -219.9252
  17   2.0000      -8.078748      -219.8339
  18   2.0000      -6.040458      -164.3692
  19   2.0000      -6.037238      -164.2816
  20   2.0000      -6.036649      -164.2656
  21   2.0000      -6.033218      -164.1722
  22   2.0000      -6.032874      -164.1628
  23   2.0000      -6.029497      -164.0710
  24   2.0000      -1.009632       -27.4735
  25   2.0000      -0.983433       -26.7606
  26   2.0000      -0.911019       -24.7901
  27   2.0000      -0.906739       -24.6736
  28   2.0000      -0.867139       -23.5960
  29   2.0000      -0.848556       -23.0904
  30   2.0000      -0.840542       -22.8723
  31   2.0000      -0.810518       -22.0553
  32   2.0000      -0.783697       -21.3255
  33   2.0000      -0.773864       -21.0579
  34   2.0000      -0.709718       -19.3124
  35   2.0000      -0.700161       -19.0524
  36   2.0000      -0.694071       -18.8866
  37   2.0000      -0.658703       -17.9242
  38   2.0000      -0.644506       -17.5379
  39   2.0000      -0.613265       -16.6878
  40   2.0000      -0.600914       -16.3517
  41   2.0000      -0.568853       -15.4793
  42   2.0000      -0.555873       -15.1261
  43   2.0000      -0.547949       -14.9105
  44   2.0000      -0.544688       -14.8217
  45   2.0000      -0.537925       -14.6377
  46   2.0000      -0.517400       -14.0792
  47   2.0000      -0.512611       -13.9489
  48   2.0000      -0.499329       -13.5874
  49   2.0000      -0.492793       -13.4096
  50   2.0000      -0.488513       -13.2931
  51   2.0000      -0.479787       -13.0557
  52   2.0000      -0.469948       -12.7879
  53   2.0000      -0.464059       -12.6277
  54   2.0000      -0.459740       -12.5102
  55   2.0000      -0.449120       -12.2212
  56   2.0000      -0.444833       -12.1045
  57   2.0000      -0.436364       -11.8741
  58   2.0000      -0.431230       -11.7344
  59   2.0000      -0.427778       -11.6404
  60   2.0000      -0.424688       -11.5563
  61   2.0000      -0.422316       -11.4918
  62   2.0000      -0.402380       -10.9493
  63   2.0000      -0.341303        -9.2873
  64   2.0000      -0.333886        -9.0855
  65   2.0000      -0.324103        -8.8193
  66   2.0000      -0.295882        -8.0514
  67   0.0000       0.036185         0.9847
  68   0.0000       0.061418         1.6713
  69   0.0000       0.110239         2.9998
  70   0.0000       0.123423         3.3585
  71   0.0000       0.130701         3.5566

MULLIKEN ATOMIC CHARGES
-----------------------
   0 S :    0.106534
   1 C :   -0.112025
   2 C :   -0.132270
   3 C :    0.032360
   4 C :   -0.156065
   5 H :    0.015233
   6 C :    0.124122
   7 H :    0.006728
   8 H :   -0.001227
   9 C :   -0.062203
  10 H :    0.015613
  11 H :    0.026140
  12 C :   -0.046249
  13 H :    0.039342
  14 H :    0.042172
  15 H :    0.038436
  16 S :    0.118827
  17 C :   -0.076300
  18 C :   -0.044181
  19 C :   -0.023717
  20 C :   -0.189628
  21 H :    0.026474
  22 C :    0.069602
  23 H :    0.035391
  24 H :    0.037480
  25 C :   -0.037044
  26 H :    0.020175
  27 H :    0.024898
  28 C :   -0.120288
  29 H :    0.062469
  30 H :    0.038160
  31 H :    0.037007
  32 H :    0.045232
  33 H :    0.038801
Sum of atomic charges:   -0.0000000

LOEWDIN ATOMIC CHARGES
----------------------
   0 S :    0.407073
   1 C :   -0.201555
   2 C :   -0.055959
   3 C :   -0.059787
   4 C :   -0.198021
   5 H :    0.033824
   6 C :   -0.028918
   7 H :    0.024578
   8 H :    0.021519
   9 C :   -0.032494
  10 H :    0.015498
  11 H :    0.025294
  12 C :   -0.058732
  13 H :    0.027656
  14 H :    0.031719
  15 H :    0.017999
  16 S :    0.418361
  17 C :   -0.185857
  18 C :   -0.070167
  19 C :   -0.057299
  20 C :   -0.205258
  21 H :    0.034478
  22 C :   -0.022755
  23 H :    0.033191
  24 H :    0.034131
  25 C :   -0.024578
  26 H :    0.013918
  27 H :    0.017594
  28 C :   -0.076610
  29 H :    0.027111
  30 H :    0.025185
  31 H :    0.027367
  32 H :    0.025089
  33 H :    0.016407

  Mayer bond orders larger than 0.100000
B(  0-S ,  1-C ) :   1.1439 B(  0-S ,  4-C ) :   1.1482 B(  1-C ,  2-C ) :   1.6065
B(  1-C , 32-H ) :   0.9703 B(  2-C ,  3-C ) :   1.2177 B(  2-C ,  6-C ) :   1.0204
B(  3-C ,  4-C ) :   1.5918 B(  3-C ,  5-H ) :   0.9854 B(  4-C , 20-C ) :   1.0325
B(  6-C ,  7-H ) :   0.9360 B(  6-C ,  8-H ) :   0.9350 B(  6-C ,  9-C ) :   1.0748
B(  9-C , 10-H ) :   0.9555 B(  9-C , 11-H ) :   0.9606 B(  9-C , 12-C ) :   1.0523
B( 12-C , 13-H ) :   0.9770 B( 12-C , 14-H ) :   0.9757 B( 12-C , 15-H ) :   0.9776
B( 16-S , 17-C ) :   1.1606 B( 16-S , 20-C ) :   1.1506 B( 17-C , 18-C ) :   1.6055
B( 17-C , 33-H ) :   0.9730 B( 18-C , 19-C ) :   1.2425 B( 18-C , 21-H ) :   0.9863
B( 19-C , 20-C ) :   1.5940 B( 19-C , 22-C ) :   1.0512 B( 22-C , 23-H ) :   0.9354
B( 22-C , 24-H ) :   0.9370 B( 22-C , 25-C ) :   1.0618 B( 25-C , 26-H ) :   0.9585
B( 25-C , 27-H ) :   0.9603 B( 25-C , 28-C ) :   1.0692 B( 28-C , 29-H ) :   0.9672
B( 28-C , 30-H ) :   0.9757 B( 28-C , 31-H ) :   0.9716

Dispersion correction           -0.015399938
FINAL SINGLE POINT ENERGY     -1339.869490585719

DIPOLE MOMENT
-------------
                                X             Y             Z
Electronic contribution:     21.77199      16.43341      -0.01445
Nuclear contribution   :    -22.09382     -16.77081       0.17444
                        -----------------------------------------
Total Dipole Moment    :     -0.32183      -0.33740       0.15999
                        -----------------------------------------
Magnitude (a.u.)       :      0.49296
Magnitude (Debye)      :      1.25301

Rotational constants in cm-1:     0.020728     0.009212     0.007114
Rotational constants in MHz :   621.396988   276.180062   213.277990

                             ****ORCA TERMINATED NORMALLY****
TOTAL RUN TIME: 0 days 0 hours 0 minutes 21 seconds 278 msec
