                         Program Version 4.2.1 -  RELEASE  -
|  1> ! wB97X-D3 SP def2-SVP
|  2> %pal
|  3> nprocs 24
|  4> end
|  5>
|  6> * xyz 0 1
|  7> S 	 -131.312 	 13.7718 	 -7.33376
|  8> C 	 -129.547 	 13.9814 	 -7.16131
|  9> C 	 -128.862 	 12.912 	 -7.7536
| 10> C 	 -129.729 	 12.11 	 -8.53028
| 11> C 	 -131.064 	 12.3974 	 -8.39472
| 12> H 	 -129.388 	 11.183 	 -9.09949
| 13> C 	 -127.426 	 12.5468 	 -7.58653
| 14> H 	 -127.376 	 11.4739 	 -7.49624
| 15> H 	 -127.127 	 12.8565 	 -6.56759
| 16> C 	 -126.425 	 12.9374 	 -8.68963
| 17> H 	 -125.463 	 12.4321 	 -8.60314
| 18> H 	 -126.622 	 12.6629 	 -9.72479
| 19> C 	 -126.075 	 14.443 	 -8.44561
| 20> H 	 -126.773 	 15.1763 	 -8.80229
| 21> H 	 -125.893 	 14.6996 	 -7.36471
| 22> H 	 -125.098 	 14.7436 	 -8.86439
| 23> S 	 -132.495 	 12.5096 	 -10.6935
| 24> C 	 -133.615 	 11.2202 	 -11.0255
| 25> C 	 -133.595 	 10.2022 	 -10.0871
| 26> C 	 -132.865 	 10.6516 	 -8.90434
| 27> C 	 -132.153 	 11.8178 	 -9.14146
| 28> H 	 -134.098 	 9.2445 	 -10.2136
| 29> C 	 -132.772 	 9.75827 	 -7.71733
| 30> H 	 -133.762 	 9.52536 	 -7.27737
| 31> H 	 -132.132 	 10.2991 	 -6.97442
| 32> C 	 -132.034 	 8.44547 	 -7.95687
| 33> H 	 -131.126 	 8.64341 	 -8.36326
| 34> H 	 -132.457 	 7.82691 	 -8.69571
| 35> C 	 -131.873 	 7.62711 	 -6.63012
| 36> H 	 -131.008 	 8.06854 	 -6.09684
| 37> H 	 -131.496 	 6.6667 	 -6.89447
| 38> H 	 -132.724 	 7.68107 	 -5.95318
| 39> H 	 -129.108 	 14.7549 	 -6.45571
| 40> H 	 -134.058 	 11.146 	 -12.0458
| 41> *
| 42>
| 43>                          ****END OF INPUT****

CARTESIAN COORDINATES (ANGSTROEM)
---------------------------------
  S    -131.312000   13.771800   -7.333760
  C    -129.547000   13.981400   -7.161310
  C    -128.862000   12.912000   -7.753600
  C    -129.729000   12.110000   -8.530280
  C    -131.064000   12.397400   -8.394720
  H    -129.388000   11.183000   -9.099490
  C    -127.426000   12.546800   -7.586530
  H    -127.376000   11.473900   -7.496240
  H    -127.127000   12.856500   -6.567590
  C    -126.425000   12.937400   -8.689630
  H    -125.463000   12.432100   -8.603140
  H    -126.622000   12.662900   -9.724790
  C    -126.075000   14.443000   -8.445610
  H    -126.773000   15.176300   -8.802290
  H    -125.893000   14.699600   -7.364710
  H    -125.098000   14.743600   -8.864390
  S    -132.495000   12.509600  -10.693500
  C    -133.615000   11.220200  -11.025500
  C    -133.595000   10.202200  -10.087100
  C    -132.865000   10.651600   -8.904340
  C    -132.153000   11.817800   -9.141460
  H    -134.098000    9.244500  -10.213600
  C    -132.772000    9.758270   -7.717330
  H    -133.762000    9.525360   -7.277370
  H    -132.132000   10.299100   -6.974420
  C    -132.034000    8.445470   -7.956870
  H    -131.126000    8.643410   -8.363260
  H    -132.457000    7.826910   -8.695710
  C    -131.873000    7.627110   -6.630120
  H    -131.008000    8.068540   -6.096840
  H    -131.496000    6.666700   -6.894470
  H    -132.724000    7.681070   -5.953180
  H    -129.108000   14.754900   -6.455710
  H    -134.058000   11.146000  -12.045800

 Total Charge           Charge          ....    0
 Multiplicity           Mult            ....    1
 Number of Electrons    NEL             ....  134
 Basis Dimension        Dim             ....  322

ORBITAL ENERGIES
----------------

  NO   OCC          E(Eh)            E(eV)
   0   2.0000     -88.964885     -2420.8576
   1   2.0000     -88.963275     -2420.8138
   2   2.0000     -10.324831      -280.9529
   3   2.0000     -10.323161      -280.9075
   4   2.0000     -10.319851      -280.8174
   5   2.0000     -10.319053      -280.7957
   6   2.0000     -10.302455      -280.3441
   7   2.0000     -10.301624      -280.3214
   8   2.0000     -10.296976      -280.1950
   9   2.0000     -10.296219      -280.1744
  10   2.0000     -10.293811      -280.1088
  11   2.0000     -10.293397      -280.0976
  12   2.0000     -10.290301      -280.0133
  13   2.0000     -10.278837      -279.7014
  14   2.0000     -10.277965      -279.6776
  15   2.0000     -10.273900      -279.5670
  16   2.0000      -8.079048      -219.8421
  17   2.0000      -8.078793      -219.8351
  18   2.0000      -6.037497      -164.2886
  19   2.0000      -6.037182      -164.2801
  20   2.0000      -6.033676      -164.1847
  21   2.0000      -6.033298      -164.1744
  22   2.0000      -6.029854      -164.0807
  23   2.0000      -6.029517      -164.0715
  24   2.0000      -1.006296       -27.3827
  25   2.0000      -0.981654       -26.7122
  26   2.0000      -0.911651       -24.8073
  27   2.0000      -0.910536       -24.7769
  28   2.0000      -0.865578       -23.5536
  29   2.0000      -0.849263       -23.1096
  30   2.0000      -0.844927       -22.9916
  31   2.0000      -0.808557       -22.0019
  32   2.0000      -0.780720       -21.2445
  33   2.0000      -0.767833       -20.8938
  34   2.0000      -0.712929       -19.3998
  35   2.0000      -0.707690       -19.2572
  36   2.0000      -0.690228       -18.7820
  37   2.0000      -0.660415       -17.9708
  38   2.0000      -0.637357       -17.3434
  39   2.0000      -0.616405       -16.7732
  40   2.0000      -0.598325       -16.2812
  41   2.0000      -0.567770       -15.4498
  42   2.0000      -0.560447       -15.2505
  43   2.0000      -0.547767       -14.9055
  44   2.0000      -0.534020       -14.5314
  45   2.0000      -0.530027       -14.4228
  46   2.0000      -0.518546       -14.1103
  47   2.0000      -0.511873       -13.9288
  48   2.0000      -0.498617       -13.5681
  49   2.0000      -0.487554       -13.2670
  50   2.0000      -0.484923       -13.1954
  51   2.0000      -0.474658       -12.9161
  52   2.0000      -0.468740       -12.7551
  53   2.0000      -0.462654       -12.5895
  54   2.0000      -0.456282       -12.4161
  55   2.0000      -0.449623       -12.2349
  56   2.0000      -0.447636       -12.1808
  57   2.0000      -0.442155       -12.0317
  58   2.0000      -0.436493       -11.8776
  59   2.0000      -0.424591       -11.5537
  60   2.0000      -0.419358       -11.4113
  61   2.0000      -0.414186       -11.2706
  62   2.0000      -0.412127       -11.2145
  63   2.0000      -0.336552        -9.1581
  64   2.0000      -0.325209        -8.8494
  65   2.0000      -0.315147        -8.5756
  66   2.0000      -0.312599        -8.5063
  67   0.0000       0.046202         1.2572
  68   0.0000       0.052769         1.4359
  69   0.0000       0.104759         2.8506
  70   0.0000       0.117936         3.2092
  71   0.0000       0.125506         3.4152

MULLIKEN ATOMIC CHARGES
-----------------------
   0 S :    0.111027
   1 C :   -0.154412
   2 C :   -0.066784
   3 C :    0.024649
   4 C :   -0.192914
   5 H :    0.039037
   6 C :    0.055123
   7 H :    0.018204
   8 H :    0.026353
   9 C :   -0.031624
  10 H :    0.023553
  11 H :    0.033903
  12 C :   -0.079982
  13 H :    0.041086
  14 H :    0.022542
  15 H :    0.023050
  16 S :    0.124221
  17 C :   -0.106106
  18 C :   -0.036609
  19 C :   -0.023818
  20 C :   -0.164963
  21 H :    0.032302
  22 C :    0.048381
  23 H :    0.036634
  24 H :    0.030921
  25 C :   -0.038872
  26 H :   -0.006880
  27 H :    0.008854
  28 C :   -0.037233
  29 H :    0.027555
  30 H :    0.025803
  31 H :    0.040737
  32 H :    0.074077
  33 H :    0.072184
Sum of atomic charges:   -0.0000000

LOEWDIN ATOMIC CHARGES
----------------------
   0 S :    0.392646
   1 C :   -0.195924
   2 C :   -0.067561
   3 C :   -0.063900
   4 C :   -0.203977
   5 H :    0.044099
   6 C :   -0.032298
   7 H :    0.029503
   8 H :    0.035129
   9 C :   -0.039370
  10 H :    0.027611
  11 H :    0.028934
  12 C :   -0.074316
  13 H :    0.021248
  14 H :    0.027585
  15 H :    0.023578
  16 S :    0.420050
  17 C :   -0.190700
  18 C :   -0.069490
  19 C :   -0.049590
  20 C :   -0.217292
  21 H :    0.034802
  22 C :   -0.035451
  23 H :    0.033898
  24 H :    0.035657
  25 C :   -0.028771
  26 H :    0.010325
  27 H :    0.012715
  28 C :   -0.060088
  29 H :    0.029299
  30 H :    0.022597
  31 H :    0.026021
  32 H :    0.039879
  33 H :    0.033153

  Mayer bond orders larger than 0.100000
B(  0-S ,  1-C ) :   1.1408 B(  0-S ,  4-C ) :   1.1486 B(  1-C ,  2-C ) :   1.5958
B(  1-C ,  4-C ) :   0.1016 B(  1-C , 32-H ) :   0.9605 B(  2-C ,  3-C ) :   1.2452
B(  2-C ,  6-C ) :   1.0218 B(  3-C ,  4-C ) :   1.6027 B(  3-C ,  5-H ) :   0.9789
B(  4-C , 20-C ) :   1.0050 B(  6-C ,  7-H ) :   0.9371 B(  6-C ,  8-H ) :   0.9460
B(  6-C ,  9-C ) :   1.0709 B(  9-C , 10-H ) :   0.9542 B(  9-C , 11-H ) :   0.9579
B(  9-C , 12-C ) :   1.0587 B( 12-C , 13-H ) :   0.9809 B( 12-C , 14-H ) :   0.9762
B( 12-C , 15-H ) :   0.9768 B( 16-S , 17-C ) :   1.1616 B( 16-S , 20-C ) :   1.1470
B( 17-C , 18-C ) :   1.6216 B( 17-C , 33-H ) :   0.9602 B( 18-C , 19-C ) :   1.2118
B( 18-C , 21-H ) :   0.9892 B( 19-C , 20-C ) :   1.6158 B( 19-C , 22-C ) :   1.0698
B( 22-C , 23-H ) :   0.9278 B( 22-C , 24-H ) :   0.9314 B( 22-C , 25-C ) :   1.0662
B( 25-C , 26-H ) :   0.9469 B( 25-C , 27-H ) :   0.9551 B( 25-C , 28-C ) :   1.0814
B( 28-C , 29-H ) :   0.9768 B( 28-C , 30-H ) :   0.9730 B( 28-C , 31-H ) :   0.9769

Dispersion correction           -0.014313673
FINAL SINGLE POINT ENERGY     -1339.867463682786

DIPOLE MOMENT
-------------
                                X             Y             Z
Electronic contribution:    -18.02313      13.47783      -7.95707
Nuclear contribution   :     18.53356     -14.09595       7.98990
                        -----------------------------------------
Total Dipole Moment    :      0.51043      -0.61812       0.03283
                        -----------------------------------------
Magnitude (a.u.)       :      0.80230
Magnitude (Debye)      :      2.03929

Rotational constants in cm-1:     0.018476     0.008194     0.006944
Rotational constants in MHz :   553.905596   245.636266   208.167137

                             ****ORCA TERMINATED NORMALLY****
TOTAL RUN TIME: 0 days 0 hours 0 minutes 21 seconds 254 msec
