                         Program Version 4.2.1 -  RELEASE  -
|  1> ! wB97X-D3 SP def2-SVP
|  2> %pal
|  3> nprocs 24
|  4> end
|  5>
|  6> * xyz 0 1
|  7> S 	 -44.8544 	 13.3103 	 27.0958
|  8> C 	 -44.2427 	 14.8889 	 27.3035
|  9> C 	 -44.6478 	 15.7203 	 26.2568
| 10> C 	 -45.5226 	 15.1282 	 25.32
| 11> C 	 -45.5952 	 13.7695 	 25.5011
| 12> H 	 -45.9954 	 15.6243 	 24.4972
| 13> C 	 -44.2586 	 17.2074 	 26.0891
| 14> H 	 -44.2346 	 17.4583 	 25.0145
| 15> H 	 -43.2174 	 17.4003 	 26.4062
| 16> C 	 -45.0682 	 18.3253 	 26.8792
| 17> H 	 -44.9163 	 18.3099 	 27.9434
| 18> H 	 -44.6512 	 19.2894 	 26.4861
| 19> C 	 -46.5525 	 18.2373 	 26.5024
| 20> H 	 -47.0012 	 17.3098 	 26.8875
| 21> H 	 -47.057 	 19.0953 	 27.0048
| 22> H 	 -46.7275 	 18.3284 	 25.4437
| 23> S 	 -47.0749 	 11.4541 	 25.6567
| 24> C 	 -47.867 	 10.7416 	 24.2066
| 25> C 	 -47.4704 	 11.4564 	 23.0714
| 26> C 	 -46.6442 	 12.6232 	 23.3584
| 27> C 	 -46.2829 	 12.7341 	 24.7238
| 28> H 	 -47.7685 	 11.0268 	 22.1202
| 29> C 	 -46.281 	 13.584 	 22.2135
| 30> H 	 -46.2106 	 12.8381 	 21.4344
| 31> H 	 -45.2569 	 14.0075 	 22.2529
| 32> C 	 -47.2503 	 14.7155 	 21.8987
| 33> H 	 -47.3927 	 15.3088 	 22.7481
| 34> H 	 -48.193 	 14.2934 	 21.4428
| 35> C 	 -46.6888 	 15.6706 	 20.7987
| 36> H 	 -47.5638 	 16.332 	 20.6038
| 37> H 	 -46.48 	 15.1592 	 19.8333
| 38> H 	 -45.9321 	 16.3911 	 21.0892
| 39> H 	 -43.8255 	 15.3515 	 28.2013
| 40> H 	 -48.4285 	 9.75395 	 24.159
| 41> *
| 42>
| 43>                          ****END OF INPUT****

CARTESIAN COORDINATES (ANGSTROEM)
---------------------------------
  S    -44.854400   13.310300   27.095800
  C    -44.242700   14.888900   27.303500
  C    -44.647800   15.720300   26.256800
  C    -45.522600   15.128200   25.320000
  C    -45.595200   13.769500   25.501100
  H    -45.995400   15.624300   24.497200
  C    -44.258600   17.207400   26.089100
  H    -44.234600   17.458300   25.014500
  H    -43.217400   17.400300   26.406200
  C    -45.068200   18.325300   26.879200
  H    -44.916300   18.309900   27.943400
  H    -44.651200   19.289400   26.486100
  C    -46.552500   18.237300   26.502400
  H    -47.001200   17.309800   26.887500
  H    -47.057000   19.095300   27.004800
  H    -46.727500   18.328400   25.443700
  S    -47.074900   11.454100   25.656700
  C    -47.867000   10.741600   24.206600
  C    -47.470400   11.456400   23.071400
  C    -46.644200   12.623200   23.358400
  C    -46.282900   12.734100   24.723800
  H    -47.768500   11.026800   22.120200
  C    -46.281000   13.584000   22.213500
  H    -46.210600   12.838100   21.434400
  H    -45.256900   14.007500   22.252900
  C    -47.250300   14.715500   21.898700
  H    -47.392700   15.308800   22.748100
  H    -48.193000   14.293400   21.442800
  C    -46.688800   15.670600   20.798700
  H    -47.563800   16.332000   20.603800
  H    -46.480000   15.159200   19.833300
  H    -45.932100   16.391100   21.089200
  H    -43.825500   15.351500   28.201300
  H    -48.428500    9.753950   24.159000

 Total Charge           Charge          ....    0
 Multiplicity           Mult            ....    1
 Number of Electrons    NEL             ....  134
 Basis Dimension        Dim             ....  322

ORBITAL ENERGIES
----------------

  NO   OCC          E(Eh)            E(eV)
   0   2.0000     -88.968967     -2420.9687
   1   2.0000     -88.965932     -2420.8861
   2   2.0000     -10.337285      -281.2918
   3   2.0000     -10.335233      -281.2360
   4   2.0000     -10.329250      -281.0732
   5   2.0000     -10.314051      -280.6596
   6   2.0000     -10.314008      -280.6584
   7   2.0000     -10.302432      -280.3434
   8   2.0000     -10.302124      -280.3350
   9   2.0000     -10.296308      -280.1768
  10   2.0000     -10.295724      -280.1609
  11   2.0000     -10.292703      -280.0787
  12   2.0000     -10.292472      -280.0724
  13   2.0000     -10.292256      -280.0665
  14   2.0000     -10.285138      -279.8728
  15   2.0000     -10.277071      -279.6533
  16   2.0000      -8.083318      -219.9583
  17   2.0000      -8.079465      -219.8534
  18   2.0000      -6.041853      -164.4072
  19   2.0000      -6.038213      -164.3081
  20   2.0000      -6.037920      -164.3002
  21   2.0000      -6.034049      -164.1948
  22   2.0000      -6.034019      -164.1940
  23   2.0000      -6.030122      -164.0880
  24   2.0000      -1.002668       -27.2840
  25   2.0000      -0.976811       -26.5804
  26   2.0000      -0.908100       -24.7107
  27   2.0000      -0.900661       -24.5082
  28   2.0000      -0.868238       -23.6259
  29   2.0000      -0.853311       -23.2198
  30   2.0000      -0.843588       -22.9552
  31   2.0000      -0.813686       -22.1415
  32   2.0000      -0.778005       -21.1706
  33   2.0000      -0.766939       -20.8695
  34   2.0000      -0.707033       -19.2394
  35   2.0000      -0.698282       -19.0012
  36   2.0000      -0.691780       -18.8243
  37   2.0000      -0.662053       -18.0154
  38   2.0000      -0.637697       -17.3526
  39   2.0000      -0.618927       -16.8419
  40   2.0000      -0.588749       -16.0207
  41   2.0000      -0.572803       -15.5868
  42   2.0000      -0.568596       -15.4723
  43   2.0000      -0.544344       -14.8124
  44   2.0000      -0.535752       -14.5785
  45   2.0000      -0.520188       -14.1550
  46   2.0000      -0.513207       -13.9651
  47   2.0000      -0.511729       -13.9249
  48   2.0000      -0.509560       -13.8658
  49   2.0000      -0.499631       -13.5956
  50   2.0000      -0.485788       -13.2190
  51   2.0000      -0.481088       -13.0911
  52   2.0000      -0.477872       -13.0035
  53   2.0000      -0.463411       -12.6100
  54   2.0000      -0.458234       -12.4692
  55   2.0000      -0.446112       -12.1393
  56   2.0000      -0.440258       -11.9800
  57   2.0000      -0.439019       -11.9463
  58   2.0000      -0.432302       -11.7635
  59   2.0000      -0.426117       -11.5952
  60   2.0000      -0.418592       -11.3905
  61   2.0000      -0.413910       -11.2631
  62   2.0000      -0.405902       -11.0452
  63   2.0000      -0.358857        -9.7650
  64   2.0000      -0.335370        -9.1259
  65   2.0000      -0.325131        -8.8473
  66   2.0000      -0.284025        -7.7287
  67   0.0000       0.015969         0.4345
  68   0.0000       0.072942         1.9849
  69   0.0000       0.097573         2.6551
  70   0.0000       0.115893         3.1536
  71   0.0000       0.121140         3.2964

MULLIKEN ATOMIC CHARGES
-----------------------
   0 S :    0.105310
   1 C :   -0.091809
   2 C :   -0.103526
   3 C :    0.036217
   4 C :   -0.120309
   5 H :   -0.008376
   6 C :    0.016807
   7 H :    0.028226
   8 H :    0.027949
   9 C :   -0.069494
  10 H :    0.032071
  11 H :    0.032256
  12 C :   -0.067714
  13 H :    0.052205
  14 H :    0.035469
  15 H :    0.025486
  16 S :    0.078237
  17 C :   -0.124904
  18 C :   -0.039203
  19 C :   -0.048947
  20 C :   -0.107811
  21 H :    0.026354
  22 C :    0.040291
  23 H :    0.015336
  24 H :    0.032335
  25 C :   -0.044311
  26 H :    0.026682
  27 H :    0.040079
  28 C :   -0.084094
  29 H :    0.031272
  30 H :    0.044241
  31 H :    0.038661
  32 H :    0.056035
  33 H :    0.088981
Sum of atomic charges:    0.0000000

LOEWDIN ATOMIC CHARGES
----------------------
   0 S :    0.399549
   1 C :   -0.214617
   2 C :   -0.067718
   3 C :   -0.057289
   4 C :   -0.163071
   5 H :    0.029474
   6 C :   -0.039501
   7 H :    0.029683
   8 H :    0.030803
   9 C :   -0.036465
  10 H :    0.019325
  11 H :    0.028110
  12 C :   -0.071102
  13 H :    0.029258
  14 H :    0.029136
  15 H :    0.019299
  16 S :    0.374851
  17 C :   -0.186154
  18 C :   -0.073745
  19 C :   -0.055419
  20 C :   -0.190056
  21 H :    0.033508
  22 C :   -0.042638
  23 H :    0.029580
  24 H :    0.033351
  25 C :   -0.032470
  26 H :    0.014783
  27 H :    0.034718
  28 C :   -0.073755
  29 H :    0.031523
  30 H :    0.029144
  31 H :    0.022458
  32 H :    0.036841
  33 H :    0.048606

  Mayer bond orders larger than 0.100000
B(  0-S ,  1-C ) :   1.1451 B(  0-S ,  4-C ) :   1.1379 B(  1-C ,  2-C ) :   1.6053
B(  1-C , 32-H ) :   0.9619 B(  2-C ,  3-C ) :   1.2494 B(  2-C ,  6-C ) :   1.0150
B(  3-C ,  4-C ) :   1.5608 B(  3-C ,  5-H ) :   0.9945 B(  4-C , 20-C ) :   1.0630
B(  6-C ,  7-H ) :   0.9498 B(  6-C ,  8-H ) :   0.9466 B(  6-C ,  9-C ) :   1.0657
B(  9-C , 10-H ) :   0.9606 B(  9-C , 11-H ) :   0.9551 B(  9-C , 12-C ) :   1.0787
B( 12-C , 13-H ) :   0.9732 B( 12-C , 14-H ) :   0.9739 B( 12-C , 15-H ) :   0.9757
B( 16-S , 17-C ) :   1.1389 B( 16-S , 20-C ) :   1.1276 B( 17-C , 18-C ) :   1.6287
B( 17-C , 33-H ) :   0.9557 B( 18-C , 19-C ) :   1.2284 B( 18-C , 21-H ) :   0.9853
B( 19-C , 20-C ) :   1.5882 B( 19-C , 22-C ) :   1.0304 B( 22-C , 23-H ) :   0.9316
B( 22-C , 24-H ) :   0.9427 B( 22-C , 25-C ) :   1.0683 B( 25-C , 26-H ) :   0.9535
B( 25-C , 27-H ) :   0.9521 B( 25-C , 28-C ) :   1.0832 B( 28-C , 29-H ) :   0.9745
B( 28-C , 30-H ) :   0.9756 B( 28-C , 31-H ) :   0.9745

Dispersion correction           -0.014354311
FINAL SINGLE POINT ENERGY     -1339.869462642066

DIPOLE MOMENT
-------------
                                X             Y             Z
Electronic contribution:      2.20636     -26.66050      15.07059
Nuclear contribution   :     -2.33659      27.18534     -15.56907
                        -----------------------------------------
Total Dipole Moment    :     -0.13023       0.52484      -0.49848
                        -----------------------------------------
Magnitude (a.u.)       :      0.73545
Magnitude (Debye)      :      1.86937

Rotational constants in cm-1:     0.016620     0.009760     0.006791
Rotational constants in MHz :   498.263129   292.611890   203.594058

                             ****ORCA TERMINATED NORMALLY****
TOTAL RUN TIME: 0 days 0 hours 0 minutes 20 seconds 534 msec
