                         Program Version 4.2.1 -  RELEASE  -
|  1> ! wB97X-D3 SP def2-SVP
|  2> %pal
|  3> nprocs 24
|  4> end
|  5>
|  6> * xyz 0 1
|  7> S 	 -44.7697 	 11.8054 	 25.2423
|  8> C 	 -46.5073 	 11.7328 	 25.3059
|  9> C 	 -47.0315 	 12.3258 	 26.4146
| 10> C 	 -46.0255 	 13.1725 	 27.0214
| 11> C 	 -44.8055 	 13.1056 	 26.3723
| 12> H 	 -46.2053 	 13.94 	 27.7868
| 13> C 	 -48.5174 	 12.4401 	 26.7283
| 14> H 	 -48.9299 	 12.62 	 25.6602
| 15> H 	 -48.8145 	 13.3831 	 27.2584
| 16> C 	 -49.2106 	 11.2945 	 27.4648
| 17> H 	 -50.265 	 11.4979 	 27.5097
| 18> H 	 -49.1208 	 10.3775 	 26.8158
| 19> C 	 -48.5286 	 10.7945 	 28.739
| 20> H 	 -48.6554 	 11.5218 	 29.5872
| 21> H 	 -48.9917 	 9.83955 	 29.0483
| 22> H 	 -47.4427 	 10.5572 	 28.4754
| 23> S 	 -42.2554 	 13.0363 	 27.2309
| 24> C 	 -41.3813 	 14.481 	 27.614
| 25> C 	 -42.0809 	 15.6013 	 27.2487
| 26> C 	 -43.4043 	 15.3363 	 26.7408
| 27> C 	 -43.5991 	 13.9389 	 26.6774
| 28> H 	 -41.5813 	 16.5392 	 27.3062
| 29> C 	 -44.4968 	 16.3671 	 26.4124
| 30> H 	 -44.572 	 17.0766 	 27.2076
| 31> H 	 -45.4144 	 15.891 	 26.2055
| 32> C 	 -44.1929 	 17.1697 	 25.1256
| 33> H 	 -43.2662 	 17.674 	 25.2503
| 34> H 	 -45.015 	 17.9063 	 24.9468
| 35> C 	 -44.0531 	 16.3116 	 23.8828
| 36> H 	 -43.0545 	 15.9644 	 23.974
| 37> H 	 -44.2773 	 16.7774 	 22.9188
| 38> H 	 -44.6851 	 15.4523 	 23.8573
| 39> H 	 -47.1437 	 11.0706 	 24.7198
| 40> H 	 -40.4156 	 14.4889 	 28.1104
| 41> *
| 42>
| 43>                          ****END OF INPUT****

CARTESIAN COORDINATES (ANGSTROEM)
---------------------------------
  S    -44.769700   11.805400   25.242300
  C    -46.507300   11.732800   25.305900
  C    -47.031500   12.325800   26.414600
  C    -46.025500   13.172500   27.021400
  C    -44.805500   13.105600   26.372300
  H    -46.205300   13.940000   27.786800
  C    -48.517400   12.440100   26.728300
  H    -48.929900   12.620000   25.660200
  H    -48.814500   13.383100   27.258400
  C    -49.210600   11.294500   27.464800
  H    -50.265000   11.497900   27.509700
  H    -49.120800   10.377500   26.815800
  C    -48.528600   10.794500   28.739000
  H    -48.655400   11.521800   29.587200
  H    -48.991700    9.839550   29.048300
  H    -47.442700   10.557200   28.475400
  S    -42.255400   13.036300   27.230900
  C    -41.381300   14.481000   27.614000
  C    -42.080900   15.601300   27.248700
  C    -43.404300   15.336300   26.740800
  C    -43.599100   13.938900   26.677400
  H    -41.581300   16.539200   27.306200
  C    -44.496800   16.367100   26.412400
  H    -44.572000   17.076600   27.207600
  H    -45.414400   15.891000   26.205500
  C    -44.192900   17.169700   25.125600
  H    -43.266200   17.674000   25.250300
  H    -45.015000   17.906300   24.946800
  C    -44.053100   16.311600   23.882800
  H    -43.054500   15.964400   23.974000
  H    -44.277300   16.777400   22.918800
  H    -44.685100   15.452300   23.857300
  H    -47.143700   11.070600   24.719800
  H    -40.415600   14.488900   28.110400

 Total Charge           Charge          ....    0
 Multiplicity           Mult            ....    1
 Number of Electrons    NEL             ....  134
 Basis Dimension        Dim             ....  322

ORBITAL ENERGIES
----------------

  NO   OCC          E(Eh)            E(eV)
   0   2.0000     -88.967794     -2420.9367
   1   2.0000     -88.964930     -2420.8588
   2   2.0000     -10.328480      -281.0522
   3   2.0000     -10.326967      -281.0111
   4   2.0000     -10.314320      -280.6669
   5   2.0000     -10.311616      -280.5933
   6   2.0000     -10.309280      -280.5298
   7   2.0000     -10.302931      -280.3570
   8   2.0000     -10.302394      -280.3424
   9   2.0000     -10.295075      -280.1432
  10   2.0000     -10.293906      -280.1114
  11   2.0000     -10.288796      -279.9724
  12   2.0000     -10.288117      -279.9539
  13   2.0000     -10.287161      -279.9279
  14   2.0000     -10.280533      -279.7475
  15   2.0000     -10.261216      -279.2219
  16   2.0000      -8.083259      -219.9567
  17   2.0000      -8.080865      -219.8915
  18   2.0000      -6.041719      -164.4035
  19   2.0000      -6.039219      -164.3355
  20   2.0000      -6.037892      -164.2994
  21   2.0000      -6.035159      -164.2250
  22   2.0000      -6.033809      -164.1883
  23   2.0000      -6.031775      -164.1329
  24   2.0000      -1.011130       -27.5142
  25   2.0000      -0.989660       -26.9300
  26   2.0000      -0.910702       -24.7814
  27   2.0000      -0.909630       -24.7523
  28   2.0000      -0.867821       -23.6146
  29   2.0000      -0.848291       -23.0832
  30   2.0000      -0.845038       -22.9946
  31   2.0000      -0.813885       -22.1469
  32   2.0000      -0.783785       -21.3279
  33   2.0000      -0.774027       -21.0624
  34   2.0000      -0.699641       -19.0382
  35   2.0000      -0.695131       -18.9155
  36   2.0000      -0.689857       -18.7720
  37   2.0000      -0.656943       -17.8763
  38   2.0000      -0.635168       -17.2838
  39   2.0000      -0.613703       -16.6997
  40   2.0000      -0.598553       -16.2875
  41   2.0000      -0.577084       -15.7033
  42   2.0000      -0.555217       -15.1082
  43   2.0000      -0.550234       -14.9726
  44   2.0000      -0.548556       -14.9270
  45   2.0000      -0.537133       -14.6161
  46   2.0000      -0.511144       -13.9089
  47   2.0000      -0.508079       -13.8255
  48   2.0000      -0.496174       -13.5016
  49   2.0000      -0.493604       -13.4316
  50   2.0000      -0.487005       -13.2521
  51   2.0000      -0.478652       -13.0248
  52   2.0000      -0.471758       -12.8372
  53   2.0000      -0.466755       -12.7010
  54   2.0000      -0.462991       -12.5986
  55   2.0000      -0.446769       -12.1572
  56   2.0000      -0.443124       -12.0580
  57   2.0000      -0.440745       -11.9933
  58   2.0000      -0.433959       -11.8086
  59   2.0000      -0.426621       -11.6090
  60   2.0000      -0.418745       -11.3946
  61   2.0000      -0.411793       -11.2055
  62   2.0000      -0.401062       -10.9135
  63   2.0000      -0.346149        -9.4192
  64   2.0000      -0.331350        -9.0165
  65   2.0000      -0.328378        -8.9356
  66   2.0000      -0.294971        -8.0266
  67   0.0000       0.037862         1.0303
  68   0.0000       0.061746         1.6802
  69   0.0000       0.109513         2.9800
  70   0.0000       0.117121         3.1870
  71   0.0000       0.129903         3.5348

MULLIKEN ATOMIC CHARGES
-----------------------
   0 S :    0.123866
   1 C :   -0.106939
   2 C :   -0.085206
   3 C :    0.038893
   4 C :   -0.167570
   5 H :    0.023387
   6 C :   -0.003970
   7 H :    0.049081
   8 H :    0.033624
   9 C :   -0.066374
  10 H :    0.031928
  11 H :    0.021314
  12 C :   -0.081233
  13 H :    0.041149
  14 H :    0.039396
  15 H :    0.061161
  16 S :    0.113666
  17 C :   -0.099217
  18 C :   -0.035314
  19 C :   -0.049609
  20 C :   -0.171811
  21 H :    0.011650
  22 C :    0.133242
  23 H :    0.026268
  24 H :    0.014086
  25 C :   -0.100850
  26 H :    0.020488
  27 H :    0.033675
  28 C :   -0.033980
  29 H :    0.031463
  30 H :    0.033968
  31 H :    0.016396
  32 H :    0.043667
  33 H :    0.059707
Sum of atomic charges:    0.0000000

LOEWDIN ATOMIC CHARGES
----------------------
   0 S :    0.414343
   1 C :   -0.197021
   2 C :   -0.068954
   3 C :   -0.062237
   4 C :   -0.205523
   5 H :    0.034190
   6 C :   -0.043952
   7 H :    0.046089
   8 H :    0.031591
   9 C :   -0.052042
  10 H :    0.022108
  11 H :    0.026698
  12 C :   -0.073156
  13 H :    0.025352
  14 H :    0.028551
  15 H :    0.039745
  16 S :    0.429567
  17 C :   -0.194129
  18 C :   -0.070542
  19 C :   -0.054103
  20 C :   -0.208834
  21 H :    0.027735
  22 C :   -0.016976
  23 H :    0.029160
  24 H :    0.024054
  25 C :   -0.037162
  26 H :    0.015106
  27 H :    0.024775
  28 C :   -0.066268
  29 H :    0.025112
  30 H :    0.028000
  31 H :    0.020050
  32 H :    0.027285
  33 H :    0.031388

  Mayer bond orders larger than 0.100000
B(  0-S ,  1-C ) :   1.1337 B(  0-S ,  4-C ) :   1.1504 B(  1-C ,  2-C ) :   1.6492
B(  1-C , 32-H ) :   0.9602 B(  2-C ,  3-C ) :   1.2037 B(  2-C ,  6-C ) :   0.9940
B(  3-C ,  4-C ) :   1.5980 B(  3-C ,  5-H ) :   0.9948 B(  4-C , 20-C ) :   0.9899
B(  6-C ,  7-H ) :   0.9505 B(  6-C ,  8-H ) :   0.9528 B(  6-C ,  9-C ) :   1.0661
B(  9-C , 10-H ) :   0.9561 B(  9-C , 11-H ) :   0.9557 B(  9-C , 12-C ) :   1.0735
B( 12-C , 13-H ) :   0.9762 B( 12-C , 14-H ) :   0.9747 B( 12-C , 15-H ) :   0.9665
B( 16-S , 17-C ) :   1.1557 B( 16-S , 20-C ) :   1.1800 B( 17-C , 18-C ) :   1.6144
B( 17-C , 33-H ) :   0.9687 B( 18-C , 19-C ) :   1.2261 B( 18-C , 21-H ) :   0.9954
B( 19-C , 20-C ) :   1.5887 B( 19-C , 22-C ) :   1.0407 B( 22-C , 23-H ) :   0.9355
B( 22-C , 24-H ) :   0.9316 B( 22-C , 25-C ) :   1.0758 B( 25-C , 26-H ) :   0.9655
B( 25-C , 27-H ) :   0.9597 B( 25-C , 28-C ) :   1.0618 B( 28-C , 29-H ) :   0.9745
B( 28-C , 30-H ) :   0.9757 B( 28-C , 31-H ) :   0.9764

Dispersion correction           -0.014947144
FINAL SINGLE POINT ENERGY     -1339.872302092161

DIPOLE MOMENT
-------------
                                X             Y             Z
Electronic contribution:     18.51800      -8.62580      -0.07573
Nuclear contribution   :    -18.93795       8.95566       0.23184
                        -----------------------------------------
Total Dipole Moment    :     -0.41995       0.32986       0.15611
                        -----------------------------------------
Magnitude (a.u.)       :      0.55636
Magnitude (Debye)      :      1.41416

Rotational constants in cm-1:     0.021019     0.008147     0.007265
Rotational constants in MHz :   630.132465   244.238692   217.791005

                             ****ORCA TERMINATED NORMALLY****
TOTAL RUN TIME: 0 days 0 hours 0 minutes 21 seconds 966 msec
