                         Program Version 4.2.1 -  RELEASE  -
|  1> ! wB97X-D3 SP def2-SVP
|  2> %pal
|  3> nprocs 24
|  4> end
|  5>
|  6> * xyz 0 1
|  7> S 	 -95.368 	 -38.2507 	 -56.8014
|  8> C 	 -95.8938 	 -38.9397 	 -55.2495
|  9> C 	 -95.9348 	 -37.9097 	 -54.3202
| 10> C 	 -95.4053 	 -36.6679 	 -54.805
| 11> C 	 -95.0208 	 -36.7415 	 -56.155
| 12> H 	 -95.4092 	 -35.7084 	 -54.2998
| 13> C 	 -96.4538 	 -38.0213 	 -52.8833
| 14> H 	 -96.9121 	 -37.173 	 -52.5292
| 15> H 	 -95.5198 	 -38.2418 	 -52.2821
| 16> C 	 -97.4517 	 -39.1287 	 -52.7385
| 17> H 	 -98.1949 	 -38.8785 	 -53.5525
| 18> H 	 -96.9469 	 -40.0591 	 -52.9904
| 19> C 	 -98.1371 	 -39.3057 	 -51.4688
| 20> H 	 -98.6671 	 -40.2943 	 -51.3908
| 21> H 	 -97.3466 	 -39.2892 	 -50.6965
| 22> H 	 -98.8205 	 -38.4903 	 -51.2869
| 23> S 	 -92.7419 	 -36.2362 	 -57.6203
| 24> C 	 -92.3044 	 -34.6 	 -57.9097
| 25> C 	 -93.2296 	 -33.6979 	 -57.5027
| 26> C 	 -94.3867 	 -34.3966 	 -56.9483
| 27> C 	 -94.2026 	 -35.7278 	 -56.7777
| 28> H 	 -93.152 	 -32.6457 	 -57.63
| 29> C 	 -95.6314 	 -33.5586 	 -56.6811
| 30> H 	 -95.4461 	 -32.4487 	 -56.8713
| 31> H 	 -95.8451 	 -33.6247 	 -55.5754
| 32> C 	 -96.8983 	 -33.7665 	 -57.4202
| 33> H 	 -97.1639 	 -34.8044 	 -57.5037
| 34> H 	 -96.6699 	 -33.5866 	 -58.5241
| 35> C 	 -98.1104 	 -33.0351 	 -56.7584
| 36> H 	 -99.0716 	 -33.2775 	 -57.1585
| 37> H 	 -98.1176 	 -31.9997 	 -57.0836
| 38> H 	 -98.119 	 -33.1254 	 -55.6371
| 39> H 	 -96.2363 	 -39.9752 	 -55.2228
| 40> H 	 -91.3388 	 -34.3045 	 -58.2017
| 41> *
| 42>
| 43>                          ****END OF INPUT****

CARTESIAN COORDINATES (ANGSTROEM)
---------------------------------
  S    -95.368000  -38.250700  -56.801400
  C    -95.893800  -38.939700  -55.249500
  C    -95.934800  -37.909700  -54.320200
  C    -95.405300  -36.667900  -54.805000
  C    -95.020800  -36.741500  -56.155000
  H    -95.409200  -35.708400  -54.299800
  C    -96.453800  -38.021300  -52.883300
  H    -96.912100  -37.173000  -52.529200
  H    -95.519800  -38.241800  -52.282100
  C    -97.451700  -39.128700  -52.738500
  H    -98.194900  -38.878500  -53.552500
  H    -96.946900  -40.059100  -52.990400
  C    -98.137100  -39.305700  -51.468800
  H    -98.667100  -40.294300  -51.390800
  H    -97.346600  -39.289200  -50.696500
  H    -98.820500  -38.490300  -51.286900
  S    -92.741900  -36.236200  -57.620300
  C    -92.304400  -34.600000  -57.909700
  C    -93.229600  -33.697900  -57.502700
  C    -94.386700  -34.396600  -56.948300
  C    -94.202600  -35.727800  -56.777700
  H    -93.152000  -32.645700  -57.630000
  C    -95.631400  -33.558600  -56.681100
  H    -95.446100  -32.448700  -56.871300
  H    -95.845100  -33.624700  -55.575400
  C    -96.898300  -33.766500  -57.420200
  H    -97.163900  -34.804400  -57.503700
  H    -96.669900  -33.586600  -58.524100
  C    -98.110400  -33.035100  -56.758400
  H    -99.071600  -33.277500  -57.158500
  H    -98.117600  -31.999700  -57.083600
  H    -98.119000  -33.125400  -55.637100
  H    -96.236300  -39.975200  -55.222800
  H    -91.338800  -34.304500  -58.201700

 Total Charge           Charge          ....    0
 Multiplicity           Mult            ....    1
 Number of Electrons    NEL             ....  134
 Basis Dimension        Dim             ....  322

ORBITAL ENERGIES
----------------

  NO   OCC          E(Eh)            E(eV)
   0   2.0000     -88.965451     -2420.8730
   1   2.0000     -88.962374     -2420.7893
   2   2.0000     -10.325882      -280.9815
   3   2.0000     -10.324139      -280.9341
   4   2.0000     -10.317874      -280.7636
   5   2.0000     -10.309195      -280.5275
   6   2.0000     -10.306532      -280.4550
   7   2.0000     -10.301672      -280.3227
   8   2.0000     -10.295313      -280.1497
   9   2.0000     -10.293248      -280.0935
  10   2.0000     -10.290220      -280.0111
  11   2.0000     -10.287993      -279.9505
  12   2.0000     -10.285109      -279.8720
  13   2.0000     -10.282133      -279.7911
  14   2.0000     -10.279266      -279.7130
  15   2.0000     -10.278366      -279.6886
  16   2.0000      -8.081118      -219.8984
  17   2.0000      -8.078009      -219.8138
  18   2.0000      -6.039483      -164.3427
  19   2.0000      -6.036564      -164.2633
  20   2.0000      -6.035378      -164.2310
  21   2.0000      -6.032493      -164.1525
  22   2.0000      -6.032092      -164.1416
  23   2.0000      -6.028549      -164.0452
  24   2.0000      -1.012835       -27.5607
  25   2.0000      -0.988457       -26.8973
  26   2.0000      -0.925256       -25.1775
  27   2.0000      -0.909111       -24.7382
  28   2.0000      -0.874616       -23.7995
  29   2.0000      -0.853516       -23.2253
  30   2.0000      -0.846088       -23.0232
  31   2.0000      -0.814131       -22.1536
  32   2.0000      -0.785377       -21.3712
  33   2.0000      -0.776161       -21.1204
  34   2.0000      -0.710802       -19.3419
  35   2.0000      -0.696363       -18.9490
  36   2.0000      -0.682151       -18.5623
  37   2.0000      -0.669025       -18.2051
  38   2.0000      -0.644543       -17.5389
  39   2.0000      -0.610358       -16.6087
  40   2.0000      -0.599794       -16.3212
  41   2.0000      -0.586784       -15.9672
  42   2.0000      -0.570575       -15.5261
  43   2.0000      -0.559545       -15.2260
  44   2.0000      -0.528488       -14.3809
  45   2.0000      -0.525385       -14.2964
  46   2.0000      -0.521977       -14.2037
  47   2.0000      -0.512823       -13.9546
  48   2.0000      -0.506546       -13.7838
  49   2.0000      -0.504606       -13.7310
  50   2.0000      -0.494493       -13.4558
  51   2.0000      -0.486351       -13.2343
  52   2.0000      -0.476111       -12.9556
  53   2.0000      -0.467969       -12.7341
  54   2.0000      -0.459410       -12.5012
  55   2.0000      -0.449929       -12.2432
  56   2.0000      -0.443556       -12.0698
  57   2.0000      -0.437021       -11.8919
  58   2.0000      -0.426052       -11.5935
  59   2.0000      -0.420288       -11.4366
  60   2.0000      -0.418434       -11.3862
  61   2.0000      -0.410366       -11.1666
  62   2.0000      -0.398019       -10.8306
  63   2.0000      -0.349864        -9.5203
  64   2.0000      -0.330537        -8.9944
  65   2.0000      -0.327972        -8.9246
  66   2.0000      -0.292270        -7.9531
  67   0.0000       0.030374         0.8265
  68   0.0000       0.072585         1.9751
  69   0.0000       0.111223         3.0265
  70   0.0000       0.122689         3.3385
  71   0.0000       0.135463         3.6861

MULLIKEN ATOMIC CHARGES
-----------------------
   0 S :    0.108638
   1 C :   -0.167388
   2 C :   -0.077318
   3 C :    0.014960
   4 C :   -0.144397
   5 H :    0.016467
   6 C :    0.113770
   7 H :    0.000614
   8 H :    0.047648
   9 C :   -0.147581
  10 H :    0.035601
  11 H :    0.026049
  12 C :   -0.005417
  13 H :    0.045329
  14 H :    0.020360
  15 H :    0.028280
  16 S :    0.107268
  17 C :   -0.057618
  18 C :   -0.016468
  19 C :   -0.034960
  20 C :   -0.137062
  21 H :    0.011702
  22 C :    0.012995
  23 H :    0.025801
  24 H :    0.026368
  25 C :   -0.064744
  26 H :    0.023434
  27 H :    0.031183
  28 C :   -0.043624
  29 H :    0.021948
  30 H :    0.024410
  31 H :    0.048018
  32 H :    0.067489
  33 H :    0.038246
Sum of atomic charges:    0.0000000

LOEWDIN ATOMIC CHARGES
----------------------
   0 S :    0.427248
   1 C :   -0.201470
   2 C :   -0.054299
   3 C :   -0.065989
   4 C :   -0.216244
   5 H :    0.031389
   6 C :   -0.024780
   7 H :    0.015389
   8 H :    0.042337
   9 C :   -0.057567
  10 H :    0.029506
  11 H :    0.020474
  12 C :   -0.064681
  13 H :    0.036612
  14 H :    0.026270
  15 H :    0.022569
  16 S :    0.406719
  17 C :   -0.179549
  18 C :   -0.063086
  19 C :   -0.056837
  20 C :   -0.190959
  21 H :    0.028226
  22 C :   -0.044240
  23 H :    0.035564
  24 H :    0.029481
  25 C :   -0.052257
  26 H :    0.018137
  27 H :    0.032644
  28 C :   -0.066661
  29 H :    0.024447
  30 H :    0.025686
  31 H :    0.034440
  32 H :    0.031611
  33 H :    0.019867

  Mayer bond orders larger than 0.100000
B(  0-S ,  1-C ) :   1.1281 B(  0-S ,  4-C ) :   1.1877 B(  1-C ,  2-C ) :   1.5665
B(  1-C , 32-H ) :   0.9741 B(  2-C ,  3-C ) :   1.2707 B(  2-C ,  6-C ) :   1.0154
B(  3-C ,  4-C ) :   1.5226 B(  3-C ,  5-H ) :   0.9956 B(  4-C , 20-C ) :   1.0448
B(  6-C ,  7-H ) :   0.9455 B(  6-C ,  8-H ) :   0.9207 B(  6-C ,  9-C ) :   1.0841
B(  9-C , 10-H ) :   0.9577 B(  9-C , 11-H ) :   0.9405 B(  9-C , 12-C ) :   1.1018
B( 12-C , 13-H ) :   0.9691 B( 12-C , 14-H ) :   0.9660 B( 12-C , 15-H ) :   0.9696
B( 16-S , 17-C ) :   1.1533 B( 16-S , 20-C ) :   1.1097 B( 17-C , 18-C ) :   1.6358
B( 17-C , 33-H ) :   0.9665 B( 18-C , 19-C ) :   1.2141 B( 18-C , 21-H ) :   0.9965
B( 19-C , 20-C ) :   1.6438 B( 19-C , 22-C ) :   1.0325 B( 22-C , 23-H ) :   0.9429
B( 22-C , 24-H ) :   0.9300 B( 22-C , 25-C ) :   1.0660 B( 25-C , 26-H ) :   0.9570
B( 25-C , 27-H ) :   0.9491 B( 25-C , 28-C ) :   1.0627 B( 28-C , 29-H ) :   0.9721
B( 28-C , 30-H ) :   0.9750 B( 28-C , 31-H ) :   0.9748

Dispersion correction           -0.013716592
FINAL SINGLE POINT ENERGY     -1339.862474181847

DIPOLE MOMENT
-------------
                                X             Y             Z
Electronic contribution:     21.68945      -6.38194     -16.78328
Nuclear contribution   :    -22.03625       6.70214      17.16548
                        -----------------------------------------
Total Dipole Moment    :     -0.34680       0.32020       0.38220
                        -----------------------------------------
Magnitude (a.u.)       :      0.60735
Magnitude (Debye)      :      1.54376

Rotational constants in cm-1:     0.019720     0.007945     0.006387
Rotational constants in MHz :   591.199341   238.178594   191.468516

                             ****ORCA TERMINATED NORMALLY****
TOTAL RUN TIME: 0 days 0 hours 0 minutes 21 seconds 245 msec
