                         Program Version 4.2.1 -  RELEASE  -
|  1> ! wB97X-D3 SP def2-SVP
|  2> %pal
|  3> nprocs 24
|  4> end
|  5>
|  6> * xyz 0 1
|  7> S 	 -145.738 	 12.9256 	 -9.38966
|  8> C 	 -144.231 	 12.5476 	 -8.51916
|  9> C 	 -144.325 	 11.3931 	 -7.81526
| 10> C 	 -145.731 	 10.9664 	 -7.78953
| 11> C 	 -146.639 	 11.7705 	 -8.42652
| 12> H 	 -146.11 	 10.0845 	 -7.34357
| 13> C 	 -143.205 	 10.6422 	 -7.14402
| 14> H 	 -143.569 	 10.4851 	 -6.17656
| 15> H 	 -142.348 	 11.34 	 -7.05709
| 16> C 	 -142.717 	 9.31315 	 -7.82079
| 17> H 	 -143.582 	 8.67408 	 -7.61885
| 18> H 	 -142.585 	 9.47099 	 -8.86987
| 19> C 	 -141.555 	 8.50049 	 -7.19349
| 20> H 	 -140.547 	 8.88581 	 -7.3678
| 21> H 	 -141.515 	 8.30917 	 -6.10188
| 22> H 	 -141.569 	 7.53365 	 -7.71368
| 23> S 	 -148.47 	 9.79489 	 -9.06802
| 24> C 	 -150.032 	 10.3416 	 -9.60562
| 25> C 	 -150.238 	 11.7076 	 -9.4247
| 26> C 	 -149.082 	 12.3397 	 -8.93809
| 27> C 	 -148.046 	 11.4595 	 -8.60977
| 28> H 	 -151.064 	 12.2852 	 -9.74396
| 29> C 	 -149.028 	 13.8353 	 -8.69058
| 30> H 	 -148.153 	 13.9218 	 -8.07891
| 31> H 	 -149.883 	 14.1325 	 -8.14957
| 32> C 	 -148.921 	 14.6485 	 -9.93445
| 33> H 	 -149.782 	 14.4596 	 -10.5504
| 34> H 	 -148.19 	 14.3608 	 -10.5768
| 35> C 	 -148.738 	 16.1356 	 -9.62107
| 36> H 	 -147.705 	 16.2995 	 -9.30355
| 37> H 	 -149.395 	 16.5002 	 -8.85558
| 38> H 	 -149.018 	 16.7499 	 -10.4732
| 39> H 	 -143.286 	 13.0847 	 -8.6775
| 40> H 	 -150.667 	 9.67351 	 -10.1664
| 41> *
| 42>
| 43>                          ****END OF INPUT****

CARTESIAN COORDINATES (ANGSTROEM)
---------------------------------
  S    -145.738000   12.925600   -9.389660
  C    -144.231000   12.547600   -8.519160
  C    -144.325000   11.393100   -7.815260
  C    -145.731000   10.966400   -7.789530
  C    -146.639000   11.770500   -8.426520
  H    -146.110000   10.084500   -7.343570
  C    -143.205000   10.642200   -7.144020
  H    -143.569000   10.485100   -6.176560
  H    -142.348000   11.340000   -7.057090
  C    -142.717000    9.313150   -7.820790
  H    -143.582000    8.674080   -7.618850
  H    -142.585000    9.470990   -8.869870
  C    -141.555000    8.500490   -7.193490
  H    -140.547000    8.885810   -7.367800
  H    -141.515000    8.309170   -6.101880
  H    -141.569000    7.533650   -7.713680
  S    -148.470000    9.794890   -9.068020
  C    -150.032000   10.341600   -9.605620
  C    -150.238000   11.707600   -9.424700
  C    -149.082000   12.339700   -8.938090
  C    -148.046000   11.459500   -8.609770
  H    -151.064000   12.285200   -9.743960
  C    -149.028000   13.835300   -8.690580
  H    -148.153000   13.921800   -8.078910
  H    -149.883000   14.132500   -8.149570
  C    -148.921000   14.648500   -9.934450
  H    -149.782000   14.459600  -10.550400
  H    -148.190000   14.360800  -10.576800
  C    -148.738000   16.135600   -9.621070
  H    -147.705000   16.299500   -9.303550
  H    -149.395000   16.500200   -8.855580
  H    -149.018000   16.749900  -10.473200
  H    -143.286000   13.084700   -8.677500
  H    -150.667000    9.673510  -10.166400

 Total Charge           Charge          ....    0
 Multiplicity           Mult            ....    1
 Number of Electrons    NEL             ....  134
 Basis Dimension        Dim             ....  322

ORBITAL ENERGIES
----------------

  NO   OCC          E(Eh)            E(eV)
   0   2.0000     -88.969592     -2420.9857
   1   2.0000     -88.962866     -2420.8027
   2   2.0000     -10.326429      -280.9964
   3   2.0000     -10.324822      -280.9527
   4   2.0000     -10.323119      -280.9064
   5   2.0000     -10.313260      -280.6381
   6   2.0000     -10.302076      -280.3337
   7   2.0000     -10.300209      -280.2829
   8   2.0000     -10.292622      -280.0765
   9   2.0000     -10.292534      -280.0741
  10   2.0000     -10.291140      -280.0362
  11   2.0000     -10.288050      -279.9521
  12   2.0000     -10.284732      -279.8618
  13   2.0000     -10.279086      -279.7082
  14   2.0000     -10.271004      -279.4882
  15   2.0000     -10.269616      -279.4504
  16   2.0000      -8.084011      -219.9771
  17   2.0000      -8.076832      -219.7818
  18   2.0000      -6.042389      -164.4218
  19   2.0000      -6.038591      -164.3184
  20   2.0000      -6.035580      -164.2365
  21   2.0000      -6.034901      -164.2180
  22   2.0000      -6.031679      -164.1303
  23   2.0000      -6.027151      -164.0071
  24   2.0000      -1.006106       -27.3775
  25   2.0000      -0.982453       -26.7339
  26   2.0000      -0.917543       -24.9676
  27   2.0000      -0.907524       -24.6950
  28   2.0000      -0.870294       -23.6819
  29   2.0000      -0.855243       -23.2723
  30   2.0000      -0.842382       -22.9224
  31   2.0000      -0.812360       -22.1054
  32   2.0000      -0.785343       -21.3703
  33   2.0000      -0.773293       -21.0424
  34   2.0000      -0.709956       -19.3189
  35   2.0000      -0.705939       -19.2096
  36   2.0000      -0.695524       -18.9262
  37   2.0000      -0.671713       -18.2783
  38   2.0000      -0.635322       -17.2880
  39   2.0000      -0.611975       -16.6527
  40   2.0000      -0.602362       -16.3911
  41   2.0000      -0.572892       -15.5892
  42   2.0000      -0.570219       -15.5164
  43   2.0000      -0.555245       -15.1090
  44   2.0000      -0.528840       -14.3905
  45   2.0000      -0.523811       -14.2536
  46   2.0000      -0.515517       -14.0279
  47   2.0000      -0.512721       -13.9518
  48   2.0000      -0.506794       -13.7906
  49   2.0000      -0.501975       -13.6594
  50   2.0000      -0.492405       -13.3990
  51   2.0000      -0.476599       -12.9689
  52   2.0000      -0.470438       -12.8013
  53   2.0000      -0.464087       -12.6285
  54   2.0000      -0.460268       -12.5245
  55   2.0000      -0.455498       -12.3947
  56   2.0000      -0.444526       -12.0962
  57   2.0000      -0.442684       -12.0460
  58   2.0000      -0.439938       -11.9713
  59   2.0000      -0.422097       -11.4858
  60   2.0000      -0.419329       -11.4105
  61   2.0000      -0.415309       -11.3011
  62   2.0000      -0.409180       -11.1344
  63   2.0000      -0.350538        -9.5386
  64   2.0000      -0.335584        -9.1317
  65   2.0000      -0.323696        -8.8082
  66   2.0000      -0.289011        -7.8644
  67   0.0000       0.023860         0.6493
  68   0.0000       0.069324         1.8864
  69   0.0000       0.099130         2.6975
  70   0.0000       0.113472         3.0877
  71   0.0000       0.131199         3.5701

MULLIKEN ATOMIC CHARGES
-----------------------
   0 S :    0.085597
   1 C :   -0.134780
   2 C :   -0.072117
   3 C :   -0.010454
   4 C :   -0.107158
   5 H :   -0.008602
   6 C :    0.092799
   7 H :    0.017563
   8 H :    0.015711
   9 C :   -0.063323
  10 H :    0.030879
  11 H :    0.038426
  12 C :   -0.065548
  13 H :    0.026556
  14 H :    0.038042
  15 H :    0.039465
  16 S :    0.101925
  17 C :   -0.091198
  18 C :    0.017940
  19 C :   -0.098068
  20 C :   -0.133829
  21 H :    0.004327
  22 C :    0.100798
  23 H :    0.017971
  24 H :    0.016951
  25 C :   -0.034413
  26 H :    0.003422
  27 H :   -0.002085
  28 C :   -0.021941
  29 H :    0.039721
  30 H :    0.014990
  31 H :    0.028019
  32 H :    0.051593
  33 H :    0.060823
Sum of atomic charges:   -0.0000000

LOEWDIN ATOMIC CHARGES
----------------------
   0 S :    0.385464
   1 C :   -0.186691
   2 C :   -0.059362
   3 C :   -0.069320
   4 C :   -0.187511
   5 H :    0.016181
   6 C :   -0.029074
   7 H :    0.024150
   8 H :    0.028794
   9 C :   -0.034421
  10 H :    0.028627
  11 H :    0.026100
  12 C :   -0.074603
  13 H :    0.021541
  14 H :    0.030251
  15 H :    0.033139
  16 S :    0.409059
  17 C :   -0.172607
  18 C :   -0.066734
  19 C :   -0.042773
  20 C :   -0.202151
  21 H :    0.026930
  22 C :   -0.023396
  23 H :    0.024567
  24 H :    0.027457
  25 C :   -0.035599
  26 H :    0.019164
  27 H :    0.007374
  28 C :   -0.057652
  29 H :    0.029309
  30 H :    0.019461
  31 H :    0.026651
  32 H :    0.031578
  33 H :    0.026096

  Mayer bond orders larger than 0.100000
B(  0-S ,  1-C ) :   1.1147 B(  0-S ,  4-C ) :   1.1129 B(  1-C ,  2-C ) :   1.6518
B(  1-C , 32-H ) :   0.9625 B(  2-C ,  3-C ) :   1.1860 B(  2-C ,  6-C ) :   1.0294
B(  3-C ,  4-C ) :   1.5911 B(  3-C ,  5-H ) :   1.0075 B(  4-C , 20-C ) :   1.0878
B(  6-C ,  7-H ) :   0.9359 B(  6-C ,  8-H ) :   0.9392 B(  6-C ,  9-C ) :   1.0531
B(  9-C , 10-H ) :   0.9591 B(  9-C , 11-H ) :   0.9589 B(  9-C , 12-C ) :   1.0762
B( 12-C , 13-H ) :   0.9760 B( 12-C , 14-H ) :   0.9756 B( 12-C , 15-H ) :   0.9741
B( 16-S , 17-C ) :   1.1874 B( 16-S , 20-C ) :   1.1195 B( 17-C , 18-C ) :   1.5521
B( 17-C , 33-H ) :   0.9676 B( 18-C , 19-C ) :   1.2794 B( 18-C , 21-H ) :   0.9951
B( 19-C , 20-C ) :   1.5640 B( 19-C , 22-C ) :   1.0361 B( 22-C , 23-H ) :   0.9344
B( 22-C , 24-H ) :   0.9317 B( 22-C , 25-C ) :   1.0670 B( 25-C , 26-H ) :   0.9492
B( 25-C , 27-H ) :   0.9463 B( 25-C , 28-C ) :   1.0869 B( 28-C , 29-H ) :   0.9751
B( 28-C , 30-H ) :   0.9730 B( 28-C , 31-H ) :   0.9728

Dispersion correction           -0.014006153
FINAL SINGLE POINT ENERGY     -1339.868203347908

DIPOLE MOMENT
-------------
                                X             Y             Z
Electronic contribution:    -10.76190      -5.03840      -3.86048
Nuclear contribution   :     10.83014       4.94861       3.76535
                        -----------------------------------------
Total Dipole Moment    :      0.06824      -0.08979      -0.09514
                        -----------------------------------------
Magnitude (a.u.)       :      0.14754
Magnitude (Debye)      :      0.37502

Rotational constants in cm-1:     0.022516     0.007722     0.005993
Rotational constants in MHz :   675.020493   231.488539   179.655485

                             ****ORCA TERMINATED NORMALLY****
TOTAL RUN TIME: 0 days 0 hours 0 minutes 20 seconds 127 msec
