                         Program Version 4.2.1 -  RELEASE  -
|  1> ! wB97X-D3 SP def2-SVP
|  2> %pal
|  3> nprocs 24
|  4> end
|  5>
|  6> * xyz 0 1
|  7> S 	 -59.9124 	 1.74194 	 -17.8823
|  8> C 	 -61.1871 	 2.76659 	 -18.4226
|  9> C 	 -61.5875 	 2.49073 	 -19.7112
| 10> C 	 -60.6606 	 1.61576 	 -20.317
| 11> C 	 -59.8349 	 0.965824 	 -19.3938
| 12> H 	 -60.5942 	 1.4688 	 -21.4207
| 13> C 	 -62.6908 	 3.12964 	 -20.5045
| 14> H 	 -63.5618 	 3.1258 	 -19.9191
| 15> H 	 -63.0028 	 2.52991 	 -21.3653
| 16> C 	 -62.399 	 4.54194 	 -20.9646
| 17> H 	 -62.1983 	 5.25462 	 -20.1923
| 18> H 	 -61.541 	 4.55684 	 -21.5063
| 19> C 	 -63.4493 	 5.11884 	 -21.9133
| 20> H 	 -63.3823 	 6.20886 	 -21.9624
| 21> H 	 -63.5175 	 4.75449 	 -22.9519
| 22> H 	 -64.4338 	 5.02105 	 -21.4585
| 23> S 	 -57.1438 	 0.688809 	 -19.759
| 24> C 	 -56.5277 	 -0.717816 	 -20.4925
| 25> C 	 -57.4997 	 -1.64801 	 -20.6503
| 26> C 	 -58.8018 	 -1.21979 	 -20.245
| 27> C 	 -58.75 	 0.0671193 	 -19.6525
| 28> H 	 -57.3154 	 -2.48917 	 -21.1827
| 29> C 	 -59.9789 	 -2.08274 	 -20.2687
| 30> H 	 -59.902 	 -2.70126 	 -21.1431
| 31> H 	 -60.9126 	 -1.47228 	 -20.5352
| 32> C 	 -60.1992 	 -2.96783 	 -19.0601
| 33> H 	 -61.2142 	 -3.37197 	 -19.1447
| 34> H 	 -60.2532 	 -2.28898 	 -18.2129
| 35> C 	 -59.2133 	 -4.10845 	 -18.7035
| 36> H 	 -59.732 	 -4.58864 	 -17.8834
| 37> H 	 -58.2432 	 -3.62851 	 -18.3258
| 38> H 	 -59.0646 	 -4.87796 	 -19.4186
| 39> H 	 -61.6488 	 3.50674 	 -17.8305
| 40> H 	 -55.5153 	 -0.918052 	 -20.8876
| 41> *
| 42>
| 43>                          ****END OF INPUT****

CARTESIAN COORDINATES (ANGSTROEM)
---------------------------------
  S    -59.912400    1.741940  -17.882300
  C    -61.187100    2.766590  -18.422600
  C    -61.587500    2.490730  -19.711200
  C    -60.660600    1.615760  -20.317000
  C    -59.834900    0.965824  -19.393800
  H    -60.594200    1.468800  -21.420700
  C    -62.690800    3.129640  -20.504500
  H    -63.561800    3.125800  -19.919100
  H    -63.002800    2.529910  -21.365300
  C    -62.399000    4.541940  -20.964600
  H    -62.198300    5.254620  -20.192300
  H    -61.541000    4.556840  -21.506300
  C    -63.449300    5.118840  -21.913300
  H    -63.382300    6.208860  -21.962400
  H    -63.517500    4.754490  -22.951900
  H    -64.433800    5.021050  -21.458500
  S    -57.143800    0.688809  -19.759000
  C    -56.527700   -0.717816  -20.492500
  C    -57.499700   -1.648010  -20.650300
  C    -58.801800   -1.219790  -20.245000
  C    -58.750000    0.067119  -19.652500
  H    -57.315400   -2.489170  -21.182700
  C    -59.978900   -2.082740  -20.268700
  H    -59.902000   -2.701260  -21.143100
  H    -60.912600   -1.472280  -20.535200
  C    -60.199200   -2.967830  -19.060100
  H    -61.214200   -3.371970  -19.144700
  H    -60.253200   -2.288980  -18.212900
  C    -59.213300   -4.108450  -18.703500
  H    -59.732000   -4.588640  -17.883400
  H    -58.243200   -3.628510  -18.325800
  H    -59.064600   -4.877960  -19.418600
  H    -61.648800    3.506740  -17.830500
  H    -55.515300   -0.918052  -20.887600

 Total Charge           Charge          ....    0
 Multiplicity           Mult            ....    1
 Number of Electrons    NEL             ....  134
 Basis Dimension        Dim             ....  322

ORBITAL ENERGIES
----------------

  NO   OCC          E(Eh)            E(eV)
   0   2.0000     -88.965398     -2420.8715
   1   2.0000     -88.962447     -2420.7912
   2   2.0000     -10.320386      -280.8320
   3   2.0000     -10.317194      -280.7451
   4   2.0000     -10.311314      -280.5851
   5   2.0000     -10.306697      -280.4595
   6   2.0000     -10.296802      -280.1902
   7   2.0000     -10.295976      -280.1677
   8   2.0000     -10.293947      -280.1126
   9   2.0000     -10.286650      -279.9140
  10   2.0000     -10.283256      -279.8216
  11   2.0000     -10.281766      -279.7811
  12   2.0000     -10.278614      -279.6953
  13   2.0000     -10.277795      -279.6730
  14   2.0000     -10.277691      -279.6702
  15   2.0000     -10.275187      -279.6021
  16   2.0000      -8.081487      -219.9084
  17   2.0000      -8.078448      -219.8257
  18   2.0000      -6.039728      -164.3493
  19   2.0000      -6.036849      -164.2710
  20   2.0000      -6.035785      -164.2421
  21   2.0000      -6.032594      -164.1552
  22   2.0000      -6.032473      -164.1519
  23   2.0000      -6.029418      -164.0688
  24   2.0000      -1.015086       -27.6219
  25   2.0000      -0.992035       -26.9947
  26   2.0000      -0.919520       -25.0214
  27   2.0000      -0.910220       -24.7684
  28   2.0000      -0.874315       -23.7913
  29   2.0000      -0.851922       -23.1820
  30   2.0000      -0.847134       -23.0517
  31   2.0000      -0.813616       -22.1396
  32   2.0000      -0.787742       -21.4356
  33   2.0000      -0.772830       -21.0298
  34   2.0000      -0.712035       -19.3755
  35   2.0000      -0.707653       -19.2562
  36   2.0000      -0.687151       -18.6983
  37   2.0000      -0.661730       -18.0066
  38   2.0000      -0.643451       -17.5092
  39   2.0000      -0.622640       -16.9429
  40   2.0000      -0.595018       -16.1913
  41   2.0000      -0.575945       -15.6723
  42   2.0000      -0.564323       -15.3560
  43   2.0000      -0.547108       -14.8876
  44   2.0000      -0.537901       -14.6370
  45   2.0000      -0.526527       -14.3275
  46   2.0000      -0.518624       -14.1125
  47   2.0000      -0.516005       -14.0412
  48   2.0000      -0.503791       -13.7089
  49   2.0000      -0.498391       -13.5619
  50   2.0000      -0.490407       -13.3447
  51   2.0000      -0.481523       -13.1029
  52   2.0000      -0.472150       -12.8479
  53   2.0000      -0.466019       -12.6810
  54   2.0000      -0.460662       -12.5352
  55   2.0000      -0.452595       -12.3157
  56   2.0000      -0.441479       -12.0133
  57   2.0000      -0.436163       -11.8686
  58   2.0000      -0.432086       -11.7577
  59   2.0000      -0.430383       -11.7113
  60   2.0000      -0.419558       -11.4168
  61   2.0000      -0.413852       -11.2615
  62   2.0000      -0.409922       -11.1545
  63   2.0000      -0.339119        -9.2279
  64   2.0000      -0.328370        -8.9354
  65   2.0000      -0.323150        -8.7934
  66   2.0000      -0.296799        -8.0763
  67   0.0000       0.040512         1.1024
  68   0.0000       0.062870         1.7108
  69   0.0000       0.120650         3.2831
  70   0.0000       0.126745         3.4489
  71   0.0000       0.129695         3.5292

MULLIKEN ATOMIC CHARGES
-----------------------
   0 S :    0.123948
   1 C :   -0.106033
   2 C :   -0.091736
   3 C :    0.015692
   4 C :   -0.176712
   5 H :    0.033106
   6 C :    0.098171
   7 H :    0.008886
   8 H :    0.017847
   9 C :   -0.009669
  10 H :    0.017303
  11 H :   -0.001916
  12 C :   -0.067104
  13 H :    0.025693
  14 H :    0.043759
  15 H :    0.015429
  16 S :    0.126437
  17 C :   -0.089483
  18 C :    0.003683
  19 C :   -0.063505
  20 C :   -0.145096
  21 H :   -0.027312
  22 C :    0.073757
  23 H :    0.000601
  24 H :    0.035310
  25 C :   -0.066234
  26 H :    0.024075
  27 H :    0.021362
  28 C :   -0.043661
  29 H :    0.030573
  30 H :    0.056195
  31 H :    0.026953
  32 H :    0.026483
  33 H :    0.063198
Sum of atomic charges:   -0.0000000

LOEWDIN ATOMIC CHARGES
----------------------
   0 S :    0.445707
   1 C :   -0.198394
   2 C :   -0.062521
   3 C :   -0.057049
   4 C :   -0.222651
   5 H :    0.038361
   6 C :   -0.027332
   7 H :    0.024831
   8 H :    0.034185
   9 C :   -0.031953
  10 H :    0.024582
  11 H :    0.012981
  12 C :   -0.070593
  13 H :    0.028295
  14 H :    0.027629
  15 H :    0.021283
  16 S :    0.440790
  17 C :   -0.203255
  18 C :   -0.067415
  19 C :   -0.049162
  20 C :   -0.226829
  21 H :    0.012335
  22 C :   -0.047261
  23 H :    0.023540
  24 H :    0.042694
  25 C :   -0.038751
  26 H :    0.024710
  27 H :    0.024998
  28 C :   -0.066791
  29 H :    0.030330
  30 H :    0.038403
  31 H :    0.016697
  32 H :    0.016794
  33 H :    0.040812

  Mayer bond orders larger than 0.100000
B(  0-S ,  1-C ) :   1.1634 B(  0-S ,  4-C ) :   1.1735 B(  1-C ,  2-C ) :   1.5798
B(  1-C , 32-H ) :   0.9752 B(  2-C ,  3-C ) :   1.2740 B(  2-C ,  6-C ) :   1.0334
B(  3-C ,  4-C ) :   1.5466 B(  3-C ,  5-H ) :   0.9864 B(  4-C , 20-C ) :   1.0157
B(  6-C ,  7-H ) :   0.9248 B(  6-C ,  8-H ) :   0.9400 B(  6-C ,  9-C ) :   1.0691
B(  9-C , 10-H ) :   0.9511 B(  9-C , 11-H ) :   0.9499 B(  9-C , 12-C ) :   1.0853
B( 12-C , 13-H ) :   0.9716 B( 12-C , 14-H ) :   0.9764 B( 12-C , 15-H ) :   0.9726
B( 16-S , 17-C ) :   1.1748 B( 16-S , 20-C ) :   1.1597 B( 17-C , 18-C ) :   1.5875
B( 17-C , 33-H ) :   0.9602 B( 18-C , 19-C ) :   1.2713 B( 18-C , 21-H ) :   1.0038
B( 19-C , 20-C ) :   1.5456 B( 19-C , 22-C ) :   1.0774 B( 22-C , 23-H ) :   0.9179
B( 22-C , 24-H ) :   0.9199 B( 22-C , 25-C ) :   1.0737 B( 25-C , 26-H ) :   0.9532
B( 25-C , 27-H ) :   0.9532 B( 25-C , 28-C ) :   1.0776 B( 28-C , 29-H ) :   0.9713
B( 28-C , 30-H ) :   0.9711 B( 28-C , 31-H ) :   0.9761

Dispersion correction           -0.014189999
FINAL SINGLE POINT ENERGY     -1339.867634561035

DIPOLE MOMENT
-------------
                                X             Y             Z
Electronic contribution:     17.77437       2.90159       9.09055
Nuclear contribution   :    -18.13971      -2.94336      -9.55745
                        -----------------------------------------
Total Dipole Moment    :     -0.36535      -0.04177      -0.46690
                        -----------------------------------------
Magnitude (a.u.)       :      0.59432
Magnitude (Debye)      :      1.51064

Rotational constants in cm-1:     0.022961     0.007101     0.006616
Rotational constants in MHz :   688.360852   212.888164   198.345993

                             ****ORCA TERMINATED NORMALLY****
TOTAL RUN TIME: 0 days 0 hours 0 minutes 21 seconds 257 msec
