                         Program Version 4.2.1 -  RELEASE  -
|  1> ! wB97X-D3 SP def2-SVP
|  2> %pal
|  3> nprocs 24
|  4> end
|  5>
|  6> * xyz 0 1
|  7> S 	 -88.8379 	 -33.1066 	 -59.7647
|  8> C 	 -88.6809 	 -32.0725 	 -61.1278
|  9> C 	 -88.6443 	 -30.7268 	 -60.838
| 10> C 	 -88.7066 	 -30.5056 	 -59.4014
| 11> C 	 -88.8474 	 -31.7394 	 -58.7096
| 12> H 	 -88.6759 	 -29.5384 	 -58.8413
| 13> C 	 -88.6919 	 -29.5891 	 -61.8246
| 14> H 	 -88.1045 	 -29.8353 	 -62.6599
| 15> H 	 -88.1581 	 -28.7629 	 -61.4118
| 16> C 	 -90.053 	 -29.0821 	 -62.4561
| 17> H 	 -89.9038 	 -28.6957 	 -63.4205
| 18> H 	 -90.5773 	 -29.9741 	 -62.8062
| 19> C 	 -90.9395 	 -28.336 	 -61.405
| 20> H 	 -90.5699 	 -27.3386 	 -61.0855
| 21> H 	 -91.891 	 -28.1016 	 -61.9687
| 22> H 	 -91.2273 	 -28.9505 	 -60.5969
| 23> S 	 -90.0414 	 -33.0528 	 -56.7501
| 24> C 	 -89.344 	 -32.9215 	 -55.088
| 25> C 	 -88.3313 	 -31.9712 	 -55.013
| 26> C 	 -88.0008 	 -31.4453 	 -56.2991
| 27> C 	 -88.8292 	 -31.953 	 -57.2955
| 28> H 	 -87.844 	 -31.79 	 -54.167
| 29> C 	 -86.8889 	 -30.4348 	 -56.4456
| 30> H 	 -87.0917 	 -29.8326 	 -57.2994
| 31> H 	 -85.9191 	 -31.0107 	 -56.5222
| 32> C 	 -86.7182 	 -29.3756 	 -55.3994
| 33> H 	 -85.8181 	 -28.7705 	 -55.5773
| 34> H 	 -86.58 	 -29.8421 	 -54.3667
| 35> C 	 -87.8266 	 -28.3254 	 -55.4081
| 36> H 	 -87.6262 	 -27.6018 	 -54.5887
| 37> H 	 -88.7761 	 -28.8507 	 -55.3196
| 38> H 	 -87.8312 	 -27.7623 	 -56.3084
| 39> H 	 -88.8919 	 -32.4008 	 -62.1258
| 40> H 	 -89.6977 	 -33.4541 	 -54.1969
| 41> *
| 42>
| 43>                          ****END OF INPUT****

CARTESIAN COORDINATES (ANGSTROEM)
---------------------------------
  S    -88.837900  -33.106600  -59.764700
  C    -88.680900  -32.072500  -61.127800
  C    -88.644300  -30.726800  -60.838000
  C    -88.706600  -30.505600  -59.401400
  C    -88.847400  -31.739400  -58.709600
  H    -88.675900  -29.538400  -58.841300
  C    -88.691900  -29.589100  -61.824600
  H    -88.104500  -29.835300  -62.659900
  H    -88.158100  -28.762900  -61.411800
  C    -90.053000  -29.082100  -62.456100
  H    -89.903800  -28.695700  -63.420500
  H    -90.577300  -29.974100  -62.806200
  C    -90.939500  -28.336000  -61.405000
  H    -90.569900  -27.338600  -61.085500
  H    -91.891000  -28.101600  -61.968700
  H    -91.227300  -28.950500  -60.596900
  S    -90.041400  -33.052800  -56.750100
  C    -89.344000  -32.921500  -55.088000
  C    -88.331300  -31.971200  -55.013000
  C    -88.000800  -31.445300  -56.299100
  C    -88.829200  -31.953000  -57.295500
  H    -87.844000  -31.790000  -54.167000
  C    -86.888900  -30.434800  -56.445600
  H    -87.091700  -29.832600  -57.299400
  H    -85.919100  -31.010700  -56.522200
  C    -86.718200  -29.375600  -55.399400
  H    -85.818100  -28.770500  -55.577300
  H    -86.580000  -29.842100  -54.366700
  C    -87.826600  -28.325400  -55.408100
  H    -87.626200  -27.601800  -54.588700
  H    -88.776100  -28.850700  -55.319600
  H    -87.831200  -27.762300  -56.308400
  H    -88.891900  -32.400800  -62.125800
  H    -89.697700  -33.454100  -54.196900

 Total Charge           Charge          ....    0
 Multiplicity           Mult            ....    1
 Number of Electrons    NEL             ....  134
 Basis Dimension        Dim             ....  322

ORBITAL ENERGIES
----------------

  NO   OCC          E(Eh)            E(eV)
   0   2.0000     -88.968513     -2420.9563
   1   2.0000     -88.968129     -2420.9459
   2   2.0000     -10.325826      -280.9800
   3   2.0000     -10.322237      -280.8823
   4   2.0000     -10.321244      -280.8553
   5   2.0000     -10.306596      -280.4567
   6   2.0000     -10.302374      -280.3419
   7   2.0000     -10.302367      -280.3417
   8   2.0000     -10.301306      -280.3128
   9   2.0000     -10.289216      -279.9838
  10   2.0000     -10.289175      -279.9827
  11   2.0000     -10.288776      -279.9718
  12   2.0000     -10.287577      -279.9392
  13   2.0000     -10.284551      -279.8569
  14   2.0000     -10.282481      -279.8005
  15   2.0000     -10.275280      -279.6046
  16   2.0000      -8.083688      -219.9683
  17   2.0000      -8.082821      -219.9447
  18   2.0000      -6.042078      -164.4133
  19   2.0000      -6.041388      -164.3945
  20   2.0000      -6.038051      -164.3037
  21   2.0000      -6.037464      -164.2877
  22   2.0000      -6.034553      -164.2085
  23   2.0000      -6.033465      -164.1789
  24   2.0000      -1.009298       -27.4644
  25   2.0000      -0.981521       -26.7085
  26   2.0000      -0.917086       -24.9552
  27   2.0000      -0.905537       -24.6409
  28   2.0000      -0.870666       -23.6920
  29   2.0000      -0.850722       -23.1493
  30   2.0000      -0.844982       -22.9931
  31   2.0000      -0.811473       -22.0813
  32   2.0000      -0.785235       -21.3673
  33   2.0000      -0.772445       -21.0193
  34   2.0000      -0.713628       -19.4188
  35   2.0000      -0.703926       -19.1548
  36   2.0000      -0.690277       -18.7834
  37   2.0000      -0.667955       -18.1760
  38   2.0000      -0.639677       -17.4065
  39   2.0000      -0.612743       -16.6736
  40   2.0000      -0.594963       -16.1898
  41   2.0000      -0.568638       -15.4734
  42   2.0000      -0.560506       -15.2521
  43   2.0000      -0.548921       -14.9369
  44   2.0000      -0.545882       -14.8542
  45   2.0000      -0.532798       -14.4982
  46   2.0000      -0.514376       -13.9969
  47   2.0000      -0.508378       -13.8337
  48   2.0000      -0.502944       -13.6858
  49   2.0000      -0.497417       -13.5354
  50   2.0000      -0.495372       -13.4798
  51   2.0000      -0.479906       -13.0589
  52   2.0000      -0.467548       -12.7226
  53   2.0000      -0.464329       -12.6350
  54   2.0000      -0.459010       -12.4903
  55   2.0000      -0.455597       -12.3974
  56   2.0000      -0.445483       -12.1222
  57   2.0000      -0.439484       -11.9590
  58   2.0000      -0.437977       -11.9180
  59   2.0000      -0.424197       -11.5430
  60   2.0000      -0.418717       -11.3939
  61   2.0000      -0.415334       -11.3018
  62   2.0000      -0.407000       -11.0750
  63   2.0000      -0.346107        -9.4181
  64   2.0000      -0.331846        -9.0300
  65   2.0000      -0.330518        -8.9938
  66   2.0000      -0.286733        -7.8024
  67   0.0000       0.026960         0.7336
  68   0.0000       0.071690         1.9508
  69   0.0000       0.100850         2.7443
  70   0.0000       0.117072         3.1857
  71   0.0000       0.128638         3.5004

MULLIKEN ATOMIC CHARGES
-----------------------
   0 S :    0.130764
   1 C :   -0.101719
   2 C :   -0.101557
   3 C :    0.014971
   4 C :   -0.171466
   5 H :    0.034667
   6 C :    0.086263
   7 H :    0.003571
   8 H :    0.010274
   9 C :   -0.034842
  10 H :    0.013121
  11 H :    0.008875
  12 C :   -0.057042
  13 H :    0.039169
  14 H :    0.032351
  15 H :    0.045725
  16 S :    0.106235
  17 C :   -0.092151
  18 C :    0.021677
  19 C :   -0.051362
  20 C :   -0.162727
  21 H :   -0.039292
  22 C :    0.116891
  23 H :   -0.008120
  24 H :    0.054603
  25 C :   -0.115216
  26 H :    0.029617
  27 H :    0.032702
  28 C :   -0.047780
  29 H :    0.041716
  30 H :    0.042185
  31 H :    0.019724
  32 H :    0.038474
  33 H :    0.059698
Sum of atomic charges:    0.0000000

LOEWDIN ATOMIC CHARGES
----------------------
   0 S :    0.434716
   1 C :   -0.209677
   2 C :   -0.059796
   3 C :   -0.066697
   4 C :   -0.206942
   5 H :    0.037070
   6 C :   -0.033327
   7 H :    0.025159
   8 H :    0.025663
   9 C :   -0.035465
  10 H :    0.019379
  11 H :    0.025736
  12 C :   -0.066116
  13 H :    0.026703
  14 H :    0.033219
  15 H :    0.023550
  16 S :    0.396678
  17 C :   -0.167357
  18 C :   -0.047456
  19 C :   -0.054815
  20 C :   -0.209690
  21 H :    0.007334
  22 C :   -0.034642
  23 H :    0.022914
  24 H :    0.046135
  25 C :   -0.048358
  26 H :    0.028179
  27 H :    0.022417
  28 C :   -0.063672
  29 H :    0.032706
  30 H :    0.026184
  31 H :    0.017213
  32 H :    0.022076
  33 H :    0.030980

  Mayer bond orders larger than 0.100000
B(  0-S ,  1-C ) :   1.1417 B(  0-S ,  4-C ) :   1.1733 B(  1-C ,  2-C ) :   1.6176
B(  1-C , 32-H ) :   0.9632 B(  2-C ,  3-C ) :   1.2396 B(  2-C ,  6-C ) :   1.0374
B(  3-C ,  4-C ) :   1.5515 B(  3-C ,  5-H ) :   0.9806 B(  4-C , 20-C ) :   1.0418
B(  6-C ,  7-H ) :   0.9296 B(  6-C ,  8-H ) :   0.9385 B(  6-C ,  9-C ) :   1.0673
B(  9-C , 10-H ) :   0.9572 B(  9-C , 11-H ) :   0.9495 B(  9-C , 12-C ) :   1.0653
B( 12-C , 13-H ) :   0.9792 B( 12-C , 14-H ) :   0.9733 B( 12-C , 15-H ) :   0.9764
B( 16-S , 17-C ) :   1.1320 B( 16-S , 20-C ) :   1.1453 B( 17-C , 18-C ) :   1.6232
B( 17-C , 33-H ) :   0.9644 B( 18-C , 19-C ) :   1.2233 B( 18-C , 21-H ) :   1.0074
B( 19-C , 20-C ) :   1.5961 B( 19-C , 22-C ) :   1.0418 B( 22-C , 23-H ) :   0.9297
B( 22-C , 24-H ) :   0.9200 B( 22-C , 25-C ) :   1.0847 B( 25-C , 26-H ) :   0.9508
B( 25-C , 27-H ) :   0.9482 B( 25-C , 28-C ) :   1.0769 B( 28-C , 29-H ) :   0.9733
B( 28-C , 30-H ) :   0.9778 B( 28-C , 31-H ) :   0.9708

Dispersion correction           -0.014560731
FINAL SINGLE POINT ENERGY     -1339.862597182461

DIPOLE MOMENT
-------------
                                X             Y             Z
Electronic contribution:     -3.24902     -26.28399       3.10666
Nuclear contribution   :      3.41555      26.81011      -3.13571
                        -----------------------------------------
Total Dipole Moment    :      0.16653       0.52612      -0.02905
                        -----------------------------------------
Magnitude (a.u.)       :      0.55261
Magnitude (Debye)      :      1.40462

Rotational constants in cm-1:     0.018533     0.008940     0.007057
Rotational constants in MHz :   555.618196   268.009254   211.556276

                             ****ORCA TERMINATED NORMALLY****
TOTAL RUN TIME: 0 days 0 hours 0 minutes 21 seconds 904 msec
