                         Program Version 4.2.1 -  RELEASE  -
|  1> ! wB97X-D3 SP def2-SVP
|  2> %pal
|  3> nprocs 24
|  4> end
|  5>
|  6> * xyz 0 1
|  7> S 	 45.3506 	 -17.1064 	 -106.247
|  8> C 	 44.1126 	 -16.2297 	 -107.127
|  9> C 	 44.5549 	 -14.9645 	 -107.392
| 10> C 	 45.9392 	 -14.7531 	 -107.007
| 11> C 	 46.5608 	 -15.8611 	 -106.468
| 12> H 	 46.4916 	 -13.8511 	 -107.096
| 13> C 	 43.6406 	 -13.8859 	 -107.979
| 14> H 	 43.585 	 -13.0991 	 -107.25
| 15> H 	 42.5984 	 -14.2573 	 -108.105
| 16> C 	 44.1229 	 -13.2279 	 -109.256
| 17> H 	 45.0098 	 -12.6626 	 -109.152
| 18> H 	 44.3091 	 -13.9955 	 -109.976
| 19> C 	 43.1022 	 -12.2902 	 -109.865
| 20> H 	 43.5999 	 -11.728 	 -110.695
| 21> H 	 42.2913 	 -12.9172 	 -110.3
| 22> H 	 42.755 	 -11.5243 	 -109.175
| 23> S 	 47.8568 	 -16.7835 	 -104.282
| 24> C 	 49.5672 	 -16.5747 	 -104.036
| 25> C 	 50.1165 	 -15.8116 	 -105.046
| 26> C 	 49.1465 	 -15.3643 	 -106.028
| 27> C 	 47.8704 	 -15.9252 	 -105.837
| 28> H 	 51.1434 	 -15.5762 	 -105.167
| 29> C 	 49.5366 	 -14.5168 	 -107.216
| 30> H 	 49.9893 	 -13.5839 	 -106.827
| 31> H 	 48.6657 	 -14.2537 	 -107.817
| 32> C 	 50.4569 	 -15.3053 	 -108.247
| 33> H 	 51.3749 	 -15.4547 	 -107.724
| 34> H 	 50.7227 	 -14.5969 	 -109.09
| 35> C 	 49.7893 	 -16.5712 	 -108.816
| 36> H 	 48.9732 	 -16.295 	 -109.445
| 37> H 	 49.333 	 -17.0909 	 -108.013
| 38> H 	 50.5009 	 -17.2027 	 -109.412
| 39> H 	 43.1031 	 -16.6539 	 -107.211
| 40> H 	 50.0795 	 -16.9353 	 -103.2
| 41> *
| 42>
| 43>                          ****END OF INPUT****

CARTESIAN COORDINATES (ANGSTROEM)
---------------------------------
  S     45.350600  -17.106400  -106.247000
  C     44.112600  -16.229700  -107.127000
  C     44.554900  -14.964500  -107.392000
  C     45.939200  -14.753100  -107.007000
  C     46.560800  -15.861100  -106.468000
  H     46.491600  -13.851100  -107.096000
  C     43.640600  -13.885900  -107.979000
  H     43.585000  -13.099100  -107.250000
  H     42.598400  -14.257300  -108.105000
  C     44.122900  -13.227900  -109.256000
  H     45.009800  -12.662600  -109.152000
  H     44.309100  -13.995500  -109.976000
  C     43.102200  -12.290200  -109.865000
  H     43.599900  -11.728000  -110.695000
  H     42.291300  -12.917200  -110.300000
  H     42.755000  -11.524300  -109.175000
  S     47.856800  -16.783500  -104.282000
  C     49.567200  -16.574700  -104.036000
  C     50.116500  -15.811600  -105.046000
  C     49.146500  -15.364300  -106.028000
  C     47.870400  -15.925200  -105.837000
  H     51.143400  -15.576200  -105.167000
  C     49.536600  -14.516800  -107.216000
  H     49.989300  -13.583900  -106.827000
  H     48.665700  -14.253700  -107.817000
  C     50.456900  -15.305300  -108.247000
  H     51.374900  -15.454700  -107.724000
  H     50.722700  -14.596900  -109.090000
  C     49.789300  -16.571200  -108.816000
  H     48.973200  -16.295000  -109.445000
  H     49.333000  -17.090900  -108.013000
  H     50.500900  -17.202700  -109.412000
  H     43.103100  -16.653900  -107.211000
  H     50.079500  -16.935300  -103.200000

 Total Charge           Charge          ....    0
 Multiplicity           Mult            ....    1
 Number of Electrons    NEL             ....  134
 Basis Dimension        Dim             ....  322

ORBITAL ENERGIES
----------------

  NO   OCC          E(Eh)            E(eV)
   0   2.0000     -88.962978     -2420.8057
   1   2.0000     -88.962551     -2420.7941
   2   2.0000     -10.333515      -281.1892
   3   2.0000     -10.333181      -281.1802
   4   2.0000     -10.317025      -280.7405
   5   2.0000     -10.316725      -280.7324
   6   2.0000     -10.308583      -280.5108
   7   2.0000     -10.305766      -280.4341
   8   2.0000     -10.296209      -280.1741
   9   2.0000     -10.296052      -280.1698
  10   2.0000     -10.295401      -280.1521
  11   2.0000     -10.293125      -280.0902
  12   2.0000     -10.290315      -280.0137
  13   2.0000     -10.281956      -279.7862
  14   2.0000     -10.277040      -279.6525
  15   2.0000     -10.271517      -279.5022
  16   2.0000      -8.077816      -219.8086
  17   2.0000      -8.077564      -219.8017
  18   2.0000      -6.036411      -164.2591
  19   2.0000      -6.036225      -164.2540
  20   2.0000      -6.032235      -164.1454
  21   2.0000      -6.031977      -164.1384
  22   2.0000      -6.028519      -164.0443
  23   2.0000      -6.028185      -164.0353
  24   2.0000      -1.007038       -27.4029
  25   2.0000      -0.983010       -26.7491
  26   2.0000      -0.916355       -24.9353
  27   2.0000      -0.904155       -24.6033
  28   2.0000      -0.875312       -23.8184
  29   2.0000      -0.848085       -23.0776
  30   2.0000      -0.840429       -22.8692
  31   2.0000      -0.817592       -22.2478
  32   2.0000      -0.780607       -21.2414
  33   2.0000      -0.772118       -21.0104
  34   2.0000      -0.709241       -19.2994
  35   2.0000      -0.697854       -18.9896
  36   2.0000      -0.693853       -18.8807
  37   2.0000      -0.663141       -18.0450
  38   2.0000      -0.646804       -17.6004
  39   2.0000      -0.621059       -16.8999
  40   2.0000      -0.599197       -16.3050
  41   2.0000      -0.577957       -15.7270
  42   2.0000      -0.564874       -15.3710
  43   2.0000      -0.552037       -15.0217
  44   2.0000      -0.540747       -14.7145
  45   2.0000      -0.522544       -14.2192
  46   2.0000      -0.517478       -14.0813
  47   2.0000      -0.512472       -13.9451
  48   2.0000      -0.506700       -13.7880
  49   2.0000      -0.500475       -13.6186
  50   2.0000      -0.495504       -13.4833
  51   2.0000      -0.477134       -12.9835
  52   2.0000      -0.471174       -12.8213
  53   2.0000      -0.465521       -12.6675
  54   2.0000      -0.464385       -12.6365
  55   2.0000      -0.445919       -12.1341
  56   2.0000      -0.444453       -12.0942
  57   2.0000      -0.440118       -11.9762
  58   2.0000      -0.432733       -11.7753
  59   2.0000      -0.425875       -11.5886
  60   2.0000      -0.416831       -11.3425
  61   2.0000      -0.415940       -11.3183
  62   2.0000      -0.407571       -11.0906
  63   2.0000      -0.359787        -9.7903
  64   2.0000      -0.329659        -8.9705
  65   2.0000      -0.325848        -8.8668
  66   2.0000      -0.289753        -7.8846
  67   0.0000       0.022897         0.6231
  68   0.0000       0.076441         2.0801
  69   0.0000       0.105685         2.8758
  70   0.0000       0.124455         3.3866
  71   0.0000       0.129061         3.5119

MULLIKEN ATOMIC CHARGES
-----------------------
   0 S :    0.084832
   1 C :   -0.137409
   2 C :   -0.063349
   3 C :    0.027862
   4 C :   -0.115590
   5 H :    0.004532
   6 C :    0.076585
   7 H :    0.023402
   8 H :    0.019586
   9 C :   -0.065660
  10 H :    0.018778
  11 H :    0.022846
  12 C :   -0.067972
  13 H :    0.035849
  14 H :    0.039910
  15 H :    0.032696
  16 S :    0.084243
  17 C :   -0.056443
  18 C :   -0.009976
  19 C :   -0.075050
  20 C :   -0.142008
  21 H :    0.008920
  22 C :    0.032954
  23 H :    0.042742
  24 H :    0.019034
  25 C :   -0.087753
  26 H :    0.019552
  27 H :    0.035597
  28 C :   -0.028240
  29 H :    0.023892
  30 H :    0.039971
  31 H :    0.047593
  32 H :    0.065247
  33 H :    0.042827
Sum of atomic charges:   -0.0000000

LOEWDIN ATOMIC CHARGES
----------------------
   0 S :    0.393664
   1 C :   -0.194730
   2 C :   -0.060299
   3 C :   -0.060973
   4 C :   -0.192134
   5 H :    0.023833
   6 C :   -0.029140
   7 H :    0.029282
   8 H :    0.032449
   9 C :   -0.042874
  10 H :    0.016976
  11 H :    0.022327
  12 C :   -0.065463
  13 H :    0.031183
  14 H :    0.028511
  15 H :    0.022264
  16 S :    0.397153
  17 C :   -0.172556
  18 C :   -0.065173
  19 C :   -0.058807
  20 C :   -0.185966
  21 H :    0.025719
  22 C :   -0.035973
  23 H :    0.036182
  24 H :    0.025665
  25 C :   -0.036964
  26 H :    0.011890
  27 H :    0.027574
  28 C :   -0.062101
  29 H :    0.023948
  30 H :    0.023903
  31 H :    0.034899
  32 H :    0.035521
  33 H :    0.020213

  Mayer bond orders larger than 0.100000
B(  0-S ,  1-C ) :   1.1250 B(  0-S ,  4-C ) :   1.1491 B(  1-C ,  2-C ) :   1.6114
B(  1-C , 32-H ) :   0.9719 B(  2-C ,  3-C ) :   1.2257 B(  2-C ,  6-C ) :   1.0274
B(  3-C ,  4-C ) :   1.5646 B(  3-C ,  5-H ) :   0.9974 B(  4-C , 20-C ) :   1.0611
B(  6-C ,  7-H ) :   0.9297 B(  6-C ,  8-H ) :   0.9472 B(  6-C ,  9-C ) :   1.0663
B(  9-C , 10-H ) :   0.9515 B(  9-C , 11-H ) :   0.9557 B(  9-C , 12-C ) :   1.0963
B( 12-C , 13-H ) :   0.9742 B( 12-C , 14-H ) :   0.9755 B( 12-C , 15-H ) :   0.9735
B( 16-S , 17-C ) :   1.1545 B( 16-S , 20-C ) :   1.1348 B( 17-C , 18-C ) :   1.5903
B( 17-C , 33-H ) :   0.9787 B( 18-C , 19-C ) :   1.2368 B( 18-C , 21-H ) :   0.9946
B( 19-C , 20-C ) :   1.5840 B( 19-C , 22-C ) :   1.0530 B( 22-C , 23-H ) :   0.9341
B( 22-C , 24-H ) :   0.9414 B( 22-C , 25-C ) :   1.0600 B( 25-C , 26-H ) :   0.9621
B( 25-C , 27-H ) :   0.9583 B( 25-C , 28-C ) :   1.0608 B( 28-C , 29-H ) :   0.9725
B( 28-C , 30-H ) :   0.9762 B( 28-C , 31-H ) :   0.9735

Dispersion correction           -0.014242418
FINAL SINGLE POINT ENERGY     -1339.889898795751

DIPOLE MOMENT
-------------
                                X             Y             Z
Electronic contribution:      0.05871     -16.19880      22.51365
Nuclear contribution   :      0.03048      16.77164     -22.81473
                        -----------------------------------------
Total Dipole Moment    :      0.08919       0.57284      -0.30108
                        -----------------------------------------
Magnitude (a.u.)       :      0.65326
Magnitude (Debye)      :      1.66045

Rotational constants in cm-1:     0.020065     0.008239     0.006632
Rotational constants in MHz :   601.523872   247.013910   198.812389

                             ****ORCA TERMINATED NORMALLY****
TOTAL RUN TIME: 0 days 0 hours 0 minutes 21 seconds 524 msec
