                         Program Version 4.2.1 -  RELEASE  -
|  1> ! wB97X-D3 SP def2-SVP
|  2> %pal
|  3> nprocs 24
|  4> end
|  5>
|  6> * xyz 0 1
|  7> S 	 -88.8269 	 -32.6713 	 -74.0904
|  8> C 	 -89.2306 	 -32.784 	 -75.8206
|  9> C 	 -89.6148 	 -31.6024 	 -76.3505
| 10> C 	 -89.7245 	 -30.6364 	 -75.3599
| 11> C 	 -89.412 	 -31.0594 	 -74.0886
| 12> H 	 -89.9953 	 -29.6923 	 -75.4748
| 13> C 	 -90.0113 	 -31.4085 	 -77.8423
| 14> H 	 -89.1552 	 -31.777 	 -78.3782
| 15> H 	 -90.1951 	 -30.3714 	 -78.064
| 16> C 	 -91.1864 	 -32.2605 	 -78.2578
| 17> H 	 -91.4541 	 -32.0854 	 -79.2843
| 18> H 	 -90.8836 	 -33.2748 	 -78.1419
| 19> C 	 -92.4381 	 -31.9549 	 -77.4289
| 20> H 	 -93.1655 	 -32.7135 	 -77.8043
| 21> H 	 -92.2584 	 -32.1456 	 -76.3615
| 22> H 	 -92.9328 	 -30.9801 	 -77.6275
| 23> S 	 -88.2006 	 -30.8518 	 -71.6747
| 24> C 	 -88.4235 	 -29.4147 	 -70.6686
| 25> C 	 -89.117 	 -28.4646 	 -71.4394
| 26> C 	 -89.6374 	 -28.8654 	 -72.7156
| 27> C 	 -89.2134 	 -30.1521 	 -72.9612
| 28> H 	 -89.294 	 -27.5536 	 -70.9466
| 29> C 	 -90.526 	 -27.9687 	 -73.5606
| 30> H 	 -91.1647 	 -27.3827 	 -72.9641
| 31> H 	 -91.2802 	 -28.5233 	 -74.0953
| 32> C 	 -89.6832 	 -27.1206 	 -74.5665
| 33> H 	 -89.152 	 -27.7662 	 -75.236
| 34> H 	 -88.9345 	 -26.5634 	 -73.9876
| 35> C 	 -90.5205 	 -26.3211 	 -75.4992
| 36> H 	 -91.4214 	 -26.8597 	 -75.7931
| 37> H 	 -89.9697 	 -26.1286 	 -76.3867
| 38> H 	 -90.9744 	 -25.4583 	 -75.0653
| 39> H 	 -89.2641 	 -33.7405 	 -76.3128
| 40> H 	 -88.2615 	 -29.2737 	 -69.6126
| 41> *
| 42>
| 43>                          ****END OF INPUT****

CARTESIAN COORDINATES (ANGSTROEM)
---------------------------------
  S    -88.826900  -32.671300  -74.090400
  C    -89.230600  -32.784000  -75.820600
  C    -89.614800  -31.602400  -76.350500
  C    -89.724500  -30.636400  -75.359900
  C    -89.412000  -31.059400  -74.088600
  H    -89.995300  -29.692300  -75.474800
  C    -90.011300  -31.408500  -77.842300
  H    -89.155200  -31.777000  -78.378200
  H    -90.195100  -30.371400  -78.064000
  C    -91.186400  -32.260500  -78.257800
  H    -91.454100  -32.085400  -79.284300
  H    -90.883600  -33.274800  -78.141900
  C    -92.438100  -31.954900  -77.428900
  H    -93.165500  -32.713500  -77.804300
  H    -92.258400  -32.145600  -76.361500
  H    -92.932800  -30.980100  -77.627500
  S    -88.200600  -30.851800  -71.674700
  C    -88.423500  -29.414700  -70.668600
  C    -89.117000  -28.464600  -71.439400
  C    -89.637400  -28.865400  -72.715600
  C    -89.213400  -30.152100  -72.961200
  H    -89.294000  -27.553600  -70.946600
  C    -90.526000  -27.968700  -73.560600
  H    -91.164700  -27.382700  -72.964100
  H    -91.280200  -28.523300  -74.095300
  C    -89.683200  -27.120600  -74.566500
  H    -89.152000  -27.766200  -75.236000
  H    -88.934500  -26.563400  -73.987600
  C    -90.520500  -26.321100  -75.499200
  H    -91.421400  -26.859700  -75.793100
  H    -89.969700  -26.128600  -76.386700
  H    -90.974400  -25.458300  -75.065300
  H    -89.264100  -33.740500  -76.312800
  H    -88.261500  -29.273700  -69.612600

 Total Charge           Charge          ....    0
 Multiplicity           Mult            ....    1
 Number of Electrons    NEL             ....  134
 Basis Dimension        Dim             ....  322

ORBITAL ENERGIES
----------------

  NO   OCC          E(Eh)            E(eV)
   0   2.0000     -88.966950     -2420.9138
   1   2.0000     -88.964177     -2420.8383
   2   2.0000     -10.329420      -281.0778
   3   2.0000     -10.323572      -280.9187
   4   2.0000     -10.317039      -280.7409
   5   2.0000     -10.310113      -280.5524
   6   2.0000     -10.304719      -280.4057
   7   2.0000     -10.296916      -280.1933
   8   2.0000     -10.293275      -280.0942
   9   2.0000     -10.291812      -280.0544
  10   2.0000     -10.289829      -280.0005
  11   2.0000     -10.286103      -279.8991
  12   2.0000     -10.282279      -279.7950
  13   2.0000     -10.279067      -279.7076
  14   2.0000     -10.277462      -279.6640
  15   2.0000     -10.271892      -279.5124
  16   2.0000      -8.081955      -219.9212
  17   2.0000      -8.078197      -219.8189
  18   2.0000      -6.040398      -164.3676
  19   2.0000      -6.036885      -164.2720
  20   2.0000      -6.036592      -164.2640
  21   2.0000      -6.032864      -164.1626
  22   2.0000      -6.032601      -164.1554
  23   2.0000      -6.028769      -164.0511
  24   2.0000      -1.012022       -27.5385
  25   2.0000      -0.982327       -26.7305
  26   2.0000      -0.918513       -24.9940
  27   2.0000      -0.914993       -24.8982
  28   2.0000      -0.867995       -23.6193
  29   2.0000      -0.860626       -23.4188
  30   2.0000      -0.846425       -23.0324
  31   2.0000      -0.812438       -22.1076
  32   2.0000      -0.787542       -21.4301
  33   2.0000      -0.778896       -21.1948
  34   2.0000      -0.709013       -19.2932
  35   2.0000      -0.703704       -19.1488
  36   2.0000      -0.696686       -18.9578
  37   2.0000      -0.669281       -18.2121
  38   2.0000      -0.643634       -17.5142
  39   2.0000      -0.619317       -16.8525
  40   2.0000      -0.598216       -16.2783
  41   2.0000      -0.581526       -15.8241
  42   2.0000      -0.570365       -15.5204
  43   2.0000      -0.554387       -15.0856
  44   2.0000      -0.542338       -14.7578
  45   2.0000      -0.535615       -14.5748
  46   2.0000      -0.519031       -14.1235
  47   2.0000      -0.515041       -14.0150
  48   2.0000      -0.508569       -13.8389
  49   2.0000      -0.501680       -13.6514
  50   2.0000      -0.490566       -13.3490
  51   2.0000      -0.484324       -13.1791
  52   2.0000      -0.473848       -12.8941
  53   2.0000      -0.465001       -12.6533
  54   2.0000      -0.455044       -12.3824
  55   2.0000      -0.452382       -12.3099
  56   2.0000      -0.444287       -12.0897
  57   2.0000      -0.440133       -11.9766
  58   2.0000      -0.435321       -11.8457
  59   2.0000      -0.427103       -11.6221
  60   2.0000      -0.423311       -11.5189
  61   2.0000      -0.416724       -11.3396
  62   2.0000      -0.412145       -11.2150
  63   2.0000      -0.357206        -9.7201
  64   2.0000      -0.339713        -9.2441
  65   2.0000      -0.328611        -8.9420
  66   2.0000      -0.279487        -7.6052
  67   0.0000       0.017330         0.4716
  68   0.0000       0.081215         2.2100
  69   0.0000       0.093387         2.5412
  70   0.0000       0.126343         3.4380
  71   0.0000       0.133549         3.6341

MULLIKEN ATOMIC CHARGES
-----------------------
   0 S :    0.098028
   1 C :   -0.153944
   2 C :   -0.050639
   3 C :    0.043950
   4 C :   -0.069535
   5 H :   -0.108562
   6 C :    0.129724
   7 H :    0.028549
   8 H :    0.015220
   9 C :   -0.067703
  10 H :    0.027919
  11 H :    0.019856
  12 C :   -0.085161
  13 H :    0.032068
  14 H :    0.057280
  15 H :    0.038840
  16 S :    0.079657
  17 C :   -0.090254
  18 C :   -0.032868
  19 C :   -0.048295
  20 C :   -0.122493
  21 H :   -0.003764
  22 C :    0.083153
  23 H :    0.005841
  24 H :    0.013120
  25 C :   -0.072772
  26 H :    0.023456
  27 H :    0.032741
  28 C :    0.009869
  29 H :    0.009990
  30 H :    0.031796
  31 H :    0.020694
  32 H :    0.044279
  33 H :    0.059959
Sum of atomic charges:    0.0000000

LOEWDIN ATOMIC CHARGES
----------------------
   0 S :    0.404368
   1 C :   -0.183516
   2 C :   -0.056759
   3 C :   -0.052629
   4 C :   -0.193287
   5 H :    0.000292
   6 C :   -0.020059
   7 H :    0.032047
   8 H :    0.024365
   9 C :   -0.037191
  10 H :    0.023986
  11 H :    0.018573
  12 C :   -0.072113
  13 H :    0.030335
  14 H :    0.029399
  15 H :    0.027072
  16 S :    0.374963
  17 C :   -0.189874
  18 C :   -0.059490
  19 C :   -0.061047
  20 C :   -0.165605
  21 H :    0.018926
  22 C :   -0.025465
  23 H :    0.024637
  24 H :    0.026695
  25 C :   -0.035044
  26 H :    0.021615
  27 H :    0.028045
  28 C :   -0.061274
  29 H :    0.025889
  30 H :    0.025632
  31 H :    0.021348
  32 H :    0.022025
  33 H :    0.033138

  Mayer bond orders larger than 0.100000
B(  0-S ,  1-C ) :   1.1326 B(  0-S ,  4-C ) :   1.1529 B(  1-C ,  2-C ) :   1.5924
B(  1-C , 32-H ) :   0.9718 B(  2-C ,  3-C ) :   1.2583 B(  2-C ,  6-C ) :   0.9984
B(  3-C ,  4-C ) :   1.5331 B(  3-C ,  5-H ) :   1.0240 B(  4-C , 20-C ) :   1.0731
B(  6-C ,  7-H ) :   0.9334 B(  6-C ,  8-H ) :   0.9444 B(  6-C ,  9-C ) :   1.0873
B(  9-C , 10-H ) :   0.9538 B(  9-C , 11-H ) :   0.9549 B(  9-C , 12-C ) :   1.0799
B( 12-C , 13-H ) :   0.9734 B( 12-C , 14-H ) :   0.9715 B( 12-C , 15-H ) :   0.9755
B( 16-S , 17-C ) :   1.1244 B( 16-S , 20-C ) :   1.1304 B( 17-C , 18-C ) :   1.6349
B( 17-C , 33-H ) :   0.9694 B( 18-C , 19-C ) :   1.2242 B( 18-C , 21-H ) :   0.9892
B( 19-C , 20-C ) :   1.6097 B( 19-C , 22-C ) :   1.0430 B( 22-C , 23-H ) :   0.9285
B( 22-C , 24-H ) :   0.9291 B( 22-C , 25-C ) :   1.0580 B( 25-C , 26-H ) :   0.9578
B( 25-C , 27-H ) :   0.9525 B( 25-C , 28-C ) :   1.0836 B( 28-C , 29-H ) :   0.9644
B( 28-C , 30-H ) :   0.9746 B( 28-C , 31-H ) :   0.9702

Dispersion correction           -0.014716809
FINAL SINGLE POINT ENERGY     -1339.864478535280

DIPOLE MOMENT
-------------
                                X             Y             Z
Electronic contribution:     15.56434     -13.96670      21.55693
Nuclear contribution   :    -16.00106      14.41450     -22.06589
                        -----------------------------------------
Total Dipole Moment    :     -0.43672       0.44780      -0.50896
                        -----------------------------------------
Magnitude (a.u.)       :      0.80640
Magnitude (Debye)      :      2.04972

Rotational constants in cm-1:     0.018092     0.010032     0.006932
Rotational constants in MHz :   542.384915   300.743054   207.807623

                             ****ORCA TERMINATED NORMALLY****
TOTAL RUN TIME: 0 days 0 hours 0 minutes 21 seconds 427 msec
