                         Program Version 4.2.1 -  RELEASE  -
|  1> ! wB97X-D3 SP def2-SVP
|  2> %pal
|  3> nprocs 24
|  4> end
|  5>
|  6> * xyz 0 1
|  7> S 	 34.5728 	 -36.3606 	 -129.428
|  8> C 	 34.5549 	 -34.9808 	 -128.409
|  9> C 	 34.1918 	 -33.8764 	 -129.069
| 10> C 	 34.1972 	 -34.0624 	 -130.456
| 11> C 	 34.5221 	 -35.3255 	 -130.849
| 12> H 	 33.9676 	 -33.2881 	 -131.149
| 13> C 	 34.1268 	 -32.4315 	 -128.462
| 14> H 	 33.54 	 -32.4542 	 -127.518
| 15> H 	 33.5212 	 -31.7052 	 -129.041
| 16> C 	 35.5561 	 -31.8153 	 -128.131
| 17> H 	 35.3601 	 -30.9177 	 -127.649
| 18> H 	 36.0281 	 -32.5077 	 -127.445
| 19> C 	 36.5642 	 -31.5489 	 -129.257
| 20> H 	 36.8459 	 -32.4384 	 -129.871
| 21> H 	 36.2206 	 -30.7322 	 -129.969
| 22> H 	 37.5164 	 -31.1424 	 -128.829
| 23> S 	 33.8802 	 -37.3132 	 -132.645
| 24> C 	 34.6856 	 -37.4384 	 -134.175
| 25> C 	 35.3167 	 -36.2603 	 -134.405
| 26> C 	 35.415 	 -35.3625 	 -133.25
| 27> C 	 34.6924 	 -35.85 	 -132.152
| 28> H 	 35.7564 	 -36.0723 	 -135.387
| 29> C 	 36.2772 	 -34.159 	 -133.285
| 30> H 	 37.3363 	 -34.478 	 -133.402
| 31> H 	 36.2542 	 -33.6864 	 -132.262
| 32> C 	 35.8027 	 -33.1294 	 -134.324
| 33> H 	 34.7242 	 -33.1133 	 -134.041
| 34> H 	 35.8953 	 -33.3524 	 -135.422
| 35> C 	 36.5592 	 -31.7171 	 -134.313
| 36> H 	 36.5699 	 -31.1559 	 -133.385
| 37> H 	 36.1171 	 -31.0006 	 -135.058
| 38> H 	 37.5528 	 -31.7234 	 -134.64
| 39> H 	 34.4277 	 -35.1308 	 -127.382
| 40> H 	 34.4278 	 -38.2626 	 -134.786
| 41> *
| 42>
| 43>                          ****END OF INPUT****

CARTESIAN COORDINATES (ANGSTROEM)
---------------------------------
  S     34.572800  -36.360600  -129.428000
  C     34.554900  -34.980800  -128.409000
  C     34.191800  -33.876400  -129.069000
  C     34.197200  -34.062400  -130.456000
  C     34.522100  -35.325500  -130.849000
  H     33.967600  -33.288100  -131.149000
  C     34.126800  -32.431500  -128.462000
  H     33.540000  -32.454200  -127.518000
  H     33.521200  -31.705200  -129.041000
  C     35.556100  -31.815300  -128.131000
  H     35.360100  -30.917700  -127.649000
  H     36.028100  -32.507700  -127.445000
  C     36.564200  -31.548900  -129.257000
  H     36.845900  -32.438400  -129.871000
  H     36.220600  -30.732200  -129.969000
  H     37.516400  -31.142400  -128.829000
  S     33.880200  -37.313200  -132.645000
  C     34.685600  -37.438400  -134.175000
  C     35.316700  -36.260300  -134.405000
  C     35.415000  -35.362500  -133.250000
  C     34.692400  -35.850000  -132.152000
  H     35.756400  -36.072300  -135.387000
  C     36.277200  -34.159000  -133.285000
  H     37.336300  -34.478000  -133.402000
  H     36.254200  -33.686400  -132.262000
  C     35.802700  -33.129400  -134.324000
  H     34.724200  -33.113300  -134.041000
  H     35.895300  -33.352400  -135.422000
  C     36.559200  -31.717100  -134.313000
  H     36.569900  -31.155900  -133.385000
  H     36.117100  -31.000600  -135.058000
  H     37.552800  -31.723400  -134.640000
  H     34.427700  -35.130800  -127.382000
  H     34.427800  -38.262600  -134.786000

 Total Charge           Charge          ....    0
 Multiplicity           Mult            ....    1
 Number of Electrons    NEL             ....  134
 Basis Dimension        Dim             ....  322

ORBITAL ENERGIES
----------------

  NO   OCC          E(Eh)            E(eV)
   0   2.0000     -88.962706     -2420.7983
   1   2.0000     -88.957115     -2420.6462
   2   2.0000     -10.325672      -280.9758
   3   2.0000     -10.325213      -280.9633
   4   2.0000     -10.314516      -280.6722
   5   2.0000     -10.304822      -280.4085
   6   2.0000     -10.304333      -280.3952
   7   2.0000     -10.303658      -280.3768
   8   2.0000     -10.300731      -280.2971
   9   2.0000     -10.297245      -280.2023
  10   2.0000     -10.296135      -280.1721
  11   2.0000     -10.294645      -280.1315
  12   2.0000     -10.288742      -279.9709
  13   2.0000     -10.287964      -279.9497
  14   2.0000     -10.287089      -279.9259
  15   2.0000     -10.280472      -279.7459
  16   2.0000      -8.078545      -219.8284
  17   2.0000      -8.073027      -219.6782
  18   2.0000      -6.036952      -164.2738
  19   2.0000      -6.033045      -164.1675
  20   2.0000      -6.031559      -164.1271
  21   2.0000      -6.029181      -164.0624
  22   2.0000      -6.027351      -164.0126
  23   2.0000      -6.023698      -163.9131
  24   2.0000      -1.016445       -27.6589
  25   2.0000      -0.991598       -26.9828
  26   2.0000      -0.906262       -24.6607
  27   2.0000      -0.903136       -24.5756
  28   2.0000      -0.877286       -23.8722
  29   2.0000      -0.850753       -23.1502
  30   2.0000      -0.840141       -22.8614
  31   2.0000      -0.818068       -22.2608
  32   2.0000      -0.783123       -21.3099
  33   2.0000      -0.774236       -21.0680
  34   2.0000      -0.710174       -19.3248
  35   2.0000      -0.702109       -19.1054
  36   2.0000      -0.697563       -18.9816
  37   2.0000      -0.662048       -18.0152
  38   2.0000      -0.646264       -17.5857
  39   2.0000      -0.621381       -16.9086
  40   2.0000      -0.600422       -16.3383
  41   2.0000      -0.574343       -15.6287
  42   2.0000      -0.564722       -15.3669
  43   2.0000      -0.547053       -14.8861
  44   2.0000      -0.536103       -14.5881
  45   2.0000      -0.524455       -14.2711
  46   2.0000      -0.511131       -13.9086
  47   2.0000      -0.510781       -13.8991
  48   2.0000      -0.504386       -13.7251
  49   2.0000      -0.502228       -13.6663
  50   2.0000      -0.491100       -13.3635
  51   2.0000      -0.480341       -13.0707
  52   2.0000      -0.474993       -12.9252
  53   2.0000      -0.468217       -12.7408
  54   2.0000      -0.456726       -12.4281
  55   2.0000      -0.449872       -12.2416
  56   2.0000      -0.443377       -12.0649
  57   2.0000      -0.437468       -11.9041
  58   2.0000      -0.429597       -11.6899
  59   2.0000      -0.423180       -11.5153
  60   2.0000      -0.417542       -11.3619
  61   2.0000      -0.415941       -11.3183
  62   2.0000      -0.408888       -11.1264
  63   2.0000      -0.354983        -9.6596
  64   2.0000      -0.333491        -9.0747
  65   2.0000      -0.323508        -8.8031
  66   2.0000      -0.293901        -7.9975
  67   0.0000       0.024933         0.6785
  68   0.0000       0.074127         2.0171
  69   0.0000       0.108966         2.9651
  70   0.0000       0.125310         3.4099
  71   0.0000       0.127930         3.4812

MULLIKEN ATOMIC CHARGES
-----------------------
   0 S :    0.110294
   1 C :   -0.100993
   2 C :   -0.057695
   3 C :    0.031318
   4 C :   -0.161604
   5 H :   -0.000076
   6 C :    0.020410
   7 H :    0.028043
   8 H :    0.026572
   9 C :   -0.023920
  10 H :    0.018700
  11 H :    0.027143
  12 C :   -0.104468
  13 H :    0.057864
  14 H :    0.034774
  15 H :    0.039327
  16 S :    0.080131
  17 C :   -0.082438
  18 C :   -0.016195
  19 C :   -0.069501
  20 C :   -0.121253
  21 H :    0.024674
  22 C :    0.072146
  23 H :    0.039925
  24 H :    0.028082
  25 C :   -0.114244
  26 H :    0.043220
  27 H :    0.048868
  28 C :   -0.050809
  29 H :    0.027513
  30 H :    0.031296
  31 H :    0.021101
  32 H :    0.035607
  33 H :    0.056192
Sum of atomic charges:   -0.0000000

LOEWDIN ATOMIC CHARGES
----------------------
   0 S :    0.416159
   1 C :   -0.190713
   2 C :   -0.068875
   3 C :   -0.053904
   4 C :   -0.188415
   5 H :    0.027935
   6 C :   -0.031695
   7 H :    0.032390
   8 H :    0.028091
   9 C :   -0.032075
  10 H :    0.016456
  11 H :    0.024458
  12 C :   -0.078883
  13 H :    0.028818
  14 H :    0.027009
  15 H :    0.032589
  16 S :    0.398774
  17 C :   -0.176005
  18 C :   -0.069097
  19 C :   -0.059282
  20 C :   -0.201253
  21 H :    0.032017
  22 C :   -0.043245
  23 H :    0.033521
  24 H :    0.036750
  25 C :   -0.043674
  26 H :    0.030762
  27 H :    0.031938
  28 C :   -0.073879
  29 H :    0.020753
  30 H :    0.032927
  31 H :    0.017744
  32 H :    0.017444
  33 H :    0.024463

  Mayer bond orders larger than 0.100000
B(  0-S ,  1-C ) :   1.1497 B(  0-S ,  4-C ) :   1.1457 B(  1-C ,  2-C ) :   1.6160
B(  1-C ,  4-C ) :   0.1018 B(  1-C , 32-H ) :   0.9680 B(  2-C ,  3-C ) :   1.2509
B(  2-C ,  6-C ) :   1.0218 B(  3-C ,  4-C ) :   1.5514 B(  3-C ,  5-H ) :   1.0107
B(  4-C , 20-C ) :   1.0760 B(  6-C ,  7-H ) :   0.9408 B(  6-C ,  8-H ) :   0.9497
B(  6-C ,  9-C ) :   1.0643 B(  9-C , 10-H ) :   0.9542 B(  9-C , 11-H ) :   0.9563
B(  9-C , 12-C ) :   1.0826 B( 12-C , 13-H ) :   0.9724 B( 12-C , 14-H ) :   0.9747
B( 12-C , 15-H ) :   0.9693 B( 16-S , 17-C ) :   1.1476 B( 16-S , 20-C ) :   1.1415
B( 17-C , 18-C ) :   1.6022 B( 17-C , 33-H ) :   0.9792 B( 18-C , 19-C ) :   1.2153
B( 18-C , 21-H ) :   0.9921 B( 19-C , 20-C ) :   1.5756 B( 19-C , 22-C ) :   1.0719
B( 22-C , 23-H ) :   0.9282 B( 22-C , 24-H ) :   0.9307 B( 22-C , 25-C ) :   1.0347
B( 25-C , 26-H ) :   0.9583 B( 25-C , 27-H ) :   0.9580 B( 25-C , 28-C ) :   1.0669
B( 28-C , 29-H ) :   0.9778 B( 28-C , 30-H ) :   0.9763 B( 28-C , 31-H ) :   0.9748

Dispersion correction           -0.014988039
FINAL SINGLE POINT ENERGY     -1339.868978756713

DIPOLE MOMENT
-------------
                                X             Y             Z
Electronic contribution:    -11.71956     -29.71238       2.49703
Nuclear contribution   :     11.88952      30.36660      -2.60329
                        -----------------------------------------
Total Dipole Moment    :      0.16996       0.65422      -0.10626
                        -----------------------------------------
Magnitude (a.u.)       :      0.68424
Magnitude (Debye)      :      1.73920

Rotational constants in cm-1:     0.016670     0.010606     0.006874
Rotational constants in MHz :   499.752184   317.966489   206.069138

                             ****ORCA TERMINATED NORMALLY****
TOTAL RUN TIME: 0 days 0 hours 0 minutes 22 seconds 327 msec
