                         Program Version 4.2.1 -  RELEASE  -
|  1> ! wB97X-D3 SP def2-SVP
|  2> %pal
|  3> nprocs 24
|  4> end
|  5>
|  6> * xyz 0 1
|  7> S 	 -126.474 	 57.9701 	 -58.1335
|  8> C 	 -126.358 	 57.8506 	 -59.8766
|  9> C 	 -127.193 	 56.848 	 -60.3767
| 10> C 	 -127.895 	 56.1849 	 -59.3235
| 11> C 	 -127.787 	 56.8206 	 -58.0609
| 12> H 	 -128.494 	 55.341 	 -59.4927
| 13> C 	 -127.309 	 56.4029 	 -61.7986
| 14> H 	 -126.841 	 57.101 	 -62.5314
| 15> H 	 -128.345 	 56.6089 	 -62.0702
| 16> C 	 -126.866 	 55.0012 	 -62.0786
| 17> H 	 -127.504 	 54.3674 	 -61.4128
| 18> H 	 -127.246 	 54.7147 	 -63.1436
| 19> C 	 -125.355 	 54.7314 	 -61.8139
| 20> H 	 -125.077 	 53.6326 	 -61.8576
| 21> H 	 -124.863 	 55.2473 	 -62.6119
| 22> H 	 -125.084 	 55.0874 	 -60.8203
| 23> S 	 -127.611 	 56.0142 	 -55.4481
| 24> C 	 -129.099 	 55.5544 	 -54.6353
| 25> C 	 -130.228 	 55.795 	 -55.4237
| 26> C 	 -129.87 	 56.3552 	 -56.6823
| 27> C 	 -128.528 	 56.4605 	 -56.8679
| 28> H 	 -131.243 	 55.7546 	 -54.9437
| 29> C 	 -130.935 	 56.7983 	 -57.7241
| 30> H 	 -130.644 	 56.2713 	 -58.6611
| 31> H 	 -130.674 	 57.8366 	 -57.9292
| 32> C 	 -132.43 	 56.4872 	 -57.3888
| 33> H 	 -132.644 	 57.1515 	 -56.5712
| 34> H 	 -132.489 	 55.4048 	 -57.0599
| 35> C 	 -133.384 	 56.6702 	 -58.4299
| 36> H 	 -134.42 	 56.3822 	 -58.1453
| 37> H 	 -133.176 	 56.0447 	 -59.3378
| 38> H 	 -133.372 	 57.7135 	 -58.7923
| 39> H 	 -125.58 	 58.3136 	 -60.4875
| 40> H 	 -129.247 	 55.4115 	 -53.5676
| 41> *
| 42>
| 43>                          ****END OF INPUT****

CARTESIAN COORDINATES (ANGSTROEM)
---------------------------------
  S    -126.474000   57.970100  -58.133500
  C    -126.358000   57.850600  -59.876600
  C    -127.193000   56.848000  -60.376700
  C    -127.895000   56.184900  -59.323500
  C    -127.787000   56.820600  -58.060900
  H    -128.494000   55.341000  -59.492700
  C    -127.309000   56.402900  -61.798600
  H    -126.841000   57.101000  -62.531400
  H    -128.345000   56.608900  -62.070200
  C    -126.866000   55.001200  -62.078600
  H    -127.504000   54.367400  -61.412800
  H    -127.246000   54.714700  -63.143600
  C    -125.355000   54.731400  -61.813900
  H    -125.077000   53.632600  -61.857600
  H    -124.863000   55.247300  -62.611900
  H    -125.084000   55.087400  -60.820300
  S    -127.611000   56.014200  -55.448100
  C    -129.099000   55.554400  -54.635300
  C    -130.228000   55.795000  -55.423700
  C    -129.870000   56.355200  -56.682300
  C    -128.528000   56.460500  -56.867900
  H    -131.243000   55.754600  -54.943700
  C    -130.935000   56.798300  -57.724100
  H    -130.644000   56.271300  -58.661100
  H    -130.674000   57.836600  -57.929200
  C    -132.430000   56.487200  -57.388800
  H    -132.644000   57.151500  -56.571200
  H    -132.489000   55.404800  -57.059900
  C    -133.384000   56.670200  -58.429900
  H    -134.420000   56.382200  -58.145300
  H    -133.176000   56.044700  -59.337800
  H    -133.372000   57.713500  -58.792300
  H    -125.580000   58.313600  -60.487500
  H    -129.247000   55.411500  -53.567600

 Total Charge           Charge          ....    0
 Multiplicity           Mult            ....    1
 Number of Electrons    NEL             ....  134
 Basis Dimension        Dim             ....  322

ORBITAL ENERGIES
----------------

  NO   OCC          E(Eh)            E(eV)
   0   2.0000     -88.968300     -2420.9505
   1   2.0000     -88.967169     -2420.9197
   2   2.0000     -10.331939      -281.1464
   3   2.0000     -10.321229      -280.8549
   4   2.0000     -10.318197      -280.7724
   5   2.0000     -10.316241      -280.7192
   6   2.0000     -10.303246      -280.3656
   7   2.0000     -10.301421      -280.3159
   8   2.0000     -10.297853      -280.2188
   9   2.0000     -10.297685      -280.2142
  10   2.0000     -10.295086      -280.1435
  11   2.0000     -10.293404      -280.0978
  12   2.0000     -10.291955      -280.0583
  13   2.0000     -10.287350      -279.9330
  14   2.0000     -10.282286      -279.7952
  15   2.0000     -10.279886      -279.7299
  16   2.0000      -8.082795      -219.9440
  17   2.0000      -8.081779      -219.9164
  18   2.0000      -6.041277      -164.3915
  19   2.0000      -6.040307      -164.3651
  20   2.0000      -6.037289      -164.2830
  21   2.0000      -6.036358      -164.2576
  22   2.0000      -6.033665      -164.1844
  23   2.0000      -6.032485      -164.1522
  24   2.0000      -1.006716       -27.3941
  25   2.0000      -0.983415       -26.7601
  26   2.0000      -0.916205       -24.9312
  27   2.0000      -0.913770       -24.8649
  28   2.0000      -0.867747       -23.6126
  29   2.0000      -0.857911       -23.3449
  30   2.0000      -0.843112       -22.9422
  31   2.0000      -0.810750       -22.0616
  32   2.0000      -0.784343       -21.3431
  33   2.0000      -0.773100       -21.0371
  34   2.0000      -0.706053       -19.2127
  35   2.0000      -0.698386       -19.0041
  36   2.0000      -0.689806       -18.7706
  37   2.0000      -0.650526       -17.7017
  38   2.0000      -0.637409       -17.3448
  39   2.0000      -0.625207       -17.0128
  40   2.0000      -0.590833       -16.0774
  41   2.0000      -0.575573       -15.6621
  42   2.0000      -0.567977       -15.4554
  43   2.0000      -0.550538       -14.9809
  44   2.0000      -0.539185       -14.6720
  45   2.0000      -0.529301       -14.4030
  46   2.0000      -0.514552       -14.0017
  47   2.0000      -0.511996       -13.9321
  48   2.0000      -0.506643       -13.7865
  49   2.0000      -0.496229       -13.5031
  50   2.0000      -0.490009       -13.3338
  51   2.0000      -0.481654       -13.1065
  52   2.0000      -0.472941       -12.8694
  53   2.0000      -0.466173       -12.6852
  54   2.0000      -0.456931       -12.4337
  55   2.0000      -0.451030       -12.2731
  56   2.0000      -0.445312       -12.1175
  57   2.0000      -0.443718       -12.0742
  58   2.0000      -0.429291       -11.6816
  59   2.0000      -0.418868       -11.3980
  60   2.0000      -0.417435       -11.3590
  61   2.0000      -0.413023       -11.2389
  62   2.0000      -0.408413       -11.1135
  63   2.0000      -0.341234        -9.2854
  64   2.0000      -0.332532        -9.0486
  65   2.0000      -0.328548        -8.9402
  66   2.0000      -0.292353        -7.9553
  67   0.0000       0.024657         0.6710
  68   0.0000       0.068213         1.8562
  69   0.0000       0.109369         2.9761
  70   0.0000       0.118866         3.2345
  71   0.0000       0.135225         3.6796

MULLIKEN ATOMIC CHARGES
-----------------------
   0 S :    0.116372
   1 C :   -0.120832
   2 C :   -0.103013
   3 C :    0.042726
   4 C :   -0.173460
   5 H :    0.003697
   6 C :    0.063103
   7 H :    0.013231
   8 H :    0.032576
   9 C :   -0.111529
  10 H :    0.026072
  11 H :    0.040751
  12 C :   -0.039974
  13 H :    0.047495
  14 H :    0.029526
  15 H :    0.049450
  16 S :    0.114236
  17 C :   -0.082966
  18 C :   -0.088079
  19 C :   -0.050496
  20 C :   -0.154085
  21 H :    0.046726
  22 C :    0.065591
  23 H :    0.019044
  24 H :    0.039433
  25 C :   -0.073613
  26 H :    0.030809
  27 H :    0.041060
  28 C :   -0.032455
  29 H :    0.038813
  30 H :    0.027084
  31 H :    0.029443
  32 H :    0.054613
  33 H :    0.058651
Sum of atomic charges:    0.0000000

LOEWDIN ATOMIC CHARGES
----------------------
   0 S :    0.409962
   1 C :   -0.204398
   2 C :   -0.063976
   3 C :   -0.050613
   4 C :   -0.198059
   5 H :    0.019421
   6 C :   -0.045084
   7 H :    0.029768
   8 H :    0.036597
   9 C :   -0.049702
  10 H :    0.020357
  11 H :    0.033351
  12 C :   -0.063454
  13 H :    0.035625
  14 H :    0.022197
  15 H :    0.029364
  16 S :    0.406408
  17 C :   -0.187550
  18 C :   -0.081622
  19 C :   -0.053211
  20 C :   -0.209448
  21 H :    0.043180
  22 C :   -0.031279
  23 H :    0.030985
  24 H :    0.035166
  25 C :   -0.052388
  26 H :    0.024104
  27 H :    0.034101
  28 C :   -0.070270
  29 H :    0.032201
  30 H :    0.027663
  31 H :    0.027358
  32 H :    0.031815
  33 H :    0.031432

  Mayer bond orders larger than 0.100000
B(  0-S ,  1-C ) :   1.1447 B(  0-S ,  4-C ) :   1.1600 B(  1-C ,  2-C ) :   1.5812
B(  1-C ,  4-C ) :   0.1037 B(  1-C , 32-H ) :   0.9650 B(  2-C ,  3-C ) :   1.2694
B(  2-C ,  6-C ) :   1.0233 B(  3-C ,  4-C ) :   1.5330 B(  3-C ,  5-H ) :   0.9926
B(  4-C , 20-C ) :   1.0504 B(  6-C ,  7-H ) :   0.9389 B(  6-C ,  8-H ) :   0.9306
B(  6-C ,  9-C ) :   1.0746 B(  9-C , 10-H ) :   0.9550 B(  9-C , 11-H ) :   0.9531
B(  9-C , 12-C ) :   1.0555 B( 12-C , 13-H ) :   0.9755 B( 12-C , 14-H ) :   0.9766
B( 12-C , 15-H ) :   0.9747 B( 16-S , 17-C ) :   1.1600 B( 16-S , 20-C ) :   1.1292
B( 17-C , 18-C ) :   1.6125 B( 17-C , 20-C ) :   0.1012 B( 17-C , 33-H ) :   0.9570
B( 18-C , 19-C ) :   1.2557 B( 18-C , 21-H ) :   0.9731 B( 19-C , 20-C ) :   1.6259
B( 19-C , 22-C ) :   1.0115 B( 22-C , 23-H ) :   0.9299 B( 22-C , 24-H ) :   0.9280
B( 22-C , 25-C ) :   1.0711 B( 25-C , 26-H ) :   0.9432 B( 25-C , 27-H ) :   0.9453
B( 25-C , 28-C ) :   1.1157 B( 28-C , 29-H ) :   0.9664 B( 28-C , 30-H ) :   0.9664
B( 28-C , 31-H ) :   0.9660

Dispersion correction           -0.014139953
FINAL SINGLE POINT ENERGY     -1339.874034619303

DIPOLE MOMENT
-------------
                                X             Y             Z
Electronic contribution:     14.58415       7.08118      20.17176
Nuclear contribution   :    -15.08137      -7.19484     -20.57543
                        -----------------------------------------
Total Dipole Moment    :     -0.49722      -0.11365      -0.40367
                        -----------------------------------------
Magnitude (a.u.)       :      0.65046
Magnitude (Debye)      :      1.65334

Rotational constants in cm-1:     0.017335     0.008614     0.006741
Rotational constants in MHz :   519.701948   258.233545   202.077143

                             ****ORCA TERMINATED NORMALLY****
TOTAL RUN TIME: 0 days 0 hours 0 minutes 21 seconds 487 msec
