                         Program Version 4.2.1 -  RELEASE  -
|  1> ! wB97X-D3 SP def2-SVP
|  2> %pal
|  3> nprocs 24
|  4> end
|  5>
|  6> * xyz 0 1
|  7> S 	 -38.5104 	 6.89945 	 -2.24698
|  8> C 	 -39.7906 	 5.8065 	 -2.78433
|  9> C 	 -39.7634 	 4.58795 	 -2.10642
| 10> C 	 -38.6304 	 4.56812 	 -1.15155
| 11> C 	 -37.97 	 5.77965 	 -1.01397
| 12> H 	 -38.2317 	 3.76408 	 -0.534315
| 13> C 	 -40.5952 	 3.33605 	 -2.38018
| 14> H 	 -41.3213 	 3.5521 	 -3.20287
| 15> H 	 -41.2523 	 3.08081 	 -1.54719
| 16> C 	 -39.8129 	 2.09617 	 -2.82689
| 17> H 	 -39.2574 	 1.58903 	 -2.03331
| 18> H 	 -40.5126 	 1.2254 	 -3.07704
| 19> C 	 -38.7964 	 2.26643 	 -3.90684
| 20> H 	 -38.445 	 1.38233 	 -4.37749
| 21> H 	 -39.3339 	 2.79825 	 -4.69735
| 22> H 	 -37.9765 	 2.94755 	 -3.69828
| 23> S 	 -35.1516 	 5.54176 	 -0.911612
| 24> C 	 -34.2995 	 5.64515 	 0.587141
| 25> C 	 -35.2279 	 6.00515 	 1.61193
| 26> C 	 -36.5656 	 6.24443 	 1.17242
| 27> C 	 -36.753 	 5.95225 	 -0.213488
| 28> H 	 -34.7251 	 6.13961 	 2.56635
| 29> C 	 -37.6824 	 6.66481 	 2.09879
| 30> H 	 -38.6786 	 6.72892 	 1.61926
| 31> H 	 -37.512 	 7.72117 	 2.30999
| 32> C 	 -37.8645 	 5.90099 	 3.46826
| 33> H 	 -38.3704 	 6.48813 	 4.18201
| 34> H 	 -36.9494 	 5.78083 	 3.89591
| 35> C 	 -38.5926 	 4.52901 	 3.26169
| 36> H 	 -38.1892 	 3.90344 	 2.44203
| 37> H 	 -39.5871 	 4.70223 	 2.88771
| 38> H 	 -38.6066 	 4.0645 	 4.22007
| 39> H 	 -40.3638 	 5.82819 	 -3.71434
| 40> H 	 -33.2365 	 5.58588 	 0.628041
| 41> *
| 42>
| 43>                          ****END OF INPUT****

CARTESIAN COORDINATES (ANGSTROEM)
---------------------------------
  S    -38.510400    6.899450   -2.246980
  C    -39.790600    5.806500   -2.784330
  C    -39.763400    4.587950   -2.106420
  C    -38.630400    4.568120   -1.151550
  C    -37.970000    5.779650   -1.013970
  H    -38.231700    3.764080   -0.534315
  C    -40.595200    3.336050   -2.380180
  H    -41.321300    3.552100   -3.202870
  H    -41.252300    3.080810   -1.547190
  C    -39.812900    2.096170   -2.826890
  H    -39.257400    1.589030   -2.033310
  H    -40.512600    1.225400   -3.077040
  C    -38.796400    2.266430   -3.906840
  H    -38.445000    1.382330   -4.377490
  H    -39.333900    2.798250   -4.697350
  H    -37.976500    2.947550   -3.698280
  S    -35.151600    5.541760   -0.911612
  C    -34.299500    5.645150    0.587141
  C    -35.227900    6.005150    1.611930
  C    -36.565600    6.244430    1.172420
  C    -36.753000    5.952250   -0.213488
  H    -34.725100    6.139610    2.566350
  C    -37.682400    6.664810    2.098790
  H    -38.678600    6.728920    1.619260
  H    -37.512000    7.721170    2.309990
  C    -37.864500    5.900990    3.468260
  H    -38.370400    6.488130    4.182010
  H    -36.949400    5.780830    3.895910
  C    -38.592600    4.529010    3.261690
  H    -38.189200    3.903440    2.442030
  H    -39.587100    4.702230    2.887710
  H    -38.606600    4.064500    4.220070
  H    -40.363800    5.828190   -3.714340
  H    -33.236500    5.585880    0.628041

 Total Charge           Charge          ....    0
 Multiplicity           Mult            ....    1
 Number of Electrons    NEL             ....  134
 Basis Dimension        Dim             ....  322

ORBITAL ENERGIES
----------------

  NO   OCC          E(Eh)            E(eV)
   0   2.0000     -88.968518     -2420.9564
   1   2.0000     -88.965050     -2420.8621
   2   2.0000     -10.333279      -281.1828
   3   2.0000     -10.330845      -281.1166
   4   2.0000     -10.322349      -280.8854
   5   2.0000     -10.320858      -280.8448
   6   2.0000     -10.314735      -280.6782
   7   2.0000     -10.312426      -280.6154
   8   2.0000     -10.301924      -280.3296
   9   2.0000     -10.300655      -280.2951
  10   2.0000     -10.300546      -280.2921
  11   2.0000     -10.292068      -280.0614
  12   2.0000     -10.290068      -280.0070
  13   2.0000     -10.279149      -279.7099
  14   2.0000     -10.273878      -279.5664
  15   2.0000     -10.268080      -279.4087
  16   2.0000      -8.082719      -219.9420
  17   2.0000      -8.079345      -219.8502
  18   2.0000      -6.041392      -164.3946
  19   2.0000      -6.037714      -164.2946
  20   2.0000      -6.037278      -164.2827
  21   2.0000      -6.033642      -164.1838
  22   2.0000      -6.033330      -164.1753
  23   2.0000      -6.030545      -164.0995
  24   2.0000      -0.998427       -27.1686
  25   2.0000      -0.977140       -26.5893
  26   2.0000      -0.912365       -24.8267
  27   2.0000      -0.902056       -24.5462
  28   2.0000      -0.867640       -23.6097
  29   2.0000      -0.846117       -23.0240
  30   2.0000      -0.842649       -22.9296
  31   2.0000      -0.810034       -22.0421
  32   2.0000      -0.785048       -21.3623
  33   2.0000      -0.774090       -21.0641
  34   2.0000      -0.712891       -19.3988
  35   2.0000      -0.702342       -19.1117
  36   2.0000      -0.693099       -18.8602
  37   2.0000      -0.651468       -17.7273
  38   2.0000      -0.639992       -17.4151
  39   2.0000      -0.615745       -16.7553
  40   2.0000      -0.598034       -16.2733
  41   2.0000      -0.567757       -15.4495
  42   2.0000      -0.557847       -15.1798
  43   2.0000      -0.549250       -14.9458
  44   2.0000      -0.537818       -14.6348
  45   2.0000      -0.529431       -14.4065
  46   2.0000      -0.525743       -14.3062
  47   2.0000      -0.505751       -13.7622
  48   2.0000      -0.505290       -13.7496
  49   2.0000      -0.495594       -13.4858
  50   2.0000      -0.491107       -13.3637
  51   2.0000      -0.476267       -12.9599
  52   2.0000      -0.469359       -12.7719
  53   2.0000      -0.463789       -12.6204
  54   2.0000      -0.453763       -12.3475
  55   2.0000      -0.448307       -12.1991
  56   2.0000      -0.444547       -12.0967
  57   2.0000      -0.440229       -11.9792
  58   2.0000      -0.427321       -11.6280
  59   2.0000      -0.425161       -11.5692
  60   2.0000      -0.423856       -11.5337
  61   2.0000      -0.414665       -11.2836
  62   2.0000      -0.398957       -10.8562
  63   2.0000      -0.333361        -9.0712
  64   2.0000      -0.325794        -8.8653
  65   2.0000      -0.321183        -8.7398
  66   2.0000      -0.312330        -8.4989
  67   0.0000       0.037343         1.0161
  68   0.0000       0.048028         1.3069
  69   0.0000       0.109419         2.9774
  70   0.0000       0.122387         3.3303
  71   0.0000       0.126551         3.4436

MULLIKEN ATOMIC CHARGES
-----------------------
   0 S :    0.112340
   1 C :   -0.101887
   2 C :   -0.111831
   3 C :    0.034089
   4 C :   -0.174774
   5 H :    0.026468
   6 C :    0.086388
   7 H :    0.021423
   8 H :    0.044320
   9 C :   -0.117939
  10 H :    0.022984
  11 H :    0.034213
  12 C :   -0.016011
  13 H :    0.029236
  14 H :    0.001846
  15 H :    0.041834
  16 S :    0.108582
  17 C :   -0.108877
  18 C :   -0.055636
  19 C :    0.017983
  20 C :   -0.183135
  21 H :    0.028762
  22 C :    0.026832
  23 H :    0.029729
  24 H :    0.033797
  25 C :   -0.013361
  26 H :    0.013137
  27 H :    0.000332
  28 C :   -0.047807
  29 H :    0.039172
  30 H :    0.021469
  31 H :    0.036537
  32 H :    0.057139
  33 H :    0.062647
Sum of atomic charges:   -0.0000000

LOEWDIN ATOMIC CHARGES
----------------------
   0 S :    0.400998
   1 C :   -0.196921
   2 C :   -0.061101
   3 C :   -0.050494
   4 C :   -0.208090
   5 H :    0.033787
   6 C :   -0.033642
   7 H :    0.033058
   8 H :    0.037798
   9 C :   -0.055301
  10 H :    0.019725
  11 H :    0.034832
  12 C :   -0.067204
  13 H :    0.024224
  14 H :    0.021851
  15 H :    0.028938
  16 S :    0.407026
  17 C :   -0.187184
  18 C :   -0.080493
  19 C :   -0.046052
  20 C :   -0.202445
  21 H :    0.032693
  22 C :   -0.036030
  23 H :    0.033979
  24 H :    0.035869
  25 C :   -0.023455
  26 H :    0.020802
  27 H :    0.007000
  28 C :   -0.061205
  29 H :    0.029679
  30 H :    0.022265
  31 H :    0.022893
  32 H :    0.035731
  33 H :    0.026472

  Mayer bond orders larger than 0.100000
B(  0-S ,  1-C ) :   1.1373 B(  0-S ,  4-C ) :   1.1310 B(  1-C ,  2-C ) :   1.6407
B(  1-C , 32-H ) :   0.9557 B(  2-C ,  3-C ) :   1.1952 B(  2-C ,  6-C ) :   1.0305
B(  3-C ,  4-C ) :   1.6212 B(  3-C ,  5-H ) :   0.9881 B(  4-C , 20-C ) :   1.0285
B(  6-C ,  7-H ) :   0.9395 B(  6-C ,  8-H ) :   0.9375 B(  6-C ,  9-C ) :   1.0677
B(  9-C , 10-H ) :   0.9504 B(  9-C , 11-H ) :   0.9523 B(  9-C , 12-C ) :   1.0844
B( 12-C , 13-H ) :   0.9708 B( 12-C , 14-H ) :   0.9711 B( 12-C , 15-H ) :   0.9669
B( 16-S , 17-C ) :   1.1927 B( 16-S , 20-C ) :   1.1505 B( 17-C , 18-C ) :   1.5536
B( 17-C , 20-C ) :   0.1147 B( 17-C , 33-H ) :   0.9726 B( 18-C , 19-C ) :   1.2616
B( 18-C , 21-H ) :   0.9933 B( 19-C , 20-C ) :   1.5385 B( 19-C , 22-C ) :   1.0496
B( 22-C , 23-H ) :   0.9398 B( 22-C , 24-H ) :   0.9276 B( 22-C , 25-C ) :   1.0723
B( 25-C , 26-H ) :   0.9521 B( 25-C , 27-H ) :   0.9562 B( 25-C , 28-C ) :   1.0681
B( 28-C , 29-H ) :   0.9789 B( 28-C , 30-H ) :   0.9750 B( 28-C , 31-H ) :   0.9753

Dispersion correction           -0.015090381
FINAL SINGLE POINT ENERGY     -1339.863683772332

DIPOLE MOMENT
-------------
                                X             Y             Z
Electronic contribution:     12.16325      15.51644      -8.11765
Nuclear contribution   :    -12.26879     -15.90194       8.41901
                        -----------------------------------------
Total Dipole Moment    :     -0.10554      -0.38550       0.30136
                        -----------------------------------------
Magnitude (a.u.)       :      0.50057
Magnitude (Debye)      :      1.27234

Rotational constants in cm-1:     0.018267     0.008606     0.007704
Rotational constants in MHz :   547.617215   258.010112   230.951983

                             ****ORCA TERMINATED NORMALLY****
TOTAL RUN TIME: 0 days 0 hours 0 minutes 20 seconds 535 msec
