                         Program Version 4.2.1 -  RELEASE  -
|  1> ! wB97X-D3 SP def2-SVP
|  2> %pal
|  3> nprocs 24
|  4> end
|  5>
|  6> * xyz 0 1
|  7> S 	 -100.942 	 -0.976471 	 -108.254
|  8> C 	 -101.228 	 -2.31248 	 -109.373
|  9> C 	 -101.925 	 -3.33761 	 -108.737
| 10> C 	 -102.143 	 -3.08684 	 -107.367
| 11> C 	 -101.667 	 -1.84415 	 -106.933
| 12> H 	 -102.643 	 -3.74358 	 -106.71
| 13> C 	 -102.394 	 -4.65584 	 -109.317
| 14> H 	 -102.425 	 -4.477 	 -110.342
| 15> H 	 -103.361 	 -4.94328 	 -109.07
| 16> C 	 -101.462 	 -5.83732 	 -109.164
| 17> H 	 -101.408 	 -6.17262 	 -108.165
| 18> H 	 -101.971 	 -6.56804 	 -109.74
| 19> C 	 -100.192 	 -5.6552 	 -109.982
| 20> H 	 -99.5985 	 -6.49892 	 -110.026
| 21> H 	 -100.481 	 -5.52014 	 -111.046
| 22> H 	 -99.5466 	 -4.83871 	 -109.644
| 23> S 	 -102.41 	 0.381427 	 -105.529
| 24> C 	 -102.545 	 0.327652 	 -103.803
| 25> C 	 -102.363 	 -0.959281 	 -103.344
| 26> C 	 -101.986 	 -1.83362 	 -104.419
| 27> C 	 -101.859 	 -1.21255 	 -105.62
| 28> H 	 -102.489 	 -1.15812 	 -102.286
| 29> C 	 -101.484 	 -3.21123 	 -104.192
| 30> H 	 -100.743 	 -3.03996 	 -103.395
| 31> H 	 -100.73 	 -3.46536 	 -105.009
| 32> C 	 -102.518 	 -4.31097 	 -103.957
| 33> H 	 -103.199 	 -4.30639 	 -104.807
| 34> H 	 -103.189 	 -4.03096 	 -103.25
| 35> C 	 -101.933 	 -5.69286 	 -103.762
| 36> H 	 -101.854 	 -5.77617 	 -102.77
| 37> H 	 -100.935 	 -5.74004 	 -104.182
| 38> H 	 -102.44 	 -6.56477 	 -104.143
| 39> H 	 -100.921 	 -2.34853 	 -110.448
| 40> H 	 -102.874 	 1.1916 	 -103.222
| 41> *
| 42>
| 43>                          ****END OF INPUT****

CARTESIAN COORDINATES (ANGSTROEM)
---------------------------------
  S    -100.942000   -0.976471  -108.254000
  C    -101.228000   -2.312480  -109.373000
  C    -101.925000   -3.337610  -108.737000
  C    -102.143000   -3.086840  -107.367000
  C    -101.667000   -1.844150  -106.933000
  H    -102.643000   -3.743580  -106.710000
  C    -102.394000   -4.655840  -109.317000
  H    -102.425000   -4.477000  -110.342000
  H    -103.361000   -4.943280  -109.070000
  C    -101.462000   -5.837320  -109.164000
  H    -101.408000   -6.172620  -108.165000
  H    -101.971000   -6.568040  -109.740000
  C    -100.192000   -5.655200  -109.982000
  H    -99.598500   -6.498920  -110.026000
  H    -100.481000   -5.520140  -111.046000
  H    -99.546600   -4.838710  -109.644000
  S    -102.410000    0.381427  -105.529000
  C    -102.545000    0.327652  -103.803000
  C    -102.363000   -0.959281  -103.344000
  C    -101.986000   -1.833620  -104.419000
  C    -101.859000   -1.212550  -105.620000
  H    -102.489000   -1.158120  -102.286000
  C    -101.484000   -3.211230  -104.192000
  H    -100.743000   -3.039960  -103.395000
  H    -100.730000   -3.465360  -105.009000
  C    -102.518000   -4.310970  -103.957000
  H    -103.199000   -4.306390  -104.807000
  H    -103.189000   -4.030960  -103.250000
  C    -101.933000   -5.692860  -103.762000
  H    -101.854000   -5.776170  -102.770000
  H    -100.935000   -5.740040  -104.182000
  H    -102.440000   -6.564770  -104.143000
  H    -100.921000   -2.348530  -110.448000
  H    -102.874000    1.191600  -103.222000

 Total Charge           Charge          ....    0
 Multiplicity           Mult            ....    1
 Number of Electrons    NEL             ....  134
 Basis Dimension        Dim             ....  322

ORBITAL ENERGIES
----------------

  NO   OCC          E(Eh)            E(eV)
   0   2.0000     -88.967847     -2420.9382
   1   2.0000     -88.961449     -2420.7641
   2   2.0000     -10.329617      -281.0832
   3   2.0000     -10.318770      -280.7880
   4   2.0000     -10.317292      -280.7478
   5   2.0000     -10.315940      -280.7110
   6   2.0000     -10.297693      -280.2145
   7   2.0000     -10.295008      -280.1414
   8   2.0000     -10.294426      -280.1256
   9   2.0000     -10.289297      -279.9860
  10   2.0000     -10.286875      -279.9201
  11   2.0000     -10.278545      -279.6934
  12   2.0000     -10.277520      -279.6655
  13   2.0000     -10.277362      -279.6612
  14   2.0000     -10.272001      -279.5154
  15   2.0000     -10.265838      -279.3477
  16   2.0000      -8.082196      -219.9277
  17   2.0000      -8.078004      -219.8137
  18   2.0000      -6.040694      -164.3756
  19   2.0000      -6.036694      -164.2668
  20   2.0000      -6.036358      -164.2576
  21   2.0000      -6.033068      -164.1681
  22   2.0000      -6.032270      -164.1464
  23   2.0000      -6.028792      -164.0518
  24   2.0000      -1.014878       -27.6162
  25   2.0000      -0.986834       -26.8531
  26   2.0000      -0.921342       -25.0710
  27   2.0000      -0.915272       -24.9058
  28   2.0000      -0.870049       -23.6752
  29   2.0000      -0.859927       -23.3998
  30   2.0000      -0.847234       -23.0544
  31   2.0000      -0.813716       -22.1423
  32   2.0000      -0.787855       -21.4386
  33   2.0000      -0.775877       -21.1127
  34   2.0000      -0.716708       -19.5026
  35   2.0000      -0.706777       -19.2324
  36   2.0000      -0.694719       -18.9043
  37   2.0000      -0.665474       -18.1085
  38   2.0000      -0.636611       -17.3231
  39   2.0000      -0.625596       -17.0233
  40   2.0000      -0.598441       -16.2844
  41   2.0000      -0.574510       -15.6332
  42   2.0000      -0.565747       -15.3947
  43   2.0000      -0.559301       -15.2194
  44   2.0000      -0.545841       -14.8531
  45   2.0000      -0.532308       -14.4848
  46   2.0000      -0.518430       -14.1072
  47   2.0000      -0.515972       -14.0403
  48   2.0000      -0.506857       -13.7923
  49   2.0000      -0.494440       -13.4544
  50   2.0000      -0.491350       -13.3703
  51   2.0000      -0.482694       -13.1348
  52   2.0000      -0.473874       -12.8948
  53   2.0000      -0.465298       -12.6614
  54   2.0000      -0.461994       -12.5715
  55   2.0000      -0.450883       -12.2691
  56   2.0000      -0.445375       -12.1193
  57   2.0000      -0.437767       -11.9122
  58   2.0000      -0.436752       -11.8846
  59   2.0000      -0.434530       -11.8242
  60   2.0000      -0.423226       -11.5166
  61   2.0000      -0.413062       -11.2400
  62   2.0000      -0.403333       -10.9752
  63   2.0000      -0.352963        -9.6046
  64   2.0000      -0.332029        -9.0350
  65   2.0000      -0.327842        -8.9210
  66   2.0000      -0.288569        -7.8524
  67   0.0000       0.029155         0.7933
  68   0.0000       0.080622         2.1938
  69   0.0000       0.113147         3.0789
  70   0.0000       0.124792         3.3958
  71   0.0000       0.135410         3.6847

MULLIKEN ATOMIC CHARGES
-----------------------
   0 S :    0.109139
   1 C :   -0.142357
   2 C :   -0.096093
   3 C :    0.058832
   4 C :   -0.150882
   5 H :   -0.037243
   6 C :    0.122258
   7 H :   -0.019469
   8 H :    0.008980
   9 C :   -0.020613
  10 H :    0.022125
  11 H :    0.012721
  12 C :   -0.047045
  13 H :    0.013700
  14 H :    0.020283
  15 H :    0.045851
  16 S :    0.106587
  17 C :   -0.108127
  18 C :   -0.017690
  19 C :   -0.055277
  20 C :   -0.090811
  21 H :    0.021463
  22 C :   -0.026356
  23 H :    0.027449
  24 H :    0.039638
  25 C :   -0.004961
  26 H :    0.005978
  27 H :   -0.007882
  28 C :    0.024972
  29 H :    0.005612
  30 H :    0.021769
  31 H :    0.030048
  32 H :    0.063889
  33 H :    0.063513
Sum of atomic charges:    0.0000000

LOEWDIN ATOMIC CHARGES
----------------------
   0 S :    0.408965
   1 C :   -0.207145
   2 C :   -0.059297
   3 C :   -0.056593
   4 C :   -0.189769
   5 H :    0.020002
   6 C :   -0.021625
   7 H :    0.020501
   8 H :    0.022784
   9 C :   -0.027403
  10 H :    0.015778
  11 H :    0.025261
  12 C :   -0.060459
  13 H :    0.014948
  14 H :    0.029308
  15 H :    0.026392
  16 S :    0.432492
  17 C :   -0.189608
  18 C :   -0.068583
  19 C :   -0.067645
  20 C :   -0.219037
  21 H :    0.034238
  22 C :   -0.042180
  23 H :    0.032733
  24 H :    0.038310
  25 C :   -0.032812
  26 H :    0.020980
  27 H :    0.011290
  28 C :   -0.051522
  29 H :    0.012330
  30 H :    0.028862
  31 H :    0.027825
  32 H :    0.039108
  33 H :    0.031572

  Mayer bond orders larger than 0.100000
B(  0-S ,  1-C ) :   1.1366 B(  0-S ,  4-C ) :   1.1670 B(  1-C ,  2-C ) :   1.5894
B(  1-C ,  4-C ) :   0.1032 B(  1-C , 32-H ) :   0.9607 B(  2-C ,  3-C ) :   1.2736
B(  2-C ,  6-C ) :   1.0254 B(  3-C ,  4-C ) :   1.5308 B(  3-C ,  5-H ) :   0.9995
B(  4-C , 20-C ) :   1.0229 B(  6-C ,  7-H ) :   0.9230 B(  6-C ,  8-H ) :   0.9376
B(  6-C ,  9-C ) :   1.0870 B(  9-C , 10-H ) :   0.9585 B(  9-C , 11-H ) :   0.9491
B(  9-C , 12-C ) :   1.0752 B( 12-C , 13-H ) :   0.9721 B( 12-C , 14-H ) :   0.9711
B( 12-C , 15-H ) :   0.9754 B( 16-S , 17-C ) :   1.1672 B( 16-S , 20-C ) :   1.1501
B( 17-C , 18-C ) :   1.5905 B( 17-C , 33-H ) :   0.9690 B( 18-C , 19-C ) :   1.2352
B( 18-C , 21-H ) :   0.9993 B( 19-C , 20-C ) :   1.6042 B( 19-C , 22-C ) :   1.0324
B( 22-C , 23-H ) :   0.9421 B( 22-C , 24-H ) :   0.9404 B( 22-C , 25-C ) :   1.0461
B( 25-C , 26-H ) :   0.9483 B( 25-C , 27-H ) :   0.9497 B( 25-C , 28-C ) :   1.0619
B( 28-C , 29-H ) :   0.9741 B( 28-C , 30-H ) :   0.9731 B( 28-C , 31-H ) :   0.9758

Dispersion correction           -0.014812040
FINAL SINGLE POINT ENERGY     -1339.857869561465

DIPOLE MOMENT
-------------
                                X             Y             Z
Electronic contribution:     -1.43909      30.67554       0.40647
Nuclear contribution   :      1.24692     -31.38367      -0.21410
                        -----------------------------------------
Total Dipole Moment    :     -0.19217      -0.70813       0.19237
                        -----------------------------------------
Magnitude (a.u.)       :      0.75854
Magnitude (Debye)      :      1.92805

Rotational constants in cm-1:     0.018751     0.009825     0.006847
Rotational constants in MHz :   562.145161   294.547328   205.262482

                             ****ORCA TERMINATED NORMALLY****
TOTAL RUN TIME: 0 days 0 hours 0 minutes 22 seconds 455 msec
