                         Program Version 4.2.1 -  RELEASE  -
|  1> ! wB97X-D3 SP def2-SVP
|  2> %pal
|  3> nprocs 24
|  4> end
|  5>
|  6> * xyz 0 1
|  7> S 	 -107.384 	 38.5887 	 -12.5369
|  8> C 	 -106.648 	 39.1364 	 -13.9997
|  9> C 	 -105.549 	 38.3567 	 -14.292
| 10> C 	 -105.348 	 37.2778 	 -13.434
| 11> C 	 -106.285 	 37.2279 	 -12.3928
| 12> H 	 -104.568 	 36.5693 	 -13.3573
| 13> C 	 -104.731 	 38.598 	 -15.528
| 14> H 	 -105.328 	 38.3747 	 -16.3802
| 15> H 	 -103.883 	 37.9329 	 -15.5882
| 16> C 	 -104.224 	 40.0331 	 -15.5564
| 17> H 	 -105.16 	 40.6638 	 -15.7862
| 18> H 	 -103.906 	 40.2108 	 -14.508
| 19> C 	 -103.159 	 40.283 	 -16.584
| 20> H 	 -102.368 	 39.5073 	 -16.6122
| 21> H 	 -103.697 	 40.2844 	 -17.5314
| 22> H 	 -102.646 	 41.169 	 -16.4315
| 23> S 	 -106.097 	 37.0691 	 -9.55294
| 24> C 	 -105.803 	 35.5708 	 -8.77204
| 25> C 	 -105.601 	 34.5761 	 -9.70655
| 26> C 	 -105.801 	 34.9902 	 -11.077
| 27> C 	 -106.177 	 36.3536 	 -11.1701
| 28> H 	 -105.263 	 33.6143 	 -9.37508
| 29> C 	 -105.613 	 33.9882 	 -12.1736
| 30> H 	 -104.592 	 33.6534 	 -12.0386
| 31> H 	 -105.618 	 34.5873 	 -13.0321
| 32> C 	 -106.658 	 32.8727 	 -12.2314
| 33> H 	 -107.704 	 33.1998 	 -12.1435
| 34> H 	 -106.553 	 32.2116 	 -11.3978
| 35> C 	 -106.475 	 32.1254 	 -13.5326
| 36> H 	 -105.464 	 31.7015 	 -13.5725
| 37> H 	 -106.473 	 32.8169 	 -14.4108
| 38> H 	 -107.302 	 31.386 	 -13.6176
| 39> H 	 -107.013 	 39.9098 	 -14.6133
| 40> H 	 -105.459 	 35.4545 	 -7.73767
| 41> *
| 42>
| 43>                          ****END OF INPUT****

CARTESIAN COORDINATES (ANGSTROEM)
---------------------------------
  S    -107.384000   38.588700  -12.536900
  C    -106.648000   39.136400  -13.999700
  C    -105.549000   38.356700  -14.292000
  C    -105.348000   37.277800  -13.434000
  C    -106.285000   37.227900  -12.392800
  H    -104.568000   36.569300  -13.357300
  C    -104.731000   38.598000  -15.528000
  H    -105.328000   38.374700  -16.380200
  H    -103.883000   37.932900  -15.588200
  C    -104.224000   40.033100  -15.556400
  H    -105.160000   40.663800  -15.786200
  H    -103.906000   40.210800  -14.508000
  C    -103.159000   40.283000  -16.584000
  H    -102.368000   39.507300  -16.612200
  H    -103.697000   40.284400  -17.531400
  H    -102.646000   41.169000  -16.431500
  S    -106.097000   37.069100   -9.552940
  C    -105.803000   35.570800   -8.772040
  C    -105.601000   34.576100   -9.706550
  C    -105.801000   34.990200  -11.077000
  C    -106.177000   36.353600  -11.170100
  H    -105.263000   33.614300   -9.375080
  C    -105.613000   33.988200  -12.173600
  H    -104.592000   33.653400  -12.038600
  H    -105.618000   34.587300  -13.032100
  C    -106.658000   32.872700  -12.231400
  H    -107.704000   33.199800  -12.143500
  H    -106.553000   32.211600  -11.397800
  C    -106.475000   32.125400  -13.532600
  H    -105.464000   31.701500  -13.572500
  H    -106.473000   32.816900  -14.410800
  H    -107.302000   31.386000  -13.617600
  H    -107.013000   39.909800  -14.613300
  H    -105.459000   35.454500   -7.737670

 Total Charge           Charge          ....    0
 Multiplicity           Mult            ....    1
 Number of Electrons    NEL             ....  134
 Basis Dimension        Dim             ....  322

ORBITAL ENERGIES
----------------

  NO   OCC          E(Eh)            E(eV)
   0   2.0000     -88.968397     -2420.9532
   1   2.0000     -88.964406     -2420.8446
   2   2.0000     -10.334939      -281.2280
   3   2.0000     -10.334387      -281.2130
   4   2.0000     -10.314581      -280.6740
   5   2.0000     -10.309053      -280.5236
   6   2.0000     -10.304227      -280.3923
   7   2.0000     -10.296174      -280.1731
   8   2.0000     -10.291505      -280.0461
   9   2.0000     -10.290497      -280.0187
  10   2.0000     -10.289231      -279.9842
  11   2.0000     -10.284355      -279.8515
  12   2.0000     -10.283060      -279.8163
  13   2.0000     -10.282074      -279.7895
  14   2.0000     -10.280672      -279.7513
  15   2.0000     -10.273678      -279.5610
  16   2.0000      -8.083069      -219.9515
  17   2.0000      -8.079297      -219.8489
  18   2.0000      -6.041420      -164.3954
  19   2.0000      -6.037901      -164.2996
  20   2.0000      -6.037412      -164.2863
  21   2.0000      -6.034184      -164.1985
  22   2.0000      -6.033683      -164.1849
  23   2.0000      -6.030034      -164.0856
  24   2.0000      -1.005905       -27.3721
  25   2.0000      -0.986837       -26.8532
  26   2.0000      -0.917932       -24.9782
  27   2.0000      -0.915631       -24.9156
  28   2.0000      -0.866668       -23.5832
  29   2.0000      -0.856141       -23.2968
  30   2.0000      -0.848855       -23.0985
  31   2.0000      -0.817072       -22.2337
  32   2.0000      -0.782252       -21.2862
  33   2.0000      -0.768663       -20.9164
  34   2.0000      -0.705640       -19.2014
  35   2.0000      -0.703983       -19.1564
  36   2.0000      -0.689388       -18.7592
  37   2.0000      -0.658989       -17.9320
  38   2.0000      -0.645997       -17.5785
  39   2.0000      -0.617674       -16.8078
  40   2.0000      -0.593943       -16.1620
  41   2.0000      -0.574934       -15.6448
  42   2.0000      -0.571210       -15.5434
  43   2.0000      -0.564877       -15.3711
  44   2.0000      -0.536975       -14.6118
  45   2.0000      -0.529486       -14.4080
  46   2.0000      -0.525196       -14.2913
  47   2.0000      -0.510695       -13.8967
  48   2.0000      -0.504572       -13.7301
  49   2.0000      -0.497715       -13.5435
  50   2.0000      -0.495695       -13.4886
  51   2.0000      -0.480128       -13.0649
  52   2.0000      -0.473136       -12.8747
  53   2.0000      -0.467548       -12.7226
  54   2.0000      -0.458786       -12.4842
  55   2.0000      -0.451639       -12.2897
  56   2.0000      -0.443170       -12.0593
  57   2.0000      -0.436761       -11.8849
  58   2.0000      -0.428951       -11.6724
  59   2.0000      -0.423526       -11.5247
  60   2.0000      -0.421856       -11.4793
  61   2.0000      -0.415168       -11.2973
  62   2.0000      -0.411679       -11.2024
  63   2.0000      -0.351521        -9.5654
  64   2.0000      -0.332963        -9.0604
  65   2.0000      -0.326169        -8.8755
  66   2.0000      -0.289344        -7.8734
  67   0.0000       0.028753         0.7824
  68   0.0000       0.069755         1.8981
  69   0.0000       0.114739         3.1222
  70   0.0000       0.125345         3.4108
  71   0.0000       0.136796         3.7224

MULLIKEN ATOMIC CHARGES
-----------------------
   0 S :    0.118547
   1 C :   -0.108158
   2 C :   -0.081960
   3 C :    0.043919
   4 C :   -0.178647
   5 H :    0.003276
   6 C :    0.104044
   7 H :    0.027936
   8 H :    0.001981
   9 C :   -0.155212
  10 H :    0.038052
  11 H :    0.042437
  12 C :    0.015477
  13 H :    0.025497
  14 H :    0.027463
  15 H :    0.023016
  16 S :    0.102460
  17 C :   -0.092316
  18 C :   -0.039338
  19 C :   -0.099648
  20 C :   -0.121894
  21 H :    0.010291
  22 C :    0.112986
  23 H :    0.028533
  24 H :   -0.015336
  25 C :   -0.045852
  26 H :    0.036568
  27 H :    0.019075
  28 C :   -0.051993
  29 H :    0.024658
  30 H :    0.032955
  31 H :    0.044635
  32 H :    0.036122
  33 H :    0.070424
Sum of atomic charges:   -0.0000000

LOEWDIN ATOMIC CHARGES
----------------------
   0 S :    0.423882
   1 C :   -0.197334
   2 C :   -0.063254
   3 C :   -0.061504
   4 C :   -0.191180
   5 H :    0.026129
   6 C :   -0.029014
   7 H :    0.026697
   8 H :    0.022434
   9 C :   -0.046167
  10 H :    0.028932
  11 H :    0.026283
  12 C :   -0.060618
  13 H :    0.027052
  14 H :    0.029851
  15 H :    0.018043
  16 S :    0.413090
  17 C :   -0.203749
  18 C :   -0.073445
  19 C :   -0.053245
  20 C :   -0.200574
  21 H :    0.025664
  22 C :   -0.029546
  23 H :    0.035349
  24 H :    0.018479
  25 C :   -0.036230
  26 H :    0.030876
  27 H :    0.019475
  28 C :   -0.066918
  29 H :    0.024273
  30 H :    0.027615
  31 H :    0.029840
  32 H :    0.020768
  33 H :    0.038043

  Mayer bond orders larger than 0.100000
B(  0-S ,  1-C ) :   1.1517 B(  0-S ,  4-C ) :   1.1820 B(  1-C ,  2-C ) :   1.5566
B(  1-C ,  4-C ) :   0.1047 B(  1-C , 32-H ) :   0.9808 B(  2-C ,  3-C ) :   1.2880
B(  2-C ,  6-C ) :   1.0242 B(  3-C ,  4-C ) :   1.5207 B(  3-C ,  5-H ) :   0.9953
B(  4-C , 20-C ) :   1.0238 B(  6-C ,  7-H ) :   0.9332 B(  6-C ,  8-H ) :   0.9419
B(  6-C ,  9-C ) :   1.0525 B(  9-C , 10-H ) :   0.9496 B(  9-C , 11-H ) :   0.9647
B(  9-C , 12-C ) :   1.0869 B( 12-C , 13-H ) :   0.9725 B( 12-C , 14-H ) :   0.9696
B( 12-C , 15-H ) :   0.9722 B( 16-S , 17-C ) :   1.1670 B( 16-S , 20-C ) :   1.1429
B( 17-C , 18-C ) :   1.5972 B( 17-C , 33-H ) :   0.9609 B( 18-C , 19-C ) :   1.2558
B( 18-C , 21-H ) :   0.9929 B( 19-C , 20-C ) :   1.5695 B( 19-C , 22-C ) :   1.0421
B( 22-C , 23-H ) :   0.9228 B( 22-C , 24-H ) :   0.9242 B( 22-C , 25-C ) :   1.0648
B( 25-C , 26-H ) :   0.9557 B( 25-C , 27-H ) :   0.9491 B( 25-C , 28-C ) :   1.0897
B( 28-C , 29-H ) :   0.9705 B( 28-C , 30-H ) :   0.9756 B( 28-C , 31-H ) :   0.9736

Dispersion correction           -0.013411235
FINAL SINGLE POINT ENERGY     -1339.878112964197

DIPOLE MOMENT
-------------
                                X             Y             Z
Electronic contribution:    -10.98194       9.07319      21.68501
Nuclear contribution   :     11.50788      -9.38460     -22.09164
                        -----------------------------------------
Total Dipole Moment    :      0.52594      -0.31141      -0.40662
                        -----------------------------------------
Magnitude (a.u.)       :      0.73412
Magnitude (Debye)      :      1.86598

Rotational constants in cm-1:     0.018737     0.007571     0.006219
Rotational constants in MHz :   561.709471   226.963272   186.442452

                             ****ORCA TERMINATED NORMALLY****
TOTAL RUN TIME: 0 days 0 hours 0 minutes 21 seconds 135 msec
