                         Program Version 4.2.1 -  RELEASE  -
|  1> ! wB97X-D3 SP def2-SVP
|  2> %pal
|  3> nprocs 24
|  4> end
|  5>
|  6> * xyz 0 1
|  7> S 	 -37.0176 	 -13.2553 	 13.329
|  8> C 	 -38.4961 	 -12.1721 	 13.3938
|  9> C 	 -38.6745 	 -11.6304 	 14.6807
| 10> C 	 -37.684 	 -12.0888 	 15.5878
| 11> C 	 -36.6517 	 -12.8336 	 14.9883
| 12> H 	 -37.6402 	 -11.8881 	 16.6114
| 13> C 	 -39.9387 	 -10.8223 	 15.0333
| 14> H 	 -40.2538 	 -11.1511 	 16.0233
| 15> H 	 -40.7453 	 -10.9912 	 14.4613
| 16> C 	 -39.7818 	 -9.25612 	 15.0732
| 17> H 	 -40.7452 	 -8.68147 	 15.2571
| 18> H 	 -39.1714 	 -9.03066 	 15.9456
| 19> C 	 -39.0233 	 -8.71873 	 13.8636
| 20> H 	 -39.6023 	 -8.77857 	 12.9959
| 21> H 	 -38.7125 	 -7.6527 	 14.0376
| 22> H 	 -38.0373 	 -9.08342 	 13.697
| 23> S 	 -35.4007 	 -15.1922 	 15.3428
| 24> C 	 -33.8869 	 -15.2002 	 16.244
| 25> C 	 -33.6101 	 -14.0261 	 16.8474
| 26> C 	 -34.5448 	 -13.011 	 16.4398
| 27> C 	 -35.5756 	 -13.4867 	 15.6298
| 28> H 	 -32.7471 	 -13.9699 	 17.366
| 29> C 	 -34.3786 	 -11.551 	 16.9077
| 30> H 	 -34.7645 	 -11.5834 	 17.889
| 31> H 	 -34.9804 	 -10.8621 	 16.4009
| 32> C 	 -32.9752 	 -10.998 	 16.6749
| 33> H 	 -32.8081 	 -10.8906 	 15.6128
| 34> H 	 -32.3056 	 -11.7361 	 17.0782
| 35> C 	 -32.6021 	 -9.66431 	 17.4686
| 36> H 	 -32.8915 	 -9.73913 	 18.4912
| 37> H 	 -33.1868 	 -8.92379 	 16.9839
| 38> H 	 -31.5544 	 -9.40119 	 17.4663
| 39> H 	 -39.1932 	 -11.9119 	 12.6483
| 40> H 	 -33.2737 	 -16.0931 	 16.4082
| 41> *
| 42>
| 43>                          ****END OF INPUT****

CARTESIAN COORDINATES (ANGSTROEM)
---------------------------------
  S    -37.017600  -13.255300   13.329000
  C    -38.496100  -12.172100   13.393800
  C    -38.674500  -11.630400   14.680700
  C    -37.684000  -12.088800   15.587800
  C    -36.651700  -12.833600   14.988300
  H    -37.640200  -11.888100   16.611400
  C    -39.938700  -10.822300   15.033300
  H    -40.253800  -11.151100   16.023300
  H    -40.745300  -10.991200   14.461300
  C    -39.781800   -9.256120   15.073200
  H    -40.745200   -8.681470   15.257100
  H    -39.171400   -9.030660   15.945600
  C    -39.023300   -8.718730   13.863600
  H    -39.602300   -8.778570   12.995900
  H    -38.712500   -7.652700   14.037600
  H    -38.037300   -9.083420   13.697000
  S    -35.400700  -15.192200   15.342800
  C    -33.886900  -15.200200   16.244000
  C    -33.610100  -14.026100   16.847400
  C    -34.544800  -13.011000   16.439800
  C    -35.575600  -13.486700   15.629800
  H    -32.747100  -13.969900   17.366000
  C    -34.378600  -11.551000   16.907700
  H    -34.764500  -11.583400   17.889000
  H    -34.980400  -10.862100   16.400900
  C    -32.975200  -10.998000   16.674900
  H    -32.808100  -10.890600   15.612800
  H    -32.305600  -11.736100   17.078200
  C    -32.602100   -9.664310   17.468600
  H    -32.891500   -9.739130   18.491200
  H    -33.186800   -8.923790   16.983900
  H    -31.554400   -9.401190   17.466300
  H    -39.193200  -11.911900   12.648300
  H    -33.273700  -16.093100   16.408200

 Total Charge           Charge          ....    0
 Multiplicity           Mult            ....    1
 Number of Electrons    NEL             ....  134
 Basis Dimension        Dim             ....  322

ORBITAL ENERGIES
----------------

  NO   OCC          E(Eh)            E(eV)
   0   2.0000     -88.970976     -2421.0233
   1   2.0000     -88.963541     -2420.8210
   2   2.0000     -10.329269      -281.0737
   3   2.0000     -10.321407      -280.8598
   4   2.0000     -10.317600      -280.7562
   5   2.0000     -10.315495      -280.6989
   6   2.0000     -10.306774      -280.4616
   7   2.0000     -10.306607      -280.4570
   8   2.0000     -10.294207      -280.1196
   9   2.0000     -10.292074      -280.0616
  10   2.0000     -10.288658      -279.9686
  11   2.0000     -10.285989      -279.8960
  12   2.0000     -10.284935      -279.8673
  13   2.0000     -10.282650      -279.8051
  14   2.0000     -10.275002      -279.5970
  15   2.0000     -10.269110      -279.4367
  16   2.0000      -8.084068      -219.9787
  17   2.0000      -8.078652      -219.8313
  18   2.0000      -6.042651      -164.4289
  19   2.0000      -6.038850      -164.3255
  20   2.0000      -6.037159      -164.2794
  21   2.0000      -6.034776      -164.2146
  22   2.0000      -6.033206      -164.1719
  23   2.0000      -6.029270      -164.0648
  24   2.0000      -1.007701       -27.4210
  25   2.0000      -0.976992       -26.5853
  26   2.0000      -0.910088       -24.7648
  27   2.0000      -0.905882       -24.6503
  28   2.0000      -0.872698       -23.7473
  29   2.0000      -0.847060       -23.0497
  30   2.0000      -0.842034       -22.9129
  31   2.0000      -0.816094       -22.2070
  32   2.0000      -0.789889       -21.4940
  33   2.0000      -0.775427       -21.1005
  34   2.0000      -0.714060       -19.4306
  35   2.0000      -0.701431       -19.0869
  36   2.0000      -0.695964       -18.9382
  37   2.0000      -0.661794       -18.0083
  38   2.0000      -0.642229       -17.4760
  39   2.0000      -0.622413       -16.9367
  40   2.0000      -0.599932       -16.3250
  41   2.0000      -0.572746       -15.5852
  42   2.0000      -0.565260       -15.3815
  43   2.0000      -0.554533       -15.0896
  44   2.0000      -0.540170       -14.6988
  45   2.0000      -0.522417       -14.2157
  46   2.0000      -0.518212       -14.1013
  47   2.0000      -0.513860       -13.9828
  48   2.0000      -0.507199       -13.8016
  49   2.0000      -0.500902       -13.6302
  50   2.0000      -0.495438       -13.4815
  51   2.0000      -0.475983       -12.9522
  52   2.0000      -0.469004       -12.7622
  53   2.0000      -0.467852       -12.7309
  54   2.0000      -0.457007       -12.4358
  55   2.0000      -0.453126       -12.3302
  56   2.0000      -0.450338       -12.2543
  57   2.0000      -0.442879       -12.0514
  58   2.0000      -0.428051       -11.6479
  59   2.0000      -0.420888       -11.4529
  60   2.0000      -0.416440       -11.3319
  61   2.0000      -0.415916       -11.3177
  62   2.0000      -0.409708       -11.1487
  63   2.0000      -0.348572        -9.4851
  64   2.0000      -0.335795        -9.1374
  65   2.0000      -0.329517        -8.9666
  66   2.0000      -0.287326        -7.8185
  67   0.0000       0.024193         0.6583
  68   0.0000       0.070213         1.9106
  69   0.0000       0.101529         2.7628
  70   0.0000       0.123359         3.3568
  71   0.0000       0.126794         3.4502

MULLIKEN ATOMIC CHARGES
-----------------------
   0 S :    0.107122
   1 C :   -0.094953
   2 C :   -0.090688
   3 C :    0.055390
   4 C :   -0.157585
   5 H :   -0.008150
   6 C :    0.117693
   7 H :    0.021884
   8 H :   -0.004686
   9 C :   -0.095109
  10 H :    0.044832
  11 H :    0.019505
  12 C :   -0.043882
  13 H :    0.022597
  14 H :    0.025105
  15 H :    0.035562
  16 S :    0.101830
  17 C :   -0.098402
  18 C :    0.011497
  19 C :   -0.053562
  20 C :   -0.153197
  21 H :   -0.018825
  22 C :    0.132636
  23 H :    0.024492
  24 H :    0.002689
  25 C :   -0.114102
  26 H :    0.042037
  27 H :    0.020064
  28 C :   -0.022604
  29 H :    0.022345
  30 H :    0.023657
  31 H :    0.038416
  32 H :    0.027814
  33 H :    0.058577
Sum of atomic charges:    0.0000000

LOEWDIN ATOMIC CHARGES
----------------------
   0 S :    0.382690
   1 C :   -0.170074
   2 C :   -0.050972
   3 C :   -0.052285
   4 C :   -0.189069
   5 H :    0.021624
   6 C :   -0.019504
   7 H :    0.033534
   8 H :    0.011028
   9 C :   -0.041875
  10 H :    0.032977
  11 H :    0.019168
  12 C :   -0.069649
  13 H :    0.014138
  14 H :    0.033092
  15 H :    0.025179
  16 S :    0.397238
  17 C :   -0.170948
  18 C :   -0.060680
  19 C :   -0.043070
  20 C :   -0.211149
  21 H :    0.015555
  22 C :   -0.025988
  23 H :    0.027633
  24 H :    0.020504
  25 C :   -0.031916
  26 H :    0.027342
  27 H :    0.014364
  28 C :   -0.056766
  29 H :    0.020784
  30 H :    0.019425
  31 H :    0.026748
  32 H :    0.018908
  33 H :    0.032014

  Mayer bond orders larger than 0.100000
B(  0-S ,  1-C ) :   1.1204 B(  0-S ,  4-C ) :   1.1407 B(  1-C ,  2-C ) :   1.6036
B(  1-C ,  4-C ) :   0.1058 B(  1-C , 32-H ) :   0.9708 B(  2-C ,  3-C ) :   1.2440
B(  2-C ,  6-C ) :   1.0188 B(  3-C ,  4-C ) :   1.5499 B(  3-C ,  5-H ) :   0.9997
B(  4-C , 20-C ) :   1.0808 B(  6-C ,  7-H ) :   0.9435 B(  6-C ,  8-H ) :   0.9466
B(  6-C ,  9-C ) :   1.0524 B(  9-C , 10-H ) :   0.9593 B(  9-C , 11-H ) :   0.9585
B(  9-C , 12-C ) :   1.0864 B( 12-C , 13-H ) :   0.9795 B( 12-C , 14-H ) :   0.9699
B( 12-C , 15-H ) :   0.9666 B( 16-S , 17-C ) :   1.1409 B( 16-S , 20-C ) :   1.1271
B( 17-C , 18-C ) :   1.6517 B( 17-C , 33-H ) :   0.9610 B( 18-C , 19-C ) :   1.2009
B( 18-C , 21-H ) :   1.0058 B( 19-C , 20-C ) :   1.6126 B( 19-C , 22-C ) :   1.0346
B( 22-C , 23-H ) :   0.9337 B( 22-C , 24-H ) :   0.9306 B( 22-C , 25-C ) :   1.0510
B( 25-C , 26-H ) :   0.9615 B( 25-C , 27-H ) :   0.9636 B( 25-C , 28-C ) :   1.0715
B( 28-C , 29-H ) :   0.9770 B( 28-C , 30-H ) :   0.9789 B( 28-C , 31-H ) :   0.9777

Dispersion correction           -0.014031925
FINAL SINGLE POINT ENERGY     -1339.849035121445

DIPOLE MOMENT
-------------
                                X             Y             Z
Electronic contribution:      0.03944     -27.77139      -8.70494
Nuclear contribution   :     -0.01597      28.23019       9.15234
                        -----------------------------------------
Total Dipole Moment    :      0.02347       0.45880       0.44740
                        -----------------------------------------
Magnitude (a.u.)       :      0.64126
Magnitude (Debye)      :      1.62996

Rotational constants in cm-1:     0.017348     0.008933     0.006473
Rotational constants in MHz :   520.078708   267.814043   194.054831

                             ****ORCA TERMINATED NORMALLY****
TOTAL RUN TIME: 0 days 0 hours 0 minutes 21 seconds 279 msec
