                         Program Version 4.2.1 -  RELEASE  -
|  1> ! wB97X-D3 SP def2-SVP
|  2> %pal
|  3> nprocs 24
|  4> end
|  5>
|  6> * xyz 0 1
|  7> S 	 -73.9086 	 5.04498 	 -111.196
|  8> C 	 -75.1097 	 6.0274 	 -110.492
|  9> C 	 -75.0245 	 6.06044 	 -109.087
| 10> C 	 -73.9766 	 5.2887 	 -108.581
| 11> C 	 -73.2501 	 4.66466 	 -109.579
| 12> H 	 -73.6676 	 5.13075 	 -107.535
| 13> C 	 -76.0605 	 6.7851 	 -108.292
| 14> H 	 -76.3006 	 7.71878 	 -108.878
| 15> H 	 -75.6198 	 7.1904 	 -107.369
| 16> C 	 -77.3532 	 6.03834 	 -107.839
| 17> H 	 -77.7587 	 5.55252 	 -108.716
| 18> H 	 -77.1695 	 5.30785 	 -107.016
| 19> C 	 -78.3241 	 6.9857 	 -107.171
| 20> H 	 -77.8237 	 7.42839 	 -106.309
| 21> H 	 -78.6873 	 7.80188 	 -107.831
| 22> H 	 -79.252 	 6.57167 	 -106.73
| 23> S 	 -70.5745 	 4.83738 	 -109.628
| 24> C 	 -69.646 	 3.36697 	 -109.289
| 25> C 	 -70.4289 	 2.25191 	 -109.05
| 26> C 	 -71.8239 	 2.57445 	 -109.071
| 27> C 	 -72.0479 	 3.88527 	 -109.446
| 28> H 	 -69.9675 	 1.26013 	 -108.912
| 29> C 	 -72.8797 	 1.50663 	 -108.822
| 30> H 	 -73.326 	 1.18254 	 -109.799
| 31> H 	 -73.6949 	 1.95054 	 -108.188
| 32> C 	 -72.4597 	 0.251354 	 -108.166
| 33> H 	 -72.055 	 0.407353 	 -107.183
| 34> H 	 -71.7499 	 -0.24938 	 -108.813
| 35> C 	 -73.7168 	 -0.674366 	 -107.969
| 36> H 	 -74.1835 	 -0.166729 	 -107.204
| 37> H 	 -73.4888 	 -1.71432 	 -107.784
| 38> H 	 -74.3763 	 -0.789463 	 -108.805
| 39> H 	 -75.8743 	 6.51316 	 -111.085
| 40> H 	 -68.5866 	 3.35981 	 -109.213
| 41> *
| 42>
| 43>                          ****END OF INPUT****

CARTESIAN COORDINATES (ANGSTROEM)
---------------------------------
  S    -73.908600    5.044980  -111.196000
  C    -75.109700    6.027400  -110.492000
  C    -75.024500    6.060440  -109.087000
  C    -73.976600    5.288700  -108.581000
  C    -73.250100    4.664660  -109.579000
  H    -73.667600    5.130750  -107.535000
  C    -76.060500    6.785100  -108.292000
  H    -76.300600    7.718780  -108.878000
  H    -75.619800    7.190400  -107.369000
  C    -77.353200    6.038340  -107.839000
  H    -77.758700    5.552520  -108.716000
  H    -77.169500    5.307850  -107.016000
  C    -78.324100    6.985700  -107.171000
  H    -77.823700    7.428390  -106.309000
  H    -78.687300    7.801880  -107.831000
  H    -79.252000    6.571670  -106.730000
  S    -70.574500    4.837380  -109.628000
  C    -69.646000    3.366970  -109.289000
  C    -70.428900    2.251910  -109.050000
  C    -71.823900    2.574450  -109.071000
  C    -72.047900    3.885270  -109.446000
  H    -69.967500    1.260130  -108.912000
  C    -72.879700    1.506630  -108.822000
  H    -73.326000    1.182540  -109.799000
  H    -73.694900    1.950540  -108.188000
  C    -72.459700    0.251354  -108.166000
  H    -72.055000    0.407353  -107.183000
  H    -71.749900   -0.249380  -108.813000
  C    -73.716800   -0.674366  -107.969000
  H    -74.183500   -0.166729  -107.204000
  H    -73.488800   -1.714320  -107.784000
  H    -74.376300   -0.789463  -108.805000
  H    -75.874300    6.513160  -111.085000
  H    -68.586600    3.359810  -109.213000

 Total Charge           Charge          ....    0
 Multiplicity           Mult            ....    1
 Number of Electrons    NEL             ....  134
 Basis Dimension        Dim             ....  322

ORBITAL ENERGIES
----------------

  NO   OCC          E(Eh)            E(eV)
   0   2.0000     -88.965771     -2420.8817
   1   2.0000     -88.964635     -2420.8508
   2   2.0000     -10.324287      -280.9381
   3   2.0000     -10.320158      -280.8258
   4   2.0000     -10.315575      -280.7011
   5   2.0000     -10.311359      -280.5864
   6   2.0000     -10.304057      -280.3877
   7   2.0000     -10.297379      -280.2059
   8   2.0000     -10.295166      -280.1457
   9   2.0000     -10.294440      -280.1259
  10   2.0000     -10.293236      -280.0932
  11   2.0000     -10.293228      -280.0930
  12   2.0000     -10.289257      -279.9849
  13   2.0000     -10.283518      -279.8288
  14   2.0000     -10.279723      -279.7255
  15   2.0000     -10.270959      -279.4870
  16   2.0000      -8.080730      -219.8878
  17   2.0000      -8.079003      -219.8408
  18   2.0000      -6.038948      -164.3281
  19   2.0000      -6.037474      -164.2880
  20   2.0000      -6.035130      -164.2242
  21   2.0000      -6.033680      -164.1848
  22   2.0000      -6.031877      -164.1357
  23   2.0000      -6.029709      -164.0767
  24   2.0000      -1.004843       -27.3432
  25   2.0000      -0.981735       -26.7144
  26   2.0000      -0.916431       -24.9374
  27   2.0000      -0.907922       -24.7058
  28   2.0000      -0.868876       -23.6433
  29   2.0000      -0.854425       -23.2501
  30   2.0000      -0.849116       -23.1056
  31   2.0000      -0.813230       -22.1291
  32   2.0000      -0.781475       -21.2650
  33   2.0000      -0.763362       -20.7721
  34   2.0000      -0.705565       -19.1994
  35   2.0000      -0.698418       -19.0049
  36   2.0000      -0.694064       -18.8864
  37   2.0000      -0.653276       -17.7765
  38   2.0000      -0.645930       -17.5767
  39   2.0000      -0.614407       -16.7189
  40   2.0000      -0.599507       -16.3134
  41   2.0000      -0.585367       -15.9286
  42   2.0000      -0.573397       -15.6029
  43   2.0000      -0.554862       -15.0986
  44   2.0000      -0.522948       -14.2301
  45   2.0000      -0.521961       -14.2033
  46   2.0000      -0.516579       -14.0568
  47   2.0000      -0.510849       -13.9009
  48   2.0000      -0.507773       -13.8172
  49   2.0000      -0.494810       -13.4645
  50   2.0000      -0.487800       -13.2737
  51   2.0000      -0.473484       -12.8842
  52   2.0000      -0.468022       -12.7355
  53   2.0000      -0.459970       -12.5164
  54   2.0000      -0.456653       -12.4261
  55   2.0000      -0.451896       -12.2967
  56   2.0000      -0.447140       -12.1673
  57   2.0000      -0.435181       -11.8419
  58   2.0000      -0.431723       -11.7478
  59   2.0000      -0.429199       -11.6791
  60   2.0000      -0.423799       -11.5321
  61   2.0000      -0.417120       -11.3504
  62   2.0000      -0.412950       -11.2369
  63   2.0000      -0.342855        -9.3295
  64   2.0000      -0.330769        -9.0007
  65   2.0000      -0.315443        -8.5836
  66   2.0000      -0.301763        -8.2114
  67   0.0000       0.044156         1.2015
  68   0.0000       0.050691         1.3794
  69   0.0000       0.114475         3.1150
  70   0.0000       0.122712         3.3392
  71   0.0000       0.126281         3.4363

MULLIKEN ATOMIC CHARGES
-----------------------
   0 S :    0.125591
   1 C :   -0.121810
   2 C :   -0.065223
   3 C :    0.059374
   4 C :   -0.211336
   5 H :    0.024265
   6 C :    0.017789
   7 H :    0.030971
   8 H :    0.013058
   9 C :   -0.030609
  10 H :    0.027186
  11 H :    0.036476
  12 C :   -0.073152
  13 H :    0.023483
  14 H :    0.031111
  15 H :    0.036727
  16 S :    0.115883
  17 C :   -0.073617
  18 C :   -0.057981
  19 C :    0.011300
  20 C :   -0.187710
  21 H :    0.034817
  22 C :    0.039223
  23 H :    0.045242
  24 H :    0.030972
  25 C :   -0.091250
  26 H :    0.031471
  27 H :    0.028305
  28 C :   -0.005938
  29 H :    0.016283
  30 H :    0.028922
  31 H :    0.019264
  32 H :    0.049704
  33 H :    0.041208
Sum of atomic charges:   -0.0000000

LOEWDIN ATOMIC CHARGES
----------------------
   0 S :    0.418406
   1 C :   -0.208140
   2 C :   -0.073735
   3 C :   -0.055059
   4 C :   -0.196498
   5 H :    0.041626
   6 C :   -0.040415
   7 H :    0.036619
   8 H :    0.027252
   9 C :   -0.039114
  10 H :    0.020140
  11 H :    0.031838
  12 C :   -0.074101
  13 H :    0.024044
  14 H :    0.024047
  15 H :    0.028512
  16 S :    0.397966
  17 C :   -0.168739
  18 C :   -0.075841
  19 C :   -0.051494
  20 C :   -0.205793
  21 H :    0.038657
  22 C :   -0.038066
  23 H :    0.041997
  24 H :    0.035337
  25 C :   -0.037479
  26 H :    0.022425
  27 H :    0.018190
  28 C :   -0.052811
  29 H :    0.016290
  30 H :    0.026436
  31 H :    0.021920
  32 H :    0.026315
  33 H :    0.019268

  Mayer bond orders larger than 0.100000
B(  0-S ,  1-C ) :   1.1697 B(  0-S ,  4-C ) :   1.1598 B(  1-C ,  2-C ) :   1.5589
B(  1-C ,  4-C ) :   0.1093 B(  1-C , 32-H ) :   0.9709 B(  2-C ,  3-C ) :   1.2661
B(  2-C ,  6-C ) :   1.0352 B(  3-C ,  4-C ) :   1.5669 B(  3-C ,  5-H ) :   0.9938
B(  4-C , 20-C ) :   1.0216 B(  6-C ,  7-H ) :   0.9436 B(  6-C ,  8-H ) :   0.9343
B(  6-C ,  9-C ) :   1.0538 B(  9-C , 10-H ) :   0.9570 B(  9-C , 11-H ) :   0.9544
B(  9-C , 12-C ) :   1.0749 B( 12-C , 13-H ) :   0.9730 B( 12-C , 14-H ) :   0.9754
B( 12-C , 15-H ) :   0.9742 B( 16-S , 17-C ) :   1.1520 B( 16-S , 20-C ) :   1.1425
B( 17-C , 18-C ) :   1.6258 B( 17-C , 20-C ) :   0.1007 B( 17-C , 33-H ) :   0.9664
B( 18-C , 19-C ) :   1.2255 B( 18-C , 21-H ) :   0.9809 B( 19-C , 20-C ) :   1.6309
B( 19-C , 22-C ) :   1.0283 B( 22-C , 23-H ) :   0.9271 B( 22-C , 24-H ) :   0.9344
B( 22-C , 25-C ) :   1.0958 B( 25-C , 26-H ) :   0.9590 B( 25-C , 27-H ) :   0.9402
B( 25-C , 28-C ) :   1.0687 B( 28-C , 29-H ) :   0.9800 B( 28-C , 30-H ) :   0.9739
B( 28-C , 31-H ) :   0.9747

Dispersion correction           -0.013311499
FINAL SINGLE POINT ENERGY     -1339.880761457605

DIPOLE MOMENT
-------------
                                X             Y             Z
Electronic contribution:     20.63928       9.55737     -15.95986
Nuclear contribution   :    -20.90741      -9.87979      16.36131
                        -----------------------------------------
Total Dipole Moment    :     -0.26813      -0.32242       0.40145
                        -----------------------------------------
Magnitude (a.u.)       :      0.58053
Magnitude (Debye)      :      1.47558

Rotational constants in cm-1:     0.017736     0.007749     0.006168
Rotational constants in MHz :   531.722038   232.312322   184.901509

                             ****ORCA TERMINATED NORMALLY****
TOTAL RUN TIME: 0 days 0 hours 0 minutes 20 seconds 798 msec
