                         Program Version 4.2.1 -  RELEASE  -
|  1> ! wB97X-D3 SP def2-SVP
|  2> %pal
|  3> nprocs 24
|  4> end
|  5>
|  6> * xyz 0 1
|  7> S 	 -58.0342 	 17.6062 	 22.0619
|  8> C 	 -58.6436 	 18.5464 	 23.4111
|  9> C 	 -59.5162 	 19.5485 	 22.9887
| 10> C 	 -59.4551 	 19.6602 	 21.5695
| 11> C 	 -58.6706 	 18.7567 	 20.876
| 12> H 	 -60.1142 	 20.2875 	 21.0679
| 13> C 	 -60.3041 	 20.5055 	 23.863
| 14> H 	 -59.8165 	 21.433 	 23.7363
| 15> H 	 -60.2019 	 20.3963 	 24.9603
| 16> C 	 -61.799 	 20.7112 	 23.6611
| 17> H 	 -62.0817 	 20.6507 	 22.5254
| 18> H 	 -62.4398 	 20.0503 	 24.2797
| 19> C 	 -62.2031 	 22.061 	 24.1743
| 20> H 	 -61.6207 	 22.9754 	 23.8394
| 21> H 	 -63.3098 	 22.1215 	 23.921
| 22> H 	 -62.1555 	 22.1125 	 25.2687
| 23> S 	 -58.5105 	 20.2339 	 18.6729
| 24> C 	 -57.872 	 19.5933 	 17.1379
| 25> C 	 -57.5914 	 18.1925 	 17.3013
| 26> C 	 -57.8954 	 17.7243 	 18.6402
| 27> C 	 -58.3573 	 18.7378 	 19.4855
| 28> H 	 -57.1642 	 17.5977 	 16.405
| 29> C 	 -57.8099 	 16.2082 	 18.91
| 30> H 	 -58.0956 	 15.6671 	 18.006
| 31> H 	 -58.6824 	 16.0139 	 19.5545
| 32> C 	 -56.5727 	 15.736 	 19.5617
| 33> H 	 -56.4882 	 16.398 	 20.4616
| 34> H 	 -55.7505 	 16.1299 	 18.9899
| 35> C 	 -56.3946 	 14.1772 	 19.9333
| 36> H 	 -55.5306 	 14.1943 	 20.6768
| 37> H 	 -56.4045 	 13.5025 	 19.0837
| 38> H 	 -57.3477 	 13.9913 	 20.4759
| 39> H 	 -58.3051 	 18.1736 	 24.3568
| 40> H 	 -57.7086 	 20.1208 	 16.2751
| 41> *
| 42>
| 43>                          ****END OF INPUT****

CARTESIAN COORDINATES (ANGSTROEM)
---------------------------------
  S    -58.034200   17.606200   22.061900
  C    -58.643600   18.546400   23.411100
  C    -59.516200   19.548500   22.988700
  C    -59.455100   19.660200   21.569500
  C    -58.670600   18.756700   20.876000
  H    -60.114200   20.287500   21.067900
  C    -60.304100   20.505500   23.863000
  H    -59.816500   21.433000   23.736300
  H    -60.201900   20.396300   24.960300
  C    -61.799000   20.711200   23.661100
  H    -62.081700   20.650700   22.525400
  H    -62.439800   20.050300   24.279700
  C    -62.203100   22.061000   24.174300
  H    -61.620700   22.975400   23.839400
  H    -63.309800   22.121500   23.921000
  H    -62.155500   22.112500   25.268700
  S    -58.510500   20.233900   18.672900
  C    -57.872000   19.593300   17.137900
  C    -57.591400   18.192500   17.301300
  C    -57.895400   17.724300   18.640200
  C    -58.357300   18.737800   19.485500
  H    -57.164200   17.597700   16.405000
  C    -57.809900   16.208200   18.910000
  H    -58.095600   15.667100   18.006000
  H    -58.682400   16.013900   19.554500
  C    -56.572700   15.736000   19.561700
  H    -56.488200   16.398000   20.461600
  H    -55.750500   16.129900   18.989900
  C    -56.394600   14.177200   19.933300
  H    -55.530600   14.194300   20.676800
  H    -56.404500   13.502500   19.083700
  H    -57.347700   13.991300   20.475900
  H    -58.305100   18.173600   24.356800
  H    -57.708600   20.120800   16.275100

 Total Charge           Charge          ....    0
 Multiplicity           Mult            ....    1
 Number of Electrons    NEL             ....  134
 Basis Dimension        Dim             ....  322

ORBITAL ENERGIES
----------------

  NO   OCC          E(Eh)            E(eV)
   0   2.0000     -88.969815     -2420.9917
   1   2.0000     -88.965301     -2420.8689
   2   2.0000     -10.332919      -281.1730
   3   2.0000     -10.328906      -281.0638
   4   2.0000     -10.320176      -280.8263
   5   2.0000     -10.316784      -280.7340
   6   2.0000     -10.310025      -280.5501
   7   2.0000     -10.308986      -280.5218
   8   2.0000     -10.308334      -280.5040
   9   2.0000     -10.297617      -280.2124
  10   2.0000     -10.292244      -280.0662
  11   2.0000     -10.290135      -280.0088
  12   2.0000     -10.289975      -280.0045
  13   2.0000     -10.288047      -279.9520
  14   2.0000     -10.286796      -279.9180
  15   2.0000     -10.280771      -279.7540
  16   2.0000      -8.084344      -219.9862
  17   2.0000      -8.079395      -219.8515
  18   2.0000      -6.042951      -164.4371
  19   2.0000      -6.038762      -164.3231
  20   2.0000      -6.038003      -164.3024
  21   2.0000      -6.035124      -164.2241
  22   2.0000      -6.033966      -164.1926
  23   2.0000      -6.030126      -164.0881
  24   2.0000      -1.008772       -27.4501
  25   2.0000      -0.981280       -26.7020
  26   2.0000      -0.917637       -24.9702
  27   2.0000      -0.906860       -24.6769
  28   2.0000      -0.874237       -23.7892
  29   2.0000      -0.853358       -23.2211
  30   2.0000      -0.839287       -22.8382
  31   2.0000      -0.811842       -22.0913
  32   2.0000      -0.782173       -21.2840
  33   2.0000      -0.771198       -20.9854
  34   2.0000      -0.707407       -19.2495
  35   2.0000      -0.693249       -18.8643
  36   2.0000      -0.690687       -18.7945
  37   2.0000      -0.674961       -18.3666
  38   2.0000      -0.644965       -17.5504
  39   2.0000      -0.623581       -16.9685
  40   2.0000      -0.592466       -16.1218
  41   2.0000      -0.568464       -15.4687
  42   2.0000      -0.564778       -15.3684
  43   2.0000      -0.554769       -15.0960
  44   2.0000      -0.530454       -14.4344
  45   2.0000      -0.528114       -14.3707
  46   2.0000      -0.520373       -14.1601
  47   2.0000      -0.512987       -13.9591
  48   2.0000      -0.508479       -13.8364
  49   2.0000      -0.500672       -13.6240
  50   2.0000      -0.491379       -13.3711
  51   2.0000      -0.481565       -13.1041
  52   2.0000      -0.467450       -12.7200
  53   2.0000      -0.463317       -12.6075
  54   2.0000      -0.457649       -12.4533
  55   2.0000      -0.447487       -12.1767
  56   2.0000      -0.441592       -12.0163
  57   2.0000      -0.438452       -11.9309
  58   2.0000      -0.437249       -11.8981
  59   2.0000      -0.419786       -11.4230
  60   2.0000      -0.414693       -11.2844
  61   2.0000      -0.406785       -11.0692
  62   2.0000      -0.398239       -10.8366
  63   2.0000      -0.361114        -9.8264
  64   2.0000      -0.332355        -9.0439
  65   2.0000      -0.329504        -8.9663
  66   2.0000      -0.279891        -7.6162
  67   0.0000       0.015269         0.4155
  68   0.0000       0.076802         2.0899
  69   0.0000       0.097479         2.6525
  70   0.0000       0.124283         3.3819
  71   0.0000       0.132555         3.6070

MULLIKEN ATOMIC CHARGES
-----------------------
   0 S :    0.078447
   1 C :   -0.142064
   2 C :   -0.000060
   3 C :   -0.014915
   4 C :   -0.094101
   5 H :   -0.008856
   6 C :    0.069752
   7 H :    0.024088
   8 H :    0.018203
   9 C :   -0.095149
  10 H :    0.050120
  11 H :    0.043488
  12 C :   -0.108404
  13 H :    0.046564
  14 H :    0.045539
  15 H :    0.029910
  16 S :    0.104713
  17 C :   -0.073833
  18 C :   -0.064625
  19 C :   -0.092912
  20 C :   -0.102525
  21 H :    0.060959
  22 C :    0.058159
  23 H :    0.019446
  24 H :    0.017348
  25 C :   -0.077945
  26 H :    0.022086
  27 H :    0.010697
  28 C :   -0.039577
  29 H :    0.061296
  30 H :    0.046384
  31 H :    0.031512
  32 H :    0.047140
  33 H :    0.029119
Sum of atomic charges:   -0.0000000

LOEWDIN ATOMIC CHARGES
----------------------
   0 S :    0.412210
   1 C :   -0.183919
   2 C :   -0.054264
   3 C :   -0.068471
   4 C :   -0.179248
   5 H :    0.013683
   6 C :   -0.040316
   7 H :    0.030103
   8 H :    0.036403
   9 C :   -0.048801
  10 H :    0.033003
  11 H :    0.032718
  12 C :   -0.077970
  13 H :    0.028409
  14 H :    0.035997
  15 H :    0.021702
  16 S :    0.428460
  17 C :   -0.174694
  18 C :   -0.070251
  19 C :   -0.061384
  20 C :   -0.206476
  21 H :    0.049561
  22 C :   -0.041729
  23 H :    0.027711
  24 H :    0.024715
  25 C :   -0.057441
  26 H :    0.012578
  27 H :    0.016628
  28 C :   -0.067151
  29 H :    0.042831
  30 H :    0.024962
  31 H :    0.029076
  32 H :    0.020547
  33 H :    0.010816

  Mayer bond orders larger than 0.100000
B(  0-S ,  1-C ) :   1.1512 B(  0-S ,  4-C ) :   1.1279 B(  1-C ,  2-C ) :   1.5613
B(  1-C , 32-H ) :   0.9799 B(  2-C ,  3-C ) :   1.2634 B(  2-C ,  6-C ) :   1.0123
B(  3-C ,  4-C ) :   1.5386 B(  3-C ,  5-H ) :   0.9936 B(  4-C , 20-C ) :   1.1148
B(  6-C ,  7-H ) :   0.9465 B(  6-C ,  8-H ) :   0.9401 B(  6-C ,  9-C ) :   1.0521
B(  9-C , 10-H ) :   0.9596 B(  9-C , 11-H ) :   0.9530 B(  9-C , 12-C ) :   1.0697
B( 12-C , 13-H ) :   0.9742 B( 12-C , 14-H ) :   0.9728 B( 12-C , 15-H ) :   0.9747
B( 16-S , 17-C ) :   1.1528 B( 16-S , 20-C ) :   1.1516 B( 17-C , 18-C ) :   1.5818
B( 17-C , 20-C ) :   0.1017 B( 17-C , 33-H ) :   0.9832 B( 18-C , 19-C ) :   1.2650
B( 18-C , 21-H ) :   0.9734 B( 19-C , 20-C ) :   1.5385 B( 19-C , 22-C ) :   1.0326
B( 22-C , 23-H ) :   0.9363 B( 22-C , 24-H ) :   0.9295 B( 22-C , 25-C ) :   1.0655
B( 25-C , 26-H ) :   0.9414 B( 25-C , 27-H ) :   0.9484 B( 25-C , 28-C ) :   1.0527
B( 28-C , 29-H ) :   0.9746 B( 28-C , 30-H ) :   0.9773 B( 28-C , 31-H ) :   0.9756

Dispersion correction           -0.013716372
FINAL SINGLE POINT ENERGY     -1339.850904273701

DIPOLE MOMENT
-------------
                                X             Y             Z
Electronic contribution:      6.38752       3.85325      -9.73975
Nuclear contribution   :     -6.59043      -3.80010       9.89125
                        -----------------------------------------
Total Dipole Moment    :     -0.20290       0.05315       0.15150
                        -----------------------------------------
Magnitude (a.u.)       :      0.25874
Magnitude (Debye)      :      0.65767

Rotational constants in cm-1:     0.020943     0.007980     0.006034
Rotational constants in MHz :   627.843519   239.242338   180.887732

                             ****ORCA TERMINATED NORMALLY****
TOTAL RUN TIME: 0 days 0 hours 0 minutes 20 seconds 6 msec
