                         Program Version 4.2.1 -  RELEASE  -
|  1> ! wB97X-D3 SP def2-SVP
|  2> %pal
|  3> nprocs 24
|  4> end
|  5>
|  6> * xyz 0 1
|  7> S 	 -73.984 	 1.50702 	 -60.9018
|  8> C 	 -75.0635 	 2.73852 	 -61.5271
|  9> C 	 -76.2826 	 2.63018 	 -60.954
| 10> C 	 -76.3596 	 1.56193 	 -60.0136
| 11> C 	 -75.3382 	 0.665528 	 -60.0116
| 12> H 	 -77.2157 	 1.37768 	 -59.4343
| 13> C 	 -77.4886 	 3.49517 	 -61.3543
| 14> H 	 -78.4539 	 2.99135 	 -61.2137
| 15> H 	 -77.4347 	 3.64179 	 -62.4752
| 16> C 	 -77.5659 	 4.82084 	 -60.6075
| 17> H 	 -77.6932 	 4.54281 	 -59.5674
| 18> H 	 -76.5491 	 5.39409 	 -60.6611
| 19> C 	 -78.7495 	 5.77855 	 -60.8566
| 20> H 	 -79.7201 	 5.43273 	 -60.5435
| 21> H 	 -78.515 	 6.63329 	 -60.1987
| 22> H 	 -78.8477 	 6.0842 	 -61.9537
| 23> S 	 -73.6832 	 -1.49643 	 -59.436
| 24> C 	 -74.1181 	 -2.64739 	 -58.2471
| 25> C 	 -75.3077 	 -2.26867 	 -57.6696
| 26> C 	 -75.9149 	 -1.04723 	 -58.1383
| 27> C 	 -75.1404 	 -0.523212 	 -59.1881
| 28> H 	 -75.6564 	 -3.01689 	 -57.0063
| 29> C 	 -77.2332 	 -0.565567 	 -57.6566
| 30> H 	 -77.2035 	 0.507202 	 -57.588
| 31> H 	 -77.3823 	 -0.922413 	 -56.6854
| 32> C 	 -78.4589 	 -1.02896 	 -58.494
| 33> H 	 -78.3696 	 -2.06408 	 -58.686
| 34> H 	 -78.5196 	 -0.584538 	 -59.4902
| 35> C 	 -79.7371 	 -0.949503 	 -57.6466
| 36> H 	 -79.6847 	 0.0333176 	 -57.1418
| 37> H 	 -79.8238 	 -1.58514 	 -56.7793
| 38> H 	 -80.6049 	 -1.04965 	 -58.2634
| 39> H 	 -74.6742 	 3.62474 	 -62.0562
| 40> H 	 -73.5455 	 -3.57015 	 -58.1087
| 41> *
| 42>
| 43>                          ****END OF INPUT****

CARTESIAN COORDINATES (ANGSTROEM)
---------------------------------
  S    -73.984000    1.507020  -60.901800
  C    -75.063500    2.738520  -61.527100
  C    -76.282600    2.630180  -60.954000
  C    -76.359600    1.561930  -60.013600
  C    -75.338200    0.665528  -60.011600
  H    -77.215700    1.377680  -59.434300
  C    -77.488600    3.495170  -61.354300
  H    -78.453900    2.991350  -61.213700
  H    -77.434700    3.641790  -62.475200
  C    -77.565900    4.820840  -60.607500
  H    -77.693200    4.542810  -59.567400
  H    -76.549100    5.394090  -60.661100
  C    -78.749500    5.778550  -60.856600
  H    -79.720100    5.432730  -60.543500
  H    -78.515000    6.633290  -60.198700
  H    -78.847700    6.084200  -61.953700
  S    -73.683200   -1.496430  -59.436000
  C    -74.118100   -2.647390  -58.247100
  C    -75.307700   -2.268670  -57.669600
  C    -75.914900   -1.047230  -58.138300
  C    -75.140400   -0.523212  -59.188100
  H    -75.656400   -3.016890  -57.006300
  C    -77.233200   -0.565567  -57.656600
  H    -77.203500    0.507202  -57.588000
  H    -77.382300   -0.922413  -56.685400
  C    -78.458900   -1.028960  -58.494000
  H    -78.369600   -2.064080  -58.686000
  H    -78.519600   -0.584538  -59.490200
  C    -79.737100   -0.949503  -57.646600
  H    -79.684700    0.033318  -57.141800
  H    -79.823800   -1.585140  -56.779300
  H    -80.604900   -1.049650  -58.263400
  H    -74.674200    3.624740  -62.056200
  H    -73.545500   -3.570150  -58.108700

 Total Charge           Charge          ....    0
 Multiplicity           Mult            ....    1
 Number of Electrons    NEL             ....  134
 Basis Dimension        Dim             ....  322

ORBITAL ENERGIES
----------------

  NO   OCC          E(Eh)            E(eV)
   0   2.0000     -88.964309     -2420.8419
   1   2.0000     -88.960292     -2420.7326
   2   2.0000     -10.335494      -281.2431
   3   2.0000     -10.333856      -281.1985
   4   2.0000     -10.316822      -280.7350
   5   2.0000     -10.313729      -280.6508
   6   2.0000     -10.309620      -280.5390
   7   2.0000     -10.299445      -280.2621
   8   2.0000     -10.297630      -280.2127
   9   2.0000     -10.293608      -280.1033
  10   2.0000     -10.292616      -280.0763
  11   2.0000     -10.290434      -280.0170
  12   2.0000     -10.289100      -279.9807
  13   2.0000     -10.286755      -279.9168
  14   2.0000     -10.286433      -279.9081
  15   2.0000     -10.279239      -279.7123
  16   2.0000      -8.079580      -219.8565
  17   2.0000      -8.074277      -219.7122
  18   2.0000      -6.038006      -164.3025
  19   2.0000      -6.033947      -164.1920
  20   2.0000      -6.033062      -164.1680
  21   2.0000      -6.030461      -164.0972
  22   2.0000      -6.029031      -164.0583
  23   2.0000      -6.024629      -163.9385
  24   2.0000      -1.006539       -27.3893
  25   2.0000      -0.986026       -26.8311
  26   2.0000      -0.917971       -24.9793
  27   2.0000      -0.906659       -24.6714
  28   2.0000      -0.872941       -23.7539
  29   2.0000      -0.855809       -23.2878
  30   2.0000      -0.842019       -22.9125
  31   2.0000      -0.819254       -22.2930
  32   2.0000      -0.786340       -21.3974
  33   2.0000      -0.772464       -21.0198
  34   2.0000      -0.714265       -19.4361
  35   2.0000      -0.700945       -19.0737
  36   2.0000      -0.690787       -18.7973
  37   2.0000      -0.666212       -18.1286
  38   2.0000      -0.637629       -17.3508
  39   2.0000      -0.628205       -17.0943
  40   2.0000      -0.601170       -16.3587
  41   2.0000      -0.570341       -15.5198
  42   2.0000      -0.568959       -15.4822
  43   2.0000      -0.552498       -15.0342
  44   2.0000      -0.533254       -14.5106
  45   2.0000      -0.527390       -14.3510
  46   2.0000      -0.524512       -14.2727
  47   2.0000      -0.516305       -14.0494
  48   2.0000      -0.506750       -13.7894
  49   2.0000      -0.499951       -13.6044
  50   2.0000      -0.498579       -13.5670
  51   2.0000      -0.479005       -13.0344
  52   2.0000      -0.472836       -12.8665
  53   2.0000      -0.470122       -12.7927
  54   2.0000      -0.459805       -12.5119
  55   2.0000      -0.454434       -12.3658
  56   2.0000      -0.445988       -12.1359
  57   2.0000      -0.436753       -11.8846
  58   2.0000      -0.432230       -11.7616
  59   2.0000      -0.426969       -11.6184
  60   2.0000      -0.413999       -11.2655
  61   2.0000      -0.410578       -11.1724
  62   2.0000      -0.408490       -11.1156
  63   2.0000      -0.366855        -9.9826
  64   2.0000      -0.331831        -9.0296
  65   2.0000      -0.325585        -8.8596
  66   2.0000      -0.283963        -7.7270
  67   0.0000       0.017236         0.4690
  68   0.0000       0.082893         2.2556
  69   0.0000       0.101190         2.7535
  70   0.0000       0.119454         3.2505
  71   0.0000       0.134045         3.6476

MULLIKEN ATOMIC CHARGES
-----------------------
   0 S :    0.068337
   1 C :   -0.124002
   2 C :   -0.068886
   3 C :   -0.008152
   4 C :   -0.061074
   5 H :   -0.022365
   6 C :    0.054291
   7 H :    0.021202
   8 H :    0.037257
   9 C :   -0.115616
  10 H :    0.022517
  11 H :    0.041652
  12 C :   -0.047177
  13 H :    0.028021
  14 H :    0.042140
  15 H :    0.042551
  16 S :    0.100797
  17 C :   -0.105453
  18 C :   -0.031580
  19 C :   -0.048396
  20 C :   -0.139062
  21 H :    0.004651
  22 C :    0.091056
  23 H :    0.028880
  24 H :   -0.002869
  25 C :   -0.045522
  26 H :    0.016362
  27 H :    0.038152
  28 C :   -0.045966
  29 H :    0.018890
  30 H :    0.031742
  31 H :    0.037466
  32 H :    0.068139
  33 H :    0.072017
Sum of atomic charges:   -0.0000000

LOEWDIN ATOMIC CHARGES
----------------------
   0 S :    0.359171
   1 C :   -0.188136
   2 C :   -0.067482
   3 C :   -0.064337
   4 C :   -0.156281
   5 H :    0.018622
   6 C :   -0.037524
   7 H :    0.029022
   8 H :    0.034981
   9 C :   -0.054267
  10 H :    0.023442
  11 H :    0.032002
  12 C :   -0.071483
  13 H :    0.019765
  14 H :    0.034514
  15 H :    0.030344
  16 S :    0.412274
  17 C :   -0.197350
  18 C :   -0.072938
  19 C :   -0.049996
  20 C :   -0.187222
  21 H :    0.025773
  22 C :   -0.027598
  23 H :    0.028840
  24 H :    0.026456
  25 C :   -0.033578
  26 H :    0.021029
  27 H :    0.026427
  28 C :   -0.064389
  29 H :    0.025100
  30 H :    0.024358
  31 H :    0.024847
  32 H :    0.038353
  33 H :    0.037262

  Mayer bond orders larger than 0.100000
B(  0-S ,  1-C ) :   1.1277 B(  0-S ,  4-C ) :   1.1084 B(  1-C ,  2-C ) :   1.6405
B(  1-C , 32-H ) :   0.9604 B(  2-C ,  3-C ) :   1.2371 B(  2-C ,  6-C ) :   1.0115
B(  3-C ,  4-C ) :   1.5918 B(  3-C ,  5-H ) :   0.9952 B(  4-C , 20-C ) :   1.1049
B(  6-C ,  7-H ) :   0.9428 B(  6-C ,  8-H ) :   0.9462 B(  6-C ,  9-C ) :   1.0588
B(  9-C , 10-H ) :   0.9518 B(  9-C , 11-H ) :   0.9590 B(  9-C , 12-C ) :   1.0784
B( 12-C , 13-H ) :   0.9739 B( 12-C , 14-H ) :   0.9727 B( 12-C , 15-H ) :   0.9747
B( 16-S , 17-C ) :   1.1602 B( 16-S , 20-C ) :   1.1484 B( 17-C , 18-C ) :   1.6030
B( 17-C , 33-H ) :   0.9664 B( 18-C , 19-C ) :   1.2321 B( 18-C , 21-H ) :   0.9985
B( 19-C , 20-C ) :   1.5490 B( 19-C , 22-C ) :   1.0719 B( 22-C , 23-H ) :   0.9155
B( 22-C , 24-H ) :   0.9190 B( 22-C , 25-C ) :   1.0634 B( 25-C , 26-H ) :   0.9510
B( 25-C , 27-H ) :   0.9534 B( 25-C , 28-C ) :   1.0758 B( 28-C , 29-H ) :   0.9733
B( 28-C , 30-H ) :   0.9752 B( 28-C , 31-H ) :   0.9737

Dispersion correction           -0.013714090
FINAL SINGLE POINT ENERGY     -1339.869863108245

DIPOLE MOMENT
-------------
                                X             Y             Z
Electronic contribution:     29.39361     -13.65446      -4.78649
Nuclear contribution   :    -30.15276      13.66874       5.14790
                        -----------------------------------------
Total Dipole Moment    :     -0.75915       0.01428       0.36141
                        -----------------------------------------
Magnitude (a.u.)       :      0.84091
Magnitude (Debye)      :      2.13743

Rotational constants in cm-1:     0.018036     0.008694     0.006068
Rotational constants in MHz :   540.718246   260.635414   181.927968

                             ****ORCA TERMINATED NORMALLY****
TOTAL RUN TIME: 0 days 0 hours 0 minutes 20 seconds 154 msec
