                         Program Version 4.2.1 -  RELEASE  -
|  1> ! wB97X-D3 SP def2-SVP
|  2> %pal
|  3> nprocs 24
|  4> end
|  5>
|  6> * xyz 0 1
|  7> S 	 -94.1784 	 -34.0935 	 -67.5794
|  8> C 	 -95.5272 	 -35.2041 	 -67.4421
|  9> C 	 -96.4037 	 -34.768 	 -66.442
| 10> C 	 -96.0544 	 -33.559 	 -65.8421
| 11> C 	 -94.8947 	 -32.9852 	 -66.4485
| 12> H 	 -96.3698 	 -33.0435 	 -64.9144
| 13> C 	 -97.5631 	 -35.5525 	 -65.8893
| 14> H 	 -97.481 	 -35.867 	 -64.8867
| 15> H 	 -97.5032 	 -36.4871 	 -66.4081
| 16> C 	 -98.9216 	 -34.9613 	 -66.0392
| 17> H 	 -99.2747 	 -34.533 	 -66.981
| 18> H 	 -99.6901 	 -35.6848 	 -65.8349
| 19> C 	 -99.1116 	 -33.9366 	 -64.9674
| 20> H 	 -100.122 	 -33.525 	 -64.8867
| 21> H 	 -98.912 	 -34.3054 	 -63.9511
| 22> H 	 -98.599 	 -33.0363 	 -65.1546
| 23> S 	 -92.6427 	 -32.1903 	 -65.0256
| 24> C 	 -92.4057 	 -30.5728 	 -64.6725
| 25> C 	 -93.4336 	 -29.8273 	 -65.2542
| 26> C 	 -94.4563 	 -30.52 	 -65.9422
| 27> C 	 -94.1133 	 -31.8573 	 -66.0529
| 28> H 	 -93.4771 	 -28.7885 	 -65.1515
| 29> C 	 -95.6065 	 -29.8184 	 -66.7354
| 30> H 	 -95.7302 	 -30.4775 	 -67.5972
| 31> H 	 -95.3123 	 -28.8266 	 -67.0279
| 32> C 	 -96.9271 	 -29.6859 	 -65.9436
| 33> H 	 -96.8395 	 -28.8147 	 -65.3211
| 34> H 	 -97.0265 	 -30.5843 	 -65.3695
| 35> C 	 -98.1633 	 -29.4666 	 -66.8083
| 36> H 	 -98.0794 	 -30.0662 	 -67.7131
| 37> H 	 -98.0903 	 -28.4039 	 -67.1065
| 38> H 	 -99.0461 	 -29.7267 	 -66.2605
| 39> H 	 -95.5932 	 -36.2039 	 -67.8645
| 40> H 	 -91.6534 	 -30.0948 	 -64.0758
| 41> *
| 42>
| 43>                          ****END OF INPUT****

CARTESIAN COORDINATES (ANGSTROEM)
---------------------------------
  S    -94.178400  -34.093500  -67.579400
  C    -95.527200  -35.204100  -67.442100
  C    -96.403700  -34.768000  -66.442000
  C    -96.054400  -33.559000  -65.842100
  C    -94.894700  -32.985200  -66.448500
  H    -96.369800  -33.043500  -64.914400
  C    -97.563100  -35.552500  -65.889300
  H    -97.481000  -35.867000  -64.886700
  H    -97.503200  -36.487100  -66.408100
  C    -98.921600  -34.961300  -66.039200
  H    -99.274700  -34.533000  -66.981000
  H    -99.690100  -35.684800  -65.834900
  C    -99.111600  -33.936600  -64.967400
  H    -100.122000  -33.525000  -64.886700
  H    -98.912000  -34.305400  -63.951100
  H    -98.599000  -33.036300  -65.154600
  S    -92.642700  -32.190300  -65.025600
  C    -92.405700  -30.572800  -64.672500
  C    -93.433600  -29.827300  -65.254200
  C    -94.456300  -30.520000  -65.942200
  C    -94.113300  -31.857300  -66.052900
  H    -93.477100  -28.788500  -65.151500
  C    -95.606500  -29.818400  -66.735400
  H    -95.730200  -30.477500  -67.597200
  H    -95.312300  -28.826600  -67.027900
  C    -96.927100  -29.685900  -65.943600
  H    -96.839500  -28.814700  -65.321100
  H    -97.026500  -30.584300  -65.369500
  C    -98.163300  -29.466600  -66.808300
  H    -98.079400  -30.066200  -67.713100
  H    -98.090300  -28.403900  -67.106500
  H    -99.046100  -29.726700  -66.260500
  H    -95.593200  -36.203900  -67.864500
  H    -91.653400  -30.094800  -64.075800

 Total Charge           Charge          ....    0
 Multiplicity           Mult            ....    1
 Number of Electrons    NEL             ....  134
 Basis Dimension        Dim             ....  322

ORBITAL ENERGIES
----------------

  NO   OCC          E(Eh)            E(eV)
   0   2.0000     -88.968987     -2420.9692
   1   2.0000     -88.963988     -2420.8332
   2   2.0000     -10.326843      -281.0077
   3   2.0000     -10.324306      -280.9386
   4   2.0000     -10.316988      -280.7395
   5   2.0000     -10.313814      -280.6531
   6   2.0000     -10.303886      -280.3830
   7   2.0000     -10.301099      -280.3072
   8   2.0000     -10.297499      -280.2092
   9   2.0000     -10.293984      -280.1136
  10   2.0000     -10.284126      -279.8453
  11   2.0000     -10.281959      -279.7863
  12   2.0000     -10.279122      -279.7091
  13   2.0000     -10.278903      -279.7032
  14   2.0000     -10.275278      -279.6045
  15   2.0000     -10.268102      -279.4093
  16   2.0000      -8.083499      -219.9632
  17   2.0000      -8.079123      -219.8441
  18   2.0000      -6.041808      -164.4060
  19   2.0000      -6.037870      -164.2988
  20   2.0000      -6.037443      -164.2872
  21   2.0000      -6.034658      -164.2114
  22   2.0000      -6.033496      -164.1798
  23   2.0000      -6.030101      -164.0874
  24   2.0000      -1.007091       -27.4044
  25   2.0000      -0.985255       -26.8101
  26   2.0000      -0.924336       -25.1525
  27   2.0000      -0.909666       -24.7533
  28   2.0000      -0.872889       -23.7525
  29   2.0000      -0.855397       -23.2765
  30   2.0000      -0.845667       -23.0118
  31   2.0000      -0.810614       -22.0579
  32   2.0000      -0.786610       -21.4047
  33   2.0000      -0.773802       -21.0562
  34   2.0000      -0.707200       -19.2439
  35   2.0000      -0.701833       -19.0978
  36   2.0000      -0.692196       -18.8356
  37   2.0000      -0.660534       -17.9740
  38   2.0000      -0.646592       -17.5947
  39   2.0000      -0.615374       -16.7452
  40   2.0000      -0.596243       -16.2246
  41   2.0000      -0.579792       -15.7770
  42   2.0000      -0.575630       -15.6637
  43   2.0000      -0.551895       -15.0178
  44   2.0000      -0.541736       -14.7414
  45   2.0000      -0.526769       -14.3341
  46   2.0000      -0.519843       -14.1456
  47   2.0000      -0.511268       -13.9123
  48   2.0000      -0.510079       -13.8799
  49   2.0000      -0.497478       -13.5371
  50   2.0000      -0.493677       -13.4336
  51   2.0000      -0.487204       -13.2575
  52   2.0000      -0.474774       -12.9193
  53   2.0000      -0.464548       -12.6410
  54   2.0000      -0.458229       -12.4690
  55   2.0000      -0.442176       -12.0322
  56   2.0000      -0.437288       -11.8992
  57   2.0000      -0.434108       -11.8127
  58   2.0000      -0.429320       -11.6824
  59   2.0000      -0.426520       -11.6062
  60   2.0000      -0.422356       -11.4929
  61   2.0000      -0.417128       -11.3506
  62   2.0000      -0.410332       -11.1657
  63   2.0000      -0.337764        -9.1910
  64   2.0000      -0.334954        -9.1145
  65   2.0000      -0.327824        -8.9205
  66   2.0000      -0.294153        -8.0043
  67   0.0000       0.027674         0.7530
  68   0.0000       0.056134         1.5275
  69   0.0000       0.110897         3.0177
  70   0.0000       0.124366         3.3842
  71   0.0000       0.128910         3.5078

MULLIKEN ATOMIC CHARGES
-----------------------
   0 S :    0.119262
   1 C :   -0.108363
   2 C :   -0.100304
   3 C :    0.032957
   4 C :   -0.198673
   5 H :    0.046237
   6 C :    0.119041
   7 H :    0.019372
   8 H :   -0.008638
   9 C :   -0.028905
  10 H :    0.026490
  11 H :    0.017535
  12 C :   -0.062322
  13 H :    0.014830
  14 H :    0.022874
  15 H :    0.017972
  16 S :    0.114073
  17 C :   -0.061745
  18 C :   -0.036707
  19 C :   -0.014393
  20 C :   -0.182710
  21 H :   -0.014848
  22 C :    0.067721
  23 H :    0.036056
  24 H :    0.019216
  25 C :   -0.077086
  26 H :    0.025479
  27 H :    0.018424
  28 C :   -0.028800
  29 H :    0.028725
  30 H :    0.031081
  31 H :    0.039764
  32 H :    0.052728
  33 H :    0.053659
Sum of atomic charges:    0.0000000

LOEWDIN ATOMIC CHARGES
----------------------
   0 S :    0.428939
   1 C :   -0.204305
   2 C :   -0.062159
   3 C :   -0.061043
   4 C :   -0.208032
   5 H :    0.042501
   6 C :   -0.026835
   7 H :    0.030406
   8 H :    0.024695
   9 C :   -0.039485
  10 H :    0.028713
  11 H :    0.025277
  12 C :   -0.068420
  13 H :    0.024838
  14 H :    0.023549
  15 H :    0.014096
  16 S :    0.415541
  17 C :   -0.205520
  18 C :   -0.076504
  19 C :   -0.045268
  20 C :   -0.199594
  21 H :    0.014838
  22 C :   -0.016260
  23 H :    0.033050
  24 H :    0.025936
  25 C :   -0.038266
  26 H :    0.021318
  27 H :    0.014500
  28 C :   -0.060018
  29 H :    0.023995
  30 H :    0.029177
  31 H :    0.025384
  32 H :    0.031622
  33 H :    0.033333

  Mayer bond orders larger than 0.100000
B(  0-S ,  1-C ) :   1.1556 B(  0-S ,  4-C ) :   1.1817 B(  1-C ,  2-C ) :   1.5758
B(  1-C ,  4-C ) :   0.1107 B(  1-C , 32-H ) :   0.9637 B(  2-C ,  3-C ) :   1.2786
B(  2-C ,  6-C ) :   1.0289 B(  3-C ,  4-C ) :   1.5190 B(  3-C ,  5-H ) :   0.9798
B(  4-C , 20-C ) :   1.0301 B(  6-C ,  7-H ) :   0.9359 B(  6-C ,  8-H ) :   0.9240
B(  6-C ,  9-C ) :   1.0753 B(  9-C , 10-H ) :   0.9517 B(  9-C , 11-H ) :   0.9490
B(  9-C , 12-C ) :   1.0922 B( 12-C , 13-H ) :   0.9635 B( 12-C , 14-H ) :   0.9717
B( 12-C , 15-H ) :   0.9679 B( 16-S , 17-C ) :   1.1788 B( 16-S , 20-C ) :   1.1364
B( 17-C , 18-C ) :   1.5660 B( 17-C , 20-C ) :   0.1045 B( 17-C , 33-H ) :   0.9696
B( 18-C , 19-C ) :   1.2778 B( 18-C , 21-H ) :   0.9917 B( 19-C , 20-C ) :   1.5772
B( 19-C , 22-C ) :   1.0293 B( 22-C , 23-H ) :   0.9416 B( 22-C , 24-H ) :   0.9442
B( 22-C , 25-C ) :   1.0584 B( 25-C , 26-H ) :   0.9558 B( 25-C , 27-H ) :   0.9585
B( 25-C , 28-C ) :   1.0850 B( 28-C , 29-H ) :   0.9774 B( 28-C , 30-H ) :   0.9756
B( 28-C , 31-H ) :   0.9748

Dispersion correction           -0.014877720
FINAL SINGLE POINT ENERGY     -1339.860173851676

DIPOLE MOMENT
-------------
                                X             Y             Z
Electronic contribution:     29.24493      -6.50247      -2.71786
Nuclear contribution   :    -29.75048       6.64341       3.00946
                        -----------------------------------------
Total Dipole Moment    :     -0.50555       0.14093       0.29160
                        -----------------------------------------
Magnitude (a.u.)       :      0.60040
Magnitude (Debye)      :      1.52609

Rotational constants in cm-1:     0.016536     0.010485     0.007569
Rotational constants in MHz :   495.728201   314.327533   226.905873

                             ****ORCA TERMINATED NORMALLY****
TOTAL RUN TIME: 0 days 0 hours 0 minutes 21 seconds 536 msec
