                         Program Version 4.2.1 -  RELEASE  -
|  1> ! wB97X-D3 SP def2-SVP
|  2> %pal
|  3> nprocs 24
|  4> end
|  5>
|  6> * xyz 0 1
|  7> S 	 -138.602 	 9.34607 	 1.67017
|  8> C 	 -140.048 	 9.96206 	 0.849504
|  9> C 	 -139.807 	 10.3346 	 -0.501549
| 10> C 	 -138.44 	 10.1991 	 -0.802741
| 11> C 	 -137.677 	 9.65204 	 0.250622
| 12> H 	 -137.942 	 10.3687 	 -1.70676
| 13> C 	 -140.865 	 10.8763 	 -1.40352
| 14> H 	 -141.612 	 11.3804 	 -0.779133
| 15> H 	 -141.378 	 9.968 	 -1.78762
| 16> C 	 -140.488 	 11.9073 	 -2.4504
| 17> H 	 -139.966 	 12.6876 	 -1.9244
| 18> H 	 -139.818 	 11.4142 	 -3.13527
| 19> C 	 -141.746 	 12.5051 	 -3.14897
| 20> H 	 -141.462 	 13.3964 	 -3.73989
| 21> H 	 -142.169 	 11.7208 	 -3.78713
| 22> H 	 -142.562 	 12.7245 	 -2.41091
| 23> S 	 -135.172 	 10.53 	 1.00453
| 24> C 	 -133.762 	 9.46465 	 0.844906
| 25> C 	 -134.152 	 8.2242 	 0.4117
| 26> C 	 -135.477 	 8.2237 	 -0.067338
| 27> C 	 -136.208 	 9.36354 	 0.217537
| 28> H 	 -133.398 	 7.4679 	 0.361135
| 29> C 	 -136.086 	 6.94942 	 -0.575863
| 30> H 	 -136.62 	 7.24506 	 -1.47212
| 31> H 	 -136.888 	 6.80428 	 0.141716
| 32> C 	 -135.173 	 5.65552 	 -0.772503
| 33> H 	 -134.182 	 6.00027 	 -1.14606
| 34> H 	 -135.397 	 4.99225 	 -1.59058
| 35> C 	 -135.169 	 4.67484 	 0.486035
| 36> H 	 -134.735 	 3.74697 	 0.117012
| 37> H 	 -136.218 	 4.38532 	 0.809339
| 38> H 	 -134.431 	 5.00969 	 1.30467
| 39> H 	 -141.013 	 9.99391 	 1.41775
| 40> H 	 -132.856 	 9.75292 	 1.33959
| 41> *
| 42>
| 43>                          ****END OF INPUT****

CARTESIAN COORDINATES (ANGSTROEM)
---------------------------------
  S    -138.602000    9.346070    1.670170
  C    -140.048000    9.962060    0.849504
  C    -139.807000   10.334600   -0.501549
  C    -138.440000   10.199100   -0.802741
  C    -137.677000    9.652040    0.250622
  H    -137.942000   10.368700   -1.706760
  C    -140.865000   10.876300   -1.403520
  H    -141.612000   11.380400   -0.779133
  H    -141.378000    9.968000   -1.787620
  C    -140.488000   11.907300   -2.450400
  H    -139.966000   12.687600   -1.924400
  H    -139.818000   11.414200   -3.135270
  C    -141.746000   12.505100   -3.148970
  H    -141.462000   13.396400   -3.739890
  H    -142.169000   11.720800   -3.787130
  H    -142.562000   12.724500   -2.410910
  S    -135.172000   10.530000    1.004530
  C    -133.762000    9.464650    0.844906
  C    -134.152000    8.224200    0.411700
  C    -135.477000    8.223700   -0.067338
  C    -136.208000    9.363540    0.217537
  H    -133.398000    7.467900    0.361135
  C    -136.086000    6.949420   -0.575863
  H    -136.620000    7.245060   -1.472120
  H    -136.888000    6.804280    0.141716
  C    -135.173000    5.655520   -0.772503
  H    -134.182000    6.000270   -1.146060
  H    -135.397000    4.992250   -1.590580
  C    -135.169000    4.674840    0.486035
  H    -134.735000    3.746970    0.117012
  H    -136.218000    4.385320    0.809339
  H    -134.431000    5.009690    1.304670
  H    -141.013000    9.993910    1.417750
  H    -132.856000    9.752920    1.339590

 Total Charge           Charge          ....    0
 Multiplicity           Mult            ....    1
 Number of Electrons    NEL             ....  134
 Basis Dimension        Dim             ....  322

ORBITAL ENERGIES
----------------

  NO   OCC          E(Eh)            E(eV)
   0   2.0000     -88.970722     -2421.0164
   1   2.0000     -88.957613     -2420.6597
   2   2.0000     -10.329216      -281.0723
   3   2.0000     -10.320725      -280.8412
   4   2.0000     -10.319937      -280.8198
   5   2.0000     -10.314037      -280.6592
   6   2.0000     -10.304912      -280.4109
   7   2.0000     -10.299451      -280.2623
   8   2.0000     -10.298123      -280.2262
   9   2.0000     -10.293730      -280.1066
  10   2.0000     -10.291430      -280.0441
  11   2.0000     -10.290953      -280.0311
  12   2.0000     -10.288346      -279.9601
  13   2.0000     -10.287854      -279.9467
  14   2.0000     -10.287766      -279.9444
  15   2.0000     -10.286317      -279.9049
  16   2.0000      -8.085049      -220.0054
  17   2.0000      -8.072400      -219.6612
  18   2.0000      -6.043263      -164.4455
  19   2.0000      -6.039570      -164.3451
  20   2.0000      -6.036204      -164.2534
  21   2.0000      -6.030844      -164.1076
  22   2.0000      -6.026819      -163.9981
  23   2.0000      -6.023319      -163.9028
  24   2.0000      -1.002706       -27.2850
  25   2.0000      -0.982016       -26.7220
  26   2.0000      -0.915625       -24.9154
  27   2.0000      -0.895761       -24.3749
  28   2.0000      -0.864148       -23.5147
  29   2.0000      -0.849212       -23.1082
  30   2.0000      -0.841859       -22.9081
  31   2.0000      -0.813825       -22.1453
  32   2.0000      -0.778570       -21.1860
  33   2.0000      -0.764669       -20.8077
  34   2.0000      -0.710123       -19.3234
  35   2.0000      -0.704507       -19.1706
  36   2.0000      -0.684210       -18.6183
  37   2.0000      -0.654900       -17.8207
  38   2.0000      -0.643959       -17.5230
  39   2.0000      -0.618870       -16.8403
  40   2.0000      -0.592709       -16.1284
  41   2.0000      -0.574190       -15.6245
  42   2.0000      -0.566594       -15.4178
  43   2.0000      -0.545205       -14.8358
  44   2.0000      -0.527513       -14.3544
  45   2.0000      -0.525383       -14.2964
  46   2.0000      -0.518508       -14.1093
  47   2.0000      -0.505400       -13.7526
  48   2.0000      -0.498101       -13.5540
  49   2.0000      -0.495412       -13.4808
  50   2.0000      -0.487618       -13.2687
  51   2.0000      -0.474982       -12.9249
  52   2.0000      -0.467009       -12.7080
  53   2.0000      -0.462472       -12.5845
  54   2.0000      -0.455333       -12.3902
  55   2.0000      -0.451038       -12.2734
  56   2.0000      -0.442876       -12.0513
  57   2.0000      -0.436992       -11.8911
  58   2.0000      -0.436495       -11.8776
  59   2.0000      -0.430266       -11.7081
  60   2.0000      -0.419634       -11.4188
  61   2.0000      -0.418335       -11.3835
  62   2.0000      -0.407619       -11.0919
  63   2.0000      -0.337304        -9.1785
  64   2.0000      -0.329553        -8.9676
  65   2.0000      -0.311998        -8.4899
  66   2.0000      -0.304036        -8.2732
  67   0.0000       0.043036         1.1711
  68   0.0000       0.049348         1.3428
  69   0.0000       0.120172         3.2700
  70   0.0000       0.123970         3.3734
  71   0.0000       0.131526         3.5790

MULLIKEN ATOMIC CHARGES
-----------------------
   0 S :    0.136632
   1 C :   -0.165706
   2 C :   -0.050255
   3 C :    0.053058
   4 C :   -0.192993
   5 H :   -0.008776
   6 C :    0.037057
   7 H :    0.017151
   8 H :    0.045671
   9 C :   -0.067711
  10 H :    0.033785
  11 H :    0.034240
  12 C :   -0.059436
  13 H :    0.051639
  14 H :    0.032214
  15 H :    0.036898
  16 S :    0.090098
  17 C :   -0.090342
  18 C :   -0.036201
  19 C :   -0.046884
  20 C :   -0.175733
  21 H :    0.017244
  22 C :    0.110855
  23 H :    0.025624
  24 H :    0.027598
  25 C :   -0.084355
  26 H :    0.029782
  27 H :    0.025156
  28 C :   -0.085683
  29 H :    0.027612
  30 H :    0.056490
  31 H :    0.053650
  32 H :    0.066913
  33 H :    0.054705
Sum of atomic charges:   -0.0000000

LOEWDIN ATOMIC CHARGES
----------------------
   0 S :    0.424552
   1 C :   -0.205074
   2 C :   -0.058835
   3 C :   -0.057413
   4 C :   -0.209678
   5 H :    0.023904
   6 C :   -0.040404
   7 H :    0.030329
   8 H :    0.038567
   9 C :   -0.038138
  10 H :    0.025406
  11 H :    0.021144
  12 C :   -0.065920
  13 H :    0.031815
  14 H :    0.026457
  15 H :    0.029740
  16 S :    0.396208
  17 C :   -0.167126
  18 C :   -0.074082
  19 C :   -0.054473
  20 C :   -0.217505
  21 H :    0.029894
  22 C :   -0.035880
  23 H :    0.034662
  24 H :    0.033987
  25 C :   -0.047210
  26 H :    0.026905
  27 H :    0.025571
  28 C :   -0.076256
  29 H :    0.022645
  30 H :    0.036614
  31 H :    0.033848
  32 H :    0.032885
  33 H :    0.022860

  Mayer bond orders larger than 0.100000
B(  0-S ,  1-C ) :   1.1577 B(  0-S ,  4-C ) :   1.1863 B(  1-C ,  2-C ) :   1.5595
B(  1-C ,  4-C ) :   0.1106 B(  1-C , 32-H ) :   0.9655 B(  2-C ,  3-C ) :   1.2685
B(  2-C ,  6-C ) :   1.0153 B(  3-C ,  4-C ) :   1.5462 B(  3-C ,  5-H ) :   1.0025
B(  4-C , 20-C ) :   0.9964 B(  6-C ,  7-H ) :   0.9431 B(  6-C ,  8-H ) :   0.9254
B(  6-C ,  9-C ) :   1.0718 B(  9-C , 10-H ) :   0.9589 B(  9-C , 11-H ) :   0.9481
B(  9-C , 12-C ) :   1.0813 B( 12-C , 13-H ) :   0.9750 B( 12-C , 14-H ) :   0.9756
B( 12-C , 15-H ) :   0.9744 B( 16-S , 17-C ) :   1.1717 B( 16-S , 20-C ) :   1.1525
B( 17-C , 18-C ) :   1.5889 B( 17-C , 20-C ) :   0.1026 B( 17-C , 33-H ) :   0.9666
B( 18-C , 19-C ) :   1.2556 B( 18-C , 21-H ) :   0.9903 B( 19-C , 20-C ) :   1.5936
B( 19-C , 22-C ) :   1.0244 B( 22-C , 23-H ) :   0.9261 B( 22-C , 24-H ) :   0.9322
B( 22-C , 25-C ) :   1.0430 B( 25-C , 26-H ) :   0.9567 B( 25-C , 27-H ) :   0.9623
B( 25-C , 28-C ) :   1.0663 B( 28-C , 29-H ) :   0.9767 B( 28-C , 30-H ) :   0.9734
B( 28-C , 31-H ) :   0.9773

Dispersion correction           -0.013687792
FINAL SINGLE POINT ENERGY     -1339.864900010225

DIPOLE MOMENT
-------------
                                X             Y             Z
Electronic contribution:      9.05216       7.92489      15.76432
Nuclear contribution   :     -9.25412      -8.26449     -16.12023
                        -----------------------------------------
Total Dipole Moment    :     -0.20196      -0.33961      -0.35591
                        -----------------------------------------
Magnitude (a.u.)       :      0.53178
Magnitude (Debye)      :      1.35168

Rotational constants in cm-1:     0.021488     0.006743     0.006258
Rotational constants in MHz :   644.180702   202.139940   187.607294

                             ****ORCA TERMINATED NORMALLY****
TOTAL RUN TIME: 0 days 0 hours 0 minutes 20 seconds 640 msec
