                         Program Version 4.2.1 -  RELEASE  -
|  1> ! wB97X-D3 SP def2-SVP
|  2> %pal
|  3> nprocs 24
|  4> end
|  5>
|  6> * xyz 0 1
|  7> S 	 -125.311 	 19.7705 	 -22.9734
|  8> C 	 -124.158 	 20.2498 	 -21.7236
|  9> C 	 -123.268 	 21.2211 	 -22.1955
| 10> C 	 -123.421 	 21.4041 	 -23.5984
| 11> C 	 -124.371 	 20.6072 	 -24.2101
| 12> H 	 -122.83 	 22.1547 	 -24.2073
| 13> C 	 -122.248 	 22.072 	 -21.444
| 14> H 	 -122.563 	 22.1522 	 -20.3769
| 15> H 	 -122.301 	 23.1117 	 -21.7312
| 16> C 	 -120.823 	 21.5364 	 -21.4844
| 17> H 	 -120.657 	 20.5804 	 -20.9754
| 18> H 	 -120.547 	 21.4217 	 -22.5534
| 19> C 	 -119.738 	 22.4274 	 -20.9618
| 20> H 	 -120.064 	 23.4766 	 -20.9272
| 21> H 	 -119.513 	 22.1698 	 -19.886
| 22> H 	 -118.783 	 22.4385 	 -21.5345
| 23> S 	 -126.219 	 20.6747 	 -26.1322
| 24> C 	 -125.933 	 19.9339 	 -27.6491
| 25> C 	 -124.625 	 19.6496 	 -27.8198
| 26> C 	 -123.86 	 19.9021 	 -26.6586
| 27> C 	 -124.615 	 20.442 	 -25.6215
| 28> H 	 -124.349 	 19.1634 	 -28.7346
| 29> C 	 -122.485 	 19.4075 	 -26.6144
| 30> H 	 -121.943 	 19.9384 	 -25.8605
| 31> H 	 -122.099 	 19.9537 	 -27.5075
| 32> C 	 -122.246 	 17.9268 	 -26.7
| 33> H 	 -121.506 	 17.6397 	 -27.4415
| 34> H 	 -123.165 	 17.3961 	 -27.0556
| 35> C 	 -121.813 	 17.4545 	 -25.3485
| 36> H 	 -121.436 	 16.4819 	 -25.426
| 37> H 	 -122.661 	 17.2128 	 -24.7425
| 38> H 	 -121.165 	 18.1023 	 -24.713
| 39> H 	 -124.273 	 20.0473 	 -20.6043
| 40> H 	 -126.662 	 19.7642 	 -28.4019
| 41> *
| 42>
| 43>                          ****END OF INPUT****

CARTESIAN COORDINATES (ANGSTROEM)
---------------------------------
  S    -125.311000   19.770500  -22.973400
  C    -124.158000   20.249800  -21.723600
  C    -123.268000   21.221100  -22.195500
  C    -123.421000   21.404100  -23.598400
  C    -124.371000   20.607200  -24.210100
  H    -122.830000   22.154700  -24.207300
  C    -122.248000   22.072000  -21.444000
  H    -122.563000   22.152200  -20.376900
  H    -122.301000   23.111700  -21.731200
  C    -120.823000   21.536400  -21.484400
  H    -120.657000   20.580400  -20.975400
  H    -120.547000   21.421700  -22.553400
  C    -119.738000   22.427400  -20.961800
  H    -120.064000   23.476600  -20.927200
  H    -119.513000   22.169800  -19.886000
  H    -118.783000   22.438500  -21.534500
  S    -126.219000   20.674700  -26.132200
  C    -125.933000   19.933900  -27.649100
  C    -124.625000   19.649600  -27.819800
  C    -123.860000   19.902100  -26.658600
  C    -124.615000   20.442000  -25.621500
  H    -124.349000   19.163400  -28.734600
  C    -122.485000   19.407500  -26.614400
  H    -121.943000   19.938400  -25.860500
  H    -122.099000   19.953700  -27.507500
  C    -122.246000   17.926800  -26.700000
  H    -121.506000   17.639700  -27.441500
  H    -123.165000   17.396100  -27.055600
  C    -121.813000   17.454500  -25.348500
  H    -121.436000   16.481900  -25.426000
  H    -122.661000   17.212800  -24.742500
  H    -121.165000   18.102300  -24.713000
  H    -124.273000   20.047300  -20.604300
  H    -126.662000   19.764200  -28.401900

 Total Charge           Charge          ....    0
 Multiplicity           Mult            ....    1
 Number of Electrons    NEL             ....  134
 Basis Dimension        Dim             ....  322

ORBITAL ENERGIES
----------------

  NO   OCC          E(Eh)            E(eV)
   0   2.0000     -88.967700     -2420.9342
   1   2.0000     -88.959898     -2420.7219
   2   2.0000     -10.328125      -281.0426
   3   2.0000     -10.323191      -280.9083
   4   2.0000     -10.317785      -280.7612
   5   2.0000     -10.307276      -280.4752
   6   2.0000     -10.303826      -280.3814
   7   2.0000     -10.297675      -280.2140
   8   2.0000     -10.297163      -280.2000
   9   2.0000     -10.295842      -280.1641
  10   2.0000     -10.285712      -279.8885
  11   2.0000     -10.284193      -279.8471
  12   2.0000     -10.283499      -279.8282
  13   2.0000     -10.281483      -279.7734
  14   2.0000     -10.279374      -279.7160
  15   2.0000     -10.263488      -279.2837
  16   2.0000      -8.081712      -219.9146
  17   2.0000      -8.076631      -219.7763
  18   2.0000      -6.040375      -164.3670
  19   2.0000      -6.036365      -164.2578
  20   2.0000      -6.035014      -164.2211
  21   2.0000      -6.032288      -164.1469
  22   2.0000      -6.030731      -164.1045
  23   2.0000      -6.027544      -164.0178
  24   2.0000      -1.015344       -27.6289
  25   2.0000      -0.986005       -26.8306
  26   2.0000      -0.919699       -25.0263
  27   2.0000      -0.913308       -24.8524
  28   2.0000      -0.874293       -23.7907
  29   2.0000      -0.855882       -23.2897
  30   2.0000      -0.847476       -23.0610
  31   2.0000      -0.814929       -22.1753
  32   2.0000      -0.782083       -21.2816
  33   2.0000      -0.770853       -20.9760
  34   2.0000      -0.708752       -19.2861
  35   2.0000      -0.698398       -19.0044
  36   2.0000      -0.694067       -18.8865
  37   2.0000      -0.660584       -17.9754
  38   2.0000      -0.637093       -17.3362
  39   2.0000      -0.619416       -16.8552
  40   2.0000      -0.602464       -16.3939
  41   2.0000      -0.570756       -15.5311
  42   2.0000      -0.562229       -15.2990
  43   2.0000      -0.561200       -15.2710
  44   2.0000      -0.531112       -14.4523
  45   2.0000      -0.525441       -14.2980
  46   2.0000      -0.525096       -14.2886
  47   2.0000      -0.511651       -13.9227
  48   2.0000      -0.502342       -13.6694
  49   2.0000      -0.496036       -13.4978
  50   2.0000      -0.492285       -13.3958
  51   2.0000      -0.479996       -13.0614
  52   2.0000      -0.472881       -12.8678
  53   2.0000      -0.460595       -12.5334
  54   2.0000      -0.456617       -12.4252
  55   2.0000      -0.449117       -12.2211
  56   2.0000      -0.444911       -12.1066
  57   2.0000      -0.433776       -11.8036
  58   2.0000      -0.432086       -11.7577
  59   2.0000      -0.426018       -11.5925
  60   2.0000      -0.422811       -11.5053
  61   2.0000      -0.407267       -11.0823
  62   2.0000      -0.401019       -10.9123
  63   2.0000      -0.342981        -9.3330
  64   2.0000      -0.331689        -9.0257
  65   2.0000      -0.328083        -8.9276
  66   2.0000      -0.292610        -7.9623
  67   0.0000       0.033151         0.9021
  68   0.0000       0.067588         1.8392
  69   0.0000       0.111402         3.0314
  70   0.0000       0.120710         3.2847
  71   0.0000       0.133755         3.6397

MULLIKEN ATOMIC CHARGES
-----------------------
   0 S :    0.120274
   1 C :   -0.147056
   2 C :   -0.081212
   3 C :    0.013565
   4 C :   -0.149579
   5 H :    0.034130
   6 C :    0.065910
   7 H :    0.018371
   8 H :    0.026419
   9 C :   -0.068044
  10 H :    0.037770
  11 H :    0.025747
  12 C :   -0.076820
  13 H :    0.021242
  14 H :    0.035719
  15 H :    0.046014
  16 S :    0.103860
  17 C :   -0.077304
  18 C :   -0.042744
  19 C :   -0.046904
  20 C :   -0.169843
  21 H :    0.012157
  22 C :    0.094791
  23 H :   -0.002647
  24 H :    0.023771
  25 C :   -0.039205
  26 H :    0.024416
  27 H :    0.038263
  28 C :   -0.024688
  29 H :    0.004147
  30 H :    0.019962
  31 H :    0.045031
  32 H :    0.073791
  33 H :    0.040694
Sum of atomic charges:   -0.0000000

LOEWDIN ATOMIC CHARGES
----------------------
   0 S :    0.397345
   1 C :   -0.204854
   2 C :   -0.066343
   3 C :   -0.068149
   4 C :   -0.195308
   5 H :    0.040050
   6 C :   -0.033322
   7 H :    0.031007
   8 H :    0.031485
   9 C :   -0.050797
  10 H :    0.029775
  11 H :    0.026772
  12 C :   -0.076396
  13 H :    0.022271
  14 H :    0.028458
  15 H :    0.031772
  16 S :    0.435149
  17 C :   -0.184354
  18 C :   -0.073795
  19 C :   -0.052140
  20 C :   -0.225016
  21 H :    0.031388
  22 C :   -0.038910
  23 H :    0.024336
  24 H :    0.042623
  25 C :   -0.040033
  26 H :    0.023500
  27 H :    0.033960
  28 C :   -0.066101
  29 H :    0.017393
  30 H :    0.028288
  31 H :    0.032167
  32 H :    0.044282
  33 H :    0.023497

  Mayer bond orders larger than 0.100000
B(  0-S ,  1-C ) :   1.1382 B(  0-S ,  4-C ) :   1.1345 B(  1-C ,  2-C ) :   1.6125
B(  1-C ,  4-C ) :   0.1038 B(  1-C , 32-H ) :   0.9552 B(  2-C ,  3-C ) :   1.2450
B(  2-C ,  6-C ) :   1.0251 B(  3-C ,  4-C ) :   1.5825 B(  3-C ,  5-H ) :   0.9837
B(  4-C , 20-C ) :   1.0409 B(  6-C ,  7-H ) :   0.9362 B(  6-C ,  8-H ) :   0.9399
B(  6-C ,  9-C ) :   1.0693 B(  9-C , 10-H ) :   0.9581 B(  9-C , 11-H ) :   0.9598
B(  9-C , 12-C ) :   1.0718 B( 12-C , 13-H ) :   0.9728 B( 12-C , 14-H ) :   0.9769
B( 12-C , 15-H ) :   0.9775 B( 16-S , 17-C ) :   1.1673 B( 16-S , 20-C ) :   1.1490
B( 17-C , 18-C ) :   1.6073 B( 17-C , 33-H ) :   0.9690 B( 18-C , 19-C ) :   1.2386
B( 18-C , 21-H ) :   0.9979 B( 19-C , 20-C ) :   1.5708 B( 19-C , 22-C ) :   1.0613
B( 22-C , 23-H ) :   0.9270 B( 22-C , 24-H ) :   0.9157 B( 22-C , 25-C ) :   1.0397
B( 25-C , 26-H ) :   0.9545 B( 25-C , 27-H ) :   0.9562 B( 25-C , 28-C ) :   1.0857
B( 28-C , 29-H ) :   0.9635 B( 28-C , 30-H ) :   0.9672 B( 28-C , 31-H ) :   0.9797

Dispersion correction           -0.014400362
FINAL SINGLE POINT ENERGY     -1339.863142088933

DIPOLE MOMENT
-------------
                                X             Y             Z
Electronic contribution:    -28.06010       1.56755      -6.78953
Nuclear contribution   :     28.58748      -1.60001       6.68998
                        -----------------------------------------
Total Dipole Moment    :      0.52738      -0.03246      -0.09955
                        -----------------------------------------
Magnitude (a.u.)       :      0.53768
Magnitude (Debye)      :      1.36667

Rotational constants in cm-1:     0.019855     0.008525     0.007072
Rotational constants in MHz :   595.245306   255.574909   212.020197

                             ****ORCA TERMINATED NORMALLY****
TOTAL RUN TIME: 0 days 0 hours 0 minutes 22 seconds 147 msec
