                         Program Version 4.2.1 -  RELEASE  -
|  1> ! wB97X-D3 SP def2-SVP
|  2> %pal
|  3> nprocs 24
|  4> end
|  5>
|  6> * xyz 0 1
|  7> S 	 41.7996 	 -16.786 	 -120.659
|  8> C 	 42.4277 	 -15.9126 	 -119.26
|  9> C 	 43.8093 	 -15.7803 	 -119.345
| 10> C 	 44.3692 	 -16.3326 	 -120.526
| 11> C 	 43.4161 	 -16.8456 	 -121.364
| 12> H 	 45.3843 	 -16.3972 	 -120.802
| 13> C 	 44.6364 	 -15.1069 	 -118.349
| 14> H 	 45.6694 	 -15.257 	 -118.667
| 15> H 	 44.5737 	 -15.6047 	 -117.354
| 16> C 	 44.2068 	 -13.707 	 -118.125
| 17> H 	 43.1561 	 -13.5667 	 -117.801
| 18> H 	 44.8002 	 -13.2915 	 -117.23
| 19> C 	 44.5776 	 -12.746 	 -119.299
| 20> H 	 43.8191 	 -13.0106 	 -120.095
| 21> H 	 44.4644 	 -11.6942 	 -119.089
| 22> H 	 45.6339 	 -12.8295 	 -119.607
| 23> S 	 42.7626 	 -18.9445 	 -122.946
| 24> C 	 43.4708 	 -19.0291 	 -124.565
| 25> C 	 44.0224 	 -17.8417 	 -124.985
| 26> C 	 44.225 	 -16.9391 	 -123.907
| 27> C 	 43.5977 	 -17.3948 	 -122.725
| 28> H 	 44.3556 	 -17.6558 	 -125.994
| 29> C 	 45.0044 	 -15.6287 	 -123.999
| 30> H 	 45.4064 	 -15.5708 	 -124.969
| 31> H 	 45.9756 	 -15.6867 	 -123.428
| 32> C 	 44.2478 	 -14.344 	 -123.65
| 33> H 	 43.949 	 -14.2681 	 -122.624
| 34> H 	 43.2984 	 -14.2732 	 -124.125
| 35> C 	 44.9374 	 -13.1756 	 -124.378
| 36> H 	 44.3658 	 -12.2171 	 -124.21
| 37> H 	 45.1041 	 -13.2869 	 -125.474
| 38> H 	 45.9719 	 -12.9812 	 -124.089
| 39> H 	 41.8582 	 -15.6522 	 -118.411
| 40> H 	 43.3197 	 -19.827 	 -125.206
| 41> *
| 42>
| 43>                          ****END OF INPUT****

CARTESIAN COORDINATES (ANGSTROEM)
---------------------------------
  S     41.799600  -16.786000  -120.659000
  C     42.427700  -15.912600  -119.260000
  C     43.809300  -15.780300  -119.345000
  C     44.369200  -16.332600  -120.526000
  C     43.416100  -16.845600  -121.364000
  H     45.384300  -16.397200  -120.802000
  C     44.636400  -15.106900  -118.349000
  H     45.669400  -15.257000  -118.667000
  H     44.573700  -15.604700  -117.354000
  C     44.206800  -13.707000  -118.125000
  H     43.156100  -13.566700  -117.801000
  H     44.800200  -13.291500  -117.230000
  C     44.577600  -12.746000  -119.299000
  H     43.819100  -13.010600  -120.095000
  H     44.464400  -11.694200  -119.089000
  H     45.633900  -12.829500  -119.607000
  S     42.762600  -18.944500  -122.946000
  C     43.470800  -19.029100  -124.565000
  C     44.022400  -17.841700  -124.985000
  C     44.225000  -16.939100  -123.907000
  C     43.597700  -17.394800  -122.725000
  H     44.355600  -17.655800  -125.994000
  C     45.004400  -15.628700  -123.999000
  H     45.406400  -15.570800  -124.969000
  H     45.975600  -15.686700  -123.428000
  C     44.247800  -14.344000  -123.650000
  H     43.949000  -14.268100  -122.624000
  H     43.298400  -14.273200  -124.125000
  C     44.937400  -13.175600  -124.378000
  H     44.365800  -12.217100  -124.210000
  H     45.104100  -13.286900  -125.474000
  H     45.971900  -12.981200  -124.089000
  H     41.858200  -15.652200  -118.411000
  H     43.319700  -19.827000  -125.206000

 Total Charge           Charge          ....    0
 Multiplicity           Mult            ....    1
 Number of Electrons    NEL             ....  134
 Basis Dimension        Dim             ....  322

ORBITAL ENERGIES
----------------

  NO   OCC          E(Eh)            E(eV)
   0   2.0000     -88.966526     -2420.9023
   1   2.0000     -88.966321     -2420.8967
   2   2.0000     -10.329481      -281.0795
   3   2.0000     -10.328840      -281.0620
   4   2.0000     -10.313604      -280.6474
   5   2.0000     -10.310014      -280.5498
   6   2.0000     -10.307631      -280.4849
   7   2.0000     -10.295715      -280.1606
   8   2.0000     -10.295519      -280.1553
   9   2.0000     -10.292717      -280.0791
  10   2.0000     -10.292655      -280.0774
  11   2.0000     -10.287623      -279.9405
  12   2.0000     -10.286731      -279.9162
  13   2.0000     -10.282885      -279.8115
  14   2.0000     -10.279965      -279.7321
  15   2.0000     -10.279927      -279.7310
  16   2.0000      -8.080728      -219.8878
  17   2.0000      -8.080564      -219.8833
  18   2.0000      -6.039256      -164.3365
  19   2.0000      -6.039005      -164.3297
  20   2.0000      -6.035347      -164.2302
  21   2.0000      -6.035304      -164.2290
  22   2.0000      -6.031465      -164.1245
  23   2.0000      -6.031259      -164.1189
  24   2.0000      -1.003732       -27.3129
  25   2.0000      -0.981950       -26.7202
  26   2.0000      -0.919738       -25.0273
  27   2.0000      -0.907847       -24.7038
  28   2.0000      -0.864274       -23.5181
  29   2.0000      -0.851095       -23.1595
  30   2.0000      -0.844674       -22.9848
  31   2.0000      -0.814147       -22.1541
  32   2.0000      -0.780429       -21.2365
  33   2.0000      -0.767792       -20.8927
  34   2.0000      -0.713592       -19.4178
  35   2.0000      -0.705046       -19.1853
  36   2.0000      -0.691324       -18.8119
  37   2.0000      -0.666202       -18.1283
  38   2.0000      -0.644732       -17.5440
  39   2.0000      -0.612731       -16.6733
  40   2.0000      -0.599234       -16.3060
  41   2.0000      -0.573919       -15.6171
  42   2.0000      -0.557638       -15.1741
  43   2.0000      -0.553633       -15.0651
  44   2.0000      -0.533150       -14.5077
  45   2.0000      -0.526963       -14.3394
  46   2.0000      -0.519708       -14.1420
  47   2.0000      -0.511215       -13.9109
  48   2.0000      -0.497280       -13.5317
  49   2.0000      -0.495682       -13.4882
  50   2.0000      -0.493584       -13.4311
  51   2.0000      -0.479199       -13.0397
  52   2.0000      -0.470117       -12.7925
  53   2.0000      -0.463547       -12.6138
  54   2.0000      -0.460605       -12.5337
  55   2.0000      -0.450003       -12.2452
  56   2.0000      -0.448178       -12.1955
  57   2.0000      -0.443019       -12.0552
  58   2.0000      -0.436689       -11.8829
  59   2.0000      -0.423707       -11.5296
  60   2.0000      -0.420553       -11.4438
  61   2.0000      -0.403835       -10.9889
  62   2.0000      -0.400693       -10.9034
  63   2.0000      -0.346341        -9.4244
  64   2.0000      -0.333533        -9.0759
  65   2.0000      -0.328015        -8.9257
  66   2.0000      -0.286055        -7.7839
  67   0.0000       0.026692         0.7263
  68   0.0000       0.061543         1.6747
  69   0.0000       0.101961         2.7745
  70   0.0000       0.124893         3.3985
  71   0.0000       0.128929         3.5083

MULLIKEN ATOMIC CHARGES
-----------------------
   0 S :    0.107183
   1 C :   -0.117733
   2 C :   -0.087678
   3 C :    0.036784
   4 C :   -0.137975
   5 H :   -0.003803
   6 C :    0.103198
   7 H :    0.015744
   8 H :    0.040247
   9 C :   -0.114946
  10 H :    0.038692
  11 H :    0.027280
  12 C :   -0.075581
  13 H :    0.058286
  14 H :    0.031106
  15 H :    0.034965
  16 S :    0.096395
  17 C :   -0.054701
  18 C :   -0.025863
  19 C :   -0.033826
  20 C :   -0.167111
  21 H :    0.017728
  22 C :    0.081451
  23 H :   -0.018226
  24 H :    0.041129
  25 C :   -0.020500
  26 H :    0.043263
  27 H :    0.021475
  28 C :   -0.093595
  29 H :    0.042766
  30 H :    0.034467
  31 H :    0.017650
  32 H :    0.032641
  33 H :    0.029087
Sum of atomic charges:    0.0000000

LOEWDIN ATOMIC CHARGES
----------------------
   0 S :    0.392393
   1 C :   -0.193646
   2 C :   -0.059364
   3 C :   -0.064492
   4 C :   -0.183466
   5 H :    0.027707
   6 C :   -0.040938
   7 H :    0.031246
   8 H :    0.041225
   9 C :   -0.045768
  10 H :    0.026938
  11 H :    0.025766
  12 C :   -0.073331
  13 H :    0.033190
  14 H :    0.022048
  15 H :    0.026722
  16 S :    0.389752
  17 C :   -0.163005
  18 C :   -0.064176
  19 C :   -0.051056
  20 C :   -0.188646
  21 H :    0.032495
  22 C :   -0.031776
  23 H :    0.020467
  24 H :    0.040053
  25 C :   -0.039148
  26 H :    0.026807
  27 H :    0.027808
  28 C :   -0.073105
  29 H :    0.031437
  30 H :    0.028631
  31 H :    0.016771
  32 H :    0.018764
  33 H :    0.011697

  Mayer bond orders larger than 0.100000
B(  0-S ,  1-C ) :   1.1240 B(  0-S ,  4-C ) :   1.1550 B(  1-C ,  2-C ) :   1.5935
B(  1-C , 32-H ) :   0.9769 B(  2-C ,  3-C ) :   1.2254 B(  2-C ,  6-C ) :   1.0306
B(  3-C ,  4-C ) :   1.5802 B(  3-C ,  5-H ) :   1.0091 B(  4-C , 20-C ) :   1.0240
B(  6-C ,  7-H ) :   0.9407 B(  6-C ,  8-H ) :   0.9233 B(  6-C ,  9-C ) :   1.0790
B(  9-C , 10-H ) :   0.9556 B(  9-C , 11-H ) :   0.9540 B(  9-C , 12-C ) :   1.0654
B( 12-C , 13-H ) :   0.9731 B( 12-C , 14-H ) :   0.9755 B( 12-C , 15-H ) :   0.9750
B( 16-S , 17-C ) :   1.1496 B( 16-S , 20-C ) :   1.1401 B( 17-C , 18-C ) :   1.6108
B( 17-C , 20-C ) :   0.1082 B( 17-C , 33-H ) :   0.9748 B( 18-C , 19-C ) :   1.2495
B( 18-C , 21-H ) :   0.9859 B( 19-C , 20-C ) :   1.5820 B( 19-C , 22-C ) :   1.0390
B( 22-C , 23-H ) :   0.9260 B( 22-C , 24-H ) :   0.9286 B( 22-C , 25-C ) :   1.0566
B( 25-C , 26-H ) :   0.9540 B( 25-C , 27-H ) :   0.9523 B( 25-C , 28-C ) :   1.0654
B( 28-C , 29-H ) :   0.9761 B( 28-C , 30-H ) :   0.9744 B( 28-C , 31-H ) :   0.9748

Dispersion correction           -0.015333447
FINAL SINGLE POINT ENERGY     -1339.866953349047

DIPOLE MOMENT
-------------
                                X             Y             Z
Electronic contribution:    -14.22530     -26.83838      -2.29754
Nuclear contribution   :     14.66684      27.24930       2.23446
                        -----------------------------------------
Total Dipole Moment    :      0.44155       0.41092      -0.06308
                        -----------------------------------------
Magnitude (a.u.)       :      0.60646
Magnitude (Debye)      :      1.54150

Rotational constants in cm-1:     0.018903     0.010035     0.007235
Rotational constants in MHz :   566.699548   300.849623   216.910281

                             ****ORCA TERMINATED NORMALLY****
TOTAL RUN TIME: 0 days 0 hours 0 minutes 22 seconds 805 msec
