                         Program Version 4.2.1 -  RELEASE  -
|  1> ! wB97X-D3 SP def2-SVP
|  2> %pal
|  3> nprocs 24
|  4> end
|  5>
|  6> * xyz 0 1
|  7> S 	 -120.515 	 65.0286 	 -35.987
|  8> C 	 -120.136 	 66.7377 	 -36.3026
|  9> C 	 -121.351 	 67.3714 	 -36.4135
| 10> C 	 -122.523 	 66.5466 	 -36.3789
| 11> C 	 -122.191 	 65.2107 	 -36.2911
| 12> H 	 -123.536 	 66.9387 	 -36.3718
| 13> C 	 -121.49 	 68.9059 	 -36.6437
| 14> H 	 -122.324 	 69.0302 	 -37.2577
| 15> H 	 -120.696 	 69.336 	 -37.2646
| 16> C 	 -121.598 	 69.7278 	 -35.2755
| 17> H 	 -121.609 	 70.7727 	 -35.538
| 18> H 	 -122.559 	 69.5013 	 -34.7854
| 19> C 	 -120.47 	 69.525 	 -34.212
| 20> H 	 -119.479 	 69.4873 	 -34.7031
| 21> H 	 -120.59 	 70.2243 	 -33.2942
| 22> H 	 -120.591 	 68.5023 	 -33.776
| 23> S 	 -122.54 	 62.5129 	 -37.0135
| 24> C 	 -124.002 	 61.6841 	 -36.521
| 25> C 	 -124.872 	 62.48 	 -35.873
| 26> C 	 -124.4 	 63.8343 	 -35.7757
| 27> C 	 -123.105 	 64.0571 	 -36.3117
| 28> H 	 -125.768 	 61.9546 	 -35.465
| 29> C 	 -125.245 	 64.8085 	 -34.885
| 30> H 	 -124.48 	 65.4656 	 -34.4181
| 31> H 	 -125.666 	 64.2796 	 -34.0282
| 32> C 	 -126.326 	 65.6319 	 -35.5403
| 33> H 	 -127.064 	 65.0702 	 -36.0383
| 34> H 	 -125.818 	 66.1591 	 -36.4009
| 35> C 	 -126.972 	 66.7352 	 -34.6248
| 36> H 	 -127.683 	 67.3593 	 -35.1266
| 37> H 	 -126.175 	 67.4182 	 -34.2811
| 38> H 	 -127.409 	 66.3965 	 -33.704
| 39> H 	 -119.152 	 67.1449 	 -36.3264
| 40> H 	 -124.279 	 60.5942 	 -36.4334
| 41> *
| 42>
| 43>                          ****END OF INPUT****

CARTESIAN COORDINATES (ANGSTROEM)
---------------------------------
  S    -120.515000   65.028600  -35.987000
  C    -120.136000   66.737700  -36.302600
  C    -121.351000   67.371400  -36.413500
  C    -122.523000   66.546600  -36.378900
  C    -122.191000   65.210700  -36.291100
  H    -123.536000   66.938700  -36.371800
  C    -121.490000   68.905900  -36.643700
  H    -122.324000   69.030200  -37.257700
  H    -120.696000   69.336000  -37.264600
  C    -121.598000   69.727800  -35.275500
  H    -121.609000   70.772700  -35.538000
  H    -122.559000   69.501300  -34.785400
  C    -120.470000   69.525000  -34.212000
  H    -119.479000   69.487300  -34.703100
  H    -120.590000   70.224300  -33.294200
  H    -120.591000   68.502300  -33.776000
  S    -122.540000   62.512900  -37.013500
  C    -124.002000   61.684100  -36.521000
  C    -124.872000   62.480000  -35.873000
  C    -124.400000   63.834300  -35.775700
  C    -123.105000   64.057100  -36.311700
  H    -125.768000   61.954600  -35.465000
  C    -125.245000   64.808500  -34.885000
  H    -124.480000   65.465600  -34.418100
  H    -125.666000   64.279600  -34.028200
  C    -126.326000   65.631900  -35.540300
  H    -127.064000   65.070200  -36.038300
  H    -125.818000   66.159100  -36.400900
  C    -126.972000   66.735200  -34.624800
  H    -127.683000   67.359300  -35.126600
  H    -126.175000   67.418200  -34.281100
  H    -127.409000   66.396500  -33.704000
  H    -119.152000   67.144900  -36.326400
  H    -124.279000   60.594200  -36.433400

 Total Charge           Charge          ....    0
 Multiplicity           Mult            ....    1
 Number of Electrons    NEL             ....  134
 Basis Dimension        Dim             ....  322

ORBITAL ENERGIES
----------------

  NO   OCC          E(Eh)            E(eV)
   0   2.0000     -88.969363     -2420.9795
   1   2.0000     -88.965386     -2420.8712
   2   2.0000     -10.339623      -281.3555
   3   2.0000     -10.335126      -281.2331
   4   2.0000     -10.317449      -280.7520
   5   2.0000     -10.316652      -280.7304
   6   2.0000     -10.314907      -280.6829
   7   2.0000     -10.304879      -280.4100
   8   2.0000     -10.296812      -280.1905
   9   2.0000     -10.295510      -280.1551
  10   2.0000     -10.294114      -280.1171
  11   2.0000     -10.294099      -280.1167
  12   2.0000     -10.292564      -280.0749
  13   2.0000     -10.289953      -280.0039
  14   2.0000     -10.289574      -279.9935
  15   2.0000     -10.280799      -279.7548
  16   2.0000      -8.083229      -219.9558
  17   2.0000      -8.080522      -219.8822
  18   2.0000      -6.042002      -164.4112
  19   2.0000      -6.039140      -164.3333
  20   2.0000      -6.037788      -164.2966
  21   2.0000      -6.034900      -164.2180
  22   2.0000      -6.033799      -164.1880
  23   2.0000      -6.031177      -164.1167
  24   2.0000      -1.008138       -27.4328
  25   2.0000      -0.985009       -26.8035
  26   2.0000      -0.904545       -24.6139
  27   2.0000      -0.901074       -24.5195
  28   2.0000      -0.868315       -23.6280
  29   2.0000      -0.847400       -23.0589
  30   2.0000      -0.840364       -22.8675
  31   2.0000      -0.818344       -22.2683
  32   2.0000      -0.782542       -21.2941
  33   2.0000      -0.774656       -21.0795
  34   2.0000      -0.712881       -19.3985
  35   2.0000      -0.696787       -18.9605
  36   2.0000      -0.693782       -18.8788
  37   2.0000      -0.654839       -17.8191
  38   2.0000      -0.639626       -17.4051
  39   2.0000      -0.624260       -16.9870
  40   2.0000      -0.588500       -16.0139
  41   2.0000      -0.571158       -15.5420
  42   2.0000      -0.558713       -15.2033
  43   2.0000      -0.546185       -14.8625
  44   2.0000      -0.537196       -14.6179
  45   2.0000      -0.523676       -14.2500
  46   2.0000      -0.520139       -14.1537
  47   2.0000      -0.511722       -13.9247
  48   2.0000      -0.504491       -13.7279
  49   2.0000      -0.498074       -13.5533
  50   2.0000      -0.492422       -13.3995
  51   2.0000      -0.476792       -12.9742
  52   2.0000      -0.472534       -12.8583
  53   2.0000      -0.461965       -12.5707
  54   2.0000      -0.459665       -12.5081
  55   2.0000      -0.448762       -12.2114
  56   2.0000      -0.444483       -12.0950
  57   2.0000      -0.444085       -12.0842
  58   2.0000      -0.433966       -11.8088
  59   2.0000      -0.422104       -11.4860
  60   2.0000      -0.415998       -11.3199
  61   2.0000      -0.411700       -11.2029
  62   2.0000      -0.404826       -11.0159
  63   2.0000      -0.356442        -9.6993
  64   2.0000      -0.334296        -9.0966
  65   2.0000      -0.330120        -8.9830
  66   2.0000      -0.293534        -7.9875
  67   0.0000       0.019308         0.5254
  68   0.0000       0.079817         2.1719
  69   0.0000       0.110496         3.0067
  70   0.0000       0.120323         3.2742
  71   0.0000       0.125914         3.4263

MULLIKEN ATOMIC CHARGES
-----------------------
   0 S :    0.098298
   1 C :   -0.120595
   2 C :   -0.092347
   3 C :    0.022634
   4 C :   -0.112568
   5 H :    0.008034
   6 C :    0.074956
   7 H :    0.009886
   8 H :    0.026310
   9 C :   -0.074355
  10 H :    0.032164
  11 H :    0.029080
  12 C :   -0.098557
  13 H :    0.035255
  14 H :    0.057973
  15 H :    0.044236
  16 S :    0.105858
  17 C :   -0.090376
  18 C :   -0.066118
  19 C :   -0.028003
  20 C :   -0.138710
  21 H :    0.039413
  22 C :    0.033225
  23 H :    0.024152
  24 H :    0.024585
  25 C :   -0.048601
  26 H :    0.017519
  27 H :    0.024653
  28 C :   -0.039915
  29 H :    0.034141
  30 H :    0.022588
  31 H :    0.027526
  32 H :    0.046695
  33 H :    0.070966
Sum of atomic charges:   -0.0000000

LOEWDIN ATOMIC CHARGES
----------------------
   0 S :    0.408898
   1 C :   -0.185948
   2 C :   -0.058333
   3 C :   -0.069843
   4 C :   -0.195987
   5 H :    0.032349
   6 C :   -0.026114
   7 H :    0.020993
   8 H :    0.030385
   9 C :   -0.039403
  10 H :    0.019691
  11 H :    0.022957
  12 C :   -0.082099
  13 H :    0.023759
  14 H :    0.040387
  15 H :    0.028695
  16 S :    0.392213
  17 C :   -0.198271
  18 C :   -0.084392
  19 C :   -0.048722
  20 C :   -0.187827
  21 H :    0.044221
  22 C :   -0.035520
  23 H :    0.031157
  24 H :    0.028184
  25 C :   -0.040464
  26 H :    0.016116
  27 H :    0.027233
  28 C :   -0.063916
  29 H :    0.024663
  30 H :    0.027132
  31 H :    0.021042
  32 H :    0.027283
  33 H :    0.049482

  Mayer bond orders larger than 0.100000
B(  0-S ,  1-C ) :   1.1152 B(  0-S ,  4-C ) :   1.1759 B(  1-C ,  2-C ) :   1.5917
B(  1-C , 32-H ) :   0.9854 B(  2-C ,  3-C ) :   1.2529 B(  2-C ,  6-C ) :   1.0147
B(  3-C ,  4-C ) :   1.5313 B(  3-C ,  5-H ) :   0.9987 B(  4-C , 20-C ) :   1.0582
B(  6-C ,  7-H ) :   0.9441 B(  6-C ,  8-H ) :   0.9507 B(  6-C ,  9-C ) :   1.0586
B(  9-C , 10-H ) :   0.9614 B(  9-C , 11-H ) :   0.9598 B(  9-C , 12-C ) :   1.0700
B( 12-C , 13-H ) :   0.9755 B( 12-C , 14-H ) :   0.9727 B( 12-C , 15-H ) :   0.9721
B( 16-S , 17-C ) :   1.1381 B( 16-S , 20-C ) :   1.1235 B( 17-C , 18-C ) :   1.6692
B( 17-C , 33-H ) :   0.9489 B( 18-C , 19-C ) :   1.2270 B( 18-C , 21-H ) :   0.9820
B( 19-C , 20-C ) :   1.5910 B( 19-C , 22-C ) :   1.0269 B( 22-C , 23-H ) :   0.9377
B( 22-C , 24-H ) :   0.9447 B( 22-C , 25-C ) :   1.0604 B( 25-C , 26-H ) :   0.9543
B( 25-C , 27-H ) :   0.9514 B( 25-C , 28-C ) :   1.0728 B( 28-C , 29-H ) :   0.9767
B( 28-C , 30-H ) :   0.9741 B( 28-C , 31-H ) :   0.9775

Dispersion correction           -0.014445565
FINAL SINGLE POINT ENERGY     -1339.867724120968

DIPOLE MOMENT
-------------
                                X             Y             Z
Electronic contribution:     13.26398     -25.29410     -10.62141
Nuclear contribution   :    -13.73499      25.68578      10.93284
                        -----------------------------------------
Total Dipole Moment    :     -0.47101       0.39168       0.31144
                        -----------------------------------------
Magnitude (a.u.)       :      0.68721
Magnitude (Debye)      :      1.74675

Rotational constants in cm-1:     0.017600     0.009266     0.006478
Rotational constants in MHz :   527.635767   277.799072   194.201221

                             ****ORCA TERMINATED NORMALLY****
TOTAL RUN TIME: 0 days 0 hours 0 minutes 21 seconds 474 msec
