                         Program Version 4.2.1 -  RELEASE  -
|  1> ! wB97X-D3 SP def2-SVP
|  2> %pal
|  3> nprocs 24
|  4> end
|  5>
|  6> * xyz 0 1
|  7> S 	 12.3004 	 -15.411 	 -118.043
|  8> C 	 11.0678 	 -14.3097 	 -117.633
|  9> C 	 9.98634 	 -14.9422 	 -117.046
| 10> C 	 10.0298 	 -16.3817 	 -117.193
| 11> C 	 11.2476 	 -16.7928 	 -117.727
| 12> H 	 9.22039 	 -17.0373 	 -117.136
| 13> C 	 8.68303 	 -14.2723 	 -116.743
| 14> H 	 8.88226 	 -13.2331 	 -116.669
| 15> H 	 8.42356 	 -14.4878 	 -115.719
| 16> C 	 7.52839 	 -14.3562 	 -117.823
| 17> H 	 8.05207 	 -13.7798 	 -118.549
| 18> H 	 7.35411 	 -15.3457 	 -118.22
| 19> C 	 6.26025 	 -13.613 	 -117.489
| 20> H 	 6.49435 	 -12.78 	 -116.848
| 21> H 	 5.88302 	 -13.3613 	 -118.453
| 22> H 	 5.623 	 -14.2827 	 -116.925
| 23> S 	 10.5099 	 -19.2491 	 -118.786
| 24> C 	 11.5324 	 -20.5851 	 -118.6
| 25> C 	 12.6694 	 -20.2361 	 -117.948
| 26> C 	 12.6675 	 -18.8968 	 -117.496
| 27> C 	 11.5465 	 -18.1941 	 -117.917
| 28> H 	 13.3605 	 -21.0137 	 -117.671
| 29> C 	 13.7219 	 -18.3084 	 -116.558
| 30> H 	 14.2703 	 -17.5189 	 -117.021
| 31> H 	 14.5066 	 -19.0249 	 -116.519
| 32> C 	 13.2683 	 -18.0042 	 -115.12
| 33> H 	 12.432 	 -17.2688 	 -114.982
| 34> H 	 14.2029 	 -17.6465 	 -114.593
| 35> C 	 12.7002 	 -19.286 	 -114.487
| 36> H 	 13.3764 	 -20.0726 	 -114.499
| 37> H 	 11.7568 	 -19.6081 	 -114.938
| 38> H 	 12.4707 	 -19.1789 	 -113.444
| 39> H 	 11.2014 	 -13.2106 	 -117.736
| 40> H 	 11.3852 	 -21.6065 	 -118.775
| 41> *
| 42>
| 43>                          ****END OF INPUT****

CARTESIAN COORDINATES (ANGSTROEM)
---------------------------------
  S     12.300400  -15.411000  -118.043000
  C     11.067800  -14.309700  -117.633000
  C      9.986340  -14.942200  -117.046000
  C     10.029800  -16.381700  -117.193000
  C     11.247600  -16.792800  -117.727000
  H      9.220390  -17.037300  -117.136000
  C      8.683030  -14.272300  -116.743000
  H      8.882260  -13.233100  -116.669000
  H      8.423560  -14.487800  -115.719000
  C      7.528390  -14.356200  -117.823000
  H      8.052070  -13.779800  -118.549000
  H      7.354110  -15.345700  -118.220000
  C      6.260250  -13.613000  -117.489000
  H      6.494350  -12.780000  -116.848000
  H      5.883020  -13.361300  -118.453000
  H      5.623000  -14.282700  -116.925000
  S     10.509900  -19.249100  -118.786000
  C     11.532400  -20.585100  -118.600000
  C     12.669400  -20.236100  -117.948000
  C     12.667500  -18.896800  -117.496000
  C     11.546500  -18.194100  -117.917000
  H     13.360500  -21.013700  -117.671000
  C     13.721900  -18.308400  -116.558000
  H     14.270300  -17.518900  -117.021000
  H     14.506600  -19.024900  -116.519000
  C     13.268300  -18.004200  -115.120000
  H     12.432000  -17.268800  -114.982000
  H     14.202900  -17.646500  -114.593000
  C     12.700200  -19.286000  -114.487000
  H     13.376400  -20.072600  -114.499000
  H     11.756800  -19.608100  -114.938000
  H     12.470700  -19.178900  -113.444000
  H     11.201400  -13.210600  -117.736000
  H     11.385200  -21.606500  -118.775000

 Total Charge           Charge          ....    0
 Multiplicity           Mult            ....    1
 Number of Electrons    NEL             ....  134
 Basis Dimension        Dim             ....  322

ORBITAL ENERGIES
----------------

  NO   OCC          E(Eh)            E(eV)
   0   2.0000     -88.968817     -2420.9646
   1   2.0000     -88.965514     -2420.8747
   2   2.0000     -10.328751      -281.0596
   3   2.0000     -10.318368      -280.7771
   4   2.0000     -10.316614      -280.7294
   5   2.0000     -10.303313      -280.3674
   6   2.0000     -10.299355      -280.2597
   7   2.0000     -10.294665      -280.1321
   8   2.0000     -10.291192      -280.0376
   9   2.0000     -10.289399      -279.9888
  10   2.0000     -10.284096      -279.8445
  11   2.0000     -10.284007      -279.8421
  12   2.0000     -10.282333      -279.7965
  13   2.0000     -10.282156      -279.7917
  14   2.0000     -10.273966      -279.5688
  15   2.0000     -10.262065      -279.2450
  16   2.0000      -8.083773      -219.9706
  17   2.0000      -8.081502      -219.9089
  18   2.0000      -6.042315      -164.4197
  19   2.0000      -6.039944      -164.3552
  20   2.0000      -6.038198      -164.3077
  21   2.0000      -6.035652      -164.2384
  22   2.0000      -6.034530      -164.2079
  23   2.0000      -6.032460      -164.1516
  24   2.0000      -1.014070       -27.5942
  25   2.0000      -0.991673       -26.9848
  26   2.0000      -0.912399       -24.8276
  27   2.0000      -0.905551       -24.6413
  28   2.0000      -0.876759       -23.8578
  29   2.0000      -0.856616       -23.3097
  30   2.0000      -0.844281       -22.9741
  31   2.0000      -0.818251       -22.2657
  32   2.0000      -0.783984       -21.3333
  33   2.0000      -0.771224       -20.9861
  34   2.0000      -0.709887       -19.3170
  35   2.0000      -0.699015       -19.0212
  36   2.0000      -0.688024       -18.7221
  37   2.0000      -0.664959       -18.0945
  38   2.0000      -0.643976       -17.5235
  39   2.0000      -0.618926       -16.8418
  40   2.0000      -0.593929       -16.1616
  41   2.0000      -0.572066       -15.5667
  42   2.0000      -0.566223       -15.4077
  43   2.0000      -0.548144       -14.9158
  44   2.0000      -0.541695       -14.7403
  45   2.0000      -0.535598       -14.5744
  46   2.0000      -0.517971       -14.0947
  47   2.0000      -0.513095       -13.9620
  48   2.0000      -0.505861       -13.7652
  49   2.0000      -0.498487       -13.5645
  50   2.0000      -0.490673       -13.3519
  51   2.0000      -0.475762       -12.9461
  52   2.0000      -0.471501       -12.8302
  53   2.0000      -0.469284       -12.7699
  54   2.0000      -0.462280       -12.5793
  55   2.0000      -0.446635       -12.1536
  56   2.0000      -0.440642       -11.9905
  57   2.0000      -0.433166       -11.7870
  58   2.0000      -0.430126       -11.7043
  59   2.0000      -0.425779       -11.5860
  60   2.0000      -0.419062       -11.4033
  61   2.0000      -0.414708       -11.2848
  62   2.0000      -0.408066       -11.1040
  63   2.0000      -0.349586        -9.5127
  64   2.0000      -0.332023        -9.0348
  65   2.0000      -0.327072        -8.9001
  66   2.0000      -0.291204        -7.9241
  67   0.0000       0.032824         0.8932
  68   0.0000       0.075341         2.0501
  69   0.0000       0.112640         3.0651
  70   0.0000       0.121481         3.3057
  71   0.0000       0.134587         3.6623

MULLIKEN ATOMIC CHARGES
-----------------------
   0 S :    0.130286
   1 C :   -0.140532
   2 C :   -0.070720
   3 C :    0.018116
   4 C :   -0.138705
   5 H :    0.002617
   6 C :    0.065901
   7 H :   -0.008979
   8 H :    0.017391
   9 C :   -0.081906
  10 H :    0.015533
  11 H :    0.032454
  12 C :    0.002118
  13 H :    0.024002
  14 H :    0.037694
  15 H :    0.032361
  16 S :    0.123939
  17 C :   -0.059385
  18 C :   -0.047212
  19 C :   -0.078314
  20 C :   -0.157767
  21 H :    0.012323
  22 C :    0.118797
  23 H :    0.017389
  24 H :   -0.008862
  25 C :   -0.082478
  26 H :    0.054641
  27 H :    0.040100
  28 C :   -0.030363
  29 H :    0.001642
  30 H :    0.041723
  31 H :    0.017986
  32 H :    0.067834
  33 H :    0.030376
Sum of atomic charges:   -0.0000000

LOEWDIN ATOMIC CHARGES
----------------------
   0 S :    0.425307
   1 C :   -0.211366
   2 C :   -0.067250
   3 C :   -0.046623
   4 C :   -0.185277
   5 H :    0.020182
   6 C :   -0.038434
   7 H :    0.020428
   8 H :    0.022762
   9 C :   -0.032876
  10 H :    0.021338
  11 H :    0.019935
  12 C :   -0.053178
  13 H :    0.024655
  14 H :    0.028939
  15 H :    0.025870
  16 S :    0.447040
  17 C :   -0.202980
  18 C :   -0.073178
  19 C :   -0.062224
  20 C :   -0.211456
  21 H :    0.029563
  22 C :   -0.036029
  23 H :    0.022741
  24 H :    0.025066
  25 C :   -0.038255
  26 H :    0.032298
  27 H :    0.031491
  28 C :   -0.063221
  29 H :    0.009717
  30 H :    0.029865
  31 H :    0.022588
  32 H :    0.037820
  33 H :    0.024741

  Mayer bond orders larger than 0.100000
B(  0-S ,  1-C ) :   1.1497 B(  0-S ,  4-C ) :   1.1444 B(  1-C ,  2-C ) :   1.5974
B(  1-C , 32-H ) :   0.9622 B(  2-C ,  3-C ) :   1.2211 B(  2-C ,  6-C ) :   1.0602
B(  3-C ,  4-C ) :   1.5628 B(  3-C ,  5-H ) :   1.0039 B(  4-C , 20-C ) :   1.0604
B(  6-C ,  7-H ) :   0.9371 B(  6-C ,  8-H ) :   0.9304 B(  6-C ,  9-C ) :   1.0307
B(  9-C , 10-H ) :   0.9603 B(  9-C , 11-H ) :   0.9622 B(  9-C , 12-C ) :   1.0795
B( 12-C , 13-H ) :   0.9727 B( 12-C , 14-H ) :   0.9746 B( 12-C , 15-H ) :   0.9760
B( 16-S , 17-C ) :   1.1669 B( 16-S , 20-C ) :   1.1563 B( 17-C , 18-C ) :   1.5986
B( 17-C , 33-H ) :   0.9669 B( 18-C , 19-C ) :   1.2820 B( 18-C , 21-H ) :   0.9872
B( 19-C , 20-C ) :   1.5524 B( 19-C , 22-C ) :   1.0377 B( 22-C , 23-H ) :   0.9268
B( 22-C , 24-H ) :   0.9237 B( 22-C , 25-C ) :   1.0614 B( 25-C , 26-H ) :   0.9592
B( 25-C , 27-H ) :   0.9550 B( 25-C , 28-C ) :   1.0726 B( 28-C , 29-H ) :   0.9762
B( 28-C , 30-H ) :   0.9713 B( 28-C , 31-H ) :   0.9720

Dispersion correction           -0.015233566
FINAL SINGLE POINT ENERGY     -1339.866796551397

DIPOLE MOMENT
-------------
                                X             Y             Z
Electronic contribution:      8.66811      -6.31942     -13.70208
Nuclear contribution   :     -8.81381       6.41016      13.97080
                        -----------------------------------------
Total Dipole Moment    :     -0.14571       0.09073       0.26872
                        -----------------------------------------
Magnitude (a.u.)       :      0.31887
Magnitude (Debye)      :      0.81049

Rotational constants in cm-1:     0.021677     0.008094     0.007161
Rotational constants in MHz :   649.861454   242.646017   214.674022

                             ****ORCA TERMINATED NORMALLY****
TOTAL RUN TIME: 0 days 0 hours 0 minutes 20 seconds 944 msec
