                         Program Version 4.2.1 -  RELEASE  -
|  1> ! wB97X-D3 SP def2-SVP
|  2> %pal
|  3> nprocs 24
|  4> end
|  5>
|  6> * xyz 0 1
|  7> S 	 24.2091 	 -7.38624 	 -119.071
|  8> C 	 23.9356 	 -7.32401 	 -120.862
|  9> C 	 25.029 	 -6.82802 	 -121.535
| 10> C 	 26.103 	 -6.48462 	 -120.628
| 11> C 	 25.758 	 -6.63761 	 -119.317
| 12> H 	 27.1552 	 -6.1117 	 -120.781
| 13> C 	 25.171 	 -6.83514 	 -123.008
| 14> H 	 25.4899 	 -5.7974 	 -123.354
| 15> H 	 24.1843 	 -7.00955 	 -123.405
| 16> C 	 26.0816 	 -7.87264 	 -123.667
| 17> H 	 25.8971 	 -8.85354 	 -123.217
| 18> H 	 25.8231 	 -7.94564 	 -124.725
| 19> C 	 27.557 	 -7.49661 	 -123.556
| 20> H 	 27.8748 	 -7.77516 	 -122.535
| 21> H 	 28.2086 	 -8.1315 	 -124.157
| 22> H 	 27.7485 	 -6.42112 	 -123.839
| 23> S 	 26.7039 	 -4.81446 	 -117.429
| 24> C 	 27.9562 	 -5.35504 	 -116.285
| 25> C 	 28.3583 	 -6.6677 	 -116.551
| 26> C 	 27.5745 	 -7.31072 	 -117.558
| 27> C 	 26.6485 	 -6.39769 	 -118.189
| 28> H 	 29.0877 	 -7.1403 	 -115.953
| 29> C 	 27.8346 	 -8.72329 	 -117.973
| 30> H 	 28.5986 	 -8.80267 	 -118.713
| 31> H 	 26.9095 	 -8.99868 	 -118.483
| 32> C 	 28.1456 	 -9.73601 	 -116.858
| 33> H 	 27.4667 	 -9.8911 	 -116.04
| 34> H 	 29.0449 	 -9.3734 	 -116.353
| 35> C 	 28.5208 	 -11.0227 	 -117.477
| 36> H 	 27.6992 	 -11.4806 	 -117.987
| 37> H 	 28.8894 	 -11.7022 	 -116.676
| 38> H 	 29.3457 	 -10.8061 	 -118.262
| 39> H 	 23.0127 	 -7.59096 	 -121.231
| 40> H 	 28.4753 	 -4.60009 	 -115.62
| 41> *
| 42>
| 43>                          ****END OF INPUT****

CARTESIAN COORDINATES (ANGSTROEM)
---------------------------------
  S     24.209100   -7.386240  -119.071000
  C     23.935600   -7.324010  -120.862000
  C     25.029000   -6.828020  -121.535000
  C     26.103000   -6.484620  -120.628000
  C     25.758000   -6.637610  -119.317000
  H     27.155200   -6.111700  -120.781000
  C     25.171000   -6.835140  -123.008000
  H     25.489900   -5.797400  -123.354000
  H     24.184300   -7.009550  -123.405000
  C     26.081600   -7.872640  -123.667000
  H     25.897100   -8.853540  -123.217000
  H     25.823100   -7.945640  -124.725000
  C     27.557000   -7.496610  -123.556000
  H     27.874800   -7.775160  -122.535000
  H     28.208600   -8.131500  -124.157000
  H     27.748500   -6.421120  -123.839000
  S     26.703900   -4.814460  -117.429000
  C     27.956200   -5.355040  -116.285000
  C     28.358300   -6.667700  -116.551000
  C     27.574500   -7.310720  -117.558000
  C     26.648500   -6.397690  -118.189000
  H     29.087700   -7.140300  -115.953000
  C     27.834600   -8.723290  -117.973000
  H     28.598600   -8.802670  -118.713000
  H     26.909500   -8.998680  -118.483000
  C     28.145600   -9.736010  -116.858000
  H     27.466700   -9.891100  -116.040000
  H     29.044900   -9.373400  -116.353000
  C     28.520800  -11.022700  -117.477000
  H     27.699200  -11.480600  -117.987000
  H     28.889400  -11.702200  -116.676000
  H     29.345700  -10.806100  -118.262000
  H     23.012700   -7.590960  -121.231000
  H     28.475300   -4.600090  -115.620000

 Total Charge           Charge          ....    0
 Multiplicity           Mult            ....    1
 Number of Electrons    NEL             ....  134
 Basis Dimension        Dim             ....  322

ORBITAL ENERGIES
----------------

  NO   OCC          E(Eh)            E(eV)
   0   2.0000     -88.966578     -2420.9037
   1   2.0000     -88.964428     -2420.8452
   2   2.0000     -10.327233      -281.0183
   3   2.0000     -10.324796      -280.9520
   4   2.0000     -10.324030      -280.9312
   5   2.0000     -10.314758      -280.6788
   6   2.0000     -10.305732      -280.4332
   7   2.0000     -10.305077      -280.4154
   8   2.0000     -10.296902      -280.1930
   9   2.0000     -10.292905      -280.0842
  10   2.0000     -10.292681      -280.0781
  11   2.0000     -10.287943      -279.9492
  12   2.0000     -10.286166      -279.9008
  13   2.0000     -10.282247      -279.7942
  14   2.0000     -10.280456      -279.7454
  15   2.0000     -10.279967      -279.7321
  16   2.0000      -8.080497      -219.8815
  17   2.0000      -8.078618      -219.8304
  18   2.0000      -6.038884      -164.3264
  19   2.0000      -6.037086      -164.2775
  20   2.0000      -6.035055      -164.2222
  21   2.0000      -6.033346      -164.1757
  22   2.0000      -6.031506      -164.1256
  23   2.0000      -6.029306      -164.0658
  24   2.0000      -1.000330       -27.2204
  25   2.0000      -0.975795       -26.5527
  26   2.0000      -0.917012       -24.9532
  27   2.0000      -0.914762       -24.8919
  28   2.0000      -0.867532       -23.6067
  29   2.0000      -0.852748       -23.2045
  30   2.0000      -0.843583       -22.9551
  31   2.0000      -0.814754       -22.1706
  32   2.0000      -0.782673       -21.2976
  33   2.0000      -0.763469       -20.7750
  34   2.0000      -0.702104       -19.1052
  35   2.0000      -0.700522       -19.0622
  36   2.0000      -0.695195       -18.9172
  37   2.0000      -0.653945       -17.7947
  38   2.0000      -0.645511       -17.5652
  39   2.0000      -0.612364       -16.6633
  40   2.0000      -0.597628       -16.2623
  41   2.0000      -0.574953       -15.6453
  42   2.0000      -0.570037       -15.5115
  43   2.0000      -0.547671       -14.9029
  44   2.0000      -0.541174       -14.7261
  45   2.0000      -0.527931       -14.3657
  46   2.0000      -0.517189       -14.0734
  47   2.0000      -0.514050       -13.9880
  48   2.0000      -0.503579       -13.7031
  49   2.0000      -0.493991       -13.4422
  50   2.0000      -0.485162       -13.2019
  51   2.0000      -0.481341       -13.0980
  52   2.0000      -0.469656       -12.7800
  53   2.0000      -0.460344       -12.5266
  54   2.0000      -0.455561       -12.3964
  55   2.0000      -0.446631       -12.1534
  56   2.0000      -0.441555       -12.0153
  57   2.0000      -0.439524       -11.9601
  58   2.0000      -0.434208       -11.8154
  59   2.0000      -0.423854       -11.5337
  60   2.0000      -0.420792       -11.4503
  61   2.0000      -0.417972       -11.3736
  62   2.0000      -0.410413       -11.1679
  63   2.0000      -0.335478        -9.1288
  64   2.0000      -0.329818        -8.9748
  65   2.0000      -0.320273        -8.7151
  66   2.0000      -0.305281        -8.3071
  67   0.0000       0.044648         1.2149
  68   0.0000       0.048984         1.3329
  69   0.0000       0.109680         2.9845
  70   0.0000       0.118651         3.2287
  71   0.0000       0.125113         3.4045

MULLIKEN ATOMIC CHARGES
-----------------------
   0 S :    0.101438
   1 C :   -0.108483
   2 C :   -0.043042
   3 C :    0.022594
   4 C :   -0.190531
   5 H :    0.041480
   6 C :    0.057116
   7 H :    0.035880
   8 H :    0.009328
   9 C :   -0.053881
  10 H :    0.029797
  11 H :    0.032079
  12 C :   -0.070227
  13 H :    0.036038
  14 H :    0.027964
  15 H :    0.043041
  16 S :    0.112203
  17 C :   -0.127140
  18 C :   -0.014301
  19 C :   -0.019110
  20 C :   -0.186937
  21 H :    0.009195
  22 C :    0.091472
  23 H :    0.024728
  24 H :    0.020842
  25 C :   -0.083965
  26 H :    0.031142
  27 H :    0.018927
  28 C :   -0.050658
  29 H :    0.028545
  30 H :    0.039536
  31 H :    0.032123
  32 H :    0.018724
  33 H :    0.084082
Sum of atomic charges:    0.0000000

LOEWDIN ATOMIC CHARGES
----------------------
   0 S :    0.381456
   1 C :   -0.158162
   2 C :   -0.057974
   3 C :   -0.066374
   4 C :   -0.202591
   5 H :    0.047134
   6 C :   -0.035745
   7 H :    0.036591
   8 H :    0.027950
   9 C :   -0.037827
  10 H :    0.027164
  11 H :    0.025147
  12 C :   -0.073727
  13 H :    0.027688
  14 H :    0.024033
  15 H :    0.030555
  16 S :    0.401763
  17 C :   -0.188159
  18 C :   -0.068370
  19 C :   -0.048942
  20 C :   -0.212963
  21 H :    0.023960
  22 C :   -0.031039
  23 H :    0.030088
  24 H :    0.030777
  25 C :   -0.044533
  26 H :    0.024542
  27 H :    0.021419
  28 C :   -0.063976
  29 H :    0.018911
  30 H :    0.030088
  31 H :    0.031985
  32 H :    0.008306
  33 H :    0.040828

  Mayer bond orders larger than 0.100000
B(  0-S ,  1-C ) :   1.1181 B(  0-S ,  4-C ) :   1.1388 B(  1-C ,  2-C ) :   1.6318
B(  1-C , 32-H ) :   0.9825 B(  2-C ,  3-C ) :   1.1736 B(  2-C ,  6-C ) :   1.0474
B(  3-C ,  4-C ) :   1.6430 B(  3-C ,  5-H ) :   0.9784 B(  4-C , 20-C ) :   1.0161
B(  6-C ,  7-H ) :   0.9335 B(  6-C ,  8-H ) :   0.9317 B(  6-C ,  9-C ) :   1.0692
B(  9-C , 10-H ) :   0.9512 B(  9-C , 11-H ) :   0.9558 B(  9-C , 12-C ) :   1.0824
B( 12-C , 13-H ) :   0.9711 B( 12-C , 14-H ) :   0.9705 B( 12-C , 15-H ) :   0.9739
B( 16-S , 17-C ) :   1.1630 B( 16-S , 20-C ) :   1.1626 B( 17-C , 18-C ) :   1.5837
B( 17-C , 20-C ) :   0.1093 B( 17-C , 33-H ) :   0.9582 B( 18-C , 19-C ) :   1.2652
B( 18-C , 21-H ) :   0.9919 B( 19-C , 20-C ) :   1.5483 B( 19-C , 22-C ) :   1.0468
B( 22-C , 23-H ) :   0.9317 B( 22-C , 24-H ) :   0.9207 B( 22-C , 25-C ) :   1.0620
B( 25-C , 26-H ) :   0.9554 B( 25-C , 27-H ) :   0.9462 B( 25-C , 28-C ) :   1.0987
B( 28-C , 29-H ) :   0.9733 B( 28-C , 30-H ) :   0.9700 B( 28-C , 31-H ) :   0.9696

Dispersion correction           -0.014285818
FINAL SINGLE POINT ENERGY     -1339.877805315772

DIPOLE MOMENT
-------------
                                X             Y             Z
Electronic contribution:    -13.30811      17.67452      13.71583
Nuclear contribution   :     13.70042     -18.05256     -14.07675
                        -----------------------------------------
Total Dipole Moment    :      0.39231      -0.37804      -0.36092
                        -----------------------------------------
Magnitude (a.u.)       :      0.65352
Magnitude (Debye)      :      1.66110

Rotational constants in cm-1:     0.016541     0.008839     0.007390
Rotational constants in MHz :   495.876069   264.992958   221.556637

                             ****ORCA TERMINATED NORMALLY****
TOTAL RUN TIME: 0 days 0 hours 0 minutes 21 seconds 565 msec
