                         Program Version 4.2.1 -  RELEASE  -
|  1> ! wB97X-D3 SP def2-SVP
|  2> %pal
|  3> nprocs 24
|  4> end
|  5>
|  6> * xyz 0 1
|  7> S 	 -102.988 	 0.851004 	 -104.681
|  8> C 	 -103.761 	 0.448549 	 -103.158
|  9> C 	 -103.164 	 -0.67295 	 -102.55
| 10> C 	 -101.911 	 -0.988092 	 -103.214
| 11> C 	 -101.687 	 -0.242531 	 -104.339
| 12> H 	 -101.259 	 -1.83448 	 -102.906
| 13> C 	 -103.625 	 -1.24588 	 -101.297
| 14> H 	 -104.612 	 -0.950372 	 -101.064
| 15> H 	 -103.166 	 -0.672069 	 -100.504
| 16> C 	 -103.461 	 -2.72612 	 -101.175
| 17> H 	 -104.163 	 -3.16328 	 -101.927
| 18> H 	 -102.468 	 -3.18281 	 -101.476
| 19> C 	 -103.916 	 -3.28017 	 -99.756
| 20> H 	 -103.1 	 -3.1805 	 -99.0129
| 21> H 	 -104.786 	 -2.72894 	 -99.377
| 22> H 	 -104.215 	 -4.37694 	 -99.9004
| 23> S 	 -100.604 	 -1.52474 	 -106.475
| 24> C 	 -98.8752 	 -1.36957 	 -106.876
| 25> C 	 -98.3623 	 -0.314668 	 -106.082
| 26> C 	 -99.2765 	 0.270544 	 -105.171
| 27> C 	 -100.525 	 -0.374843 	 -105.178
| 28> H 	 -97.3334 	 -0.0198073 	 -106.255
| 29> C 	 -98.983 	 1.28684 	 -104.093
| 30> H 	 -99.153 	 0.853965 	 -103.169
| 31> H 	 -99.7006 	 2.139 	 -104.143
| 32> C 	 -97.5149 	 1.82195 	 -104.097
| 33> H 	 -97.3919 	 2.31655 	 -105.125
| 34> H 	 -96.8485 	 0.996477 	 -104.115
| 35> C 	 -97.0935 	 2.69993 	 -102.887
| 36> H 	 -97.818 	 3.48464 	 -102.725
| 37> H 	 -96.1195 	 3.06107 	 -102.737
| 38> H 	 -97.2104 	 2.05966 	 -101.985
| 39> H 	 -104.614 	 0.986115 	 -102.667
| 40> H 	 -98.3244 	 -1.84701 	 -107.681
| 41> *
| 42>
| 43>                          ****END OF INPUT****

CARTESIAN COORDINATES (ANGSTROEM)
---------------------------------
  S    -102.988000    0.851004  -104.681000
  C    -103.761000    0.448549  -103.158000
  C    -103.164000   -0.672950  -102.550000
  C    -101.911000   -0.988092  -103.214000
  C    -101.687000   -0.242531  -104.339000
  H    -101.259000   -1.834480  -102.906000
  C    -103.625000   -1.245880  -101.297000
  H    -104.612000   -0.950372  -101.064000
  H    -103.166000   -0.672069  -100.504000
  C    -103.461000   -2.726120  -101.175000
  H    -104.163000   -3.163280  -101.927000
  H    -102.468000   -3.182810  -101.476000
  C    -103.916000   -3.280170  -99.756000
  H    -103.100000   -3.180500  -99.012900
  H    -104.786000   -2.728940  -99.377000
  H    -104.215000   -4.376940  -99.900400
  S    -100.604000   -1.524740  -106.475000
  C    -98.875200   -1.369570  -106.876000
  C    -98.362300   -0.314668  -106.082000
  C    -99.276500    0.270544  -105.171000
  C    -100.525000   -0.374843  -105.178000
  H    -97.333400   -0.019807  -106.255000
  C    -98.983000    1.286840  -104.093000
  H    -99.153000    0.853965  -103.169000
  H    -99.700600    2.139000  -104.143000
  C    -97.514900    1.821950  -104.097000
  H    -97.391900    2.316550  -105.125000
  H    -96.848500    0.996477  -104.115000
  C    -97.093500    2.699930  -102.887000
  H    -97.818000    3.484640  -102.725000
  H    -96.119500    3.061070  -102.737000
  H    -97.210400    2.059660  -101.985000
  H    -104.614000    0.986115  -102.667000
  H    -98.324400   -1.847010  -107.681000

 Total Charge           Charge          ....    0
 Multiplicity           Mult            ....    1
 Number of Electrons    NEL             ....  134
 Basis Dimension        Dim             ....  322

ORBITAL ENERGIES
----------------

  NO   OCC          E(Eh)            E(eV)
   0   2.0000     -88.968395     -2420.9531
   1   2.0000     -88.964220     -2420.8395
   2   2.0000     -10.325196      -280.9629
   3   2.0000     -10.321796      -280.8704
   4   2.0000     -10.321668      -280.8669
   5   2.0000     -10.318105      -280.7699
   6   2.0000     -10.304044      -280.3873
   7   2.0000     -10.301508      -280.3183
   8   2.0000     -10.298151      -280.2269
   9   2.0000     -10.297025      -280.1963
  10   2.0000     -10.296765      -280.1892
  11   2.0000     -10.291914      -280.0572
  12   2.0000     -10.290760      -280.0258
  13   2.0000     -10.287458      -279.9360
  14   2.0000     -10.283780      -279.8359
  15   2.0000     -10.276840      -279.6470
  16   2.0000      -8.083043      -219.9508
  17   2.0000      -8.078432      -219.8253
  18   2.0000      -6.041568      -164.3994
  19   2.0000      -6.037570      -164.2906
  20   2.0000      -6.036888      -164.2721
  21   2.0000      -6.033783      -164.1876
  22   2.0000      -6.032744      -164.1593
  23   2.0000      -6.029545      -164.0723
  24   2.0000      -1.006426       -27.3862
  25   2.0000      -0.980788       -26.6886
  26   2.0000      -0.920230       -25.0407
  27   2.0000      -0.902959       -24.5708
  28   2.0000      -0.867436       -23.6041
  29   2.0000      -0.845110       -22.9966
  30   2.0000      -0.844927       -22.9916
  31   2.0000      -0.814349       -22.1596
  32   2.0000      -0.781970       -21.2785
  33   2.0000      -0.768725       -20.9181
  34   2.0000      -0.712524       -19.3888
  35   2.0000      -0.706614       -19.2279
  36   2.0000      -0.689223       -18.7547
  37   2.0000      -0.649391       -17.6708
  38   2.0000      -0.640970       -17.4417
  39   2.0000      -0.621181       -16.9032
  40   2.0000      -0.595766       -16.2116
  41   2.0000      -0.566812       -15.4237
  42   2.0000      -0.563547       -15.3349
  43   2.0000      -0.559826       -15.2336
  44   2.0000      -0.528645       -14.3852
  45   2.0000      -0.526600       -14.3295
  46   2.0000      -0.516109       -14.0440
  47   2.0000      -0.513814       -13.9816
  48   2.0000      -0.503674       -13.7057
  49   2.0000      -0.500844       -13.6287
  50   2.0000      -0.487291       -13.2599
  51   2.0000      -0.477007       -12.9800
  52   2.0000      -0.468578       -12.7507
  53   2.0000      -0.465038       -12.6543
  54   2.0000      -0.459883       -12.5140
  55   2.0000      -0.450223       -12.2512
  56   2.0000      -0.449720       -12.2375
  57   2.0000      -0.442985       -12.0542
  58   2.0000      -0.427344       -11.6286
  59   2.0000      -0.421236       -11.4624
  60   2.0000      -0.419160       -11.4059
  61   2.0000      -0.415015       -11.2931
  62   2.0000      -0.410851       -11.1798
  63   2.0000      -0.335394        -9.1265
  64   2.0000      -0.328292        -8.9333
  65   2.0000      -0.312292        -8.4979
  66   2.0000      -0.308432        -8.3929
  67   0.0000       0.040396         1.0992
  68   0.0000       0.050265         1.3678
  69   0.0000       0.113205         3.0805
  70   0.0000       0.124868         3.3978
  71   0.0000       0.129009         3.5105

MULLIKEN ATOMIC CHARGES
-----------------------
   0 S :    0.133201
   1 C :   -0.143516
   2 C :   -0.097084
   3 C :    0.032683
   4 C :   -0.172362
   5 H :    0.032692
   6 C :    0.129830
   7 H :   -0.010259
   8 H :    0.026954
   9 C :   -0.134332
  10 H :    0.038644
  11 H :    0.046919
  12 C :   -0.075165
  13 H :    0.046558
  14 H :    0.033929
  15 H :    0.051136
  16 S :    0.115301
  17 C :   -0.098375
  18 C :   -0.075510
  19 C :   -0.001434
  20 C :   -0.193267
  21 H :    0.022780
  22 C :    0.105084
  23 H :    0.009457
  24 H :    0.036464
  25 C :   -0.113830
  26 H :    0.038717
  27 H :    0.024879
  28 C :   -0.007724
  29 H :    0.024847
  30 H :    0.029901
  31 H :    0.017024
  32 H :    0.062721
  33 H :    0.063138
Sum of atomic charges:    0.0000000

LOEWDIN ATOMIC CHARGES
----------------------
   0 S :    0.414768
   1 C :   -0.207783
   2 C :   -0.058760
   3 C :   -0.056181
   4 C :   -0.211564
   5 H :    0.039334
   6 C :   -0.045356
   7 H :    0.026997
   8 H :    0.036151
   9 C :   -0.046696
  10 H :    0.030850
  11 H :    0.029334
  12 C :   -0.071260
  13 H :    0.026918
  14 H :    0.023730
  15 H :    0.036874
  16 S :    0.413276
  17 C :   -0.188067
  18 C :   -0.075188
  19 C :   -0.054079
  20 C :   -0.208987
  21 H :    0.030530
  22 C :   -0.025534
  23 H :    0.021552
  24 H :    0.037820
  25 C :   -0.042698
  26 H :    0.027890
  27 H :    0.015410
  28 C :   -0.065858
  29 H :    0.023464
  30 H :    0.021406
  31 H :    0.030152
  32 H :    0.037888
  33 H :    0.033666

  Mayer bond orders larger than 0.100000
B(  0-S ,  1-C ) :   1.1384 B(  0-S ,  4-C ) :   1.1457 B(  1-C ,  2-C ) :   1.6033
B(  1-C , 32-H ) :   0.9617 B(  2-C ,  3-C ) :   1.2237 B(  2-C ,  6-C ) :   1.0502
B(  3-C ,  4-C ) :   1.6011 B(  3-C ,  5-H ) :   0.9831 B(  4-C , 20-C ) :   1.0224
B(  6-C ,  7-H ) :   0.9170 B(  6-C ,  8-H ) :   0.9226 B(  6-C ,  9-C ) :   1.0477
B(  9-C , 10-H ) :   0.9582 B(  9-C , 11-H ) :   0.9582 B(  9-C , 12-C ) :   1.0702
B( 12-C , 13-H ) :   0.9779 B( 12-C , 14-H ) :   0.9749 B( 12-C , 15-H ) :   0.9772
B( 16-S , 17-C ) :   1.1637 B( 16-S , 20-C ) :   1.1742 B( 17-C , 18-C ) :   1.5638
B( 17-C , 20-C ) :   0.1218 B( 17-C , 33-H ) :   0.9676 B( 18-C , 19-C ) :   1.2793
B( 18-C , 21-H ) :   0.9856 B( 19-C , 20-C ) :   1.5498 B( 19-C , 22-C ) :   1.0407
B( 22-C , 23-H ) :   0.9297 B( 22-C , 24-H ) :   0.9191 B( 22-C , 25-C ) :   1.0743
B( 25-C , 26-H ) :   0.9562 B( 25-C , 27-H ) :   0.9531 B( 25-C , 28-C ) :   1.0724
B( 28-C , 29-H ) :   0.9766 B( 28-C , 30-H ) :   0.9766 B( 28-C , 31-H ) :   0.9694

Dispersion correction           -0.013628129
FINAL SINGLE POINT ENERGY     -1339.867009626345

DIPOLE MOMENT
-------------
                                X             Y             Z
Electronic contribution:     -6.81620      -0.02492     -23.25340
Nuclear contribution   :      6.96376      -0.01926      23.90720
                        -----------------------------------------
Total Dipole Moment    :      0.14757      -0.04419       0.65380
                        -----------------------------------------
Magnitude (a.u.)       :      0.67170
Magnitude (Debye)      :      1.70734

Rotational constants in cm-1:     0.017450     0.007510     0.006679
Rotational constants in MHz :   523.146006   225.148152   200.230981

                             ****ORCA TERMINATED NORMALLY****
TOTAL RUN TIME: 0 days 0 hours 0 minutes 19 seconds 646 msec
