                         Program Version 4.2.1 -  RELEASE  -
|  1> ! wB97X-D3 SP def2-SVP
|  2> %pal
|  3> nprocs 24
|  4> end
|  5>
|  6> * xyz 0 1
|  7> S 	 -120.03 	 50.6545 	 -27.5972
|  8> C 	 -119.433 	 49.4772 	 -28.625
|  9> C 	 -120.249 	 48.3537 	 -28.6723
| 10> C 	 -121.396 	 48.4903 	 -27.8808
| 11> C 	 -121.429 	 49.7262 	 -27.2281
| 12> H 	 -122.268 	 47.7948 	 -27.7127
| 13> C 	 -119.985 	 47.1556 	 -29.54
| 14> H 	 -119.946 	 46.2466 	 -28.9127
| 15> H 	 -119.019 	 47.3214 	 -29.9784
| 16> C 	 -120.921 	 47.0737 	 -30.7583
| 17> H 	 -121.978 	 46.7515 	 -30.4382
| 18> H 	 -120.999 	 48.1109 	 -31.098
| 19> C 	 -120.326 	 46.1158 	 -31.7983
| 20> H 	 -120.819 	 46.2635 	 -32.8061
| 21> H 	 -119.295 	 46.2757 	 -32.1671
| 22> H 	 -120.493 	 45.059 	 -31.4862
| 23> S 	 -122.959 	 52.0035 	 -26.7599
| 24> C 	 -124.354 	 51.8694 	 -25.7293
| 25> C 	 -124.646 	 50.5889 	 -25.3182
| 26> C 	 -123.661 	 49.651 	 -25.7751
| 27> C 	 -122.612 	 50.2802 	 -26.5151
| 28> H 	 -125.512 	 50.4001 	 -24.7277
| 29> C 	 -123.894 	 48.2008 	 -25.4266
| 30> H 	 -123.986 	 48.1017 	 -24.3796
| 31> H 	 -123.002 	 47.6835 	 -25.6063
| 32> C 	 -125.119 	 47.4953 	 -26.1323
| 33> H 	 -125.977 	 48.1041 	 -25.7179
| 34> H 	 -125.175 	 46.4515 	 -25.7839
| 35> C 	 -125.044 	 47.5128 	 -27.7535
| 36> H 	 -124.729 	 48.5278 	 -28.1313
| 37> H 	 -126.06 	 47.2967 	 -28.059
| 38> H 	 -124.408 	 46.8422 	 -28.3202
| 39> H 	 -118.623 	 49.4973 	 -29.297
| 40> H 	 -125.001 	 52.721 	 -25.4439
| 41> *
| 42>
| 43>                          ****END OF INPUT****

CARTESIAN COORDINATES (ANGSTROEM)
---------------------------------
  S    -120.030000   50.654500  -27.597200
  C    -119.433000   49.477200  -28.625000
  C    -120.249000   48.353700  -28.672300
  C    -121.396000   48.490300  -27.880800
  C    -121.429000   49.726200  -27.228100
  H    -122.268000   47.794800  -27.712700
  C    -119.985000   47.155600  -29.540000
  H    -119.946000   46.246600  -28.912700
  H    -119.019000   47.321400  -29.978400
  C    -120.921000   47.073700  -30.758300
  H    -121.978000   46.751500  -30.438200
  H    -120.999000   48.110900  -31.098000
  C    -120.326000   46.115800  -31.798300
  H    -120.819000   46.263500  -32.806100
  H    -119.295000   46.275700  -32.167100
  H    -120.493000   45.059000  -31.486200
  S    -122.959000   52.003500  -26.759900
  C    -124.354000   51.869400  -25.729300
  C    -124.646000   50.588900  -25.318200
  C    -123.661000   49.651000  -25.775100
  C    -122.612000   50.280200  -26.515100
  H    -125.512000   50.400100  -24.727700
  C    -123.894000   48.200800  -25.426600
  H    -123.986000   48.101700  -24.379600
  H    -123.002000   47.683500  -25.606300
  C    -125.119000   47.495300  -26.132300
  H    -125.977000   48.104100  -25.717900
  H    -125.175000   46.451500  -25.783900
  C    -125.044000   47.512800  -27.753500
  H    -124.729000   48.527800  -28.131300
  H    -126.060000   47.296700  -28.059000
  H    -124.408000   46.842200  -28.320200
  H    -118.623000   49.497300  -29.297000
  H    -125.001000   52.721000  -25.443900

 Total Charge           Charge          ....    0
 Multiplicity           Mult            ....    1
 Number of Electrons    NEL             ....  134
 Basis Dimension        Dim             ....  322

ORBITAL ENERGIES
----------------

  NO   OCC          E(Eh)            E(eV)
   0   2.0000     -88.970856     -2421.0201
   1   2.0000     -88.968267     -2420.9496
   2   2.0000     -10.335475      -281.2426
   3   2.0000     -10.327758      -281.0326
   4   2.0000     -10.316507      -280.7264
   5   2.0000     -10.307140      -280.4715
   6   2.0000     -10.306321      -280.4493
   7   2.0000     -10.303469      -280.3717
   8   2.0000     -10.294882      -280.1380
   9   2.0000     -10.293874      -280.1106
  10   2.0000     -10.292871      -280.0833
  11   2.0000     -10.290768      -280.0260
  12   2.0000     -10.287700      -279.9426
  13   2.0000     -10.287333      -279.9326
  14   2.0000     -10.286805      -279.9182
  15   2.0000     -10.284478      -279.8549
  16   2.0000      -8.086943      -220.0569
  17   2.0000      -8.082638      -219.9398
  18   2.0000      -6.045215      -164.4987
  19   2.0000      -6.041163      -164.3884
  20   2.0000      -6.041146      -164.3879
  21   2.0000      -6.037980      -164.3018
  22   2.0000      -6.037255      -164.2821
  23   2.0000      -6.033374      -164.1765
  24   2.0000      -1.012460       -27.5504
  25   2.0000      -0.985204       -26.8088
  26   2.0000      -0.913722       -24.8636
  27   2.0000      -0.901500       -24.5311
  28   2.0000      -0.866140       -23.5689
  29   2.0000      -0.852259       -23.1911
  30   2.0000      -0.840148       -22.8616
  31   2.0000      -0.812665       -22.1137
  32   2.0000      -0.783290       -21.3144
  33   2.0000      -0.770289       -20.9606
  34   2.0000      -0.710609       -19.3367
  35   2.0000      -0.696447       -18.9513
  36   2.0000      -0.691797       -18.8248
  37   2.0000      -0.659175       -17.9371
  38   2.0000      -0.637631       -17.3508
  39   2.0000      -0.620748       -16.8914
  40   2.0000      -0.593611       -16.1530
  41   2.0000      -0.574697       -15.6383
  42   2.0000      -0.561903       -15.2902
  43   2.0000      -0.543677       -14.7942
  44   2.0000      -0.539066       -14.6687
  45   2.0000      -0.518219       -14.1014
  46   2.0000      -0.513942       -13.9851
  47   2.0000      -0.510960       -13.9039
  48   2.0000      -0.503614       -13.7040
  49   2.0000      -0.495772       -13.4906
  50   2.0000      -0.492458       -13.4005
  51   2.0000      -0.476116       -12.9558
  52   2.0000      -0.469677       -12.7806
  53   2.0000      -0.465916       -12.6782
  54   2.0000      -0.462932       -12.5970
  55   2.0000      -0.452929       -12.3248
  56   2.0000      -0.440801       -11.9948
  57   2.0000      -0.433747       -11.8029
  58   2.0000      -0.431227       -11.7343
  59   2.0000      -0.426822       -11.6144
  60   2.0000      -0.422003       -11.4833
  61   2.0000      -0.418033       -11.3752
  62   2.0000      -0.415643       -11.3102
  63   2.0000      -0.354713        -9.6522
  64   2.0000      -0.333757        -9.0820
  65   2.0000      -0.330345        -8.9891
  66   2.0000      -0.281443        -7.6585
  67   0.0000       0.025378         0.6906
  68   0.0000       0.082684         2.2499
  69   0.0000       0.107153         2.9158
  70   0.0000       0.122075         3.3218
  71   0.0000       0.130440         3.5494

MULLIKEN ATOMIC CHARGES
-----------------------
   0 S :    0.138430
   1 C :   -0.078580
   2 C :   -0.126831
   3 C :    0.008938
   4 C :   -0.153360
   5 H :    0.012479
   6 C :    0.091832
   7 H :    0.040713
   8 H :   -0.004481
   9 C :   -0.087612
  10 H :    0.044538
  11 H :    0.035602
  12 C :   -0.079765
  13 H :    0.034356
  14 H :    0.037095
  15 H :    0.046550
  16 S :    0.105225
  17 C :   -0.099120
  18 C :   -0.030349
  19 C :   -0.063536
  20 C :   -0.136213
  21 H :    0.013721
  22 C :    0.089826
  23 H :    0.020494
  24 H :   -0.000204
  25 C :   -0.082588
  26 H :    0.041913
  27 H :    0.046446
  28 C :   -0.086751
  29 H :    0.056372
  30 H :    0.037139
  31 H :    0.043323
  32 H :    0.021128
  33 H :    0.063269
Sum of atomic charges:    0.0000000

LOEWDIN ATOMIC CHARGES
----------------------
   0 S :    0.458020
   1 C :   -0.224913
   2 C :   -0.066756
   3 C :   -0.070481
   4 C :   -0.207876
   5 H :    0.040499
   6 C :   -0.032267
   7 H :    0.033220
   8 H :    0.023283
   9 C :   -0.043000
  10 H :    0.030996
  11 H :    0.026515
  12 C :   -0.081947
  13 H :    0.032282
  14 H :    0.027796
  15 H :    0.031637
  16 S :    0.398460
  17 C :   -0.190946
  18 C :   -0.069841
  19 C :   -0.054134
  20 C :   -0.189527
  21 H :    0.029023
  22 C :   -0.036799
  23 H :    0.028833
  24 H :    0.017425
  25 C :   -0.029346
  26 H :    0.030125
  27 H :    0.028123
  28 C :   -0.078176
  29 H :    0.035460
  30 H :    0.027197
  31 H :    0.021717
  32 H :    0.021320
  33 H :    0.034078

  Mayer bond orders larger than 0.100000
B(  0-S ,  1-C ) :   1.1570 B(  0-S ,  4-C ) :   1.1820 B(  1-C ,  2-C ) :   1.5740
B(  1-C , 32-H ) :   0.9648 B(  2-C ,  3-C ) :   1.2820 B(  2-C ,  6-C ) :   1.0411
B(  3-C ,  4-C ) :   1.5247 B(  3-C ,  5-H ) :   0.9783 B(  4-C , 20-C ) :   1.0492
B(  6-C ,  7-H ) :   0.9347 B(  6-C ,  8-H ) :   0.9354 B(  6-C ,  9-C ) :   1.0526
B(  9-C , 10-H ) :   0.9514 B(  9-C , 11-H ) :   0.9572 B(  9-C , 12-C ) :   1.0808
B( 12-C , 13-H ) :   0.9732 B( 12-C , 14-H ) :   0.9736 B( 12-C , 15-H ) :   0.9740
B( 16-S , 17-C ) :   1.1524 B( 16-S , 20-C ) :   1.1399 B( 17-C , 18-C ) :   1.6209
B( 17-C , 33-H ) :   0.9596 B( 18-C , 19-C ) :   1.2322 B( 18-C , 21-H ) :   0.9940
B( 19-C , 20-C ) :   1.5754 B( 19-C , 22-C ) :   1.0493 B( 22-C , 23-H ) :   0.9327
B( 22-C , 24-H ) :   0.9235 B( 22-C , 25-C ) :   1.0613 B( 25-C , 26-H ) :   0.9599
B( 25-C , 27-H ) :   0.9580 B( 25-C , 28-C ) :   1.0544 B( 28-C , 29-H ) :   0.9753
B( 28-C , 30-H ) :   0.9745 B( 28-C , 31-H ) :   0.9716

Dispersion correction           -0.014965175
FINAL SINGLE POINT ENERGY     -1339.872657291660

DIPOLE MOMENT
-------------
                                X             Y             Z
Electronic contribution:      7.60973      26.03623      12.60891
Nuclear contribution   :     -7.94308     -26.56366     -12.78011
                        -----------------------------------------
Total Dipole Moment    :     -0.33335      -0.52743      -0.17120
                        -----------------------------------------
Magnitude (a.u.)       :      0.64700
Magnitude (Debye)      :      1.64455

Rotational constants in cm-1:     0.019034     0.009135     0.006830
Rotational constants in MHz :   570.617992   273.867837   204.746442

                             ****ORCA TERMINATED NORMALLY****
TOTAL RUN TIME: 0 days 0 hours 0 minutes 22 seconds 151 msec
