                         Program Version 4.2.1 -  RELEASE  -
|  1> ! wB97X-D3 SP def2-SVP
|  2> %pal
|  3> nprocs 24
|  4> end
|  5>
|  6> * xyz 0 1
|  7> S 	 -108.845 	 29.2976 	 -18.47
|  8> C 	 -109.421 	 27.8082 	 -19.2746
|  9> C 	 -109.771 	 28.0527 	 -20.5585
| 10> C 	 -109.491 	 29.4266 	 -20.9709
| 11> C 	 -108.941 	 30.2307 	 -19.9989
| 12> H 	 -109.598 	 29.7995 	 -21.9519
| 13> C 	 -110.357 	 26.9991 	 -21.5687
| 14> H 	 -111.382 	 26.8915 	 -21.2202
| 15> H 	 -109.922 	 26.0597 	 -21.2824
| 16> C 	 -110.28 	 27.2432 	 -23.0897
| 17> H 	 -110.742 	 28.1846 	 -23.323
| 18> H 	 -109.201 	 27.3889 	 -23.3082
| 19> C 	 -110.847 	 26.1112 	 -24.0231
| 20> H 	 -111.932 	 26.1086 	 -23.869
| 21> H 	 -110.561 	 26.4345 	 -24.997
| 22> H 	 -110.553 	 25.105 	 -23.7991
| 23> S 	 -107.939 	 32.4306 	 -18.6348
| 24> C 	 -107.485 	 33.9053 	 -19.5102
| 25> C 	 -108.13 	 33.9299 	 -20.7356
| 26> C 	 -108.625 	 32.6261 	 -21.1036
| 27> C 	 -108.578 	 31.6565 	 -20.0455
| 28> H 	 -108.052 	 34.8612 	 -21.2675
| 29> C 	 -109.272 	 32.3456 	 -22.4711
| 30> H 	 -109.639 	 33.2487 	 -22.9415
| 31> H 	 -110.083 	 31.6438 	 -22.2741
| 32> C 	 -108.223 	 31.8146 	 -23.3526
| 33> H 	 -107.82 	 30.9188 	 -22.922
| 34> H 	 -107.444 	 32.5247 	 -23.403
| 35> C 	 -108.699 	 31.3928 	 -24.7212
| 36> H 	 -109.482 	 30.5918 	 -24.6767
| 37> H 	 -107.931 	 31.1331 	 -25.4684
| 38> H 	 -109.261 	 32.2979 	 -25.1205
| 39> H 	 -109.327 	 26.7947 	 -18.926
| 40> H 	 -107.153 	 34.8179 	 -19.0998
| 41> *
| 42>
| 43>                          ****END OF INPUT****

CARTESIAN COORDINATES (ANGSTROEM)
---------------------------------
  S    -108.845000   29.297600  -18.470000
  C    -109.421000   27.808200  -19.274600
  C    -109.771000   28.052700  -20.558500
  C    -109.491000   29.426600  -20.970900
  C    -108.941000   30.230700  -19.998900
  H    -109.598000   29.799500  -21.951900
  C    -110.357000   26.999100  -21.568700
  H    -111.382000   26.891500  -21.220200
  H    -109.922000   26.059700  -21.282400
  C    -110.280000   27.243200  -23.089700
  H    -110.742000   28.184600  -23.323000
  H    -109.201000   27.388900  -23.308200
  C    -110.847000   26.111200  -24.023100
  H    -111.932000   26.108600  -23.869000
  H    -110.561000   26.434500  -24.997000
  H    -110.553000   25.105000  -23.799100
  S    -107.939000   32.430600  -18.634800
  C    -107.485000   33.905300  -19.510200
  C    -108.130000   33.929900  -20.735600
  C    -108.625000   32.626100  -21.103600
  C    -108.578000   31.656500  -20.045500
  H    -108.052000   34.861200  -21.267500
  C    -109.272000   32.345600  -22.471100
  H    -109.639000   33.248700  -22.941500
  H    -110.083000   31.643800  -22.274100
  C    -108.223000   31.814600  -23.352600
  H    -107.820000   30.918800  -22.922000
  H    -107.444000   32.524700  -23.403000
  C    -108.699000   31.392800  -24.721200
  H    -109.482000   30.591800  -24.676700
  H    -107.931000   31.133100  -25.468400
  H    -109.261000   32.297900  -25.120500
  H    -109.327000   26.794700  -18.926000
  H    -107.153000   34.817900  -19.099800

 Total Charge           Charge          ....    0
 Multiplicity           Mult            ....    1
 Number of Electrons    NEL             ....  134
 Basis Dimension        Dim             ....  322

ORBITAL ENERGIES
----------------

  NO   OCC          E(Eh)            E(eV)
   0   2.0000     -88.968054     -2420.9438
   1   2.0000     -88.965071     -2420.8626
   2   2.0000     -10.340224      -281.3718
   3   2.0000     -10.337055      -281.2856
   4   2.0000     -10.317727      -280.7596
   5   2.0000     -10.313937      -280.6565
   6   2.0000     -10.313636      -280.6483
   7   2.0000     -10.307043      -280.4689
   8   2.0000     -10.299681      -280.2686
   9   2.0000     -10.296583      -280.1843
  10   2.0000     -10.295739      -280.1613
  11   2.0000     -10.294752      -280.1345
  12   2.0000     -10.289642      -279.9954
  13   2.0000     -10.285671      -279.8873
  14   2.0000     -10.284274      -279.8493
  15   2.0000     -10.274356      -279.5794
  16   2.0000      -8.082526      -219.9367
  17   2.0000      -8.078611      -219.8302
  18   2.0000      -6.041159      -164.3883
  19   2.0000      -6.037550      -164.2901
  20   2.0000      -6.037072      -164.2771
  21   2.0000      -6.033423      -164.1778
  22   2.0000      -6.033166      -164.1708
  23   2.0000      -6.028829      -164.0528
  24   2.0000      -1.003290       -27.3009
  25   2.0000      -0.979836       -26.6627
  26   2.0000      -0.924301       -25.1515
  27   2.0000      -0.905604       -24.6427
  28   2.0000      -0.874034       -23.7837
  29   2.0000      -0.848804       -23.0971
  30   2.0000      -0.840341       -22.8668
  31   2.0000      -0.822403       -22.3787
  32   2.0000      -0.784576       -21.3494
  33   2.0000      -0.772858       -21.0305
  34   2.0000      -0.716714       -19.5028
  35   2.0000      -0.698529       -19.0079
  36   2.0000      -0.694172       -18.8894
  37   2.0000      -0.664598       -18.0846
  38   2.0000      -0.638773       -17.3819
  39   2.0000      -0.626618       -17.0511
  40   2.0000      -0.593013       -16.1367
  41   2.0000      -0.579208       -15.7610
  42   2.0000      -0.568025       -15.4568
  43   2.0000      -0.565216       -15.3803
  44   2.0000      -0.536858       -14.6087
  45   2.0000      -0.525638       -14.3033
  46   2.0000      -0.516491       -14.0544
  47   2.0000      -0.511679       -13.9235
  48   2.0000      -0.508393       -13.8341
  49   2.0000      -0.503711       -13.7067
  50   2.0000      -0.496388       -13.5074
  51   2.0000      -0.483045       -13.1443
  52   2.0000      -0.479627       -13.0513
  53   2.0000      -0.467755       -12.7283
  54   2.0000      -0.458330       -12.4718
  55   2.0000      -0.449526       -12.2322
  56   2.0000      -0.443272       -12.0621
  57   2.0000      -0.440498       -11.9866
  58   2.0000      -0.434937       -11.8352
  59   2.0000      -0.426809       -11.6141
  60   2.0000      -0.420883       -11.4528
  61   2.0000      -0.413915       -11.2632
  62   2.0000      -0.408161       -11.1066
  63   2.0000      -0.364879        -9.9289
  64   2.0000      -0.334446        -9.1007
  65   2.0000      -0.325411        -8.8549
  66   2.0000      -0.284122        -7.7313
  67   0.0000       0.012706         0.3457
  68   0.0000       0.082716         2.2508
  69   0.0000       0.091986         2.5031
  70   0.0000       0.120199         3.2708
  71   0.0000       0.126409         3.4398

MULLIKEN ATOMIC CHARGES
-----------------------
   0 S :    0.082706
   1 C :   -0.122242
   2 C :   -0.075810
   3 C :   -0.015632
   4 C :   -0.070894
   5 H :   -0.025493
   6 C :    0.075020
   7 H :    0.035249
   8 H :    0.011515
   9 C :   -0.117126
  10 H :    0.038800
  11 H :    0.037435
  12 C :   -0.011095
  13 H :    0.032746
  14 H :    0.038579
  15 H :    0.031639
  16 S :    0.095219
  17 C :   -0.073342
  18 C :   -0.034771
  19 C :   -0.096361
  20 C :   -0.100744
  21 H :    0.024459
  22 C :    0.067810
  23 H :    0.013321
  24 H :    0.031542
  25 C :   -0.046803
  26 H :    0.021169
  27 H :    0.013229
  28 C :   -0.046481
  29 H :    0.028782
  30 H :    0.048459
  31 H :    0.017784
  32 H :    0.045020
  33 H :    0.046310
Sum of atomic charges:    0.0000000

LOEWDIN ATOMIC CHARGES
----------------------
   0 S :    0.360090
   1 C :   -0.187240
   2 C :   -0.052467
   3 C :   -0.071574
   4 C :   -0.161383
   5 H :    0.017493
   6 C :   -0.032650
   7 H :    0.033311
   8 H :    0.025268
   9 C :   -0.042335
  10 H :    0.019934
  11 H :    0.027095
  12 C :   -0.052567
  13 H :    0.028353
  14 H :    0.027353
  15 H :    0.022967
  16 S :    0.406810
  17 C :   -0.174729
  18 C :   -0.067442
  19 C :   -0.045245
  20 C :   -0.202349
  21 H :    0.034144
  22 C :   -0.026839
  23 H :    0.027880
  24 H :    0.027016
  25 C :   -0.045520
  26 H :    0.020512
  27 H :    0.021599
  28 C :   -0.070747
  29 H :    0.024412
  30 H :    0.029547
  31 H :    0.025358
  32 H :    0.031204
  33 H :    0.022741

  Mayer bond orders larger than 0.100000
B(  0-S ,  1-C ) :   1.1017 B(  0-S ,  4-C ) :   1.1167 B(  1-C ,  2-C ) :   1.6817
B(  1-C , 32-H ) :   0.9647 B(  2-C ,  3-C ) :   1.2082 B(  2-C ,  6-C ) :   0.9912
B(  3-C ,  4-C ) :   1.5982 B(  3-C ,  5-H ) :   0.9855 B(  4-C , 20-C ) :   1.0935
B(  6-C ,  7-H ) :   0.9361 B(  6-C ,  8-H ) :   0.9421 B(  6-C ,  9-C ) :   1.0677
B(  9-C , 10-H ) :   0.9461 B(  9-C , 11-H ) :   0.9611 B(  9-C , 12-C ) :   1.0739
B( 12-C , 13-H ) :   0.9762 B( 12-C , 14-H ) :   0.9750 B( 12-C , 15-H ) :   0.9785
B( 16-S , 17-C ) :   1.1556 B( 16-S , 20-C ) :   1.1418 B( 17-C , 18-C ) :   1.6083
B( 17-C , 20-C ) :   0.1013 B( 17-C , 33-H ) :   0.9653 B( 18-C , 19-C ) :   1.2624
B( 18-C , 21-H ) :   0.9899 B( 19-C , 20-C ) :   1.5385 B( 19-C , 22-C ) :   1.0414
B( 22-C , 23-H ) :   0.9284 B( 22-C , 24-H ) :   0.9352 B( 22-C , 25-C ) :   1.0698
B( 25-C , 26-H ) :   0.9498 B( 25-C , 27-H ) :   0.9468 B( 25-C , 28-C ) :   1.0821
B( 28-C , 29-H ) :   0.9715 B( 28-C , 30-H ) :   0.9731 B( 28-C , 31-H ) :   0.9674

Dispersion correction           -0.014438961
FINAL SINGLE POINT ENERGY     -1339.864688814242

DIPOLE MOMENT
-------------
                                X             Y             Z
Electronic contribution:      7.78709      11.10868      31.61768
Nuclear contribution   :     -7.97964     -11.15507     -32.41963
                        -----------------------------------------
Total Dipole Moment    :     -0.19255      -0.04639      -0.80195
                        -----------------------------------------
Magnitude (a.u.)       :      0.82605
Magnitude (Debye)      :      2.09964

Rotational constants in cm-1:     0.018252     0.009471     0.006376
Rotational constants in MHz :   547.167484   283.926076   191.145999

                             ****ORCA TERMINATED NORMALLY****
TOTAL RUN TIME: 0 days 0 hours 0 minutes 22 seconds 201 msec
