                         Program Version 4.2.1 -  RELEASE  -
|  1> ! wB97X-D3 SP def2-SVP
|  2> %pal
|  3> nprocs 24
|  4> end
|  5>
|  6> * xyz 0 1
|  7> S 	 33.3688 	 -33.5855 	 -109.082
|  8> C 	 32.5079 	 -33.5069 	 -107.504
|  9> C 	 32.5261 	 -32.2437 	 -106.989
| 10> C 	 33.3184 	 -31.382 	 -107.749
| 11> C 	 33.8208 	 -31.9062 	 -108.923
| 12> H 	 33.4004 	 -30.309 	 -107.479
| 13> C 	 31.8347 	 -31.738 	 -105.713
| 14> H 	 31.0803 	 -32.4477 	 -105.461
| 15> H 	 31.3922 	 -30.8377 	 -105.978
| 16> C 	 32.879 	 -31.5257 	 -104.571
| 17> H 	 33.6375 	 -30.7566 	 -104.788
| 18> H 	 32.2363 	 -31.1461 	 -103.786
| 19> C 	 33.619 	 -32.8096 	 -104.127
| 20> H 	 33.1192 	 -33.3776 	 -103.295
| 21> H 	 33.6188 	 -33.5764 	 -104.967
| 22> H 	 34.6531 	 -32.5935 	 -103.869
| 23> S 	 34.3637 	 -31.6333 	 -111.612
| 24> C 	 35.6751 	 -30.5956 	 -112.055
| 25> C 	 36.3214 	 -30.1349 	 -110.974
| 26> C 	 35.8505 	 -30.676 	 -109.721
| 27> C 	 34.6262 	 -31.2567 	 -109.952
| 28> H 	 37.1965 	 -29.5316 	 -111.179
| 29> C 	 36.4986 	 -30.3426 	 -108.376
| 30> H 	 37.5081 	 -30.6893 	 -108.46
| 31> H 	 36.0338 	 -30.8679 	 -107.62
| 32> C 	 36.4199 	 -28.8664 	 -107.855
| 33> H 	 35.452 	 -28.6051 	 -107.448
| 34> H 	 36.4733 	 -28.2316 	 -108.722
| 35> C 	 37.4792 	 -28.7164 	 -106.842
| 36> H 	 38.4844 	 -28.6599 	 -107.292
| 37> H 	 37.5641 	 -29.6413 	 -106.197
| 38> H 	 37.4173 	 -27.7796 	 -106.26
| 39> H 	 32.1904 	 -34.3968 	 -107.014
| 40> H 	 35.9739 	 -30.303 	 -113.062
| 41> *
| 42>
| 43>                          ****END OF INPUT****

CARTESIAN COORDINATES (ANGSTROEM)
---------------------------------
  S     33.368800  -33.585500  -109.082000
  C     32.507900  -33.506900  -107.504000
  C     32.526100  -32.243700  -106.989000
  C     33.318400  -31.382000  -107.749000
  C     33.820800  -31.906200  -108.923000
  H     33.400400  -30.309000  -107.479000
  C     31.834700  -31.738000  -105.713000
  H     31.080300  -32.447700  -105.461000
  H     31.392200  -30.837700  -105.978000
  C     32.879000  -31.525700  -104.571000
  H     33.637500  -30.756600  -104.788000
  H     32.236300  -31.146100  -103.786000
  C     33.619000  -32.809600  -104.127000
  H     33.119200  -33.377600  -103.295000
  H     33.618800  -33.576400  -104.967000
  H     34.653100  -32.593500  -103.869000
  S     34.363700  -31.633300  -111.612000
  C     35.675100  -30.595600  -112.055000
  C     36.321400  -30.134900  -110.974000
  C     35.850500  -30.676000  -109.721000
  C     34.626200  -31.256700  -109.952000
  H     37.196500  -29.531600  -111.179000
  C     36.498600  -30.342600  -108.376000
  H     37.508100  -30.689300  -108.460000
  H     36.033800  -30.867900  -107.620000
  C     36.419900  -28.866400  -107.855000
  H     35.452000  -28.605100  -107.448000
  H     36.473300  -28.231600  -108.722000
  C     37.479200  -28.716400  -106.842000
  H     38.484400  -28.659900  -107.292000
  H     37.564100  -29.641300  -106.197000
  H     37.417300  -27.779600  -106.260000
  H     32.190400  -34.396800  -107.014000
  H     35.973900  -30.303000  -113.062000

 Total Charge           Charge          ....    0
 Multiplicity           Mult            ....    1
 Number of Electrons    NEL             ....  134
 Basis Dimension        Dim             ....  322

ORBITAL ENERGIES
----------------

  NO   OCC          E(Eh)            E(eV)
   0   2.0000     -88.963798     -2420.8280
   1   2.0000     -88.962628     -2420.7962
   2   2.0000     -10.327502      -281.0256
   3   2.0000     -10.321711      -280.8680
   4   2.0000     -10.310637      -280.5667
   5   2.0000     -10.310449      -280.5616
   6   2.0000     -10.302083      -280.3339
   7   2.0000     -10.294830      -280.1366
   8   2.0000     -10.291868      -280.0560
   9   2.0000     -10.290170      -280.0098
  10   2.0000     -10.289719      -279.9975
  11   2.0000     -10.288125      -279.9541
  12   2.0000     -10.284808      -279.8639
  13   2.0000     -10.283849      -279.8378
  14   2.0000     -10.283845      -279.8376
  15   2.0000     -10.282854      -279.8107
  16   2.0000      -8.079705      -219.8599
  17   2.0000      -8.076982      -219.7858
  18   2.0000      -6.038250      -164.3091
  19   2.0000      -6.035508      -164.2345
  20   2.0000      -6.034227      -164.1997
  21   2.0000      -6.031634      -164.1291
  22   2.0000      -6.030177      -164.0895
  23   2.0000      -6.027661      -164.0210
  24   2.0000      -1.012652       -27.5557
  25   2.0000      -0.986929       -26.8557
  26   2.0000      -0.915451       -24.9107
  27   2.0000      -0.910736       -24.7824
  28   2.0000      -0.868790       -23.6410
  29   2.0000      -0.855271       -23.2731
  30   2.0000      -0.840758       -22.8782
  31   2.0000      -0.813725       -22.1426
  32   2.0000      -0.785907       -21.3856
  33   2.0000      -0.774205       -21.0672
  34   2.0000      -0.709064       -19.2946
  35   2.0000      -0.703216       -19.1355
  36   2.0000      -0.695744       -18.9321
  37   2.0000      -0.656271       -17.8580
  38   2.0000      -0.637446       -17.3458
  39   2.0000      -0.625466       -17.0198
  40   2.0000      -0.602268       -16.3886
  41   2.0000      -0.566625       -15.4187
  42   2.0000      -0.563380       -15.3303
  43   2.0000      -0.553141       -15.0517
  44   2.0000      -0.533321       -14.5124
  45   2.0000      -0.528727       -14.3874
  46   2.0000      -0.524907       -14.2834
  47   2.0000      -0.514476       -13.9996
  48   2.0000      -0.509265       -13.8578
  49   2.0000      -0.497310       -13.5325
  50   2.0000      -0.484419       -13.1817
  51   2.0000      -0.477667       -12.9980
  52   2.0000      -0.470068       -12.7912
  53   2.0000      -0.463823       -12.6213
  54   2.0000      -0.457201       -12.4411
  55   2.0000      -0.450971       -12.2716
  56   2.0000      -0.445723       -12.1287
  57   2.0000      -0.438033       -11.9195
  58   2.0000      -0.436570       -11.8797
  59   2.0000      -0.434810       -11.8318
  60   2.0000      -0.424656       -11.5555
  61   2.0000      -0.412177       -11.2159
  62   2.0000      -0.408048       -11.1035
  63   2.0000      -0.348933        -9.4950
  64   2.0000      -0.332208        -9.0398
  65   2.0000      -0.329929        -8.9778
  66   2.0000      -0.290713        -7.9107
  67   0.0000       0.033376         0.9082
  68   0.0000       0.074186         2.0187
  69   0.0000       0.106115         2.8875
  70   0.0000       0.122991         3.3467
  71   0.0000       0.129814         3.5324

MULLIKEN ATOMIC CHARGES
-----------------------
   0 S :    0.091605
   1 C :   -0.139017
   2 C :   -0.094800
   3 C :   -0.009708
   4 C :   -0.128577
   5 H :    0.016867
   6 C :    0.130398
   7 H :    0.017159
   8 H :    0.014578
   9 C :   -0.076123
  10 H :    0.036163
  11 H :    0.033777
  12 C :   -0.082953
  13 H :    0.039583
  14 H :    0.037300
  15 H :    0.040281
  16 S :    0.105910
  17 C :   -0.085058
  18 C :   -0.021597
  19 C :   -0.059728
  20 C :   -0.140352
  21 H :    0.014309
  22 C :    0.083113
  23 H :    0.026576
  24 H :    0.008077
  25 C :   -0.029415
  26 H :    0.020389
  27 H :    0.017898
  28 C :   -0.064413
  29 H :    0.028043
  30 H :    0.038767
  31 H :    0.038127
  32 H :    0.039605
  33 H :    0.053214
Sum of atomic charges:    0.0000000

LOEWDIN ATOMIC CHARGES
----------------------
   0 S :    0.380144
   1 C :   -0.182917
   2 C :   -0.063078
   3 C :   -0.075731
   4 C :   -0.180692
   5 H :    0.033797
   6 C :   -0.011728
   7 H :    0.027271
   8 H :    0.023825
   9 C :   -0.039426
  10 H :    0.026041
  11 H :    0.024897
  12 C :   -0.078302
  13 H :    0.029972
  14 H :    0.031684
  15 H :    0.026647
  16 S :    0.412419
  17 C :   -0.190150
  18 C :   -0.073013
  19 C :   -0.048880
  20 C :   -0.206407
  21 H :    0.030841
  22 C :   -0.019319
  23 H :    0.031237
  24 H :    0.018707
  25 C :   -0.036093
  26 H :    0.020768
  27 H :    0.019918
  28 C :   -0.072083
  29 H :    0.026820
  30 H :    0.032863
  31 H :    0.027869
  32 H :    0.018674
  33 H :    0.033425

  Mayer bond orders larger than 0.100000
B(  0-S ,  1-C ) :   1.1195 B(  0-S ,  4-C ) :   1.1545 B(  1-C ,  2-C ) :   1.6150
B(  1-C , 32-H ) :   0.9710 B(  2-C ,  3-C ) :   1.2503 B(  2-C ,  6-C ) :   1.0136
B(  3-C ,  4-C ) :   1.5755 B(  3-C ,  5-H ) :   0.9895 B(  4-C , 20-C ) :   1.0394
B(  6-C ,  7-H ) :   0.9439 B(  6-C ,  8-H ) :   0.9341 B(  6-C ,  9-C ) :   1.0697
B(  9-C , 10-H ) :   0.9638 B(  9-C , 11-H ) :   0.9603 B(  9-C , 12-C ) :   1.0536
B( 12-C , 13-H ) :   0.9760 B( 12-C , 14-H ) :   0.9773 B( 12-C , 15-H ) :   0.9784
B( 16-S , 17-C ) :   1.1321 B( 16-S , 20-C ) :   1.1369 B( 17-C , 18-C ) :   1.6676
B( 17-C , 33-H ) :   0.9635 B( 18-C , 19-C ) :   1.1922 B( 18-C , 21-H ) :   0.9877
B( 19-C , 20-C ) :   1.5988 B( 19-C , 22-C ) :   1.0562 B( 22-C , 23-H ) :   0.9375
B( 22-C , 24-H ) :   0.9203 B( 22-C , 25-C ) :   1.0477 B( 25-C , 26-H ) :   0.9529
B( 25-C , 27-H ) :   0.9575 B( 25-C , 28-C ) :   1.0781 B( 28-C , 29-H ) :   0.9735
B( 28-C , 30-H ) :   0.9691 B( 28-C , 31-H ) :   0.9701

Dispersion correction           -0.014721094
FINAL SINGLE POINT ENERGY     -1339.873698360657

DIPOLE MOMENT
-------------
                                X             Y             Z
Electronic contribution:     -7.79483     -11.65499     -27.58166
Nuclear contribution   :      8.06176      12.09989      28.11181
                        -----------------------------------------
Total Dipole Moment    :      0.26694       0.44490       0.53015
                        -----------------------------------------
Magnitude (a.u.)       :      0.74179
Magnitude (Debye)      :      1.88548

Rotational constants in cm-1:     0.017433     0.010196     0.006951
Rotational constants in MHz :   522.619698   305.671021   208.394284

                             ****ORCA TERMINATED NORMALLY****
TOTAL RUN TIME: 0 days 0 hours 0 minutes 22 seconds 409 msec
