                         Program Version 4.2.1 -  RELEASE  -
|  1> ! wB97X-D3 SP def2-SVP
|  2> %pal
|  3> nprocs 24
|  4> end
|  5>
|  6> * xyz 0 1
|  7> S 	 -121.878 	 66.1422 	 -62.0384
|  8> C 	 -123.553 	 66.1529 	 -62.2479
|  9> C 	 -124.156 	 65.1272 	 -61.586
| 10> C 	 -123.188 	 64.403 	 -60.7905
| 11> C 	 -121.878 	 64.8456 	 -60.9005
| 12> H 	 -123.374 	 63.628 	 -60.0131
| 13> C 	 -125.666 	 64.8413 	 -61.4341
| 14> H 	 -126.033 	 65.6963 	 -61.9187
| 15> H 	 -125.792 	 64.9417 	 -60.3364
| 16> C 	 -126.182 	 63.4083 	 -61.9499
| 17> H 	 -127.248 	 63.517 	 -62.1124
| 18> H 	 -125.767 	 63.135 	 -62.9479
| 19> C 	 -125.933 	 62.2135 	 -60.9937
| 20> H 	 -126.118 	 62.4157 	 -59.9358
| 21> H 	 -126.701 	 61.4706 	 -61.2081
| 22> H 	 -124.926 	 61.8764 	 -61.0161
| 23> S 	 -119.314 	 65.6282 	 -59.7852
| 24> C 	 -118.398 	 64.4103 	 -58.9496
| 25> C 	 -119.024 	 63.1595 	 -58.9149
| 26> C 	 -120.333 	 63.2488 	 -59.5207
| 27> C 	 -120.624 	 64.4295 	 -60.1636
| 28> H 	 -118.625 	 62.3426 	 -58.3619
| 29> C 	 -121.11 	 61.9372 	 -59.6155
| 30> H 	 -122.029 	 61.9938 	 -58.9798
| 31> H 	 -120.445 	 61.1308 	 -59.2659
| 32> C 	 -121.567 	 61.404 	 -60.9565
| 33> H 	 -122.372 	 61.9992 	 -61.2913
| 34> H 	 -122.09 	 60.5635 	 -60.6889
| 35> C 	 -120.441 	 61.0199 	 -62.0069
| 36> H 	 -120.175 	 61.9156 	 -62.5922
| 37> H 	 -120.876 	 60.2307 	 -62.6235
| 38> H 	 -119.594 	 60.4845 	 -61.4528
| 39> H 	 -124.04 	 66.9003 	 -62.7973
| 40> H 	 -117.482 	 64.5476 	 -58.3375
| 41> *
| 42>
| 43>                          ****END OF INPUT****

CARTESIAN COORDINATES (ANGSTROEM)
---------------------------------
  S    -121.878000   66.142200  -62.038400
  C    -123.553000   66.152900  -62.247900
  C    -124.156000   65.127200  -61.586000
  C    -123.188000   64.403000  -60.790500
  C    -121.878000   64.845600  -60.900500
  H    -123.374000   63.628000  -60.013100
  C    -125.666000   64.841300  -61.434100
  H    -126.033000   65.696300  -61.918700
  H    -125.792000   64.941700  -60.336400
  C    -126.182000   63.408300  -61.949900
  H    -127.248000   63.517000  -62.112400
  H    -125.767000   63.135000  -62.947900
  C    -125.933000   62.213500  -60.993700
  H    -126.118000   62.415700  -59.935800
  H    -126.701000   61.470600  -61.208100
  H    -124.926000   61.876400  -61.016100
  S    -119.314000   65.628200  -59.785200
  C    -118.398000   64.410300  -58.949600
  C    -119.024000   63.159500  -58.914900
  C    -120.333000   63.248800  -59.520700
  C    -120.624000   64.429500  -60.163600
  H    -118.625000   62.342600  -58.361900
  C    -121.110000   61.937200  -59.615500
  H    -122.029000   61.993800  -58.979800
  H    -120.445000   61.130800  -59.265900
  C    -121.567000   61.404000  -60.956500
  H    -122.372000   61.999200  -61.291300
  H    -122.090000   60.563500  -60.688900
  C    -120.441000   61.019900  -62.006900
  H    -120.175000   61.915600  -62.592200
  H    -120.876000   60.230700  -62.623500
  H    -119.594000   60.484500  -61.452800
  H    -124.040000   66.900300  -62.797300
  H    -117.482000   64.547600  -58.337500

 Total Charge           Charge          ....    0
 Multiplicity           Mult            ....    1
 Number of Electrons    NEL             ....  134
 Basis Dimension        Dim             ....  322

ORBITAL ENERGIES
----------------

  NO   OCC          E(Eh)            E(eV)
   0   2.0000     -88.970246     -2421.0035
   1   2.0000     -88.961676     -2420.7703
   2   2.0000     -10.336929      -281.2822
   3   2.0000     -10.333377      -281.1855
   4   2.0000     -10.323262      -280.9103
   5   2.0000     -10.305753      -280.4338
   6   2.0000     -10.304173      -280.3908
   7   2.0000     -10.301053      -280.3059
   8   2.0000     -10.298975      -280.2493
   9   2.0000     -10.297951      -280.2215
  10   2.0000     -10.295382      -280.1516
  11   2.0000     -10.294967      -280.1403
  12   2.0000     -10.292684      -280.0782
  13   2.0000     -10.284996      -279.8690
  14   2.0000     -10.280561      -279.7483
  15   2.0000     -10.271248      -279.4949
  16   2.0000      -8.083884      -219.9737
  17   2.0000      -8.078191      -219.8188
  18   2.0000      -6.042571      -164.4267
  19   2.0000      -6.038560      -164.3176
  20   2.0000      -6.036605      -164.2644
  21   2.0000      -6.034491      -164.2069
  22   2.0000      -6.032320      -164.1478
  23   2.0000      -6.029092      -164.0599
  24   2.0000      -1.008763       -27.4498
  25   2.0000      -0.984725       -26.7957
  26   2.0000      -0.907193       -24.6860
  27   2.0000      -0.902114       -24.5478
  28   2.0000      -0.866608       -23.5816
  29   2.0000      -0.847942       -23.0737
  30   2.0000      -0.843022       -22.9398
  31   2.0000      -0.815758       -22.1979
  32   2.0000      -0.783261       -21.3136
  33   2.0000      -0.774640       -21.0790
  34   2.0000      -0.711161       -19.3517
  35   2.0000      -0.705968       -19.2104
  36   2.0000      -0.683591       -18.6014
  37   2.0000      -0.663751       -18.0616
  38   2.0000      -0.645260       -17.5584
  39   2.0000      -0.613828       -16.7031
  40   2.0000      -0.585166       -15.9232
  41   2.0000      -0.569206       -15.4889
  42   2.0000      -0.555664       -15.1204
  43   2.0000      -0.546455       -14.8698
  44   2.0000      -0.543490       -14.7891
  45   2.0000      -0.541234       -14.7277
  46   2.0000      -0.514308       -13.9950
  47   2.0000      -0.507071       -13.7981
  48   2.0000      -0.503932       -13.7127
  49   2.0000      -0.494540       -13.4571
  50   2.0000      -0.485931       -13.2229
  51   2.0000      -0.481710       -13.1080
  52   2.0000      -0.474733       -12.9181
  53   2.0000      -0.469364       -12.7720
  54   2.0000      -0.459996       -12.5171
  55   2.0000      -0.446386       -12.1468
  56   2.0000      -0.441528       -12.0146
  57   2.0000      -0.435521       -11.8511
  58   2.0000      -0.431891       -11.7524
  59   2.0000      -0.426889       -11.6162
  60   2.0000      -0.418308       -11.3827
  61   2.0000      -0.413402       -11.2492
  62   2.0000      -0.407428       -11.0867
  63   2.0000      -0.358726        -9.7614
  64   2.0000      -0.332381        -9.0445
  65   2.0000      -0.326220        -8.8769
  66   2.0000      -0.289302        -7.8723
  67   0.0000       0.025454         0.6926
  68   0.0000       0.080380         2.1873
  69   0.0000       0.108548         2.9537
  70   0.0000       0.118946         3.2367
  71   0.0000       0.126574         3.4443

MULLIKEN ATOMIC CHARGES
-----------------------
   0 S :    0.102122
   1 C :   -0.107220
   2 C :   -0.106396
   3 C :   -0.004003
   4 C :   -0.149523
   5 H :    0.013857
   6 C :    0.086296
   7 H :    0.002514
   8 H :    0.046102
   9 C :   -0.067032
  10 H :    0.032974
  11 H :    0.041989
  12 C :   -0.050624
  13 H :    0.021268
  14 H :    0.038153
  15 H :    0.036465
  16 S :    0.107641
  17 C :   -0.093439
  18 C :   -0.031201
  19 C :   -0.044046
  20 C :   -0.104707
  21 H :    0.016407
  22 C :   -0.005749
  23 H :    0.041058
  24 H :    0.016850
  25 C :   -0.026990
  26 H :    0.013046
  27 H :   -0.004971
  28 C :   -0.056542
  29 H :    0.065200
  30 H :    0.034852
  31 H :    0.035442
  32 H :    0.029114
  33 H :    0.071093
Sum of atomic charges:    0.0000000

LOEWDIN ATOMIC CHARGES
----------------------
   0 S :    0.432885
   1 C :   -0.210222
   2 C :   -0.066407
   3 C :   -0.079472
   4 C :   -0.194987
   5 H :    0.032149
   6 C :   -0.024461
   7 H :    0.020991
   8 H :    0.039283
   9 C :   -0.035150
  10 H :    0.024076
  11 H :    0.032114
  12 C :   -0.068328
  13 H :    0.024187
  14 H :    0.032673
  15 H :    0.019492
  16 S :    0.387328
  17 C :   -0.187667
  18 C :   -0.071128
  19 C :   -0.056979
  20 C :   -0.183083
  21 H :    0.028830
  22 C :   -0.034230
  23 H :    0.034129
  24 H :    0.028685
  25 C :   -0.042627
  26 H :    0.014158
  27 H :    0.013943
  28 C :   -0.064584
  29 H :    0.034776
  30 H :    0.027018
  31 H :    0.032696
  32 H :    0.019522
  33 H :    0.040390

  Mayer bond orders larger than 0.100000
B(  0-S ,  1-C ) :   1.1543 B(  0-S ,  4-C ) :   1.1656 B(  1-C ,  2-C ) :   1.6067
B(  1-C , 32-H ) :   0.9741 B(  2-C ,  3-C ) :   1.2442 B(  2-C ,  6-C ) :   1.0004
B(  3-C ,  4-C ) :   1.5851 B(  3-C ,  5-H ) :   0.9751 B(  4-C , 20-C ) :   1.0344
B(  6-C ,  7-H ) :   0.9398 B(  6-C ,  8-H ) :   0.9490 B(  6-C ,  9-C ) :   1.0469
B(  9-C , 10-H ) :   0.9627 B(  9-C , 11-H ) :   0.9591 B(  9-C , 12-C ) :   1.0730
B( 12-C , 13-H ) :   0.9733 B( 12-C , 14-H ) :   0.9712 B( 12-C , 15-H ) :   0.9762
B( 16-S , 17-C ) :   1.1614 B( 16-S , 20-C ) :   1.1054 B( 17-C , 18-C ) :   1.6147
B( 17-C , 33-H ) :   0.9571 B( 18-C , 19-C ) :   1.2379 B( 18-C , 21-H ) :   0.9899
B( 19-C , 20-C ) :   1.6221 B( 19-C , 22-C ) :   1.0320 B( 22-C , 23-H ) :   0.9236
B( 22-C , 24-H ) :   0.9448 B( 22-C , 25-C ) :   1.0956 B( 25-C , 26-H ) :   0.9360
B( 25-C , 27-H ) :   0.9427 B( 25-C , 28-C ) :   1.0603 B( 28-C , 29-H ) :   0.9765
B( 28-C , 30-H ) :   0.9770 B( 28-C , 31-H ) :   0.9749

Dispersion correction           -0.015527646
FINAL SINGLE POINT ENERGY     -1339.860625525946

DIPOLE MOMENT
-------------
                                X             Y             Z
Electronic contribution:     17.75807      23.54115       1.99764
Nuclear contribution   :    -18.25516     -24.07813      -1.74383
                        -----------------------------------------
Total Dipole Moment    :     -0.49709      -0.53697       0.25381
                        -----------------------------------------
Magnitude (a.u.)       :      0.77451
Magnitude (Debye)      :      1.96864

Rotational constants in cm-1:     0.019230     0.009771     0.007363
Rotational constants in MHz :   576.508241   292.916248   220.730643

                             ****ORCA TERMINATED NORMALLY****
TOTAL RUN TIME: 0 days 0 hours 0 minutes 22 seconds 542 msec
