                         Program Version 4.2.1 -  RELEASE  -
|  1> ! wB97X-D3 SP def2-SVP
|  2> %pal
|  3> nprocs 24
|  4> end
|  5>
|  6> * xyz 0 1
|  7> S 	 -68.8298 	 -53.3124 	 -83.5684
|  8> C 	 -69.9438 	 -54.0066 	 -84.8162
|  9> C 	 -70.2998 	 -55.3465 	 -84.5933
| 10> C 	 -70.0055 	 -55.6337 	 -83.2217
| 11> C 	 -69.1763 	 -54.7054 	 -82.5747
| 12> H 	 -70.1779 	 -56.5918 	 -82.6685
| 13> C 	 -71.0587 	 -56.2633 	 -85.5646
| 14> H 	 -71.1216 	 -55.7547 	 -86.5564
| 15> H 	 -72.0966 	 -56.444 	 -85.323
| 16> C 	 -70.4407 	 -57.6917 	 -85.8167
| 17> H 	 -71.0763 	 -58.1899 	 -86.5519
| 18> H 	 -69.3939 	 -57.5989 	 -86.1519
| 19> C 	 -70.2672 	 -58.506 	 -84.5087
| 20> H 	 -69.423 	 -58.2017 	 -83.8668
| 21> H 	 -71.2177 	 -58.5565 	 -83.9678
| 22> H 	 -70.0704 	 -59.5043 	 -84.8618
| 23> S 	 -69.1798 	 -53.7187 	 -79.987
| 24> C 	 -68.2207 	 -54.5173 	 -78.7098
| 25> C 	 -67.6488 	 -55.6624 	 -79.1903
| 26> C 	 -67.7983 	 -55.8252 	 -80.6166
| 27> C 	 -68.6631 	 -54.8541 	 -81.1855
| 28> H 	 -67.0014 	 -56.2391 	 -78.4822
| 29> C 	 -66.9149 	 -56.8062 	 -81.3457
| 30> H 	 -67.5396 	 -57.2395 	 -82.2191
| 31> H 	 -66.7279 	 -57.5952 	 -80.6917
| 32> C 	 -65.6201 	 -56.1533 	 -81.7574
| 33> H 	 -65.8152 	 -55.0315 	 -81.8427
| 34> H 	 -65.3869 	 -56.5207 	 -82.7006
| 35> C 	 -64.4494 	 -56.4046 	 -80.8379
| 36> H 	 -64.4236 	 -55.9351 	 -79.8902
| 37> H 	 -63.5768 	 -55.901 	 -81.2012
| 38> H 	 -64.3339 	 -57.4884 	 -80.709
| 39> H 	 -70.0184 	 -53.6019 	 -85.8376
| 40> H 	 -68.2926 	 -54.4239 	 -77.6443
| 41> *
| 42>
| 43>                          ****END OF INPUT****

CARTESIAN COORDINATES (ANGSTROEM)
---------------------------------
  S    -68.829800  -53.312400  -83.568400
  C    -69.943800  -54.006600  -84.816200
  C    -70.299800  -55.346500  -84.593300
  C    -70.005500  -55.633700  -83.221700
  C    -69.176300  -54.705400  -82.574700
  H    -70.177900  -56.591800  -82.668500
  C    -71.058700  -56.263300  -85.564600
  H    -71.121600  -55.754700  -86.556400
  H    -72.096600  -56.444000  -85.323000
  C    -70.440700  -57.691700  -85.816700
  H    -71.076300  -58.189900  -86.551900
  H    -69.393900  -57.598900  -86.151900
  C    -70.267200  -58.506000  -84.508700
  H    -69.423000  -58.201700  -83.866800
  H    -71.217700  -58.556500  -83.967800
  H    -70.070400  -59.504300  -84.861800
  S    -69.179800  -53.718700  -79.987000
  C    -68.220700  -54.517300  -78.709800
  C    -67.648800  -55.662400  -79.190300
  C    -67.798300  -55.825200  -80.616600
  C    -68.663100  -54.854100  -81.185500
  H    -67.001400  -56.239100  -78.482200
  C    -66.914900  -56.806200  -81.345700
  H    -67.539600  -57.239500  -82.219100
  H    -66.727900  -57.595200  -80.691700
  C    -65.620100  -56.153300  -81.757400
  H    -65.815200  -55.031500  -81.842700
  H    -65.386900  -56.520700  -82.700600
  C    -64.449400  -56.404600  -80.837900
  H    -64.423600  -55.935100  -79.890200
  H    -63.576800  -55.901000  -81.201200
  H    -64.333900  -57.488400  -80.709000
  H    -70.018400  -53.601900  -85.837600
  H    -68.292600  -54.423900  -77.644300

 Total Charge           Charge          ....    0
 Multiplicity           Mult            ....    1
 Number of Electrons    NEL             ....  134
 Basis Dimension        Dim             ....  322

ORBITAL ENERGIES
----------------

  NO   OCC          E(Eh)            E(eV)
   0   2.0000     -88.971851     -2421.0471
   1   2.0000     -88.965346     -2420.8701
   2   2.0000     -10.332330      -281.1570
   3   2.0000     -10.328924      -281.0643
   4   2.0000     -10.321379      -280.8590
   5   2.0000     -10.314328      -280.6671
   6   2.0000     -10.311148      -280.5806
   7   2.0000     -10.304944      -280.4118
   8   2.0000     -10.301450      -280.3167
   9   2.0000     -10.298394      -280.2335
  10   2.0000     -10.295475      -280.1541
  11   2.0000     -10.295373      -280.1513
  12   2.0000     -10.287522      -279.9377
  13   2.0000     -10.280718      -279.7526
  14   2.0000     -10.279600      -279.7221
  15   2.0000     -10.270836      -279.4837
  16   2.0000      -8.085397      -220.0148
  17   2.0000      -8.079660      -219.8587
  18   2.0000      -6.043861      -164.4618
  19   2.0000      -6.040288      -164.3646
  20   2.0000      -6.038283      -164.3100
  21   2.0000      -6.036063      -164.2496
  22   2.0000      -6.034102      -164.1963
  23   2.0000      -6.030439      -164.0966
  24   2.0000      -0.999340       -27.1934
  25   2.0000      -0.977448       -26.5977
  26   2.0000      -0.914494       -24.8846
  27   2.0000      -0.906737       -24.6736
  28   2.0000      -0.865726       -23.5576
  29   2.0000      -0.846104       -23.0237
  30   2.0000      -0.842890       -22.9362
  31   2.0000      -0.814153       -22.1542
  32   2.0000      -0.786628       -21.4052
  33   2.0000      -0.770767       -20.9736
  34   2.0000      -0.706916       -19.2362
  35   2.0000      -0.695952       -18.9378
  36   2.0000      -0.688571       -18.7370
  37   2.0000      -0.654040       -17.7973
  38   2.0000      -0.637203       -17.3392
  39   2.0000      -0.612902       -16.6779
  40   2.0000      -0.592245       -16.1158
  41   2.0000      -0.577876       -15.7248
  42   2.0000      -0.552876       -15.0445
  43   2.0000      -0.546265       -14.8646
  44   2.0000      -0.540945       -14.7199
  45   2.0000      -0.533893       -14.5280
  46   2.0000      -0.520724       -14.1696
  47   2.0000      -0.508129       -13.8269
  48   2.0000      -0.500877       -13.6295
  49   2.0000      -0.492327       -13.3969
  50   2.0000      -0.487873       -13.2757
  51   2.0000      -0.478183       -13.0120
  52   2.0000      -0.474281       -12.9058
  53   2.0000      -0.465306       -12.6616
  54   2.0000      -0.457773       -12.4566
  55   2.0000      -0.442216       -12.0333
  56   2.0000      -0.439918       -11.9708
  57   2.0000      -0.434400       -11.8206
  58   2.0000      -0.432998       -11.7825
  59   2.0000      -0.425986       -11.5917
  60   2.0000      -0.421423       -11.4675
  61   2.0000      -0.415372       -11.3029
  62   2.0000      -0.409803       -11.1513
  63   2.0000      -0.340696        -9.2708
  64   2.0000      -0.334343        -9.0979
  65   2.0000      -0.323154        -8.7935
  66   2.0000      -0.295933        -8.0528
  67   0.0000       0.032057         0.8723
  68   0.0000       0.058013         1.5786
  69   0.0000       0.100665         2.7392
  70   0.0000       0.118561         3.2262
  71   0.0000       0.127808         3.4778

MULLIKEN ATOMIC CHARGES
-----------------------
   0 S :    0.119650
   1 C :   -0.122206
   2 C :   -0.085475
   3 C :    0.025104
   4 C :   -0.172257
   5 H :    0.033555
   6 C :    0.048875
   7 H :    0.022859
   8 H :    0.041086
   9 C :   -0.087562
  10 H :    0.040785
  11 H :    0.036177
  12 C :   -0.077792
  13 H :    0.059886
  14 H :    0.033868
  15 H :    0.027398
  16 S :    0.108912
  17 C :   -0.082261
  18 C :   -0.066275
  19 C :   -0.079106
  20 C :   -0.163940
  21 H :    0.040312
  22 C :    0.091309
  23 H :    0.037765
  24 H :   -0.003027
  25 C :   -0.036762
  26 H :    0.044518
  27 H :    0.013106
  28 C :   -0.025839
  29 H :    0.014918
  30 H :    0.020367
  31 H :    0.032809
  32 H :    0.056037
  33 H :    0.053202
Sum of atomic charges:   -0.0000000

LOEWDIN ATOMIC CHARGES
----------------------
   0 S :    0.389844
   1 C :   -0.183829
   2 C :   -0.056848
   3 C :   -0.065008
   4 C :   -0.203062
   5 H :    0.039347
   6 C :   -0.035246
   7 H :    0.033417
   8 H :    0.030898
   9 C :   -0.035215
  10 H :    0.026836
  11 H :    0.028349
  12 C :   -0.071598
  13 H :    0.028584
  14 H :    0.022904
  15 H :    0.025492
  16 S :    0.406036
  17 C :   -0.183516
  18 C :   -0.077575
  19 C :   -0.055616
  20 C :   -0.213870
  21 H :    0.040221
  22 C :   -0.032382
  23 H :    0.038142
  24 H :    0.017361
  25 C :   -0.035533
  26 H :    0.036388
  27 H :    0.017937
  28 C :   -0.065870
  29 H :    0.020347
  30 H :    0.028671
  31 H :    0.026629
  32 H :    0.027553
  33 H :    0.030213

  Mayer bond orders larger than 0.100000
B(  0-S ,  1-C ) :   1.1321 B(  0-S ,  4-C ) :   1.1488 B(  1-C ,  2-C ) :   1.6310
B(  1-C , 32-H ) :   0.9551 B(  2-C ,  3-C ) :   1.2193 B(  2-C ,  6-C ) :   1.0248
B(  3-C ,  4-C ) :   1.6005 B(  3-C ,  5-H ) :   0.9729 B(  4-C , 20-C ) :   1.0144
B(  6-C ,  7-H ) :   0.9394 B(  6-C ,  8-H ) :   0.9460 B(  6-C ,  9-C ) :   1.0667
B(  9-C , 10-H ) :   0.9589 B(  9-C , 11-H ) :   0.9548 B(  9-C , 12-C ) :   1.0796
B( 12-C , 13-H ) :   0.9686 B( 12-C , 14-H ) :   0.9728 B( 12-C , 15-H ) :   0.9677
B( 16-S , 17-C ) :   1.1415 B( 16-S , 20-C ) :   1.1546 B( 17-C , 18-C ) :   1.6434
B( 17-C , 33-H ) :   0.9600 B( 18-C , 19-C ) :   1.2462 B( 18-C , 21-H ) :   0.9734
B( 19-C , 20-C ) :   1.5792 B( 19-C , 22-C ) :   1.0623 B( 22-C , 23-H ) :   0.9271
B( 22-C , 24-H ) :   0.9261 B( 22-C , 25-C ) :   1.0484 B( 25-C , 26-H ) :   0.9564
B( 25-C , 27-H ) :   0.9500 B( 25-C , 28-C ) :   1.0950 B( 28-C , 29-H ) :   0.9676
B( 28-C , 30-H ) :   0.9647 B( 28-C , 31-H ) :   0.9739

Dispersion correction           -0.015120524
FINAL SINGLE POINT ENERGY     -1339.857107125560

DIPOLE MOMENT
-------------
                                X             Y             Z
Electronic contribution:     -7.83490      22.57056       8.50784
Nuclear contribution   :      8.03997     -23.31771      -8.73264
                        -----------------------------------------
Total Dipole Moment    :      0.20506      -0.74715      -0.22479
                        -----------------------------------------
Magnitude (a.u.)       :      0.80673
Magnitude (Debye)      :      2.05055

Rotational constants in cm-1:     0.018394     0.008971     0.007545
Rotational constants in MHz :   551.426613   268.932952   226.203778

                             ****ORCA TERMINATED NORMALLY****
TOTAL RUN TIME: 0 days 0 hours 0 minutes 22 seconds 202 msec
