                         Program Version 4.2.1 -  RELEASE  -
|  1> ! wB97X-D3 SP def2-SVP
|  2> %pal
|  3> nprocs 24
|  4> end
|  5>
|  6> * xyz 0 1
|  7> S 	 -55.1271 	 -59.3417 	 -80.915
|  8> C 	 -55.2525 	 -57.7664 	 -80.1975
|  9> C 	 -56.4597 	 -57.1095 	 -80.4442
| 10> C 	 -57.3243 	 -58.0083 	 -81.1047
| 11> C 	 -56.7268 	 -59.1804 	 -81.5322
| 12> H 	 -58.3673 	 -57.7612 	 -81.2303
| 13> C 	 -56.8143 	 -55.7219 	 -79.9109
| 14> H 	 -57.8065 	 -55.4767 	 -80.2141
| 15> H 	 -56.2309 	 -54.9889 	 -80.4303
| 16> C 	 -56.7702 	 -55.587 	 -78.3386
| 17> H 	 -57.4963 	 -56.3103 	 -77.8947
| 18> H 	 -55.7991 	 -55.8653 	 -78.0586
| 19> C 	 -57.1635 	 -54.2108 	 -77.6673
| 20> H 	 -56.4619 	 -53.4374 	 -77.9606
| 21> H 	 -58.23 	 -53.9443 	 -77.81
| 22> H 	 -56.9917 	 -54.1446 	 -76.6297
| 23> S 	 -57.0371 	 -61.8046 	 -81.2584
| 24> C 	 -57.9288 	 -62.7298 	 -82.4329
| 25> C 	 -58.5124 	 -61.9416 	 -83.3881
| 26> C 	 -58.3445 	 -60.5553 	 -83.0853
| 27> C 	 -57.3524 	 -60.3371 	 -82.1332
| 28> H 	 -59.0547 	 -62.4726 	 -84.1926
| 29> C 	 -58.96 	 -59.4745 	 -83.9682
| 30> H 	 -58.9384 	 -58.5096 	 -83.4502
| 31> H 	 -59.9978 	 -59.6971 	 -84.0118
| 32> C 	 -58.4315 	 -59.3474 	 -85.4232
| 33> H 	 -59.1897 	 -58.8488 	 -86.0616
| 34> H 	 -58.453 	 -60.3124 	 -85.7065
| 35> C 	 -57.0919 	 -58.6362 	 -85.5503
| 36> H 	 -56.3756 	 -59.3645 	 -85.2588
| 37> H 	 -56.8124 	 -57.7762 	 -84.904
| 38> H 	 -56.9038 	 -58.5241 	 -86.6476
| 39> H 	 -54.4167 	 -57.3157 	 -79.6554
| 40> H 	 -58.2602 	 -63.762 	 -82.35
| 41> *
| 42>
| 43>                          ****END OF INPUT****

CARTESIAN COORDINATES (ANGSTROEM)
---------------------------------
  S    -55.127100  -59.341700  -80.915000
  C    -55.252500  -57.766400  -80.197500
  C    -56.459700  -57.109500  -80.444200
  C    -57.324300  -58.008300  -81.104700
  C    -56.726800  -59.180400  -81.532200
  H    -58.367300  -57.761200  -81.230300
  C    -56.814300  -55.721900  -79.910900
  H    -57.806500  -55.476700  -80.214100
  H    -56.230900  -54.988900  -80.430300
  C    -56.770200  -55.587000  -78.338600
  H    -57.496300  -56.310300  -77.894700
  H    -55.799100  -55.865300  -78.058600
  C    -57.163500  -54.210800  -77.667300
  H    -56.461900  -53.437400  -77.960600
  H    -58.230000  -53.944300  -77.810000
  H    -56.991700  -54.144600  -76.629700
  S    -57.037100  -61.804600  -81.258400
  C    -57.928800  -62.729800  -82.432900
  C    -58.512400  -61.941600  -83.388100
  C    -58.344500  -60.555300  -83.085300
  C    -57.352400  -60.337100  -82.133200
  H    -59.054700  -62.472600  -84.192600
  C    -58.960000  -59.474500  -83.968200
  H    -58.938400  -58.509600  -83.450200
  H    -59.997800  -59.697100  -84.011800
  C    -58.431500  -59.347400  -85.423200
  H    -59.189700  -58.848800  -86.061600
  H    -58.453000  -60.312400  -85.706500
  C    -57.091900  -58.636200  -85.550300
  H    -56.375600  -59.364500  -85.258800
  H    -56.812400  -57.776200  -84.904000
  H    -56.903800  -58.524100  -86.647600
  H    -54.416700  -57.315700  -79.655400
  H    -58.260200  -63.762000  -82.350000

 Total Charge           Charge          ....    0
 Multiplicity           Mult            ....    1
 Number of Electrons    NEL             ....  134
 Basis Dimension        Dim             ....  322

ORBITAL ENERGIES
----------------

  NO   OCC          E(Eh)            E(eV)
   0   2.0000     -88.970818     -2421.0190
   1   2.0000     -88.962998     -2420.8063
   2   2.0000     -10.326226      -280.9909
   3   2.0000     -10.324348      -280.9398
   4   2.0000     -10.313082      -280.6332
   5   2.0000     -10.310949      -280.5752
   6   2.0000     -10.303939      -280.3844
   7   2.0000     -10.302218      -280.3376
   8   2.0000     -10.294447      -280.1261
   9   2.0000     -10.294348      -280.1234
  10   2.0000     -10.293279      -280.0944
  11   2.0000     -10.292322      -280.0683
  12   2.0000     -10.284123      -279.8452
  13   2.0000     -10.280800      -279.7548
  14   2.0000     -10.277632      -279.6686
  15   2.0000     -10.272083      -279.5176
  16   2.0000      -8.086115      -220.0344
  17   2.0000      -8.078236      -219.8200
  18   2.0000      -6.044422      -164.4771
  19   2.0000      -6.040603      -164.3732
  20   2.0000      -6.036994      -164.2750
  21   2.0000      -6.036711      -164.2673
  22   2.0000      -6.032684      -164.1577
  23   2.0000      -6.028963      -164.0564
  24   2.0000      -1.014373       -27.6025
  25   2.0000      -0.987771       -26.8786
  26   2.0000      -0.908334       -24.7170
  27   2.0000      -0.904805       -24.6210
  28   2.0000      -0.869082       -23.6489
  29   2.0000      -0.853046       -23.2126
  30   2.0000      -0.844570       -22.9819
  31   2.0000      -0.814485       -22.1633
  32   2.0000      -0.786505       -21.4019
  33   2.0000      -0.773235       -21.0408
  34   2.0000      -0.709684       -19.3115
  35   2.0000      -0.706300       -19.2194
  36   2.0000      -0.694244       -18.8913
  37   2.0000      -0.659597       -17.9485
  38   2.0000      -0.636529       -17.3208
  39   2.0000      -0.624457       -16.9923
  40   2.0000      -0.593436       -16.1482
  41   2.0000      -0.572179       -15.5698
  42   2.0000      -0.559422       -15.2227
  43   2.0000      -0.546987       -14.8843
  44   2.0000      -0.537788       -14.6339
  45   2.0000      -0.518285       -14.1033
  46   2.0000      -0.515269       -14.0212
  47   2.0000      -0.511044       -13.9062
  48   2.0000      -0.505536       -13.7563
  49   2.0000      -0.499968       -13.6048
  50   2.0000      -0.492930       -13.4133
  51   2.0000      -0.477111       -12.9828
  52   2.0000      -0.471307       -12.8249
  53   2.0000      -0.466809       -12.7025
  54   2.0000      -0.456901       -12.4329
  55   2.0000      -0.455259       -12.3882
  56   2.0000      -0.444223       -12.0879
  57   2.0000      -0.436429       -11.8758
  58   2.0000      -0.430013       -11.7013
  59   2.0000      -0.426578       -11.6078
  60   2.0000      -0.424135       -11.5413
  61   2.0000      -0.418400       -11.3852
  62   2.0000      -0.405175       -11.0254
  63   2.0000      -0.351976        -9.5777
  64   2.0000      -0.335948        -9.1416
  65   2.0000      -0.328834        -8.9480
  66   2.0000      -0.283772        -7.7218
  67   0.0000       0.028313         0.7704
  68   0.0000       0.071081         1.9342
  69   0.0000       0.110082         2.9955
  70   0.0000       0.114205         3.1077
  71   0.0000       0.140574         3.8252

MULLIKEN ATOMIC CHARGES
-----------------------
   0 S :    0.125492
   1 C :   -0.147614
   2 C :   -0.096203
   3 C :    0.015182
   4 C :   -0.138115
   5 H :    0.014016
   6 C :    0.125117
   7 H :   -0.003707
   8 H :    0.029565
   9 C :   -0.082034
  10 H :    0.042120
  11 H :    0.016120
  12 C :   -0.046171
  13 H :    0.022745
  14 H :    0.043918
  15 H :    0.021462
  16 S :    0.098313
  17 C :   -0.086590
  18 C :   -0.066245
  19 C :   -0.052116
  20 C :   -0.124259
  21 H :    0.036886
  22 C :    0.060736
  23 H :    0.008008
  24 H :    0.011868
  25 C :   -0.015936
  26 H :    0.025765
  27 H :   -0.009536
  28 C :   -0.046586
  29 H :    0.020721
  30 H :    0.050379
  31 H :    0.036426
  32 H :    0.053717
  33 H :    0.056560
Sum of atomic charges:    0.0000000

LOEWDIN ATOMIC CHARGES
----------------------
   0 S :    0.432939
   1 C :   -0.202936
   2 C :   -0.060629
   3 C :   -0.061214
   4 C :   -0.208520
   5 H :    0.029289
   6 C :   -0.024956
   7 H :    0.022688
   8 H :    0.030718
   9 C :   -0.030678
  10 H :    0.032159
  11 H :    0.011899
  12 C :   -0.071865
  13 H :    0.024655
  14 H :    0.030066
  15 H :    0.023357
  16 S :    0.409912
  17 C :   -0.195589
  18 C :   -0.076128
  19 C :   -0.059036
  20 C :   -0.197191
  21 H :    0.039727
  22 C :   -0.030639
  23 H :    0.024251
  24 H :    0.027195
  25 C :   -0.029215
  26 H :    0.025156
  27 H :    0.007239
  28 C :   -0.072904
  29 H :    0.024366
  30 H :    0.035181
  31 H :    0.033284
  32 H :    0.025234
  33 H :    0.032187

  Mayer bond orders larger than 0.100000
B(  0-S ,  1-C ) :   1.1587 B(  0-S ,  4-C ) :   1.1638 B(  1-C ,  2-C ) :   1.5734
B(  1-C , 32-H ) :   0.9655 B(  2-C ,  3-C ) :   1.2919 B(  2-C ,  6-C ) :   1.0228
B(  3-C ,  4-C ) :   1.5385 B(  3-C ,  5-H ) :   0.9870 B(  4-C , 20-C ) :   1.0421
B(  6-C ,  7-H ) :   0.9366 B(  6-C ,  8-H ) :   0.9334 B(  6-C ,  9-C ) :   1.0492
B(  9-C , 10-H ) :   0.9611 B(  9-C , 11-H ) :   0.9618 B(  9-C , 12-C ) :   1.0809
B( 12-C , 13-H ) :   0.9727 B( 12-C , 14-H ) :   0.9776 B( 12-C , 15-H ) :   0.9726
B( 16-S , 17-C ) :   1.1465 B( 16-S , 20-C ) :   1.1476 B( 17-C , 18-C ) :   1.6377
B( 17-C , 33-H ) :   0.9616 B( 18-C , 19-C ) :   1.2150 B( 18-C , 21-H ) :   0.9838
B( 19-C , 20-C ) :   1.5872 B( 19-C , 22-C ) :   1.0618 B( 22-C , 23-H ) :   0.9385
B( 22-C , 24-H ) :   0.9214 B( 22-C , 25-C ) :   1.0702 B( 25-C , 26-H ) :   0.9550
B( 25-C , 27-H ) :   0.9513 B( 25-C , 28-C ) :   1.0716 B( 28-C , 29-H ) :   0.9730
B( 28-C , 30-H ) :   0.9771 B( 28-C , 31-H ) :   0.9712

Dispersion correction           -0.014161903
FINAL SINGLE POINT ENERGY     -1339.858553898282

DIPOLE MOMENT
-------------
                                X             Y             Z
Electronic contribution:      8.00830     -22.58934       3.19987
Nuclear contribution   :     -8.38342      22.96121      -3.19206
                        -----------------------------------------
Total Dipole Moment    :     -0.37512       0.37188       0.00781
                        -----------------------------------------
Magnitude (a.u.)       :      0.52827
Magnitude (Debye)      :      1.34275

Rotational constants in cm-1:     0.021508     0.007542     0.006509
Rotational constants in MHz :   644.783998   226.094757   195.143352

                             ****ORCA TERMINATED NORMALLY****
TOTAL RUN TIME: 0 days 0 hours 0 minutes 21 seconds 425 msec
