                         Program Version 4.2.1 -  RELEASE  -
|  1> ! wB97X-D3 SP def2-SVP
|  2> %pal
|  3> nprocs 24
|  4> end
|  5>
|  6> * xyz 0 1
|  7> S 	 30.9263 	 -24.7578 	 -125.815
|  8> C 	 31.4491 	 -25.247 	 -127.398
|  9> C 	 30.5065 	 -26.0811 	 -127.95
| 10> C 	 29.3702 	 -26.3521 	 -127.122
| 11> C 	 29.5223 	 -25.8047 	 -125.851
| 12> H 	 28.4854 	 -26.8776 	 -127.336
| 13> C 	 30.57 	 -26.5293 	 -129.357
| 14> H 	 31.483 	 -26.1926 	 -129.849
| 15> H 	 29.7242 	 -25.9641 	 -129.801
| 16> C 	 30.4283 	 -28.0899 	 -129.517
| 17> H 	 29.6506 	 -28.4792 	 -128.926
| 18> H 	 30.0961 	 -28.3222 	 -130.518
| 19> C 	 31.7007 	 -28.9038 	 -129.281
| 20> H 	 31.611 	 -30.0258 	 -129.404
| 21> H 	 32.4204 	 -28.7158 	 -130.075
| 22> H 	 32.1616 	 -28.6615 	 -128.348
| 23> S 	 28.4299 	 -27.5753 	 -123.957
| 24> C 	 27.4518 	 -27.0094 	 -122.679
| 25> C 	 27.3185 	 -25.6556 	 -122.791
| 26> C 	 27.9978 	 -25.0553 	 -123.872
| 27> C 	 28.6209 	 -25.9418 	 -124.744
| 28> H 	 26.738 	 -25.1585 	 -122.119
| 29> C 	 28.1961 	 -23.5159 	 -124.008
| 30> H 	 27.5639 	 -23.049 	 -124.741
| 31> H 	 29.1744 	 -23.407 	 -124.373
| 32> C 	 28.0249 	 -22.7156 	 -122.67
| 33> H 	 27.0245 	 -22.8328 	 -122.214
| 34> H 	 28.1556 	 -21.641 	 -122.886
| 35> C 	 28.9876 	 -23.1165 	 -121.594
| 36> H 	 29.0823 	 -24.1984 	 -121.642
| 37> H 	 28.6569 	 -22.8422 	 -120.616
| 38> H 	 29.905 	 -22.5961 	 -121.72
| 39> H 	 32.3314 	 -24.9719 	 -127.978
| 40> H 	 27.0542 	 -27.6273 	 -121.826
| 41> *
| 42>
| 43>                          ****END OF INPUT****

CARTESIAN COORDINATES (ANGSTROEM)
---------------------------------
  S     30.926300  -24.757800  -125.815000
  C     31.449100  -25.247000  -127.398000
  C     30.506500  -26.081100  -127.950000
  C     29.370200  -26.352100  -127.122000
  C     29.522300  -25.804700  -125.851000
  H     28.485400  -26.877600  -127.336000
  C     30.570000  -26.529300  -129.357000
  H     31.483000  -26.192600  -129.849000
  H     29.724200  -25.964100  -129.801000
  C     30.428300  -28.089900  -129.517000
  H     29.650600  -28.479200  -128.926000
  H     30.096100  -28.322200  -130.518000
  C     31.700700  -28.903800  -129.281000
  H     31.611000  -30.025800  -129.404000
  H     32.420400  -28.715800  -130.075000
  H     32.161600  -28.661500  -128.348000
  S     28.429900  -27.575300  -123.957000
  C     27.451800  -27.009400  -122.679000
  C     27.318500  -25.655600  -122.791000
  C     27.997800  -25.055300  -123.872000
  C     28.620900  -25.941800  -124.744000
  H     26.738000  -25.158500  -122.119000
  C     28.196100  -23.515900  -124.008000
  H     27.563900  -23.049000  -124.741000
  H     29.174400  -23.407000  -124.373000
  C     28.024900  -22.715600  -122.670000
  H     27.024500  -22.832800  -122.214000
  H     28.155600  -21.641000  -122.886000
  C     28.987600  -23.116500  -121.594000
  H     29.082300  -24.198400  -121.642000
  H     28.656900  -22.842200  -120.616000
  H     29.905000  -22.596100  -121.720000
  H     32.331400  -24.971900  -127.978000
  H     27.054200  -27.627300  -121.826000

 Total Charge           Charge          ....    0
 Multiplicity           Mult            ....    1
 Number of Electrons    NEL             ....  134
 Basis Dimension        Dim             ....  322

ORBITAL ENERGIES
----------------

  NO   OCC          E(Eh)            E(eV)
   0   2.0000     -88.967409     -2420.9263
   1   2.0000     -88.962155     -2420.7833
   2   2.0000     -10.331399      -281.1316
   3   2.0000     -10.328924      -281.0643
   4   2.0000     -10.320668      -280.8397
   5   2.0000     -10.313295      -280.6390
   6   2.0000     -10.306033      -280.4414
   7   2.0000     -10.297561      -280.2109
   8   2.0000     -10.294325      -280.1228
   9   2.0000     -10.293749      -280.1072
  10   2.0000     -10.287923      -279.9486
  11   2.0000     -10.285278      -279.8766
  12   2.0000     -10.283850      -279.8378
  13   2.0000     -10.283028      -279.8154
  14   2.0000     -10.276653      -279.6419
  15   2.0000     -10.262391      -279.2539
  16   2.0000      -8.081773      -219.9162
  17   2.0000      -8.076784      -219.7805
  18   2.0000      -6.040370      -164.3668
  19   2.0000      -6.036233      -164.2542
  20   2.0000      -6.035267      -164.2280
  21   2.0000      -6.032562      -164.1544
  22   2.0000      -6.031158      -164.1162
  23   2.0000      -6.027674      -164.0214
  24   2.0000      -1.008116       -27.4322
  25   2.0000      -0.988160       -26.8892
  26   2.0000      -0.912217       -24.8227
  27   2.0000      -0.906515       -24.6675
  28   2.0000      -0.874983       -23.8095
  29   2.0000      -0.849295       -23.1105
  30   2.0000      -0.845222       -22.9997
  31   2.0000      -0.818845       -22.2819
  32   2.0000      -0.784887       -21.3579
  33   2.0000      -0.772297       -21.0153
  34   2.0000      -0.715839       -19.4790
  35   2.0000      -0.699514       -19.0347
  36   2.0000      -0.691081       -18.8053
  37   2.0000      -0.658606       -17.9216
  38   2.0000      -0.641144       -17.4464
  39   2.0000      -0.620577       -16.8868
  40   2.0000      -0.600620       -16.3437
  41   2.0000      -0.573701       -15.6112
  42   2.0000      -0.555412       -15.1135
  43   2.0000      -0.552697       -15.0396
  44   2.0000      -0.543626       -14.7928
  45   2.0000      -0.536488       -14.5986
  46   2.0000      -0.524850       -14.2819
  47   2.0000      -0.516177       -14.0459
  48   2.0000      -0.508356       -13.8331
  49   2.0000      -0.497268       -13.5313
  50   2.0000      -0.488134       -13.2828
  51   2.0000      -0.478065       -13.0088
  52   2.0000      -0.474709       -12.9175
  53   2.0000      -0.468982       -12.7616
  54   2.0000      -0.461907       -12.5691
  55   2.0000      -0.444671       -12.1001
  56   2.0000      -0.443272       -12.0620
  57   2.0000      -0.438114       -11.9217
  58   2.0000      -0.435031       -11.8378
  59   2.0000      -0.424023       -11.5382
  60   2.0000      -0.419529       -11.4160
  61   2.0000      -0.408769       -11.1232
  62   2.0000      -0.405598       -11.0369
  63   2.0000      -0.345281        -9.3956
  64   2.0000      -0.329759        -8.9732
  65   2.0000      -0.327943        -8.9238
  66   2.0000      -0.296474        -8.0675
  67   0.0000       0.028911         0.7867
  68   0.0000       0.061867         1.6835
  69   0.0000       0.112874         3.0715
  70   0.0000       0.117138         3.1875
  71   0.0000       0.136538         3.7154

MULLIKEN ATOMIC CHARGES
-----------------------
   0 S :    0.108588
   1 C :   -0.110414
   2 C :   -0.088004
   3 C :    0.042214
   4 C :   -0.155723
   5 H :    0.003434
   6 C :    0.054784
   7 H :    0.012978
   8 H :    0.049385
   9 C :   -0.040975
  10 H :    0.018058
  11 H :    0.014938
  12 C :   -0.060785
  13 H :    0.041164
  14 H :    0.018051
  15 H :    0.036417
  16 S :    0.095486
  17 C :   -0.094877
  18 C :   -0.016319
  19 C :   -0.060382
  20 C :   -0.152375
  21 H :   -0.025501
  22 C :    0.144439
  23 H :    0.035838
  24 H :   -0.000744
  25 C :   -0.126539
  26 H :    0.032287
  27 H :    0.032286
  28 C :   -0.021716
  29 H :    0.042663
  30 H :    0.017393
  31 H :    0.021615
  32 H :    0.048951
  33 H :    0.083384
Sum of atomic charges:    0.0000000

LOEWDIN ATOMIC CHARGES
----------------------
   0 S :    0.417518
   1 C :   -0.208698
   2 C :   -0.067990
   3 C :   -0.049696
   4 C :   -0.190728
   5 H :    0.026596
   6 C :   -0.029201
   7 H :    0.026304
   8 H :    0.043251
   9 C :   -0.036274
  10 H :    0.016117
  11 H :    0.021978
  12 C :   -0.068998
  13 H :    0.035665
  14 H :    0.021969
  15 H :    0.021218
  16 S :    0.399287
  17 C :   -0.196754
  18 C :   -0.077050
  19 C :   -0.048956
  20 C :   -0.186717
  21 H :    0.013440
  22 C :   -0.021836
  23 H :    0.033223
  24 H :    0.009970
  25 C :   -0.045110
  26 H :    0.022247
  27 H :    0.027287
  28 C :   -0.063629
  29 H :    0.027839
  30 H :    0.021390
  31 H :    0.021044
  32 H :    0.036421
  33 H :    0.048874

  Mayer bond orders larger than 0.100000
B(  0-S ,  1-C ) :   1.1279 B(  0-S ,  4-C ) :   1.1451 B(  1-C ,  2-C ) :   1.6123
B(  1-C , 32-H ) :   0.9668 B(  2-C ,  3-C ) :   1.2146 B(  2-C ,  6-C ) :   1.0331
B(  3-C ,  4-C ) :   1.5631 B(  3-C ,  5-H ) :   1.0039 B(  4-C , 20-C ) :   1.0692
B(  6-C ,  7-H ) :   0.9460 B(  6-C ,  8-H ) :   0.9364 B(  6-C ,  9-C ) :   1.0561
B(  9-C , 10-H ) :   0.9615 B(  9-C , 11-H ) :   0.9544 B(  9-C , 12-C ) :   1.0743
B( 12-C , 13-H ) :   0.9731 B( 12-C , 14-H ) :   0.9733 B( 12-C , 15-H ) :   0.9790
B( 16-S , 17-C ) :   1.1810 B( 16-S , 20-C ) :   1.1267 B( 17-C , 18-C ) :   1.5656
B( 17-C , 20-C ) :   0.1023 B( 17-C , 33-H ) :   0.9571 B( 18-C , 19-C ) :   1.2695
B( 18-C , 21-H ) :   1.0078 B( 19-C , 20-C ) :   1.5693 B( 19-C , 22-C ) :   1.0125
B( 22-C , 23-H ) :   0.9288 B( 22-C , 24-H ) :   0.9315 B( 22-C , 25-C ) :   1.0806
B( 25-C , 26-H ) :   0.9561 B( 25-C , 27-H ) :   0.9555 B( 25-C , 28-C ) :   1.0781
B( 28-C , 29-H ) :   0.9742 B( 28-C , 30-H ) :   0.9728 B( 28-C , 31-H ) :   0.9731

Dispersion correction           -0.014471796
FINAL SINGLE POINT ENERGY     -1339.872794923856

DIPOLE MOMENT
-------------
                                X             Y             Z
Electronic contribution:     -1.95391      -2.93889       5.68008
Nuclear contribution   :      1.80425       3.11606      -5.87695
                        -----------------------------------------
Total Dipole Moment    :     -0.14967       0.17717      -0.19688
                        -----------------------------------------
Magnitude (a.u.)       :      0.30422
Magnitude (Debye)      :      0.77327

Rotational constants in cm-1:     0.025914     0.007615     0.006373
Rotational constants in MHz :   776.894440   228.289485   191.053271

                             ****ORCA TERMINATED NORMALLY****
TOTAL RUN TIME: 0 days 0 hours 0 minutes 21 seconds 427 msec
