                         Program Version 4.2.1 -  RELEASE  -
|  1> ! wB97X-D3 SP def2-SVP
|  2> %pal
|  3> nprocs 24
|  4> end
|  5>
|  6> * xyz 0 1
|  7> S 	 -45.7178 	 12.9183 	 37.0322
|  8> C 	 -44.6401 	 13.0386 	 35.6426
|  9> C 	 -45.346 	 13.4465 	 34.4961
| 10> C 	 -46.729 	 13.1902 	 34.7066
| 11> C 	 -47.1222 	 12.9129 	 35.9802
| 12> H 	 -47.4057 	 13.2193 	 33.9195
| 13> C 	 -44.6532 	 13.638 	 33.1413
| 14> H 	 -43.6345 	 13.7095 	 33.2936
| 15> H 	 -44.7942 	 14.6807 	 32.8459
| 16> C 	 -44.9731 	 12.5991 	 32.0134
| 17> H 	 -46.0907 	 12.4775 	 31.967
| 18> H 	 -44.5498 	 12.9768 	 31.0676
| 19> C 	 -44.1736 	 11.2752 	 32.2046
| 20> H 	 -44.7284 	 10.5243 	 31.5873
| 21> H 	 -43.1665 	 11.3559 	 31.8817
| 22> H 	 -44.1522 	 10.753 	 33.182
| 23> S 	 -48.5404 	 11.1749 	 37.5901
| 24> C 	 -50.2208 	 11.3638 	 37.8071
| 25> C 	 -50.7209 	 12.355 	 36.9991
| 26> C 	 -49.7336 	 12.976 	 36.1197
| 27> C 	 -48.4751 	 12.45 	 36.3858
| 28> H 	 -51.7422 	 12.6939 	 37.2015
| 29> C 	 -50.0613 	 14.1773 	 35.2599
| 30> H 	 -49.2753 	 14.2907 	 34.5911
| 31> H 	 -50.2415 	 15.0811 	 35.7458
| 32> C 	 -51.298 	 14.0326 	 34.4262
| 33> H 	 -51.6243 	 14.9218 	 33.9461
| 34> H 	 -52.0932 	 13.6443 	 35.0375
| 35> C 	 -51.05 	 13.0643 	 33.2436
| 36> H 	 -50.0782 	 13.2174 	 32.7175
| 37> H 	 -51.9034 	 13.3038 	 32.5669
| 38> H 	 -51.1484 	 11.9687 	 33.514
| 39> H 	 -43.6421 	 12.9002 	 35.6632
| 40> H 	 -50.8223 	 10.7256 	 38.3677
| 41> *
| 42>
| 43>                          ****END OF INPUT****

CARTESIAN COORDINATES (ANGSTROEM)
---------------------------------
  S    -45.717800   12.918300   37.032200
  C    -44.640100   13.038600   35.642600
  C    -45.346000   13.446500   34.496100
  C    -46.729000   13.190200   34.706600
  C    -47.122200   12.912900   35.980200
  H    -47.405700   13.219300   33.919500
  C    -44.653200   13.638000   33.141300
  H    -43.634500   13.709500   33.293600
  H    -44.794200   14.680700   32.845900
  C    -44.973100   12.599100   32.013400
  H    -46.090700   12.477500   31.967000
  H    -44.549800   12.976800   31.067600
  C    -44.173600   11.275200   32.204600
  H    -44.728400   10.524300   31.587300
  H    -43.166500   11.355900   31.881700
  H    -44.152200   10.753000   33.182000
  S    -48.540400   11.174900   37.590100
  C    -50.220800   11.363800   37.807100
  C    -50.720900   12.355000   36.999100
  C    -49.733600   12.976000   36.119700
  C    -48.475100   12.450000   36.385800
  H    -51.742200   12.693900   37.201500
  C    -50.061300   14.177300   35.259900
  H    -49.275300   14.290700   34.591100
  H    -50.241500   15.081100   35.745800
  C    -51.298000   14.032600   34.426200
  H    -51.624300   14.921800   33.946100
  H    -52.093200   13.644300   35.037500
  C    -51.050000   13.064300   33.243600
  H    -50.078200   13.217400   32.717500
  H    -51.903400   13.303800   32.566900
  H    -51.148400   11.968700   33.514000
  H    -43.642100   12.900200   35.663200
  H    -50.822300   10.725600   38.367700

 Total Charge           Charge          ....    0
 Multiplicity           Mult            ....    1
 Number of Electrons    NEL             ....  134
 Basis Dimension        Dim             ....  322

ORBITAL ENERGIES
----------------

  NO   OCC          E(Eh)            E(eV)
   0   2.0000     -88.965552     -2420.8757
   1   2.0000     -88.964014     -2420.8339
   2   2.0000     -10.330812      -281.1157
   3   2.0000     -10.327988      -281.0388
   4   2.0000     -10.309788      -280.5436
   5   2.0000     -10.309463      -280.5347
   6   2.0000     -10.308311      -280.5034
   7   2.0000     -10.302667      -280.3498
   8   2.0000     -10.300788      -280.2987
   9   2.0000     -10.295314      -280.1497
  10   2.0000     -10.289478      -279.9909
  11   2.0000     -10.285813      -279.8912
  12   2.0000     -10.281975      -279.7868
  13   2.0000     -10.279907      -279.7305
  14   2.0000     -10.278592      -279.6947
  15   2.0000     -10.277214      -279.6572
  16   2.0000      -8.079917      -219.8657
  17   2.0000      -8.079628      -219.8578
  18   2.0000      -6.038517      -164.3164
  19   2.0000      -6.038056      -164.3039
  20   2.0000      -6.034551      -164.2085
  21   2.0000      -6.033905      -164.1909
  22   2.0000      -6.030531      -164.0991
  23   2.0000      -6.030527      -164.0990
  24   2.0000      -1.007029       -27.4027
  25   2.0000      -0.985420       -26.8146
  26   2.0000      -0.919613       -25.0239
  27   2.0000      -0.905624       -24.6433
  28   2.0000      -0.866975       -23.5916
  29   2.0000      -0.848856       -23.0985
  30   2.0000      -0.840931       -22.8829
  31   2.0000      -0.817639       -22.2491
  32   2.0000      -0.785167       -21.3655
  33   2.0000      -0.776331       -21.1250
  34   2.0000      -0.709055       -19.2944
  35   2.0000      -0.699254       -19.0277
  36   2.0000      -0.696124       -18.9425
  37   2.0000      -0.653683       -17.7876
  38   2.0000      -0.645563       -17.5667
  39   2.0000      -0.629935       -17.1414
  40   2.0000      -0.608134       -16.5482
  41   2.0000      -0.569749       -15.5037
  42   2.0000      -0.558099       -15.1866
  43   2.0000      -0.546708       -14.8767
  44   2.0000      -0.542322       -14.7573
  45   2.0000      -0.538095       -14.6423
  46   2.0000      -0.522737       -14.2244
  47   2.0000      -0.515053       -14.0153
  48   2.0000      -0.503212       -13.6931
  49   2.0000      -0.499082       -13.5807
  50   2.0000      -0.491717       -13.3803
  51   2.0000      -0.478838       -13.0298
  52   2.0000      -0.468426       -12.7465
  53   2.0000      -0.463783       -12.6202
  54   2.0000      -0.462112       -12.5747
  55   2.0000      -0.445824       -12.1315
  56   2.0000      -0.442094       -12.0300
  57   2.0000      -0.435512       -11.8509
  58   2.0000      -0.427849       -11.6424
  59   2.0000      -0.424239       -11.5441
  60   2.0000      -0.419785       -11.4229
  61   2.0000      -0.418202       -11.3798
  62   2.0000      -0.412953       -11.2370
  63   2.0000      -0.350262        -9.5311
  64   2.0000      -0.331067        -9.0088
  65   2.0000      -0.327840        -8.9210
  66   2.0000      -0.288603        -7.8533
  67   0.0000       0.026091         0.7100
  68   0.0000       0.076936         2.0935
  69   0.0000       0.109819         2.9883
  70   0.0000       0.118153         3.2151
  71   0.0000       0.133704         3.6383

MULLIKEN ATOMIC CHARGES
-----------------------
   0 S :    0.108949
   1 C :   -0.096877
   2 C :   -0.068996
   3 C :    0.024299
   4 C :   -0.117721
   5 H :   -0.020588
   6 C :    0.096850
   7 H :   -0.017084
   8 H :    0.025015
   9 C :   -0.070974
  10 H :    0.049032
  11 H :    0.037458
  12 C :   -0.077234
  13 H :    0.035569
  14 H :    0.031586
  15 H :    0.043128
  16 S :    0.111352
  17 C :   -0.069971
  18 C :   -0.059348
  19 C :   -0.047652
  20 C :   -0.156704
  21 H :    0.032293
  22 C :    0.182249
  23 H :   -0.024920
  24 H :    0.023685
  25 C :   -0.079309
  26 H :    0.021769
  27 H :    0.022787
  28 C :   -0.109694
  29 H :    0.038779
  30 H :    0.033931
  31 H :    0.053054
  32 H :    0.008228
  33 H :    0.037060
Sum of atomic charges:   -0.0000000

LOEWDIN ATOMIC CHARGES
----------------------
   0 S :    0.392148
   1 C :   -0.167914
   2 C :   -0.052877
   3 C :   -0.058402
   4 C :   -0.190127
   5 H :    0.014002
   6 C :   -0.035238
   7 H :    0.017975
   8 H :    0.033933
   9 C :   -0.035243
  10 H :    0.029270
  11 H :    0.031659
  12 C :   -0.073567
  13 H :    0.033416
  14 H :    0.019270
  15 H :    0.028568
  16 S :    0.421403
  17 C :   -0.189304
  18 C :   -0.074709
  19 C :   -0.047756
  20 C :   -0.189860
  21 H :    0.032981
  22 C :   -0.020854
  23 H :    0.016627
  24 H :    0.029320
  25 C :   -0.034513
  26 H :    0.020526
  27 H :    0.020898
  28 C :   -0.075978
  29 H :    0.023662
  30 H :    0.028074
  31 H :    0.031818
  32 H :    0.002119
  33 H :    0.018671

  Mayer bond orders larger than 0.100000
B(  0-S ,  1-C ) :   1.1466 B(  0-S ,  4-C ) :   1.1287 B(  1-C ,  2-C ) :   1.5785
B(  1-C , 32-H ) :   0.9825 B(  2-C ,  3-C ) :   1.2399 B(  2-C ,  6-C ) :   1.0422
B(  3-C ,  4-C ) :   1.5958 B(  3-C ,  5-H ) :   0.9943 B(  4-C , 20-C ) :   1.0400
B(  6-C ,  7-H ) :   0.9328 B(  6-C ,  8-H ) :   0.9278 B(  6-C ,  9-C ) :   1.0583
B(  9-C , 10-H ) :   0.9637 B(  9-C , 11-H ) :   0.9529 B(  9-C , 12-C ) :   1.0624
B( 12-C , 13-H ) :   0.9743 B( 12-C , 14-H ) :   0.9780 B( 12-C , 15-H ) :   0.9794
B( 16-S , 17-C ) :   1.1598 B( 16-S , 20-C ) :   1.1477 B( 17-C , 18-C ) :   1.6230
B( 17-C , 33-H ) :   0.9730 B( 18-C , 19-C ) :   1.2264 B( 18-C , 21-H ) :   0.9827
B( 19-C , 20-C ) :   1.5934 B( 19-C , 22-C ) :   1.0389 B( 22-C , 23-H ) :   0.9260
B( 22-C , 24-H ) :   0.9270 B( 22-C , 25-C ) :   1.0801 B( 25-C , 26-H ) :   0.9592
B( 25-C , 27-H ) :   0.9510 B( 25-C , 28-C ) :   1.0703 B( 28-C , 29-H ) :   0.9745
B( 28-C , 30-H ) :   0.9789 B( 28-C , 31-H ) :   0.9758

Dispersion correction           -0.014305207
FINAL SINGLE POINT ENERGY     -1339.851787336713

DIPOLE MOMENT
-------------
                                X             Y             Z
Electronic contribution:      3.36982      -3.79514      26.48216
Nuclear contribution   :     -3.53549       4.00466     -27.01822
                        -----------------------------------------
Total Dipole Moment    :     -0.16567       0.20952      -0.53606
                        -----------------------------------------
Magnitude (a.u.)       :      0.59892
Magnitude (Debye)      :      1.52233

Rotational constants in cm-1:     0.018270     0.009018     0.006984
Rotational constants in MHz :   547.731090   270.352137   209.382357

                             ****ORCA TERMINATED NORMALLY****
TOTAL RUN TIME: 0 days 0 hours 0 minutes 21 seconds 952 msec
