                         Program Version 4.2.1 -  RELEASE  -
|  1> ! wB97X-D3 SP def2-SVP
|  2> %pal
|  3> nprocs 24
|  4> end
|  5>
|  6> * xyz 0 1
|  7> S 	 -139.347 	 12.2526 	 0.204077
|  8> C 	 -138.103 	 13.4608 	 0.429998
|  9> C 	 -136.952 	 13.1315 	 -0.215998
| 10> C 	 -137.147 	 11.9638 	 -0.984911
| 11> C 	 -138.363 	 11.3343 	 -0.856031
| 12> H 	 -136.452 	 11.5003 	 -1.66145
| 13> C 	 -135.633 	 13.8739 	 -0.355845
| 14> H 	 -135.972 	 14.8877 	 -0.330377
| 15> H 	 -135.235 	 13.6294 	 -1.4303
| 16> C 	 -134.631 	 13.6022 	 0.751078
| 17> H 	 -134.936 	 13.8493 	 1.71533
| 18> H 	 -134.38 	 12.4918 	 0.749586
| 19> C 	 -133.344 	 14.4168 	 0.482812
| 20> H 	 -133.494 	 15.5056 	 0.642188
| 21> H 	 -132.644 	 14.1372 	 1.18256
| 22> H 	 -132.86 	 14.411 	 -0.492127
| 23> S 	 -140.522 	 10.6742 	 -2.35882
| 24> C 	 -140.482 	 9.20081 	 -3.28474
| 25> C 	 -139.194 	 8.57528 	 -3.16049
| 26> C 	 -138.339 	 9.17968 	 -2.22112
| 27> C 	 -138.905 	 10.3323 	 -1.78082
| 28> H 	 -139.151 	 7.61601 	 -3.68495
| 29> C 	 -137.113 	 8.56889 	 -1.61086
| 30> H 	 -136.711 	 9.08745 	 -0.728956
| 31> H 	 -136.328 	 8.39219 	 -2.33282
| 32> C 	 -137.502 	 7.16531 	 -1.04664
| 33> H 	 -136.584 	 6.83474 	 -0.506314
| 34> H 	 -137.712 	 6.40493 	 -1.80856
| 35> C 	 -138.641 	 7.22296 	 0.0472652
| 36> H 	 -139.566 	 7.31563 	 -0.470098
| 37> H 	 -138.396 	 7.89848 	 0.895746
| 38> H 	 -138.565 	 6.27483 	 0.588993
| 39> H 	 -138.247 	 14.4357 	 0.94015
| 40> H 	 -141.313 	 8.64576 	 -3.58172
| 41> *
| 42>
| 43>                          ****END OF INPUT****

CARTESIAN COORDINATES (ANGSTROEM)
---------------------------------
  S    -139.347000   12.252600    0.204077
  C    -138.103000   13.460800    0.429998
  C    -136.952000   13.131500   -0.215998
  C    -137.147000   11.963800   -0.984911
  C    -138.363000   11.334300   -0.856031
  H    -136.452000   11.500300   -1.661450
  C    -135.633000   13.873900   -0.355845
  H    -135.972000   14.887700   -0.330377
  H    -135.235000   13.629400   -1.430300
  C    -134.631000   13.602200    0.751078
  H    -134.936000   13.849300    1.715330
  H    -134.380000   12.491800    0.749586
  C    -133.344000   14.416800    0.482812
  H    -133.494000   15.505600    0.642188
  H    -132.644000   14.137200    1.182560
  H    -132.860000   14.411000   -0.492127
  S    -140.522000   10.674200   -2.358820
  C    -140.482000    9.200810   -3.284740
  C    -139.194000    8.575280   -3.160490
  C    -138.339000    9.179680   -2.221120
  C    -138.905000   10.332300   -1.780820
  H    -139.151000    7.616010   -3.684950
  C    -137.113000    8.568890   -1.610860
  H    -136.711000    9.087450   -0.728956
  H    -136.328000    8.392190   -2.332820
  C    -137.502000    7.165310   -1.046640
  H    -136.584000    6.834740   -0.506314
  H    -137.712000    6.404930   -1.808560
  C    -138.641000    7.222960    0.047265
  H    -139.566000    7.315630   -0.470098
  H    -138.396000    7.898480    0.895746
  H    -138.565000    6.274830    0.588993
  H    -138.247000   14.435700    0.940150
  H    -141.313000    8.645760   -3.581720

 Total Charge           Charge          ....    0
 Multiplicity           Mult            ....    1
 Number of Electrons    NEL             ....  134
 Basis Dimension        Dim             ....  322

ORBITAL ENERGIES
----------------

  NO   OCC          E(Eh)            E(eV)
   0   2.0000     -88.965703     -2420.8799
   1   2.0000     -88.964152     -2420.8376
   2   2.0000     -10.322020      -280.8765
   3   2.0000     -10.319678      -280.8127
   4   2.0000     -10.314177      -280.6630
   5   2.0000     -10.313300      -280.6392
   6   2.0000     -10.299153      -280.2542
   7   2.0000     -10.298493      -280.2362
   8   2.0000     -10.298174      -280.2276
   9   2.0000     -10.294921      -280.1390
  10   2.0000     -10.292734      -280.0795
  11   2.0000     -10.290999      -280.0323
  12   2.0000     -10.289893      -280.0022
  13   2.0000     -10.284097      -279.8445
  14   2.0000     -10.275151      -279.6011
  15   2.0000     -10.273321      -279.5513
  16   2.0000      -8.080519      -219.8821
  17   2.0000      -8.079597      -219.8570
  18   2.0000      -6.038871      -164.3260
  19   2.0000      -6.038045      -164.3036
  20   2.0000      -6.035022      -164.2213
  21   2.0000      -6.033921      -164.1913
  22   2.0000      -6.031418      -164.1232
  23   2.0000      -6.030466      -164.0973
  24   2.0000      -1.012859       -27.5613
  25   2.0000      -0.987969       -26.8840
  26   2.0000      -0.914337       -24.8804
  27   2.0000      -0.907458       -24.6932
  28   2.0000      -0.868466       -23.6322
  29   2.0000      -0.851539       -23.1715
  30   2.0000      -0.842318       -22.9206
  31   2.0000      -0.809284       -22.0217
  32   2.0000      -0.784880       -21.3577
  33   2.0000      -0.776459       -21.1285
  34   2.0000      -0.707203       -19.2440
  35   2.0000      -0.699471       -19.0336
  36   2.0000      -0.692543       -18.8451
  37   2.0000      -0.658256       -17.9121
  38   2.0000      -0.639936       -17.4135
  39   2.0000      -0.618832       -16.8393
  40   2.0000      -0.600084       -16.3291
  41   2.0000      -0.571293       -15.5457
  42   2.0000      -0.556298       -15.1376
  43   2.0000      -0.552280       -15.0283
  44   2.0000      -0.543789       -14.7973
  45   2.0000      -0.528048       -14.3689
  46   2.0000      -0.525424       -14.2975
  47   2.0000      -0.501300       -13.6411
  48   2.0000      -0.499251       -13.5853
  49   2.0000      -0.498608       -13.5678
  50   2.0000      -0.489226       -13.3125
  51   2.0000      -0.480702       -13.0806
  52   2.0000      -0.470787       -12.8108
  53   2.0000      -0.465330       -12.6623
  54   2.0000      -0.456547       -12.4233
  55   2.0000      -0.451016       -12.2728
  56   2.0000      -0.440390       -11.9836
  57   2.0000      -0.435656       -11.8548
  58   2.0000      -0.433420       -11.7939
  59   2.0000      -0.421692       -11.4748
  60   2.0000      -0.420710       -11.4481
  61   2.0000      -0.415811       -11.3148
  62   2.0000      -0.412317       -11.2197
  63   2.0000      -0.343731        -9.3534
  64   2.0000      -0.333667        -9.0795
  65   2.0000      -0.330595        -8.9959
  66   2.0000      -0.287662        -7.8277
  67   0.0000       0.025906         0.7049
  68   0.0000       0.075044         2.0421
  69   0.0000       0.113057         3.0764
  70   0.0000       0.127381         3.4662
  71   0.0000       0.133321         3.6278

MULLIKEN ATOMIC CHARGES
-----------------------
   0 S :    0.101447
   1 C :   -0.151660
   2 C :   -0.057136
   3 C :    0.010434
   4 C :   -0.140952
   5 H :    0.004411
   6 C :    0.044047
   7 H :    0.015762
   8 H :    0.050784
   9 C :   -0.039107
  10 H :    0.018976
  11 H :    0.037014
  12 C :   -0.033446
  13 H :    0.023518
  14 H :    0.015302
  15 H :    0.028683
  16 S :    0.117648
  17 C :   -0.095515
  18 C :   -0.073389
  19 C :   -0.016196
  20 C :   -0.155325
  21 H :    0.025723
  22 C :    0.104595
  23 H :    0.037216
  24 H :    0.029839
  25 C :   -0.145856
  26 H :    0.026640
  27 H :    0.038145
  28 C :   -0.038462
  29 H :    0.049461
  30 H :    0.038811
  31 H :    0.025742
  32 H :    0.055967
  33 H :    0.046879
Sum of atomic charges:    0.0000000

LOEWDIN ATOMIC CHARGES
----------------------
   0 S :    0.415265
   1 C :   -0.203488
   2 C :   -0.069907
   3 C :   -0.062278
   4 C :   -0.211444
   5 H :    0.025869
   6 C :   -0.031182
   7 H :    0.026012
   8 H :    0.045751
   9 C :   -0.030253
  10 H :    0.018966
  11 H :    0.032289
  12 C :   -0.065801
  13 H :    0.027869
  14 H :    0.014473
  15 H :    0.025071
  16 S :    0.411038
  17 C :   -0.193859
  18 C :   -0.062948
  19 C :   -0.066925
  20 C :   -0.186442
  21 H :    0.031890
  22 C :   -0.028120
  23 H :    0.035282
  24 H :    0.030103
  25 C :   -0.040417
  26 H :    0.023381
  27 H :    0.019998
  28 C :   -0.066964
  29 H :    0.023156
  30 H :    0.032773
  31 H :    0.027590
  32 H :    0.035645
  33 H :    0.017605

  Mayer bond orders larger than 0.100000
B(  0-S ,  1-C ) :   1.1413 B(  0-S ,  4-C ) :   1.1508 B(  1-C ,  2-C ) :   1.6051
B(  1-C , 32-H ) :   0.9632 B(  2-C ,  3-C ) :   1.2611 B(  2-C ,  6-C ) :   0.9949
B(  3-C ,  4-C ) :   1.5626 B(  3-C ,  5-H ) :   0.9935 B(  4-C , 20-C ) :   1.0321
B(  6-C ,  7-H ) :   0.9355 B(  6-C ,  8-H ) :   0.9494 B(  6-C ,  9-C ) :   1.0736
B(  9-C , 10-H ) :   0.9522 B(  9-C , 11-H ) :   0.9557 B(  9-C , 12-C ) :   1.0799
B( 12-C , 13-H ) :   0.9728 B( 12-C , 14-H ) :   0.9738 B( 12-C , 15-H ) :   0.9765
B( 16-S , 17-C ) :   1.1542 B( 16-S , 20-C ) :   1.1513 B( 17-C , 18-C ) :   1.6002
B( 17-C , 20-C ) :   0.1034 B( 17-C , 33-H ) :   0.9720 B( 18-C , 19-C ) :   1.2301
B( 18-C , 21-H ) :   0.9867 B( 19-C , 20-C ) :   1.5970 B( 19-C , 22-C ) :   1.0506
B( 22-C , 23-H ) :   0.9369 B( 22-C , 24-H ) :   0.9265 B( 22-C , 25-C ) :   1.0673
B( 25-C , 26-H ) :   0.9614 B( 25-C , 27-H ) :   0.9568 B( 25-C , 28-C ) :   1.0680
B( 28-C , 29-H ) :   0.9757 B( 28-C , 30-H ) :   0.9738 B( 28-C , 31-H ) :   0.9742

Dispersion correction           -0.014537679
FINAL SINGLE POINT ENERGY     -1339.859620292445

DIPOLE MOMENT
-------------
                                X             Y             Z
Electronic contribution:    -23.83937       4.36175      -6.75786
Nuclear contribution   :     24.42826      -4.50769       6.87246
                        -----------------------------------------
Total Dipole Moment    :      0.58889      -0.14594       0.11460
                        -----------------------------------------
Magnitude (a.u.)       :      0.61744
Magnitude (Debye)      :      1.56940

Rotational constants in cm-1:     0.021768     0.007909     0.006730
Rotational constants in MHz :   652.596706   237.120411   201.751104

                             ****ORCA TERMINATED NORMALLY****
TOTAL RUN TIME: 0 days 0 hours 0 minutes 21 seconds 713 msec
