                         Program Version 4.2.1 -  RELEASE  -
|  1> ! wB97X-D3 SP def2-SVP
|  2> %pal
|  3> nprocs 24
|  4> end
|  5>
|  6> * xyz 0 1
|  7> S 	 -100.384 	 36.7942 	 -81.8338
|  8> C 	 -100.091 	 35.0732 	 -81.9098
|  9> C 	 -101.013 	 34.3438 	 -82.7136
| 10> C 	 -101.871 	 35.2972 	 -83.4318
| 11> C 	 -101.576 	 36.6079 	 -83.1092
| 12> H 	 -102.698 	 35.0313 	 -83.9613
| 13> C 	 -101.098 	 32.8529 	 -82.6093
| 14> H 	 -102.115 	 32.6127 	 -82.9498
| 15> H 	 -101.051 	 32.6064 	 -81.5705
| 16> C 	 -99.9513 	 32.1182 	 -83.344
| 17> H 	 -99.8124 	 32.3552 	 -84.3927
| 18> H 	 -99.025 	 32.3761 	 -82.9493
| 19> C 	 -100.16 	 30.6196 	 -83.3731
| 20> H 	 -100.078 	 30.1229 	 -82.3955
| 21> H 	 -101.145 	 30.3723 	 -83.7662
| 22> H 	 -99.47 	 30.0418 	 -84.0209
| 23> S 	 -103.317 	 38.6533 	 -82.4413
| 24> C 	 -104.053 	 39.6463 	 -83.6583
| 25> C 	 -103.517 	 39.2536 	 -84.8766
| 26> C 	 -102.569 	 38.1685 	 -84.8602
| 27> C 	 -102.355 	 37.7359 	 -83.5723
| 28> H 	 -103.944 	 39.6656 	 -85.7717
| 29> C 	 -102.031 	 37.5336 	 -86.1085
| 30> H 	 -102.568 	 38.0366 	 -86.9127
| 31> H 	 -102.428 	 36.5163 	 -86.243
| 32> C 	 -100.515 	 37.6296 	 -86.3148
| 33> H 	 -100.135 	 37.0608 	 -87.0965
| 34> H 	 -99.9742 	 37.1793 	 -85.5619
| 35> C 	 -100.022 	 39.0038 	 -86.6191
| 36> H 	 -99.9254 	 39.6568 	 -85.7415
| 37> H 	 -100.495 	 39.3439 	 -87.5341
| 38> H 	 -98.9874 	 38.9288 	 -86.9383
| 39> H 	 -99.5055 	 34.5914 	 -81.1933
| 40> H 	 -104.869 	 40.2805 	 -83.6299
| 41> *
| 42>
| 43>                          ****END OF INPUT****

CARTESIAN COORDINATES (ANGSTROEM)
---------------------------------
  S    -100.384000   36.794200  -81.833800
  C    -100.091000   35.073200  -81.909800
  C    -101.013000   34.343800  -82.713600
  C    -101.871000   35.297200  -83.431800
  C    -101.576000   36.607900  -83.109200
  H    -102.698000   35.031300  -83.961300
  C    -101.098000   32.852900  -82.609300
  H    -102.115000   32.612700  -82.949800
  H    -101.051000   32.606400  -81.570500
  C    -99.951300   32.118200  -83.344000
  H    -99.812400   32.355200  -84.392700
  H    -99.025000   32.376100  -82.949300
  C    -100.160000   30.619600  -83.373100
  H    -100.078000   30.122900  -82.395500
  H    -101.145000   30.372300  -83.766200
  H    -99.470000   30.041800  -84.020900
  S    -103.317000   38.653300  -82.441300
  C    -104.053000   39.646300  -83.658300
  C    -103.517000   39.253600  -84.876600
  C    -102.569000   38.168500  -84.860200
  C    -102.355000   37.735900  -83.572300
  H    -103.944000   39.665600  -85.771700
  C    -102.031000   37.533600  -86.108500
  H    -102.568000   38.036600  -86.912700
  H    -102.428000   36.516300  -86.243000
  C    -100.515000   37.629600  -86.314800
  H    -100.135000   37.060800  -87.096500
  H    -99.974200   37.179300  -85.561900
  C    -100.022000   39.003800  -86.619100
  H    -99.925400   39.656800  -85.741500
  H    -100.495000   39.343900  -87.534100
  H    -98.987400   38.928800  -86.938300
  H    -99.505500   34.591400  -81.193300
  H    -104.869000   40.280500  -83.629900

 Total Charge           Charge          ....    0
 Multiplicity           Mult            ....    1
 Number of Electrons    NEL             ....  134
 Basis Dimension        Dim             ....  322

ORBITAL ENERGIES
----------------

  NO   OCC          E(Eh)            E(eV)
   0   2.0000     -88.969974     -2420.9961
   1   2.0000     -88.962876     -2420.8029
   2   2.0000     -10.328205      -281.0448
   3   2.0000     -10.320123      -280.8248
   4   2.0000     -10.310417      -280.5607
   5   2.0000     -10.309918      -280.5471
   6   2.0000     -10.307548      -280.4826
   7   2.0000     -10.297712      -280.2150
   8   2.0000     -10.295873      -280.1650
   9   2.0000     -10.294630      -280.1311
  10   2.0000     -10.289542      -279.9927
  11   2.0000     -10.288393      -279.9614
  12   2.0000     -10.283413      -279.8259
  13   2.0000     -10.278708      -279.6979
  14   2.0000     -10.267037      -279.3803
  15   2.0000     -10.265432      -279.3366
  16   2.0000      -8.084474      -219.9897
  17   2.0000      -8.077813      -219.8085
  18   2.0000      -6.042836      -164.4339
  19   2.0000      -6.039162      -164.3340
  20   2.0000      -6.036299      -164.2560
  21   2.0000      -6.035264      -164.2279
  22   2.0000      -6.032159      -164.1434
  23   2.0000      -6.028697      -164.0492
  24   2.0000      -1.006044       -27.3758
  25   2.0000      -0.980477       -26.6801
  26   2.0000      -0.915679       -24.9169
  27   2.0000      -0.911694       -24.8084
  28   2.0000      -0.869620       -23.6636
  29   2.0000      -0.855504       -23.2794
  30   2.0000      -0.848868       -23.0989
  31   2.0000      -0.817195       -22.2370
  32   2.0000      -0.781747       -21.2724
  33   2.0000      -0.769531       -20.9400
  34   2.0000      -0.711441       -19.3593
  35   2.0000      -0.710819       -19.3424
  36   2.0000      -0.694438       -18.8966
  37   2.0000      -0.662814       -18.0361
  38   2.0000      -0.648719       -17.6525
  39   2.0000      -0.620999       -16.8983
  40   2.0000      -0.589761       -16.0482
  41   2.0000      -0.570831       -15.5331
  42   2.0000      -0.561974       -15.2921
  43   2.0000      -0.554350       -15.0846
  44   2.0000      -0.553119       -15.0511
  45   2.0000      -0.527914       -14.3653
  46   2.0000      -0.521822       -14.1995
  47   2.0000      -0.511484       -13.9182
  48   2.0000      -0.507940       -13.8218
  49   2.0000      -0.498207       -13.5569
  50   2.0000      -0.485320       -13.2062
  51   2.0000      -0.476039       -12.9537
  52   2.0000      -0.471309       -12.8250
  53   2.0000      -0.463796       -12.6205
  54   2.0000      -0.458489       -12.4761
  55   2.0000      -0.455297       -12.3893
  56   2.0000      -0.439000       -11.9458
  57   2.0000      -0.434082       -11.8120
  58   2.0000      -0.430742       -11.7211
  59   2.0000      -0.428438       -11.6584
  60   2.0000      -0.421225       -11.4621
  61   2.0000      -0.419554       -11.4166
  62   2.0000      -0.409247       -11.1362
  63   2.0000      -0.342765        -9.3271
  64   2.0000      -0.327662        -8.9161
  65   2.0000      -0.326822        -8.8933
  66   2.0000      -0.293345        -7.9823
  67   0.0000       0.032937         0.8963
  68   0.0000       0.062742         1.7073
  69   0.0000       0.104724         2.8497
  70   0.0000       0.127996         3.4829
  71   0.0000       0.129294         3.5183

MULLIKEN ATOMIC CHARGES
-----------------------
   0 S :    0.123666
   1 C :   -0.093503
   2 C :   -0.117757
   3 C :    0.079456
   4 C :   -0.166351
   5 H :   -0.018750
   6 C :    0.082574
   7 H :    0.020450
   8 H :    0.029304
   9 C :   -0.025316
  10 H :    0.024194
  11 H :    0.009523
  12 C :   -0.059523
  13 H :    0.025678
  14 H :    0.022368
  15 H :    0.032385
  16 S :    0.109982
  17 C :   -0.058224
  18 C :   -0.045098
  19 C :   -0.041632
  20 C :   -0.166499
  21 H :    0.008844
  22 C :    0.095704
  23 H :   -0.002940
  24 H :    0.030642
  25 C :   -0.000786
  26 H :   -0.005695
  27 H :    0.008073
  28 C :   -0.039564
  29 H :    0.047388
  30 H :    0.022302
  31 H :    0.011864
  32 H :    0.026659
  33 H :    0.030583
Sum of atomic charges:   -0.0000000

LOEWDIN ATOMIC CHARGES
----------------------
   0 S :    0.410994
   1 C :   -0.195964
   2 C :   -0.048010
   3 C :   -0.041953
   4 C :   -0.191174
   5 H :    0.015751
   6 C :   -0.026553
   7 H :    0.032641
   8 H :    0.032592
   9 C :   -0.033839
  10 H :    0.028810
  11 H :    0.015843
  12 C :   -0.070440
  13 H :    0.022057
  14 H :    0.022957
  15 H :    0.028056
  16 S :    0.413622
  17 C :   -0.188114
  18 C :   -0.066936
  19 C :   -0.060378
  20 C :   -0.202975
  21 H :    0.023955
  22 C :   -0.030369
  23 H :    0.027826
  24 H :    0.034174
  25 C :   -0.037836
  26 H :    0.020160
  27 H :    0.017734
  28 C :   -0.063449
  29 H :    0.029944
  30 H :    0.025033
  31 H :    0.025979
  32 H :    0.009251
  33 H :    0.020613

  Mayer bond orders larger than 0.100000
B(  0-S ,  1-C ) :   1.1454 B(  0-S ,  4-C ) :   1.1478 B(  1-C ,  2-C ) :   1.6013
B(  1-C , 32-H ) :   0.9705 B(  2-C ,  3-C ) :   1.2355 B(  2-C ,  6-C ) :   1.0262
B(  3-C ,  4-C ) :   1.5722 B(  3-C ,  5-H ) :   1.0064 B(  4-C , 20-C ) :   1.0371
B(  6-C ,  7-H ) :   0.9420 B(  6-C ,  8-H ) :   0.9382 B(  6-C ,  9-C ) :   1.0541
B(  9-C , 10-H ) :   0.9563 B(  9-C , 11-H ) :   0.9537 B(  9-C , 12-C ) :   1.0852
B( 12-C , 13-H ) :   0.9741 B( 12-C , 14-H ) :   0.9738 B( 12-C , 15-H ) :   0.9752
B( 16-S , 17-C ) :   1.1495 B( 16-S , 20-C ) :   1.1527 B( 17-C , 18-C ) :   1.6074
B( 17-C , 33-H ) :   0.9762 B( 18-C , 19-C ) :   1.2565 B( 18-C , 21-H ) :   0.9825
B( 19-C , 20-C ) :   1.5852 B( 19-C , 22-C ) :   1.0379 B( 22-C , 23-H ) :   0.9283
B( 22-C , 24-H ) :   0.9309 B( 22-C , 25-C ) :   1.0694 B( 25-C , 26-H ) :   0.9447
B( 25-C , 27-H ) :   0.9498 B( 25-C , 28-C ) :   1.0939 B( 28-C , 29-H ) :   0.9741
B( 28-C , 30-H ) :   0.9709 B( 28-C , 31-H ) :   0.9677

Dispersion correction           -0.014351703
FINAL SINGLE POINT ENERGY     -1339.860595592330

DIPOLE MOMENT
-------------
                                X             Y             Z
Electronic contribution:     -9.13245      18.22295      16.59002
Nuclear contribution   :      9.02449     -18.81597     -16.98129
                        -----------------------------------------
Total Dipole Moment    :     -0.10796      -0.59302      -0.39127
                        -----------------------------------------
Magnitude (a.u.)       :      0.71863
Magnitude (Debye)      :      1.82661

Rotational constants in cm-1:     0.021152     0.007762     0.006741
Rotational constants in MHz :   634.110060   232.687621   202.094726

                             ****ORCA TERMINATED NORMALLY****
TOTAL RUN TIME: 0 days 0 hours 0 minutes 21 seconds 488 msec
