                         Program Version 4.2.1 -  RELEASE  -
|  1> ! wB97X-D3 SP def2-SVP
|  2> %pal
|  3> nprocs 24
|  4> end
|  5>
|  6> * xyz 0 1
|  7> S 	 -145.605 	 29.3343 	 -15.7959
|  8> C 	 -144.314 	 28.5548 	 -16.6604
|  9> C 	 -144.209 	 27.2431 	 -16.2918
| 10> C 	 -145.097 	 26.8987 	 -15.231
| 11> C 	 -145.877 	 27.9272 	 -14.8308
| 12> H 	 -145.223 	 25.9939 	 -14.6158
| 13> C 	 -143.153 	 26.3313 	 -16.8644
| 14> H 	 -142.595 	 25.9523 	 -15.9489
| 15> H 	 -142.469 	 26.9846 	 -17.4735
| 16> C 	 -143.699 	 25.2689 	 -17.8102
| 17> H 	 -144.424 	 24.7262 	 -17.2747
| 18> H 	 -144.124 	 25.6934 	 -18.6627
| 19> C 	 -142.547 	 24.3642 	 -18.2732
| 20> H 	 -142.948 	 23.3889 	 -18.6474
| 21> H 	 -141.954 	 24.7451 	 -19.1043
| 22> H 	 -141.897 	 24.0138 	 -17.4528
| 23> S 	 -148.662 	 28.146 	 -14.1534
| 24> C 	 -148.963 	 28.2584 	 -12.4714
| 25> C 	 -147.902 	 28.1089 	 -11.6395
| 26> C 	 -146.715 	 27.9753 	 -12.3967
| 27> C 	 -146.947 	 27.9882 	 -13.7785
| 28> H 	 -147.923 	 28.2838 	 -10.5711
| 29> C 	 -145.387 	 27.9888 	 -11.7066
| 30> H 	 -144.6 	 28.0029 	 -12.4723
| 31> H 	 -145.314 	 27.0037 	 -11.1745
| 32> C 	 -145.145 	 29.1933 	 -10.796
| 33> H 	 -144.087 	 29.2019 	 -10.4354
| 34> H 	 -145.779 	 29.0505 	 -9.90463
| 35> C 	 -145.537 	 30.4995 	 -11.5679
| 36> H 	 -144.789 	 30.703 	 -12.3927
| 37> H 	 -145.388 	 31.343 	 -10.9464
| 38> H 	 -146.595 	 30.5323 	 -11.9207
| 39> H 	 -143.748 	 29.1393 	 -17.3926
| 40> H 	 -149.916 	 28.6105 	 -12.0621
| 41> *
| 42>
| 43>                          ****END OF INPUT****

CARTESIAN COORDINATES (ANGSTROEM)
---------------------------------
  S    -145.605000   29.334300  -15.795900
  C    -144.314000   28.554800  -16.660400
  C    -144.209000   27.243100  -16.291800
  C    -145.097000   26.898700  -15.231000
  C    -145.877000   27.927200  -14.830800
  H    -145.223000   25.993900  -14.615800
  C    -143.153000   26.331300  -16.864400
  H    -142.595000   25.952300  -15.948900
  H    -142.469000   26.984600  -17.473500
  C    -143.699000   25.268900  -17.810200
  H    -144.424000   24.726200  -17.274700
  H    -144.124000   25.693400  -18.662700
  C    -142.547000   24.364200  -18.273200
  H    -142.948000   23.388900  -18.647400
  H    -141.954000   24.745100  -19.104300
  H    -141.897000   24.013800  -17.452800
  S    -148.662000   28.146000  -14.153400
  C    -148.963000   28.258400  -12.471400
  C    -147.902000   28.108900  -11.639500
  C    -146.715000   27.975300  -12.396700
  C    -146.947000   27.988200  -13.778500
  H    -147.923000   28.283800  -10.571100
  C    -145.387000   27.988800  -11.706600
  H    -144.600000   28.002900  -12.472300
  H    -145.314000   27.003700  -11.174500
  C    -145.145000   29.193300  -10.796000
  H    -144.087000   29.201900  -10.435400
  H    -145.779000   29.050500   -9.904630
  C    -145.537000   30.499500  -11.567900
  H    -144.789000   30.703000  -12.392700
  H    -145.388000   31.343000  -10.946400
  H    -146.595000   30.532300  -11.920700
  H    -143.748000   29.139300  -17.392600
  H    -149.916000   28.610500  -12.062100

 Total Charge           Charge          ....    0
 Multiplicity           Mult            ....    1
 Number of Electrons    NEL             ....  134
 Basis Dimension        Dim             ....  322

ORBITAL ENERGIES
----------------

  NO   OCC          E(Eh)            E(eV)
   0   2.0000     -88.969663     -2420.9876
   1   2.0000     -88.957554     -2420.6581
   2   2.0000     -10.325015      -280.9579
   3   2.0000     -10.322632      -280.8931
   4   2.0000     -10.313380      -280.6413
   5   2.0000     -10.310945      -280.5751
   6   2.0000     -10.298101      -280.2256
   7   2.0000     -10.297989      -280.2225
   8   2.0000     -10.295320      -280.1499
   9   2.0000     -10.292515      -280.0736
  10   2.0000     -10.291119      -280.0356
  11   2.0000     -10.287807      -279.9455
  12   2.0000     -10.287623      -279.9404
  13   2.0000     -10.279670      -279.7240
  14   2.0000     -10.278118      -279.6818
  15   2.0000     -10.276840      -279.6470
  16   2.0000      -8.084713      -219.9962
  17   2.0000      -8.073431      -219.6892
  18   2.0000      -6.043087      -164.4408
  19   2.0000      -6.039351      -164.3391
  20   2.0000      -6.035426      -164.2323
  21   2.0000      -6.031743      -164.1321
  22   2.0000      -6.027717      -164.0225
  23   2.0000      -6.024394      -163.9321
  24   2.0000      -1.009285       -27.4640
  25   2.0000      -0.991005       -26.9666
  26   2.0000      -0.912952       -24.8427
  27   2.0000      -0.909428       -24.7468
  28   2.0000      -0.866241       -23.5716
  29   2.0000      -0.846914       -23.0457
  30   2.0000      -0.844379       -22.9767
  31   2.0000      -0.815502       -22.1909
  32   2.0000      -0.779948       -21.2235
  33   2.0000      -0.765503       -20.8304
  34   2.0000      -0.706285       -19.2190
  35   2.0000      -0.696744       -18.9594
  36   2.0000      -0.688124       -18.7248
  37   2.0000      -0.653568       -17.7845
  38   2.0000      -0.648959       -17.6591
  39   2.0000      -0.614939       -16.7333
  40   2.0000      -0.594588       -16.1796
  41   2.0000      -0.571201       -15.5432
  42   2.0000      -0.560677       -15.2568
  43   2.0000      -0.552454       -15.0330
  44   2.0000      -0.541196       -14.7267
  45   2.0000      -0.519162       -14.1271
  46   2.0000      -0.513939       -13.9850
  47   2.0000      -0.505952       -13.7676
  48   2.0000      -0.502459       -13.6726
  49   2.0000      -0.494051       -13.4438
  50   2.0000      -0.486483       -13.2379
  51   2.0000      -0.472916       -12.8687
  52   2.0000      -0.466233       -12.6869
  53   2.0000      -0.462773       -12.5927
  54   2.0000      -0.458174       -12.4675
  55   2.0000      -0.452060       -12.3012
  56   2.0000      -0.442853       -12.0506
  57   2.0000      -0.439338       -11.9550
  58   2.0000      -0.433991       -11.8095
  59   2.0000      -0.427532       -11.6337
  60   2.0000      -0.423837       -11.5332
  61   2.0000      -0.411722       -11.2035
  62   2.0000      -0.406720       -11.0674
  63   2.0000      -0.339490        -9.2380
  64   2.0000      -0.331325        -9.0158
  65   2.0000      -0.326667        -8.8891
  66   2.0000      -0.302956        -8.2438
  67   0.0000       0.044953         1.2232
  68   0.0000       0.067384         1.8336
  69   0.0000       0.122214         3.3256
  70   0.0000       0.126747         3.4490
  71   0.0000       0.131158         3.5690

MULLIKEN ATOMIC CHARGES
-----------------------
   0 S :    0.097166
   1 C :   -0.139099
   2 C :   -0.066602
   3 C :    0.045031
   4 C :   -0.196425
   5 H :    0.017615
   6 C :    0.018930
   7 H :    0.047229
   8 H :    0.019047
   9 C :    0.000089
  10 H :    0.017096
  11 H :    0.018344
  12 C :   -0.069099
  13 H :    0.026815
  14 H :    0.039549
  15 H :    0.029615
  16 S :    0.135552
  17 C :   -0.090563
  18 C :   -0.025726
  19 C :   -0.063409
  20 C :   -0.175365
  21 H :    0.020548
  22 C :    0.080340
  23 H :    0.026265
  24 H :    0.041754
  25 C :   -0.098501
  26 H :    0.044028
  27 H :    0.028121
  28 C :   -0.060282
  29 H :    0.040380
  30 H :    0.018322
  31 H :    0.062182
  32 H :    0.055406
  33 H :    0.055645
Sum of atomic charges:   -0.0000000

LOEWDIN ATOMIC CHARGES
----------------------
   0 S :    0.408251
   1 C :   -0.198546
   2 C :   -0.070447
   3 C :   -0.071794
   4 C :   -0.195434
   5 H :    0.040249
   6 C :   -0.033237
   7 H :    0.038623
   8 H :    0.030838
   9 C :   -0.028433
  10 H :    0.018567
  11 H :    0.021781
  12 C :   -0.071238
  13 H :    0.028478
  14 H :    0.025154
  15 H :    0.025723
  16 S :    0.418356
  17 C :   -0.189937
  18 C :   -0.075035
  19 C :   -0.051050
  20 C :   -0.214282
  21 H :    0.034028
  22 C :   -0.039961
  23 H :    0.028415
  24 H :    0.037019
  25 C :   -0.042077
  26 H :    0.032380
  27 H :    0.018385
  28 C :   -0.070351
  29 H :    0.033637
  30 H :    0.016622
  31 H :    0.035786
  32 H :    0.029801
  33 H :    0.029729

  Mayer bond orders larger than 0.100000
B(  0-S ,  1-C ) :   1.1414 B(  0-S ,  4-C ) :   1.1660 B(  1-C ,  2-C ) :   1.6180
B(  1-C , 32-H ) :   0.9724 B(  2-C ,  3-C ) :   1.1972 B(  2-C ,  6-C ) :   1.0180
B(  3-C ,  4-C ) :   1.6260 B(  3-C ,  5-H ) :   0.9955 B(  4-C , 20-C ) :   0.9850
B(  6-C ,  7-H ) :   0.9423 B(  6-C ,  8-H ) :   0.9437 B(  6-C ,  9-C ) :   1.0676
B(  9-C , 10-H ) :   0.9584 B(  9-C , 11-H ) :   0.9503 B(  9-C , 12-C ) :   1.0849
B( 12-C , 13-H ) :   0.9735 B( 12-C , 14-H ) :   0.9770 B( 12-C , 15-H ) :   0.9744
B( 16-S , 17-C ) :   1.1684 B( 16-S , 20-C ) :   1.1372 B( 17-C , 18-C ) :   1.6153
B( 17-C , 33-H ) :   0.9565 B( 18-C , 19-C ) :   1.2464 B( 18-C , 21-H ) :   0.9896
B( 19-C , 20-C ) :   1.6054 B( 19-C , 22-C ) :   1.0414 B( 22-C , 23-H ) :   0.9295
B( 22-C , 24-H ) :   0.9323 B( 22-C , 25-C ) :   1.0670 B( 25-C , 26-H ) :   0.9567
B( 25-C , 27-H ) :   0.9529 B( 25-C , 28-C ) :   1.0727 B( 28-C , 29-H ) :   0.9741
B( 28-C , 30-H ) :   0.9734 B( 28-C , 31-H ) :   0.9676

Dispersion correction           -0.015025706
FINAL SINGLE POINT ENERGY     -1339.890069313544

DIPOLE MOMENT
-------------
                                X             Y             Z
Electronic contribution:    -18.81009       8.00881      -1.88342
Nuclear contribution   :     19.17045      -8.12741       2.12566
                        -----------------------------------------
Total Dipole Moment    :      0.36036      -0.11860       0.24224
                        -----------------------------------------
Magnitude (a.u.)       :      0.45012
Magnitude (Debye)      :      1.14411

Rotational constants in cm-1:     0.023421     0.007317     0.006842
Rotational constants in MHz :   702.139102   219.370119   205.104353

                             ****ORCA TERMINATED NORMALLY****
TOTAL RUN TIME: 0 days 0 hours 0 minutes 23 seconds 207 msec
