                         Program Version 4.2.1 -  RELEASE  -
|  1> ! wB97X-D3 SP def2-SVP
|  2> %pal
|  3> nprocs 24
|  4> end
|  5>
|  6> * xyz 0 1
|  7> S 	 -108.807 	 55.4728 	 -74.9052
|  8> C 	 -109.337 	 54.4646 	 -76.2878
|  9> C 	 -110.498 	 55.0356 	 -76.811
| 10> C 	 -110.975 	 56.1816 	 -76.1032
| 11> C 	 -110.215 	 56.477 	 -74.9849
| 12> H 	 -111.817 	 56.7222 	 -76.35
| 13> C 	 -111.164 	 54.4116 	 -78.0761
| 14> H 	 -112.002 	 53.8878 	 -77.8251
| 15> H 	 -110.492 	 53.594 	 -78.3386
| 16> C 	 -111.471 	 55.2434 	 -79.3095
| 17> H 	 -111.773 	 54.6723 	 -80.2061
| 18> H 	 -112.275 	 55.9311 	 -79.1528
| 19> C 	 -110.373 	 56.2884 	 -79.6709
| 20> H 	 -109.875 	 56.8865 	 -78.924
| 21> H 	 -109.457 	 55.7574 	 -80.0221
| 22> H 	 -110.631 	 56.9368 	 -80.4917
| 23> S 	 -109.142 	 58.2051 	 -73.079
| 24> C 	 -110.149 	 59.2998 	 -72.1878
| 25> C 	 -111.427 	 58.9625 	 -72.3976
| 26> C 	 -111.666 	 57.8379 	 -73.3093
| 27> C 	 -110.48 	 57.4463 	 -73.8832
| 28> H 	 -112.274 	 59.5415 	 -71.9897
| 29> C 	 -113.065 	 57.3388 	 -73.7158
| 30> H 	 -113.064 	 56.368 	 -74.1914
| 31> H 	 -113.583 	 58.0771 	 -74.3121
| 32> C 	 -114.016 	 57.0416 	 -72.4976
| 33> H 	 -113.926 	 57.8153 	 -71.6939
| 34> H 	 -113.651 	 56.1743 	 -71.9555
| 35> C 	 -115.416 	 56.8225 	 -72.9782
| 36> H 	 -115.86 	 57.696 	 -73.4845
| 37> H 	 -116.193 	 56.6422 	 -72.1192
| 38> H 	 -115.569 	 55.9544 	 -73.6105
| 39> H 	 -108.619 	 53.8796 	 -76.7459
| 40> H 	 -109.958 	 60.1877 	 -71.5007
| 41> *
| 42>
| 43>                          ****END OF INPUT****

CARTESIAN COORDINATES (ANGSTROEM)
---------------------------------
  S    -108.807000   55.472800  -74.905200
  C    -109.337000   54.464600  -76.287800
  C    -110.498000   55.035600  -76.811000
  C    -110.975000   56.181600  -76.103200
  C    -110.215000   56.477000  -74.984900
  H    -111.817000   56.722200  -76.350000
  C    -111.164000   54.411600  -78.076100
  H    -112.002000   53.887800  -77.825100
  H    -110.492000   53.594000  -78.338600
  C    -111.471000   55.243400  -79.309500
  H    -111.773000   54.672300  -80.206100
  H    -112.275000   55.931100  -79.152800
  C    -110.373000   56.288400  -79.670900
  H    -109.875000   56.886500  -78.924000
  H    -109.457000   55.757400  -80.022100
  H    -110.631000   56.936800  -80.491700
  S    -109.142000   58.205100  -73.079000
  C    -110.149000   59.299800  -72.187800
  C    -111.427000   58.962500  -72.397600
  C    -111.666000   57.837900  -73.309300
  C    -110.480000   57.446300  -73.883200
  H    -112.274000   59.541500  -71.989700
  C    -113.065000   57.338800  -73.715800
  H    -113.064000   56.368000  -74.191400
  H    -113.583000   58.077100  -74.312100
  C    -114.016000   57.041600  -72.497600
  H    -113.926000   57.815300  -71.693900
  H    -113.651000   56.174300  -71.955500
  C    -115.416000   56.822500  -72.978200
  H    -115.860000   57.696000  -73.484500
  H    -116.193000   56.642200  -72.119200
  H    -115.569000   55.954400  -73.610500
  H    -108.619000   53.879600  -76.745900
  H    -109.958000   60.187700  -71.500700

 Total Charge           Charge          ....    0
 Multiplicity           Mult            ....    1
 Number of Electrons    NEL             ....  134
 Basis Dimension        Dim             ....  322

ORBITAL ENERGIES
----------------

  NO   OCC          E(Eh)            E(eV)
   0   2.0000     -88.964505     -2420.8472
   1   2.0000     -88.962861     -2420.8025
   2   2.0000     -10.336091      -281.2593
   3   2.0000     -10.330145      -281.0975
   4   2.0000     -10.320324      -280.8303
   5   2.0000     -10.314488      -280.6715
   6   2.0000     -10.311470      -280.5894
   7   2.0000     -10.307653      -280.4855
   8   2.0000     -10.296191      -280.1736
   9   2.0000     -10.294413      -280.1252
  10   2.0000     -10.292623      -280.0765
  11   2.0000     -10.290093      -280.0077
  12   2.0000     -10.289563      -279.9932
  13   2.0000     -10.288618      -279.9675
  14   2.0000     -10.286724      -279.9160
  15   2.0000     -10.272480      -279.5284
  16   2.0000      -8.079968      -219.8671
  17   2.0000      -8.077751      -219.8068
  18   2.0000      -6.038723      -164.3220
  19   2.0000      -6.036220      -164.2539
  20   2.0000      -6.034366      -164.2034
  21   2.0000      -6.032188      -164.1442
  22   2.0000      -6.030398      -164.0955
  23   2.0000      -6.028594      -164.0464
  24   2.0000      -1.010312       -27.4920
  25   2.0000      -0.986384       -26.8409
  26   2.0000      -0.909161       -24.7395
  27   2.0000      -0.909076       -24.7372
  28   2.0000      -0.870075       -23.6759
  29   2.0000      -0.850889       -23.1539
  30   2.0000      -0.839542       -22.8451
  31   2.0000      -0.822592       -22.3839
  32   2.0000      -0.786273       -21.3956
  33   2.0000      -0.773621       -21.0513
  34   2.0000      -0.710313       -19.3286
  35   2.0000      -0.699371       -19.0309
  36   2.0000      -0.696747       -18.9595
  37   2.0000      -0.656465       -17.8633
  38   2.0000      -0.646040       -17.5796
  39   2.0000      -0.627344       -17.0709
  40   2.0000      -0.598373       -16.2826
  41   2.0000      -0.567060       -15.4305
  42   2.0000      -0.564118       -15.3504
  43   2.0000      -0.552763       -15.0414
  44   2.0000      -0.544563       -14.8183
  45   2.0000      -0.522678       -14.2228
  46   2.0000      -0.517692       -14.0871
  47   2.0000      -0.512835       -13.9550
  48   2.0000      -0.506766       -13.7898
  49   2.0000      -0.501375       -13.6431
  50   2.0000      -0.488587       -13.2951
  51   2.0000      -0.483542       -13.1578
  52   2.0000      -0.469061       -12.7638
  53   2.0000      -0.464630       -12.6432
  54   2.0000      -0.460262       -12.5244
  55   2.0000      -0.455413       -12.3924
  56   2.0000      -0.450000       -12.2451
  57   2.0000      -0.441350       -12.0097
  58   2.0000      -0.430996       -11.7280
  59   2.0000      -0.421102       -11.4588
  60   2.0000      -0.414911       -11.2903
  61   2.0000      -0.408863       -11.1257
  62   2.0000      -0.401356       -10.9214
  63   2.0000      -0.356657        -9.7051
  64   2.0000      -0.333894        -9.0857
  65   2.0000      -0.327213        -8.9039
  66   2.0000      -0.295935        -8.0528
  67   0.0000       0.024644         0.6706
  68   0.0000       0.080591         2.1930
  69   0.0000       0.102129         2.7791
  70   0.0000       0.119065         3.2399
  71   0.0000       0.138209         3.7608

MULLIKEN ATOMIC CHARGES
-----------------------
   0 S :    0.081031
   1 C :   -0.097718
   2 C :   -0.125453
   3 C :    0.057353
   4 C :   -0.124097
   5 H :   -0.016466
   6 C :    0.139028
   7 H :    0.013192
   8 H :    0.006890
   9 C :   -0.062061
  10 H :    0.041586
  11 H :    0.021277
  12 C :   -0.082678
  13 H :    0.039935
  14 H :    0.011229
  15 H :    0.030334
  16 S :    0.098706
  17 C :   -0.084220
  18 C :   -0.057350
  19 C :   -0.038467
  20 C :   -0.134241
  21 H :    0.028812
  22 C :    0.052295
  23 H :    0.038565
  24 H :    0.036983
  25 C :   -0.088536
  26 H :    0.027963
  27 H :    0.031609
  28 C :   -0.077692
  29 H :    0.032748
  30 H :    0.040174
  31 H :    0.034576
  32 H :    0.042447
  33 H :    0.082244
Sum of atomic charges:   -0.0000000

LOEWDIN ATOMIC CHARGES
----------------------
   0 S :    0.392080
   1 C :   -0.179491
   2 C :   -0.045791
   3 C :   -0.062512
   4 C :   -0.178286
   5 H :    0.019476
   6 C :   -0.024279
   7 H :    0.020961
   8 H :    0.032299
   9 C :   -0.041259
  10 H :    0.034770
  11 H :    0.019713
  12 C :   -0.077973
  13 H :    0.027284
  14 H :    0.023144
  15 H :    0.022792
  16 S :    0.405986
  17 C :   -0.204036
  18 C :   -0.078645
  19 C :   -0.058179
  20 C :   -0.197957
  21 H :    0.032234
  22 C :   -0.027251
  23 H :    0.033402
  24 H :    0.028902
  25 C :   -0.047011
  26 H :    0.023250
  27 H :    0.025875
  28 C :   -0.077743
  29 H :    0.025083
  30 H :    0.037488
  31 H :    0.023992
  32 H :    0.013727
  33 H :    0.057959

  Mayer bond orders larger than 0.100000
B(  0-S ,  1-C ) :   1.1250 B(  0-S ,  4-C ) :   1.1776 B(  1-C ,  2-C ) :   1.6006
B(  1-C ,  4-C ) :   0.1047 B(  1-C , 32-H ) :   0.9752 B(  2-C ,  3-C ) :   1.2399
B(  2-C ,  6-C ) :   1.0125 B(  3-C ,  4-C ) :   1.5493 B(  3-C ,  5-H ) :   1.0159
B(  4-C , 20-C ) :   1.0277 B(  6-C ,  7-H ) :   0.9333 B(  6-C ,  8-H ) :   0.9369
B(  6-C ,  9-C ) :   1.0690 B(  9-C , 10-H ) :   0.9552 B(  9-C , 11-H ) :   0.9558
B(  9-C , 12-C ) :   1.0691 B( 12-C , 13-H ) :   0.9724 B( 12-C , 14-H ) :   0.9741
B( 12-C , 15-H ) :   0.9780 B( 16-S , 17-C ) :   1.1257 B( 16-S , 20-C ) :   1.1322
B( 17-C , 18-C ) :   1.6633 B( 17-C , 33-H ) :   0.9555 B( 18-C , 19-C ) :   1.2121
B( 18-C , 21-H ) :   0.9767 B( 19-C , 20-C ) :   1.6210 B( 19-C , 22-C ) :   1.0443
B( 22-C , 23-H ) :   0.9385 B( 22-C , 24-H ) :   0.9453 B( 22-C , 25-C ) :   1.0392
B( 25-C , 26-H ) :   0.9589 B( 25-C , 27-H ) :   0.9545 B( 25-C , 28-C ) :   1.0840
B( 28-C , 29-H ) :   0.9735 B( 28-C , 30-H ) :   0.9704 B( 28-C , 31-H ) :   0.9726

Dispersion correction           -0.013863054
FINAL SINGLE POINT ENERGY     -1339.859738432947

DIPOLE MOMENT
-------------
                                X             Y             Z
Electronic contribution:     23.12248       3.30229      13.58805
Nuclear contribution   :    -23.83542      -3.21489     -13.85593
                        -----------------------------------------
Total Dipole Moment    :     -0.71294       0.08740      -0.26789
                        -----------------------------------------
Magnitude (a.u.)       :      0.76661
Magnitude (Debye)      :      1.94856

Rotational constants in cm-1:     0.017094     0.008687     0.006640
Rotational constants in MHz :   512.478219   260.437128   199.074762

                             ****ORCA TERMINATED NORMALLY****
TOTAL RUN TIME: 0 days 0 hours 0 minutes 21 seconds 151 msec
