                         Program Version 4.2.1 -  RELEASE  -
|  1> ! wB97X-D3 SP def2-SVP
|  2> %pal
|  3> nprocs 24
|  4> end
|  5>
|  6> * xyz 0 1
|  7> S 	 -123.048 	 67.0315 	 -40.0966
|  8> C 	 -123.833 	 68.5236 	 -39.9917
|  9> C 	 -124.714 	 68.7184 	 -41.0205
| 10> C 	 -124.571 	 67.6147 	 -41.9352
| 11> C 	 -123.751 	 66.5765 	 -41.5895
| 12> H 	 -125.111 	 67.5572 	 -42.9204
| 13> C 	 -125.473 	 69.9662 	 -41.2715
| 14> H 	 -125.524 	 70.1172 	 -42.3805
| 15> H 	 -124.909 	 70.8289 	 -40.9079
| 16> C 	 -126.82 	 69.9873 	 -40.7233
| 17> H 	 -127.202 	 69.0613 	 -40.8824
| 18> H 	 -126.798 	 69.9112 	 -39.6186
| 19> C 	 -127.601 	 71.2683 	 -41.2292
| 20> H 	 -128.605 	 71.337 	 -40.8052
| 21> H 	 -127.06 	 72.197 	 -41.0167
| 22> H 	 -127.74 	 71.2765 	 -42.3371
| 23> S 	 -123.621 	 63.8803 	 -41.1046
| 24> C 	 -123.376 	 62.7957 	 -42.4687
| 25> C 	 -123.218 	 63.4921 	 -43.6359
| 26> C 	 -123.346 	 64.8569 	 -43.5201
| 27> C 	 -123.565 	 65.2907 	 -42.2182
| 28> H 	 -123.045 	 62.8668 	 -44.5626
| 29> C 	 -123.177 	 65.797 	 -44.7791
| 30> H 	 -122.154 	 65.6087 	 -45.0474
| 31> H 	 -123.179 	 66.8239 	 -44.4893
| 32> C 	 -124.192 	 65.5555 	 -45.9211
| 33> H 	 -125.184 	 65.818 	 -45.5152
| 34> H 	 -124.282 	 64.461 	 -46.0238
| 35> C 	 -123.789 	 66.2524 	 -47.2031
| 36> H 	 -124.586 	 66.1448 	 -47.9303
| 37> H 	 -122.853 	 65.8732 	 -47.6203
| 38> H 	 -123.676 	 67.2995 	 -47.0694
| 39> H 	 -123.848 	 69.0996 	 -39.0693
| 40> H 	 -123.368 	 61.7572 	 -42.4232
| 41> *
| 42>
| 43>                          ****END OF INPUT****

CARTESIAN COORDINATES (ANGSTROEM)
---------------------------------
  S    -123.048000   67.031500  -40.096600
  C    -123.833000   68.523600  -39.991700
  C    -124.714000   68.718400  -41.020500
  C    -124.571000   67.614700  -41.935200
  C    -123.751000   66.576500  -41.589500
  H    -125.111000   67.557200  -42.920400
  C    -125.473000   69.966200  -41.271500
  H    -125.524000   70.117200  -42.380500
  H    -124.909000   70.828900  -40.907900
  C    -126.820000   69.987300  -40.723300
  H    -127.202000   69.061300  -40.882400
  H    -126.798000   69.911200  -39.618600
  C    -127.601000   71.268300  -41.229200
  H    -128.605000   71.337000  -40.805200
  H    -127.060000   72.197000  -41.016700
  H    -127.740000   71.276500  -42.337100
  S    -123.621000   63.880300  -41.104600
  C    -123.376000   62.795700  -42.468700
  C    -123.218000   63.492100  -43.635900
  C    -123.346000   64.856900  -43.520100
  C    -123.565000   65.290700  -42.218200
  H    -123.045000   62.866800  -44.562600
  C    -123.177000   65.797000  -44.779100
  H    -122.154000   65.608700  -45.047400
  H    -123.179000   66.823900  -44.489300
  C    -124.192000   65.555500  -45.921100
  H    -125.184000   65.818000  -45.515200
  H    -124.282000   64.461000  -46.023800
  C    -123.789000   66.252400  -47.203100
  H    -124.586000   66.144800  -47.930300
  H    -122.853000   65.873200  -47.620300
  H    -123.676000   67.299500  -47.069400
  H    -123.848000   69.099600  -39.069300
  H    -123.368000   61.757200  -42.423200

 Total Charge           Charge          ....    0
 Multiplicity           Mult            ....    1
 Number of Electrons    NEL             ....  134
 Basis Dimension        Dim             ....  322

ORBITAL ENERGIES
----------------

  NO   OCC          E(Eh)            E(eV)
   0   2.0000     -88.965864     -2420.8842
   1   2.0000     -88.961423     -2420.7634
   2   2.0000     -10.331421      -281.1323
   3   2.0000     -10.324013      -280.9307
   4   2.0000     -10.313744      -280.6512
   5   2.0000     -10.307714      -280.4872
   6   2.0000     -10.304777      -280.4072
   7   2.0000     -10.296598      -280.1847
   8   2.0000     -10.293666      -280.1049
   9   2.0000     -10.293334      -280.0959
  10   2.0000     -10.290686      -280.0238
  11   2.0000     -10.290509      -280.0190
  12   2.0000     -10.287111      -279.9265
  13   2.0000     -10.286385      -279.9068
  14   2.0000     -10.278200      -279.6840
  15   2.0000     -10.277789      -279.6729
  16   2.0000      -8.079837      -219.8635
  17   2.0000      -8.078193      -219.8188
  18   2.0000      -6.038332      -164.3114
  19   2.0000      -6.036552      -164.2629
  20   2.0000      -6.034495      -164.2070
  21   2.0000      -6.032257      -164.1460
  22   2.0000      -6.030608      -164.1012
  23   2.0000      -6.029123      -164.0608
  24   2.0000      -1.015595       -27.6357
  25   2.0000      -0.990305       -26.9476
  26   2.0000      -0.924922       -25.1684
  27   2.0000      -0.906720       -24.6731
  28   2.0000      -0.874805       -23.8046
  29   2.0000      -0.853053       -23.2127
  30   2.0000      -0.843180       -22.9441
  31   2.0000      -0.815525       -22.1916
  32   2.0000      -0.784000       -21.3337
  33   2.0000      -0.775575       -21.1045
  34   2.0000      -0.714038       -19.4300
  35   2.0000      -0.706133       -19.2149
  36   2.0000      -0.702615       -19.1191
  37   2.0000      -0.661129       -17.9902
  38   2.0000      -0.644285       -17.5319
  39   2.0000      -0.620821       -16.8934
  40   2.0000      -0.599009       -16.2999
  41   2.0000      -0.574911       -15.6441
  42   2.0000      -0.561203       -15.2711
  43   2.0000      -0.555718       -15.1219
  44   2.0000      -0.529481       -14.4079
  45   2.0000      -0.526334       -14.3223
  46   2.0000      -0.520280       -14.1575
  47   2.0000      -0.512013       -13.9326
  48   2.0000      -0.507336       -13.8053
  49   2.0000      -0.503431       -13.6991
  50   2.0000      -0.491540       -13.3755
  51   2.0000      -0.482339       -13.1251
  52   2.0000      -0.474786       -12.9196
  53   2.0000      -0.468951       -12.7608
  54   2.0000      -0.456405       -12.4194
  55   2.0000      -0.455420       -12.3926
  56   2.0000      -0.446699       -12.1553
  57   2.0000      -0.443945       -12.0804
  58   2.0000      -0.437295       -11.8994
  59   2.0000      -0.423409       -11.5216
  60   2.0000      -0.419993       -11.4286
  61   2.0000      -0.413486       -11.2515
  62   2.0000      -0.405720       -11.0402
  63   2.0000      -0.353156        -9.6099
  64   2.0000      -0.336669        -9.1612
  65   2.0000      -0.327839        -8.9209
  66   2.0000      -0.290953        -7.9172
  67   0.0000       0.029899         0.8136
  68   0.0000       0.072444         1.9713
  69   0.0000       0.113774         3.0959
  70   0.0000       0.121695         3.3115
  71   0.0000       0.133968         3.6454

MULLIKEN ATOMIC CHARGES
-----------------------
   0 S :    0.111484
   1 C :   -0.111273
   2 C :   -0.102116
   3 C :    0.000610
   4 C :   -0.142713
   5 H :    0.017754
   6 C :    0.045851
   7 H :    0.024360
   8 H :    0.022573
   9 C :   -0.015807
  10 H :   -0.005714
  11 H :    0.015039
  12 C :   -0.050588
  13 H :    0.039718
  14 H :    0.033517
  15 H :    0.034805
  16 S :    0.096118
  17 C :   -0.065763
  18 C :   -0.070395
  19 C :   -0.011527
  20 C :   -0.163366
  21 H :    0.042462
  22 C :    0.081675
  23 H :    0.024319
  24 H :    0.012229
  25 C :   -0.083306
  26 H :    0.027854
  27 H :    0.023854
  28 C :   -0.007458
  29 H :    0.032506
  30 H :    0.033711
  31 H :    0.022389
  32 H :    0.056397
  33 H :    0.030801
Sum of atomic charges:   -0.0000000

LOEWDIN ATOMIC CHARGES
----------------------
   0 S :    0.443343
   1 C :   -0.210869
   2 C :   -0.070974
   3 C :   -0.071426
   4 C :   -0.217805
   5 H :    0.032426
   6 C :   -0.035920
   7 H :    0.035022
   8 H :    0.030165
   9 C :   -0.040034
  10 H :    0.011430
  11 H :    0.027753
  12 C :   -0.064710
  13 H :    0.026870
  14 H :    0.027294
  15 H :    0.028849
  16 S :    0.383972
  17 C :   -0.166634
  18 C :   -0.082364
  19 C :   -0.054774
  20 C :   -0.179421
  21 H :    0.044484
  22 C :   -0.021795
  23 H :    0.028574
  24 H :    0.021442
  25 C :   -0.042331
  26 H :    0.026547
  27 H :    0.022945
  28 C :   -0.059684
  29 H :    0.028456
  30 H :    0.028921
  31 H :    0.021927
  32 H :    0.031511
  33 H :    0.016809

  Mayer bond orders larger than 0.100000
B(  0-S ,  1-C ) :   1.1694 B(  0-S ,  4-C ) :   1.1574 B(  1-C ,  2-C ) :   1.5867
B(  1-C , 32-H ) :   0.9614 B(  2-C ,  3-C ) :   1.2729 B(  2-C ,  6-C ) :   1.0202
B(  3-C ,  4-C ) :   1.5590 B(  3-C ,  5-H ) :   0.9861 B(  4-C , 20-C ) :   1.0511
B(  6-C ,  7-H ) :   0.9431 B(  6-C ,  8-H ) :   0.9410 B(  6-C ,  9-C ) :   1.0640
B(  9-C , 10-H ) :   0.9505 B(  9-C , 11-H ) :   0.9461 B(  9-C , 12-C ) :   1.0604
B( 12-C , 13-H ) :   0.9766 B( 12-C , 14-H ) :   0.9748 B( 12-C , 15-H ) :   0.9768
B( 16-S , 17-C ) :   1.1517 B( 16-S , 20-C ) :   1.1339 B( 17-C , 18-C ) :   1.6168
B( 17-C , 20-C ) :   0.1143 B( 17-C , 33-H ) :   0.9735 B( 18-C , 19-C ) :   1.2526
B( 18-C , 21-H ) :   0.9772 B( 19-C , 20-C ) :   1.5978 B( 19-C , 22-C ) :   1.0145
B( 22-C , 23-H ) :   0.9412 B( 22-C , 24-H ) :   0.9370 B( 22-C , 25-C ) :   1.0535
B( 25-C , 26-H ) :   0.9522 B( 25-C , 27-H ) :   0.9587 B( 25-C , 28-C ) :   1.0808
B( 28-C , 29-H ) :   0.9722 B( 28-C , 30-H ) :   0.9739 B( 28-C , 31-H ) :   0.9729

Dispersion correction           -0.013368668
FINAL SINGLE POINT ENERGY     -1339.875223936829

DIPOLE MOMENT
-------------
                                X             Y             Z
Electronic contribution:     13.15826     -18.04460      19.32239
Nuclear contribution   :    -13.43175      18.27549     -19.86692
                        -----------------------------------------
Total Dipole Moment    :     -0.27349       0.23089      -0.54453
                        -----------------------------------------
Magnitude (a.u.)       :      0.65163
Magnitude (Debye)      :      1.65631

Rotational constants in cm-1:     0.017041     0.008160     0.006082
Rotational constants in MHz :   510.879515   244.635161   182.337651

                             ****ORCA TERMINATED NORMALLY****
TOTAL RUN TIME: 0 days 0 hours 0 minutes 20 seconds 953 msec
