                         Program Version 4.2.1 -  RELEASE  -
|  1> ! wB97X-D3 SP def2-SVP
|  2> %pal
|  3> nprocs 24
|  4> end
|  5>
|  6> * xyz 0 1
|  7> S 	 -64.1956 	 22.0011 	 -118.767
|  8> C 	 -62.6062 	 21.5805 	 -119.513
|  9> C 	 -61.7653 	 20.9093 	 -118.613
| 10> C 	 -62.5897 	 20.4421 	 -117.515
| 11> C 	 -63.815 	 21.0641 	 -117.369
| 12> H 	 -62.1946 	 19.7096 	 -116.772
| 13> C 	 -60.3244 	 20.612 	 -118.865
| 14> H 	 -60.2593 	 19.9071 	 -119.685
| 15> H 	 -59.9079 	 19.9954 	 -118.117
| 16> C 	 -59.401 	 21.8028 	 -119.148
| 17> H 	 -59.9115 	 22.5649 	 -119.703
| 18> H 	 -59.061 	 22.2045 	 -118.155
| 19> C 	 -58.1906 	 21.3868 	 -119.972
| 20> H 	 -57.5051 	 20.8462 	 -119.417
| 21> H 	 -58.4251 	 20.7931 	 -120.894
| 22> H 	 -57.7374 	 22.2358 	 -120.431
| 23> S 	 -66.3194 	 20.1183 	 -116.767
| 24> C 	 -66.9556 	 20.1581 	 -115.147
| 25> C 	 -65.9923 	 20.5924 	 -114.24
| 26> C 	 -64.7509 	 20.9772 	 -114.864
| 27> C 	 -64.7659 	 20.7845 	 -116.254
| 28> H 	 -66.3092 	 20.8168 	 -113.296
| 29> C 	 -63.6357 	 21.5912 	 -114.02
| 30> H 	 -62.6678 	 21.263 	 -114.433
| 31> H 	 -63.7403 	 21.0831 	 -113.039
| 32> C 	 -63.5287 	 23.1135 	 -113.919
| 33> H 	 -64.3756 	 23.5113 	 -113.352
| 34> H 	 -63.4905 	 23.6388 	 -114.887
| 35> C 	 -62.1944 	 23.4785 	 -113.217
| 36> H 	 -61.3247 	 22.9661 	 -113.651
| 37> H 	 -62.1907 	 23.4226 	 -112.104
| 38> H 	 -61.9929 	 24.6093 	 -113.317
| 39> H 	 -62.3381 	 21.9643 	 -120.508
| 40> H 	 -68.0011 	 19.8794 	 -114.944
| 41> *
| 42>
| 43>                          ****END OF INPUT****

CARTESIAN COORDINATES (ANGSTROEM)
---------------------------------
  S    -64.195600   22.001100  -118.767000
  C    -62.606200   21.580500  -119.513000
  C    -61.765300   20.909300  -118.613000
  C    -62.589700   20.442100  -117.515000
  C    -63.815000   21.064100  -117.369000
  H    -62.194600   19.709600  -116.772000
  C    -60.324400   20.612000  -118.865000
  H    -60.259300   19.907100  -119.685000
  H    -59.907900   19.995400  -118.117000
  C    -59.401000   21.802800  -119.148000
  H    -59.911500   22.564900  -119.703000
  H    -59.061000   22.204500  -118.155000
  C    -58.190600   21.386800  -119.972000
  H    -57.505100   20.846200  -119.417000
  H    -58.425100   20.793100  -120.894000
  H    -57.737400   22.235800  -120.431000
  S    -66.319400   20.118300  -116.767000
  C    -66.955600   20.158100  -115.147000
  C    -65.992300   20.592400  -114.240000
  C    -64.750900   20.977200  -114.864000
  C    -64.765900   20.784500  -116.254000
  H    -66.309200   20.816800  -113.296000
  C    -63.635700   21.591200  -114.020000
  H    -62.667800   21.263000  -114.433000
  H    -63.740300   21.083100  -113.039000
  C    -63.528700   23.113500  -113.919000
  H    -64.375600   23.511300  -113.352000
  H    -63.490500   23.638800  -114.887000
  C    -62.194400   23.478500  -113.217000
  H    -61.324700   22.966100  -113.651000
  H    -62.190700   23.422600  -112.104000
  H    -61.992900   24.609300  -113.317000
  H    -62.338100   21.964300  -120.508000
  H    -68.001100   19.879400  -114.944000

 Total Charge           Charge          ....    0
 Multiplicity           Mult            ....    1
 Number of Electrons    NEL             ....  134
 Basis Dimension        Dim             ....  322

ORBITAL ENERGIES
----------------

  NO   OCC          E(Eh)            E(eV)
   0   2.0000     -88.967441     -2420.9271
   1   2.0000     -88.961637     -2420.7692
   2   2.0000     -10.329927      -281.0916
   3   2.0000     -10.329537      -281.0810
   4   2.0000     -10.320678      -280.8399
   5   2.0000     -10.319093      -280.7968
   6   2.0000     -10.307675      -280.4861
   7   2.0000     -10.307165      -280.4722
   8   2.0000     -10.297588      -280.2116
   9   2.0000     -10.293431      -280.0985
  10   2.0000     -10.290479      -280.0182
  11   2.0000     -10.289063      -279.9796
  12   2.0000     -10.288902      -279.9753
  13   2.0000     -10.288134      -279.9544
  14   2.0000     -10.285987      -279.8959
  15   2.0000     -10.273880      -279.5665
  16   2.0000      -8.081582      -219.9110
  17   2.0000      -8.076482      -219.7723
  18   2.0000      -6.040165      -164.3612
  19   2.0000      -6.036196      -164.2532
  20   2.0000      -6.034920      -164.2185
  21   2.0000      -6.032269      -164.1464
  22   2.0000      -6.030823      -164.1070
  23   2.0000      -6.027465      -164.0157
  24   2.0000      -0.999963       -27.2104
  25   2.0000      -0.978470       -26.6255
  26   2.0000      -0.917161       -24.9572
  27   2.0000      -0.904178       -24.6039
  28   2.0000      -0.865803       -23.5597
  29   2.0000      -0.846655       -23.0386
  30   2.0000      -0.844923       -22.9915
  31   2.0000      -0.810101       -22.0440
  32   2.0000      -0.784046       -21.3350
  33   2.0000      -0.767307       -20.8795
  34   2.0000      -0.709006       -19.2930
  35   2.0000      -0.700535       -19.0625
  36   2.0000      -0.686011       -18.6673
  37   2.0000      -0.663385       -18.0516
  38   2.0000      -0.639133       -17.3917
  39   2.0000      -0.614612       -16.7244
  40   2.0000      -0.594293       -16.1715
  41   2.0000      -0.580041       -15.7837
  42   2.0000      -0.564602       -15.3636
  43   2.0000      -0.556450       -15.1418
  44   2.0000      -0.526446       -14.3253
  45   2.0000      -0.524746       -14.2791
  46   2.0000      -0.516734       -14.0610
  47   2.0000      -0.510908       -13.9025
  48   2.0000      -0.503928       -13.7126
  49   2.0000      -0.493614       -13.4319
  50   2.0000      -0.491934       -13.3862
  51   2.0000      -0.473628       -12.8881
  52   2.0000      -0.470353       -12.7990
  53   2.0000      -0.460909       -12.5420
  54   2.0000      -0.457122       -12.4389
  55   2.0000      -0.447532       -12.1780
  56   2.0000      -0.441064       -12.0020
  57   2.0000      -0.434324       -11.8186
  58   2.0000      -0.431816       -11.7503
  59   2.0000      -0.426927       -11.6173
  60   2.0000      -0.424301       -11.5458
  61   2.0000      -0.418773       -11.3954
  62   2.0000      -0.414770       -11.2865
  63   2.0000      -0.335736        -9.1358
  64   2.0000      -0.329066        -8.9543
  65   2.0000      -0.325804        -8.8656
  66   2.0000      -0.296559        -8.0698
  67   0.0000       0.032231         0.8771
  68   0.0000       0.066009         1.7962
  69   0.0000       0.108559         2.9540
  70   0.0000       0.118856         3.2342
  71   0.0000       0.127185         3.4609

MULLIKEN ATOMIC CHARGES
-----------------------
   0 S :    0.112830
   1 C :   -0.152550
   2 C :   -0.076667
   3 C :    0.017680
   4 C :   -0.142371
   5 H :    0.030129
   6 C :    0.090199
   7 H :    0.026355
   8 H :   -0.000999
   9 C :   -0.065953
  10 H :    0.027452
  11 H :    0.042389
  12 C :   -0.038792
  13 H :    0.022894
  14 H :    0.026979
  15 H :    0.023708
  16 S :    0.097901
  17 C :   -0.112961
  18 C :    0.000511
  19 C :   -0.028120
  20 C :   -0.169705
  21 H :   -0.009946
  22 C :    0.055258
  23 H :    0.013218
  24 H :    0.030653
  25 C :   -0.036467
  26 H :    0.028304
  27 H :    0.044948
  28 C :   -0.104322
  29 H :    0.041488
  30 H :    0.038054
  31 H :    0.035546
  32 H :    0.061036
  33 H :    0.071321
Sum of atomic charges:   -0.0000000

LOEWDIN ATOMIC CHARGES
----------------------
   0 S :    0.395095
   1 C :   -0.182196
   2 C :   -0.055149
   3 C :   -0.065223
   4 C :   -0.214196
   5 H :    0.035757
   6 C :   -0.037686
   7 H :    0.035239
   8 H :    0.024959
   9 C :   -0.031452
  10 H :    0.020370
  11 H :    0.033462
  12 C :   -0.061644
  13 H :    0.014192
  14 H :    0.029969
  15 H :    0.024750
  16 S :    0.403837
  17 C :   -0.184672
  18 C :   -0.067933
  19 C :   -0.052071
  20 C :   -0.194256
  21 H :    0.015915
  22 C :   -0.036200
  23 H :    0.028915
  24 H :    0.035731
  25 C :   -0.038809
  26 H :    0.024700
  27 H :    0.033034
  28 C :   -0.078843
  29 H :    0.024848
  30 H :    0.025954
  31 H :    0.032816
  32 H :    0.027166
  33 H :    0.033620

  Mayer bond orders larger than 0.100000
B(  0-S ,  1-C ) :   1.1334 B(  0-S ,  4-C ) :   1.1480 B(  1-C ,  2-C ) :   1.5958
B(  1-C , 32-H ) :   0.9664 B(  2-C ,  3-C ) :   1.2372 B(  2-C ,  6-C ) :   1.0292
B(  3-C ,  4-C ) :   1.5940 B(  3-C ,  5-H ) :   0.9777 B(  4-C , 20-C ) :   1.0110
B(  6-C ,  7-H ) :   0.9387 B(  6-C ,  8-H ) :   0.9310 B(  6-C ,  9-C ) :   1.0501
B(  9-C , 10-H ) :   0.9659 B(  9-C , 11-H ) :   0.9536 B(  9-C , 12-C ) :   1.0837
B( 12-C , 13-H ) :   0.9775 B( 12-C , 14-H ) :   0.9729 B( 12-C , 15-H ) :   0.9724
B( 16-S , 17-C ) :   1.1700 B( 16-S , 20-C ) :   1.1497 B( 17-C , 18-C ) :   1.5926
B( 17-C , 33-H ) :   0.9649 B( 18-C , 19-C ) :   1.2438 B( 18-C , 21-H ) :   1.0017
B( 19-C , 20-C ) :   1.6009 B( 19-C , 22-C ) :   1.0389 B( 22-C , 23-H ) :   0.9333
B( 22-C , 24-H ) :   0.9353 B( 22-C , 25-C ) :   1.0695 B( 25-C , 26-H ) :   0.9521
B( 25-C , 27-H ) :   0.9561 B( 25-C , 28-C ) :   1.0745 B( 28-C , 29-H ) :   0.9748
B( 28-C , 30-H ) :   0.9766 B( 28-C , 31-H ) :   0.9749

Dispersion correction           -0.013423558
FINAL SINGLE POINT ENERGY     -1339.872580007793

DIPOLE MOMENT
-------------
                                X             Y             Z
Electronic contribution:    -27.71953      -7.69614      -6.90682
Nuclear contribution   :     28.30379       7.78621       7.12657
                        -----------------------------------------
Total Dipole Moment    :      0.58426       0.09006       0.21975
                        -----------------------------------------
Magnitude (a.u.)       :      0.63068
Magnitude (Debye)      :      1.60306

Rotational constants in cm-1:     0.018997     0.007886     0.006181
Rotational constants in MHz :   569.530262   236.408809   185.298480

                             ****ORCA TERMINATED NORMALLY****
TOTAL RUN TIME: 0 days 0 hours 0 minutes 20 seconds 951 msec
