                         Program Version 4.2.1 -  RELEASE  -
|  1> ! wB97X-D3 SP def2-SVP
|  2> %pal
|  3> nprocs 24
|  4> end
|  5>
|  6> * xyz 0 1
|  7> S 	 -39.0412 	 18.8934 	 12.6773
|  8> C 	 -40.6374 	 19.5562 	 13.1914
|  9> C 	 -40.4384 	 20.6442 	 14.0609
| 10> C 	 -39.0726 	 21.0753 	 14.0807
| 11> C 	 -38.2915 	 20.2355 	 13.2881
| 12> H 	 -38.4834 	 21.8981 	 14.6724
| 13> C 	 -41.5528 	 21.4292 	 14.7976
| 14> H 	 -42.1602 	 21.8669 	 14.0373
| 15> H 	 -41.0596 	 22.2196 	 15.3875
| 16> C 	 -42.445 	 20.4844 	 15.6476
| 17> H 	 -42.8235 	 19.7841 	 14.9897
| 18> H 	 -41.8692 	 19.9407 	 16.4174
| 19> C 	 -43.5761 	 21.2223 	 16.3427
| 20> H 	 -44.0738 	 21.6963 	 15.5026
| 21> H 	 -44.2703 	 20.5744 	 16.8503
| 22> H 	 -43.1243 	 22.0156 	 16.9268
| 23> S 	 -35.8195 	 19.0512 	 13.8282
| 24> C 	 -34.3891 	 19.9284 	 13.2454
| 25> C 	 -34.7026 	 21.0971 	 12.5837
| 26> C 	 -36.1043 	 21.3976 	 12.5491
| 27> C 	 -36.8114 	 20.3781 	 13.1362
| 28> H 	 -33.7973 	 21.4491 	 12.1455
| 29> C 	 -36.7507 	 22.6647 	 12.0233
| 30> H 	 -36.104 	 23.4139 	 12.3143
| 31> H 	 -37.6409 	 22.9647 	 12.5337
| 32> C 	 -36.8437 	 22.7122 	 10.5162
| 33> H 	 -35.9305 	 22.8281 	 9.95744
| 34> H 	 -37.2176 	 23.7445 	 10.2489
| 35> C 	 -37.7662 	 21.6442 	 10.0675
| 36> H 	 -37.3488 	 20.6364 	 10.1234
| 37> H 	 -38.1057 	 21.93 	 9.05755
| 38> H 	 -38.6927 	 21.5407 	 10.7156
| 39> H 	 -41.6025 	 19.1697 	 13.0047
| 40> H 	 -33.3669 	 19.4569 	 13.3438
| 41> *
| 42>
| 43>                          ****END OF INPUT****

CARTESIAN COORDINATES (ANGSTROEM)
---------------------------------
  S    -39.041200   18.893400   12.677300
  C    -40.637400   19.556200   13.191400
  C    -40.438400   20.644200   14.060900
  C    -39.072600   21.075300   14.080700
  C    -38.291500   20.235500   13.288100
  H    -38.483400   21.898100   14.672400
  C    -41.552800   21.429200   14.797600
  H    -42.160200   21.866900   14.037300
  H    -41.059600   22.219600   15.387500
  C    -42.445000   20.484400   15.647600
  H    -42.823500   19.784100   14.989700
  H    -41.869200   19.940700   16.417400
  C    -43.576100   21.222300   16.342700
  H    -44.073800   21.696300   15.502600
  H    -44.270300   20.574400   16.850300
  H    -43.124300   22.015600   16.926800
  S    -35.819500   19.051200   13.828200
  C    -34.389100   19.928400   13.245400
  C    -34.702600   21.097100   12.583700
  C    -36.104300   21.397600   12.549100
  C    -36.811400   20.378100   13.136200
  H    -33.797300   21.449100   12.145500
  C    -36.750700   22.664700   12.023300
  H    -36.104000   23.413900   12.314300
  H    -37.640900   22.964700   12.533700
  C    -36.843700   22.712200   10.516200
  H    -35.930500   22.828100    9.957440
  H    -37.217600   23.744500   10.248900
  C    -37.766200   21.644200   10.067500
  H    -37.348800   20.636400   10.123400
  H    -38.105700   21.930000    9.057550
  H    -38.692700   21.540700   10.715600
  H    -41.602500   19.169700   13.004700
  H    -33.366900   19.456900   13.343800

 Total Charge           Charge          ....    0
 Multiplicity           Mult            ....    1
 Number of Electrons    NEL             ....  134
 Basis Dimension        Dim             ....  322

ORBITAL ENERGIES
----------------

  NO   OCC          E(Eh)            E(eV)
   0   2.0000     -88.971076     -2421.0261
   1   2.0000     -88.962810     -2420.8011
   2   2.0000     -10.326494      -280.9982
   3   2.0000     -10.322914      -280.9008
   4   2.0000     -10.320575      -280.8371
   5   2.0000     -10.313751      -280.6514
   6   2.0000     -10.307939      -280.4933
   7   2.0000     -10.306034      -280.4414
   8   2.0000     -10.299918      -280.2750
   9   2.0000     -10.295275      -280.1487
  10   2.0000     -10.294288      -280.1218
  11   2.0000     -10.280624      -279.7500
  12   2.0000     -10.280094      -279.7356
  13   2.0000     -10.280042      -279.7342
  14   2.0000     -10.274168      -279.5743
  15   2.0000     -10.269857      -279.4570
  16   2.0000      -8.086350      -220.0408
  17   2.0000      -8.076818      -219.7814
  18   2.0000      -6.044753      -164.4861
  19   2.0000      -6.040781      -164.3780
  20   2.0000      -6.037171      -164.2798
  21   2.0000      -6.035280      -164.2283
  22   2.0000      -6.031641      -164.1293
  23   2.0000      -6.027476      -164.0160
  24   2.0000      -1.007547       -27.4167
  25   2.0000      -0.980081       -26.6694
  26   2.0000      -0.915404       -24.9094
  27   2.0000      -0.914183       -24.8762
  28   2.0000      -0.866089       -23.5675
  29   2.0000      -0.849304       -23.1107
  30   2.0000      -0.843912       -22.9640
  31   2.0000      -0.809411       -22.0252
  32   2.0000      -0.785870       -21.3846
  33   2.0000      -0.773742       -21.0546
  34   2.0000      -0.705883       -19.2080
  35   2.0000      -0.698963       -19.0197
  36   2.0000      -0.689103       -18.7514
  37   2.0000      -0.651741       -17.7348
  38   2.0000      -0.637384       -17.3441
  39   2.0000      -0.611142       -16.6300
  40   2.0000      -0.594513       -16.1775
  41   2.0000      -0.574283       -15.6270
  42   2.0000      -0.566341       -15.4109
  43   2.0000      -0.557222       -15.1628
  44   2.0000      -0.536906       -14.6099
  45   2.0000      -0.527113       -14.3435
  46   2.0000      -0.516511       -14.0550
  47   2.0000      -0.511045       -13.9062
  48   2.0000      -0.503655       -13.7052
  49   2.0000      -0.494839       -13.4652
  50   2.0000      -0.486927       -13.2500
  51   2.0000      -0.477895       -13.0042
  52   2.0000      -0.470052       -12.7908
  53   2.0000      -0.463983       -12.6256
  54   2.0000      -0.455272       -12.3886
  55   2.0000      -0.446482       -12.1494
  56   2.0000      -0.443294       -12.0627
  57   2.0000      -0.435369       -11.8470
  58   2.0000      -0.430225       -11.7070
  59   2.0000      -0.427295       -11.6273
  60   2.0000      -0.419726       -11.4213
  61   2.0000      -0.416447       -11.3321
  62   2.0000      -0.401251       -10.9186
  63   2.0000      -0.335606        -9.1323
  64   2.0000      -0.335231        -9.1221
  65   2.0000      -0.329064        -8.9543
  66   2.0000      -0.294840        -8.0230
  67   0.0000       0.037615         1.0235
  68   0.0000       0.062304         1.6954
  69   0.0000       0.103201         2.8083
  70   0.0000       0.117041         3.1849
  71   0.0000       0.125692         3.4203

MULLIKEN ATOMIC CHARGES
-----------------------
   0 S :    0.133615
   1 C :   -0.118315
   2 C :   -0.088424
   3 C :   -0.000343
   4 C :   -0.174897
   5 H :    0.059796
   6 C :    0.072243
   7 H :    0.032575
   8 H :    0.026414
   9 C :   -0.091577
  10 H :    0.007664
  11 H :    0.034461
  12 C :   -0.006462
  13 H :    0.012158
  14 H :    0.041793
  15 H :    0.029319
  16 S :    0.090234
  17 C :   -0.139912
  18 C :   -0.025465
  19 C :   -0.016297
  20 C :   -0.185411
  21 H :    0.012848
  22 C :    0.145490
  23 H :   -0.008758
  24 H :    0.015852
  25 C :   -0.067624
  26 H :    0.020735
  27 H :    0.015993
  28 C :   -0.051890
  29 H :    0.045613
  30 H :    0.030855
  31 H :    0.041590
  32 H :    0.028297
  33 H :    0.077833
Sum of atomic charges:   -0.0000000

LOEWDIN ATOMIC CHARGES
----------------------
   0 S :    0.441994
   1 C :   -0.196749
   2 C :   -0.048322
   3 C :   -0.089777
   4 C :   -0.224055
   5 H :    0.053825
   6 C :   -0.022688
   7 H :    0.029708
   8 H :    0.030048
   9 C :   -0.035401
  10 H :    0.009216
  11 H :    0.025690
  12 C :   -0.059746
  13 H :    0.022872
  14 H :    0.025898
  15 H :    0.025288
  16 S :    0.359070
  17 C :   -0.181829
  18 C :   -0.071831
  19 C :   -0.050763
  20 C :   -0.180658
  21 H :    0.033406
  22 C :   -0.023191
  23 H :    0.022660
  24 H :    0.030100
  25 C :   -0.046984
  26 H :    0.022862
  27 H :    0.027992
  28 C :   -0.071018
  29 H :    0.026510
  30 H :    0.026521
  31 H :    0.034037
  32 H :    0.016657
  33 H :    0.038659

  Mayer bond orders larger than 0.100000
B(  0-S ,  1-C ) :   1.1222 B(  0-S ,  4-C ) :   1.1997 B(  1-C ,  2-C ) :   1.5958
B(  1-C ,  4-C ) :   0.1010 B(  1-C , 32-H ) :   0.9785 B(  2-C ,  3-C ) :   1.2501
B(  2-C ,  6-C ) :   1.0103 B(  3-C ,  4-C ) :   1.5601 B(  3-C ,  5-H ) :   0.9699
B(  4-C , 20-C ) :   0.9900 B(  6-C ,  7-H ) :   0.9379 B(  6-C ,  8-H ) :   0.9482
B(  6-C ,  9-C ) :   1.0585 B(  9-C , 10-H ) :   0.9569 B(  9-C , 11-H ) :   0.9587
B(  9-C , 12-C ) :   1.0856 B( 12-C , 13-H ) :   0.9721 B( 12-C , 14-H ) :   0.9735
B( 12-C , 15-H ) :   0.9747 B( 16-S , 17-C ) :   1.1259 B( 16-S , 20-C ) :   1.1351
B( 17-C , 18-C ) :   1.6690 B( 17-C , 33-H ) :   0.9580 B( 18-C , 19-C ) :   1.1622
B( 18-C , 21-H ) :   0.9957 B( 19-C , 20-C ) :   1.6468 B( 19-C , 22-C ) :   1.0299
B( 22-C , 23-H ) :   0.9094 B( 22-C , 24-H ) :   0.9333 B( 22-C , 25-C ) :   1.0940
B( 25-C , 26-H ) :   0.9509 B( 25-C , 27-H ) :   0.9478 B( 25-C , 28-C ) :   1.0711
B( 28-C , 29-H ) :   0.9710 B( 28-C , 30-H ) :   0.9708 B( 28-C , 31-H ) :   0.9706

Dispersion correction           -0.015214009
FINAL SINGLE POINT ENERGY     -1339.851214284583

DIPOLE MOMENT
-------------
                                X             Y             Z
Electronic contribution:     17.00884     -15.91671       0.26585
Nuclear contribution   :    -17.13336      16.42300      -0.27253
                        -----------------------------------------
Total Dipole Moment    :     -0.12452       0.50630      -0.00668
                        -----------------------------------------
Magnitude (a.u.)       :      0.52143
Magnitude (Debye)      :      1.32536

Rotational constants in cm-1:     0.023145     0.007676     0.006864
Rotational constants in MHz :   693.855053   230.119325   205.773004

                             ****ORCA TERMINATED NORMALLY****
TOTAL RUN TIME: 0 days 0 hours 0 minutes 20 seconds 936 msec
