                         Program Version 4.2.1 -  RELEASE  -
|  1> ! wB97X-D3 SP def2-SVP
|  2> %pal
|  3> nprocs 24
|  4> end
|  5>
|  6> * xyz 0 1
|  7> S 	 -49.0301 	 2.6803 	 -21.2668
|  8> C 	 -47.9786 	 1.3643 	 -20.8821
|  9> C 	 -48.5073 	 0.183511 	 -21.4168
| 10> C 	 -49.758 	 0.392053 	 -21.9851
| 11> C 	 -50.2674 	 1.71087 	 -22.0229
| 12> H 	 -50.3882 	 -0.443331 	 -22.3525
| 13> C 	 -47.8453 	 -1.19114 	 -21.3177
| 14> H 	 -47.5115 	 -1.28575 	 -22.3125
| 15> H 	 -48.6581 	 -1.86132 	 -21.1514
| 16> C 	 -46.7888 	 -1.41148 	 -20.2413
| 17> H 	 -45.9348 	 -0.719402 	 -20.4847
| 18> H 	 -47.277 	 -0.995286 	 -19.3066
| 19> C 	 -46.2783 	 -2.83194 	 -20.0183
| 20> H 	 -46.7686 	 -3.31763 	 -19.0985
| 21> H 	 -46.3248 	 -3.36637 	 -20.9388
| 22> H 	 -45.201 	 -2.73245 	 -19.8251
| 23> S 	 -51.5341 	 3.76159 	 -23.2694
| 24> C 	 -53.222 	 3.79191 	 -23.4996
| 25> C 	 -53.8161 	 2.69408 	 -22.8282
| 26> C 	 -52.8641 	 1.7466 	 -22.3078
| 27> C 	 -51.5679 	 2.22364 	 -22.4333
| 28> H 	 -54.8822 	 2.66527 	 -22.9188
| 29> C 	 -53.3325 	 0.613935 	 -21.5083
| 30> H 	 -52.7934 	 -0.267835 	 -21.7891
| 31> H 	 -54.2991 	 0.314997 	 -21.994
| 32> C 	 -53.4944 	 0.789092 	 -20.0002
| 33> H 	 -54.1314 	 -0.00131107 	 -19.6683
| 34> H 	 -54.1809 	 1.65316 	 -19.9189
| 35> C 	 -52.1753 	 0.874007 	 -19.2197
| 36> H 	 -51.7009 	 1.85996 	 -19.4671
| 37> H 	 -51.3743 	 0.0982855 	 -19.5009
| 38> H 	 -52.3354 	 1.00565 	 -18.1488
| 39> H 	 -46.9545 	 1.49416 	 -20.4302
| 40> H 	 -53.7727 	 4.56309 	 -24.011
| 41> *
| 42>
| 43>                          ****END OF INPUT****

CARTESIAN COORDINATES (ANGSTROEM)
---------------------------------
  S    -49.030100    2.680300  -21.266800
  C    -47.978600    1.364300  -20.882100
  C    -48.507300    0.183511  -21.416800
  C    -49.758000    0.392053  -21.985100
  C    -50.267400    1.710870  -22.022900
  H    -50.388200   -0.443331  -22.352500
  C    -47.845300   -1.191140  -21.317700
  H    -47.511500   -1.285750  -22.312500
  H    -48.658100   -1.861320  -21.151400
  C    -46.788800   -1.411480  -20.241300
  H    -45.934800   -0.719402  -20.484700
  H    -47.277000   -0.995286  -19.306600
  C    -46.278300   -2.831940  -20.018300
  H    -46.768600   -3.317630  -19.098500
  H    -46.324800   -3.366370  -20.938800
  H    -45.201000   -2.732450  -19.825100
  S    -51.534100    3.761590  -23.269400
  C    -53.222000    3.791910  -23.499600
  C    -53.816100    2.694080  -22.828200
  C    -52.864100    1.746600  -22.307800
  C    -51.567900    2.223640  -22.433300
  H    -54.882200    2.665270  -22.918800
  C    -53.332500    0.613935  -21.508300
  H    -52.793400   -0.267835  -21.789100
  H    -54.299100    0.314997  -21.994000
  C    -53.494400    0.789092  -20.000200
  H    -54.131400   -0.001311  -19.668300
  H    -54.180900    1.653160  -19.918900
  C    -52.175300    0.874007  -19.219700
  H    -51.700900    1.859960  -19.467100
  H    -51.374300    0.098285  -19.500900
  H    -52.335400    1.005650  -18.148800
  H    -46.954500    1.494160  -20.430200
  H    -53.772700    4.563090  -24.011000

 Total Charge           Charge          ....    0
 Multiplicity           Mult            ....    1
 Number of Electrons    NEL             ....  134
 Basis Dimension        Dim             ....  322

ORBITAL ENERGIES
----------------

  NO   OCC          E(Eh)            E(eV)
   0   2.0000     -88.965705     -2420.8799
   1   2.0000     -88.965298     -2420.8688
   2   2.0000     -10.332816      -281.1702
   3   2.0000     -10.329572      -281.0820
   4   2.0000     -10.316942      -280.7383
   5   2.0000     -10.316327      -280.7215
   6   2.0000     -10.303745      -280.3791
   7   2.0000     -10.299532      -280.2645
   8   2.0000     -10.295351      -280.1507
   9   2.0000     -10.294792      -280.1355
  10   2.0000     -10.293499      -280.1003
  11   2.0000     -10.286422      -279.9078
  12   2.0000     -10.286414      -279.9076
  13   2.0000     -10.285941      -279.8947
  14   2.0000     -10.285539      -279.8837
  15   2.0000     -10.280513      -279.7470
  16   2.0000      -8.081294      -219.9032
  17   2.0000      -8.080004      -219.8681
  18   2.0000      -6.039659      -164.3475
  19   2.0000      -6.038445      -164.3144
  20   2.0000      -6.035534      -164.2352
  21   2.0000      -6.034230      -164.1997
  22   2.0000      -6.032295      -164.1471
  23   2.0000      -6.031106      -164.1147
  24   2.0000      -1.009322       -27.4650
  25   2.0000      -0.988005       -26.8850
  26   2.0000      -0.913926       -24.8692
  27   2.0000      -0.912755       -24.8373
  28   2.0000      -0.868310       -23.6279
  29   2.0000      -0.851295       -23.1649
  30   2.0000      -0.846461       -23.0334
  31   2.0000      -0.810899       -22.0657
  32   2.0000      -0.784293       -21.3417
  33   2.0000      -0.773698       -21.0534
  34   2.0000      -0.709170       -19.2975
  35   2.0000      -0.703913       -19.1544
  36   2.0000      -0.689103       -18.7514
  37   2.0000      -0.664050       -18.0697
  38   2.0000      -0.633172       -17.2295
  39   2.0000      -0.614780       -16.7290
  40   2.0000      -0.594899       -16.1880
  41   2.0000      -0.576173       -15.6785
  42   2.0000      -0.566387       -15.4122
  43   2.0000      -0.551197       -14.9988
  44   2.0000      -0.536037       -14.5863
  45   2.0000      -0.526319       -14.3219
  46   2.0000      -0.515649       -14.0315
  47   2.0000      -0.511020       -13.9056
  48   2.0000      -0.505067       -13.7436
  49   2.0000      -0.503150       -13.6914
  50   2.0000      -0.495543       -13.4844
  51   2.0000      -0.478702       -13.0261
  52   2.0000      -0.472289       -12.8516
  53   2.0000      -0.468690       -12.7537
  54   2.0000      -0.459996       -12.5171
  55   2.0000      -0.442563       -12.0427
  56   2.0000      -0.438181       -11.9235
  57   2.0000      -0.436871       -11.8879
  58   2.0000      -0.432044       -11.7565
  59   2.0000      -0.418048       -11.3757
  60   2.0000      -0.416243       -11.3265
  61   2.0000      -0.410415       -11.1680
  62   2.0000      -0.406795       -11.0695
  63   2.0000      -0.351352        -9.5608
  64   2.0000      -0.331073        -9.0089
  65   2.0000      -0.329943        -8.9782
  66   2.0000      -0.285028        -7.7560
  67   0.0000       0.025756         0.7008
  68   0.0000       0.072484         1.9724
  69   0.0000       0.118519         3.2251
  70   0.0000       0.119787         3.2596
  71   0.0000       0.136056         3.7023

MULLIKEN ATOMIC CHARGES
-----------------------
   0 S :    0.112223
   1 C :   -0.161236
   2 C :   -0.114725
   3 C :   -0.009211
   4 C :   -0.134894
   5 H :    0.014902
   6 C :    0.119533
   7 H :    0.030525
   8 H :    0.018040
   9 C :   -0.153764
  10 H :    0.035442
  11 H :    0.041606
  12 C :   -0.015568
  13 H :    0.059915
  14 H :    0.029284
  15 H :    0.030644
  16 S :    0.114807
  17 C :   -0.096153
  18 C :   -0.053940
  19 C :   -0.028159
  20 C :   -0.149299
  21 H :    0.013584
  22 C :    0.051064
  23 H :    0.002959
  24 H :    0.011939
  25 C :   -0.007142
  26 H :    0.017874
  27 H :    0.020597
  28 C :   -0.065322
  29 H :    0.037313
  30 H :    0.056483
  31 H :    0.036403
  32 H :    0.075721
  33 H :    0.058555
Sum of atomic charges:   -0.0000000

LOEWDIN ATOMIC CHARGES
----------------------
   0 S :    0.425393
   1 C :   -0.225035
   2 C :   -0.067912
   3 C :   -0.077662
   4 C :   -0.200957
   5 H :    0.030954
   6 C :   -0.028972
   7 H :    0.029847
   8 H :    0.026525
   9 C :   -0.054374
  10 H :    0.024798
  11 H :    0.032075
  12 C :   -0.069300
  13 H :    0.041744
  14 H :    0.023335
  15 H :    0.032590
  16 S :    0.431812
  17 C :   -0.200018
  18 C :   -0.069587
  19 C :   -0.058085
  20 C :   -0.197674
  21 H :    0.027399
  22 C :   -0.042278
  23 H :    0.023276
  24 H :    0.037832
  25 C :   -0.035631
  26 H :    0.020187
  27 H :    0.029392
  28 C :   -0.078527
  29 H :    0.031769
  30 H :    0.038732
  31 H :    0.026879
  32 H :    0.041989
  33 H :    0.029483

  Mayer bond orders larger than 0.100000
B(  0-S ,  1-C ) :   1.1598 B(  0-S ,  4-C ) :   1.1762 B(  1-C ,  2-C ) :   1.5422
B(  1-C ,  4-C ) :   0.1172 B(  1-C , 32-H ) :   0.9595 B(  2-C ,  3-C ) :   1.3277
B(  2-C ,  6-C ) :   0.9897 B(  3-C ,  4-C ) :   1.5069 B(  3-C ,  5-H ) :   0.9923
B(  4-C , 20-C ) :   1.0515 B(  6-C ,  7-H ) :   0.9220 B(  6-C ,  8-H ) :   0.9443
B(  6-C ,  9-C ) :   1.0819 B(  9-C , 10-H ) :   0.9516 B(  9-C , 11-H ) :   0.9600
B(  9-C , 12-C ) :   1.0722 B( 12-C , 13-H ) :   0.9744 B( 12-C , 14-H ) :   0.9744
B( 12-C , 15-H ) :   0.9736 B( 16-S , 17-C ) :   1.1789 B( 16-S , 20-C ) :   1.1553
B( 17-C , 18-C ) :   1.5804 B( 17-C , 20-C ) :   0.1041 B( 17-C , 33-H ) :   0.9702
B( 18-C , 19-C ) :   1.2411 B( 18-C , 21-H ) :   0.9939 B( 19-C , 20-C ) :   1.5570
B( 19-C , 22-C ) :   1.0675 B( 22-C , 23-H ) :   0.9202 B( 22-C , 24-H ) :   0.9166
B( 22-C , 25-C ) :   1.0709 B( 25-C , 26-H ) :   0.9501 B( 25-C , 27-H ) :   0.9492
B( 25-C , 28-C ) :   1.0714 B( 28-C , 29-H ) :   0.9670 B( 28-C , 30-H ) :   0.9714
B( 28-C , 31-H ) :   0.9706

Dispersion correction           -0.015343530
FINAL SINGLE POINT ENERGY     -1339.872948297501

DIPOLE MOMENT
-------------
                                X             Y             Z
Electronic contribution:     -3.83201      23.52314     -14.06324
Nuclear contribution   :      3.69837     -24.06742      14.19987
                        -----------------------------------------
Total Dipole Moment    :     -0.13365      -0.54429       0.13663
                        -----------------------------------------
Magnitude (a.u.)       :      0.57687
Magnitude (Debye)      :      1.46629

Rotational constants in cm-1:     0.024608     0.007752     0.006618
Rotational constants in MHz :   737.716810   232.413712   198.388904

                             ****ORCA TERMINATED NORMALLY****
TOTAL RUN TIME: 0 days 0 hours 0 minutes 22 seconds 215 msec
