                         Program Version 4.2.1 -  RELEASE  -
|  1> ! wB97X-D3 SP def2-SVP
|  2> %pal
|  3> nprocs 24
|  4> end
|  5>
|  6> * xyz 0 1
|  7> S 	 -101.012 	 36.2783 	 -90.4689
|  8> C 	 -100.008 	 35.0302 	 -89.7277
|  9> C 	 -99.1001 	 35.6011 	 -88.805
| 10> C 	 -99.1334 	 37.0131 	 -88.7368
| 11> C 	 -100.084 	 37.5581 	 -89.5561
| 12> H 	 -98.4984 	 37.6715 	 -88.1472
| 13> C 	 -97.9581 	 34.822 	 -88.0635
| 14> H 	 -98.2362 	 33.849 	 -87.7622
| 15> H 	 -97.7266 	 35.4785 	 -87.2469
| 16> C 	 -96.7328 	 34.9169 	 -88.9867
| 17> H 	 -97.0393 	 34.4012 	 -89.9525
| 18> H 	 -96.5006 	 35.9735 	 -89.3228
| 19> C 	 -95.5995 	 34.2121 	 -88.2118
| 20> H 	 -95.4757 	 34.5891 	 -87.1713
| 21> H 	 -95.6931 	 33.0666 	 -88.1992
| 22> H 	 -94.6886 	 34.402 	 -88.7896
| 23> S 	 -98.6125 	 39.8354 	 -89.842
| 24> C 	 -99.3478 	 41.3361 	 -90.3453
| 25> C 	 -100.716 	 41.1518 	 -90.3908
| 26> C 	 -101.171 	 39.8412 	 -90.1039
| 27> C 	 -100.126 	 38.9726 	 -89.8665
| 28> H 	 -101.261 	 42.0979 	 -90.619
| 29> C 	 -102.625 	 39.4853 	 -89.9544
| 30> H 	 -102.864 	 38.7255 	 -90.7205
| 31> H 	 -103.177 	 40.3575 	 -90.2561
| 32> C 	 -103.082 	 38.9778 	 -88.6138
| 33> H 	 -102.725 	 37.9386 	 -88.6294
| 34> H 	 -104.128 	 38.9146 	 -88.5353
| 35> C 	 -102.699 	 39.8928 	 -87.4633
| 36> H 	 -102.89 	 40.8979 	 -87.7777
| 37> H 	 -101.644 	 39.8044 	 -87.1444
| 38> H 	 -103.299 	 39.6495 	 -86.5465
| 39> H 	 -100.051 	 33.9573 	 -89.9294
| 40> H 	 -98.8471 	 42.3399 	 -90.3963
| 41> *
| 42>
| 43>                          ****END OF INPUT****

CARTESIAN COORDINATES (ANGSTROEM)
---------------------------------
  S    -101.012000   36.278300  -90.468900
  C    -100.008000   35.030200  -89.727700
  C    -99.100100   35.601100  -88.805000
  C    -99.133400   37.013100  -88.736800
  C    -100.084000   37.558100  -89.556100
  H    -98.498400   37.671500  -88.147200
  C    -97.958100   34.822000  -88.063500
  H    -98.236200   33.849000  -87.762200
  H    -97.726600   35.478500  -87.246900
  C    -96.732800   34.916900  -88.986700
  H    -97.039300   34.401200  -89.952500
  H    -96.500600   35.973500  -89.322800
  C    -95.599500   34.212100  -88.211800
  H    -95.475700   34.589100  -87.171300
  H    -95.693100   33.066600  -88.199200
  H    -94.688600   34.402000  -88.789600
  S    -98.612500   39.835400  -89.842000
  C    -99.347800   41.336100  -90.345300
  C    -100.716000   41.151800  -90.390800
  C    -101.171000   39.841200  -90.103900
  C    -100.126000   38.972600  -89.866500
  H    -101.261000   42.097900  -90.619000
  C    -102.625000   39.485300  -89.954400
  H    -102.864000   38.725500  -90.720500
  H    -103.177000   40.357500  -90.256100
  C    -103.082000   38.977800  -88.613800
  H    -102.725000   37.938600  -88.629400
  H    -104.128000   38.914600  -88.535300
  C    -102.699000   39.892800  -87.463300
  H    -102.890000   40.897900  -87.777700
  H    -101.644000   39.804400  -87.144400
  H    -103.299000   39.649500  -86.546500
  H    -100.051000   33.957300  -89.929400
  H    -98.847100   42.339900  -90.396300

 Total Charge           Charge          ....    0
 Multiplicity           Mult            ....    1
 Number of Electrons    NEL             ....  134
 Basis Dimension        Dim             ....  322

ORBITAL ENERGIES
----------------

  NO   OCC          E(Eh)            E(eV)
   0   2.0000     -88.971447     -2421.0362
   1   2.0000     -88.964941     -2420.8591
   2   2.0000     -10.333890      -281.1995
   3   2.0000     -10.323747      -280.9234
   4   2.0000     -10.319848      -280.8173
   5   2.0000     -10.319560      -280.8095
   6   2.0000     -10.305190      -280.4185
   7   2.0000     -10.299869      -280.2737
   8   2.0000     -10.295866      -280.1648
   9   2.0000     -10.295697      -280.1602
  10   2.0000     -10.294804      -280.1358
  11   2.0000     -10.290048      -280.0064
  12   2.0000     -10.287941      -279.9491
  13   2.0000     -10.284229      -279.8481
  14   2.0000     -10.272860      -279.5387
  15   2.0000     -10.272482      -279.5285
  16   2.0000      -8.084092      -219.9793
  17   2.0000      -8.079798      -219.8625
  18   2.0000      -6.042892      -164.4355
  19   2.0000      -6.038927      -164.3276
  20   2.0000      -6.038305      -164.3106
  21   2.0000      -6.034657      -164.2114
  22   2.0000      -6.034260      -164.2006
  23   2.0000      -6.030579      -164.1004
  24   2.0000      -1.007806       -27.4238
  25   2.0000      -0.980207       -26.6728
  26   2.0000      -0.913446       -24.8561
  27   2.0000      -0.909830       -24.7577
  28   2.0000      -0.871616       -23.7179
  29   2.0000      -0.849061       -23.1041
  30   2.0000      -0.842357       -22.9217
  31   2.0000      -0.809728       -22.0338
  32   2.0000      -0.780429       -21.2365
  33   2.0000      -0.766501       -20.8576
  34   2.0000      -0.709203       -19.2984
  35   2.0000      -0.693909       -18.8822
  36   2.0000      -0.688449       -18.7337
  37   2.0000      -0.666462       -18.1354
  38   2.0000      -0.634474       -17.2649
  39   2.0000      -0.617587       -16.8054
  40   2.0000      -0.582468       -15.8497
  41   2.0000      -0.566214       -15.4075
  42   2.0000      -0.564287       -15.3550
  43   2.0000      -0.557664       -15.1748
  44   2.0000      -0.548696       -14.9308
  45   2.0000      -0.520284       -14.1577
  46   2.0000      -0.513351       -13.9690
  47   2.0000      -0.507678       -13.8146
  48   2.0000      -0.501097       -13.6355
  49   2.0000      -0.494079       -13.4446
  50   2.0000      -0.490291       -13.3415
  51   2.0000      -0.483063       -13.1448
  52   2.0000      -0.471105       -12.8194
  53   2.0000      -0.468152       -12.7391
  54   2.0000      -0.463404       -12.6099
  55   2.0000      -0.452790       -12.3211
  56   2.0000      -0.436670       -11.8824
  57   2.0000      -0.434134       -11.8134
  58   2.0000      -0.426869       -11.6157
  59   2.0000      -0.423928       -11.5357
  60   2.0000      -0.419349       -11.4111
  61   2.0000      -0.407916       -11.1000
  62   2.0000      -0.403232       -10.9725
  63   2.0000      -0.355271        -9.6674
  64   2.0000      -0.332152        -9.0383
  65   2.0000      -0.330954        -9.0057
  66   2.0000      -0.283262        -7.7080
  67   0.0000       0.019731         0.5369
  68   0.0000       0.072347         1.9687
  69   0.0000       0.102566         2.7910
  70   0.0000       0.111191         3.0257
  71   0.0000       0.129147         3.5143

MULLIKEN ATOMIC CHARGES
-----------------------
   0 S :    0.099511
   1 C :   -0.128637
   2 C :   -0.091357
   3 C :   -0.021853
   4 C :   -0.112360
   5 H :    0.028106
   6 C :    0.096611
   7 H :    0.023569
   8 H :    0.016365
   9 C :   -0.124883
  10 H :    0.036212
  11 H :    0.048997
  12 C :   -0.051713
  13 H :    0.042973
  14 H :    0.045399
  15 H :    0.034437
  16 S :    0.090587
  17 C :   -0.118499
  18 C :   -0.066746
  19 C :   -0.037120
  20 C :   -0.142919
  21 H :    0.033102
  22 C :    0.065443
  23 H :    0.034422
  24 H :    0.004328
  25 C :   -0.032114
  26 H :    0.028644
  27 H :    0.015983
  28 C :   -0.048241
  29 H :    0.020228
  30 H :    0.041226
  31 H :    0.036619
  32 H :    0.055882
  33 H :    0.077798
Sum of atomic charges:    0.0000000

LOEWDIN ATOMIC CHARGES
----------------------
   0 S :    0.373400
   1 C :   -0.204042
   2 C :   -0.053380
   3 C :   -0.071090
   4 C :   -0.162383
   5 H :    0.031110
   6 C :   -0.019105
   7 H :    0.022318
   8 H :    0.025716
   9 C :   -0.046760
  10 H :    0.029303
  11 H :    0.032825
  12 C :   -0.076767
  13 H :    0.028681
  14 H :    0.035055
  15 H :    0.025127
  16 S :    0.414392
  17 C :   -0.202044
  18 C :   -0.079438
  19 C :   -0.062786
  20 C :   -0.193974
  21 H :    0.039272
  22 C :   -0.035139
  23 H :    0.033796
  24 H :    0.023446
  25 C :   -0.043256
  26 H :    0.021844
  27 H :    0.020837
  28 C :   -0.063591
  29 H :    0.020814
  30 H :    0.028226
  31 H :    0.030485
  32 H :    0.032430
  33 H :    0.044678

  Mayer bond orders larger than 0.100000
B(  0-S ,  1-C ) :   1.1201 B(  0-S ,  4-C ) :   1.1204 B(  1-C ,  2-C ) :   1.6150
B(  1-C , 32-H ) :   0.9667 B(  2-C ,  3-C ) :   1.2298 B(  2-C ,  6-C ) :   1.0214
B(  3-C ,  4-C ) :   1.5794 B(  3-C ,  5-H ) :   0.9850 B(  4-C , 20-C ) :   1.0807
B(  6-C ,  7-H ) :   0.9498 B(  6-C ,  8-H ) :   0.9399 B(  6-C ,  9-C ) :   1.0503
B(  9-C , 10-H ) :   0.9554 B(  9-C , 11-H ) :   0.9586 B(  9-C , 12-C ) :   1.0643
B( 12-C , 13-H ) :   0.9733 B( 12-C , 14-H ) :   0.9734 B( 12-C , 15-H ) :   0.9737
B( 16-S , 17-C ) :   1.1531 B( 16-S , 20-C ) :   1.1438 B( 17-C , 18-C ) :   1.6085
B( 17-C , 33-H ) :   0.9597 B( 18-C , 19-C ) :   1.2536 B( 18-C , 21-H ) :   0.9836
B( 19-C , 20-C ) :   1.5403 B( 19-C , 22-C ) :   1.0416 B( 22-C , 23-H ) :   0.9292
B( 22-C , 24-H ) :   0.9270 B( 22-C , 25-C ) :   1.0864 B( 25-C , 26-H ) :   0.9438
B( 25-C , 27-H ) :   0.9522 B( 25-C , 28-C ) :   1.0718 B( 28-C , 29-H ) :   0.9747
B( 28-C , 30-H ) :   0.9717 B( 28-C , 31-H ) :   0.9768

Dispersion correction           -0.015225204
FINAL SINGLE POINT ENERGY     -1339.873822300585

DIPOLE MOMENT
-------------
                                X             Y             Z
Electronic contribution:     -2.32290       6.27314     -11.30362
Nuclear contribution   :      2.44908      -6.27888      11.55157
                        -----------------------------------------
Total Dipole Moment    :      0.12618      -0.00574       0.24795
                        -----------------------------------------
Magnitude (a.u.)       :      0.27827
Magnitude (Debye)      :      0.70729

Rotational constants in cm-1:     0.022148     0.008455     0.007118
Rotational constants in MHz :   663.975133   253.461185   213.403980

                             ****ORCA TERMINATED NORMALLY****
TOTAL RUN TIME: 0 days 0 hours 0 minutes 23 seconds 317 msec
