                         Program Version 4.2.1 -  RELEASE  -
|  1> ! wB97X-D3 SP def2-SVP
|  2> %pal
|  3> nprocs 24
|  4> end
|  5>
|  6> * xyz 0 1
|  7> S 	 -124.262 	 65.4884 	 -36.8302
|  8> C 	 -124.113 	 65.8082 	 -38.577
|  9> C 	 -125.348 	 66.1966 	 -39.1264
| 10> C 	 -126.385 	 66.2832 	 -38.1085
| 11> C 	 -125.991 	 65.8198 	 -36.856
| 12> H 	 -127.377 	 66.6189 	 -38.3848
| 13> C 	 -125.561 	 66.6669 	 -40.5149
| 14> H 	 -126.539 	 66.2152 	 -40.803
| 15> H 	 -124.803 	 66.3309 	 -41.2159
| 16> C 	 -125.663 	 68.2678 	 -40.5891
| 17> H 	 -126.066 	 68.5359 	 -41.518
| 18> H 	 -126.435 	 68.7135 	 -39.9091
| 19> C 	 -124.361 	 68.9736 	 -40.3115
| 20> H 	 -124.028 	 68.7349 	 -39.3062
| 21> H 	 -123.551 	 68.721 	 -40.9733
| 22> H 	 -124.495 	 70.0562 	 -40.4607
| 23> S 	 -127.099 	 63.9357 	 -35.3964
| 24> C 	 -127.887 	 64.3274 	 -33.9089
| 25> C 	 -128.117 	 65.6635 	 -33.8035
| 26> C 	 -127.584 	 66.4098 	 -34.8797
| 27> C 	 -126.791 	 65.5956 	 -35.7231
| 28> H 	 -128.713 	 66.0306 	 -32.9426
| 29> C 	 -127.592 	 67.8972 	 -34.9662
| 30> H 	 -128.429 	 68.3035 	 -34.3126
| 31> H 	 -127.885 	 68.2567 	 -36.0086
| 32> C 	 -126.322 	 68.5223 	 -34.4222
| 33> H 	 -125.388 	 68.3416 	 -34.9853
| 34> H 	 -126.09 	 68.0721 	 -33.4413
| 35> C 	 -126.452 	 69.9659 	 -34.1308
| 36> H 	 -127.116 	 70.2388 	 -33.2928
| 37> H 	 -126.834 	 70.5379 	 -34.9648
| 38> H 	 -125.498 	 70.4713 	 -34.0231
| 39> H 	 -123.274 	 65.7542 	 -39.2111
| 40> H 	 -128.14 	 63.5644 	 -33.1722
| 41> *
| 42>
| 43>                          ****END OF INPUT****

CARTESIAN COORDINATES (ANGSTROEM)
---------------------------------
  S    -124.262000   65.488400  -36.830200
  C    -124.113000   65.808200  -38.577000
  C    -125.348000   66.196600  -39.126400
  C    -126.385000   66.283200  -38.108500
  C    -125.991000   65.819800  -36.856000
  H    -127.377000   66.618900  -38.384800
  C    -125.561000   66.666900  -40.514900
  H    -126.539000   66.215200  -40.803000
  H    -124.803000   66.330900  -41.215900
  C    -125.663000   68.267800  -40.589100
  H    -126.066000   68.535900  -41.518000
  H    -126.435000   68.713500  -39.909100
  C    -124.361000   68.973600  -40.311500
  H    -124.028000   68.734900  -39.306200
  H    -123.551000   68.721000  -40.973300
  H    -124.495000   70.056200  -40.460700
  S    -127.099000   63.935700  -35.396400
  C    -127.887000   64.327400  -33.908900
  C    -128.117000   65.663500  -33.803500
  C    -127.584000   66.409800  -34.879700
  C    -126.791000   65.595600  -35.723100
  H    -128.713000   66.030600  -32.942600
  C    -127.592000   67.897200  -34.966200
  H    -128.429000   68.303500  -34.312600
  H    -127.885000   68.256700  -36.008600
  C    -126.322000   68.522300  -34.422200
  H    -125.388000   68.341600  -34.985300
  H    -126.090000   68.072100  -33.441300
  C    -126.452000   69.965900  -34.130800
  H    -127.116000   70.238800  -33.292800
  H    -126.834000   70.537900  -34.964800
  H    -125.498000   70.471300  -34.023100
  H    -123.274000   65.754200  -39.211100
  H    -128.140000   63.564400  -33.172200

 Total Charge           Charge          ....    0
 Multiplicity           Mult            ....    1
 Number of Electrons    NEL             ....  134
 Basis Dimension        Dim             ....  322

ORBITAL ENERGIES
----------------

  NO   OCC          E(Eh)            E(eV)
   0   2.0000     -88.967879     -2420.9391
   1   2.0000     -88.960726     -2420.7444
   2   2.0000     -10.328328      -281.0481
   3   2.0000     -10.318099      -280.7697
   4   2.0000     -10.314419      -280.6696
   5   2.0000     -10.311319      -280.5853
   6   2.0000     -10.302777      -280.3528
   7   2.0000     -10.301583      -280.3203
   8   2.0000     -10.298738      -280.2429
   9   2.0000     -10.297563      -280.2109
  10   2.0000     -10.297185      -280.2007
  11   2.0000     -10.292566      -280.0750
  12   2.0000     -10.289251      -279.9847
  13   2.0000     -10.280551      -279.7480
  14   2.0000     -10.273807      -279.5645
  15   2.0000     -10.269356      -279.4434
  16   2.0000      -8.081569      -219.9107
  17   2.0000      -8.076812      -219.7812
  18   2.0000      -6.040227      -164.3629
  19   2.0000      -6.036235      -164.2543
  20   2.0000      -6.035095      -164.2233
  21   2.0000      -6.032201      -164.1445
  22   2.0000      -6.031126      -164.1153
  23   2.0000      -6.027721      -164.0226
  24   2.0000      -1.010818       -27.5058
  25   2.0000      -0.980262       -26.6743
  26   2.0000      -0.914106       -24.8741
  27   2.0000      -0.910934       -24.7878
  28   2.0000      -0.872586       -23.7443
  29   2.0000      -0.853406       -23.2224
  30   2.0000      -0.846353       -23.0304
  31   2.0000      -0.813125       -22.1263
  32   2.0000      -0.781376       -21.2623
  33   2.0000      -0.768062       -20.9000
  34   2.0000      -0.712821       -19.3969
  35   2.0000      -0.699951       -19.0466
  36   2.0000      -0.692123       -18.8336
  37   2.0000      -0.659311       -17.9408
  38   2.0000      -0.636128       -17.3099
  39   2.0000      -0.622211       -16.9312
  40   2.0000      -0.598202       -16.2779
  41   2.0000      -0.568589       -15.4721
  42   2.0000      -0.562256       -15.2998
  43   2.0000      -0.550352       -14.9758
  44   2.0000      -0.537354       -14.6221
  45   2.0000      -0.522833       -14.2270
  46   2.0000      -0.516548       -14.0560
  47   2.0000      -0.515418       -14.0252
  48   2.0000      -0.506928       -13.7942
  49   2.0000      -0.500835       -13.6284
  50   2.0000      -0.491135       -13.3645
  51   2.0000      -0.477155       -12.9840
  52   2.0000      -0.470358       -12.7991
  53   2.0000      -0.460079       -12.5194
  54   2.0000      -0.459138       -12.4938
  55   2.0000      -0.450413       -12.2564
  56   2.0000      -0.445640       -12.1265
  57   2.0000      -0.434604       -11.8262
  58   2.0000      -0.429915       -11.6986
  59   2.0000      -0.425971       -11.5913
  60   2.0000      -0.422444       -11.4953
  61   2.0000      -0.417003       -11.3472
  62   2.0000      -0.406430       -11.0595
  63   2.0000      -0.339292        -9.2326
  64   2.0000      -0.325117        -8.8469
  65   2.0000      -0.321926        -8.7601
  66   2.0000      -0.297410        -8.0929
  67   0.0000       0.030891         0.8406
  68   0.0000       0.062769         1.7080
  69   0.0000       0.114731         3.1220
  70   0.0000       0.115406         3.1404
  71   0.0000       0.123371         3.3571

MULLIKEN ATOMIC CHARGES
-----------------------
   0 S :    0.121070
   1 C :   -0.088892
   2 C :   -0.121581
   3 C :    0.062409
   4 C :   -0.169468
   5 H :    0.008531
   6 C :    0.052001
   7 H :    0.035748
   8 H :    0.027038
   9 C :   -0.062086
  10 H :    0.011813
  11 H :    0.029224
  12 C :   -0.046243
  13 H :    0.043113
  14 H :    0.018501
  15 H :    0.036570
  16 S :    0.122165
  17 C :   -0.095627
  18 C :   -0.054677
  19 C :    0.014710
  20 C :   -0.189670
  21 H :    0.030842
  22 C :    0.038226
  23 H :    0.021343
  24 H :    0.037813
  25 C :   -0.053348
  26 H :    0.036688
  27 H :    0.024787
  28 C :   -0.041735
  29 H :    0.032621
  30 H :    0.008952
  31 H :    0.024395
  32 H :    0.025262
  33 H :    0.059508
Sum of atomic charges:   -0.0000000

LOEWDIN ATOMIC CHARGES
----------------------
   0 S :    0.395799
   1 C :   -0.190269
   2 C :   -0.062815
   3 C :   -0.050755
   4 C :   -0.202431
   5 H :    0.028740
   6 C :   -0.031202
   7 H :    0.037087
   8 H :    0.029650
   9 C :   -0.035676
  10 H :    0.013024
  11 H :    0.029175
  12 C :   -0.066641
  13 H :    0.027009
  14 H :    0.019227
  15 H :    0.031399
  16 S :    0.436325
  17 C :   -0.192837
  18 C :   -0.079366
  19 C :   -0.053229
  20 C :   -0.216613
  21 H :    0.039972
  22 C :   -0.039972
  23 H :    0.036193
  24 H :    0.036112
  25 C :   -0.047955
  26 H :    0.029474
  27 H :    0.030036
  28 C :   -0.072849
  29 H :    0.025489
  30 H :    0.019949
  31 H :    0.027942
  32 H :    0.019458
  33 H :    0.030549

  Mayer bond orders larger than 0.100000
B(  0-S ,  1-C ) :   1.1216 B(  0-S ,  4-C ) :   1.1362 B(  1-C ,  2-C ) :   1.6126
B(  1-C , 32-H ) :   0.9706 B(  2-C ,  3-C ) :   1.2283 B(  2-C ,  6-C ) :   1.0451
B(  3-C ,  4-C ) :   1.5762 B(  3-C ,  5-H ) :   0.9927 B(  4-C , 20-C ) :   1.0603
B(  6-C ,  7-H ) :   0.9338 B(  6-C ,  8-H ) :   0.9465 B(  6-C ,  9-C ) :   1.0558
B(  9-C , 10-H ) :   0.9570 B(  9-C , 11-H ) :   0.9568 B(  9-C , 12-C ) :   1.0754
B( 12-C , 13-H ) :   0.9748 B( 12-C , 14-H ) :   0.9744 B( 12-C , 15-H ) :   0.9706
B( 16-S , 17-C ) :   1.1676 B( 16-S , 20-C ) :   1.1794 B( 17-C , 18-C ) :   1.5919
B( 17-C , 20-C ) :   0.1108 B( 17-C , 33-H ) :   0.9676 B( 18-C , 19-C ) :   1.2549
B( 18-C , 21-H ) :   0.9882 B( 19-C , 20-C ) :   1.5292 B( 19-C , 22-C ) :   1.0707
B( 22-C , 23-H ) :   0.9342 B( 22-C , 24-H ) :   0.9230 B( 22-C , 25-C ) :   1.0624
B( 25-C , 26-H ) :   0.9501 B( 25-C , 27-H ) :   0.9496 B( 25-C , 28-C ) :   1.0990
B( 28-C , 29-H ) :   0.9730 B( 28-C , 30-H ) :   0.9664 B( 28-C , 31-H ) :   0.9684

Dispersion correction           -0.014906701
FINAL SINGLE POINT ENERGY     -1339.879478374675

DIPOLE MOMENT
-------------
                                X             Y             Z
Electronic contribution:      0.11477     -26.01460       7.86435
Nuclear contribution   :     -0.34792      26.51543      -8.09939
                        -----------------------------------------
Total Dipole Moment    :     -0.23315       0.50083      -0.23504
                        -----------------------------------------
Magnitude (a.u.)       :      0.60036
Magnitude (Debye)      :      1.52599

Rotational constants in cm-1:     0.018759     0.009304     0.007310
Rotational constants in MHz :   562.383763   278.938892   219.152443

                             ****ORCA TERMINATED NORMALLY****
TOTAL RUN TIME: 0 days 0 hours 0 minutes 22 seconds 193 msec
