                         Program Version 4.2.1 -  RELEASE  -
|  1> ! wB97X-D3 SP def2-SVP
|  2> %pal
|  3> nprocs 24
|  4> end
|  5>
|  6> * xyz 0 1
|  7> S 	 -121.256 	 62.4471 	 -48.1442
|  8> C 	 -121.416 	 61.3518 	 -46.7638
|  9> C 	 -122.55 	 60.6243 	 -46.9052
| 10> C 	 -123.296 	 61.1172 	 -47.9625
| 11> C 	 -122.837 	 62.2456 	 -48.6764
| 12> H 	 -124.192 	 60.6961 	 -48.2444
| 13> C 	 -122.993 	 59.5382 	 -45.9559
| 14> H 	 -122.263 	 58.7712 	 -45.8668
| 15> H 	 -123.943 	 59.0782 	 -46.2987
| 16> C 	 -123.381 	 60.1263 	 -44.5833
| 17> H 	 -123.452 	 59.3914 	 -43.7849
| 18> H 	 -122.655 	 60.7759 	 -44.1761
| 19> C 	 -124.67 	 60.9182 	 -44.5916
| 20> H 	 -124.59 	 61.7955 	 -45.2996
| 21> H 	 -125.43 	 60.2508 	 -44.9134
| 22> H 	 -125.036 	 61.3391 	 -43.6743
| 23> S 	 -122.538 	 63.2518 	 -51.2119
| 24> C 	 -123.911 	 63.3328 	 -52.2742
| 25> C 	 -125.033 	 63.399 	 -51.5023
| 26> C 	 -124.859 	 63.1076 	 -50.1572
| 27> C 	 -123.524 	 62.8724 	 -49.8503
| 28> H 	 -125.983 	 63.5796 	 -51.9388
| 29> C 	 -125.92 	 63.3093 	 -49.1839
| 30> H 	 -126.113 	 64.3621 	 -49.1596
| 31> H 	 -125.368 	 63.1433 	 -48.2528
| 32> C 	 -127.247 	 62.4769 	 -49.2706
| 33> H 	 -127.084 	 61.4729 	 -49.1016
| 34> H 	 -127.52 	 62.5218 	 -50.2895
| 35> C 	 -128.22 	 62.9025 	 -48.1354
| 36> H 	 -127.734 	 63.1241 	 -47.1951
| 37> H 	 -129.017 	 62.1426 	 -48.0736
| 38> H 	 -128.734 	 63.8194 	 -48.4641
| 39> H 	 -120.757 	 61.318 	 -45.9463
| 40> H 	 -123.935 	 63.4285 	 -53.3449
| 41> *
| 42>
| 43>                          ****END OF INPUT****

CARTESIAN COORDINATES (ANGSTROEM)
---------------------------------
  S    -121.256000   62.447100  -48.144200
  C    -121.416000   61.351800  -46.763800
  C    -122.550000   60.624300  -46.905200
  C    -123.296000   61.117200  -47.962500
  C    -122.837000   62.245600  -48.676400
  H    -124.192000   60.696100  -48.244400
  C    -122.993000   59.538200  -45.955900
  H    -122.263000   58.771200  -45.866800
  H    -123.943000   59.078200  -46.298700
  C    -123.381000   60.126300  -44.583300
  H    -123.452000   59.391400  -43.784900
  H    -122.655000   60.775900  -44.176100
  C    -124.670000   60.918200  -44.591600
  H    -124.590000   61.795500  -45.299600
  H    -125.430000   60.250800  -44.913400
  H    -125.036000   61.339100  -43.674300
  S    -122.538000   63.251800  -51.211900
  C    -123.911000   63.332800  -52.274200
  C    -125.033000   63.399000  -51.502300
  C    -124.859000   63.107600  -50.157200
  C    -123.524000   62.872400  -49.850300
  H    -125.983000   63.579600  -51.938800
  C    -125.920000   63.309300  -49.183900
  H    -126.113000   64.362100  -49.159600
  H    -125.368000   63.143300  -48.252800
  C    -127.247000   62.476900  -49.270600
  H    -127.084000   61.472900  -49.101600
  H    -127.520000   62.521800  -50.289500
  C    -128.220000   62.902500  -48.135400
  H    -127.734000   63.124100  -47.195100
  H    -129.017000   62.142600  -48.073600
  H    -128.734000   63.819400  -48.464100
  H    -120.757000   61.318000  -45.946300
  H    -123.935000   63.428500  -53.344900

 Total Charge           Charge          ....    0
 Multiplicity           Mult            ....    1
 Number of Electrons    NEL             ....  134
 Basis Dimension        Dim             ....  322

ORBITAL ENERGIES
----------------

  NO   OCC          E(Eh)            E(eV)
   0   2.0000     -88.965056     -2420.8623
   1   2.0000     -88.964384     -2420.8440
   2   2.0000     -10.331866      -281.1444
   3   2.0000     -10.329946      -281.0921
   4   2.0000     -10.314902      -280.6828
   5   2.0000     -10.308152      -280.4991
   6   2.0000     -10.295625      -280.1582
   7   2.0000     -10.294440      -280.1260
   8   2.0000     -10.294198      -280.1194
   9   2.0000     -10.283694      -279.8335
  10   2.0000     -10.282805      -279.8094
  11   2.0000     -10.282422      -279.7989
  12   2.0000     -10.281852      -279.7834
  13   2.0000     -10.281741      -279.7804
  14   2.0000     -10.281182      -279.7652
  15   2.0000     -10.272857      -279.5386
  16   2.0000      -8.080614      -219.8847
  17   2.0000      -8.080085      -219.8703
  18   2.0000      -6.039085      -164.3319
  19   2.0000      -6.038593      -164.3185
  20   2.0000      -6.034896      -164.2179
  21   2.0000      -6.034500      -164.2071
  22   2.0000      -6.031464      -164.1245
  23   2.0000      -6.030745      -164.1049
  24   2.0000      -1.017587       -27.6899
  25   2.0000      -0.998716       -27.1764
  26   2.0000      -0.919195       -25.0126
  27   2.0000      -0.911965       -24.8158
  28   2.0000      -0.872281       -23.7360
  29   2.0000      -0.856726       -23.3127
  30   2.0000      -0.846644       -23.0383
  31   2.0000      -0.817378       -22.2420
  32   2.0000      -0.786732       -21.4081
  33   2.0000      -0.773237       -21.0408
  34   2.0000      -0.715741       -19.4763
  35   2.0000      -0.708117       -19.2689
  36   2.0000      -0.700799       -19.0697
  37   2.0000      -0.666107       -18.1257
  38   2.0000      -0.643753       -17.5174
  39   2.0000      -0.621184       -16.9033
  40   2.0000      -0.598677       -16.2908
  41   2.0000      -0.584358       -15.9012
  42   2.0000      -0.563901       -15.3445
  43   2.0000      -0.562438       -15.3047
  44   2.0000      -0.541412       -14.7326
  45   2.0000      -0.534996       -14.5580
  46   2.0000      -0.520169       -14.1545
  47   2.0000      -0.510810       -13.8998
  48   2.0000      -0.508214       -13.8292
  49   2.0000      -0.503835       -13.7100
  50   2.0000      -0.494978       -13.4690
  51   2.0000      -0.482817       -13.1381
  52   2.0000      -0.474538       -12.9128
  53   2.0000      -0.466226       -12.6867
  54   2.0000      -0.460383       -12.5277
  55   2.0000      -0.454151       -12.3581
  56   2.0000      -0.441211       -12.0060
  57   2.0000      -0.440631       -11.9902
  58   2.0000      -0.432010       -11.7556
  59   2.0000      -0.426237       -11.5985
  60   2.0000      -0.421936       -11.4815
  61   2.0000      -0.415801       -11.3145
  62   2.0000      -0.410366       -11.1666
  63   2.0000      -0.355389        -9.6706
  64   2.0000      -0.330939        -9.0053
  65   2.0000      -0.328091        -8.9278
  66   2.0000      -0.283851        -7.7240
  67   0.0000       0.023592         0.6420
  68   0.0000       0.070897         1.9292
  69   0.0000       0.104685         2.8486
  70   0.0000       0.121677         3.3110
  71   0.0000       0.132872         3.6156

MULLIKEN ATOMIC CHARGES
-----------------------
   0 S :    0.103284
   1 C :   -0.132353
   2 C :   -0.048178
   3 C :    0.017108
   4 C :   -0.107603
   5 H :   -0.038263
   6 C :    0.109547
   7 H :    0.031494
   8 H :    0.021964
   9 C :   -0.057677
  10 H :    0.019406
  11 H :    0.010175
  12 C :   -0.063718
  13 H :    0.047720
  14 H :    0.013703
  15 H :    0.028639
  16 S :    0.102246
  17 C :   -0.078735
  18 C :   -0.022485
  19 C :   -0.037686
  20 C :   -0.146359
  21 H :    0.002813
  22 C :    0.033524
  23 H :    0.031429
  24 H :    0.014010
  25 C :   -0.016437
  26 H :    0.005964
  27 H :    0.013711
  28 C :   -0.049826
  29 H :    0.042849
  30 H :    0.038306
  31 H :    0.029598
  32 H :    0.029962
  33 H :    0.051868
Sum of atomic charges:   -0.0000000

LOEWDIN ATOMIC CHARGES
----------------------
   0 S :    0.428920
   1 C :   -0.179022
   2 C :   -0.066317
   3 C :   -0.065656
   4 C :   -0.214194
   5 H :    0.010240
   6 C :   -0.017146
   7 H :    0.029284
   8 H :    0.033709
   9 C :   -0.039464
  10 H :    0.022434
  11 H :    0.014687
  12 C :   -0.065472
  13 H :    0.032532
  14 H :    0.016259
  15 H :    0.023639
  16 S :    0.419771
  17 C :   -0.181360
  18 C :   -0.069140
  19 C :   -0.066829
  20 C :   -0.196356
  21 H :    0.024758
  22 C :   -0.035276
  23 H :    0.033900
  24 H :    0.031202
  25 C :   -0.028517
  26 H :    0.013643
  27 H :    0.017400
  28 C :   -0.060416
  29 H :    0.028125
  30 H :    0.028816
  31 H :    0.026333
  32 H :    0.018476
  33 H :    0.031036

  Mayer bond orders larger than 0.100000
B(  0-S ,  1-C ) :   1.1566 B(  0-S ,  4-C ) :   1.1813 B(  1-C ,  2-C ) :   1.5407
B(  1-C ,  4-C ) :   0.1084 B(  1-C , 32-H ) :   0.9816 B(  2-C ,  3-C ) :   1.3096
B(  2-C ,  6-C ) :   1.0180 B(  3-C ,  4-C ) :   1.4881 B(  3-C ,  5-H ) :   1.0135
B(  4-C , 20-C ) :   1.0293 B(  6-C ,  7-H ) :   0.9354 B(  6-C ,  8-H ) :   0.9463
B(  6-C ,  9-C ) :   1.0652 B(  9-C , 10-H ) :   0.9539 B(  9-C , 11-H ) :   0.9580
B(  9-C , 12-C ) :   1.0760 B( 12-C , 13-H ) :   0.9742 B( 12-C , 14-H ) :   0.9747
B( 12-C , 15-H ) :   0.9725 B( 16-S , 17-C ) :   1.1599 B( 16-S , 20-C ) :   1.1525
B( 17-C , 18-C ) :   1.5785 B( 17-C , 20-C ) :   0.1017 B( 17-C , 33-H ) :   0.9724
B( 18-C , 19-C ) :   1.2683 B( 18-C , 21-H ) :   0.9947 B( 19-C , 20-C ) :   1.5568
B( 19-C , 22-C ) :   1.0514 B( 22-C , 23-H ) :   0.9370 B( 22-C , 24-H ) :   0.9298
B( 22-C , 25-C ) :   1.0443 B( 25-C , 26-H ) :   0.9538 B( 25-C , 27-H ) :   0.9620
B( 25-C , 28-C ) :   1.0705 B( 28-C , 29-H ) :   0.9745 B( 28-C , 30-H ) :   0.9776
B( 28-C , 31-H ) :   0.9774

Dispersion correction           -0.014413613
FINAL SINGLE POINT ENERGY     -1339.847447015198

DIPOLE MOMENT
-------------
                                X             Y             Z
Electronic contribution:     24.41041       7.27421     -18.83572
Nuclear contribution   :    -25.05127      -7.50544      19.08869
                        -----------------------------------------
Total Dipole Moment    :     -0.64086      -0.23123       0.25297
                        -----------------------------------------
Magnitude (a.u.)       :      0.72674
Magnitude (Debye)      :      1.84724

Rotational constants in cm-1:     0.016764     0.010185     0.006719
Rotational constants in MHz :   502.566514   305.343277   201.421779

                             ****ORCA TERMINATED NORMALLY****
TOTAL RUN TIME: 0 days 0 hours 0 minutes 22 seconds 334 msec
