                         Program Version 4.2.1 -  RELEASE  -
|  1> ! wB97X-D3 SP def2-SVP
|  2> %pal
|  3> nprocs 24
|  4> end
|  5>
|  6> * xyz 0 1
|  7> S 	 -129.433 	 12.9553 	 -12.8148
|  8> C 	 -128.194 	 12.37 	 -11.7659
|  9> C 	 -127.673 	 11.1356 	 -12.1698
| 10> C 	 -128.235 	 10.7026 	 -13.3996
| 11> C 	 -129.207 	 11.6118 	 -13.9205
| 12> H 	 -128.071 	 9.77388 	 -13.9977
| 13> C 	 -126.584 	 10.4149 	 -11.454
| 14> H 	 -127.104 	 9.6573 	 -10.8285
| 15> H 	 -126.189 	 11.0943 	 -10.72
| 16> C 	 -125.397 	 9.81133 	 -12.1766
| 17> H 	 -125.052 	 8.99837 	 -11.536
| 18> H 	 -125.721 	 9.31713 	 -13.0572
| 19> C 	 -124.259 	 10.8344 	 -12.3624
| 20> H 	 -123.445 	 10.8257 	 -11.644
| 21> H 	 -123.764 	 10.7304 	 -13.3318
| 22> H 	 -124.565 	 11.8523 	 -12.5072
| 23> S 	 -129.447 	 13.0245 	 -16.2219
| 24> C 	 -130.394 	 12.4181 	 -17.5072
| 25> C 	 -130.915 	 11.1848 	 -17.2264
| 26> C 	 -130.591 	 10.7264 	 -15.8948
| 27> C 	 -129.782 	 11.6663 	 -15.2353
| 28> H 	 -131.478 	 10.6732 	 -18.0071
| 29> C 	 -131.072 	 9.45421 	 -15.2698
| 30> H 	 -130.733 	 9.59195 	 -14.2266
| 31> H 	 -130.44 	 8.59123 	 -15.6388
| 32> C 	 -132.598 	 9.03271 	 -15.3913
| 33> H 	 -132.666 	 8.40883 	 -16.2784
| 34> H 	 -133.316 	 9.85659 	 -15.5345
| 35> C 	 -133.089 	 8.01242 	 -14.356
| 36> H 	 -133.38 	 8.50572 	 -13.4572
| 37> H 	 -132.481 	 7.20428 	 -14.1701
| 38> H 	 -133.949 	 7.52243 	 -14.7659
| 39> H 	 -127.984 	 12.8942 	 -10.8104
| 40> H 	 -130.365 	 12.8247 	 -18.4729
| 41> *
| 42>
| 43>                          ****END OF INPUT****

CARTESIAN COORDINATES (ANGSTROEM)
---------------------------------
  S    -129.433000   12.955300  -12.814800
  C    -128.194000   12.370000  -11.765900
  C    -127.673000   11.135600  -12.169800
  C    -128.235000   10.702600  -13.399600
  C    -129.207000   11.611800  -13.920500
  H    -128.071000    9.773880  -13.997700
  C    -126.584000   10.414900  -11.454000
  H    -127.104000    9.657300  -10.828500
  H    -126.189000   11.094300  -10.720000
  C    -125.397000    9.811330  -12.176600
  H    -125.052000    8.998370  -11.536000
  H    -125.721000    9.317130  -13.057200
  C    -124.259000   10.834400  -12.362400
  H    -123.445000   10.825700  -11.644000
  H    -123.764000   10.730400  -13.331800
  H    -124.565000   11.852300  -12.507200
  S    -129.447000   13.024500  -16.221900
  C    -130.394000   12.418100  -17.507200
  C    -130.915000   11.184800  -17.226400
  C    -130.591000   10.726400  -15.894800
  C    -129.782000   11.666300  -15.235300
  H    -131.478000   10.673200  -18.007100
  C    -131.072000    9.454210  -15.269800
  H    -130.733000    9.591950  -14.226600
  H    -130.440000    8.591230  -15.638800
  C    -132.598000    9.032710  -15.391300
  H    -132.666000    8.408830  -16.278400
  H    -133.316000    9.856590  -15.534500
  C    -133.089000    8.012420  -14.356000
  H    -133.380000    8.505720  -13.457200
  H    -132.481000    7.204280  -14.170100
  H    -133.949000    7.522430  -14.765900
  H    -127.984000   12.894200  -10.810400
  H    -130.365000   12.824700  -18.472900

 Total Charge           Charge          ....    0
 Multiplicity           Mult            ....    1
 Number of Electrons    NEL             ....  134
 Basis Dimension        Dim             ....  322

ORBITAL ENERGIES
----------------

  NO   OCC          E(Eh)            E(eV)
   0   2.0000     -88.966472     -2420.9008
   1   2.0000     -88.963038     -2420.8073
   2   2.0000     -10.328689      -281.0579
   3   2.0000     -10.319457      -280.8067
   4   2.0000     -10.314900      -280.6827
   5   2.0000     -10.305922      -280.4384
   6   2.0000     -10.302581      -280.3475
   7   2.0000     -10.302368      -280.3417
   8   2.0000     -10.301552      -280.3195
   9   2.0000     -10.294945      -280.1397
  10   2.0000     -10.290970      -280.0315
  11   2.0000     -10.289583      -279.9938
  12   2.0000     -10.286615      -279.9130
  13   2.0000     -10.286001      -279.8963
  14   2.0000     -10.274165      -279.5742
  15   2.0000     -10.265920      -279.3499
  16   2.0000      -8.081418      -219.9066
  17   2.0000      -8.079256      -219.8477
  18   2.0000      -6.039676      -164.3479
  19   2.0000      -6.037570      -164.2906
  20   2.0000      -6.035776      -164.2418
  21   2.0000      -6.033501      -164.1799
  22   2.0000      -6.032564      -164.1544
  23   2.0000      -6.030177      -164.0895
  24   2.0000      -1.009694       -27.4752
  25   2.0000      -0.984744       -26.7962
  26   2.0000      -0.914690       -24.8900
  27   2.0000      -0.901608       -24.5340
  28   2.0000      -0.871090       -23.7036
  29   2.0000      -0.855698       -23.2847
  30   2.0000      -0.846266       -23.0281
  31   2.0000      -0.813195       -22.1282
  32   2.0000      -0.784069       -21.3356
  33   2.0000      -0.770305       -20.9611
  34   2.0000      -0.716708       -19.5026
  35   2.0000      -0.703689       -19.1484
  36   2.0000      -0.692100       -18.8330
  37   2.0000      -0.652651       -17.7595
  38   2.0000      -0.639650       -17.4058
  39   2.0000      -0.618745       -16.8369
  40   2.0000      -0.593260       -16.1434
  41   2.0000      -0.565812       -15.3965
  42   2.0000      -0.562358       -15.3025
  43   2.0000      -0.554883       -15.0991
  44   2.0000      -0.535532       -14.5726
  45   2.0000      -0.525122       -14.2893
  46   2.0000      -0.518323       -14.1043
  47   2.0000      -0.514690       -14.0054
  48   2.0000      -0.500625       -13.6227
  49   2.0000      -0.495872       -13.4934
  50   2.0000      -0.487397       -13.2627
  51   2.0000      -0.480822       -13.0838
  52   2.0000      -0.469990       -12.7891
  53   2.0000      -0.466533       -12.6950
  54   2.0000      -0.459616       -12.5068
  55   2.0000      -0.448793       -12.2123
  56   2.0000      -0.443926       -12.0798
  57   2.0000      -0.436434       -11.8760
  58   2.0000      -0.433720       -11.8021
  59   2.0000      -0.427180       -11.6242
  60   2.0000      -0.422685       -11.5018
  61   2.0000      -0.417195       -11.3525
  62   2.0000      -0.407307       -11.0834
  63   2.0000      -0.344227        -9.3669
  64   2.0000      -0.328803        -8.9472
  65   2.0000      -0.325658        -8.8616
  66   2.0000      -0.289203        -7.8696
  67   0.0000       0.033016         0.8984
  68   0.0000       0.069266         1.8848
  69   0.0000       0.120706         3.2846
  70   0.0000       0.126000         3.4286
  71   0.0000       0.130955         3.5635

MULLIKEN ATOMIC CHARGES
-----------------------
   0 S :    0.123718
   1 C :   -0.143289
   2 C :   -0.076250
   3 C :    0.030172
   4 C :   -0.216986
   5 H :    0.034669
   6 C :    0.043677
   7 H :    0.038323
   8 H :    0.007475
   9 C :   -0.014281
  10 H :    0.026409
  11 H :    0.019124
  12 C :   -0.053945
  13 H :    0.037333
  14 H :    0.020168
  15 H :    0.028669
  16 S :    0.128166
  17 C :   -0.080295
  18 C :   -0.038580
  19 C :   -0.038421
  20 C :   -0.159263
  21 H :    0.020692
  22 C :    0.048823
  23 H :    0.030710
  24 H :    0.042279
  25 C :   -0.080465
  26 H :    0.020612
  27 H :    0.043808
  28 C :   -0.005511
  29 H :    0.032597
  30 H :    0.009205
  31 H :    0.014940
  32 H :    0.064679
  33 H :    0.041036
Sum of atomic charges:    0.0000000

LOEWDIN ATOMIC CHARGES
----------------------
   0 S :    0.422890
   1 C :   -0.213929
   2 C :   -0.067961
   3 C :   -0.063329
   4 C :   -0.201697
   5 H :    0.039773
   6 C :   -0.037994
   7 H :    0.038477
   8 H :    0.027423
   9 C :   -0.034910
  10 H :    0.032095
  11 H :    0.018537
  12 C :   -0.072772
  13 H :    0.026796
  14 H :    0.030542
  15 H :    0.025917
  16 S :    0.442708
  17 C :   -0.195411
  18 C :   -0.071336
  19 C :   -0.056708
  20 C :   -0.225112
  21 H :    0.033138
  22 C :   -0.044175
  23 H :    0.031439
  24 H :    0.039120
  25 C :   -0.039446
  26 H :    0.023588
  27 H :    0.028802
  28 C :   -0.053923
  29 H :    0.021997
  30 H :    0.015182
  31 H :    0.026738
  32 H :    0.033791
  33 H :    0.019749

  Mayer bond orders larger than 0.100000
B(  0-S ,  1-C ) :   1.1581 B(  0-S ,  4-C ) :   1.1781 B(  1-C ,  2-C ) :   1.5683
B(  1-C ,  4-C ) :   0.1056 B(  1-C , 32-H ) :   0.9619 B(  2-C ,  3-C ) :   1.2672
B(  2-C ,  6-C ) :   1.0299 B(  3-C ,  4-C ) :   1.5276 B(  3-C ,  5-H ) :   0.9830
B(  4-C , 20-C ) :   1.0453 B(  6-C ,  7-H ) :   0.9259 B(  6-C ,  8-H ) :   0.9417
B(  6-C ,  9-C ) :   1.0774 B(  9-C , 10-H ) :   0.9515 B(  9-C , 11-H ) :   0.9599
B(  9-C , 12-C ) :   1.0617 B( 12-C , 13-H ) :   0.9775 B( 12-C , 14-H ) :   0.9716
B( 12-C , 15-H ) :   0.9797 B( 16-S , 17-C ) :   1.1666 B( 16-S , 20-C ) :   1.1653
B( 17-C , 18-C ) :   1.6020 B( 17-C , 33-H ) :   0.9713 B( 18-C , 19-C ) :   1.2386
B( 18-C , 21-H ) :   0.9932 B( 19-C , 20-C ) :   1.5625 B( 19-C , 22-C ) :   1.0592
B( 22-C , 23-H ) :   0.9331 B( 22-C , 24-H ) :   0.9250 B( 22-C , 25-C ) :   1.0411
B( 25-C , 26-H ) :   0.9544 B( 25-C , 27-H ) :   0.9652 B( 25-C , 28-C ) :   1.0922
B( 28-C , 29-H ) :   0.9762 B( 28-C , 30-H ) :   0.9709 B( 28-C , 31-H ) :   0.9730

Dispersion correction           -0.013581179
FINAL SINGLE POINT ENERGY     -1339.873555286287

DIPOLE MOMENT
-------------
                                X             Y             Z
Electronic contribution:     -4.50385      21.48443      -6.60442
Nuclear contribution   :      4.65678     -22.08516       6.60764
                        -----------------------------------------
Total Dipole Moment    :      0.15293      -0.60073       0.00322
                        -----------------------------------------
Magnitude (a.u.)       :      0.61990
Magnitude (Debye)      :      1.57565

Rotational constants in cm-1:     0.017764     0.008021     0.006832
Rotational constants in MHz :   532.554651   240.475974   204.805547

                             ****ORCA TERMINATED NORMALLY****
TOTAL RUN TIME: 0 days 0 hours 0 minutes 20 seconds 909 msec
