                         Program Version 4.2.1 -  RELEASE  -
|  1> ! wB97X-D3 SP def2-SVP
|  2> %pal
|  3> nprocs 24
|  4> end
|  5>
|  6> * xyz 0 1
|  7> S 	 -143.62 	 3.73215 	 0.571477
|  8> C 	 -141.994 	 3.74891 	 0.0283551
|  9> C 	 -141.243 	 4.62091 	 0.834657
| 10> C 	 -141.955 	 5.231 	 1.89725
| 11> C 	 -143.239 	 4.76147 	 2.01504
| 12> H 	 -141.575 	 5.96718 	 2.61926
| 13> C 	 -139.709 	 4.98446 	 0.685565
| 14> H 	 -139.184 	 4.09244 	 0.394936
| 15> H 	 -139.263 	 5.32056 	 1.60583
| 16> C 	 -139.491 	 6.23338 	 -0.221814
| 17> H 	 -140.064 	 6.19316 	 -1.12379
| 18> H 	 -139.849 	 7.214 	 0.275019
| 19> C 	 -137.993 	 6.50684 	 -0.462746
| 20> H 	 -137.645 	 5.76331 	 -1.18852
| 21> H 	 -137.74 	 7.49141 	 -0.877967
| 22> H 	 -137.419 	 6.50919 	 0.490569
| 23> S 	 -145.683 	 6.13446 	 2.51452
| 24> C 	 -146.202 	 6.27879 	 4.18495
| 25> C 	 -145.267 	 5.68157 	 5.04703
| 26> C 	 -144.15 	 5.08079 	 4.38156
| 27> C 	 -144.236 	 5.17838 	 3.00402
| 28> H 	 -145.375 	 5.48217 	 6.12431
| 29> C 	 -143.052 	 4.33155 	 5.15237
| 30> H 	 -142.609 	 3.79381 	 4.33224
| 31> H 	 -143.432 	 3.53783 	 5.81066
| 32> C 	 -142.065 	 5.23027 	 5.90109
| 33> H 	 -142.729 	 5.74925 	 6.61718
| 34> H 	 -141.634 	 5.94944 	 5.28522
| 35> C 	 -141.03 	 4.35801 	 6.5868
| 36> H 	 -141.558 	 3.71278 	 7.23997
| 37> H 	 -140.478 	 4.9549 	 7.29938
| 38> H 	 -140.262 	 3.84134 	 5.98813
| 39> H 	 -141.694 	 3.23541 	 -0.877111
| 40> H 	 -147.125 	 6.76189 	 4.59339
| 41> *
| 42>
| 43>                          ****END OF INPUT****

CARTESIAN COORDINATES (ANGSTROEM)
---------------------------------
  S    -143.620000    3.732150    0.571477
  C    -141.994000    3.748910    0.028355
  C    -141.243000    4.620910    0.834657
  C    -141.955000    5.231000    1.897250
  C    -143.239000    4.761470    2.015040
  H    -141.575000    5.967180    2.619260
  C    -139.709000    4.984460    0.685565
  H    -139.184000    4.092440    0.394936
  H    -139.263000    5.320560    1.605830
  C    -139.491000    6.233380   -0.221814
  H    -140.064000    6.193160   -1.123790
  H    -139.849000    7.214000    0.275019
  C    -137.993000    6.506840   -0.462746
  H    -137.645000    5.763310   -1.188520
  H    -137.740000    7.491410   -0.877967
  H    -137.419000    6.509190    0.490569
  S    -145.683000    6.134460    2.514520
  C    -146.202000    6.278790    4.184950
  C    -145.267000    5.681570    5.047030
  C    -144.150000    5.080790    4.381560
  C    -144.236000    5.178380    3.004020
  H    -145.375000    5.482170    6.124310
  C    -143.052000    4.331550    5.152370
  H    -142.609000    3.793810    4.332240
  H    -143.432000    3.537830    5.810660
  C    -142.065000    5.230270    5.901090
  H    -142.729000    5.749250    6.617180
  H    -141.634000    5.949440    5.285220
  C    -141.030000    4.358010    6.586800
  H    -141.558000    3.712780    7.239970
  H    -140.478000    4.954900    7.299380
  H    -140.262000    3.841340    5.988130
  H    -141.694000    3.235410   -0.877111
  H    -147.125000    6.761890    4.593390

 Total Charge           Charge          ....    0
 Multiplicity           Mult            ....    1
 Number of Electrons    NEL             ....  134
 Basis Dimension        Dim             ....  322

ORBITAL ENERGIES
----------------

  NO   OCC          E(Eh)            E(eV)
   0   2.0000     -88.968939     -2420.9679
   1   2.0000     -88.966305     -2420.8962
   2   2.0000     -10.332425      -281.1596
   3   2.0000     -10.329276      -281.0739
   4   2.0000     -10.326086      -280.9871
   5   2.0000     -10.319724      -280.8140
   6   2.0000     -10.307205      -280.4733
   7   2.0000     -10.301177      -280.3093
   8   2.0000     -10.297067      -280.1974
   9   2.0000     -10.295623      -280.1581
  10   2.0000     -10.295515      -280.1552
  11   2.0000     -10.291195      -280.0377
  12   2.0000     -10.286880      -279.9202
  13   2.0000     -10.284087      -279.8442
  14   2.0000     -10.281577      -279.7759
  15   2.0000     -10.274818      -279.5920
  16   2.0000      -8.082473      -219.9353
  17   2.0000      -8.080750      -219.8884
  18   2.0000      -6.041123      -164.3873
  19   2.0000      -6.039221      -164.3356
  20   2.0000      -6.037143      -164.2790
  21   2.0000      -6.035256      -164.2277
  22   2.0000      -6.033150      -164.1704
  23   2.0000      -6.031602      -164.1282
  24   2.0000      -1.000602       -27.2278
  25   2.0000      -0.979079       -26.6421
  26   2.0000      -0.911938       -24.8151
  27   2.0000      -0.901561       -24.5327
  28   2.0000      -0.868998       -23.6467
  29   2.0000      -0.849993       -23.1295
  30   2.0000      -0.846648       -23.0385
  31   2.0000      -0.808534       -22.0013
  32   2.0000      -0.780101       -21.2276
  33   2.0000      -0.766481       -20.8570
  34   2.0000      -0.706210       -19.2170
  35   2.0000      -0.696762       -18.9599
  36   2.0000      -0.694977       -18.9113
  37   2.0000      -0.658838       -17.9279
  38   2.0000      -0.648096       -17.6356
  39   2.0000      -0.615076       -16.7371
  40   2.0000      -0.592392       -16.1198
  41   2.0000      -0.571898       -15.5621
  42   2.0000      -0.569258       -15.4903
  43   2.0000      -0.550734       -14.9862
  44   2.0000      -0.521257       -14.1841
  45   2.0000      -0.519806       -14.1446
  46   2.0000      -0.515777       -14.0350
  47   2.0000      -0.508516       -13.8374
  48   2.0000      -0.505844       -13.7647
  49   2.0000      -0.502748       -13.6805
  50   2.0000      -0.495164       -13.4741
  51   2.0000      -0.479160       -13.0386
  52   2.0000      -0.472010       -12.8440
  53   2.0000      -0.466139       -12.6843
  54   2.0000      -0.460546       -12.5321
  55   2.0000      -0.447226       -12.1696
  56   2.0000      -0.444911       -12.1067
  57   2.0000      -0.437890       -11.9156
  58   2.0000      -0.430543       -11.7157
  59   2.0000      -0.420444       -11.4409
  60   2.0000      -0.417843       -11.3701
  61   2.0000      -0.416934       -11.3454
  62   2.0000      -0.407425       -11.0866
  63   2.0000      -0.346381        -9.4255
  64   2.0000      -0.332144        -9.0381
  65   2.0000      -0.326280        -8.8785
  66   2.0000      -0.296212        -8.0603
  67   0.0000       0.029585         0.8050
  68   0.0000       0.060527         1.6470
  69   0.0000       0.114534         3.1166
  70   0.0000       0.122030         3.3206
  71   0.0000       0.128053         3.4845

MULLIKEN ATOMIC CHARGES
-----------------------
   0 S :    0.104950
   1 C :   -0.117320
   2 C :   -0.087191
   3 C :    0.043054
   4 C :   -0.188664
   5 H :    0.029367
   6 C :    0.076226
   7 H :    0.028544
   8 H :    0.013339
   9 C :   -0.097506
  10 H :    0.028316
  11 H :    0.034269
  12 C :   -0.059116
  13 H :    0.036527
  14 H :    0.033250
  15 H :    0.032001
  16 S :    0.112582
  17 C :   -0.105707
  18 C :   -0.032333
  19 C :   -0.047022
  20 C :   -0.156603
  21 H :    0.027702
  22 C :    0.041870
  23 H :    0.021780
  24 H :    0.030454
  25 C :   -0.043785
  26 H :    0.024841
  27 H :    0.012624
  28 C :   -0.007911
  29 H :    0.011326
  30 H :    0.016442
  31 H :    0.047139
  32 H :    0.058169
  33 H :    0.078388
Sum of atomic charges:    0.0000000

LOEWDIN ATOMIC CHARGES
----------------------
   0 S :    0.397927
   1 C :   -0.205362
   2 C :   -0.063795
   3 C :   -0.055653
   4 C :   -0.181095
   5 H :    0.039658
   6 C :   -0.024065
   7 H :    0.026215
   8 H :    0.026064
   9 C :   -0.044623
  10 H :    0.016551
  11 H :    0.031318
  12 C :   -0.073378
  13 H :    0.024745
  14 H :    0.025812
  15 H :    0.027519
  16 S :    0.388131
  17 C :   -0.192848
  18 C :   -0.079469
  19 C :   -0.052628
  20 C :   -0.191631
  21 H :    0.033264
  22 C :   -0.032823
  23 H :    0.026855
  24 H :    0.031758
  25 C :   -0.030048
  26 H :    0.028681
  27 H :    0.012634
  28 C :   -0.062018
  29 H :    0.020688
  30 H :    0.024529
  31 H :    0.031826
  32 H :    0.031723
  33 H :    0.043535

  Mayer bond orders larger than 0.100000
B(  0-S ,  1-C ) :   1.1558 B(  0-S ,  4-C ) :   1.1397 B(  1-C ,  2-C ) :   1.5795
B(  1-C ,  4-C ) :   0.1029 B(  1-C , 32-H ) :   0.9752 B(  2-C ,  3-C ) :   1.2574
B(  2-C ,  6-C ) :   1.0147 B(  3-C ,  4-C ) :   1.5678 B(  3-C ,  5-H ) :   0.9895
B(  4-C , 20-C ) :   1.0402 B(  6-C ,  7-H ) :   0.9536 B(  6-C ,  8-H ) :   0.9457
B(  6-C ,  9-C ) :   1.0434 B(  9-C , 10-H ) :   0.9631 B(  9-C , 11-H ) :   0.9589
B(  9-C , 12-C ) :   1.0741 B( 12-C , 13-H ) :   0.9777 B( 12-C , 14-H ) :   0.9758
B( 12-C , 15-H ) :   0.9721 B( 16-S , 17-C ) :   1.1521 B( 16-S , 20-C ) :   1.1225
B( 17-C , 18-C ) :   1.5983 B( 17-C , 33-H ) :   0.9605 B( 18-C , 19-C ) :   1.2539
B( 18-C , 21-H ) :   0.9771 B( 19-C , 20-C ) :   1.6175 B( 19-C , 22-C ) :   1.0303
B( 22-C , 23-H ) :   0.9295 B( 22-C , 24-H ) :   0.9423 B( 22-C , 25-C ) :   1.0567
B( 25-C , 26-H ) :   0.9534 B( 25-C , 27-H ) :   0.9543 B( 25-C , 28-C ) :   1.0878
B( 28-C , 29-H ) :   0.9687 B( 28-C , 30-H ) :   0.9695 B( 28-C , 31-H ) :   0.9758

Dispersion correction           -0.013973667
FINAL SINGLE POINT ENERGY     -1339.874897616829

DIPOLE MOMENT
-------------
                                X             Y             Z
Electronic contribution:    -28.17890      -3.25401      -8.92947
Nuclear contribution   :     28.75082       3.34256       9.28670
                        -----------------------------------------
Total Dipole Moment    :      0.57193       0.08855       0.35723
                        -----------------------------------------
Magnitude (a.u.)       :      0.68011
Magnitude (Debye)      :      1.72871

Rotational constants in cm-1:     0.016813     0.008398     0.006587
Rotational constants in MHz :   504.046675   251.780250   197.477375

                             ****ORCA TERMINATED NORMALLY****
TOTAL RUN TIME: 0 days 0 hours 0 minutes 20 seconds 145 msec
